VARIABLES="w (rad/s)"
"abs(F   1   1)" "angle(F   1   1)"
"abs(F   1   2)" "angle(F   1   2)"
"abs(F   1   3)" "angle(F   1   3)"
Zone t="Diffraction force - beta =   0.000 deg",I=    64,F=POINT
  0.5000000E-01  0.1419338E+04 -0.1570775E+01  0.7462853E+05 -0.5211656E-05  0.4191815E+04  0.1570821E+01
  0.8095238E-01  0.2320934E+04 -0.1570806E+01  0.7440958E+05 -0.1400322E-04  0.6846704E+04  0.1570764E+01
  0.1119048E+00  0.3237633E+04 -0.1570789E+01  0.7408773E+05 -0.2775803E-04  0.9546570E+04  0.1570806E+01
  0.1428571E+00  0.4185752E+04 -0.1570783E+01  0.7366330E+05 -0.4750481E-04  0.1232646E+05  0.1570790E+01
  0.1738095E+00  0.5170434E+04 -0.1570793E+01  0.7313698E+05 -0.7471899E-04  0.1521079E+05  0.1570798E+01
  0.2047619E+00  0.6201233E+04 -0.1570793E+01  0.7250984E+05 -0.1116701E-03  0.1822405E+05  0.1570797E+01
  0.2357143E+00  0.7297816E+04 -0.1570781E+01  0.7178239E+05 -0.1615597E-03  0.2141436E+05  0.1570811E+01
  0.2666667E+00  0.8464496E+04 -0.1570778E+01  0.7095732E+05 -0.2281369E-03  0.2480655E+05  0.1570819E+01
  0.2976190E+00  0.9727087E+04 -0.1570768E+01  0.7003554E+05 -0.3183048E-03  0.2845809E+05  0.1570821E+01
  0.3285715E+00  0.1110142E+05 -0.1570761E+01  0.6902156E+05 -0.4382337E-03  0.3241864E+05  0.1570836E+01
  0.3595238E+00  0.1260740E+05 -0.1570735E+01  0.6791712E+05 -0.5988320E-03  0.3673810E+05  0.1570851E+01
  0.3904762E+00  0.1425447E+05 -0.1570709E+01  0.6673032E+05 -0.8111089E-03  0.4144893E+05  0.1570883E+01
  0.4214286E+00  0.1607841E+05 -0.1570666E+01  0.6546270E+05 -0.1082044E-02  0.4663064E+05  0.1570927E+01
  0.4523810E+00  0.1806325E+05 -0.1570605E+01  0.6412713E+05 -0.1433691E-02  0.5226312E+05  0.1570986E+01
  0.4833333E+00  0.2022780E+05 -0.1570521E+01  0.6272475E+05 -0.1851310E-02  0.5834207E+05  0.1571069E+01
  0.5142857E+00  0.2254558E+05 -0.1570404E+01  0.6126546E+05 -0.2362609E-02  0.6483586E+05  0.1571189E+01
  0.5452381E+00  0.2501775E+05 -0.1570248E+01  0.5975581E+05 -0.2956484E-02  0.7172343E+05  0.1571345E+01
  0.5761905E+00  0.2763583E+05 -0.1570046E+01  0.5819448E+05 -0.3632660E-02  0.7896070E+05  0.1571546E+01
  0.6071429E+00  0.3034893E+05 -0.1569785E+01  0.5660226E+05 -0.4415557E-02  0.8640391E+05  0.1571809E+01
  0.6380953E+00  0.3317255E+05 -0.1569459E+01  0.5496940E+05 -0.5278292E-02  0.9407076E+05  0.1572134E+01
  0.6690477E+00  0.3610007E+05 -0.1569055E+01  0.5330140E+05 -0.6245483E-02  0.1019559E+06  0.1572536E+01
  0.7000000E+00  0.3907818E+05 -0.1568561E+01  0.5161983E+05 -0.7327456E-02  0.1099303E+06  0.1573032E+01
  0.7309524E+00  0.4213677E+05 -0.1567964E+01  0.4991344E+05 -0.8515007E-02  0.1180171E+06  0.1573629E+01
  0.7619048E+00  0.4527914E+05 -0.1567248E+01  0.4818711E+05 -0.9824538E-02  0.1262032E+06  0.1574344E+01
  0.7928572E+00  0.4843942E+05 -0.1566399E+01  0.4645994E+05 -0.1125466E-01  0.1343573E+06  0.1575193E+01
  0.8238096E+00  0.5165893E+05 -0.1565400E+01  0.4472982E+05 -0.1281787E-01  0.1425828E+06  0.1576192E+01
  0.8547620E+00  0.5492468E+05 -0.1564236E+01  0.4299668E+05 -0.1452112E-01  0.1507789E+06  0.1577357E+01
  0.8857143E+00  0.5823768E+05 -0.1562886E+01  0.4126325E+05 -0.1637856E-01  0.1590105E+06  0.1578706E+01
  0.9166667E+00  0.6153154E+05 -0.1561337E+01  0.3955268E+05 -0.1835653E-01  0.1670582E+06  0.1580254E+01
  0.9476191E+00  0.6486680E+05 -0.1559568E+01  0.3785673E+05 -0.2049778E-01  0.1750879E+06  0.1582023E+01
  0.9785714E+00  0.6820550E+05 -0.1557562E+01  0.3617672E+05 -0.2281437E-01  0.1829270E+06  0.1584031E+01
  0.1009524E+01  0.7159045E+05 -0.1555298E+01  0.3451406E+05 -0.2532358E-01  0.1907371E+06  0.1586294E+01
  0.1040476E+01  0.7491609E+05 -0.1552759E+01  0.3288281E+05 -0.2798965E-01  0.1982860E+06  0.1588832E+01
  0.1071429E+01  0.7822841E+05 -0.1549924E+01  0.3128879E+05 -0.3080672E-01  0.2056578E+06  0.1591666E+01
  0.1102381E+01  0.8153347E+05 -0.1546776E+01  0.2972570E+05 -0.3383966E-01  0.2128616E+06  0.1594813E+01
  0.1133333E+01  0.8482025E+05 -0.1543301E+01  0.2819613E+05 -0.3710929E-01  0.2198159E+06  0.1598288E+01
  0.1164286E+01  0.8811456E+05 -0.1539483E+01  0.2669944E+05 -0.4064643E-01  0.2265885E+06  0.1602103E+01
  0.1195238E+01  0.9131006E+05 -0.1535306E+01  0.2524601E+05 -0.4439457E-01  0.2329701E+06  0.1606279E+01
  0.1226190E+01  0.9442952E+05 -0.1530756E+01  0.2384523E+05 -0.4822575E-01  0.2389590E+06  0.1610827E+01
  0.1257143E+01  0.9749570E+05 -0.1525822E+01  0.2248861E+05 -0.5235980E-01  0.2447435E+06  0.1615758E+01
  0.1288095E+01  0.1005342E+06 -0.1520459E+01  0.2117470E+05 -0.5675577E-01  0.2501306E+06  0.1621117E+01
  0.1319048E+01  0.1035116E+06 -0.1514695E+01  0.1990540E+05 -0.6150816E-01  0.2552201E+06  0.1626876E+01
  0.1350000E+01  0.1064217E+06 -0.1508500E+01  0.1867998E+05 -0.6666336E-01  0.2600124E+06  0.1633065E+01
  0.1380952E+01  0.1091836E+06 -0.1501875E+01  0.1750632E+05 -0.7200828E-01  0.2643048E+06  0.1639683E+01
  0.1411905E+01  0.1116705E+06 -0.1494816E+01  0.1638832E+05 -0.7737605E-01  0.2679907E+06  0.1646734E+01
  0.1442857E+01  0.1142189E+06 -0.1487327E+01  0.1532067E+05 -0.8307587E-01  0.2714892E+06  0.1654217E+01
  0.1473810E+01  0.1166168E+06 -0.1479454E+01  0.1429954E+05 -0.8916775E-01  0.2743703E+06  0.1662078E+01
  0.1504762E+01  0.1189135E+06 -0.1471157E+01  0.1332633E+05 -0.9564806E-01  0.2768148E+06  0.1670362E+01
  0.1535714E+01  0.1211281E+06 -0.1462450E+01  0.1239686E+05 -0.1026610E+00  0.2788889E+06  0.1679045E+01
  0.1566667E+01  0.1231440E+06 -0.1453319E+01  0.1151553E+05 -0.1101615E+00  0.2804644E+06  0.1688162E+01
  0.1597619E+01  0.1249651E+06 -0.1443832E+01  0.1068286E+05 -0.1176750E+00  0.2814240E+06  0.1697622E+01
  0.1628572E+01  0.1265843E+06 -0.1433999E+01  0.9896169E+04 -0.1252918E+00  0.2817824E+06  0.1707422E+01
  0.1659524E+01  0.1280771E+06 -0.1423745E+01  0.9159062E+04 -0.1330912E+00  0.2818508E+06  0.1717664E+01
  0.1690476E+01  0.1293889E+06 -0.1413194E+01  0.8462489E+04 -0.1414517E+00  0.2813816E+06  0.1728191E+01
  0.1721429E+01  0.1304850E+06 -0.1402406E+01  0.7808977E+04 -0.1501386E+00  0.2802732E+06  0.1738928E+01
  0.1752381E+01  0.1314395E+06 -0.1391336E+01  0.7193756E+04 -0.1593837E+00  0.2788098E+06  0.1749952E+01
  0.1783333E+01  0.1322443E+06 -0.1380026E+01  0.6614741E+04 -0.1695247E+00  0.2770064E+06  0.1761202E+01
  0.1814286E+01  0.1327520E+06 -0.1368645E+01  0.6076333E+04 -0.1798631E+00  0.2745593E+06  0.1772554E+01
  0.1845238E+01  0.1330348E+06 -0.1357309E+01  0.5572052E+04 -0.1902487E+00  0.2715050E+06  0.1783798E+01
  0.1876190E+01  0.1330756E+06 -0.1345990E+01  0.5099546E+04 -0.2012239E+00  0.2679038E+06  0.1795007E+01
  0.1907143E+01  0.1329657E+06 -0.1334564E+01  0.4666765E+04 -0.2113865E+00  0.2640858E+06  0.1806416E+01
  0.1938095E+01  0.1326958E+06 -0.1323142E+01  0.4264276E+04 -0.2221421E+00  0.2600066E+06  0.1817835E+01
  0.1969048E+01  0.1321251E+06 -0.1312130E+01  0.3890185E+04 -0.2333728E+00  0.2551572E+06  0.1828665E+01
  0.2000000E+01  0.1314277E+06 -0.1301194E+01  0.3544059E+04 -0.2448389E+00  0.2501404E+06  0.1839489E+01
