VARIABLES="w (rad/s)"
"A   1   1" "B   1   1"
"A   1   2" "B   1   2"
"A   1   3" "B   1   3"
Zone t="Motion of body    1 in DoF   1",I=    64,F=POINT
  0.5000000E-01  0.5182499E+05  0.4343449E-02 -0.9841919E-02 -0.3500242E-04  0.8105937E+05  0.8368223E-02
  0.8095238E-01  0.5198841E+05  0.1911676E-01  0.5183500E-02 -0.6816263E-05  0.8099779E+05  0.3672056E-01
  0.1119048E+00  0.5207579E+05  0.5366947E-01  0.1431729E-01  0.7940584E-04  0.8112118E+05  0.1030899E+00
  0.1428571E+00  0.5212864E+05  0.1206572E+00  0.5874633E-02  0.5465071E-04  0.8116985E+05  0.2319858E+00
  0.1738095E+00  0.5219113E+05  0.2400851E+00 -0.9656932E-02 -0.8230237E-04  0.8137225E+05  0.4621659E+00
  0.2047619E+00  0.5225264E+05  0.4425078E+00  0.7451967E-02  0.1323307E-03  0.8148627E+05  0.8524424E+00
  0.2357143E+00  0.5231959E+05  0.7784693E+00  0.7768110E-03  0.2339538E-03  0.8158152E+05  0.1501292E+01
  0.2666667E+00  0.5243226E+05  0.1327067E+01 -0.1178741E-01 -0.2252758E-03  0.8194532E+05  0.2563655E+01
  0.2976190E+00  0.5253740E+05  0.2222889E+01 -0.1517578E-01 -0.3428087E-03  0.8215298E+05  0.4299842E+01
  0.3285715E+00  0.5264314E+05  0.3672813E+01 -0.2517037E-01 -0.3650934E-03  0.8231702E+05  0.7114913E+01
  0.3595238E+00  0.5280135E+05  0.6022100E+01 -0.1858945E-01 -0.3904551E-03  0.8280392E+05  0.1169173E+02
  0.3904762E+00  0.5293102E+05  0.9801659E+01  0.1719405E-01  0.1128897E-02  0.8309088E+05  0.1906683E+02
  0.4214286E+00  0.5311402E+05  0.1573270E+02  0.4779363E-02  0.7670820E-03  0.8340439E+05  0.3066329E+02
  0.4523810E+00  0.5328490E+05  0.2503212E+02  0.1450388E-01  0.1744628E-02  0.8379480E+05  0.4889720E+02
  0.4833333E+00  0.5352697E+05  0.3884475E+02 -0.2039416E-01 -0.1697481E-02  0.8449547E+05  0.7610483E+02
  0.5142857E+00  0.5376684E+05  0.5926372E+02  0.1851400E-01  0.1973271E-02  0.8503523E+05  0.1164065E+03
  0.5452381E+00  0.5404820E+05  0.8826274E+02 -0.8283724E-02 -0.1835585E-02  0.8563466E+05  0.1738285E+03
  0.5761905E+00  0.5429074E+05  0.1283093E+03 -0.1684267E-01 -0.1859188E-02  0.8613489E+05  0.2533837E+03
  0.6071429E+00  0.5456394E+05  0.1830054E+03  0.7640165E-02  0.3174305E-02  0.8680380E+05  0.3624910E+03
  0.6380953E+00  0.5491459E+05  0.2552155E+03  0.7652169E-03 -0.5025864E-03  0.8766222E+05  0.5071862E+03
  0.6690477E+00  0.5527906E+05  0.3497005E+03 -0.1678575E-01 -0.4717827E-02  0.8843918E+05  0.6971375E+03
  0.7000000E+00  0.5563173E+05  0.4717681E+03 -0.8719308E-04  0.8172989E-03  0.8917235E+05  0.9434627E+03
  0.7309524E+00  0.5600291E+05  0.6261932E+03  0.9185094E-03  0.2124786E-02  0.9002875E+05  0.1256598E+04
  0.7619048E+00  0.5640150E+05  0.8196483E+03  0.1161575E-01  0.5779266E-02  0.9096985E+05  0.1650677E+04
  0.7928572E+00  0.5683389E+05  0.1059238E+04  0.7698127E-04  0.4505157E-02  0.9200784E+05  0.2141119E+04
  0.8238096E+00  0.5729916E+05  0.1352557E+04 -0.1378054E-01 -0.5496979E-02  0.9307955E+05  0.2744342E+04
  0.8547620E+00  0.5777040E+05  0.1707639E+04 -0.5712482E-02  0.1426697E-02  0.9414255E+05  0.3478198E+04
  0.8857143E+00  0.5822705E+05  0.2132742E+04  0.1116353E-01  0.6160736E-02  0.9515119E+05  0.4360781E+04
  0.9166667E+00  0.5865488E+05  0.2635883E+04 -0.6658380E-02 -0.4196167E-02  0.9616343E+05  0.5410913E+04
  0.9476191E+00  0.5909294E+05  0.3225153E+04 -0.7471439E-02  0.1388550E-02  0.9724130E+05  0.6647378E+04
  0.9785714E+00  0.5955195E+05  0.3908637E+04  0.8357807E-02  0.2540588E-02  0.9842048E+05  0.8089941E+04
  0.1009524E+01  0.5997930E+05  0.4693644E+04 -0.4836748E-03 -0.5325317E-02  0.9948894E+05  0.9755748E+04
  0.1040476E+01  0.6037742E+05  0.5587562E+04  0.2651468E-01  0.1847839E-01  0.1004882E+06  0.1166444E+05
  0.1071429E+01  0.6073886E+05  0.6596200E+04  0.2620443E-02  0.3311157E-02  0.1013841E+06  0.1383162E+05
  0.1102381E+01  0.6103849E+05  0.7722642E+04 -0.9965999E-02 -0.1139832E-01  0.1021789E+06  0.1626805E+05
  0.1133333E+01  0.6127801E+05  0.8967254E+04  0.9262983E-02  0.1130676E-01  0.1028598E+06  0.1897667E+05
  0.1164286E+01  0.6142989E+05  0.1032786E+05  0.1782376E-02  0.1348877E-01  0.1033612E+06  0.2195661E+05
  0.1195238E+01  0.6150216E+05  0.1180145E+05 -0.1174501E-01 -0.6164551E-02  0.1037092E+06  0.2520614E+05
  0.1226190E+01  0.6150348E+05  0.1338148E+05  0.3882547E-02  0.5828857E-02  0.1039153E+06  0.2871579E+05
  0.1257143E+01  0.6141811E+05  0.1507755E+05 -0.1252608E-01 -0.1846313E-01  0.1039208E+06  0.3251026E+05
  0.1288095E+01  0.6124660E+05  0.1682270E+05 -0.3790723E-02  0.6530762E-02  0.1037640E+06  0.3644817E+05
  0.1319048E+01  0.6099232E+05  0.1865661E+05  0.1082768E-01  0.2337646E-01  0.1034287E+06  0.4061769E+05
  0.1350000E+01  0.6065184E+05  0.2054554E+05 -0.4249855E-02 -0.1171875E-01  0.1028891E+06  0.4494669E+05
  0.1380952E+01  0.6022329E+05  0.2247198E+05 -0.8132408E-02  0.2685547E-02  0.1021698E+06  0.4940144E+05
  0.1411905E+01  0.5897882E+05  0.2403582E+05 -0.9510368E-03  0.8666992E-02  0.9938623E+05  0.5311792E+05
  0.1442857E+01  0.5841361E+05  0.2599300E+05 -0.2115080E-02 -0.4882812E-02  0.9834394E+05  0.5773018E+05
  0.1473810E+01  0.5776177E+05  0.2794388E+05 -0.1822180E-02  0.2868652E-02  0.9710779E+05  0.6237366E+05
  0.1504762E+01  0.5704343E+05  0.2986738E+05  0.2839294E-02 -0.4272461E-02  0.9570077E+05  0.6699937E+05
  0.1535714E+01  0.5625755E+05  0.3174808E+05  0.1987191E-02  0.6408691E-02  0.9413259E+05  0.7157838E+05
  0.1566667E+01  0.5541789E+05  0.3357817E+05  0.2960854E-02 -0.1123047E-01  0.9239916E+05  0.7608626E+05
  0.1597619E+01  0.5452223E+05  0.3534286E+05 -0.2597860E-02 -0.1098633E-02  0.9054824E+05  0.8049642E+05
  0.1628572E+01  0.5359978E+05  0.3702754E+05  0.2623441E-02  0.4882812E-02  0.8860509E+05  0.8476064E+05
  0.1659524E+01  0.5265453E+05  0.3862000E+05  0.1750667E-01  0.3405762E-01  0.8659613E+05  0.8885721E+05
  0.1690476E+01  0.5168906E+05  0.4012055E+05  0.6715586E-02  0.8666992E-02  0.8452634E+05  0.9277292E+05
  0.1721429E+01  0.5071850E+05  0.4151862E+05  0.1560069E-02 -0.3173828E-02  0.8242092E+05  0.9648116E+05
  0.1752381E+01  0.4974369E+05  0.4281434E+05  0.8637802E-02 -0.7324219E-03  0.8029068E+05  0.9998650E+05
  0.1783333E+01  0.4877342E+05  0.4400836E+05  0.1574365E-02 -0.2197266E-02  0.7814639E+05  0.1032948E+06
  0.1814286E+01  0.4781613E+05  0.4511298E+05 -0.4036971E-03 -0.2685547E-02  0.7597930E+05  0.1064103E+06
  0.1845238E+01  0.4685888E+05  0.4611889E+05 -0.3572329E-02  0.6958008E-02  0.7383624E+05  0.1093414E+06
  0.1876190E+01  0.4592839E+05  0.4702870E+05  0.3253143E-03 -0.4882812E-03  0.7170867E+05  0.1120502E+06
  0.1907143E+01  0.4502291E+05  0.4783801E+05 -0.2176235E-02  0.1159668E-01  0.6961971E+05  0.1145460E+06
  0.1938095E+01  0.4414177E+05  0.4855163E+05  0.4031020E-02 -0.3417969E-02  0.6757527E+05  0.1168273E+06
  0.1969048E+01  0.4328392E+05  0.4918542E+05 -0.9919136E-03  0.9765625E-03  0.6557417E+05  0.1189326E+06
  0.2000000E+01  0.4245928E+05  0.4973341E+05 -0.2685547E-02 -0.9765625E-03  0.6362042E+05  0.1208346E+06
Zone t="Motion of body    1 in DoF   2",I=    64,F=POINT
  0.5000000E-01 -0.1953125E-01  0.1907349E-05  0.2041425E+06  0.5956533E+03 -0.1770020E-01 -0.1087189E-03
  0.8095238E-01  0.9990019E-02  0.5626678E-04  0.2014553E+06  0.9877855E+03  0.6785673E-02 -0.2670288E-04
  0.1119048E+00 -0.8181308E-03 -0.8583069E-04  0.2002234E+06  0.1414871E+04 -0.2836187E-01 -0.9918213E-04
  0.1428571E+00 -0.1046753E-01 -0.1716614E-04  0.1993247E+06  0.1892788E+04 -0.2819824E-01 -0.2136230E-03
  0.1738095E+00  0.7725546E-02 -0.1525879E-04  0.1993405E+06  0.2442630E+04 -0.3300915E-01 -0.2288818E-03
  0.2047619E+00  0.9091400E-02  0.4196167E-04  0.1994623E+06  0.3089284E+04 -0.7153888E-02 -0.2593994E-03
  0.2357143E+00 -0.2071496E-02 -0.4577637E-04  0.2001272E+06  0.3868647E+04  0.0000000E+00 -0.3814697E-03
  0.2666667E+00  0.9155273E-02  0.1831055E-03  0.2010824E+06  0.4811922E+04 -0.3662109E-02 -0.4882812E-03
  0.2976190E+00 -0.1784180E-01  0.6484985E-04  0.2019784E+06  0.5984964E+04  0.9843750E-02 -0.1068115E-02
  0.3285715E+00 -0.9287957E-02  0.1525879E-03  0.2032492E+06  0.7424917E+04 -0.3269361E-01 -0.3051758E-03
  0.3595238E+00 -0.6111600E-02  0.1296997E-03  0.2045027E+06  0.9209758E+04 -0.2444640E-01  0.1525879E-03
  0.3904762E+00 -0.2032024E-02 -0.8697510E-03  0.2055102E+06  0.1140492E+05 -0.1375524E-01 -0.1831055E-03
  0.4214286E+00  0.5937996E-02 -0.6103516E-04  0.2059600E+06  0.1398110E+05 -0.2896583E-01 -0.4882812E-03
  0.4523810E+00  0.2334113E-01 -0.1342773E-02  0.2063907E+06  0.1706789E+05  0.2428557E-01 -0.1098633E-02
  0.4833333E+00  0.9470972E-02  0.1922607E-02  0.2060558E+06  0.2041964E+05 -0.1969962E-01  0.2380371E-02
  0.5142857E+00  0.1614041E-01  0.1068115E-02  0.2049178E+06  0.2418999E+05 -0.3797743E-02 -0.4882812E-03
  0.5452381E+00 -0.2641836E-01 -0.3234863E-02  0.2034915E+06  0.2817168E+05 -0.1880629E-01  0.3662109E-03
  0.5761905E+00 -0.2457548E-01  0.1617432E-02  0.2016613E+06  0.3229687E+05 -0.2627034E-01 -0.7324219E-03
  0.6071429E+00  0.9851791E-02  0.5798340E-03  0.1992803E+06  0.3666066E+05  0.1608456E-01 -0.4272461E-02
  0.6380953E+00 -0.2199998E-01  0.1068115E-02  0.1966761E+06  0.4102335E+05 -0.1530434E-01 -0.9887695E-02
  0.6690477E+00  0.1897520E-01 -0.1342773E-02  0.1937522E+06  0.4547538E+05 -0.2554354E-01  0.1464844E-02
  0.7000000E+00 -0.1865932E-01 -0.1586914E-02  0.1906458E+06  0.5002211E+05 -0.6277902E-02 -0.3662109E-02
  0.7309524E+00 -0.3340034E-02  0.1831055E-03  0.1875050E+06  0.5453519E+05 -0.6680069E-02 -0.7080078E-02
  0.7619048E+00  0.4806518E-02 -0.2502441E-02  0.1841291E+06  0.5905577E+05  0.5126953E-02 -0.6347656E-02
  0.7928572E+00 -0.6774352E-02 -0.1464844E-02  0.1805046E+06  0.6357923E+05  0.1847551E-02  0.1464844E-02
  0.8238096E+00 -0.1807770E-01  0.3051758E-03  0.1767886E+06  0.6805548E+05  0.1481778E-01 -0.1269531E-01
  0.8547620E+00 -0.1999369E-02  0.8544922E-03  0.1730984E+06  0.7243799E+05 -0.7426227E-02 -0.8056641E-02
  0.8857143E+00 -0.6201959E-02 -0.1098633E-02  0.1693962E+06  0.7670966E+05 -0.1488470E-01  0.1123047E-01
  0.9166667E+00  0.2397017E-02  0.3479004E-02  0.1656657E+06  0.8086789E+05 -0.4527699E-01 -0.5126953E-02
  0.9476191E+00 -0.8115528E-02  0.2075195E-02  0.1618843E+06  0.8490887E+05 -0.2164141E-01 -0.1269531E-01
  0.9785714E+00 -0.5363965E-02  0.1220703E-02  0.1580884E+06  0.8881307E+05 -0.1496921E-01 -0.1953125E-01
  0.1009524E+01  0.4594911E-02  0.4272461E-02  0.1542695E+06  0.9258467E+05  0.2031434E-01  0.9765625E-03
  0.1040476E+01  0.1360930E-01  0.5126953E-02  0.1505040E+06  0.9618513E+05 -0.9385726E-02 -0.1513672E-01
  0.1071429E+01  0.2392578E-02  0.1953125E-02  0.1468229E+06  0.9958919E+05  0.1276042E-01 -0.2587891E-01
  0.1102381E+01 -0.5647399E-02  0.1184082E-01  0.1432452E+06  0.1027889E+06 -0.2879066E-01 -0.5371094E-02
  0.1133333E+01  0.5277746E-02 -0.8178711E-02  0.1397509E+06  0.1057901E+06  0.5600873E-02 -0.1660156E-01
  0.1164286E+01  0.6710122E-02 -0.1220703E-02  0.1363395E+06  0.1086123E+06 -0.8807035E-02 -0.9765625E-02
  0.1195238E+01 -0.2277511E-01 -0.3295898E-02  0.1330115E+06  0.1112567E+06 -0.4452892E-01 -0.1416016E-01
  0.1226190E+01 -0.2887022E-02 -0.2929688E-02  0.1297821E+06  0.1137157E+06  0.3982100E-03 -0.0000000E+00
  0.1257143E+01 -0.7573908E-02  0.6103516E-03  0.1266731E+06  0.1160721E+06 -0.1825506E-01 -0.3906250E-02
  0.1288095E+01 -0.9571576E-02 -0.4272461E-02  0.1235913E+06  0.1181094E+06 -0.1971176E-01 -0.8789062E-02
  0.1319048E+01  0.4997391E-02 -0.5737305E-02  0.1206553E+06  0.1200245E+06 -0.5182480E-02 -0.1953125E-01
  0.1350000E+01  0.2441406E-02  0.8789062E-02  0.1178253E+06  0.1217630E+06 -0.2133970E-01 -0.4394531E-02
  0.1380952E+01 -0.9016366E-02 -0.3662109E-02  0.1151078E+06  0.1233064E+06  0.6718077E-02  0.1953125E-01
  0.1411905E+01 -0.3285400E-02 -0.6835938E-02  0.1111308E+06  0.1250432E+06  0.1072078E-01 -0.1464844E-01
  0.1442857E+01 -0.8037303E-02  0.5004883E-02  0.1086264E+06  0.1263815E+06 -0.9475557E-02 -0.1416016E-01
  0.1473810E+01 -0.5797846E-03  0.1098633E-02  0.1062207E+06  0.1275755E+06 -0.3313055E-02 -0.2050781E-01
  0.1504762E+01 -0.2514803E-02 -0.7324219E-03  0.1039178E+06  0.1286180E+06 -0.6814305E-02  0.3417969E-02
  0.1535714E+01  0.1081032E-01 -0.1953125E-02  0.1017097E+06  0.1295331E+06 -0.4451308E-02 -0.1171875E-01
  0.1566667E+01 -0.1714179E-02  0.9765625E-03  0.9960412E+05  0.1303285E+06 -0.2399850E-01 -0.7324219E-02
  0.1597619E+01 -0.4890089E-02  0.1269531E-01  0.9758873E+05  0.1310188E+06 -0.4278828E-02  0.7324219E-02
  0.1628572E+01  0.9744209E-03  0.7324219E-02  0.9567041E+05  0.1315755E+06 -0.2098753E-01  0.6347656E-02
  0.1659524E+01 -0.6767284E-02  0.3906250E-02  0.9383579E+05  0.1319929E+06 -0.6767284E-02  0.2294922E-01
  0.1690476E+01  0.2021897E-02 -0.2563477E-02  0.9208428E+05  0.1322957E+06  0.2888424E-03  0.1708984E-01
  0.1721429E+01 -0.2978313E-02 -0.3784180E-02  0.9041382E+05  0.1324753E+06 -0.1701893E-02 -0.4394531E-01
  0.1752381E+01 -0.1462854E-02  0.1953125E-02  0.8882208E+05  0.1325510E+06 -0.2786388E-03 -0.3125000E-01
  0.1783333E+01  0.4586193E-02 -0.3906250E-02  0.8731323E+05  0.1325468E+06 -0.9035485E-02 -0.2343750E-01
  0.1814286E+01 -0.8141225E-02 -0.9033203E-02  0.8589188E+05  0.1324743E+06 -0.1076526E-01 -0.3515625E-01
  0.1845238E+01 -0.1131237E-01  0.4882812E-03  0.8453271E+05  0.1323463E+06 -0.2646169E-02 -0.1171875E-01
  0.1876190E+01 -0.3968834E-02  0.9765625E-03  0.8324720E+05  0.1321288E+06  0.2602514E-02 -0.1269531E-01
  0.1907143E+01  0.1497762E-01  0.8789062E-02  0.8201995E+05  0.1318180E+06  0.9985078E-02  0.3222656E-01
  0.1938095E+01 -0.1196709E-02  0.5859375E-02  0.8084763E+05  0.1314243E+06 -0.7306223E-02 -0.2246094E-01
  0.1969048E+01  0.1481671E-01  0.2441406E-03  0.7972930E+05  0.1309850E+06  0.7935309E-02 -0.0000000E+00
  0.2000000E+01 -0.1831055E-03  0.7568359E-02  0.7866479E+05  0.1304710E+06 -0.5615234E-02 -0.2636719E-01
Zone t="Motion of body    1 in DoF   3",I=    64,F=POINT
  0.5000000E-01  0.7843480E+05  0.8011575E-02 -0.4486084E-01 -0.1026068E-03  0.2317435E+06  0.1553147E-01
  0.8095238E-01  0.7837777E+05  0.3518439E-01 -0.3373988E-01 -0.1309515E-03  0.2316220E+06  0.6763764E-01
  0.1119048E+00  0.7854117E+05  0.9877383E-01 -0.1854430E-01 -0.1804228E-04  0.2321106E+06  0.1897957E+00
  0.1428571E+00  0.7851551E+05  0.2223241E+00 -0.2029419E-01 -0.1312844E-03  0.2315606E+06  0.4272541E+00
  0.1738095E+00  0.7879270E+05  0.4428533E+00 -0.3529170E-01 -0.3988985E-03  0.2327185E+06  0.8521982E+00
  0.2047619E+00  0.7884580E+05  0.8170188E+00 -0.4500988E-01 -0.4394762E-03  0.2325303E+06  0.1574085E+01
  0.2357143E+00  0.7892452E+05  0.1439204E+01  0.2874201E-01  0.5080588E-03  0.2325091E+06  0.2775757E+01
  0.2666667E+00  0.7934427E+05  0.2456720E+01 -0.3913879E-01 -0.4287101E-03  0.2340410E+06  0.4745889E+01
  0.2976190E+00  0.7947923E+05  0.4121042E+01 -0.4819336E-01 -0.8956641E-03  0.2339661E+06  0.7970912E+01
  0.3285715E+00  0.7960245E+05  0.6821265E+01 -0.3027874E-01 -0.6159842E-03  0.2339286E+06  0.1321324E+02
  0.3595238E+00  0.8016209E+05  0.1120379E+02 -0.1137437E-01 -0.6836653E-04  0.2358985E+06  0.2175149E+02
  0.3904762E+00  0.8039485E+05  0.1827415E+02  0.1344262E-01  0.1526177E-02  0.2362218E+06  0.3554770E+02
  0.4214286E+00  0.8061520E+05  0.2939817E+02  0.2896583E-03  0.4500747E-03  0.2361334E+06  0.5729434E+02
  0.4523810E+00  0.8101608E+05  0.4687940E+02  0.3346011E-01  0.3510118E-02  0.2371763E+06  0.9157178E+02
  0.4833333E+00  0.8177675E+05  0.7292104E+02 -0.2121498E-01 -0.9372234E-03  0.2396353E+06  0.1428642E+03
  0.5142857E+00  0.8224730E+05  0.1115350E+03  0.1780192E-01  0.4742861E-02  0.2405076E+06  0.2190745E+03
  0.5452381E+00  0.8279610E+05  0.1665803E+03  0.3358266E-02  0.1707077E-02  0.2415323E+06  0.3280742E+03
  0.5761905E+00  0.8328941E+05  0.2428632E+03 -0.3580393E-01 -0.5038738E-02  0.2426385E+06  0.4795987E+03
  0.6071429E+00  0.8396165E+05  0.3473631E+03  0.1849724E-01  0.2427101E-02  0.2444564E+06  0.6880623E+03
  0.6380953E+00  0.8479094E+05  0.4858959E+03 -0.3099128E-01 -0.5244255E-02  0.2465301E+06  0.9655912E+03
  0.6690477E+00  0.8547869E+05  0.6680656E+03 -0.8575330E-02 -0.1382828E-02  0.2477093E+06  0.1331841E+04
  0.7000000E+00  0.8616145E+05  0.9044060E+03 -0.9765624E-02  0.2428055E-02  0.2490274E+06  0.1808793E+04
  0.7309524E+00  0.8702080E+05  0.1204431E+04  0.1135612E-01  0.6092072E-02  0.2512357E+06  0.2416942E+04
  0.7619048E+00  0.8794577E+05  0.1581887E+04 -0.1858520E-01 -0.4638672E-02  0.2535638E+06  0.3185511E+04
  0.7928572E+00  0.8893300E+05  0.2051567E+04  0.2802118E-01  0.9410858E-02  0.2559311E+06  0.4146674E+04
  0.8238096E+00  0.8992728E+05  0.2629893E+04 -0.2104125E-01 -0.8201599E-02  0.2580817E+06  0.5336002E+04
  0.8547620E+00  0.9092399E+05  0.3334051E+04  0.7140603E-02 -0.2746582E-03  0.2602116E+06  0.6791618E+04
  0.8857143E+00  0.9188480E+05  0.4181230E+04 -0.2094884E-01 -0.4676819E-02  0.2623167E+06  0.8550094E+04
  0.9166667E+00  0.9286342E+05  0.5187673E+04 -0.2157315E-01 -0.1841736E-01  0.2647123E+06  0.1064900E+05
  0.9476191E+00  0.9391897E+05  0.6371755E+04 -0.3375029E-01 -0.1600647E-01  0.2674453E+06  0.1313093E+05
  0.9785714E+00  0.9507511E+05  0.7751876E+04 -0.5139428E-01 -0.2790833E-01  0.2705303E+06  0.1604126E+05
  0.1009524E+01  0.9607757E+05  0.9348800E+04 -0.2394190E-01 -0.6927490E-02  0.2729087E+06  0.1942842E+05
  0.1040476E+01  0.9699608E+05  0.1118074E+05 -0.3801219E-01 -0.4098511E-01  0.2750319E+06  0.2334071E+05
  0.1071429E+01  0.9782621E+05  0.1326402E+05 -0.7975261E-02 -0.2188110E-01  0.2769388E+06  0.2782002E+05
  0.1102381E+01  0.9858367E+05  0.1560349E+05 -0.2923360E-01 -0.6622314E-02  0.2788789E+06  0.3288138E+05
  0.1133333E+01  0.9924942E+05  0.1820132E+05 -0.1917222E-01  0.5126953E-02  0.2807884E+06  0.3853186E+05
  0.1164286E+01  0.9973638E+05  0.2105958E+05 -0.2411450E-01 -0.1232910E-01  0.2822617E+06  0.4478402E+05
  0.1195238E+01  0.1000703E+06  0.2417588E+05 -0.4452892E-01 -0.6390381E-01  0.2834714E+06  0.5164688E+05
  0.1226190E+01  0.1002694E+06  0.2754357E+05 -0.3424606E-01 -0.1184082E-01  0.2844068E+06  0.5911932E+05
  0.1257143E+01  0.1002652E+06  0.3119102E+05 -0.2097390E-01 -0.2893066E-01  0.2847848E+06  0.6726727E+05
  0.1288095E+01  0.1001087E+06  0.3496941E+05 -0.3184208E-01 -0.4650879E-01  0.2849131E+06  0.7577484E+05
  0.1319048E+01  0.9977984E+05  0.3897046E+05  0.2110009E-01  0.1147461E-01  0.2846686E+06  0.8484553E+05
  0.1350000E+01  0.9925427E+05  0.4312865E+05 -0.4557291E-01 -0.4980469E-01  0.2839542E+06  0.9434458E+05
  0.1380952E+01  0.9855209E+05  0.4740142E+05 -0.7071660E-03 -0.5004883E-02  0.2829192E+06  0.1041942E+06
  0.1411905E+01  0.9286034E+05  0.4888257E+05  0.2766652E-02  0.3601074E-01  0.2691892E+06  0.1080120E+06
  0.1442857E+01  0.9190002E+05  0.5313290E+05 -0.9137144E-02 -0.3051758E-02  0.2675365E+06  0.1179803E+06
  0.1473810E+01  0.9075360E+05  0.5740422E+05  0.9607860E-02  0.2612305E-01  0.2655046E+06  0.1280976E+06
  0.1504762E+01  0.8946181E+05  0.6166209E+05 -0.2271435E-02 -0.2270508E-01  0.2631424E+06  0.1382819E+06
  0.1535714E+01  0.8801249E+05  0.6588009E+05  0.4133357E-02 -0.3356934E-01  0.2603327E+06  0.1484878E+06
  0.1566667E+01  0.8640459E+05  0.7004195E+05 -0.8103390E-02 -0.2783203E-01  0.2570953E+06  0.1586625E+06
  0.1597619E+01  0.8466787E+05  0.7409941E+05  0.4584459E-02  0.4174805E-01  0.2535361E+06  0.1687082E+06
  0.1628572E+01  0.8285230E+05  0.7802581E+05  0.1499109E-01 -0.3320312E-01  0.2497829E+06  0.1785436E+06
  0.1659524E+01  0.8098882E+05  0.8179743E+05 -0.2353838E-02  0.2416992E-01  0.2458771E+06  0.1881097E+06
  0.1690476E+01  0.7907050E+05  0.8538745E+05 -0.1848591E-01 -0.3906250E-02  0.2418743E+06  0.1973432E+06
  0.1721429E+01  0.7713096E+05  0.8878583E+05  0.3403786E-02 -0.7080078E-02  0.2377953E+06  0.2062075E+06
  0.1752381E+01  0.7516480E+05  0.9199001E+05  0.2006199E-01  0.5615234E-02  0.2336190E+06  0.2147040E+06
  0.1783333E+01  0.7318062E+05  0.9502462E+05 -0.2053519E-01 -0.1025391E-01  0.2292847E+06  0.2228825E+06
  0.1814286E+01  0.7116854E+05  0.9789400E+05  0.9957862E-02 -0.3417969E-02  0.2248281E+06  0.2307548E+06
  0.1845238E+01  0.6916481E+05  0.1005591E+06  0.5292339E-03 -0.2441406E-02  0.2203706E+06  0.2382210E+06
  0.1876190E+01  0.6718481E+05  0.1030299E+06 -0.1821760E-02 -0.9765625E-03  0.2159363E+06  0.2452798E+06
  0.1907143E+01  0.6525097E+05  0.1053151E+06 -0.1664180E-01  0.2441406E-02  0.2115336E+06  0.2519251E+06
  0.1938095E+01  0.6335932E+05  0.1073895E+06 -0.8817855E-02  0.6835938E-02  0.2072317E+06  0.2581247E+06
  0.1969048E+01  0.6150026E+05  0.1092880E+06  0.3967654E-02 -0.1196289E-01  0.2029602E+06  0.2639559E+06
  0.2000000E+01  0.5969207E+05  0.1110036E+06 -0.4882812E-03 -0.4052734E-01  0.1987723E+06  0.2693758E+06
