VARIABLES="w (rad/s)"
"abs(F   1   1)" "angle(F   1   1)"
"abs(F   1   2)" "angle(F   1   2)"
"abs(F   1   3)" "angle(F   1   3)"
Zone t="Diffraction force - beta =   0.000 deg",I=    64,F=POINT
  0.5000000E-01  0.1132367E+04 -0.1570796E+01  0.1896086E+03 -0.3095577E+01  0.5338225E+03  0.1570797E+01
  0.8095238E-01  0.1849932E+04 -0.1570794E+01  0.4923410E+03 -0.3093971E+01  0.8752287E+03  0.1570797E+01
  0.1119048E+00  0.2590428E+04 -0.1570792E+01  0.9362560E+03 -0.3091949E+01  0.1224883E+04  0.1570799E+01
  0.1428571E+00  0.3351009E+04 -0.1570789E+01  0.1522393E+04 -0.3089369E+01  0.1583600E+04  0.1570801E+01
  0.1738095E+00  0.4146581E+04 -0.1570783E+01  0.2254820E+04 -0.3086118E+01  0.1955357E+04  0.1570803E+01
  0.2047619E+00  0.4979618E+04 -0.1570776E+01  0.3136387E+04 -0.3082024E+01  0.2346735E+04  0.1570807E+01
  0.2357143E+00  0.5871760E+04 -0.1570766E+01  0.4170886E+04 -0.3076828E+01  0.2756306E+04  0.1570813E+01
  0.2666667E+00  0.6826265E+04 -0.1570750E+01  0.5367334E+04 -0.3070527E+01  0.3201060E+04  0.1570821E+01
  0.2976190E+00  0.7861833E+04 -0.1570727E+01  0.6726069E+04 -0.3062560E+01  0.3679151E+04  0.1570833E+01
  0.3285715E+00  0.9001617E+04 -0.1570692E+01  0.8255625E+04 -0.3052989E+01  0.4191218E+04  0.1570852E+01
  0.3595238E+00  0.1025305E+05 -0.1570641E+01  0.9958833E+04 -0.3041377E+01  0.4759480E+04  0.1570879E+01
  0.3904762E+00  0.1162383E+05 -0.1570563E+01  0.1184067E+05 -0.3027563E+01  0.5390270E+04  0.1570920E+01
  0.4214286E+00  0.1316117E+05 -0.1570449E+01  0.1387159E+05 -0.3011958E+01  0.6072750E+04  0.1570980E+01
  0.4523810E+00  0.1485708E+05 -0.1570280E+01  0.1607879E+05 -0.2993962E+01  0.6810895E+04  0.1571067E+01
  0.4833333E+00  0.1670141E+05 -0.1570045E+01  0.1842636E+05 -0.2975631E+01  0.7632307E+04  0.1571189E+01
  0.5142857E+00  0.1869993E+05 -0.1569717E+01  0.2090374E+05 -0.2955681E+01  0.8506057E+04  0.1571358E+01
  0.5452381E+00  0.2086161E+05 -0.1569276E+01  0.2350468E+05 -0.2935625E+01  0.9418321E+04  0.1571583E+01
  0.5761905E+00  0.2315895E+05 -0.1568700E+01  0.2622038E+05 -0.2915799E+01  0.1039195E+05  0.1571874E+01
  0.6071429E+00  0.2556786E+05 -0.1567950E+01  0.2904468E+05 -0.2895453E+01  0.1143478E+05  0.1572251E+01
  0.6380953E+00  0.2810002E+05 -0.1567008E+01  0.3199009E+05 -0.2876199E+01  0.1248475E+05  0.1572719E+01
  0.6690477E+00  0.3074906E+05 -0.1565829E+01  0.3501125E+05 -0.2856850E+01  0.1356843E+05  0.1573299E+01
  0.7000000E+00  0.3352534E+05 -0.1564371E+01  0.3811187E+05 -0.2837331E+01  0.1466833E+05  0.1574010E+01
  0.7309524E+00  0.3638564E+05 -0.1562597E+01  0.4131768E+05 -0.2818597E+01  0.1579823E+05  0.1574865E+01
  0.7619048E+00  0.3933829E+05 -0.1560450E+01  0.4459882E+05 -0.2800152E+01  0.1698701E+05  0.1575888E+01
  0.7928572E+00  0.4236825E+05 -0.1557880E+01  0.4793407E+05 -0.2781815E+01  0.1816397E+05  0.1577096E+01
  0.8238096E+00  0.4551332E+05 -0.1554837E+01  0.5131780E+05 -0.2763696E+01  0.1933364E+05  0.1578505E+01
  0.8547620E+00  0.4875984E+05 -0.1551268E+01  0.5474900E+05 -0.2745943E+01  0.2050285E+05  0.1580135E+01
  0.8857143E+00  0.5208295E+05 -0.1547104E+01  0.5821833E+05 -0.2728591E+01  0.2166964E+05  0.1582003E+01
  0.9166667E+00  0.5546482E+05 -0.1542284E+01  0.6172373E+05 -0.2711723E+01  0.2287271E+05  0.1584133E+01
  0.9476191E+00  0.5889792E+05 -0.1536746E+01  0.6524980E+05 -0.2695284E+01  0.2407628E+05  0.1586531E+01
  0.9785714E+00  0.6239105E+05 -0.1530436E+01  0.6879183E+05 -0.2679305E+01  0.2526306E+05  0.1589209E+01
  0.1009524E+01  0.6594767E+05 -0.1523304E+01  0.7233662E+05 -0.2663740E+01  0.2643484E+05  0.1592167E+01
  0.1040476E+01  0.6950888E+05 -0.1515273E+01  0.7586653E+05 -0.2648454E+01  0.2755251E+05  0.1595402E+01
  0.1071429E+01  0.7314409E+05 -0.1506324E+01  0.7938810E+05 -0.2633662E+01  0.2866810E+05  0.1598914E+01
  0.1102381E+01  0.7674693E+05 -0.1496375E+01  0.8290126E+05 -0.2619410E+01  0.2969761E+05  0.1602670E+01
  0.1133333E+01  0.8035998E+05 -0.1485416E+01  0.8640051E+05 -0.2605750E+01  0.3070746E+05  0.1606662E+01
  0.1164286E+01  0.8391596E+05 -0.1473378E+01  0.8987904E+05 -0.2592637E+01  0.3175990E+05  0.1610907E+01
  0.1195238E+01  0.8735670E+05 -0.1460232E+01  0.9332773E+05 -0.2580024E+01  0.3271985E+05  0.1615287E+01
  0.1226190E+01  0.9073890E+05 -0.1446009E+01  0.9674887E+05 -0.2567939E+01  0.3366374E+05  0.1619814E+01
  0.1257143E+01  0.9391191E+05 -0.1430633E+01  0.1001699E+06 -0.2556051E+01  0.3450246E+05  0.1624344E+01
  0.1288095E+01  0.9708252E+05 -0.1414390E+01  0.1034836E+06 -0.2545193E+01  0.3524619E+05  0.1628785E+01
  0.1319048E+01  0.1000189E+06 -0.1397094E+01  0.1067828E+06 -0.2534437E+01  0.3595489E+05  0.1633123E+01
  0.1350000E+01  0.1027329E+06 -0.1378803E+01  0.1100373E+06 -0.2524155E+01  0.3659803E+05  0.1637248E+01
  0.1380952E+01  0.1051621E+06 -0.1359610E+01  0.1132374E+06 -0.2514410E+01  0.3711346E+05  0.1640941E+01
  0.1411905E+01  0.1066458E+06 -0.1340809E+01  0.1159592E+06 -0.2504855E+01  0.3771678E+05  0.1643758E+01
  0.1442857E+01  0.1084918E+06 -0.1320204E+01  0.1190575E+06 -0.2496013E+01  0.3815341E+05  0.1646500E+01
  0.1473810E+01  0.1099606E+06 -0.1298978E+01  0.1221080E+06 -0.2487700E+01  0.3851215E+05  0.1648512E+01
  0.1504762E+01  0.1110457E+06 -0.1277353E+01  0.1251085E+06 -0.2479835E+01  0.3879316E+05  0.1649637E+01
  0.1535714E+01  0.1117512E+06 -0.1255495E+01  0.1280554E+06 -0.2472296E+01  0.3904700E+05  0.1649940E+01
  0.1566667E+01  0.1119980E+06 -0.1233439E+01  0.1309589E+06 -0.2465076E+01  0.3922544E+05  0.1649222E+01
  0.1597619E+01  0.1117872E+06 -0.1211456E+01  0.1337995E+06 -0.2458016E+01  0.3930834E+05  0.1647303E+01
  0.1628572E+01  0.1111790E+06 -0.1189866E+01  0.1365868E+06 -0.2451314E+01  0.3938147E+05  0.1644271E+01
  0.1659524E+01  0.1101327E+06 -0.1168665E+01  0.1393244E+06 -0.2444746E+01  0.3943566E+05  0.1640373E+01
  0.1690476E+01  0.1086105E+06 -0.1148087E+01  0.1419951E+06 -0.2438422E+01  0.3941306E+05  0.1635148E+01
  0.1721429E+01  0.1066718E+06 -0.1128397E+01  0.1446046E+06 -0.2432236E+01  0.3937604E+05  0.1628832E+01
  0.1752381E+01  0.1043360E+06 -0.1109816E+01  0.1471497E+06 -0.2426306E+01  0.3934354E+05  0.1621739E+01
  0.1783333E+01  0.1016073E+06 -0.1092337E+01  0.1496261E+06 -0.2420344E+01  0.3934293E+05  0.1614119E+01
  0.1814286E+01  0.9848214E+05 -0.1076243E+01  0.1520283E+06 -0.2414303E+01  0.3933709E+05  0.1605862E+01
  0.1845238E+01  0.9499828E+05 -0.1061692E+01  0.1543380E+06 -0.2408124E+01  0.3933632E+05  0.1597264E+01
  0.1876190E+01  0.9122236E+05 -0.1049030E+01  0.1565562E+06 -0.2401979E+01  0.3939413E+05  0.1588882E+01
  0.1907143E+01  0.8717230E+05 -0.1038588E+01  0.1586689E+06 -0.2395679E+01  0.3947375E+05  0.1580684E+01
  0.1938095E+01  0.8280067E+05 -0.1030312E+01  0.1606431E+06 -0.2389067E+01  0.3952716E+05  0.1572410E+01
  0.1969048E+01  0.7822329E+05 -0.1024771E+01  0.1624867E+06 -0.2382524E+01  0.3963984E+05  0.1565106E+01
  0.2000000E+01  0.7343041E+05 -0.1022488E+01  0.1641722E+06 -0.2375712E+01  0.3975064E+05  0.1558278E+01
