VARIABLES="w (rad/s)"
"abs(F   1   1)" "angle(F   1   1)"
"abs(F   1   2)" "angle(F   1   2)"
"abs(F   1   3)" "angle(F   1   3)"
Zone t="Diffraction force - beta =   0.000 deg",I=    64,F=POINT
  0.5000000E-01  0.7273524E+03 -0.1570796E+01  0.3626627E+02 -0.3089540E+01  0.1557208E+04  0.1570797E+01
  0.8095238E-01  0.1193571E+04 -0.1570794E+01  0.9408770E+02 -0.3087692E+01  0.2552656E+04  0.1570798E+01
  0.1119048E+00  0.1667502E+04 -0.1570792E+01  0.1787735E+03 -0.3085378E+01  0.3561236E+04  0.1570800E+01
  0.1428571E+00  0.2159400E+04 -0.1570789E+01  0.2906713E+03 -0.3082464E+01  0.4600470E+04  0.1570803E+01
  0.1738095E+00  0.2667116E+04 -0.1570785E+01  0.4304532E+03 -0.3078811E+01  0.5674801E+04  0.1570807E+01
  0.2047619E+00  0.3203584E+04 -0.1570779E+01  0.5988888E+03 -0.3074222E+01  0.6800905E+04  0.1570813E+01
  0.2357143E+00  0.3772594E+04 -0.1570769E+01  0.7968894E+03 -0.3068421E+01  0.7989086E+04  0.1570822E+01
  0.2666667E+00  0.4376071E+04 -0.1570756E+01  0.1026042E+04 -0.3061399E+01  0.9255458E+04  0.1570834E+01
  0.2976190E+00  0.5035100E+04 -0.1570736E+01  0.1286749E+04 -0.3052506E+01  0.1061747E+05  0.1570853E+01
  0.3285715E+00  0.5759779E+04 -0.1570706E+01  0.1581146E+04 -0.3041887E+01  0.1209453E+05  0.1570881E+01
  0.3595238E+00  0.6535469E+04 -0.1570661E+01  0.1909138E+04 -0.3028945E+01  0.1369600E+05  0.1570923E+01
  0.3904762E+00  0.7405195E+04 -0.1570594E+01  0.2272625E+04 -0.3013618E+01  0.1545362E+05  0.1570986E+01
  0.4214286E+00  0.8365019E+04 -0.1570496E+01  0.2665478E+04 -0.2996258E+01  0.1738157E+05  0.1571077E+01
  0.4523810E+00  0.9411089E+04 -0.1570353E+01  0.3093592E+04 -0.2976246E+01  0.1947496E+05  0.1571212E+01
  0.4833333E+00  0.1054701E+05 -0.1570154E+01  0.3549380E+04 -0.2955838E+01  0.2174740E+05  0.1571398E+01
  0.5142857E+00  0.1178210E+05 -0.1569877E+01  0.4030098E+04 -0.2933516E+01  0.2417106E+05  0.1571656E+01
  0.5452381E+00  0.1312429E+05 -0.1569510E+01  0.4536591E+04 -0.2911141E+01  0.2676095E+05  0.1571999E+01
  0.5761905E+00  0.1450431E+05 -0.1569031E+01  0.5065133E+04 -0.2888930E+01  0.2943283E+05  0.1572446E+01
  0.6071429E+00  0.1594665E+05 -0.1568411E+01  0.5616954E+04 -0.2866139E+01  0.3221382E+05  0.1573023E+01
  0.6380953E+00  0.1749673E+05 -0.1567641E+01  0.6192213E+04 -0.2844373E+01  0.3511553E+05  0.1573741E+01
  0.6690477E+00  0.1908420E+05 -0.1566684E+01  0.6781942E+04 -0.2822403E+01  0.3805199E+05  0.1574634E+01
  0.7000000E+00  0.2072393E+05 -0.1565506E+01  0.7388490E+04 -0.2800189E+01  0.4104829E+05  0.1575731E+01
  0.7309524E+00  0.2242852E+05 -0.1564086E+01  0.8018948E+04 -0.2778822E+01  0.4411990E+05  0.1577053E+01
  0.7619048E+00  0.2411799E+05 -0.1562371E+01  0.8662613E+04 -0.2757487E+01  0.4716326E+05  0.1578642E+01
  0.7928572E+00  0.2588683E+05 -0.1560341E+01  0.9318353E+04 -0.2736184E+01  0.5026421E+05  0.1580526E+01
  0.8238096E+00  0.2773458E+05 -0.1557960E+01  0.9983159E+04 -0.2714947E+01  0.5337856E+05  0.1582742E+01
  0.8547620E+00  0.2961638E+05 -0.1555181E+01  0.1065881E+05 -0.2694067E+01  0.5654488E+05  0.1585321E+01
  0.8857143E+00  0.3148283E+05 -0.1551947E+01  0.1133941E+05 -0.2673286E+01  0.5961307E+05  0.1588318E+01
  0.9166667E+00  0.3337760E+05 -0.1548226E+01  0.1203156E+05 -0.2653095E+01  0.6270313E+05  0.1591756E+01
  0.9476191E+00  0.3529260E+05 -0.1543978E+01  0.1272714E+05 -0.2633151E+01  0.6573642E+05  0.1595680E+01
  0.9785714E+00  0.3726141E+05 -0.1539176E+01  0.1342579E+05 -0.2613565E+01  0.6879568E+05  0.1600111E+01
  0.1009524E+01  0.3922334E+05 -0.1533753E+01  0.1411871E+05 -0.2593932E+01  0.7173333E+05  0.1605115E+01
  0.1040476E+01  0.4122281E+05 -0.1527688E+01  0.1481151E+05 -0.2574739E+01  0.7465929E+05  0.1610708E+01
  0.1071429E+01  0.4321523E+05 -0.1520926E+01  0.1549779E+05 -0.2555744E+01  0.7747770E+05  0.1616941E+01
  0.1102381E+01  0.4524016E+05 -0.1513459E+01  0.1618283E+05 -0.2537363E+01  0.8024704E+05  0.1623823E+01
  0.1133333E+01  0.4723538E+05 -0.1505210E+01  0.1686396E+05 -0.2519502E+01  0.8294227E+05  0.1631392E+01
  0.1164286E+01  0.4914554E+05 -0.1496110E+01  0.1753642E+05 -0.2501899E+01  0.8541912E+05  0.1639713E+01
  0.1195238E+01  0.5102059E+05 -0.1486162E+01  0.1820391E+05 -0.2484862E+01  0.8779508E+05  0.1648772E+01
  0.1226190E+01  0.5288584E+05 -0.1475394E+01  0.1886034E+05 -0.2468141E+01  0.9002889E+05  0.1658578E+01
  0.1257143E+01  0.5470717E+05 -0.1463778E+01  0.1950983E+05 -0.2451334E+01  0.9206316E+05  0.1669163E+01
  0.1288095E+01  0.5663093E+05 -0.1451451E+01  0.2013468E+05 -0.2435811E+01  0.9412564E+05  0.1680426E+01
  0.1319048E+01  0.5837771E+05 -0.1438109E+01  0.2074962E+05 -0.2420060E+01  0.9592032E+05  0.1692535E+01
  0.1350000E+01  0.6000445E+05 -0.1423855E+01  0.2134271E+05 -0.2404402E+01  0.9739652E+05  0.1705448E+01
  0.1380952E+01  0.6156067E+05 -0.1408714E+01  0.2192718E+05 -0.2389635E+01  0.9874229E+05  0.1719103E+01
  0.1411905E+01  0.6257886E+05 -0.1393149E+01  0.2241652E+05 -0.2374270E+01  0.9956709E+05  0.1732709E+01
  0.1442857E+01  0.6388632E+05 -0.1376353E+01  0.2296669E+05 -0.2360422E+01  0.1003651E+06  0.1747706E+01
  0.1473810E+01  0.6509263E+05 -0.1358799E+01  0.2349986E+05 -0.2347165E+01  0.1009870E+06  0.1763255E+01
  0.1504762E+01  0.6612034E+05 -0.1340384E+01  0.2401758E+05 -0.2334363E+01  0.1013709E+06  0.1779406E+01
  0.1535714E+01  0.6696732E+05 -0.1321248E+01  0.2451396E+05 -0.2321681E+01  0.1014025E+06  0.1796112E+01
  0.1566667E+01  0.6763609E+05 -0.1301472E+01  0.2498697E+05 -0.2309118E+01  0.1010779E+06  0.1813326E+01
  0.1597619E+01  0.6817812E+05 -0.1281152E+01  0.2544356E+05 -0.2297105E+01  0.1006126E+06  0.1830896E+01
  0.1628572E+01  0.6854801E+05 -0.1260371E+01  0.2587593E+05 -0.2285448E+01  0.9986319E+05  0.1848730E+01
  0.1659524E+01  0.6871041E+05 -0.1239168E+01  0.2628361E+05 -0.2274071E+01  0.9877515E+05  0.1866773E+01
  0.1690476E+01  0.6871008E+05 -0.1217718E+01  0.2667042E+05 -0.2263343E+01  0.9748805E+05  0.1884791E+01
  0.1721429E+01  0.6852338E+05 -0.1196016E+01  0.2703784E+05 -0.2253229E+01  0.9602734E+05  0.1902697E+01
  0.1752381E+01  0.6805909E+05 -0.1173961E+01  0.2738294E+05 -0.2243140E+01  0.9421128E+05  0.1920634E+01
  0.1783333E+01  0.6737722E+05 -0.1151972E+01  0.2769897E+05 -0.2233326E+01  0.9205848E+05  0.1938201E+01
  0.1814286E+01  0.6649295E+05 -0.1130043E+01  0.2799437E+05 -0.2223935E+01  0.8967465E+05  0.1955438E+01
  0.1845238E+01  0.6544237E+05 -0.1108242E+01  0.2827237E+05 -0.2214936E+01  0.8719909E+05  0.1972223E+01
  0.1876190E+01  0.6420248E+05 -0.1086747E+01  0.2852322E+05 -0.2206270E+01  0.8452609E+05  0.1988272E+01
  0.1907143E+01  0.6275100E+05 -0.1065650E+01  0.2874353E+05 -0.2197820E+01  0.8157979E+05  0.2003473E+01
  0.1938095E+01  0.6115966E+05 -0.1045126E+01  0.2894343E+05 -0.2190145E+01  0.7856530E+05  0.2017684E+01
  0.1969048E+01  0.5942763E+05 -0.1025225E+01  0.2912102E+05 -0.2182929E+01  0.7550423E+05  0.2030711E+01
  0.2000000E+01  0.5751116E+05 -0.1005796E+01  0.2927831E+05 -0.2175795E+01  0.7235138E+05  0.2042748E+01
