VARIABLES="w (rad/s)"
"abs(F   1   1)" "angle(F   1   1)"
"abs(F   1   2)" "angle(F   1   2)"
"abs(F   1   3)" "angle(F   1   3)"
Zone t="Diffraction force - beta =   0.000 deg",I=    64,F=POINT
  0.5000000E-01  0.1106834E+05 -0.1570774E+01  0.4446707E+06 -0.3014628E-04  0.4332555E+05  0.1570786E+01
  0.8095238E-01  0.1804669E+05 -0.1570790E+01  0.4426623E+06 -0.8089187E-04  0.7057909E+05  0.1570791E+01
  0.1119048E+00  0.2516007E+05 -0.1570774E+01  0.4397158E+06 -0.1600090E-03  0.9835666E+05  0.1570814E+01
  0.1428571E+00  0.3248430E+05 -0.1570778E+01  0.4358356E+06 -0.2730731E-03  0.1268432E+06  0.1570818E+01
  0.1738095E+00  0.4008236E+05 -0.1570755E+01  0.4310279E+06 -0.4278608E-03  0.1563783E+06  0.1570831E+01
  0.2047619E+00  0.4804748E+05 -0.1570743E+01  0.4253150E+06 -0.6368643E-03  0.1871759E+06  0.1570860E+01
  0.2357143E+00  0.5646275E+05 -0.1570707E+01  0.4186973E+06 -0.9169034E-03  0.2196577E+06  0.1570881E+01
  0.2666667E+00  0.6544783E+05 -0.1570666E+01  0.4112044E+06 -0.1286930E-02  0.2541568E+06  0.1570929E+01
  0.2976190E+00  0.7512675E+05 -0.1570601E+01  0.4028647E+06 -0.1784426E-02  0.2911053E+06  0.1570994E+01
  0.3285715E+00  0.8560910E+05 -0.1570504E+01  0.3937160E+06 -0.2438295E-02  0.3310680E+06  0.1571086E+01
  0.3595238E+00  0.9707159E+05 -0.1570360E+01  0.3838145E+06 -0.3305530E-02  0.3744991E+06  0.1571228E+01
  0.3904762E+00  0.1096448E+06 -0.1570152E+01  0.3732354E+06 -0.4440876E-02  0.4217926E+06  0.1571440E+01
  0.4214286E+00  0.1234226E+06 -0.1569846E+01  0.3620425E+06 -0.5867622E-02  0.4733956E+06  0.1571746E+01
  0.4523810E+00  0.1385161E+06 -0.1569402E+01  0.3503857E+06 -0.7712648E-02  0.5297852E+06  0.1572192E+01
  0.4833333E+00  0.1548266E+06 -0.1568789E+01  0.3382476E+06 -0.9859232E-02  0.5900872E+06  0.1572802E+01
  0.5142857E+00  0.1724152E+06 -0.1567948E+01  0.3259183E+06 -0.1247195E-01  0.6544448E+06  0.1573644E+01
  0.5452381E+00  0.1909626E+06 -0.1566837E+01  0.3132748E+06 -0.1546684E-01  0.7221220E+06  0.1574754E+01
  0.5761905E+00  0.2104569E+06 -0.1565409E+01  0.3004504E+06 -0.1882529E-01  0.7928806E+06  0.1576183E+01
  0.6071429E+00  0.2309680E+06 -0.1563581E+01  0.2876172E+06 -0.2270688E-01  0.8661629E+06  0.1578010E+01
  0.6380953E+00  0.2519989E+06 -0.1561327E+01  0.2745996E+06 -0.2691090E-01  0.9404522E+06  0.1580265E+01
  0.6690477E+00  0.2736229E+06 -0.1558560E+01  0.2616320E+06 -0.3156818E-01  0.1015961E+07  0.1583032E+01
  0.7000000E+00  0.2958576E+06 -0.1555192E+01  0.2488074E+06 -0.3677122E-01  0.1093010E+07  0.1586401E+01
  0.7309524E+00  0.3182462E+06 -0.1551179E+01  0.2359620E+06 -0.4242621E-01  0.1169665E+07  0.1590413E+01
  0.7619048E+00  0.3410915E+06 -0.1546435E+01  0.2232390E+06 -0.4860554E-01  0.1246205E+07  0.1595156E+01
  0.7928572E+00  0.3643492E+06 -0.1540875E+01  0.2108921E+06 -0.5528829E-01  0.1322557E+07  0.1600715E+01
  0.8238096E+00  0.3874778E+06 -0.1534421E+01  0.1987149E+06 -0.6260260E-01  0.1397505E+07  0.1607169E+01
  0.8547620E+00  0.4105061E+06 -0.1527006E+01  0.1867003E+06 -0.7058686E-01  0.1470862E+07  0.1614584E+01
  0.8857143E+00  0.4333241E+06 -0.1518567E+01  0.1750926E+06 -0.7909486E-01  0.1541992E+07  0.1623022E+01
  0.9166667E+00  0.4561205E+06 -0.1509061E+01  0.1638955E+06 -0.8818249E-01  0.1611582E+07  0.1632526E+01
  0.9476191E+00  0.4782844E+06 -0.1498483E+01  0.1530482E+06 -0.9804645E-01  0.1677053E+07  0.1643100E+01
  0.9785714E+00  0.4996958E+06 -0.1486789E+01  0.1425141E+06 -0.1087859E+00  0.1737895E+07  0.1654790E+01
  0.1009524E+01  0.5203264E+06 -0.1473968E+01  0.1323511E+06 -0.1203856E+00  0.1794346E+07  0.1667603E+01
  0.1040476E+01  0.5399126E+06 -0.1460038E+01  0.1228325E+06 -0.1321281E+00  0.1845365E+07  0.1681527E+01
  0.1071429E+01  0.5583892E+06 -0.1445022E+01  0.1137242E+06 -0.1448144E+00  0.1891572E+07  0.1696540E+01
  0.1102381E+01  0.5748911E+06 -0.1429040E+01  0.1050032E+06 -0.1585727E+00  0.1929645E+07  0.1712517E+01
  0.1133333E+01  0.5896590E+06 -0.1412169E+01  0.9668990E+05 -0.1735834E+00  0.1961023E+07  0.1729390E+01
  0.1164286E+01  0.6025049E+06 -0.1394725E+01  0.8878931E+05 -0.1897432E+00  0.1984048E+07  0.1746810E+01
  0.1195238E+01  0.6132756E+06 -0.1376875E+01  0.8151041E+05 -0.2053715E+00  0.1998232E+07  0.1764630E+01
  0.1226190E+01  0.6221264E+06 -0.1358720E+01  0.7465427E+05 -0.2221127E+00  0.2005346E+07  0.1782759E+01
  0.1257143E+01  0.6280035E+06 -0.1340469E+01  0.6823304E+05 -0.2400971E+00  0.2002401E+07  0.1801011E+01
  0.1288095E+01  0.6313230E+06 -0.1322622E+01  0.6216071E+05 -0.2595762E+00  0.1989517E+07  0.1818803E+01
  0.1319048E+01  0.6322798E+06 -0.1305066E+01  0.5652448E+05 -0.2805488E+00  0.1969902E+07  0.1836365E+01
  0.1350000E+01  0.6306044E+06 -0.1288560E+01  0.5127358E+05 -0.3023551E+00  0.1940540E+07  0.1852786E+01
  0.1380952E+01  0.6267959E+06 -0.1273125E+01  0.4645286E+05 -0.3233980E+00  0.1904299E+07  0.1868149E+01
  0.1411905E+01  0.6205585E+06 -0.1258769E+01  0.4202975E+05 -0.3456171E+00  0.1862233E+07  0.1882450E+01
  0.1442857E+01  0.6123738E+06 -0.1246082E+01  0.3794493E+05 -0.3686730E+00  0.1813847E+07  0.1895161E+01
  0.1473810E+01  0.6020079E+06 -0.1235387E+01  0.3415557E+05 -0.3941157E+00  0.1758538E+07  0.1905694E+01
  0.1504762E+01  0.5902526E+06 -0.1226565E+01  0.3068315E+05 -0.4206943E+00  0.1700201E+07  0.1914470E+01
  0.1535714E+01  0.5773547E+06 -0.1219727E+01  0.2750512E+05 -0.4490934E+00  0.1639786E+07  0.1921314E+01
  0.1566667E+01  0.5629795E+06 -0.1215431E+01  0.2458961E+05 -0.4776181E+00  0.1574860E+07  0.1925340E+01
  0.1597619E+01  0.5479549E+06 -0.1213206E+01  0.2193999E+05 -0.5063716E+00  0.1509711E+07  0.1927431E+01
  0.1628572E+01  0.5324913E+06 -0.1213133E+01  0.1955088E+05 -0.5352755E+00  0.1445000E+07  0.1927464E+01
  0.1659524E+01  0.5162726E+06 -0.1215501E+01  0.1738769E+05 -0.5643800E+00  0.1379450E+07  0.1925136E+01
  0.1690476E+01  0.4996748E+06 -0.1220458E+01  0.1541811E+05 -0.5971373E+00  0.1313630E+07  0.1919950E+01
  0.1721429E+01  0.4829072E+06 -0.1227813E+01  0.1363663E+05 -0.6332033E+00  0.1248634E+07  0.1912336E+01
  0.1752381E+01  0.4662744E+06 -0.1237169E+01  0.1204238E+05 -0.6677972E+00  0.1185972E+07  0.1903083E+01
  0.1783333E+01  0.4498042E+06 -0.1248883E+01  0.1060900E+05 -0.7066020E+00  0.1124887E+07  0.1891302E+01
  0.1814286E+01  0.4334964E+06 -0.1263005E+01  0.9306465E+04 -0.7476155E+00  0.1065209E+07  0.1876780E+01
  0.1845238E+01  0.4175861E+06 -0.1279038E+01  0.8149334E+04 -0.7893774E+00  0.1008237E+07  0.1860629E+01
  0.1876190E+01  0.4021332E+06 -0.1296910E+01  0.7123765E+04 -0.8291239E+00  0.9540452E+06  0.1842915E+01
  0.1907143E+01  0.3869284E+06 -0.1316903E+01  0.6206519E+04 -0.8693224E+00  0.9017188E+06  0.1823166E+01
  0.1938095E+01  0.3721561E+06 -0.1338949E+01  0.5396655E+04 -0.9186887E+00  0.8515754E+06  0.1801142E+01
  0.1969048E+01  0.3577938E+06 -0.1363135E+01  0.4693845E+04 -0.9780915E+00  0.8035408E+06  0.1776660E+01
  0.2000000E+01  0.3439560E+06 -0.1388872E+01  0.4072028E+04 -0.1038219E+01  0.7580590E+06  0.1751003E+01
