VARIABLES="w (rad/s)"
"A   1   1" "B   1   1"
"A   1   2" "B   1   2"
"A   1   3" "B   1   3"
Zone t="Motion of body    1 in DoF   1",I=    64,F=POINT
  0.5000000E-01  0.1329020E+06  0.1038088E-01  0.4386902E-02  0.2842115E-04 -0.1050939E+06 -0.5000546E-02
  0.8095238E-01  0.1336415E+06  0.4549984E-01 -0.1357135E-01 -0.6557621E-04 -0.1060940E+06 -0.2214011E-01
  0.1119048E+00  0.1338600E+06  0.1278312E+00 -0.3408878E-03  0.3122143E-05 -0.1062173E+06 -0.6253407E-01
  0.1428571E+00  0.1340236E+06  0.2876198E+00 -0.1751709E-01 -0.7666054E-04 -0.1062893E+06 -0.1399596E+00
  0.1738095E+00  0.1342090E+06  0.5727767E+00  0.1672405E-01  0.1712742E-03 -0.1062644E+06 -0.2772333E+00
  0.2047619E+00  0.1343960E+06  0.1056854E+01 -0.4284881E-02 -0.1859870E-03 -0.1063128E+06 -0.5108207E+00
  0.2357143E+00  0.1345913E+06  0.1859775E+01  0.6473425E-03  0.9246822E-04 -0.1063363E+06 -0.8949405E+00
  0.2666667E+00  0.1348759E+06  0.3173107E+01 -0.1038551E-01  0.7171556E-04 -0.1063657E+06 -0.1517930E+01
  0.2976190E+00  0.1351812E+06  0.5321881E+01 -0.1076660E-01 -0.6131269E-04 -0.1063837E+06 -0.2532756E+01
  0.3285715E+00  0.1354487E+06  0.8802032E+01  0.1653256E-01  0.4349351E-03 -0.1064644E+06 -0.4164893E+01
  0.3595238E+00  0.1358671E+06  0.1445387E+02  0.1697666E-03 -0.2911165E-03 -0.1064660E+06 -0.6788301E+01
  0.3904762E+00  0.1362578E+06  0.2355772E+02  0.1758482E-02 -0.6037802E-03 -0.1065055E+06 -0.1097942E+02
  0.4214286E+00  0.1367133E+06  0.3789140E+02  0.2407785E-01  0.8124709E-03 -0.1065830E+06 -0.1751767E+02
  0.4523810E+00  0.1372311E+06  0.6041896E+02 -0.1028764E-01 -0.2245516E-02 -0.1066062E+06 -0.2767587E+02
  0.4833333E+00  0.1379129E+06  0.9400726E+02 -0.2194109E-01 -0.2068698E-02 -0.1066465E+06 -0.4260705E+02
  0.5142857E+00  0.1385758E+06  0.1438513E+03  0.2254910E-02 -0.7587671E-03 -0.1067932E+06 -0.6456490E+02
  0.5452381E+00  0.1391848E+06  0.2148165E+03  0.9179262E-02  0.1330614E-02 -0.1070192E+06 -0.9551043E+02
  0.5761905E+00  0.1399683E+06  0.3133710E+03 -0.1329406E-01 -0.3113151E-02 -0.1070207E+06 -0.1375473E+03
  0.6071429E+00  0.1408616E+06  0.4488694E+03 -0.1050523E-01 -0.2377272E-02 -0.1071448E+06 -0.1945769E+03
  0.6380953E+00  0.1418157E+06  0.6288149E+03  0.1846086E-01  0.4219532E-02 -0.1073028E+06 -0.2689919E+03
  0.6690477E+00  0.1427513E+06  0.8655896E+03  0.8757784E-02  0.1754761E-02 -0.1075774E+06 -0.3656226E+03
  0.7000000E+00  0.1437241E+06  0.1173497E+04  0.1185826E-01  0.3233433E-02 -0.1077909E+06 -0.4888936E+03
  0.7309524E+00  0.1449326E+06  0.1567048E+04 -0.3665688E-01 -0.5968094E-02 -0.1079145E+06 -0.6423550E+03
  0.7619048E+00  0.1461963E+06  0.2064971E+04  0.9973525E-02  0.5753517E-02 -0.1080368E+06 -0.8321500E+03
  0.7928572E+00  0.1475357E+06  0.2688259E+04  0.4822877E-01  0.4382133E-02 -0.1082667E+06 -0.1065139E+04
  0.8238096E+00  0.1488024E+06  0.3458471E+04 -0.2200441E-01 -0.4632950E-02 -0.1085014E+06 -0.1346843E+04
  0.8547620E+00  0.1501240E+06  0.4400715E+04  0.1110364E-01  0.8121490E-02 -0.1087488E+06 -0.1683156E+04
  0.8857143E+00  0.1515479E+06  0.5543239E+04  0.1081897E-01  0.5096436E-02 -0.1088761E+06 -0.2077925E+04
  0.9166667E+00  0.1530702E+06  0.6915826E+04 -0.4594283E-02 -0.8853912E-02 -0.1089913E+06 -0.2537863E+04
  0.9476191E+00  0.1545422E+06  0.8547261E+04  0.1191566E-01  0.1026917E-01 -0.1090370E+06 -0.3066852E+04
  0.9785714E+00  0.1560573E+06  0.1047223E+05  0.3842096E-01  0.2190399E-01 -0.1091130E+06 -0.3671735E+04
  0.1009524E+01  0.1574928E+06  0.1271904E+05  0.1172912E-01  0.4486084E-02 -0.1090971E+06 -0.4350360E+04
  0.1040476E+01  0.1588546E+06  0.1531878E+05  0.1272939E-01  0.1561737E-01 -0.1091493E+06 -0.5112083E+04
  0.1071429E+01  0.1600538E+06  0.1829417E+05 -0.3702800E-02 -0.2220154E-02 -0.1091200E+06 -0.5948993E+04
  0.1102381E+01  0.1611670E+06  0.2167054E+05  0.1661000E-03 -0.1068115E-03 -0.1089853E+06 -0.6855554E+04
  0.1133333E+01  0.1621499E+06  0.2546053E+05  0.6462546E-03  0.8972168E-02 -0.1086635E+06 -0.7814831E+04
  0.1164286E+01  0.1629396E+06  0.2967553E+05 -0.2096913E-02  0.6942749E-02 -0.1082550E+06 -0.8823329E+04
  0.1195238E+01  0.1635266E+06  0.3431541E+05 -0.2042611E-02  0.1414490E-01 -0.1078016E+06 -0.9870786E+04
  0.1226190E+01  0.1638046E+06  0.3937197E+05 -0.3982100E-03 -0.1144409E-02 -0.1073123E+06 -0.1094623E+05
  0.1257143E+01  0.1636489E+06  0.4482854E+05  0.9661588E-02  0.7537842E-02 -0.1066613E+06 -0.1201698E+05
  0.1288095E+01  0.1633642E+06  0.5060218E+05  0.1838501E-01  0.8666992E-02 -0.1059918E+06 -0.1305600E+05
  0.1319048E+01  0.1625650E+06  0.5668267E+05  0.9115611E-02  0.1898193E-01 -0.1052230E+06 -0.1405043E+05
  0.1350000E+01  0.1614199E+06  0.6298531E+05 -0.4023799E-02  0.1055908E-01 -0.1043741E+06 -0.1496308E+05
  0.1380952E+01  0.1599420E+06  0.6943432E+05  0.1312677E-01  0.1760864E-01 -0.1034144E+06 -0.1575681E+05
  0.1411905E+01  0.1574176E+06  0.7535806E+05 -0.4366124E-02  0.4180908E-02 -0.1026231E+06 -0.1638137E+05
  0.1442857E+01  0.1551905E+06  0.8183042E+05  0.2030476E-02  0.6530762E-02 -0.1014760E+06 -0.1686964E+05
  0.1473810E+01  0.1527315E+06  0.8823270E+05  0.4762517E-02 -0.2062988E-01 -0.1004114E+06 -0.1721132E+05
  0.1504762E+01  0.1499744E+06  0.9447645E+05 -0.5597465E-02 -0.2075195E-02 -0.9933704E+05 -0.1737715E+05
  0.1535714E+01  0.1469509E+06  0.1004705E+06  0.9538517E-03 -0.1623535E-01 -0.9824714E+05 -0.1733571E+05
  0.1566667E+01  0.1437267E+06  0.1061404E+06 -0.2298558E-02 -0.1300049E-01 -0.9715393E+05 -0.1707360E+05
  0.1597619E+01  0.1403779E+06  0.1114504E+06 -0.2215822E-02  0.2502441E-02 -0.9613819E+05 -0.1662806E+05
  0.1628572E+01  0.1369156E+06  0.1163811E+06  0.3597862E-02 -0.1293945E-01 -0.9524908E+05 -0.1603191E+05
  0.1659524E+01  0.1333099E+06  0.1208379E+06  0.2346482E-01  0.2130127E-01 -0.9430641E+05 -0.1518540E+05
  0.1690476E+01  0.1297421E+06  0.1248728E+06 -0.3827162E-02  0.8483887E-02 -0.9354845E+05 -0.1423092E+05
  0.1721429E+01  0.1262122E+06  0.1284359E+06  0.9218588E-03  0.3112793E-02 -0.9286901E+05 -0.1311432E+05
  0.1752381E+01  0.1226525E+06  0.1315183E+06 -0.7453587E-02 -0.7995605E-02 -0.9221319E+05 -0.1183054E+05
  0.1783333E+01  0.1192129E+06  0.1341646E+06  0.6639712E-02  0.1269531E-01 -0.9170106E+05 -0.1047515E+05
  0.1814286E+01  0.1158527E+06  0.1363258E+06  0.3700557E-03 -0.5187988E-02 -0.9122083E+05 -0.8954463E+04
  0.1845238E+01  0.1126455E+06  0.1380896E+06  0.1653856E-02  0.2502441E-02 -0.9087862E+05 -0.7380438E+04
  0.1876190E+01  0.1095681E+06  0.1395184E+06 -0.4651994E-02  0.9643555E-02 -0.9069368E+05 -0.5840806E+04
  0.1907143E+01  0.1065478E+06  0.1404937E+06  0.3424370E-02  0.1647949E-02 -0.9043598E+05 -0.4076611E+04
  0.1938095E+01  0.1037214E+06  0.1411695E+06  0.2676849E-02 -0.3662109E-03 -0.9032128E+05 -0.2360890E+04
  0.1969048E+01  0.1010828E+06  0.1415684E+06 -0.1376280E-01 -0.5004883E-02 -0.9032698E+05 -0.6725474E+03
  0.2000000E+01  0.9857262E+05  0.1416501E+06  0.4913330E-02 -0.1007080E-01 -0.9035288E+05  0.1075970E+04
Zone t="Motion of body    1 in DoF   2",I=    64,F=POINT
  0.5000000E-01  0.3356934E-02  0.2336502E-04  0.1201203E+06  0.3306820E+03  0.3356934E-01 -0.6008148E-04
  0.8095238E-01 -0.1357135E-01 -0.4577637E-04  0.1186608E+06  0.5483868E+03  0.4241046E-02 -0.4529953E-04
  0.1119048E+00  0.2045327E-02  0.1144409E-03  0.1178838E+06  0.7855084E+03  0.9135794E-02 -0.9727478E-04
  0.1428571E+00  0.1340485E-01  0.6675720E-05  0.1175235E+06  0.1050955E+04 -0.2777099E-01 -0.2040863E-03
  0.1738095E+00 -0.3774982E-02 -0.2002716E-04  0.1174061E+06  0.1356330E+04 -0.2150862E-01  0.2555847E-03
  0.2047619E+00 -0.1669241E-01 -0.1249313E-03  0.1175990E+06  0.1715633E+04  0.1594721E-01 -0.4158020E-03
  0.2357143E+00  0.1106956E-01 -0.5531311E-04  0.1179260E+06  0.2148962E+04  0.6732362E-02 -0.4177094E-03
  0.2666667E+00  0.6465911E-02 -0.2613068E-03  0.1184047E+06  0.2673460E+04 -0.1270294E-01 -0.7324219E-03
  0.2976190E+00  0.1245850E-01 -0.7438660E-04  0.1190453E+06  0.3326188E+04 -0.4101563E-03  0.1869202E-03
  0.3285715E+00  0.2229110E-02  0.6446838E-03  0.1197345E+06  0.4128061E+04  0.2136230E-02 -0.1148224E-02
  0.3595238E+00 -0.2767196E-01 -0.7629395E-04  0.1203461E+06  0.5123526E+04 -0.7809266E-02  0.4653931E-03
  0.3904762E+00 -0.3829584E-02 -0.1296997E-03  0.1210198E+06  0.6347412E+04 -0.2141441E-01 -0.1068115E-03
  0.4214286E+00 -0.6951800E-02  0.1113892E-02  0.1213723E+06  0.7786352E+04 -0.6662142E-02 -0.1319885E-02
  0.4523810E+00  0.7960268E-02  0.7629395E-05  0.1215416E+06  0.9514889E+04 -0.1538086E-01 -0.1296997E-02
  0.4833333E+00  0.4672346E-02 -0.2670288E-03  0.1213253E+06  0.1139251E+05 -0.2778152E-02  0.1617432E-02
  0.5142857E+00  0.2771166E-01  0.2250671E-02  0.1208150E+06  0.1350549E+05 -0.2468533E-01 -0.9307861E-03
  0.5452381E+00 -0.9235232E-02 -0.1602173E-02  0.1200207E+06  0.1574259E+05  0.2126902E-01  0.3662109E-03
  0.5761905E+00 -0.2499919E-01 -0.1037598E-02  0.1189359E+06  0.1806539E+05 -0.1938497E-01 -0.1739502E-02
  0.6071429E+00  0.1457663E-01  0.2090454E-02  0.1175689E+06  0.2052447E+05  0.6031709E-02 -0.2471924E-02
  0.6380953E+00 -0.1654781E-01 -0.4196167E-02  0.1161604E+06  0.2298007E+05  0.4399997E-02  0.6408691E-03
  0.6690477E+00  0.7936742E-02  0.5340576E-03  0.1145741E+06  0.2548744E+05 -0.1386649E-01 -0.1922607E-02
  0.7000000E+00  0.2354213E-02 -0.1220703E-03  0.1127772E+06  0.2805823E+05 -0.8370535E-02 -0.2105713E-02
  0.7309524E+00 -0.9686099E-02  0.1129150E-02  0.1109342E+06  0.3061402E+05 -0.1962270E-01  0.9765625E-03
  0.7619048E+00  0.2643585E-02 -0.1495361E-02  0.1089935E+06  0.3316807E+05 -0.2707672E-01  0.3662109E-02
  0.7928572E+00  0.2078494E-02 -0.5279541E-02  0.1069614E+06  0.3571009E+05 -0.8929827E-02 -0.1037598E-02
  0.8238096E+00 -0.5482580E-02 -0.7995605E-02  0.1048780E+06  0.3822102E+05 -0.1274329E-01  0.1220703E-03
  0.8547620E+00 -0.7212009E-02 -0.2502441E-02  0.1027555E+06  0.4068371E+05  0.8283099E-02 -0.2868652E-02
  0.8857143E+00  0.2274052E-02  0.1312256E-02  0.1006054E+06  0.4308680E+05  0.2108666E-01 -0.4272461E-02
  0.9166667E+00 -0.5459872E-02 -0.1495361E-02  0.9842800E+05  0.4541704E+05 -0.1251776E-01 -0.1483154E-01
  0.9476191E+00 -0.4186582E-02 -0.1983643E-02  0.9621596E+05  0.4766963E+05 -0.6956168E-02  0.8239746E-02
  0.9785714E+00  0.8357807E-02 -0.1046753E-01  0.9402262E+05  0.4982222E+05  0.3492815E-02  0.4150391E-02
  0.1009524E+01 -0.1892378E-01 -0.7751465E-02  0.9185540E+05  0.5186784E+05 -0.2176537E-02 -0.3173828E-02
  0.1040476E+01 -0.4810185E-02  0.7690430E-02  0.8972007E+05  0.5380271E+05  0.9737691E-02 -0.0000000E+00
  0.1071429E+01 -0.7975261E-03  0.8300781E-02  0.8760531E+05  0.5563234E+05  0.1048177E-01 -0.4455566E-02
  0.1102381E+01 -0.8747933E-02  0.9399414E-02  0.8554708E+05  0.5734760E+05 -0.1616707E-01 -0.4699707E-02
  0.1133333E+01 -0.2041087E-01  0.6774902E-02  0.8351969E+05  0.5894980E+05  0.1529469E-01 -0.2929688E-02
  0.1164286E+01 -0.5032592E-02 -0.5187988E-02  0.8157214E+05  0.6042578E+05 -0.6814968E-02  0.1623535E-01
  0.1195238E+01 -0.3574569E-02 -0.4882812E-03  0.7966998E+05  0.6178006E+05  0.6944877E-02  0.6103516E-03
  0.1226190E+01  0.1284227E-01  0.6958008E-02  0.7784948E+05  0.6301228E+05 -0.2090602E-02  0.4882812E-03
  0.1257143E+01  0.5000721E-02 -0.8666992E-02  0.7608942E+05  0.6416919E+05  0.3107244E-02  0.8911133E-02
  0.1288095E+01  0.2748274E-02 -0.1586914E-02  0.7441370E+05  0.6512372E+05 -0.3008887E-01  0.1220703E-02
  0.1319048E+01 -0.5089935E-03 -0.1385498E-01  0.7281473E+05  0.6601270E+05 -0.1934175E-01 -0.1757812E-01
  0.1350000E+01 -0.5334925E-02 -0.5065918E-02  0.7130284E+05  0.6679177E+05 -0.6329572E-02 -0.1708984E-02
  0.1380952E+01 -0.2298289E-02  0.3662109E-03  0.6986577E+05  0.6745795E+05 -0.1860730E-01  0.3906250E-02
  0.1411905E+01 -0.9942657E-02 -0.1153564E-01  0.6849778E+05  0.6808369E+05 -0.5230702E-02 -0.5371094E-02
  0.1442857E+01  0.1053310E-01  0.1385498E-01  0.6720813E+05  0.6862152E+05  0.1044849E-01 -0.9277344E-02
  0.1473810E+01  0.3810013E-02  0.2563477E-02  0.6601273E+05  0.6906360E+05  0.1138863E-01  0.7080078E-02
  0.1504762E+01  0.4056134E-03  0.8789062E-02  0.6489504E+05  0.6944690E+05  0.1711688E-01  0.1586914E-02
  0.1535714E+01 -0.1518214E-01  0.2380371E-02  0.6384964E+05  0.6976591E+05 -0.4928234E-02 -0.9765625E-03
  0.1566667E+01 -0.2411538E-01 -0.3967285E-02  0.6287725E+05  0.7003745E+05  0.1320697E-01  0.1220703E-02
  0.1597619E+01 -0.3170917E-02  0.7873535E-02  0.6197038E+05  0.7026369E+05 -0.1016222E-01 -0.6103516E-03
  0.1628572E+01 -0.1337955E-01 -0.2868652E-02  0.6114080E+05  0.7047302E+05  0.7008335E-02 -0.9765625E-03
  0.1659524E+01  0.1572290E-01  0.3784180E-02  0.6035155E+05  0.7068380E+05  0.2427395E-02  0.1098633E-02
  0.1690476E+01  0.1178838E-01 -0.1110840E-01  0.5962602E+05  0.7088901E+05 -0.1635570E-01  0.1831055E-02
  0.1721429E+01 -0.2464199E-02 -0.6103516E-04  0.5894874E+05  0.7108102E+05 -0.1957177E-01 -0.7568359E-02
  0.1752381E+01  0.8742291E-02 -0.4455566E-02  0.5830241E+05  0.7131333E+05 -0.3900943E-02  0.2319336E-02
  0.1783333E+01 -0.4842883E-02 -0.2746582E-02  0.5769391E+05  0.7155648E+05 -0.2566899E-02  0.9521484E-02
  0.1814286E+01 -0.4676158E-02  0.6896973E-02  0.5709912E+05  0.7181791E+05  0.8073943E-02  0.2807617E-02
  0.1845238E+01 -0.1154391E-01  0.5432129E-02  0.5652659E+05  0.7209480E+05  0.9327747E-02 -0.4882812E-03
  0.1876190E+01  0.2700109E-02  0.8972168E-02  0.5596611E+05  0.7242640E+05  0.7352103E-02 -0.1953125E-02
  0.1907143E+01 -0.3488377E-02  0.9765625E-03  0.5537774E+05  0.7277834E+05  0.1600173E-02 -0.7324219E-03
  0.1938095E+01  0.4739597E-02 -0.1770020E-02  0.5479094E+05  0.7313290E+05 -0.9416210E-02  0.1318359E-01
  0.1969048E+01 -0.8679244E-02  0.4333496E-02  0.5419576E+05  0.7347494E+05  0.9423179E-02 -0.7568359E-02
  0.2000000E+01  0.4333496E-02 -0.1171875E-01  0.5357755E+05  0.7379471E+05  0.9460449E-03 -0.5004883E-02
Zone t="Motion of body    1 in DoF   3",I=    64,F=POINT
  0.5000000E-01 -0.1040101E+06 -0.4777817E-02 -0.2221107E-01 -0.6458933E-04  0.2792299E+06  0.2488160E-02
  0.8095238E-01 -0.1050711E+06 -0.2114640E-01  0.2473943E-02  0.2454360E-04  0.2803408E+06  0.1079839E-01
  0.1119048E+00 -0.1051915E+06 -0.5896768E-01  0.4240645E-01  0.2809493E-03  0.2805019E+06  0.2883376E-01
  0.1428571E+00 -0.1052582E+06 -0.1320928E+00  0.2739715E-01  0.2590145E-03  0.2805147E+06  0.6375673E-01
  0.1738095E+00 -0.1052342E+06 -0.2622824E+00  0.1655944E-01  0.3012712E-03  0.2805510E+06  0.1261600E+00
  0.2047619E+00 -0.1052849E+06 -0.4826691E+00  0.3970967E-01  0.7232151E-03  0.2805287E+06  0.2337361E+00
  0.2357143E+00 -0.1052879E+06 -0.8456238E+00  0.1602173E-01  0.4299069E-03  0.2805880E+06  0.4073231E+00
  0.2666667E+00 -0.1053353E+06 -0.1435274E+01  0.2201557E-01  0.5731327E-03  0.2805102E+06  0.6874657E+00
  0.2976190E+00 -0.1053436E+06 -0.2394066E+01  0.2703186E-01  0.8335570E-03  0.2805657E+06  0.1140358E+01
  0.3285715E+00 -0.1053972E+06 -0.3933674E+01  0.2198924E-01  0.7476769E-03  0.2805937E+06  0.1862285E+01
  0.3595238E+00 -0.1054097E+06 -0.6413806E+01  0.4096682E-01  0.2176806E-02  0.2805538E+06  0.3012466E+01
  0.3904762E+00 -0.1054611E+06 -0.1037058E+02 -0.6643155E-02 -0.6779172E-03  0.2805069E+06  0.4834955E+01
  0.4214286E+00 -0.1054947E+06 -0.1653850E+02 -0.7217924E-01 -0.4546553E-02  0.2806163E+06  0.7642549E+01
  0.4523810E+00 -0.1054932E+06 -0.2613917E+02  0.4050967E-01  0.3117353E-02  0.2807416E+06  0.1196730E+02
  0.4833333E+00 -0.1055422E+06 -0.4026194E+02 -0.3854686E-01 -0.2258956E-02  0.2808438E+06  0.1823985E+02
  0.5142857E+00 -0.1057006E+06 -0.6097373E+02  0.5075031E-01  0.6037354E-02  0.2807228E+06  0.2736501E+02
  0.5452381E+00 -0.1058838E+06 -0.9002485E+02 -0.2182873E-02  0.7763505E-03  0.2807178E+06  0.4003016E+02
  0.5761905E+00 -0.1058549E+06 -0.1297689E+03  0.9864617E-02  0.2614319E-02  0.2809437E+06  0.5695570E+02
  0.6071429E+00 -0.1059788E+06 -0.1835544E+03 -0.1019107E-01 -0.4216671E-02  0.2809659E+06  0.7962400E+02
  0.6380953E+00 -0.1061429E+06 -0.2535936E+03 -0.3172063E-01 -0.7450700E-02  0.2809222E+06  0.1084817E+03
  0.6690477E+00 -0.1063757E+06 -0.3439784E+03 -0.3748286E-01 -0.7036448E-02  0.2809208E+06  0.1452964E+03
  0.7000000E+00 -0.1065337E+06 -0.4593946E+03 -0.4784720E-02  0.3403187E-02  0.2810543E+06  0.1914299E+03
  0.7309524E+00 -0.1066435E+06 -0.6037654E+03 -0.8725840E-02 -0.2543211E-02  0.2812019E+06  0.2474620E+03
  0.7619048E+00 -0.1067515E+06 -0.7822166E+03  0.1589155E-01  0.4898071E-02  0.2813155E+06  0.3151305E+03
  0.7928572E+00 -0.1069723E+06 -0.9997344E+03  0.1048870E-01  0.5596638E-02  0.2812771E+06  0.3961206E+03
  0.8238096E+00 -0.1071662E+06 -0.1261498E+04 -0.1908716E-01 -0.6498814E-02  0.2812221E+06  0.4913238E+03
  0.8547620E+00 -0.1073597E+06 -0.1573201E+04 -0.2694685E-01 -0.1208687E-01  0.2812352E+06  0.6015923E+03
  0.8857143E+00 -0.1074415E+06 -0.1941326E+04 -0.6468988E-02 -0.1003742E-01  0.2813918E+06  0.7274959E+03
  0.9166667E+00 -0.1075304E+06 -0.2369663E+04 -0.3938432E-01 -0.2492619E-01  0.2815068E+06  0.8688742E+03
  0.9476191E+00 -0.1075604E+06 -0.2861587E+04  0.2463643E-01  0.1905823E-01  0.2814936E+06  0.1026007E+04
  0.9785714E+00 -0.1076179E+06 -0.3419496E+04 -0.1715222E-01 -0.1265144E-01  0.2814104E+06  0.1198519E+04
  0.1009524E+01 -0.1075796E+06 -0.4046660E+04  0.1073154E-02 -0.8277893E-03  0.2813878E+06  0.1383550E+04
  0.1040476E+01 -0.1075768E+06 -0.4738268E+04 -0.1330133E-01 -0.9233475E-02  0.2812256E+06  0.1581887E+04
  0.1071429E+01 -0.1075008E+06 -0.5498288E+04  0.9171550E-02 -0.1258850E-03  0.2811372E+06  0.1787519E+04
  0.1102381E+01 -0.1073261E+06 -0.6323536E+04  0.1731592E-01  0.2902985E-02  0.2811516E+06  0.1998774E+04
  0.1133333E+01 -0.1069982E+06 -0.7201942E+04 -0.2333248E-01 -0.1259613E-01  0.2810818E+06  0.2206950E+04
  0.1164286E+01 -0.1065863E+06 -0.8125033E+04  0.1546474E-01  0.4898071E-02  0.2810768E+06  0.2411277E+04
  0.1195238E+01 -0.1061177E+06 -0.9060502E+04 -0.2846889E-01 -0.1428604E-01  0.2808414E+06  0.2601251E+04
  0.1226190E+01 -0.1056132E+06 -0.1000605E+05  0.2850934E-01  0.2056503E-01  0.2806638E+06  0.2779857E+04
  0.1257143E+01 -0.1049617E+06 -0.1093329E+05 -0.8423544E-02 -0.1918030E-01  0.2803903E+06  0.2931393E+04
  0.1288095E+01 -0.1042859E+06 -0.1182444E+05 -0.1192893E-01 -0.3512573E-01  0.2801220E+06  0.3050679E+04
  0.1319048E+01 -0.1035185E+06 -0.1265971E+05 -0.7900967E-02 -0.1436615E-01  0.2799254E+06  0.3148243E+04
  0.1350000E+01 -0.1026887E+06 -0.1341397E+05  0.7358127E-02  0.2187347E-01  0.2797487E+06  0.3201153E+04
  0.1380952E+01 -0.1017453E+06 -0.1404508E+05 -0.9944521E-04 -0.1392365E-01  0.2794883E+06  0.3191556E+04
  0.1411905E+01 -0.1026929E+06 -0.1576265E+05  0.2351655E-01  0.1811981E-01  0.2790083E+06  0.3431750E+04
  0.1442857E+01 -0.1015931E+06 -0.1624421E+05 -0.5509783E-02  0.1216888E-01  0.2788007E+06  0.3350809E+04
  0.1473810E+01 -0.1005512E+06 -0.1653953E+05  0.1080884E-01  0.1796722E-01  0.2786364E+06  0.3205595E+04
  0.1504762E+01 -0.9948947E+05 -0.1664076E+05  0.7260479E-02  0.4066467E-02  0.2784656E+06  0.3055534E+04
  0.1535714E+01 -0.9844137E+05 -0.1658673E+05  0.8028252E-02 -0.3150940E-02  0.2784139E+06  0.2859254E+04
  0.1566667E+01 -0.9738827E+05 -0.1631631E+05 -0.2162203E-02 -0.7125854E-02  0.2782875E+06  0.2595514E+04
  0.1597619E+01 -0.9638997E+05 -0.1582851E+05  0.2821352E-01  0.2291870E-01  0.2781417E+06  0.2295453E+04
  0.1628572E+01 -0.9552868E+05 -0.1520341E+05  0.8432488E-02  0.2326965E-02  0.2781990E+06  0.2012470E+04
  0.1659524E+01 -0.9464145E+05 -0.1438667E+05 -0.9911864E-02 -0.2683258E-01  0.2781389E+06  0.1696904E+04
  0.1690476E+01 -0.9392096E+05 -0.1339901E+05  0.3430004E-03  0.3251648E-01  0.2781713E+06  0.1404010E+04
  0.1721429E+01 -0.9325247E+05 -0.1220843E+05 -0.9431325E-02 -0.1076508E-01  0.2781438E+06  0.1060669E+04
  0.1752381E+01 -0.9264136E+05 -0.1098083E+05 -0.1428024E-01 -0.2672577E-01  0.2782803E+06  0.7880084E+03
  0.1783333E+01 -0.9215570E+05 -0.9652823E+04 -0.1928597E-01 -0.2555084E-01  0.2784978E+06  0.5496889E+03
  0.1814286E+01 -0.9169178E+05 -0.8140627E+04  0.3431425E-02 -0.3879929E-01  0.2785836E+06  0.2784724E+03
  0.1845238E+01 -0.9135319E+05 -0.6502521E+04  0.4300025E-03 -0.1117706E-02  0.2786438E+06 -0.1018271E+02
  0.1876190E+01 -0.9117459E+05 -0.4921061E+04 -0.3334471E-02  0.1532745E-01  0.2789412E+06 -0.1119829E+03
  0.1907143E+01 -0.9094620E+05 -0.3224862E+04 -0.7328791E-02  0.1474953E-01  0.2790436E+06 -0.3212750E+03
  0.1938095E+01 -0.9085629E+05 -0.1529787E+04 -0.1385663E-02  0.1050949E-01  0.2792309E+06 -0.4403025E+03
  0.1969048E+01 -0.9086895E+05  0.2076432E+03  0.1373180E-01  0.2200794E-01  0.2794321E+06 -0.5428107E+03
  0.2000000E+01 -0.9089233E+05  0.1986965E+04 -0.4348755E-02 -0.9450436E-02  0.2795668E+06 -0.6202337E+03
