VARIABLES="w (rad/s)"
"abs(F   1   1)" "angle(F   1   1)"
"abs(F   1   2)" "angle(F   1   2)"
"abs(F   1   3)" "angle(F   1   3)"
Zone t="Diffraction force - beta =   0.000 deg",I=    64,F=POINT
  0.5000000E-01  0.6171657E+04 -0.1570787E+01  0.2489123E+06 -0.1671474E-04  0.2377909E+05  0.1570796E+01
  0.8095238E-01  0.1006956E+05 -0.1570795E+01  0.2478952E+06 -0.4486809E-04  0.3875866E+05  0.1570797E+01
  0.1119048E+00  0.1404288E+05 -0.1570787E+01  0.2464020E+06 -0.8880307E-04  0.5400168E+05  0.1570807E+01
  0.1428571E+00  0.1813517E+05 -0.1570785E+01  0.2444344E+06 -0.1516760E-03  0.6967198E+05  0.1570809E+01
  0.1738095E+00  0.2238585E+05 -0.1570777E+01  0.2419972E+06 -0.2379144E-03  0.8588098E+05  0.1570812E+01
  0.2047619E+00  0.2682491E+05 -0.1570763E+01  0.2390969E+06 -0.3545547E-03  0.1027986E+06  0.1570830E+01
  0.2357143E+00  0.3152559E+05 -0.1570747E+01  0.2357362E+06 -0.5111990E-03  0.1206088E+06  0.1570847E+01
  0.2666667E+00  0.3654427E+05 -0.1570722E+01  0.2319331E+06 -0.7187956E-03  0.1395263E+06  0.1570873E+01
  0.2976190E+00  0.4194157E+05 -0.1570685E+01  0.2276915E+06 -0.9985559E-03  0.1598245E+06  0.1570907E+01
  0.3285715E+00  0.4780066E+05 -0.1570630E+01  0.2230425E+06 -0.1367659E-02  0.1817178E+06  0.1570961E+01
  0.3595238E+00  0.5420723E+05 -0.1570549E+01  0.2179940E+06 -0.1858991E-02  0.2055047E+06  0.1571042E+01
  0.3904762E+00  0.6119665E+05 -0.1570430E+01  0.2126015E+06 -0.2503862E-02  0.2313981E+06  0.1571165E+01
  0.4214286E+00  0.6891340E+05 -0.1570253E+01  0.2068717E+06 -0.3318866E-02  0.2597708E+06  0.1571336E+01
  0.4523810E+00  0.7730320E+05 -0.1569998E+01  0.2008918E+06 -0.4374378E-02  0.2903980E+06  0.1571593E+01
  0.4833333E+00  0.8640675E+05 -0.1569649E+01  0.1946632E+06 -0.5611808E-02  0.3233552E+06  0.1571943E+01
  0.5142857E+00  0.9613814E+05 -0.1569167E+01  0.1882507E+06 -0.7121918E-02  0.3584842E+06  0.1572425E+01
  0.5452381E+00  0.1064963E+06 -0.1568530E+01  0.1816932E+06 -0.8862035E-02  0.3955350E+06  0.1573064E+01
  0.5761905E+00  0.1174217E+06 -0.1567708E+01  0.1749708E+06 -0.1082752E-01  0.4341116E+06  0.1573884E+01
  0.6071429E+00  0.1287137E+06 -0.1566656E+01  0.1682312E+06 -0.1309740E-01  0.4736711E+06  0.1574936E+01
  0.6380953E+00  0.1404141E+06 -0.1565355E+01  0.1613864E+06 -0.1557677E-01  0.5142219E+06  0.1576238E+01
  0.6690477E+00  0.1524857E+06 -0.1563756E+01  0.1544672E+06 -0.1834784E-01  0.5556920E+06  0.1577836E+01
  0.7000000E+00  0.1647452E+06 -0.1561806E+01  0.1476230E+06 -0.2143206E-01  0.5971132E+06  0.1579786E+01
  0.7309524E+00  0.1772834E+06 -0.1559476E+01  0.1407548E+06 -0.2480592E-01  0.6387596E+06  0.1582116E+01
  0.7619048E+00  0.1900729E+06 -0.1556709E+01  0.1338856E+06 -0.2852695E-01  0.6806324E+06  0.1584883E+01
  0.7928572E+00  0.2028633E+06 -0.1553451E+01  0.1271426E+06 -0.3256291E-01  0.7219347E+06  0.1588141E+01
  0.8238096E+00  0.2158327E+06 -0.1549652E+01  0.1204975E+06 -0.3697311E-01  0.7633200E+06  0.1591939E+01
  0.8547620E+00  0.2288526E+06 -0.1545273E+01  0.1139320E+06 -0.4179152E-01  0.8038025E+06  0.1596318E+01
  0.8857143E+00  0.2419715E+06 -0.1540260E+01  0.1074551E+06 -0.4707827E-01  0.8436927E+06  0.1601329E+01
  0.9166667E+00  0.2548748E+06 -0.1534565E+01  0.1012085E+06 -0.5262179E-01  0.8818657E+06  0.1607023E+01
  0.9476191E+00  0.2678064E+06 -0.1528136E+01  0.9512938E+05 -0.5863898E-01  0.9194778E+06  0.1613452E+01
  0.9785714E+00  0.2805096E+06 -0.1520936E+01  0.8920937E+05 -0.6518791E-01  0.9551832E+06  0.1620649E+01
  0.1009524E+01  0.2931448E+06 -0.1512929E+01  0.8344493E+05 -0.7235047E-01  0.9897939E+06  0.1628654E+01
  0.1040476E+01  0.3052768E+06 -0.1504085E+01  0.7791316E+05 -0.7991577E-01  0.1022051E+07  0.1637494E+01
  0.1071429E+01  0.3170673E+06 -0.1494409E+01  0.7263991E+05 -0.8780716E-01  0.1052134E+07  0.1647166E+01
  0.1102381E+01  0.3284770E+06 -0.1483908E+01  0.6757325E+05 -0.9632842E-01  0.1079706E+07  0.1657661E+01
  0.1133333E+01  0.3393942E+06 -0.1472573E+01  0.6271891E+05 -0.1055551E+00  0.1104383E+07  0.1668988E+01
  0.1164286E+01  0.3498423E+06 -0.1460400E+01  0.5805934E+05 -0.1156404E+00  0.1126702E+07  0.1681149E+01
  0.1195238E+01  0.3593804E+06 -0.1447423E+01  0.5364547E+05 -0.1262610E+00  0.1145356E+07  0.1694112E+01
  0.1226190E+01  0.3680114E+06 -0.1433698E+01  0.4950496E+05 -0.1368744E+00  0.1160193E+07  0.1707821E+01
  0.1257143E+01  0.3758808E+06 -0.1419234E+01  0.4560155E+05 -0.1482936E+00  0.1172424E+07  0.1722280E+01
  0.1288095E+01  0.3828416E+06 -0.1404186E+01  0.4190629E+05 -0.1604590E+00  0.1180272E+07  0.1737303E+01
  0.1319048E+01  0.3887978E+06 -0.1388625E+01  0.3842577E+05 -0.1736615E+00  0.1184716E+07  0.1752844E+01
  0.1350000E+01  0.3937560E+06 -0.1372768E+01  0.3514817E+05 -0.1880144E+00  0.1185439E+07  0.1768666E+01
  0.1380952E+01  0.3974101E+06 -0.1356744E+01  0.3209318E+05 -0.2026973E+00  0.1181511E+07  0.1784645E+01
  0.1411905E+01  0.3991855E+06 -0.1341018E+01  0.2925876E+05 -0.2171524E+00  0.1172235E+07  0.1800311E+01
  0.1442857E+01  0.4005493E+06 -0.1324957E+01  0.2664010E+05 -0.2321917E+00  0.1161092E+07  0.1816354E+01
  0.1473810E+01  0.4005384E+06 -0.1309248E+01  0.2420038E+05 -0.2483207E+00  0.1145404E+07  0.1832001E+01
  0.1504762E+01  0.3994183E+06 -0.1293936E+01  0.2194136E+05 -0.2652672E+00  0.1126333E+07  0.1847250E+01
  0.1535714E+01  0.3972918E+06 -0.1279230E+01  0.1983778E+05 -0.2839535E+00  0.1104452E+07  0.1861850E+01
  0.1566667E+01  0.3940084E+06 -0.1265320E+01  0.1791110E+05 -0.3032950E+00  0.1079687E+07  0.1875713E+01
  0.1597619E+01  0.3895779E+06 -0.1252508E+01  0.1613481E+05 -0.3229454E+00  0.1051605E+07  0.1888385E+01
  0.1628572E+01  0.3841226E+06 -0.1240869E+01  0.1449708E+05 -0.3433267E+00  0.1020909E+07  0.1899858E+01
  0.1659524E+01  0.3779927E+06 -0.1230188E+01  0.1302443E+05 -0.3624714E+00  0.9894131E+06  0.1910529E+01
  0.1690476E+01  0.3710531E+06 -0.1220924E+01  0.1167154E+05 -0.3834828E+00  0.9560851E+06  0.1919712E+01
  0.1721429E+01  0.3633890E+06 -0.1213290E+01  0.1043998E+05 -0.4047194E+00  0.9210278E+06  0.1927118E+01
  0.1752381E+01  0.3553409E+06 -0.1207139E+01  0.9312855E+04 -0.4277589E+00  0.8857364E+06  0.1933075E+01
  0.1783333E+01  0.3469718E+06 -0.1202483E+01  0.8287344E+04 -0.4534801E+00  0.8505559E+06  0.1937576E+01
  0.1814286E+01  0.3380310E+06 -0.1199555E+01  0.7366337E+04 -0.4781058E+00  0.8147984E+06  0.1940462E+01
  0.1845238E+01  0.3287688E+06 -0.1198552E+01  0.6524229E+04 -0.5053112E+00  0.7787794E+06  0.1941148E+01
  0.1876190E+01  0.3192685E+06 -0.1199386E+01  0.5759904E+04 -0.5364689E+00  0.7429151E+06  0.1939926E+01
  0.1907143E+01  0.3097915E+06 -0.1201617E+01  0.5084695E+04 -0.5604877E+00  0.7083731E+06  0.1937749E+01
  0.1938095E+01  0.3003715E+06 -0.1205437E+01  0.4480456E+04 -0.5854629E+00  0.6749465E+06  0.1934161E+01
  0.1969048E+01  0.2908162E+06 -0.1211578E+01  0.3929532E+04 -0.6156866E+00  0.6413730E+06  0.1927453E+01
  0.2000000E+01  0.2814460E+06 -0.1219177E+01  0.3437193E+04 -0.6466821E+00  0.6092237E+06  0.1919571E+01
