VARIABLES="w (rad/s)"
"A   1   1" "B   1   1"
"A   1   2" "B   1   2"
"A   1   3" "B   1   3"
Zone t="Motion of body    1 in DoF   1",I=    64,F=POINT
  0.5000000E-01  0.1034501E+06  0.9447853E-02 -0.6065369E-02 -0.2850001E-04 -0.3743892E+05  0.1164373E-02
  0.8095238E-01  0.1039855E+06  0.4157360E-01 -0.3534205E-02 -0.5468394E-04 -0.3782807E+05  0.5182399E-02
  0.1119048E+00  0.1041058E+06  0.1166667E+00  0.6135981E-02  0.8768914E-04 -0.3788894E+05  0.1462083E-01
  0.1428571E+00  0.1043206E+06  0.2624301E+00  0.5287170E-02 -0.5952315E-06 -0.3759007E+05  0.3398992E-01
  0.1738095E+00  0.1043301E+06  0.5217991E+00 -0.1071042E-01 -0.1348190E-03 -0.3776352E+05  0.6798518E-01
  0.2047619E+00  0.1045274E+06  0.9615139E+00  0.6185133E-02 -0.5689403E-04 -0.3751154E+05  0.1275205E+00
  0.2357143E+00  0.1046766E+06  0.1690466E+01 -0.1029275E-01  0.6234646E-04 -0.3747285E+05  0.2292399E+00
  0.2666667E+00  0.1047892E+06  0.2878566E+01 -0.2632141E-02  0.1992621E-03 -0.3748057E+05  0.3994024E+00
  0.2976190E+00  0.1050759E+06  0.4820258E+01  0.2245606E-01  0.5414635E-03 -0.3714024E+05  0.6914864E+00
  0.3285715E+00  0.1053151E+06  0.7958068E+01  0.1253874E-02 -0.1244247E-05 -0.3705165E+05  0.1175521E+01
  0.3595238E+00  0.1054866E+06  0.1303087E+02 -0.1655225E-02  0.2265871E-03 -0.3705038E+05  0.1975978E+01
  0.3904762E+00  0.1057851E+06  0.2118919E+02  0.1211399E-01  0.2116263E-03 -0.3680532E+05  0.3329832E+01
  0.4214286E+00  0.1062399E+06  0.3399768E+02 -0.3620729E-03  0.5084276E-04 -0.3636275E+05  0.5573004E+01
  0.4523810E+00  0.1065397E+06  0.5404049E+02  0.5835282E-02  0.3606379E-03 -0.3634061E+05  0.9126950E+01
  0.4833333E+00  0.1069215E+06  0.8375922E+02  0.6945379E-03 -0.2273321E-03 -0.3613294E+05  0.1468935E+02
  0.5142857E+00  0.1074497E+06  0.1277226E+03 -0.2314250E-02 -0.1214445E-02 -0.3573470E+05  0.2331893E+02
  0.5452381E+00  0.1080069E+06  0.1900836E+03 -0.6044880E-02 -0.1699924E-02 -0.3537766E+05  0.3611401E+02
  0.5761905E+00  0.1084821E+06  0.2760807E+03  0.1239367E-01  0.1479626E-02 -0.3523224E+05  0.5437482E+02
  0.6071429E+00  0.1090147E+06  0.3935055E+03  0.9349149E-02  0.4057646E-02 -0.3499206E+05  0.8040528E+02
  0.6380953E+00  0.1096988E+06  0.5484771E+03  0.1243477E-01  0.3394127E-02 -0.3454213E+05  0.1167673E+03
  0.6690477E+00  0.1104718E+06  0.7512486E+03  0.6933246E-02  0.4982948E-03 -0.3397188E+05  0.1668789E+03
  0.7000000E+00  0.1111992E+06  0.1013039E+04 -0.2397810E-01 -0.2676010E-02 -0.3364383E+05  0.2336675E+03
  0.7309524E+00  0.1119360E+06  0.1344195E+04 -0.1102211E-01 -0.3333092E-02 -0.3336695E+05  0.3216285E+03
  0.7619048E+00  0.1127225E+06  0.1759132E+04 -0.1005363E-01 -0.2964020E-02 -0.3291770E+05  0.4375339E+03
  0.7928572E+00  0.1136192E+06  0.2273314E+04 -0.1474191E-01 -0.6341934E-02 -0.3234864E+05  0.5881178E+03
  0.8238096E+00  0.1145263E+06  0.2902564E+04 -0.1463256E-01 -0.9090424E-02 -0.3167796E+05  0.7816992E+03
  0.8547620E+00  0.1154748E+06  0.3664322E+04 -0.1856557E-02 -0.4215240E-02 -0.3101230E+05  0.1026549E+04
  0.8857143E+00  0.1163896E+06  0.4576643E+04  0.1798568E-01  0.6031036E-02 -0.3045555E+05  0.1331127E+04
  0.9166667E+00  0.1172821E+06  0.5657516E+04 -0.3728693E-02 -0.5695343E-02 -0.2995824E+05  0.1705794E+04
  0.9476191E+00  0.1181031E+06  0.6923250E+04  0.7793484E-02  0.6980896E-02 -0.2934307E+05  0.2165450E+04
  0.9785714E+00  0.1189684E+06  0.8392168E+04 -0.7858833E-02  0.4104614E-02 -0.2863687E+05  0.2722493E+04
  0.1009524E+01  0.1197880E+06  0.1007883E+05  0.1946791E-01  0.1333618E-01 -0.2785798E+05  0.3391473E+04
  0.1040476E+01  0.1205525E+06  0.1199626E+05 -0.4634202E-02 -0.3852844E-02 -0.2704634E+05  0.4187079E+04
  0.1071429E+01  0.1212067E+06  0.1415592E+05  0.5183919E-02 -0.2624512E-02 -0.2631364E+05  0.5120366E+04
  0.1102381E+01  0.1217263E+06  0.1656411E+05  0.1605633E-02  0.7476807E-03 -0.2570092E+05  0.6202229E+04
  0.1133333E+01  0.1220796E+06  0.1921894E+05 -0.8078183E-03  0.3585815E-02 -0.2513426E+05  0.7447592E+04
  0.1164286E+01  0.1222701E+06  0.2211429E+05  0.9750647E-02  0.6958008E-02 -0.2462790E+05  0.8862064E+04
  0.1195238E+01  0.1222767E+06  0.2523176E+05  0.6383159E-02  0.5661011E-02 -0.2412494E+05  0.1045491E+05
  0.1226190E+01  0.1221184E+06  0.2855780E+05  0.8959725E-02  0.6469727E-02 -0.2373460E+05  0.1222037E+05
  0.1257143E+01  0.1217040E+06  0.3208929E+05  0.1262318E-02  0.6378174E-02 -0.2339461E+05  0.1418167E+05
  0.1288095E+01  0.1211602E+06  0.3571575E+05  0.1658441E-01  0.2215576E-01 -0.2311252E+05  0.1629202E+05
  0.1319048E+01  0.1203718E+06  0.3948127E+05  0.1573253E-02  0.7141113E-02 -0.2291787E+05  0.1858427E+05
  0.1350000E+01  0.1194005E+06  0.4331784E+05  0.2441406E-02  0.5157471E-02 -0.2285503E+05  0.2102304E+05
  0.1380952E+01  0.1182296E+06  0.4717746E+05 -0.1869570E-01 -0.1434326E-01 -0.2288758E+05  0.2359960E+05
  0.1411905E+01  0.1165544E+06  0.5082329E+05  0.2377592E-02 -0.1895142E-01 -0.2351339E+05  0.2616292E+05
  0.1442857E+01  0.1149974E+06  0.5461897E+05 -0.4695477E-02  0.3540039E-02 -0.2378808E+05  0.2895903E+05
  0.1473810E+01  0.1133428E+06  0.5832693E+05 -0.1987833E-02 -0.4943848E-02 -0.2424882E+05  0.3180570E+05
  0.1504762E+01  0.1115324E+06  0.6189332E+05 -0.1253345E-01 -0.8544922E-03 -0.2478759E+05  0.3470951E+05
  0.1535714E+01  0.1096131E+06  0.6529879E+05 -0.1069109E-01  0.6896973E-02 -0.2544542E+05  0.3763084E+05
  0.1566667E+01  0.1076174E+06  0.6851162E+05 -0.2259599E-02  0.5310059E-02 -0.2622783E+05  0.4054689E+05
  0.1597619E+01  0.1055535E+06  0.7150052E+05 -0.9245325E-02 -0.1190186E-01 -0.2708026E+05  0.4344964E+05
  0.1628572E+01  0.1034773E+06  0.7428241E+05 -0.7120768E-02 -0.3173828E-02 -0.2810120E+05  0.4627477E+05
  0.1659524E+01  0.1013206E+06  0.7680506E+05 -0.3383642E-02 -0.1037598E-02 -0.2909890E+05  0.4909225E+05
  0.1690476E+01  0.9921442E+05  0.7909448E+05  0.9892853E-02  0.9887695E-02 -0.3022015E+05  0.5179127E+05
  0.1721429E+01  0.9713512E+05  0.8112525E+05  0.6807573E-02  0.2441406E-02 -0.3137463E+05  0.5441747E+05
  0.1752381E+01  0.9506659E+05  0.8291935E+05  0.4249241E-02 -0.9338379E-02 -0.3257230E+05  0.5694309E+05
  0.1783333E+01  0.9306582E+05  0.8448055E+05  0.1454576E-01 -0.8178711E-02 -0.3382580E+05  0.5933345E+05
  0.1814286E+01  0.9110583E+05  0.8578988E+05 -0.6358230E-02 -0.1507568E-01 -0.3506412E+05  0.6164058E+05
  0.1845238E+01  0.8922425E+05  0.8687231E+05  0.7409274E-02 -0.1782227E-01 -0.3631046E+05  0.6384329E+05
  0.1876190E+01  0.8743334E+05  0.8779259E+05  0.1691634E-02 -0.2258301E-02 -0.3764234E+05  0.6584888E+05
  0.1907143E+01  0.8567195E+05  0.8848364E+05 -0.1472159E-02 -0.2929688E-02 -0.3889276E+05  0.6782269E+05
  0.1938095E+01  0.8400834E+05  0.8901370E+05  0.4660867E-02 -0.8789062E-02 -0.4017322E+05  0.6962357E+05
  0.1969048E+01  0.8245227E+05  0.8937924E+05  0.4990565E-02  0.1306152E-01 -0.4146296E+05  0.7128892E+05
  0.2000000E+01  0.8096479E+05  0.8956325E+05  0.3753662E-02  0.1062012E-01 -0.4270363E+05  0.7286402E+05
Zone t="Motion of body    1 in DoF   2",I=    64,F=POINT
  0.5000000E-01  0.6561279E-02  0.1239777E-04  0.1259016E+06  0.3458182E+03 -0.1541138E-01  0.2336502E-04
  0.8095238E-01  0.1404257E-01 -0.1525879E-04  0.1242753E+06  0.5733317E+03 -0.2751967E-01 -0.2002716E-04
  0.1119048E+00 -0.2358944E-01  0.8678436E-04  0.1234812E+06  0.8208868E+03  0.3954299E-02 -0.3814697E-04
  0.1428571E+00 -0.1821136E-01 -0.2288818E-04  0.1230108E+06  0.1097784E+04 -0.1815796E-01  0.7247925E-04
  0.1738095E+00  0.1132495E-01 -0.2365112E-03  0.1229089E+06  0.1415785E+04 -0.7549965E-02  0.1029968E-03
  0.2047619E+00  0.1751212E-01 -0.8869171E-04  0.1230098E+06  0.1789521E+04 -0.4024062E-02 -0.2937317E-03
  0.2357143E+00 -0.2136230E-02 -0.4386902E-04  0.1233325E+06  0.2239494E+04  0.2330433E-02  0.4959106E-04
  0.2666667E+00  0.1144409E-02 -0.1907349E-04  0.1237948E+06  0.2783054E+04  0.1029968E-01  0.1792908E-03
  0.2976190E+00  0.4716797E-02 -0.5722046E-05  0.1243347E+06  0.3458709E+04 -0.6562500E-02  0.1098633E-02
  0.3285715E+00  0.1671832E-02  0.3929138E-03  0.1250023E+06  0.4286618E+04  0.1337466E-01  0.4501343E-03
  0.3595238E+00 -0.5687183E-02 -0.1525879E-04  0.1256001E+06  0.5312537E+04  0.1018600E-02  0.9918213E-04
  0.3904762E+00  0.8675179E-02 -0.1285553E-02  0.1261582E+06  0.6571042E+04  0.1094167E-01  0.3814697E-03
  0.4214286E+00 -0.2751754E-02 -0.4425049E-03  0.1263994E+06  0.8047031E+04 -0.5937996E-02  0.6561279E-03
  0.4523810E+00  0.5869012E-02  0.2067566E-02  0.1265249E+06  0.9815056E+04 -0.2698396E-03  0.1007080E-02
  0.4833333E+00 -0.2715012E-02 -0.0000000E+00  0.1261980E+06  0.1172801E+05 -0.1490100E-01 -0.1831055E-03
  0.5142857E+00 -0.3441705E-02  0.3204346E-03  0.1255009E+06  0.1387645E+05 -0.5933974E-02  0.1525879E-02
  0.5452381E+00 -0.2014960E-01  0.7629395E-03  0.1245583E+06  0.1613986E+05  0.8955377E-02 -0.7629395E-03
  0.5761905E+00 -0.8739124E-02  0.7019043E-03  0.1233629E+06  0.1847577E+05 -0.2330433E-02  0.4608154E-02
  0.6071429E+00  0.5629595E-02  0.1556396E-02  0.1218574E+06  0.2094039E+05 -0.3015854E-02  0.1983643E-02
  0.6380953E+00 -0.2773911E-02  0.4272461E-03  0.1202433E+06  0.2339013E+05  0.6313039E-02  0.2685547E-02
  0.6690477E+00 -0.1021742E-01  0.9460449E-03  0.1184623E+06  0.2587729E+05 -0.1496121E-01 -0.2685547E-02
  0.7000000E+00 -0.4359654E-03  0.1571655E-02  0.1165178E+06  0.2840765E+05  0.6103515E-02 -0.3967285E-02
  0.7309524E+00 -0.6012062E-02  0.2990723E-02  0.1145539E+06  0.3090211E+05  0.2338024E-02  0.6103516E-04
  0.7619048E+00  0.1361847E-02  0.2441406E-03  0.1124664E+06  0.3338028E+05 -0.1073456E-01 -0.6652832E-02
  0.7928572E+00 -0.8390958E-02  0.2441406E-02  0.1102603E+06  0.3583270E+05 -0.8621902E-02  0.3723145E-02
  0.8238096E+00  0.1259512E-02  0.3662109E-03  0.1079931E+06  0.3823992E+05 -0.7705247E-02 -0.4394531E-02
  0.8547620E+00 -0.1478105E-01 -0.2197266E-02  0.1057292E+06  0.4057022E+05 -0.3427489E-02  0.1831055E-02
  0.8857143E+00 -0.5030478E-02 -0.1556396E-02  0.1034653E+06  0.4281113E+05 -0.4134639E-03 -0.5126953E-02
  0.9166667E+00 -0.2796520E-02 -0.3234863E-02  0.1011983E+06  0.4495319E+05  0.1518111E-01  0.3906250E-02
  0.9476191E+00 -0.1578019E-01  0.9765625E-03  0.9888849E+05  0.4700238E+05  0.2305841E-01 -0.1098633E-02
  0.9785714E+00  0.5114479E-02 -0.3723145E-02  0.9658557E+05  0.4893675E+05 -0.9979471E-03  0.1342773E-02
  0.1009524E+01 -0.1813781E-03  0.4577637E-03  0.9430014E+05  0.5075072E+05 -0.4715830E-02  0.5249023E-02
  0.1040476E+01  0.3578308E-02  0.2227783E-02  0.9207247E+05  0.5243361E+05  0.3636969E-02  0.2441406E-03
  0.1071429E+01  0.4329427E-02  0.5493164E-02  0.8989420E+05  0.5397600E+05  0.1936849E-02 -0.6103516E-03
  0.1102381E+01 -0.1566876E-01 -0.1831055E-03  0.8778774E+05  0.5536975E+05 -0.6090333E-02  0.2807617E-02
  0.1133333E+01  0.9209128E-02 -0.7629395E-02  0.8573932E+05  0.5661577E+05 -0.6677964E-02 -0.5126953E-02
  0.1164286E+01  0.2201759E-02 -0.1068115E-01  0.8376881E+05  0.5771556E+05  0.1153302E-01 -0.1464844E-02
  0.1195238E+01  0.2961786E-02  0.4150391E-02  0.8187016E+05  0.5867451E+05 -0.3370308E-02 -0.2685547E-02
  0.1226190E+01  0.1518175E-01 -0.5065918E-02  0.8005225E+05  0.5949210E+05  0.2090602E-02  0.2197266E-02
  0.1257143E+01 -0.1699274E-02 -0.6713867E-03  0.7830400E+05  0.6021694E+05 -0.2165361E-01  0.4882812E-03
  0.1288095E+01  0.8244823E-02  0.5065918E-02  0.7665553E+05  0.6072208E+05  0.1611057E-01  0.2197266E-02
  0.1319048E+01  0.1388164E-03 -0.1403809E-02  0.7509138E+05  0.6113784E+05 -0.8421529E-02 -0.2441406E-02
  0.1350000E+01  0.3390842E-02 -0.1708984E-02  0.7363349E+05  0.6141561E+05  0.4521123E-02  0.4760742E-02
  0.1380952E+01 -0.5303745E-02  0.2075195E-02  0.7227445E+05  0.6155858E+05  0.1352455E-01  0.1831055E-02
  0.1411905E+01  0.2291134E-02 -0.7324219E-02  0.7103277E+05  0.6152168E+05 -0.4928100E-02 -0.1342773E-02
  0.1442857E+01  0.1345191E-01 -0.5493164E-03  0.6985909E+05  0.6145330E+05  0.1666683E-01  0.1708984E-02
  0.1473810E+01 -0.3064576E-02  0.3234863E-02  0.6879817E+05  0.6127834E+05 -0.9028075E-02  0.7324219E-03
  0.1504762E+01  0.1095156E-02  0.1892090E-02  0.6783960E+05  0.6101602E+05  0.1622453E-03  0.7568359E-02
  0.1535714E+01 -0.6359011E-03  0.3662109E-02  0.6696550E+05  0.6068280E+05  0.5882085E-02  0.4882812E-03
  0.1566667E+01 -0.1012924E-02 -0.5249023E-02  0.6621521E+05  0.6027674E+05  0.1402510E-02 -0.1220703E-02
  0.1597619E+01 -0.3858586E-02 -0.2319336E-02  0.6555733E+05  0.5980342E+05  0.6418242E-02  0.4394531E-02
  0.1628572E+01  0.5246881E-02 -0.3540039E-02  0.6501480E+05  0.5929487E+05 -0.1379180E-01  0.2441406E-03
  0.1659524E+01 -0.1029804E-02 -0.2319336E-02  0.6454291E+05  0.5880976E+05 -0.4634118E-02 -0.2685547E-02
  0.1690476E+01 -0.5740743E-02 -0.6774902E-02  0.6418327E+05  0.5831941E+05 -0.2021897E-02  0.2929688E-02
  0.1721429E+01  0.4041996E-02  0.1159668E-02  0.6391477E+05  0.5783863E+05 -0.4325645E-02 -0.5371094E-02
  0.1752381E+01 -0.2333600E-02 -0.5065918E-02  0.6371275E+05  0.5743132E+05 -0.4318901E-02  0.9765625E-03
  0.1783333E+01  0.7871824E-03 -0.2075195E-02  0.6358294E+05  0.5708048E+05  0.8624781E-02 -0.2685547E-02
  0.1814286E+01 -0.1379299E-02 -0.6835938E-02  0.6350318E+05  0.5686195E+05  0.9419599E-03  0.4882812E-03
  0.1845238E+01  0.4432334E-02 -0.1165771E-01  0.6346600E+05  0.5673907E+05 -0.3836946E-02 -0.1220703E-02
  0.1876190E+01  0.1463914E-02 -0.8117676E-02  0.6345203E+05  0.5677026E+05 -0.6766537E-02 -0.0000000E+00
  0.1907143E+01  0.6304680E-02  0.1342773E-02  0.6342589E+05  0.5694125E+05  0.2560276E-03 -0.1953125E-02
  0.1938095E+01 -0.1080187E-01 -0.1129150E-01  0.6338713E+05  0.5726074E+05  0.8880841E-02 -0.9277344E-02
  0.1969048E+01 -0.6819406E-03 -0.3295898E-02  0.6331489E+05  0.5768307E+05  0.9795147E-02 -0.8300781E-02
  0.2000000E+01  0.2136230E-02  0.9460449E-02  0.6320660E+05  0.5821042E+05  0.7873535E-02  0.5859375E-02
Zone t="Motion of body    1 in DoF   3",I=    64,F=POINT
  0.5000000E-01 -0.3637046E+05  0.1467237E-02 -0.1293182E-01 -0.5822647E-04  0.2904748E+06  0.5007295E-03
  0.8095238E-01 -0.3681734E+05  0.6485112E-02 -0.5560482E-02 -0.2147546E-04  0.2907038E+06  0.1138990E-02
  0.1119048E+00 -0.3690367E+05  0.1833312E-01 -0.4717888E-01 -0.3818140E-03  0.2904762E+06  0.2483650E-02
  0.1428571E+00 -0.3657555E+05  0.4203421E-01 -0.1292419E-01 -0.8728917E-04  0.2911578E+06  0.4758657E-02
  0.1738095E+00 -0.3676227E+05  0.8463411E-01 -0.7857231E-02 -0.6592931E-04  0.2906760E+06  0.1034795E-01
  0.2047619E+00 -0.3647877E+05  0.1581425E+00  0.3796777E-01  0.5833874E-03  0.2912417E+06  0.2186348E-01
  0.2357143E+00 -0.3647339E+05  0.2829600E+00 -0.3275553E-01 -0.6116116E-03  0.2909315E+06  0.4000117E-01
  0.2666667E+00 -0.3645973E+05  0.4920587E+00  0.2655029E-01  0.2505393E-03  0.2909173E+06  0.6908149E-01
  0.2976190E+00 -0.3609448E+05  0.8413160E+00 -0.3752930E-01 -0.1303345E-02  0.2915257E+06  0.1202104E+00
  0.3285715E+00 -0.3604106E+05  0.1423285E+01 -0.9473717E-02 -0.3276328E-03  0.2912482E+06  0.2100699E+00
  0.3595238E+00 -0.3602823E+05  0.2389483E+01 -0.2504058E-01 -0.1519870E-02  0.2910493E+06  0.3627416E+00
  0.3904762E+00 -0.3574721E+05  0.3994157E+01  0.1680327E-02 -0.1562741E-03  0.2915448E+06  0.6284827E+00
  0.4214286E+00 -0.3530669E+05  0.6592301E+01 -0.2172437E-01 -0.1685478E-02  0.2920583E+06  0.1072270E+01
  0.4523810E+00 -0.3530770E+05  0.1078612E+02  0.4722193E-01  0.3147185E-02  0.2915822E+06  0.1822655E+01
  0.4833333E+00 -0.3504918E+05  0.1723872E+02  0.1982590E-01  0.1522332E-02  0.2920125E+06  0.3020689E+01
  0.5142857E+00 -0.3462836E+05  0.2708225E+02 -0.1341078E-01 -0.2222314E-02  0.2925558E+06  0.4931277E+01
  0.5452381E+00 -0.3429674E+05  0.4162637E+02  0.2552282E-01  0.2838939E-02  0.2926162E+06  0.7909268E+01
  0.5761905E+00 -0.3415307E+05  0.6252472E+02 -0.7462682E-01 -0.1131320E-01  0.2923905E+06  0.1231127E+02
  0.6071429E+00 -0.3386645E+05  0.9200873E+02 -0.2543371E-01 -0.4017770E-02  0.2926563E+06  0.1889291E+02
  0.6380953E+00 -0.3337796E+05  0.1325100E+03 -0.3730432E-02 -0.1702666E-02  0.2932968E+06  0.2816714E+02
  0.6690477E+00 -0.3280665E+05  0.1876994E+03 -0.1382088E-01 -0.1229048E-02  0.2938008E+06  0.4167893E+02
  0.7000000E+00 -0.3249640E+05  0.2620944E+03  0.3727504E-01  0.1183319E-01  0.2936501E+06  0.6064554E+02
  0.7309524E+00 -0.3220001E+05  0.3601653E+03  0.1778568E-01  0.2891064E-02  0.2935822E+06  0.8623318E+02
  0.7619048E+00 -0.3169798E+05  0.4872928E+03 -0.1117515E-01 -0.3010511E-02  0.2941408E+06  0.1209624E+03
  0.7928572E+00 -0.3109206E+05  0.6510594E+03 -0.2170872E-01 -0.1018047E-01  0.2947454E+06  0.1678988E+03
  0.8238096E+00 -0.3040964E+05  0.8595229E+03  0.2185623E-01  0.9082794E-02  0.2953342E+06  0.2309617E+03
  0.8547620E+00 -0.2974399E+05  0.1123149E+04 -0.1920822E-01 -0.7920265E-02  0.2957521E+06  0.3145796E+03
  0.8857143E+00 -0.2918276E+05  0.1452962E+04 -0.1447124E-02 -0.3040314E-02  0.2958994E+06  0.4233692E+03
  0.9166667E+00 -0.2865595E+05  0.1859480E+04  0.3968395E-01  0.1877308E-01  0.2960507E+06  0.5612451E+03
  0.9476191E+00 -0.2800516E+05  0.2350636E+04 -0.1474965E-01 -0.1362228E-01  0.2965704E+06  0.7338217E+03
  0.9785714E+00 -0.2726678E+05  0.2941740E+04  0.1185062E-01  0.6151199E-02  0.2972939E+06  0.9497668E+03
  0.1009524E+01 -0.2646501E+05  0.3645677E+04 -0.3669883E-01 -0.2998543E-01  0.2981636E+06  0.1220796E+04
  0.1040476E+01 -0.2564901E+05  0.4481976E+04  0.4810185E-02  0.6557465E-02  0.2988313E+06  0.1558967E+04
  0.1071429E+01 -0.2491912E+05  0.5464551E+04  0.2534994E-01  0.2905655E-01  0.2994167E+06  0.1975669E+04
  0.1102381E+01 -0.2430624E+05  0.6610629E+04  0.3931033E-02 -0.1750946E-02  0.2997882E+06  0.2483512E+04
  0.1133333E+01 -0.2372827E+05  0.7927609E+04  0.2962000E-02  0.2265930E-02  0.3001356E+06  0.3088911E+04
  0.1164286E+01 -0.2320832E+05  0.9414179E+04  0.1032730E-01  0.1320648E-01  0.3006214E+06  0.3793786E+04
  0.1195238E+01 -0.2268619E+05  0.1107525E+05 -0.4953331E-02 -0.3677368E-02  0.3012078E+06  0.4609398E+04
  0.1226190E+01 -0.2227957E+05  0.1291712E+05 -0.9955249E-02 -0.2136230E-02  0.3018385E+06  0.5546608E+04
  0.1257143E+01 -0.2194897E+05  0.1495660E+05 -0.1485651E-01 -0.2334595E-02  0.3024298E+06  0.6634029E+04
  0.1288095E+01 -0.2165947E+05  0.1713894E+05  0.7913135E-02  0.1586914E-02  0.3030333E+06  0.7845667E+04
  0.1319048E+01 -0.2148279E+05  0.1949992E+05  0.1388164E-03 -0.3326416E-02  0.3036041E+06  0.9202171E+04
  0.1350000E+01 -0.2143615E+05  0.2200989E+05  0.9042245E-04  0.1022339E-02  0.3041418E+06  0.1069781E+05
  0.1380952E+01 -0.2149083E+05  0.2466357E+05  0.6099307E-02 -0.5661011E-02  0.3044510E+06  0.1233296E+05
  0.1411905E+01 -0.2360875E+05  0.2621496E+05  0.5101016E-02 -0.3219604E-02  0.3026116E+06  0.1347332E+05
  0.1442857E+01 -0.2391641E+05  0.2897337E+05  0.8206509E-02  0.2044678E-01  0.3028335E+06  0.1532678E+05
  0.1473810E+01 -0.2437884E+05  0.3181432E+05 -0.1167852E-01 -0.2188110E-01  0.3029966E+06  0.1729419E+05
  0.1504762E+01 -0.2491154E+05  0.3469021E+05  0.5840832E-02 -0.2441406E-03  0.3031494E+06  0.1937851E+05
  0.1535714E+01 -0.2557074E+05  0.3756992E+05  0.6994912E-02  0.2648926E-01  0.3032367E+06  0.2154204E+05
  0.1566667E+01 -0.2634153E+05  0.4045535E+05  0.1316801E-01  0.1278687E-01  0.3032794E+06  0.2382642E+05
  0.1597619E+01 -0.2715826E+05  0.4334252E+05 -0.6571058E-02 -0.1721191E-01  0.3031575E+06  0.2619121E+05
  0.1628572E+01 -0.2813799E+05  0.4617305E+05 -0.1041881E-01 -0.5218506E-02  0.3030417E+06  0.2861585E+05
  0.1659524E+01 -0.2912934E+05  0.4892089E+05  0.1022448E-01  0.2496338E-01  0.3028320E+06  0.3108285E+05
  0.1690476E+01 -0.3021717E+05  0.5159866E+05  0.5849059E-02 -0.1403809E-02  0.3025955E+06  0.3358799E+05
  0.1721429E+01 -0.3132453E+05  0.5423862E+05 -0.6949397E-02  0.1647949E-02  0.3021826E+06  0.3611376E+05
  0.1752381E+01 -0.3249485E+05  0.5673295E+05  0.1253875E-02 -0.2282715E-01  0.3018092E+06  0.3867255E+05
  0.1783333E+01 -0.3369729E+05  0.5912719E+05 -0.5065348E-02  0.9338379E-02  0.3013669E+06  0.4123380E+05
  0.1814286E+01 -0.3489861E+05  0.6142830E+05  0.1816637E-02 -0.9094238E-02  0.3008795E+06  0.4381906E+05
  0.1845238E+01 -0.3608847E+05  0.6367216E+05 -0.1210622E-01  0.4577637E-02  0.3002203E+06  0.4634153E+05
  0.1876190E+01 -0.3736137E+05  0.6575297E+05  0.5205029E-03  0.7995605E-02  0.2996393E+06  0.4892430E+05
  0.1907143E+01 -0.3858586E+05  0.6772994E+05  0.1075316E-01  0.1074219E-01  0.2989688E+06  0.5145279E+05
  0.1938095E+01 -0.3983224E+05  0.6957117E+05 -0.5794591E-02  0.3662109E-03  0.2983144E+06  0.5400538E+05
  0.1969048E+01 -0.4106747E+05  0.7134998E+05  0.8369271E-02 -0.1098633E-01  0.2975624E+06  0.5645209E+05
  0.2000000E+01 -0.4225807E+05  0.7304466E+05  0.3112793E-02 -0.3784180E-02  0.2967911E+06  0.5882005E+05
