VARIABLES="w (rad/s)"
"abs(F   1   1)" "angle(F   1   1)"
"abs(F   1   2)" "angle(F   1   2)"
"abs(F   1   3)" "angle(F   1   3)"
Zone t="Diffraction force - beta =   0.000 deg",I=    64,F=POINT
  0.5000000E-01  0.1581896E+04 -0.1570781E+01  0.1479959E+06 -0.1097707E-04  0.2819136E+04  0.1570801E+01
  0.8095238E-01  0.2587571E+04 -0.1570795E+01  0.1477613E+06 -0.2954008E-04  0.4606340E+04  0.1570806E+01
  0.1119048E+00  0.3612040E+04 -0.1570796E+01  0.1474162E+06 -0.5868019E-04  0.6424640E+04  0.1570796E+01
  0.1428571E+00  0.4671741E+04 -0.1570795E+01  0.1469608E+06 -0.1006857E-03  0.8295140E+04  0.1570790E+01
  0.1738095E+00  0.5770115E+04 -0.1570798E+01  0.1463943E+06 -0.1589677E-03  0.1023610E+05  0.1570796E+01
  0.2047619E+00  0.6929640E+04 -0.1570786E+01  0.1457171E+06 -0.2385000E-03  0.1226841E+05  0.1570805E+01
  0.2357143E+00  0.8157659E+04 -0.1570784E+01  0.1449285E+06 -0.3466517E-03  0.1441754E+05  0.1570809E+01
  0.2666667E+00  0.9470033E+04 -0.1570774E+01  0.1440278E+06 -0.4923801E-03  0.1671000E+05  0.1570813E+01
  0.2976190E+00  0.1089460E+05 -0.1570766E+01  0.1430167E+06 -0.6910158E-03  0.1917510E+05  0.1570830E+01
  0.3285715E+00  0.1244989E+05 -0.1570751E+01  0.1418935E+06 -0.9581631E-03  0.2185113E+05  0.1570845E+01
  0.3595238E+00  0.1414497E+05 -0.1570726E+01  0.1406607E+06 -0.1318849E-02  0.2477080E+05  0.1570865E+01
  0.3904762E+00  0.1601704E+05 -0.1570690E+01  0.1393199E+06 -0.1801002E-02  0.2796323E+05  0.1570902E+01
  0.4214286E+00  0.1809063E+05 -0.1570638E+01  0.1378784E+06 -0.2424246E-02  0.3146875E+05  0.1570954E+01
  0.4523810E+00  0.2035610E+05 -0.1570563E+01  0.1363338E+06 -0.3237238E-02  0.3528445E+05  0.1571030E+01
  0.4833333E+00  0.2281268E+05 -0.1570456E+01  0.1346980E+06 -0.4222047E-02  0.3941223E+05  0.1571137E+01
  0.5142857E+00  0.2548496E+05 -0.1570310E+01  0.1329770E+06 -0.5437044E-02  0.4383365E+05  0.1571282E+01
  0.5452381E+00  0.2834625E+05 -0.1570116E+01  0.1311718E+06 -0.6868007E-02  0.4852511E+05  0.1571478E+01
  0.5761905E+00  0.3134217E+05 -0.1569862E+01  0.1292882E+06 -0.8523254E-02  0.5343003E+05  0.1571731E+01
  0.6071429E+00  0.3447840E+05 -0.1569533E+01  0.1273305E+06 -0.1045376E-01  0.5852127E+05  0.1572058E+01
  0.6380953E+00  0.3777008E+05 -0.1569123E+01  0.1253022E+06 -0.1262320E-01  0.6376716E+05  0.1572468E+01
  0.6690477E+00  0.4118313E+05 -0.1568613E+01  0.1232132E+06 -0.1508031E-01  0.6913935E+05  0.1572979E+01
  0.7000000E+00  0.4469214E+05 -0.1567985E+01  0.1210636E+06 -0.1785858E-01  0.7461005E+05  0.1573607E+01
  0.7309524E+00  0.4829140E+05 -0.1567224E+01  0.1188507E+06 -0.2094673E-01  0.8017032E+05  0.1574367E+01
  0.7619048E+00  0.5195098E+05 -0.1566311E+01  0.1165897E+06 -0.2438083E-01  0.8576534E+05  0.1575281E+01
  0.7928572E+00  0.5571638E+05 -0.1565224E+01  0.1142877E+06 -0.2818520E-01  0.9139497E+05  0.1576367E+01
  0.8238096E+00  0.5958627E+05 -0.1563943E+01  0.1119468E+06 -0.3237341E-01  0.9704895E+05  0.1577647E+01
  0.8547620E+00  0.6350699E+05 -0.1562446E+01  0.1095719E+06 -0.3695763E-01  0.1027121E+06  0.1579144E+01
  0.8857143E+00  0.6746429E+05 -0.1560709E+01  0.1071642E+06 -0.4195981E-01  0.1083502E+06  0.1580880E+01
  0.9166667E+00  0.7144925E+05 -0.1558709E+01  0.1047282E+06 -0.4739732E-01  0.1139341E+06  0.1582877E+01
  0.9476191E+00  0.7547190E+05 -0.1556425E+01  0.1022701E+06 -0.5328795E-01  0.1194601E+06  0.1585159E+01
  0.9785714E+00  0.7953548E+05 -0.1553835E+01  0.9980071E+05 -0.5965115E-01  0.1249171E+06  0.1587745E+01
  0.1009524E+01  0.8360919E+05 -0.1550918E+01  0.9732856E+05 -0.6650620E-01  0.1302243E+06  0.1590659E+01
  0.1040476E+01  0.8772630E+05 -0.1547651E+01  0.9485040E+05 -0.7385857E-01  0.1354490E+06  0.1593921E+01
  0.1071429E+01  0.9182123E+05 -0.1544014E+01  0.9237051E+05 -0.8172215E-01  0.1405144E+06  0.1597553E+01
  0.1102381E+01  0.9589507E+05 -0.1539989E+01  0.8988503E+05 -0.9012301E-01  0.1454127E+06  0.1601569E+01
  0.1133333E+01  0.9991734E+05 -0.1535561E+01  0.8740405E+05 -0.9907653E-01  0.1501476E+06  0.1605987E+01
  0.1164286E+01  0.1038488E+06 -0.1530718E+01  0.8493049E+05 -0.1086089E+00  0.1546240E+06  0.1610815E+01
  0.1195238E+01  0.1077428E+06 -0.1525461E+01  0.8246608E+05 -0.1187355E+00  0.1589017E+06  0.1616054E+01
  0.1226190E+01  0.1115350E+06 -0.1519789E+01  0.8002049E+05 -0.1294923E+00  0.1628658E+06  0.1621704E+01
  0.1257143E+01  0.1152260E+06 -0.1513715E+01  0.7759892E+05 -0.1409702E+00  0.1665209E+06  0.1627756E+01
  0.1288095E+01  0.1189150E+06 -0.1507233E+01  0.7519267E+05 -0.1529455E+00  0.1699624E+06  0.1634212E+01
  0.1319048E+01  0.1224066E+06 -0.1500356E+01  0.7281791E+05 -0.1656724E+00  0.1730352E+06  0.1641060E+01
  0.1350000E+01  0.1257395E+06 -0.1493102E+01  0.7046562E+05 -0.1790868E+00  0.1757698E+06  0.1648280E+01
  0.1380952E+01  0.1289188E+06 -0.1485503E+01  0.6812839E+05 -0.1932397E+00  0.1781678E+06  0.1655833E+01
  0.1411905E+01  0.1316010E+06 -0.1477971E+01  0.6581707E+05 -0.2085123E+00  0.1799830E+06  0.1663307E+01
  0.1442857E+01  0.1343314E+06 -0.1469843E+01  0.6352919E+05 -0.2243116E+00  0.1815622E+06  0.1671363E+01
  0.1473810E+01  0.1368247E+06 -0.1461526E+01  0.6126798E+05 -0.2409844E+00  0.1826999E+06  0.1679583E+01
  0.1504762E+01  0.1390724E+06 -0.1453054E+01  0.5903829E+05 -0.2586139E+00  0.1834721E+06  0.1687952E+01
  0.1535714E+01  0.1410046E+06 -0.1444554E+01  0.5685462E+05 -0.2772337E+00  0.1836776E+06  0.1696319E+01
  0.1566667E+01  0.1427177E+06 -0.1436067E+01  0.5470114E+05 -0.2969354E+00  0.1835319E+06  0.1704673E+01
  0.1597619E+01  0.1441638E+06 -0.1427696E+01  0.5258370E+05 -0.3177613E+00  0.1829427E+06  0.1712893E+01
  0.1628572E+01  0.1452878E+06 -0.1419510E+01  0.5050787E+05 -0.3397754E+00  0.1818862E+06  0.1720907E+01
  0.1659524E+01  0.1461434E+06 -0.1411594E+01  0.4845891E+05 -0.3630909E+00  0.1804591E+06  0.1728638E+01
  0.1690476E+01  0.1466945E+06 -0.1404074E+01  0.4644076E+05 -0.3878154E+00  0.1786051E+06  0.1735936E+01
  0.1721429E+01  0.1469382E+06 -0.1396993E+01  0.4446309E+05 -0.4141837E+00  0.1764052E+06  0.1742782E+01
  0.1752381E+01  0.1468644E+06 -0.1390506E+01  0.4252595E+05 -0.4424076E+00  0.1738116E+06  0.1749009E+01
  0.1783333E+01  0.1464758E+06 -0.1384715E+01  0.4063666E+05 -0.4726030E+00  0.1708388E+06  0.1754509E+01
  0.1814286E+01  0.1458463E+06 -0.1379676E+01  0.3878379E+05 -0.5051047E+00  0.1676259E+06  0.1759260E+01
  0.1845238E+01  0.1449416E+06 -0.1375544E+01  0.3697553E+05 -0.5401549E+00  0.1640966E+06  0.1763062E+01
  0.1876190E+01  0.1437520E+06 -0.1372377E+01  0.3522873E+05 -0.5779033E+00  0.1602851E+06  0.1765871E+01
  0.1907143E+01  0.1423516E+06 -0.1370231E+01  0.3352631E+05 -0.6189075E+00  0.1563048E+06  0.1767662E+01
  0.1938095E+01  0.1407232E+06 -0.1369234E+01  0.3188105E+05 -0.6634946E+00  0.1521210E+06  0.1768268E+01
  0.1969048E+01  0.1389024E+06 -0.1369432E+01  0.3030146E+05 -0.7120988E+00  0.1477996E+06  0.1767636E+01
  0.2000000E+01  0.1369029E+06 -0.1370806E+01  0.2881359E+05 -0.7654136E+00  0.1434185E+06  0.1765946E+01
