VARIABLES="w (rad/s)"
"A   1   1" "B   1   1"
"A   1   2" "B   1   2"
"A   1   3" "B   1   3"
Zone t="Motion of body    1 in DoF   1",I=    64,F=POINT
  0.5000000E-01  0.5695404E+05  0.1927334E-02  0.2288818E-02  0.2849946E-05 -0.1201191E+06 -0.3451160E-02
  0.8095238E-01  0.5739349E+05  0.8324769E-02 -0.4841860E-02 -0.2294371E-04 -0.1207875E+06 -0.1490074E-01
  0.1119048E+00  0.5749200E+05  0.2340035E-01 -0.2181682E-02 -0.4223475E-05 -0.1209311E+06 -0.4167335E-01
  0.1428571E+00  0.5761977E+05  0.5236369E-01 -0.2977371E-02 -0.1665842E-04 -0.1210068E+06 -0.9276575E-01
  0.1738095E+00  0.5762868E+05  0.1042426E+00 -0.6748878E-02 -0.5747305E-04 -0.1210582E+06 -0.1847256E+00
  0.2047619E+00  0.5772328E+05  0.1925545E+00 -0.3595574E-02 -0.4914362E-04 -0.1211040E+06 -0.3407920E+00
  0.2357143E+00  0.5777899E+05  0.3385156E+00  0.2128138E-02  0.3059127E-04 -0.1211704E+06 -0.5983130E+00
  0.2666667E+00  0.5780365E+05  0.5763593E+00  0.4906654E-02 -0.3569096E-04 -0.1212431E+06 -0.1016851E+01
  0.2976190E+00  0.5789190E+05  0.9650762E+00  0.2435303E-03 -0.9644171E-04 -0.1213058E+06 -0.1698598E+01
  0.3285715E+00  0.5800223E+05  0.1594382E+01 -0.6594450E-02 -0.6802520E-04 -0.1213987E+06 -0.2798405E+01
  0.3595238E+00  0.5803431E+05  0.2611692E+01 -0.4063789E-02 -0.1525255E-03 -0.1214955E+06 -0.4574080E+01
  0.3904762E+00  0.5811680E+05  0.4247071E+01 -0.7766630E-02 -0.2521481E-03 -0.1215735E+06 -0.7414334E+01
  0.4214286E+00  0.5827641E+05  0.6819519E+01  0.4525912E-02  0.1845360E-03 -0.1217256E+06 -0.1185950E+02
  0.4523810E+00  0.5839163E+05  0.1084834E+02  0.8010864E-03  0.4959479E-04 -0.1218567E+06 -0.1880276E+02
  0.4833333E+00  0.5847132E+05  0.1682071E+02 -0.3472690E-02 -0.1440272E-03 -0.1220048E+06 -0.2905534E+02
  0.5142857E+00  0.5865916E+05  0.2567873E+02 -0.1008776E-02 -0.9201467E-05 -0.1221789E+06 -0.4416268E+02
  0.5452381E+00  0.5888644E+05  0.3827281E+02  0.1903018E-02  0.3945827E-04 -0.1224072E+06 -0.6551196E+02
  0.5761905E+00  0.5902705E+05  0.5564344E+02  0.1774307E-02  0.1311302E-04 -0.1226177E+06 -0.9484439E+02
  0.6071429E+00  0.5917645E+05  0.7940922E+02 -0.6195068E-02 -0.8419752E-03 -0.1228496E+06 -0.1347679E+03
  0.6380953E+00  0.5941788E+05  0.1108949E+03 -0.2749998E-03 -0.2833903E-03 -0.1231051E+06 -0.1871965E+03
  0.6690477E+00  0.5968266E+05  0.1522190E+03 -0.6990263E-02 -0.1573563E-02 -0.1233852E+06 -0.2555048E+03
  0.7000000E+00  0.5993659E+05  0.2057717E+03 -0.1362392E-01 -0.2982378E-02 -0.1236832E+06 -0.3434601E+03
  0.7309524E+00  0.6019480E+05  0.2738250E+03 -0.9967915E-02 -0.2790093E-02 -0.1240269E+06 -0.4544894E+03
  0.7619048E+00  0.6041687E+05  0.3593998E+03 -0.5757808E-02 -0.1530766E-02 -0.1243441E+06 -0.5931708E+03
  0.7928572E+00  0.6071093E+05  0.4662399E+03 -0.3310195E-02 -0.2117634E-02 -0.1246791E+06 -0.7645660E+03
  0.8238096E+00  0.6107830E+05  0.5983342E+03 -0.7112536E-02 -0.2340317E-02 -0.1250455E+06 -0.9741883E+03
  0.8547620E+00  0.6143725E+05  0.7595743E+03 -0.6248028E-02 -0.2077818E-02 -0.1254464E+06 -0.1228021E+04
  0.8857143E+00  0.6178147E+05  0.9546256E+03 -0.4375827E-02 -0.9829998E-03 -0.1258538E+06 -0.1532482E+04
  0.9166667E+00  0.6211393E+05  0.1188442E+04 -0.2829812E-02 -0.1811981E-04 -0.1262526E+06 -0.1894112E+04
  0.9476191E+00  0.6246428E+05  0.1466678E+04  0.2302620E-02  0.1262665E-02 -0.1266647E+06 -0.2320065E+04
  0.9785714E+00  0.6284686E+05  0.1795440E+04  0.2027080E-02  0.2171993E-02 -0.1270968E+06 -0.2817838E+04
  0.1009524E+01  0.6322759E+05  0.2180527E+04 -0.3022968E-03  0.1161575E-02 -0.1274676E+06 -0.3393473E+04
  0.1040476E+01  0.6366166E+05  0.2629767E+04 -0.2141119E-02 -0.2378464E-02 -0.1278830E+06 -0.4056680E+04
  0.1071429E+01  0.6407728E+05  0.3148774E+04  0.1438395E-02 -0.1724243E-02 -0.1282703E+06 -0.4813756E+04
  0.1102381E+01  0.6448827E+05  0.3744582E+04  0.5149100E-02  0.2531052E-02 -0.1286380E+06 -0.5671750E+04
  0.1133333E+01  0.6487575E+05  0.4423708E+04  0.1144409E-02 -0.1111984E-02 -0.1290106E+06 -0.6639008E+04
  0.1164286E+01  0.6520761E+05  0.5190969E+04 -0.6290739E-03 -0.6046295E-03 -0.1293023E+06 -0.7717488E+04
  0.1195238E+01  0.6555315E+05  0.6054936E+04 -0.6383158E-04  0.2670288E-03 -0.1295891E+06 -0.8914566E+04
  0.1226190E+01  0.6585423E+05  0.7018403E+04 -0.2351928E-02 -0.1564026E-02 -0.1297775E+06 -0.1022844E+05
  0.1257143E+01  0.6612406E+05  0.8085572E+04 -0.6918474E-03 -0.2555847E-03 -0.1298855E+06 -0.1165982E+05
  0.1288095E+01  0.6646250E+05  0.9271055E+04 -0.3186577E-02  0.2719879E-02 -0.1300110E+06 -0.1321964E+05
  0.1319048E+01  0.6670030E+05  0.1056502E+05  0.3909996E-02  0.4329681E-02 -0.1300280E+06 -0.1489670E+05
  0.1350000E+01  0.6688465E+05  0.1197325E+05 -0.1141583E-02  0.1602173E-03 -0.1299747E+06 -0.1669091E+05
  0.1380952E+01  0.6702931E+05  0.1349684E+05  0.1502728E-02 -0.1846313E-02 -0.1298575E+06 -0.1859560E+05
  0.1411905E+01  0.6688823E+05  0.1504733E+05  0.3307014E-02  0.3410339E-02 -0.1295075E+06 -0.2050864E+05
  0.1442857E+01  0.6686943E+05  0.1677354E+05  0.4864683E-03 -0.9155273E-04 -0.1291812E+06 -0.2258297E+05
  0.1473810E+01  0.6676846E+05  0.1859325E+05  0.9110902E-03  0.8621216E-03 -0.1287276E+06 -0.2471640E+05
  0.1504762E+01  0.6659451E+05  0.2050378E+05  0.1399366E-02 -0.1449585E-02 -0.1282264E+06 -0.2691435E+05
  0.1535714E+01  0.6629025E+05  0.2247455E+05 -0.2245526E-02 -0.2784729E-02 -0.1275130E+06 -0.2910877E+05
  0.1566667E+01  0.6594945E+05  0.2451527E+05  0.7791722E-04 -0.2708435E-02 -0.1267688E+06 -0.3132590E+05
  0.1597619E+01  0.6553634E+05  0.2660144E+05  0.2330433E-02 -0.2685547E-02 -0.1259172E+06 -0.3351875E+05
  0.1628572E+01  0.6501646E+05  0.2871156E+05  0.1536587E-02 -0.3402710E-02 -0.1249466E+06 -0.3566248E+05
  0.1659524E+01  0.6443981E+05  0.3084006E+05  0.2648068E-02  0.1815796E-02 -0.1239279E+06 -0.3775271E+05
  0.1690476E+01  0.6378104E+05  0.3295579E+05  0.1444212E-02  0.7934570E-03 -0.1228151E+06 -0.3974048E+05
  0.1721429E+01  0.6304699E+05  0.3505013E+05 -0.1648709E-02 -0.3005981E-02 -0.1216667E+06 -0.4163439E+05
  0.1752381E+01  0.6223065E+05  0.3709101E+05 -0.7836716E-03  0.2166748E-02 -0.1204471E+06 -0.4338555E+05
  0.1783333E+01  0.6133522E+05  0.3905762E+05  0.1197886E-02  0.1724243E-02 -0.1191576E+06 -0.4496844E+05
  0.1814286E+01  0.6042077E+05  0.4095787E+05  0.1715713E-02  0.1525879E-02 -0.1178906E+06 -0.4641140E+05
  0.1845238E+01  0.5945651E+05  0.4275146E+05  0.4630797E-02 -0.5493164E-03 -0.1165813E+06 -0.4765138E+05
  0.1876190E+01  0.5843408E+05  0.4442530E+05 -0.3155549E-02 -0.6408691E-03 -0.1152438E+06 -0.4868769E+05
  0.1907143E+01  0.5740887E+05  0.4599072E+05  0.2576278E-02  0.2288818E-03 -0.1139490E+06 -0.4955218E+05
  0.1938095E+01  0.5636072E+05  0.4741780E+05  0.2566626E-02 -0.5187988E-03 -0.1126582E+06 -0.5020223E+05
  0.1969048E+01  0.5531117E+05  0.4870752E+05 -0.2789757E-03  0.2319336E-02 -0.1113978E+06 -0.5064276E+05
  0.2000000E+01  0.5426870E+05  0.4988208E+05  0.3616333E-02 -0.1220703E-02 -0.1102275E+06 -0.5096831E+05
Zone t="Motion of body    1 in DoF   2",I=    64,F=POINT
  0.5000000E-01 -0.1182556E-02 -0.5751848E-05  0.1509149E+05  0.3241477E+02 -0.2565384E-02 -0.1788139E-06
  0.8095238E-01  0.1107384E-02 -0.9357929E-05  0.1497130E+05  0.5378723E+02  0.4959667E-02 -0.1698732E-04
  0.1119048E+00  0.1891928E-02 -0.1311302E-05  0.1490230E+05  0.7710804E+02  0.4090654E-02  0.4345179E-04
  0.1428571E+00 -0.1962662E-02  0.7510185E-05  0.1486973E+05  0.1033077E+03  0.1659584E-01  0.2467632E-04
  0.1738095E+00 -0.2041124E-02 -0.2431870E-04  0.1487599E+05  0.1335250E+03 -0.8888767E-02  0.4100800E-04
  0.2047619E+00  0.9314958E-04  0.4768372E-04  0.1490059E+05  0.1692290E+03  0.1634775E-01  0.2479553E-04
  0.2357143E+00  0.2346617E-02 -0.4339218E-04  0.1494405E+05  0.2124646E+03 -0.1153079E-01  0.7116795E-04
  0.2666667E+00 -0.3247261E-02 -0.1335144E-04  0.1501244E+05  0.2650232E+03  0.6008148E-03  0.1232624E-03
  0.2976190E+00  0.1640625E-02 -0.5722046E-05  0.1507981E+05  0.3308049E+03 -0.5895996E-02  0.2410412E-03
  0.3285715E+00 -0.6013953E-02  0.8583069E-05  0.1516784E+05  0.4120473E+03  0.1625393E-02  0.1649857E-03
  0.3595238E+00 -0.1931096E-02 -0.1811981E-04  0.1525462E+05  0.5135571E+03 -0.4371491E-02 -0.2193451E-03
  0.3904762E+00 -0.1172321E-03 -0.9536743E-05  0.1533717E+05  0.6391505E+03  0.1585565E-01 -0.3275871E-03
  0.4214286E+00  0.4507808E-02 -0.1554489E-03  0.1538766E+05  0.7882792E+03 -0.1506223E-01  0.6914139E-03
  0.4523810E+00 -0.4671598E-02 -0.1592636E-03  0.1543627E+05  0.9687548E+03 -0.5919606E-02 -0.5502701E-03
  0.4833333E+00  0.2683442E-03  0.6065369E-03  0.1544464E+05  0.1167075E+04  0.1600594E-01 -0.8783340E-03
  0.5142857E+00  0.1335144E-03  0.1888275E-03  0.1541085E+05  0.1392678E+04 -0.4658170E-02 -0.1897812E-03
  0.5452381E+00  0.2658628E-03 -0.2632141E-03  0.1535396E+05  0.1634455E+04 -0.4421717E-02  0.1005173E-02
  0.5761905E+00 -0.2436362E-02 -0.5378723E-03  0.1526992E+05  0.1888733E+04 -0.3972329E-03  0.1029968E-02
  0.6071429E+00 -0.3443100E-02  0.1525879E-03  0.1516188E+05  0.2161226E+04 -0.6911333E-03 -0.6446838E-03
  0.6380953E+00 -0.4160867E-02 -0.2174377E-03  0.1503681E+05  0.2438591E+04  0.1910651E-01 -0.3967285E-03
  0.6690477E+00  0.1049110E-02 -0.9536743E-04  0.1488368E+05  0.2726045E+04  0.5245548E-03  0.1104355E-02
  0.7000000E+00 -0.2790178E-02  0.2708435E-03  0.1471446E+05  0.3024316E+04  0.5242484E-02 -0.1874924E-02
  0.7309524E+00  0.4175043E-03 -0.2593994E-03  0.1454430E+05  0.3326092E+04 -0.4175043E-03  0.6675720E-03
  0.7619048E+00  0.4806518E-03  0.9307861E-03  0.1435544E+05  0.3632898E+04  0.2253055E-02 -0.5474091E-02
  0.7928572E+00 -0.7120767E-03 -0.9918213E-04  0.1414749E+05  0.3943698E+04 -0.4253215E-02  0.4425049E-03
  0.8238096E+00 -0.2630156E-02  0.1220703E-03  0.1392774E+05  0.4255771E+04  0.3880407E-02 -0.1647949E-02
  0.8547620E+00 -0.2088626E-02 -0.4577637E-03  0.1369803E+05  0.4566475E+04  0.1784258E-01 -0.3322601E-02
  0.8857143E+00 -0.1757222E-02  0.3814697E-03  0.1346300E+05  0.4874430E+04  0.1723628E-01 -0.2883911E-02
  0.9166667E+00  0.3479004E-02  0.1358032E-02  0.1322388E+05  0.5177706E+04 -0.2596768E-02 -0.1476288E-02
  0.9476191E+00  0.2995017E-02  0.3585815E-03  0.1297991E+05  0.5474631E+04 -0.1198007E-01  0.3181458E-02
  0.9785714E+00 -0.6580214E-02  0.1228333E-02  0.1272807E+05  0.5763910E+04  0.2338938E-02  0.1899719E-02
  0.1009524E+01  0.2902049E-02  0.1510620E-02  0.1246659E+05  0.6044611E+04 -0.6710988E-02 -0.1235962E-02
  0.1040476E+01 -0.1422524E-02  0.2746582E-03  0.1220369E+05  0.6313825E+04  0.5675431E-02  0.5264282E-03
  0.1071429E+01 -0.3731283E-02 -0.6561279E-03  0.1194004E+05  0.6570332E+04  0.1681213E-01  0.3387451E-02
  0.1102381E+01 -0.3820300E-02  0.2471924E-02  0.1168213E+05  0.6813129E+04  0.3993321E-02 -0.4882812E-03
  0.1133333E+01  0.3029319E-02 -0.2441406E-03  0.1142638E+05  0.7041263E+04 -0.1736809E-02 -0.4753113E-02
  0.1164286E+01 -0.3577858E-02 -0.4577637E-03  0.1117384E+05  0.7254601E+04  0.6723228E-02 -0.2029419E-02
  0.1195238E+01 -0.6383159E-03  0.6256104E-03  0.1092568E+05  0.7451520E+04 -0.7468296E-02 -0.2166748E-02
  0.1226190E+01  0.9955249E-04  0.1541138E-02  0.1068020E+05  0.7633135E+04  0.1984828E-02 -0.9155273E-03
  0.1257143E+01  0.2281883E-02 -0.4577637E-03  0.1043790E+05  0.7801999E+04  0.5892840E-02 -0.3509521E-02
  0.1288095E+01  0.4264564E-03 -0.3051758E-04  0.1020386E+05  0.7945975E+04 -0.3145116E-02 -0.1686096E-02
  0.1319048E+01  0.2915145E-02 -0.1022339E-02  0.9973416E+04  0.8076677E+04  0.6258307E-02 -0.3692627E-02
  0.1350000E+01  0.6894712E-03  0.1571655E-02  0.9751612E+04  0.8189050E+04 -0.6295663E-02 -0.2372742E-02
  0.1380952E+01  0.3005455E-02 -0.3356934E-03  0.9541918E+04  0.8282822E+04  0.8231854E-03  0.1373291E-03
  0.1411905E+01  0.1642700E-02  0.8239746E-03  0.9351719E+04  0.8385646E+04  0.1080724E-03  0.1525879E-03
  0.1442857E+01  0.3045715E-02 -0.1678467E-03  0.9160839E+04  0.8446942E+04  0.2078066E-02 -0.1770020E-02
  0.1473810E+01 -0.1656528E-02  0.1480103E-02  0.8979391E+04  0.8491952E+04 -0.2132779E-02 -0.1792908E-02
  0.1504762E+01  0.6185604E-03 -0.5950928E-03  0.8808402E+04  0.8521705E+04 -0.7899321E-02  0.6118774E-02
  0.1535714E+01  0.1470521E-02 -0.1403809E-02  0.8641190E+04  0.8538945E+04  0.3298737E-02 -0.4516602E-02
  0.1566667E+01 -0.1704439E-02  0.3112793E-02  0.8486022E+04  0.8541117E+04  0.1246675E-02 -0.1647949E-02
  0.1597619E+01 -0.5921593E-03 -0.6713867E-03  0.8339759E+04  0.8529646E+04 -0.7975048E-03 -0.1083374E-02
  0.1628572E+01  0.4778410E-03 -0.6256104E-03  0.8200879E+04  0.8505710E+04  0.3480744E-02 -0.2334595E-02
  0.1659524E+01 -0.1645848E-02 -0.1083374E-02  0.8073983E+04  0.8467522E+04 -0.4716870E-02 -0.1770020E-02
  0.1690476E+01  0.1561554E-02  0.1892090E-02  0.7957526E+04  0.8416926E+04  0.5158545E-02  0.2990723E-02
  0.1721429E+01 -0.3448107E-02 -0.4882812E-03  0.7850365E+04  0.8356355E+04 -0.4081884E-02 -0.1480103E-02
  0.1752381E+01 -0.3099856E-02  0.2593994E-02  0.7752600E+04  0.8288738E+04  0.6382569E-02 -0.4913330E-02
  0.1783333E+01  0.1839611E-02 -0.1403809E-02  0.7662179E+04  0.8213812E+04 -0.1754048E-02 -0.2288818E-03
  0.1814286E+01 -0.1379299E-02  0.2700806E-02  0.7582936E+04  0.8129410E+04  0.9276623E-02 -0.1785278E-02
  0.1845238E+01  0.3142326E-03 -0.8544922E-03  0.7512768E+04  0.8039709E+04 -0.3679829E-02  0.1495361E-02
  0.1876190E+01 -0.8783486E-03 -0.9307861E-03  0.7448032E+04  0.7945381E+04  0.6790936E-03 -0.5187988E-03
  0.1907143E+01 -0.2368256E-02  0.2838135E-02  0.7393972E+04  0.7845073E+04 -0.5880635E-03  0.9460449E-03
  0.1938095E+01 -0.7164507E-03  0.2441406E-03  0.7348153E+04  0.7741746E+04 -0.1724206E-02 -0.1434326E-02
  0.1969048E+01  0.3874663E-03 -0.1770020E-02  0.7309958E+04  0.7633271E+04 -0.1433625E-03  0.1113892E-02
  0.2000000E+01  0.2494812E-02  0.1037598E-02  0.7279619E+04  0.7530033E+04  0.2902985E-02 -0.2136230E-03
Zone t="Motion of body    1 in DoF   3",I=    64,F=POINT
  0.5000000E-01 -0.1192248E+06 -0.3366020E-02  0.4725456E-02 -0.6219042E-05  0.3736126E+06  0.6089778E-02
  0.8095238E-01 -0.1200536E+06 -0.1427737E-01  0.1831896E-02 -0.1064259E-04  0.3745619E+06  0.2572403E-01
  0.1119048E+00 -0.1202268E+06 -0.4029552E-01  0.1701456E-01  0.6723117E-04  0.3746816E+06  0.7170033E-01
  0.1428571E+00 -0.1203234E+06 -0.8946315E-01  0.2027416E-01  0.9281034E-04  0.3747489E+06  0.1583202E+00
  0.1738095E+00 -0.1203669E+06 -0.1781729E+00  0.1015075E-02 -0.1162245E-03  0.3748135E+06  0.3147497E+00
  0.2047619E+00 -0.1204225E+06 -0.3289843E+00  0.1041878E-01  0.4069647E-04  0.3748590E+06  0.5823233E+00
  0.2357143E+00 -0.1204863E+06 -0.5775276E+00 -0.3204345E-02 -0.7399172E-04  0.3749478E+06  0.1021039E+01
  0.2666667E+00 -0.1205490E+06 -0.9811086E+00  0.1210213E-01  0.1324732E-03  0.3750325E+06  0.1731506E+01
  0.2976190E+00 -0.1206097E+06 -0.1639189E+01 -0.2132813E-01 -0.4220824E-03  0.3751080E+06  0.2884856E+01
  0.3285715E+00 -0.1207057E+06 -0.2700891E+01  0.2403259E-02 -0.3671646E-04  0.3752156E+06  0.4740619E+01
  0.3595238E+00 -0.1207837E+06 -0.4412126E+01  0.8891528E-02  0.2859263E-03  0.3753300E+06  0.7726748E+01
  0.3904762E+00 -0.1208554E+06 -0.7153758E+01 -0.4469476E-02  0.9976700E-04  0.3754281E+06  0.1248817E+02
  0.4214286E+00 -0.1210096E+06 -0.1144465E+02  0.4172890E-02 -0.1022480E-03  0.3756074E+06  0.1990145E+02
  0.4523810E+00 -0.1211293E+06 -0.1814359E+02  0.1370279E-01  0.4978888E-03  0.3757862E+06  0.3144909E+02
  0.4833333E+00 -0.1212559E+06 -0.2802347E+02  0.9392048E-03  0.7429644E-03  0.3759676E+06  0.4840578E+02
  0.5142857E+00 -0.1214288E+06 -0.4261230E+02  0.2016068E-01  0.1396358E-02  0.3762008E+06  0.7328384E+02
  0.5452381E+00 -0.1216658E+06 -0.6323344E+02  0.1168397E-02  0.3231168E-03  0.3764606E+06  0.1082342E+03
  0.5761905E+00 -0.1218590E+06 -0.9150119E+02 -0.8308788E-02 -0.6431937E-03  0.3767201E+06  0.1559622E+03
  0.6071429E+00 -0.1220670E+06 -0.1299579E+03  0.1888051E-01  0.2918124E-02  0.3770314E+06  0.2205795E+03
  0.6380953E+00 -0.1223204E+06 -0.1805628E+03  0.2214944E-01  0.4472315E-02  0.3773511E+06  0.3048011E+03
  0.6690477E+00 -0.1225991E+06 -0.2465199E+03  0.3611446E-01  0.8001566E-02  0.3776872E+06  0.4137887E+03
  0.7000000E+00 -0.1228873E+06 -0.3313714E+03  0.1556396E-01  0.2999783E-02  0.3780602E+06  0.5531152E+03
  0.7309524E+00 -0.1232169E+06 -0.4383283E+03  0.3010728E-01  0.7037759E-02  0.3784670E+06  0.7275331E+03
  0.7619048E+00 -0.1235041E+06 -0.5717493E+03  0.6578922E-02  0.3212214E-02  0.3788627E+06  0.9436517E+03
  0.7928572E+00 -0.1238237E+06 -0.7369817E+03  0.3109081E-01  0.1066375E-01  0.3792806E+06  0.1208529E+04
  0.8238096E+00 -0.1241911E+06 -0.9395095E+03  0.3433095E-01  0.1057482E-01  0.3797117E+06  0.1529634E+04
  0.8547620E+00 -0.1245856E+06 -0.1184357E+04  0.1423658E-01  0.8200645E-02  0.3801610E+06  0.1914722E+04
  0.8857143E+00 -0.1249756E+06 -0.1477616E+04  0.1388550E-01  0.6238461E-02  0.3806203E+06  0.2371997E+04
  0.9166667E+00 -0.1253482E+06 -0.1825566E+04  0.7191051E-02  0.1457691E-02  0.3810668E+06  0.2909491E+04
  0.9476191E+00 -0.1257363E+06 -0.2235304E+04 -0.4983643E-02 -0.2982140E-02  0.3815165E+06  0.3535898E+04
  0.9785714E+00 -0.1261514E+06 -0.2714337E+04 -0.1558513E-01 -0.5047798E-02  0.3819743E+06  0.4259913E+04
  0.1009524E+01 -0.1265080E+06 -0.3269388E+04 -0.1185003E-01 -0.5340576E-02  0.3823660E+06  0.5087748E+04
  0.1040476E+01 -0.1269185E+06 -0.3909114E+04 -0.2397760E-02 -0.6446838E-03  0.3827516E+06  0.6029614E+04
  0.1071429E+01 -0.1272958E+06 -0.4639021E+04  0.5874634E-02  0.2351761E-02  0.3830997E+06  0.7091123E+04
  0.1102381E+01 -0.1276519E+06 -0.5465860E+04 -0.1589023E-01 -0.1250458E-01  0.3833836E+06  0.8277922E+04
  0.1133333E+01 -0.1280045E+06 -0.6395309E+04 -0.7539637E-03 -0.6084442E-03  0.3836697E+06  0.9596964E+04
  0.1164286E+01 -0.1282700E+06 -0.7430771E+04  0.7771685E-02  0.4392624E-02  0.3838570E+06  0.1104671E+05
  0.1195238E+01 -0.1285365E+06 -0.8579435E+04  0.5438451E-02  0.5081177E-02  0.3839736E+06  0.1263065E+05
  0.1226190E+01 -0.1287108E+06 -0.9842867E+04  0.3782995E-02  0.3337860E-02  0.3840043E+06  0.1434329E+05
  0.1257143E+01 -0.1288185E+06 -0.1122075E+05  0.1820651E-02  0.2571106E-02  0.3839143E+06  0.1617775E+05
  0.1288095E+01 -0.1289512E+06 -0.1272723E+05 -0.6396846E-03  0.2517700E-03  0.3837651E+06  0.1814232E+05
  0.1319048E+01 -0.1289717E+06 -0.1434239E+05 -0.8976795E-02 -0.6446838E-03  0.3835003E+06  0.2021511E+05
  0.1350000E+01 -0.1289200E+06 -0.1606794E+05 -0.8691859E-02 -0.4875183E-02  0.3831429E+06  0.2238972E+05
  0.1380952E+01 -0.1288036E+06 -0.1789669E+05 -0.7701479E-02 -0.4920959E-02  0.3826539E+06  0.2464693E+05
  0.1411905E+01 -0.1286282E+06 -0.1980083E+05 -0.8970006E-03  0.3326416E-02  0.3820830E+06  0.2697604E+05
  0.1442857E+01 -0.1283075E+06 -0.2179829E+05 -0.3384127E-03  0.1068115E-02  0.3813665E+06  0.2933607E+05
  0.1473810E+01 -0.1278642E+06 -0.2385306E+05  0.4866050E-03 -0.3822327E-02  0.3804588E+06  0.3169737E+05
  0.1504762E+01 -0.1273715E+06 -0.2596166E+05 -0.4694975E-02 -0.6637573E-02  0.3795421E+06  0.3406836E+05
  0.1535714E+01 -0.1266818E+06 -0.2808079E+05  0.1073083E-01  0.1356506E-01  0.3783765E+06  0.3635811E+05
  0.1566667E+01 -0.1259654E+06 -0.3021911E+05  0.2454392E-02 -0.1052856E-02  0.3771980E+06  0.3859734E+05
  0.1597619E+01 -0.1251481E+06 -0.3233756E+05  0.5577758E-02  0.4791260E-02  0.3758864E+06  0.4072238E+05
  0.1628572E+01 -0.1242162E+06 -0.3441141E+05  0.8751049E-02  0.1008606E-01  0.3744816E+06  0.4270943E+05
  0.1659524E+01 -0.1232374E+06 -0.3642895E+05 -0.7980982E-02  0.1922607E-02  0.3730349E+06  0.4454984E+05
  0.1690476E+01 -0.1221676E+06 -0.3834904E+05 -0.1117459E-01 -0.1815796E-02  0.3714982E+06  0.4619352E+05
  0.1721429E+01 -0.1210589E+06 -0.4016440E+05  0.5061360E-02 -0.2258301E-02  0.3699441E+06  0.4764375E+05
  0.1752381E+01 -0.1198835E+06 -0.4184864E+05  0.2072376E-02  0.4104614E-02  0.3683837E+06  0.4887445E+05
  0.1783333E+01 -0.1186436E+06 -0.4338035E+05 -0.2977603E-02  0.5401611E-02  0.3668033E+06  0.4985768E+05
  0.1814286E+01 -0.1174236E+06 -0.4476599E+05  0.5719042E-03 -0.1846313E-02  0.3652652E+06  0.5060904E+05
  0.1845238E+01 -0.1161628E+06 -0.4596299E+05 -0.9030053E-02 -0.6530762E-02  0.3637323E+06  0.5109474E+05
  0.1876190E+01 -0.1148775E+06 -0.4697416E+05  0.3228744E-02  0.3356934E-02  0.3622352E+06  0.5131710E+05
  0.1907143E+01 -0.1136300E+06 -0.4781091E+05 -0.4256459E-02 -0.2105713E-02  0.3608185E+06  0.5131414E+05
  0.1938095E+01 -0.1123874E+06 -0.4844811E+05 -0.2539070E-02  0.1312256E-02  0.3594639E+06  0.5107468E+05
  0.1969048E+01 -0.1111712E+06 -0.4887290E+05 -0.1883086E-02 -0.1647949E-02  0.3581281E+06  0.5054575E+05
  0.2000000E+01 -0.1100410E+06 -0.4917275E+05 -0.6206512E-02 -0.4760742E-02  0.3569941E+06  0.4993723E+05
