VARIABLES="w (rad/s)"
"abs(F   1   1)" "angle(F   1   1)"
"abs(F   1   2)" "angle(F   1   2)"
"abs(F   1   3)" "angle(F   1   3)"
Zone t="Diffraction force - beta =   0.000 deg",I=    64,F=POINT
  0.5000000E-01  0.9839198E+03 -0.1570794E+01  0.6606147E+03 -0.3092818E+01  0.1251270E+03 -0.1570766E+01
  0.8095238E-01  0.1606087E+04 -0.1570790E+01  0.1710045E+04 -0.3091050E+01  0.1857408E+03 -0.1570705E+01
  0.1119048E+00  0.2260378E+04 -0.1570783E+01  0.3245355E+04 -0.3088932E+01  0.2293941E+03 -0.1570591E+01
  0.1428571E+00  0.2925106E+04 -0.1570773E+01  0.5266833E+04 -0.3086279E+01  0.2603629E+03 -0.1570385E+01
  0.1738095E+00  0.3624725E+04 -0.1570758E+01  0.7784835E+04 -0.3082976E+01  0.2999040E+03 -0.1570078E+01
  0.2047619E+00  0.4347261E+04 -0.1570736E+01  0.1080037E+05 -0.3078808E+01  0.3060141E+03 -0.1569475E+01
  0.2357143E+00  0.5156528E+04 -0.1570704E+01  0.1432316E+05 -0.3073554E+01  0.2878733E+03 -0.1568277E+01
  0.2666667E+00  0.6001704E+04 -0.1570658E+01  0.1837431E+05 -0.3067238E+01  0.2662910E+03 -0.1566044E+01
  0.2976190E+00  0.6902403E+04 -0.1570588E+01  0.2293655E+05 -0.3059232E+01  0.1936612E+03 -0.1559567E+01
  0.3285715E+00  0.7952134E+04 -0.1570487E+01  0.2804287E+05 -0.3049743E+01  0.5432872E+02 -0.1502803E+01
  0.3595238E+00  0.9095208E+04 -0.1570334E+01  0.3365215E+05 -0.3038187E+01  0.6526181E+02  0.1474746E+01
  0.3904762E+00  0.1029411E+05 -0.1570103E+01  0.3980014E+05 -0.3024597E+01  0.2777140E+03  0.1532771E+01
  0.4214286E+00  0.1172679E+05 -0.1569771E+01  0.4634362E+05 -0.3009375E+01  0.6253170E+03  0.1542676E+01
  0.4523810E+00  0.1332415E+05 -0.1569287E+01  0.5332975E+05 -0.2991800E+01  0.1004344E+04  0.1541806E+01
  0.4833333E+00  0.1497651E+05 -0.1568607E+01  0.6066845E+05 -0.2974310E+01  0.1443706E+04  0.1538206E+01
  0.5142857E+00  0.1677388E+05 -0.1567664E+01  0.6820368E+05 -0.2955105E+01  0.2027677E+04  0.1533957E+01
  0.5452381E+00  0.1885527E+05 -0.1566433E+01  0.7602935E+05 -0.2936302E+01  0.2900394E+04  0.1531043E+01
  0.5761905E+00  0.2106974E+05 -0.1564839E+01  0.8398780E+05 -0.2917854E+01  0.3756260E+04  0.1524573E+01
  0.6071429E+00  0.2331915E+05 -0.1562768E+01  0.9205401E+05 -0.2898910E+01  0.4752282E+04  0.1516952E+01
  0.6380953E+00  0.2558426E+05 -0.1560163E+01  0.1003452E+06 -0.2881743E+01  0.6015694E+04  0.1509737E+01
  0.6690477E+00  0.2815012E+05 -0.1557019E+01  0.1085573E+06 -0.2864389E+01  0.7554118E+04  0.1502483E+01
  0.7000000E+00  0.3093568E+05 -0.1553228E+01  0.1167779E+06 -0.2847062E+01  0.9337004E+04  0.1494680E+01
  0.7309524E+00  0.3369626E+05 -0.1548630E+01  0.1251000E+06 -0.2831070E+01  0.1122820E+05  0.1485219E+01
  0.7619048E+00  0.3647659E+05 -0.1543119E+01  0.1333119E+06 -0.2815354E+01  0.1329965E+05  0.1474688E+01
  0.7928572E+00  0.3930975E+05 -0.1536613E+01  0.1413448E+06 -0.2799751E+01  0.1567731E+05  0.1464049E+01
  0.8238096E+00  0.4216528E+05 -0.1529032E+01  0.1492983E+06 -0.2784862E+01  0.1853707E+05  0.1454449E+01
  0.8547620E+00  0.4536324E+05 -0.1520600E+01  0.1571470E+06 -0.2770864E+01  0.2198919E+05  0.1446442E+01
  0.8857143E+00  0.4864592E+05 -0.1511019E+01  0.1646225E+06 -0.2756744E+01  0.2541533E+05  0.1436201E+01
  0.9166667E+00  0.5185273E+05 -0.1500071E+01  0.1719349E+06 -0.2743473E+01  0.2919894E+05  0.1426326E+01
  0.9476191E+00  0.5487115E+05 -0.1487562E+01  0.1789855E+06 -0.2730871E+01  0.3342817E+05  0.1417131E+01
  0.9785714E+00  0.5774544E+05 -0.1473459E+01  0.1857562E+06 -0.2719071E+01  0.3821217E+05  0.1409237E+01
  0.1009524E+01  0.6053214E+05 -0.1457905E+01  0.1921356E+06 -0.2707569E+01  0.4343403E+05  0.1401981E+01
  0.1040476E+01  0.6330410E+05 -0.1441209E+01  0.1980814E+06 -0.2696258E+01  0.4906684E+05  0.1395329E+01
  0.1071429E+01  0.6614133E+05 -0.1423787E+01  0.2036820E+06 -0.2685636E+01  0.5564338E+05  0.1391787E+01
  0.1102381E+01  0.6866022E+05 -0.1404721E+01  0.2089285E+06 -0.2675900E+01  0.6268069E+05  0.1389742E+01
  0.1133333E+01  0.7082420E+05 -0.1384115E+01  0.2137943E+06 -0.2666951E+01  0.7035372E+05  0.1389402E+01
  0.1164286E+01  0.7259269E+05 -0.1362194E+01  0.2181528E+06 -0.2658207E+01  0.7831316E+05  0.1389989E+01
  0.1195238E+01  0.7403130E+05 -0.1339575E+01  0.2219787E+06 -0.2649684E+01  0.8654773E+05  0.1391143E+01
  0.1226190E+01  0.7516277E+05 -0.1317062E+01  0.2253938E+06 -0.2641862E+01  0.9584190E+05  0.1395478E+01
  0.1257143E+01  0.7562773E+05 -0.1293326E+01  0.2284237E+06 -0.2634596E+01  0.1055694E+06  0.1401747E+01
  0.1288095E+01  0.7566030E+05 -0.1269466E+01  0.2308387E+06 -0.2628513E+01  0.1158502E+06  0.1409652E+01
  0.1319048E+01  0.7495949E+05 -0.1244909E+01  0.2328868E+06 -0.2623028E+01  0.1267001E+06  0.1419537E+01
  0.1350000E+01  0.7373216E+05 -0.1221960E+01  0.2342548E+06 -0.2617158E+01  0.1372430E+06  0.1429000E+01
  0.1380952E+01  0.7194391E+05 -0.1200935E+01  0.2350897E+06 -0.2612004E+01  0.1479242E+06  0.1439182E+01
  0.1411905E+01  0.6938084E+05 -0.1179295E+01  0.2353415E+06 -0.2607512E+01  0.1590602E+06  0.1451451E+01
  0.1442857E+01  0.6609971E+05 -0.1160634E+01  0.2352942E+06 -0.2603795E+01  0.1703892E+06  0.1464673E+01
  0.1473810E+01  0.6211936E+05 -0.1144924E+01  0.2347802E+06 -0.2600937E+01  0.1817314E+06  0.1478288E+01
  0.1504762E+01  0.5752959E+05 -0.1134089E+01  0.2337702E+06 -0.2599074E+01  0.1931542E+06  0.1492019E+01
  0.1535714E+01  0.5229206E+05 -0.1129223E+01  0.2322553E+06 -0.2597573E+01  0.2042942E+06  0.1506178E+01
  0.1566667E+01  0.4646523E+05 -0.1135061E+01  0.2301607E+06 -0.2595932E+01  0.2142655E+06  0.1519298E+01
  0.1597619E+01  0.4016532E+05 -0.1156611E+01  0.2276516E+06 -0.2595089E+01  0.2238604E+06  0.1531818E+01
  0.1628572E+01  0.3354311E+05 -0.1203744E+01  0.2247716E+06 -0.2595093E+01  0.2334440E+06  0.1544706E+01
  0.1659524E+01  0.2658423E+05 -0.1295232E+01  0.2214986E+06 -0.2595977E+01  0.2423158E+06  0.1557114E+01
  0.1690476E+01  0.1987007E+05 -0.1480677E+01  0.2178632E+06 -0.2597647E+01  0.2506667E+06  0.1568700E+01
  0.1721429E+01  0.1466871E+05 -0.1865572E+01  0.2138940E+06 -0.2600168E+01  0.2585164E+06  0.1579257E+01
  0.1752381E+01  0.1366915E+05 -0.2492381E+01  0.2095941E+06 -0.2603267E+01  0.2657301E+06  0.1589223E+01
  0.1783333E+01  0.1834148E+05 -0.2999929E+01  0.2049099E+06 -0.2606462E+01  0.2713910E+06  0.1597367E+01
  0.1814286E+01  0.2615737E+05  0.3031334E+01  0.1999352E+06 -0.2609952E+01  0.2758118E+06  0.1603543E+01
  0.1845238E+01  0.3527157E+05  0.2906873E+01  0.1947067E+06 -0.2613580E+01  0.2793480E+06  0.1608621E+01
  0.1876190E+01  0.4500156E+05  0.2841738E+01  0.1892115E+06 -0.2617297E+01  0.2824481E+06  0.1613357E+01
  0.1907143E+01  0.5511078E+05  0.2805513E+01  0.1834705E+06 -0.2621745E+01  0.2846947E+06  0.1616211E+01
  0.1938095E+01  0.6544204E+05  0.2786687E+01  0.1774538E+06 -0.2626529E+01  0.2861592E+06  0.1617077E+01
  0.1969048E+01  0.7592191E+05  0.2777844E+01  0.1710578E+06 -0.2631395E+01  0.2867928E+06  0.1616295E+01
  0.2000000E+01  0.8643106E+05  0.2776071E+01  0.1644105E+06 -0.2636666E+01  0.2867904E+06  0.1613620E+01
