VARIABLES="w (rad/s)"
"abs(F   1   1)" "angle(F   1   1)"
"abs(F   1   2)" "angle(F   1   2)"
"abs(F   1   3)" "angle(F   1   3)"
Zone t="Diffraction force - beta =   0.000 deg",I=    64,F=POINT
  0.5000000E-01  0.3350427E+04 -0.1570795E+01  0.7002351E+06 -0.4599615E-04  0.5248620E+04 -0.1570796E+01
  0.8095238E-01  0.5462572E+04 -0.1570789E+01  0.6985738E+06 -0.1236707E-03  0.8530306E+04 -0.1570798E+01
  0.1119048E+00  0.7643254E+04 -0.1570796E+01  0.6961368E+06 -0.2453899E-03  0.1186699E+05 -0.1570796E+01
  0.1428571E+00  0.9886582E+04 -0.1570791E+01  0.6929250E+06 -0.4202199E-03  0.1529423E+05 -0.1570789E+01
  0.1738095E+00  0.1223470E+05 -0.1570785E+01  0.6889275E+06 -0.6619861E-03  0.1886829E+05 -0.1570789E+01
  0.2047619E+00  0.1469579E+05 -0.1570780E+01  0.6841442E+06 -0.9905098E-03  0.2258712E+05 -0.1570780E+01
  0.2357143E+00  0.1735696E+05 -0.1570769E+01  0.6785665E+06 -0.1435045E-02  0.2650596E+05 -0.1570769E+01
  0.2666667E+00  0.2019420E+05 -0.1570754E+01  0.6721739E+06 -0.2030672E-02  0.3069863E+05 -0.1570755E+01
  0.2976190E+00  0.2325788E+05 -0.1570734E+01  0.6649871E+06 -0.2837562E-02  0.3517794E+05 -0.1570735E+01
  0.3285715E+00  0.2667563E+05 -0.1570704E+01  0.6569764E+06 -0.3915091E-02  0.3999470E+05 -0.1570704E+01
  0.3595238E+00  0.3042791E+05 -0.1570658E+01  0.6481899E+06 -0.5358974E-02  0.4530568E+05 -0.1570659E+01
  0.3904762E+00  0.3451230E+05 -0.1570590E+01  0.6386015E+06 -0.7275042E-02  0.5106311E+05 -0.1570589E+01
  0.4214286E+00  0.3913642E+05 -0.1570490E+01  0.6283631E+06 -0.9723200E-02  0.5727833E+05 -0.1570490E+01
  0.4523810E+00  0.4425013E+05 -0.1570342E+01  0.6174494E+06 -0.1288977E-01  0.6408405E+05 -0.1570343E+01
  0.4833333E+00  0.4974865E+05 -0.1570138E+01  0.6059472E+06 -0.1667137E-01  0.7144966E+05 -0.1570139E+01
  0.5142857E+00  0.5571271E+05 -0.1569853E+01  0.5940467E+06 -0.2128878E-01  0.7925912E+05 -0.1569854E+01
  0.5452381E+00  0.6226128E+05 -0.1569475E+01  0.5816486E+06 -0.2664931E-01  0.8731384E+05 -0.1569477E+01
  0.5761905E+00  0.6921859E+05 -0.1568983E+01  0.5689186E+06 -0.3276088E-01  0.9585558E+05 -0.1568985E+01
  0.6071429E+00  0.7646098E+05 -0.1568348E+01  0.5559156E+06 -0.3980304E-01  0.1046632E+06 -0.1568352E+01
  0.6380953E+00  0.8394664E+05 -0.1567556E+01  0.5424824E+06 -0.4754419E-01  0.1135518E+06 -0.1567564E+01
  0.6690477E+00  0.9194054E+05 -0.1566578E+01  0.5289721E+06 -0.5619247E-01  0.1224625E+06 -0.1566586E+01
  0.7000000E+00  0.1003444E+06 -0.1565381E+01  0.5153116E+06 -0.6583203E-01  0.1313822E+06 -0.1565393E+01
  0.7309524E+00  0.1088978E+06 -0.1563938E+01  0.5013713E+06 -0.7631518E-01  0.1404081E+06 -0.1563961E+01
  0.7619048E+00  0.1176301E+06 -0.1562214E+01  0.4874007E+06 -0.8776978E-01  0.1494315E+06 -0.1562255E+01
  0.7928572E+00  0.1265589E+06 -0.1560181E+01  0.4734829E+06 -0.1002391E+00  0.1582912E+06 -0.1560243E+01
  0.8238096E+00  0.1356380E+06 -0.1557816E+01  0.4595022E+06 -0.1137087E+00  0.1667764E+06 -0.1557893E+01
  0.8547620E+00  0.1451704E+06 -0.1555117E+01  0.4454727E+06 -0.1281555E+00  0.1747404E+06 -0.1555187E+01
  0.8857143E+00  0.1548802E+06 -0.1552032E+01  0.4317102E+06 -0.1436506E+00  0.1827735E+06 -0.1552135E+01
  0.9166667E+00  0.1645869E+06 -0.1548531E+01  0.4179612E+06 -0.1601645E+00  0.1904551E+06 -0.1548722E+01
  0.9476191E+00  0.1741563E+06 -0.1544599E+01  0.4043260E+06 -0.1776813E+00  0.1976622E+06 -0.1544908E+01
  0.9785714E+00  0.1836103E+06 -0.1540227E+01  0.3908047E+06 -0.1961652E+00  0.2042498E+06 -0.1540697E+01
  0.1009524E+01  0.1929810E+06 -0.1535453E+01  0.3775388E+06 -0.2156800E+00  0.2103005E+06 -0.1536088E+01
  0.1040476E+01  0.2023172E+06 -0.1530351E+01  0.3645794E+06 -0.2362292E+00  0.2158073E+06 -0.1531095E+01
  0.1071429E+01  0.2116742E+06 -0.1525010E+01  0.3517963E+06 -0.2577816E+00  0.2201855E+06 -0.1525784E+01
  0.1102381E+01  0.2206372E+06 -0.1519330E+01  0.3391634E+06 -0.2802700E+00  0.2238814E+06 -0.1520361E+01
  0.1133333E+01  0.2291407E+06 -0.1513399E+01  0.3267071E+06 -0.3037178E+00  0.2266811E+06 -0.1514776E+01
  0.1164286E+01  0.2371165E+06 -0.1507353E+01  0.3145995E+06 -0.3281501E+00  0.2288962E+06 -0.1509233E+01
  0.1195238E+01  0.2446073E+06 -0.1501382E+01  0.3028544E+06 -0.3534977E+00  0.2305077E+06 -0.1503654E+01
  0.1226190E+01  0.2516177E+06 -0.1495741E+01  0.2913065E+06 -0.3798324E+00  0.2306586E+06 -0.1498258E+01
  0.1257143E+01  0.2577514E+06 -0.1490337E+01  0.2799629E+06 -0.4073386E+00  0.2299373E+06 -0.1493474E+01
  0.1288095E+01  0.2632289E+06 -0.1485385E+01  0.2688411E+06 -0.4350727E+00  0.2281934E+06 -0.1489249E+01
  0.1319048E+01  0.2677237E+06 -0.1481038E+01  0.2578884E+06 -0.4640616E+00  0.2253621E+06 -0.1485979E+01
  0.1350000E+01  0.2714603E+06 -0.1477824E+01  0.2474715E+06 -0.4938071E+00  0.2223356E+06 -0.1483450E+01
  0.1380952E+01  0.2743976E+06 -0.1475876E+01  0.2372859E+06 -0.5241792E+00  0.2186235E+06 -0.1481883E+01
  0.1411905E+01  0.2762673E+06 -0.1474821E+01  0.2273552E+06 -0.5549864E+00  0.2138492E+06 -0.1482122E+01
  0.1442857E+01  0.2771843E+06 -0.1475561E+01  0.2175192E+06 -0.5872878E+00  0.2082855E+06 -0.1484035E+01
  0.1473810E+01  0.2771561E+06 -0.1478071E+01  0.2078400E+06 -0.6204653E+00  0.2021163E+06 -0.1487641E+01
  0.1504762E+01  0.2762914E+06 -0.1482613E+01  0.1982975E+06 -0.6543615E+00  0.1952784E+06 -0.1492877E+01
  0.1535714E+01  0.2745484E+06 -0.1489308E+01  0.1890305E+06 -0.6892163E+00  0.1881221E+06 -0.1500614E+01
  0.1566667E+01  0.2720207E+06 -0.1498636E+01  0.1801711E+06 -0.7247898E+00  0.1815729E+06 -0.1510014E+01
  0.1597619E+01  0.2688006E+06 -0.1510625E+01  0.1714609E+06 -0.7615147E+00  0.1748373E+06 -0.1520880E+01
  0.1628572E+01  0.2649851E+06 -0.1525353E+01  0.1628869E+06 -0.7996990E+00  0.1675395E+06 -0.1534439E+01
  0.1659524E+01  0.2604198E+06 -0.1543017E+01  0.1544594E+06 -0.8393052E+00  0.1604083E+06 -0.1550127E+01
  0.1690476E+01  0.2553237E+06 -0.1563792E+01  0.1462063E+06 -0.8806535E+00  0.1532659E+06 -0.1567368E+01
  0.1721429E+01  0.2498229E+06 -0.1587855E+01  0.1381266E+06 -0.9240515E+00  0.1460957E+06 -0.1585766E+01
  0.1752381E+01  0.2438927E+06 -0.1615455E+01  0.1302970E+06 -0.9697090E+00  0.1390401E+06 -0.1606018E+01
  0.1783333E+01  0.2376998E+06 -0.1647260E+01  0.1228347E+06 -0.1017302E+01  0.1329950E+06 -0.1625035E+01
  0.1814286E+01  0.2314106E+06 -0.1683382E+01  0.1157025E+06 -0.1067531E+01  0.1276197E+06 -0.1641613E+01
  0.1845238E+01  0.2250240E+06 -0.1723841E+01  0.1089462E+06 -0.1120722E+01  0.1225660E+06 -0.1657091E+01
  0.1876190E+01  0.2186985E+06 -0.1768673E+01  0.1025836E+06 -0.1176697E+01  0.1174152E+06 -0.1673325E+01
  0.1907143E+01  0.2124881E+06 -0.1818160E+01  0.9650514E+05 -0.1235738E+01  0.1125228E+06 -0.1685915E+01
  0.1938095E+01  0.2065890E+06 -0.1872379E+01  0.9078512E+05 -0.1297348E+01  0.1078038E+06 -0.1693911E+01
  0.1969048E+01  0.2010779E+06 -0.1931432E+01  0.8542776E+05 -0.1359955E+01  0.1033258E+06 -0.1697377E+01
  0.2000000E+01  0.1961286E+06 -0.1994975E+01  0.8038915E+05 -0.1424679E+01  0.9890173E+05 -0.1695256E+01
