VARIABLES="w (rad/s)"
"abs(F   1   1)" "angle(F   1   1)"
"abs(F   1   2)" "angle(F   1   2)"
"abs(F   1   3)" "angle(F   1   3)"
Zone t="Diffraction force - beta =   0.000 deg",I=    64,F=POINT
  0.5000000E-01  0.2234517E+04 -0.1570796E+01  0.2064482E+06 -0.1409693E-04  0.3608980E+04  0.1570795E+01
  0.8095238E-01  0.3651199E+04 -0.1570790E+01  0.2059284E+06 -0.3789552E-04  0.5897925E+04  0.1570791E+01
  0.1119048E+00  0.5100314E+04 -0.1570794E+01  0.2051639E+06 -0.7516358E-04  0.8236544E+04  0.1570796E+01
  0.1428571E+00  0.6597579E+04 -0.1570792E+01  0.2041561E+06 -0.1287323E-03  0.1065273E+05  0.1570804E+01
  0.1738095E+00  0.8150923E+04 -0.1570790E+01  0.2029066E+06 -0.2027136E-03  0.1316118E+05  0.1570807E+01
  0.2047619E+00  0.9790549E+04 -0.1570784E+01  0.2014133E+06 -0.3032778E-03  0.1580867E+05  0.1570808E+01
  0.2357143E+00  0.1153553E+05 -0.1570779E+01  0.1996777E+06 -0.4393367E-03  0.1862354E+05  0.1570815E+01
  0.2666667E+00  0.1339701E+05 -0.1570769E+01  0.1977071E+06 -0.6214362E-03  0.2163482E+05  0.1570825E+01
  0.2976190E+00  0.1542234E+05 -0.1570754E+01  0.1954935E+06 -0.8684098E-03  0.2490678E+05  0.1570839E+01
  0.3285715E+00  0.1763430E+05 -0.1570734E+01  0.1930574E+06 -0.1197991E-02  0.2847273E+05  0.1570858E+01
  0.3595238E+00  0.2006159E+05 -0.1570704E+01  0.1903881E+06 -0.1640142E-02  0.3239389E+05  0.1570887E+01
  0.3904762E+00  0.2272806E+05 -0.1570658E+01  0.1875095E+06 -0.2226238E-02  0.3670571E+05  0.1570935E+01
  0.4214286E+00  0.2569894E+05 -0.1570592E+01  0.1844292E+06 -0.2976929E-02  0.4148556E+05  0.1571000E+01
  0.4523810E+00  0.2894313E+05 -0.1570494E+01  0.1811537E+06 -0.3951095E-02  0.4671641E+05  0.1571098E+01
  0.4833333E+00  0.3246911E+05 -0.1570357E+01  0.1777237E+06 -0.5114293E-02  0.5242748E+05  0.1571236E+01
  0.5142857E+00  0.3631274E+05 -0.1570166E+01  0.1741043E+06 -0.6538522E-02  0.5863116E+05  0.1571426E+01
  0.5452381E+00  0.4041831E+05 -0.1569912E+01  0.1703943E+06 -0.8197996E-02  0.6523045E+05  0.1571680E+01
  0.5761905E+00  0.4475602E+05 -0.1569582E+01  0.1665270E+06 -0.1009111E-01  0.7221210E+05  0.1572011E+01
  0.6071429E+00  0.4927955E+05 -0.1569154E+01  0.1625441E+06 -0.1228302E-01  0.7951395E+05  0.1572440E+01
  0.6380953E+00  0.5401839E+05 -0.1568618E+01  0.1584806E+06 -0.1470431E-01  0.8716344E+05  0.1572974E+01
  0.6690477E+00  0.5898707E+05 -0.1567952E+01  0.1542947E+06 -0.1741559E-01  0.9511323E+05  0.1573640E+01
  0.7000000E+00  0.6407180E+05 -0.1567131E+01  0.1500388E+06 -0.2044935E-01  0.1032498E+06  0.1574463E+01
  0.7309524E+00  0.6930252E+05 -0.1566137E+01  0.1457480E+06 -0.2377634E-01  0.1116569E+06  0.1575457E+01
  0.7619048E+00  0.7464249E+05 -0.1564941E+01  0.1413751E+06 -0.2742916E-01  0.1202220E+06  0.1576653E+01
  0.7928572E+00  0.8011950E+05 -0.1563519E+01  0.1369127E+06 -0.3142501E-01  0.1290408E+06  0.1578076E+01
  0.8238096E+00  0.8573127E+05 -0.1561848E+01  0.1325279E+06 -0.3576196E-01  0.1379045E+06  0.1579747E+01
  0.8547620E+00  0.9143964E+05 -0.1559895E+01  0.1280999E+06 -0.4046015E-01  0.1469588E+06  0.1581701E+01
  0.8857143E+00  0.9723690E+05 -0.1557628E+01  0.1236356E+06 -0.4552686E-01  0.1561252E+06  0.1583969E+01
  0.9166667E+00  0.1030690E+06 -0.1555019E+01  0.1191230E+06 -0.5097266E-01  0.1653873E+06  0.1586583E+01
  0.9476191E+00  0.1088797E+06 -0.1552039E+01  0.1147530E+06 -0.5676018E-01  0.1745184E+06  0.1589566E+01
  0.9785714E+00  0.1147329E+06 -0.1548664E+01  0.1103878E+06 -0.6295879E-01  0.1837749E+06  0.1592947E+01
  0.1009524E+01  0.1206229E+06 -0.1544893E+01  0.1060289E+06 -0.6955596E-01  0.1929629E+06  0.1596719E+01
  0.1040476E+01  0.1265699E+06 -0.1540707E+01  0.1016785E+06 -0.7657192E-01  0.2021658E+06  0.1600902E+01
  0.1071429E+01  0.1323907E+06 -0.1536059E+01  0.9741203E+05 -0.8393738E-01  0.2111005E+06  0.1605555E+01
  0.1102381E+01  0.1381373E+06 -0.1530933E+01  0.9327345E+05 -0.9166633E-01  0.2198689E+06  0.1610687E+01
  0.1133333E+01  0.1437790E+06 -0.1525319E+01  0.8918904E+05 -0.9982559E-01  0.2284676E+06  0.1616318E+01
  0.1164286E+01  0.1492680E+06 -0.1519212E+01  0.8514802E+05 -0.1084325E+00  0.2367514E+06  0.1622447E+01
  0.1195238E+01  0.1546107E+06 -0.1512615E+01  0.8115880E+05 -0.1175358E+00  0.2448049E+06  0.1629070E+01
  0.1226190E+01  0.1596783E+06 -0.1505553E+01  0.7723814E+05 -0.1270874E+00  0.2523877E+06  0.1636164E+01
  0.1257143E+01  0.1644162E+06 -0.1498095E+01  0.7353809E+05 -0.1366990E+00  0.2592534E+06  0.1643637E+01
  0.1288095E+01  0.1690970E+06 -0.1490400E+01  0.6991234E+05 -0.1467087E+00  0.2659402E+06  0.1651324E+01
  0.1319048E+01  0.1733602E+06 -0.1482340E+01  0.6637152E+05 -0.1571724E+00  0.2718608E+06  0.1659401E+01
  0.1350000E+01  0.1772952E+06 -0.1473968E+01  0.6290596E+05 -0.1681528E+00  0.2772223E+06  0.1667809E+01
  0.1380952E+01  0.1808819E+06 -0.1465347E+01  0.5951766E+05 -0.1797083E+00  0.2820191E+06  0.1676475E+01
  0.1411905E+01  0.1838473E+06 -0.1456512E+01  0.5621575E+05 -0.1919360E+00  0.2859410E+06  0.1685380E+01
  0.1442857E+01  0.1864090E+06 -0.1447761E+01  0.5314830E+05 -0.2033014E+00  0.2888599E+06  0.1694154E+01
  0.1473810E+01  0.1885837E+06 -0.1439224E+01  0.5017186E+05 -0.2152098E+00  0.2912090E+06  0.1702720E+01
  0.1504762E+01  0.1902648E+06 -0.1430945E+01  0.4730018E+05 -0.2273443E+00  0.2926782E+06  0.1711012E+01
  0.1535714E+01  0.1914087E+06 -0.1422936E+01  0.4450922E+05 -0.2400035E+00  0.2932451E+06  0.1719098E+01
  0.1566667E+01  0.1920635E+06 -0.1415351E+01  0.4181428E+05 -0.2531236E+00  0.2930276E+06  0.1726762E+01
  0.1597619E+01  0.1922140E+06 -0.1408316E+01  0.3921168E+05 -0.2667772E+00  0.2920392E+06  0.1733897E+01
  0.1628572E+01  0.1917740E+06 -0.1402065E+01  0.3669395E+05 -0.2810958E+00  0.2900935E+06  0.1740259E+01
  0.1659524E+01  0.1908015E+06 -0.1396903E+01  0.3436505E+05 -0.2930707E+00  0.2870894E+06  0.1745352E+01
  0.1690476E+01  0.1893849E+06 -0.1392581E+01  0.3213177E+05 -0.3055087E+00  0.2835131E+06  0.1749743E+01
  0.1721429E+01  0.1875306E+06 -0.1389248E+01  0.2999557E+05 -0.3181593E+00  0.2793131E+06  0.1753200E+01
  0.1752381E+01  0.1851780E+06 -0.1387187E+01  0.2794273E+05 -0.3309555E+00  0.2742554E+06  0.1755319E+01
  0.1783333E+01  0.1824521E+06 -0.1386422E+01  0.2596828E+05 -0.3440748E+00  0.2686563E+06  0.1756193E+01
  0.1814286E+01  0.1793905E+06 -0.1387169E+01  0.2408411E+05 -0.3571739E+00  0.2625780E+06  0.1755506E+01
  0.1845238E+01  0.1759842E+06 -0.1389318E+01  0.2227931E+05 -0.3708197E+00  0.2560434E+06  0.1753505E+01
  0.1876190E+01  0.1722039E+06 -0.1393058E+01  0.2055265E+05 -0.3852947E+00  0.2489649E+06  0.1749940E+01
  0.1907143E+01  0.1681221E+06 -0.1398553E+01  0.1892659E+05 -0.3967606E+00  0.2413548E+06  0.1744347E+01
  0.1938095E+01  0.1638356E+06 -0.1405753E+01  0.1738133E+05 -0.4077054E+00  0.2334978E+06  0.1737068E+01
  0.1969048E+01  0.1593799E+06 -0.1414586E+01  0.1591610E+05 -0.4187576E+00  0.2255207E+06  0.1728325E+01
  0.2000000E+01  0.1547408E+06 -0.1425263E+01  0.1452421E+05 -0.4303691E+00  0.2173084E+06  0.1717664E+01
