VARIABLES="w (rad/s)"
"A   1   1" "B   1   1"
"A   1   2" "B   1   2"
"A   1   3" "B   1   3"
Zone t="Motion of body    1 in DoF   1",I=    64,F=POINT
  0.5000000E-01  0.1288931E+06  0.1306577E-01  0.6484985E-02  0.2136263E-04 -0.4766715E+06 -0.4940585E-01
  0.8095238E-01  0.1297729E+06  0.5688770E-01  0.6809235E-02  0.3299434E-04 -0.4792454E+06 -0.2140605E+00
  0.1119048E+00  0.1299956E+06  0.1589145E+00  0.3340701E-02  0.1536612E-04 -0.4798277E+06 -0.5968822E+00
  0.1428571E+00  0.1302483E+06  0.3571810E+00  0.2002716E-02  0.8005300E-05 -0.4803748E+06 -0.1340616E+01
  0.1738095E+00  0.1303818E+06  0.7082043E+00  0.4740676E-02  0.3864383E-04 -0.4807730E+06 -0.2655198E+01
  0.2047619E+00  0.1305729E+06  0.1302111E+01 -0.4322140E-02 -0.5429843E-04 -0.4812094E+06 -0.4874861E+01
  0.2357143E+00  0.1307529E+06  0.2281937E+01 -0.2848307E-02  0.2386235E-04 -0.4818754E+06 -0.8532044E+01
  0.2666667E+00  0.1309265E+06  0.3870445E+01 -0.1316070E-02 -0.2249517E-04 -0.4822193E+06 -0.1444238E+02
  0.2976190E+00  0.1312581E+06  0.6455752E+01  0.3409424E-02  0.1043454E-03 -0.4830011E+06 -0.2403360E+02
  0.3285715E+00  0.1314603E+06  0.1060262E+02 -0.4620759E-02 -0.3685541E-03 -0.4836708E+06 -0.3938479E+02
  0.3595238E+00  0.1318516E+06  0.1728775E+02  0.5347650E-02  0.1679137E-03 -0.4847297E+06 -0.6404904E+02
  0.3904762E+00  0.1321309E+06  0.2794293E+02  0.2364182E-02  0.2824366E-03 -0.4854714E+06 -0.1032361E+03
  0.4214286E+00  0.1326158E+06  0.4457742E+02 -0.5648337E-02 -0.5885363E-03 -0.4866550E+06 -0.1641321E+03
  0.4523810E+00  0.1329840E+06  0.7044176E+02  0.1315468E-02 -0.2333522E-04 -0.4879356E+06 -0.2586231E+03
  0.4833333E+00  0.1334996E+06  0.1085188E+03 -0.2715012E-02 -0.5162954E-03 -0.4892508E+06 -0.3969078E+03
  0.5142857E+00  0.1341047E+06  0.1644698E+03 -0.5340577E-03 -0.3927946E-04 -0.4908139E+06 -0.5991813E+03
  0.5452381E+00  0.1346937E+06  0.2431308E+03  0.7276244E-03  0.2050400E-04 -0.4925899E+06 -0.8822927E+03
  0.5761905E+00  0.1354766E+06  0.3509341E+03 -0.1880236E-02 -0.5867481E-03 -0.4948801E+06 -0.1267988E+04
  0.6071429E+00  0.1361267E+06  0.4968528E+03 -0.6283030E-03 -0.4916191E-03 -0.4966464E+06 -0.1787165E+04
  0.6380953E+00  0.1369189E+06  0.6879070E+03  0.3754345E-02  0.1499653E-03 -0.4988064E+06 -0.2462234E+04
  0.6690477E+00  0.1379011E+06  0.9361945E+03  0.1254370E-02  0.1921654E-03 -0.5014482E+06 -0.3333180E+04
  0.7000000E+00  0.1387238E+06  0.1253712E+04 -0.7847377E-03 -0.5292892E-03 -0.5038085E+06 -0.4440671E+04
  0.7309524E+00  0.1396910E+06  0.1652967E+04  0.4216793E-02  0.3218651E-03 -0.5067101E+06 -0.5823656E+04
  0.7619048E+00  0.1408334E+06  0.2150875E+04 -0.3604889E-03 -0.3328323E-03 -0.5095753E+06 -0.7530314E+04
  0.7928572E+00  0.1418876E+06  0.2762934E+04  0.1154719E-02  0.1029968E-02 -0.5123313E+06 -0.9612716E+04
  0.8238096E+00  0.1429688E+06  0.3508149E+04 -0.5186224E-03 -0.7724762E-03 -0.5152038E+06 -0.1212728E+05
  0.8547620E+00  0.1440829E+06  0.4405732E+04  0.9282784E-03 -0.3528595E-03 -0.5180448E+06 -0.1512680E+05
  0.8857143E+00  0.1453904E+06  0.5480581E+04 -0.5168300E-03 -0.2319336E-02 -0.5213631E+06 -0.1868282E+05
  0.9166667E+00  0.1465185E+06  0.6747208E+04  0.3295898E-02  0.2473831E-02 -0.5242827E+06 -0.2283715E+05
  0.9476191E+00  0.1476567E+06  0.8230659E+04  0.2028882E-02 -0.1039505E-02 -0.5269822E+06 -0.2764602E+05
  0.9785714E+00  0.1487935E+06  0.9954521E+04 -0.1278620E-02 -0.1045227E-02 -0.5294233E+06 -0.3316472E+05
  0.1009524E+01  0.1499937E+06  0.1194573E+05  0.1632403E-02 -0.1300812E-02 -0.5318521E+06 -0.3945702E+05
  0.1040476E+01  0.1511448E+06  0.1422426E+05 -0.1173216E-03  0.2388000E-02 -0.5342506E+06 -0.4657912E+05
  0.1071429E+01  0.1520123E+06  0.1679491E+05  0.1879883E-02  0.1194000E-02 -0.5356068E+06 -0.5450258E+05
  0.1102381E+01  0.1529621E+06  0.1970401E+05  0.1079650E-02 -0.5722046E-04 -0.5373491E+06 -0.6337088E+05
  0.1133333E+01  0.1536717E+06  0.2293975E+05 -0.5654728E-03  0.2151489E-02 -0.5381503E+06 -0.7308198E+05
  0.1164286E+01  0.1543600E+06  0.2652672E+05 -0.3695810E-02 -0.1678467E-02 -0.5386142E+06 -0.8366412E+05
  0.1195238E+01  0.1548803E+06  0.3045979E+05  0.2297937E-03 -0.1541138E-02 -0.5385036E+06 -0.9507758E+05
  0.1226190E+01  0.1550286E+06  0.3471113E+05  0.8959724E-03  0.1617432E-02 -0.5371051E+06 -0.1071728E+06
  0.1257143E+01  0.1548807E+06  0.3928334E+05 -0.8496371E-03 -0.1678467E-03 -0.5350263E+06 -0.1199897E+06
  0.1288095E+01  0.1547863E+06  0.4424893E+05 -0.2937810E-02 -0.2922058E-02 -0.5328478E+06 -0.1336234E+06
  0.1319048E+01  0.1542214E+06  0.4946265E+05 -0.3007689E-02 -0.1876831E-02 -0.5292526E+06 -0.1476034E+06
  0.1350000E+01  0.1534962E+06  0.5496823E+05  0.0000000E+00 -0.8392334E-04 -0.5251252E+06 -0.1620288E+06
  0.1380952E+01  0.1524669E+06  0.6071627E+05  0.1591123E-02  0.1594543E-02 -0.5204121E+06 -0.1768083E+06
  0.1411905E+01  0.1506941E+06  0.6644266E+05  0.8861934E-03 -0.1983643E-03 -0.5140314E+06 -0.1911950E+06
  0.1442857E+01  0.1488717E+06  0.7238449E+05  0.4653175E-03  0.1312256E-02 -0.5072144E+06 -0.2056415E+06
  0.1473810E+01  0.1469116E+06  0.7841406E+05  0.2070660E-04  0.2197266E-02 -0.5001785E+06 -0.2199067E+06
  0.1504762E+01  0.1444387E+06  0.8426298E+05  0.2433680E-02 -0.3356934E-03 -0.4915895E+06 -0.2330076E+06
  0.1535714E+01  0.1418213E+06  0.9006011E+05 -0.3179506E-03  0.7171631E-03 -0.4827944E+06 -0.2455006E+06
  0.1566667E+01  0.1390508E+06  0.9571905E+05 -0.8960480E-03 -0.3204346E-03 -0.4737058E+06 -0.2570784E+06
  0.1597619E+01  0.1359517E+06  0.1011005E+06  0.7067707E-03  0.9918213E-03 -0.4642773E+06 -0.2676501E+06
  0.1628572E+01  0.1325558E+06  0.1060329E+06 -0.1873886E-04  0.2441406E-03 -0.4541225E+06 -0.2763910E+06
  0.1659524E+01  0.1289907E+06  0.1105648E+06  0.1581485E-02  0.2410889E-02 -0.4438435E+06 -0.2837438E+06
  0.1690476E+01  0.1254646E+06  0.1147848E+06 -0.1967739E-02 -0.2288818E-03 -0.4340979E+06 -0.2901146E+06
  0.1721429E+01  0.1218322E+06  0.1184163E+06 -0.1825990E-02 -0.1434326E-02 -0.4242156E+06 -0.2944969E+06
  0.1752381E+01  0.1181395E+06  0.1214659E+06  0.3186931E-02 -0.5416870E-03 -0.4144096E+06 -0.2969782E+06
  0.1783333E+01  0.1145461E+06  0.1240670E+06  0.2412885E-02 -0.1411438E-02 -0.4051764E+06 -0.2982161E+06
  0.1814286E+01  0.1110732E+06  0.1262120E+06  0.1665251E-02 -0.2822876E-03 -0.3965241E+06 -0.2980942E+06
  0.1845238E+01  0.1075829E+06  0.1277595E+06  0.7276966E-03  0.1159668E-02 -0.3883210E+06 -0.2967110E+06
  0.1876190E+01  0.1041691E+06  0.1286130E+06  0.3692317E-02 -0.4425049E-03 -0.3804258E+06 -0.2932375E+06
  0.1907143E+01  0.1008651E+06  0.1288590E+06  0.7040760E-03  0.1754761E-03 -0.3730069E+06 -0.2882285E+06
  0.1938095E+01  0.9782456E+05  0.1289138E+06 -0.1716333E-02  0.1907349E-03 -0.3666262E+06 -0.2833604E+06
  0.1969048E+01  0.9501827E+05  0.1286500E+06 -0.2681266E-02 -0.6408691E-03 -0.3609889E+06 -0.2778339E+06
  0.2000000E+01  0.9226091E+05  0.1275318E+06 -0.9307861E-03 -0.1754761E-03 -0.3555238E+06 -0.2698527E+06
Zone t="Motion of body    1 in DoF   2",I=    64,F=POINT
  0.5000000E-01  0.3395081E-02 -0.1549721E-04  0.3204478E+05  0.4316701E+02 -0.3662109E-02  0.3910065E-04
  0.8095238E-01  0.4429536E-02  0.1239777E-04  0.3185327E+05  0.7129792E+02  0.1319436E-02 -0.1811981E-04
  0.1119048E+00  0.1653306E-02  0.3480911E-04  0.3169622E+05  0.1015044E+03 -0.1895336E-01  0.7772446E-04
  0.1428571E+00 -0.5367279E-02  0.2670288E-04  0.3162662E+05  0.1347845E+03 -0.8544921E-03 -0.3528595E-04
  0.1738095E+00  0.8340077E-03 -0.2193451E-04  0.3153649E+05  0.1721321E+03 -0.4740676E-02 -0.2098083E-03
  0.2047619E+00  0.1862992E-02  0.7629395E-05  0.3149746E+05  0.2152609E+03  0.1535105E-01 -0.7057190E-04
  0.2357143E+00 -0.4207726E-03 -0.1430511E-04  0.3152009E+05  0.2659880E+03  0.3754587E-02 -0.4386902E-03
  0.2666667E+00  0.1573563E-02 -0.1335144E-03  0.3146409E+05  0.3254684E+03 -0.1407623E-01 -0.2861023E-04
  0.2976190E+00 -0.1230469E-02  0.7247925E-04  0.3150488E+05  0.3979366E+03 -0.9023437E-02 -0.2002716E-03
  0.3285715E+00  0.2043351E-02 -0.2784729E-03  0.3145179E+05  0.4838109E+03  0.1114555E-01  0.1602173E-03
  0.3595238E+00  0.1718887E-02 -0.1220703E-03  0.3147776E+05  0.5875328E+03 -0.1103483E-01 -0.8354187E-03
  0.3904762E+00 -0.1582634E-02  0.3967285E-03  0.3140277E+05  0.7103757E+03  0.1906976E-01 -0.1613617E-02
  0.4214286E+00  0.3638833E-02  0.2059937E-03  0.3135220E+05  0.8483130E+03 -0.2650374E-01  0.5569458E-03
  0.4523810E+00  0.2698396E-02 -0.4539490E-03  0.3124479E+05  0.1010027E+04 -0.5936472E-02 -0.3814697E-04
  0.4833333E+00  0.1452216E-02 -0.1068115E-03  0.3109415E+05  0.1172227E+04 -0.6566541E-02  0.1983643E-03
  0.5142857E+00 -0.9494358E-03  0.1373291E-03  0.3095018E+05  0.1347246E+04 -0.4865859E-02  0.2967834E-02
  0.5452381E+00  0.1539205E-02  0.2288818E-04  0.3070842E+05  0.1518777E+04  0.1007480E-01 -0.9155273E-04
  0.5761905E+00  0.1562449E-02  0.4577637E-03  0.3052480E+05  0.1680591E+04 -0.2139761E-01  0.4226685E-02
  0.6071429E+00  0.4272460E-03  0.5493164E-03  0.3026171E+05  0.1841139E+04 -0.7238050E-02  0.1022339E-02
  0.6380953E+00 -0.4304345E-03 -0.1358032E-02  0.2999389E+05  0.1979267E+04  0.1683477E-01  0.6439209E-02
  0.6690477E+00 -0.2417513E-02 -0.1983643E-03  0.2980196E+05  0.2105056E+04  0.8027969E-02 -0.3677368E-02
  0.7000000E+00  0.4446847E-02 -0.3356934E-03  0.2951962E+05  0.2216927E+04 -0.1988002E-01  0.3112793E-02
  0.7309524E+00 -0.1670017E-03  0.2593994E-03  0.2924905E+05  0.2306766E+04 -0.1670017E-02 -0.5798340E-03
  0.7619048E+00 -0.3104210E-03  0.1358032E-02  0.2904434E+05  0.2379836E+04  0.1409912E-01 -0.1480103E-02
  0.7928572E+00  0.3127364E-02  0.1174927E-02  0.2884842E+05  0.2433411E+04 -0.1139323E-01 -0.2578735E-02
  0.8238096E+00  0.2139317E-02 -0.6256104E-03  0.2857857E+05  0.2462240E+04 -0.2000401E-01 -0.2136230E-03
  0.8547620E+00  0.2811612E-02  0.2334595E-02  0.2837135E+05  0.2474223E+04 -0.1042528E-01 -0.6866455E-02
  0.8857143E+00  0.7752449E-03  0.7171631E-03  0.2822877E+05  0.2472238E+04 -0.2205141E-02 -0.6881714E-02
  0.9166667E+00  0.2546831E-02  0.2227783E-02  0.2808747E+05  0.2446025E+04 -0.9987570E-02 -0.1234436E-01
  0.9476191E+00  0.4065815E-02 -0.1464844E-02  0.2788723E+05  0.2391911E+04 -0.2318722E-02  0.1290894E-01
  0.9785714E+00  0.1508615E-02  0.3051758E-03  0.2773999E+05  0.2328863E+04 -0.9605241E-02  0.6637573E-02
  0.1009524E+01  0.1160064E-02  0.6103516E-03  0.2765175E+05  0.2261435E+04 -0.1717046E-01  0.6423950E-02
  0.1040476E+01  0.1974302E-02  0.6408691E-03  0.2763621E+05  0.2199185E+04 -0.1583841E-01  0.2471924E-02
  0.1071429E+01  0.2921295E-02  0.4882812E-03  0.2750180E+05  0.2074580E+04 -0.1640625E-01 -0.2273560E-02
  0.1102381E+01  0.1148884E-02 -0.2624512E-02  0.2740356E+05  0.1951282E+04 -0.9190866E-02  0.3967285E-03
  0.1133333E+01  0.3820307E-03  0.1525879E-02  0.2734825E+05  0.1833767E+04 -0.3231273E-03  0.1358032E-02
  0.1164286E+01  0.3656492E-02 -0.1037598E-02  0.2734129E+05  0.1730209E+04 -0.7339196E-02  0.6736755E-02
  0.1195238E+01  0.1506425E-02  0.6713867E-03  0.2738497E+05  0.1651577E+04 -0.1021305E-03  0.1373291E-03
  0.1226190E+01 -0.3391007E-03  0.1678467E-02  0.2735857E+05  0.1503859E+04  0.2887022E-02 -0.2128601E-02
  0.1257143E+01  0.2190850E-02  0.1159668E-02  0.2733125E+05  0.1350494E+04 -0.9613037E-02 -0.5630493E-02
  0.1288095E+01 -0.2961502E-03  0.1129150E-02  0.2732870E+05  0.1212583E+04  0.3601187E-02  0.8163452E-03
  0.1319048E+01  0.7750583E-03  0.1434326E-02  0.2734962E+05  0.1098683E+04  0.8514074E-02  0.1770020E-02
  0.1350000E+01  0.2147533E-02  0.9460449E-03  0.2740040E+05  0.1016653E+04 -0.9765625E-02  0.6256104E-02
  0.1380952E+01  0.9336800E-03  0.2349854E-02  0.2747791E+05  0.9788221E+03 -0.3535830E-03 -0.4707336E-02
  0.1411905E+01 -0.1448170E-02  0.2746582E-03  0.2750605E+05  0.8495446E+03  0.1210411E-01  0.2937317E-02
  0.1442857E+01  0.2961112E-03  0.3356934E-03  0.2752986E+05  0.7076604E+03 -0.2707302E-02 -0.1937866E-02
  0.1473810E+01  0.1056036E-02  0.1586914E-02  0.2755959E+05  0.5880111E+03 -0.1109874E-01 -0.2353668E-02
  0.1504762E+01  0.1318243E-03  0.8239746E-03  0.2760176E+05  0.4986809E+03  0.1297963E-02  0.3520966E-02
  0.1535714E+01  0.7253247E-03 -0.3051758E-03  0.2765149E+05  0.4411654E+03 -0.5405160E-02 -0.1232147E-02
  0.1566667E+01  0.1373291E-02  0.3662109E-03  0.2770905E+05  0.4181504E+03 -0.5610040E-02  0.2670288E-04
  0.1597619E+01  0.5921593E-03 -0.1190186E-02  0.2777033E+05  0.4416061E+03 -0.6876688E-02 -0.1144409E-04
  0.1628572E+01  0.1077485E-02  0.4119873E-03  0.2781520E+05  0.3528421E+03 -0.1034385E-01 -0.1029968E-03
  0.1659524E+01  0.1250476E-02  0.1983643E-02  0.2785832E+05  0.2556734E+03 -0.7944203E-02 -0.1785278E-02
  0.1690476E+01  0.8845799E-03  0.1098633E-02  0.2789596E+05  0.1751786E+03 -0.8087588E-02  0.5817413E-03
  0.1721429E+01  0.1568933E-02  0.8239746E-03  0.2793618E+05  0.1292659E+03 -0.3687435E-02  0.1054764E-02
  0.1752381E+01 -0.1053603E-02 -0.1373291E-03  0.2797271E+05  0.9638406E+02  0.1323534E-01 -0.8010864E-03
  0.1783333E+01  0.1762604E-02  0.2975464E-03  0.2800878E+05  0.9413014E+02 -0.8077176E-02 -0.1242638E-02
  0.1814286E+01  0.1135398E-02  0.9155273E-03  0.2804054E+05  0.1086726E+03 -0.7131982E-02 -0.9188652E-03
  0.1845238E+01  0.1637317E-02 -0.1220703E-03  0.2806658E+05  0.1509938E+03 -0.9658518E-02  0.6704330E-03
  0.1876190E+01  0.8783486E-03 -0.5035400E-03  0.2810248E+05  0.1162639E+03 -0.7807543E-02 -0.1597404E-03
  0.1907143E+01  0.3760406E-03  0.7629395E-05  0.2814122E+05  0.6495210E+02 -0.3072332E-02 -0.1510620E-02
  0.1938095E+01 -0.1047120E-02  0.2212524E-03  0.2817126E+05  0.3148256E+02  0.6298468E-02 -0.3678799E-03
  0.1969048E+01  0.6974392E-03 -0.2136230E-03  0.2819677E+05  0.8927916E+01 -0.2479784E-02  0.4220009E-04
  0.2000000E+01  0.1037598E-02 -0.3814697E-05  0.2821978E+05  0.3796905E+00 -0.5737305E-02 -0.1313888E-02
Zone t="Motion of body    1 in DoF   3",I=    64,F=POINT
  0.5000000E-01 -0.4766057E+06 -0.4931268E-01 -0.2204895E-01 -0.1067025E-03  0.2173799E+07  0.1865366E+00
  0.8095238E-01 -0.4792369E+06 -0.2138495E+00 -0.2685996E-01 -0.7051846E-04  0.2179961E+07  0.8041187E+00
  0.1119048E+00 -0.4798234E+06 -0.5964206E+00 -0.5113317E-01 -0.4051833E-03  0.2181252E+07  0.2239888E+01
  0.1428571E+00 -0.4804047E+06 -0.1339706E+01 -0.8117676E-02  0.7956894E-04  0.2182778E+07  0.5028931E+01
  0.1738095E+00 -0.4807955E+06 -0.2653369E+01  0.1176390E-01  0.1536058E-03  0.2183884E+07  0.9948621E+01
  0.2047619E+00 -0.4812463E+06 -0.4872186E+01  0.2094003E-01  0.4627760E-03  0.2185094E+07  0.1824170E+02
  0.2357143E+00 -0.4818938E+06 -0.8525644E+01  0.1171690E-01  0.2597459E-03  0.2187148E+07  0.3187857E+02
  0.2666667E+00 -0.4822456E+06 -0.1443196E+02  0.2540588E-01  0.1173377E-02  0.2188064E+07  0.5385063E+02
  0.2976190E+00 -0.4830466E+06 -0.2402025E+02 -0.3076172E-01 -0.1198962E-02  0.2190234E+07  0.8941529E+02
  0.3285715E+00 -0.4837002E+06 -0.3935599E+02 -0.2099078E-01 -0.9536743E-04  0.2192299E+07  0.1461859E+03
  0.3595238E+00 -0.4847625E+06 -0.6400710E+02 -0.5517416E-02  0.6554127E-03  0.2195239E+07  0.2371322E+03
  0.3904762E+00 -0.4855075E+06 -0.1031668E+03  0.3438810E-02 -0.8177757E-04  0.2197434E+07  0.3811523E+03
  0.4214286E+00 -0.4867056E+06 -0.1640536E+03  0.1665535E-01  0.1858294E-02  0.2200697E+07  0.6040319E+03
  0.4523810E+00 -0.4879488E+06 -0.2584223E+03 -0.3959896E-01 -0.2882361E-02  0.2204800E+07  0.9488448E+03
  0.4833333E+00 -0.4892931E+06 -0.3966448E+03  0.1313308E-01  0.1238108E-02  0.2208661E+07  0.1450726E+04
  0.5142857E+00 -0.4908560E+06 -0.5988821E+03 -0.4391141E-02 -0.1378059E-03  0.2212923E+07  0.2181754E+04
  0.5452381E+00 -0.4926285E+06 -0.8817121E+03  0.4253804E-02  0.2608299E-02  0.2218382E+07  0.3199615E+04
  0.5761905E+00 -0.4949120E+06 -0.1267182E+04  0.1726639E-01  0.3212452E-02  0.2224848E+07  0.4578496E+04
  0.6071429E+00 -0.4966580E+06 -0.1786004E+04 -0.3046013E-01 -0.5463600E-02  0.2230152E+07  0.6424510E+04
  0.6380953E+00 -0.4988465E+06 -0.2460685E+04 -0.2152172E-01 -0.5512238E-03  0.2236465E+07  0.8807508E+04
  0.6690477E+00 -0.5014965E+06 -0.3331669E+04  0.1605594E-01  0.2261162E-02  0.2243785E+07  0.1186179E+05
  0.7000000E+00 -0.5038198E+06 -0.4437965E+04  0.2467564E-01  0.1097107E-01  0.2250738E+07  0.1571957E+05
  0.7309524E+00 -0.5067115E+06 -0.5818500E+04 -0.2738828E-01 -0.7041931E-02  0.2259016E+07  0.2049935E+05
  0.7619048E+00 -0.5095954E+06 -0.7526000E+04 -0.2082824E-02  0.3849030E-02  0.2266574E+07  0.2634864E+05
  0.7928572E+00 -0.5123483E+06 -0.9607199E+04  0.2001513E-01  0.4722595E-02  0.2274030E+07  0.3342443E+05
  0.8238096E+00 -0.5152103E+06 -0.1211906E+05  0.1185423E-01  0.5779266E-02  0.2281776E+07  0.4189346E+05
  0.8547620E+00 -0.5180632E+06 -0.1511654E+05 -0.7640445E-02 -0.2559662E-02  0.2289296E+07  0.5190078E+05
  0.8857143E+00 -0.5213739E+06 -0.1867174E+05  0.1846806E-01  0.1222229E-01  0.2297358E+07  0.6364876E+05
  0.9166667E+00 -0.5242608E+06 -0.2281850E+05 -0.1032049E-01 -0.5584717E-02  0.2304573E+07  0.7723012E+05
  0.9476191E+00 -0.5269445E+06 -0.2762074E+05 -0.2859758E-01 -0.6828308E-02  0.2310843E+07  0.9277142E+05
  0.9785714E+00 -0.5294027E+06 -0.3313648E+05 -0.1259908E-01 -0.7934570E-03  0.2315850E+07  0.1103937E+06
  0.1009524E+01 -0.5318532E+06 -0.3943243E+05 -0.1765413E-01 -0.5599976E-02  0.2320417E+07  0.1302410E+06
  0.1040476E+01 -0.5342419E+06 -0.4654723E+05 -0.7039295E-03  0.1129150E-02  0.2324686E+07  0.1524134E+06
  0.1071429E+01 -0.5355576E+06 -0.5446278E+05 -0.1788737E-01 -0.1058960E-01  0.2325498E+07  0.1767260E+06
  0.1102381E+01 -0.5372947E+06 -0.6330974E+05  0.5315199E-02  0.1100159E-01  0.2327376E+07  0.2035901E+06
  0.1133333E+01 -0.5380954E+06 -0.7300533E+05  0.1744887E-01  0.1382446E-01  0.2326268E+07  0.2325570E+06
  0.1164286E+01 -0.5385666E+06 -0.8358429E+05  0.2642111E-01  0.1469421E-01  0.2323611E+07  0.2635954E+06
  0.1195238E+01 -0.5384412E+06 -0.9498095E+05 -0.3063916E-03  0.1159668E-02  0.2318808E+07  0.2964213E+06
  0.1226190E+01 -0.5370252E+06 -0.1070664E+06  0.2986575E-02 -0.2746582E-02  0.2310177E+07  0.3304912E+06
  0.1257143E+01 -0.5349290E+06 -0.1198505E+06 -0.3884055E-02 -0.9002686E-02  0.2300136E+07  0.3659946E+06
  0.1288095E+01 -0.5327606E+06 -0.1334659E+06  0.3136823E-01  0.1712036E-01  0.2288992E+07  0.4029437E+06
  0.1319048E+01 -0.5291947E+06 -0.1474463E+06  0.2267335E-01  0.5462646E-02  0.2274308E+07  0.4398787E+06
  0.1350000E+01 -0.5250554E+06 -0.1618656E+06 -0.1076027E-01  0.3356934E-02  0.2257534E+07  0.4769811E+06
  0.1380952E+01 -0.5203311E+06 -0.1765985E+06  0.3889413E-02  0.3082275E-02  0.2239694E+07  0.5140270E+06
  0.1411905E+01 -0.5138908E+06 -0.1908419E+06 -0.2680195E-02  0.3814697E-02  0.2217816E+07  0.5488289E+06
  0.1442857E+01 -0.5070711E+06 -0.2052393E+06 -0.1438254E-02  0.7568359E-02  0.2195031E+07  0.5827433E+06
  0.1473810E+01 -0.5000572E+06 -0.2194135E+06  0.1060178E-01 -0.7934570E-03  0.2171678E+07  0.6148326E+06
  0.1504762E+01 -0.4914893E+06 -0.2324882E+06  0.6489814E-03  0.4089355E-02  0.2144786E+07  0.6423786E+06
  0.1535714E+01 -0.4827280E+06 -0.2449836E+06 -0.1748728E-01 -0.1434326E-02  0.2118116E+07  0.6673316E+06
  0.1566667E+01 -0.4736204E+06 -0.2565041E+06  0.2018056E-01 -0.2593994E-02  0.2090344E+07  0.6881898E+06
  0.1597619E+01 -0.4642227E+06 -0.2670056E+06  0.3132713E-02  0.4119873E-02  0.2063434E+07  0.7059585E+06
  0.1628572E+01 -0.4540694E+06 -0.2756818E+06 -0.7945278E-02 -0.2899170E-02  0.2034881E+07  0.7174109E+06
  0.1659524E+01 -0.4437934E+06 -0.2829897E+06 -0.1691821E-02  0.2258301E-02  0.2007162E+07  0.7250416E+06
  0.1690476E+01 -0.4341130E+06 -0.2893020E+06  0.2996740E-01  0.8544922E-03  0.1981562E+07  0.7295839E+06
  0.1721429E+01 -0.4242684E+06 -0.2936451E+06  0.2127367E-01  0.4119873E-02  0.1956342E+07  0.7285908E+06
  0.1752381E+01 -0.4145030E+06 -0.2961785E+06  0.4179582E-02  0.3814697E-02  0.1932304E+07  0.7222712E+06
  0.1783333E+01 -0.4052908E+06 -0.2974174E+06 -0.5476051E-02  0.3356934E-02  0.1910466E+07  0.7132414E+06
  0.1814286E+01 -0.3966453E+06 -0.2971781E+06  0.1614788E-02  0.2883911E-02  0.1889943E+07  0.6992716E+06
  0.1845238E+01 -0.3884946E+06 -0.2957712E+06  0.1772933E-01  0.9918213E-03  0.1872349E+07  0.6841034E+06
  0.1876190E+01 -0.3806168E+06 -0.2922365E+06 -0.2550464E-01 -0.2105713E-02  0.1855657E+07  0.6629351E+06
  0.1907143E+01 -0.3731877E+06 -0.2871708E+06  0.8832954E-02  0.1831055E-02  0.1840660E+07  0.6386505E+06
  0.1938095E+01 -0.3668647E+06 -0.2823570E+06 -0.3023265E-02 -0.1174927E-02  0.1829016E+07  0.6168836E+06
  0.1969048E+01 -0.3613035E+06 -0.2767881E+06  0.3849865E-01  0.5645752E-03  0.1818857E+07  0.5927101E+06
  0.2000000E+01 -0.3558450E+06 -0.2688628E+06  0.1129150E-01  0.5798340E-03  0.1809871E+07  0.5638576E+06
