VARIABLES="w (rad/s)"
"A   1   1" "B   1   1"
"A   1   2" "B   1   2"
"A   1   3" "B   1   3"
Zone t="Motion of body    1 in DoF   1",I=    64,F=POINT
  0.5000000E-01  0.2046085E+06  0.4013284E-01  0.1777649E-01  0.7857056E-04 -0.5547082E+06 -0.1049112E+00
  0.8095238E-01  0.2055682E+06  0.1767593E+00 -0.6502937E-02  0.1733529E-04 -0.5569674E+06 -0.4621783E+00
  0.1119048E+00  0.2057834E+06  0.4950864E+00  0.2454392E-02  0.2363231E-05 -0.5579638E+06 -0.1294235E+01
  0.1428571E+00  0.2063086E+06  0.1113630E+01  0.7369995E-02  0.5428493E-04 -0.5586471E+06 -0.2908514E+01
  0.1738095E+00  0.2065558E+06  0.2213416E+01  0.1975282E-01  0.5315822E-03 -0.5595914E+06 -0.5779997E+01
  0.2047619E+00  0.2071542E+06  0.4078499E+01  0.2146166E-01  0.6465539E-03 -0.5605909E+06 -0.1064239E+02
  0.2357143E+00  0.2076288E+06  0.7169035E+01  0.4790334E-02  0.3278628E-03 -0.5618301E+06 -0.1869631E+02
  0.2666667E+00  0.2083302E+06  0.1220615E+02  0.9613036E-02  0.4390553E-03 -0.5633938E+06 -0.3180541E+02
  0.2976190E+00  0.2092109E+06  0.2043361E+02 -0.6152344E-02 -0.1830161E-03 -0.5650305E+06 -0.5318058E+02
  0.3285715E+00  0.2098801E+06  0.3370947E+02  0.9659476E-02  0.5167127E-03 -0.5668429E+06 -0.8766577E+02
  0.3595238E+00  0.2108246E+06  0.5520436E+02 -0.8912749E-02 -0.1877546E-04 -0.5689947E+06 -0.1434071E+03
  0.3904762E+00  0.2120157E+06  0.8975239E+02 -0.7346548E-02 -0.2505183E-03 -0.5714329E+06 -0.2328087E+03
  0.4214286E+00  0.2132015E+06  0.1439595E+03 -0.5069021E-03  0.2306700E-03 -0.5740609E+06 -0.3728818E+03
  0.4523810E+00  0.2146643E+06  0.2289765E+03  0.1430150E-01  0.1986027E-02 -0.5780451E+06 -0.5925550E+03
  0.4833333E+00  0.2161772E+06  0.3550321E+03  0.3914669E-02  0.2548695E-03 -0.5813723E+06 -0.9171448E+03
  0.5142857E+00  0.2182346E+06  0.5420485E+03 -0.7120768E-03 -0.1893044E-03 -0.5855865E+06 -0.1397229E+04
  0.5452381E+00  0.2199272E+06  0.8069977E+03 -0.5820995E-02 -0.1163483E-03 -0.5894355E+06 -0.2076390E+04
  0.5761905E+00  0.2217338E+06  0.1172796E+04 -0.1302924E-01 -0.2036095E-02 -0.5940603E+06 -0.3012963E+04
  0.6071429E+00  0.2244390E+06  0.1675671E+04  0.4624310E-02  0.2238274E-02 -0.6002742E+06 -0.4295540E+04
  0.6380953E+00  0.2268921E+06  0.2339541E+04  0.6026083E-02  0.1443863E-02 -0.6055642E+06 -0.5982035E+04
  0.6690477E+00  0.2294969E+06  0.3210242E+04  0.1204195E-01  0.5548477E-02 -0.6110995E+06 -0.8186131E+04
  0.7000000E+00  0.2325120E+06  0.4340901E+04 -0.1665388E-01 -0.3784180E-02 -0.6184540E+06 -0.1104562E+05
  0.7309524E+00  0.2352430E+06  0.5772441E+04  0.1928870E-01  0.7293701E-02 -0.6249376E+06 -0.1465287E+05
  0.7619048E+00  0.2384839E+06  0.7577777E+04 -0.4486084E-02  0.3456116E-02 -0.6320345E+06 -0.1917617E+05
  0.7928572E+00  0.2422546E+06  0.9833462E+04  0.1170115E-01  0.8476257E-02 -0.6401022E+06 -0.2479907E+05
  0.8238096E+00  0.2456746E+06  0.1260348E+05  0.4593513E-02  0.7293701E-02 -0.6474639E+06 -0.3167824E+05
  0.8547620E+00  0.2490686E+06  0.1597471E+05 -0.2142181E-03  0.3791809E-02 -0.6551392E+06 -0.4002492E+05
  0.8857143E+00  0.2523365E+06  0.2003000E+05  0.7993637E-02  0.6423950E-02 -0.6621241E+06 -0.5000982E+05
  0.9166667E+00  0.2559901E+06  0.2487754E+05  0.9987570E-02  0.8163452E-02 -0.6703427E+06 -0.6190154E+05
  0.9476191E+00  0.2592942E+06  0.3056886E+05 -0.6440895E-03  0.1434326E-02 -0.6770228E+06 -0.7574916E+05
  0.9785714E+00  0.2623449E+06  0.3720857E+05 -0.3617558E-02  0.2487183E-02 -0.6828798E+06 -0.9179964E+05
  0.1009524E+01  0.2650852E+06  0.4487407E+05  0.9673497E-02  0.1797485E-01 -0.6878433E+06 -0.1102080E+06
  0.1040476E+01  0.2674616E+06  0.5363174E+05  0.1994467E-02  0.4943848E-02 -0.6914999E+06 -0.1310631E+06
  0.1071429E+01  0.2693677E+06  0.6354070E+05 -0.5013021E-02  0.5889893E-02 -0.6946568E+06 -0.1545795E+06
  0.1102381E+01  0.2701363E+06  0.7451813E+05  0.3875666E-02  0.1882935E-01 -0.6947272E+06 -0.1803940E+06
  0.1133333E+01  0.2701081E+06  0.8660002E+05 -0.4523782E-02  0.8972168E-02 -0.6934567E+06 -0.2086869E+06
  0.1164286E+01  0.2691742E+06  0.9961561E+05  0.3459907E-02  0.1275635E-01 -0.6894296E+06 -0.2387690E+06
  0.1195238E+01  0.2673416E+06  0.1134691E+06 -0.2349002E-02  0.5920410E-02 -0.6825969E+06 -0.2703002E+06
  0.1226190E+01  0.2647675E+06  0.1281350E+06  0.4977625E-03  0.9399414E-02 -0.6746036E+06 -0.3034818E+06
  0.1257143E+01  0.2605118E+06  0.1431702E+06  0.4660866E-02  0.1135254E-01 -0.6626351E+06 -0.3370601E+06
  0.1288095E+01  0.2551318E+06  0.1583617E+06  0.2463970E-02  0.1342773E-01 -0.6476842E+06 -0.3703266E+06
  0.1319048E+01  0.2487225E+06  0.1736150E+06  0.1110531E-02  0.6713867E-02 -0.6314259E+06 -0.4036127E+06
  0.1350000E+01  0.2411324E+06  0.1882655E+06 -0.1175492E-02  0.1123047E-01 -0.6116001E+06 -0.4344698E+06
  0.1380952E+01  0.2329130E+06  0.2023399E+06 -0.9193158E-02  0.6347656E-02 -0.5904563E+06 -0.4633768E+06
  0.1411905E+01  0.2238207E+06  0.2156075E+06 -0.1729158E-03  0.2148438E-01 -0.5686448E+06 -0.4905087E+06
  0.1442857E+01  0.2142042E+06  0.2276610E+06 -0.1692064E-02  0.7995605E-02 -0.5453572E+06 -0.5141152E+06
  0.1473810E+01  0.2039317E+06  0.2381433E+06 -0.1200982E-02 -0.3662109E-03 -0.5204448E+06 -0.5332423E+06
  0.1504762E+01  0.1936684E+06  0.2473189E+06 -0.5110729E-02 -0.2868652E-02 -0.4963617E+06 -0.5493376E+06
  0.1535714E+01  0.1834911E+06  0.2550304E+06  0.2543604E-02  0.5187988E-02 -0.4729485E+06 -0.5618988E+06
  0.1566667E+01  0.1732550E+06  0.2608963E+06 -0.6856715E-02  0.4211426E-02 -0.4490896E+06 -0.5693311E+06
  0.1597619E+01  0.1634780E+06  0.2654408E+06 -0.6112612E-03  0.1403809E-02 -0.4268189E+06 -0.5737328E+06
  0.1628572E+01  0.1542831E+06  0.2688187E+06 -0.3747773E-02  0.2990723E-02 -0.4065975E+06 -0.5758770E+06
  0.1659524E+01  0.1453310E+06  0.2705610E+06  0.3089412E-02  0.2624512E-02 -0.3871910E+06 -0.5742846E+06
  0.1690476E+01  0.1368132E+06  0.2707756E+06  0.6860007E-03  0.1647949E-02 -0.3687097E+06 -0.5686468E+06
  0.1721429E+01  0.1288701E+06  0.2698812E+06  0.7800344E-03  0.2258301E-02 -0.3519433E+06 -0.5607694E+06
  0.1752381E+01  0.1216443E+06  0.2682741E+06  0.9752357E-03 -0.1159668E-02 -0.3374135E+06 -0.5521958E+06
  0.1783333E+01  0.1149963E+06  0.2655709E+06 -0.2327322E-02  0.9155273E-03 -0.3240492E+06 -0.5406563E+06
  0.1814286E+01  0.1089321E+06  0.2619477E+06  0.1009243E-02 -0.2624512E-02 -0.3118951E+06 -0.5266696E+06
  0.1845238E+01  0.1035690E+06  0.2579525E+06  0.6714655E-02  0.4028320E-02 -0.3016090E+06 -0.5123780E+06
  0.1876190E+01  0.9888725E+05  0.2537768E+06  0.3578457E-02  0.5798340E-03 -0.2931534E+06 -0.4985021E+06
  0.1907143E+01  0.9454719E+05  0.2488935E+06  0.1280138E-03 -0.4180908E-02 -0.2855739E+06 -0.4834444E+06
  0.1938095E+01  0.9071018E+05  0.2435322E+06  0.1669094E-02  0.2441406E-03 -0.2790509E+06 -0.4670644E+06
  0.1969048E+01  0.8722660E+05  0.2375295E+06 -0.1146900E-02  0.2471924E-02 -0.2733191E+06 -0.4490534E+06
  0.2000000E+01  0.8422519E+05  0.2317137E+06 -0.2044678E-02  0.1983643E-02 -0.2688821E+06 -0.4326821E+06
Zone t="Motion of body    1 in DoF   2",I=    64,F=POINT
  0.5000000E-01 -0.5340576E-03 -0.9250641E-04  0.1317072E+06  0.2732015E+03 -0.1953125E-01  0.4310608E-03
  0.8095238E-01  0.7068409E-03  0.6008148E-04  0.1304968E+06  0.4514459E+03 -0.1281738E-01  0.3204346E-03
  0.1119048E+00  0.1111294E-01  0.1192093E-03  0.1295360E+06  0.6431830E+03  0.2072598E-01  0.3662109E-03
  0.1428571E+00 -0.9613037E-03 -0.2155304E-03  0.1290536E+06  0.8548380E+03 -0.1708984E-02  0.1335144E-02
  0.1738095E+00 -0.4126144E-02  0.2517700E-03  0.1287399E+06  0.1093151E+04  0.1615341E-01  0.3662109E-03
  0.2047619E+00 -0.1415874E-02 -0.3280640E-03  0.1283979E+06  0.1368904E+04 -0.3040402E-01 -0.5111694E-03
  0.2357143E+00  0.2524636E-02 -0.5874634E-03  0.1284723E+06  0.1694161E+04  0.1346472E-01 -0.5493164E-03
  0.2666667E+00 -0.1316070E-02 -0.8811951E-03  0.1282883E+06  0.2077292E+04  0.1190185E-01  0.3662109E-03
  0.2976190E+00 -0.5485840E-02  0.1678467E-03  0.1284264E+06  0.2544860E+04  0.6234375E-01 -0.1419067E-02
  0.3285715E+00  0.7337486E-02 -0.7247925E-03  0.1282855E+06  0.3101684E+04 -0.3715183E-01  0.1831055E-03
  0.3595238E+00 -0.3734866E-02 -0.4043579E-03  0.1284310E+06  0.3775515E+04  0.1358133E-02  0.1831055E-03
  0.3904762E+00  0.8597024E-03 -0.5340576E-03  0.1280472E+06  0.4578151E+04 -0.1125429E-01 -0.1281738E-02
  0.4214286E+00 -0.9051823E-02  0.1525879E-04  0.1279839E+06  0.5483129E+04 -0.5793167E-03 -0.2716064E-02
  0.4523810E+00  0.1079358E-01  0.4730225E-03  0.1271116E+06  0.6548403E+04  0.2158717E-01 -0.8789062E-02
  0.4833333E+00 -0.1666891E-01 -0.9155273E-04  0.1263786E+06  0.7626777E+04  0.2828664E-01 -0.6103516E-04
  0.5142857E+00 -0.1168993E-01 -0.3356934E-03  0.1252696E+06  0.8797021E+04  0.6646051E-01  0.7751465E-02
  0.5452381E+00  0.3190353E-02  0.1296997E-02  0.1238907E+06  0.9957406E+04  0.4477689E-02 -0.1300049E-01
  0.5761905E+00 -0.7891694E-02  0.1770020E-02  0.1229248E+06  0.1105884E+05  0.1610117E-01  0.7446289E-02
  0.6071429E+00 -0.4071403E-02 -0.2624512E-02  0.1209899E+06  0.1217941E+05 -0.2653952E-01 -0.1586914E-02
  0.6380953E+00 -0.4686953E-02 -0.8239746E-03  0.1194610E+06  0.1316016E+05  0.5203475E-01 -0.1098633E-01
  0.6690477E+00 -0.5063094E-02 -0.1922607E-02  0.1182402E+06  0.1405686E+05 -0.8757784E-02 -0.9155273E-02
  0.7000000E+00  0.8719307E-03  0.1028442E-01  0.1162322E+06  0.1490425E+05 -0.2162388E-01  0.7080078E-02
  0.7309524E+00 -0.1068811E-01 -0.5981445E-02  0.1146035E+06  0.1560779E+05 -0.2538426E-01 -0.1831055E-02
  0.7619048E+00  0.7369994E-02  0.1922607E-02  0.1134238E+06  0.1619789E+05 -0.1281738E-02  0.2868652E-01
  0.7928572E+00  0.2078494E-02 -0.1171875E-01  0.1116918E+06  0.1667145E+05  0.2709741E-01 -0.8544922E-02
  0.8238096E+00 -0.2148578E-02  0.6042480E-02  0.1100594E+06  0.1702740E+05  0.4089708E-01 -0.5493164E-02
  0.8547620E+00 -0.1028247E-01  0.2014160E-02  0.1087878E+06  0.1726393E+05  0.3655989E-01 -0.1367188E-01
  0.8857143E+00 -0.7338985E-02  0.1013184E-01  0.1079207E+06  0.1736376E+05  0.2866684E-01 -0.5249023E-02
  0.9166667E+00 -0.1414906E-01 -0.1831055E-02  0.1064346E+06  0.1731011E+05  0.2929688E-01  0.3808594E-01
  0.9476191E+00  0.9419810E-02 -0.1342773E-02  0.1051895E+06  0.1715753E+05  0.3091630E-02  0.2990723E-01
  0.9785714E+00 -0.8498143E-02 -0.1708984E-02  0.1042345E+06  0.1691713E+05  0.2993841E-01 -0.6347656E-02
  0.1009524E+01  0.3944973E-02 -0.1379395E-01  0.1036824E+06  0.1660262E+05  0.5320423E-02  0.2502441E-01
  0.1040476E+01 -0.3460987E-02 -0.9521484E-02  0.1029682E+06  0.1612408E+05  0.1032430E-01  0.2294922E-01
  0.1071429E+01 -0.4322306E-02 -0.4821777E-02  0.1020455E+06  0.1554178E+05  0.2233073E-01  0.1647949E-01
  0.1102381E+01 -0.4951856E-02 -0.7873535E-02  0.1013722E+06  0.1488713E+05  0.1948906E-01 -0.8544922E-03
  0.1133333E+01 -0.6407850E-02 -0.3356934E-02  0.1009973E+06  0.1426207E+05  0.3403607E-01  0.1721191E-01
  0.1164286E+01 -0.8566218E-02  0.1708984E-02  0.1009510E+06  0.1365364E+05  0.3313123E-01 -0.2148438E-01
  0.1195238E+01 -0.5744843E-04 -0.5310059E-02  0.1008511E+06  0.1291585E+05  0.1062158E-01  0.6103516E-02
  0.1226190E+01 -0.6072702E-02  0.1525879E-02  0.1003924E+06  0.1199776E+05  0.3344963E-01  0.6835938E-02
  0.1257143E+01 -0.3095106E-02 -0.6164551E-02  0.1001697E+06  0.1113902E+05  0.1165217E-01  0.4534912E-01
  0.1288095E+01 -0.2890426E-02 -0.1318359E-01  0.1001010E+06  0.1029968E+05  0.3184208E-01  0.1397705E-01
  0.1319048E+01 -0.1503845E-02 -0.2868652E-02  0.1002566E+06  0.9647064E+04  0.7403542E-03  0.5859375E-02
  0.1350000E+01 -0.2554434E-02 -0.6896973E-02  0.1006045E+06  0.9095033E+04  0.2314815E-01  0.5157471E-01
  0.1380952E+01 -0.1104947E-04 -0.2075195E-02  0.1008252E+06  0.8344248E+04 -0.2828664E-02  0.4882812E-03
  0.1411905E+01 -0.3415087E-02 -0.1135254E-01  0.1007731E+06  0.7367536E+04  0.2766652E-02  0.2172852E-01
  0.1442857E+01 -0.2115080E-03  0.7629395E-02  0.1009033E+06  0.6572218E+04 -0.2030476E-02  0.7141113E-02
  0.1473810E+01 -0.2588324E-02 -0.1879883E-01  0.1010955E+06  0.5807492E+04  0.1126439E-01  0.9887695E-02
  0.1504762E+01 -0.2778452E-02 -0.6286621E-02  0.1013705E+06  0.5281401E+04  0.2855518E-01  0.1467896E-01
  0.1535714E+01 -0.1927575E-02 -0.1647949E-02  0.1017256E+06  0.4923803E+04  0.3370276E-01  0.8209229E-02
  0.1566667E+01  0.5454205E-03  0.2624512E-02  0.1021469E+06  0.4689598E+04  0.1433677E-01  0.9948730E-02
  0.1597619E+01 -0.9550956E-04 -0.4302979E-02  0.1024428E+06  0.4088936E+04  0.4890089E-02  0.1712036E-01
  0.1628572E+01  0.1892625E-02  0.1208496E-01  0.1026319E+06  0.3352599E+04  0.6596080E-02 -0.4333496E-02
  0.1659524E+01 -0.6509833E-02 -0.1565552E-01  0.1028921E+06  0.2868580E+04  0.2059608E-01  0.2459717E-01
  0.1690476E+01 -0.6137901E-03 -0.5889893E-02  0.1031706E+06  0.2413922E+04 -0.3466109E-02  0.2349854E-01
  0.1721429E+01 -0.3013769E-03 -0.1046753E-01  0.1034355E+06  0.2089267E+04 -0.2269191E-02  0.1594543E-01
  0.1752381E+01  0.2089791E-03 -0.3417969E-02  0.1037050E+06  0.1942558E+04  0.7244608E-02  0.9002686E-02
  0.1783333E+01 -0.1317675E-02 -0.1046753E-01  0.1039762E+06  0.1859531E+04 -0.3833236E-02  0.2056885E-01
  0.1814286E+01  0.1480223E-02  0.3479004E-02  0.1042455E+06  0.1812831E+04 -0.3767840E-02 -0.2288818E-02
  0.1845238E+01 -0.1405778E-02 -0.2502441E-02  0.1045099E+06  0.1479958E+04  0.4233871E-02  0.6088257E-02
  0.1876190E+01 -0.1041006E-02 -0.1074219E-01  0.1047172E+06  0.1093877E+04 -0.5205029E-02  0.1776123E-01
  0.1907143E+01  0.4288463E-02  0.5798340E-03  0.1049199E+06  0.9617513E+03 -0.9729050E-02  0.4043579E-03
  0.1938095E+01  0.2141479E-02 -0.7171631E-03  0.1051172E+06  0.8451033E+03  0.2821714E-01  0.5569458E-02
  0.1969048E+01  0.5207547E-02 -0.3936768E-02  0.1053058E+06  0.7351578E+03 -0.2132614E-01  0.8705139E-02
  0.2000000E+01  0.4425049E-03 -0.3997803E-02  0.1054652E+06  0.7119127E+03  0.1367188E-01  0.6984711E-02
Zone t="Motion of body    1 in DoF   3",I=    64,F=POINT
  0.5000000E-01 -0.5533258E+06 -0.1040235E+00 -0.3921509E-01 -0.3015210E-03  0.1903220E+07  0.2723528E+00
  0.8095238E-01 -0.5554479E+06 -0.4585113E+00 -0.5920971E-01 -0.3380072E-03  0.1907852E+07  0.1199153E+01
  0.1119048E+00 -0.5565402E+06 -0.1283507E+01  0.3993501E-01  0.5454207E-03  0.1910956E+07  0.3355330E+01
  0.1428571E+00 -0.5571862E+06 -0.2885609E+01  0.1348495E-01 -0.6406866E-03  0.1911654E+07  0.7536259E+01
  0.1738095E+00 -0.5581499E+06 -0.5733063E+01 -0.1245744E+00 -0.2250865E-02  0.1914914E+07  0.1497249E+02
  0.2047619E+00 -0.5591709E+06 -0.1055884E+02 -0.2336192E-01 -0.1182050E-02  0.1915880E+07  0.2755484E+02
  0.2357143E+00 -0.5603359E+06 -0.1854786E+02  0.3278790E-01  0.3890246E-03  0.1919533E+07  0.4837334E+02
  0.2666667E+00 -0.5619750E+06 -0.3155286E+02 -0.5805015E-01 -0.1304477E-02  0.1922833E+07  0.8221704E+02
  0.2976190E+00 -0.5635272E+06 -0.5277740E+02 -0.6126709E-01 -0.3647804E-02  0.1925937E+07  0.1373574E+03
  0.3285715E+00 -0.5654185E+06 -0.8697834E+02  0.7476806E-02 -0.3184676E-03  0.1930719E+07  0.2261971E+03
  0.3595238E+00 -0.5674061E+06 -0.1422835E+03 -0.6145553E-01 -0.4539967E-02  0.1935691E+07  0.3696182E+03
  0.3904762E+00 -0.5699549E+06 -0.2310482E+03 -0.9437188E-02 -0.2497673E-02  0.1940269E+07  0.5993190E+03
  0.4214286E+00 -0.5724649E+06 -0.3700950E+03  0.4507808E-01  0.3196239E-02  0.1947220E+07  0.9586169E+03
  0.4523810E+00 -0.5765819E+06 -0.5878803E+03 -0.8418996E-01 -0.9114265E-02  0.1956821E+07  0.1521335E+04
  0.4833333E+00 -0.5798578E+06 -0.9100182E+03  0.4203533E-01 -0.8020401E-03  0.1964978E+07  0.2350830E+04
  0.5142857E+00 -0.5840351E+06 -0.1387091E+04  0.1967112E-01  0.1683235E-02  0.1973144E+07  0.3575471E+04
  0.5452381E+00 -0.5879127E+06 -0.2061386E+04 -0.1157203E-01 -0.3915787E-02  0.1982046E+07  0.5303948E+04
  0.5761905E+00 -0.5923232E+06 -0.2990029E+04 -0.2019929E-01 -0.5859375E-02  0.1994081E+07  0.7681564E+04
  0.6071429E+00 -0.5986841E+06 -0.4263427E+04 -0.1064659E+00 -0.3360748E-01  0.2007762E+07  0.1092942E+05
  0.6380953E+00 -0.6039675E+06 -0.5939007E+04 -0.1317787E+00 -0.3142166E-01  0.2019740E+07  0.1518560E+05
  0.6690477E+00 -0.6092723E+06 -0.8130209E+04 -0.7655649E-01 -0.3392792E-01  0.2031911E+07  0.2073215E+05
  0.7000000E+00 -0.6167748E+06 -0.1096653E+05  0.5742754E-01  0.1666260E-01  0.2049274E+07  0.2790522E+05
  0.7309524E+00 -0.6232033E+06 -0.1454397E+05 -0.6377900E-01 -0.3369904E-01  0.2064294E+07  0.3691863E+05
  0.7619048E+00 -0.6301417E+06 -0.1903766E+05  0.2471351E-01 -0.1495361E-02  0.2080474E+07  0.4817620E+05
  0.7928572E+00 -0.6382456E+06 -0.2462977E+05 -0.2286344E-01 -0.1504517E-01  0.2097081E+07  0.6211251E+05
  0.8238096E+00 -0.6456202E+06 -0.3146749E+05  0.3950791E-01 -0.6317139E-02  0.2112858E+07  0.7909149E+05
  0.8547620E+00 -0.6533009E+06 -0.3975323E+05 -0.6953162E-01 -0.4782104E-01  0.2131344E+07  0.9960411E+05
  0.8857143E+00 -0.6600329E+06 -0.4967198E+05 -0.3800423E-01 -0.2841187E-01  0.2146130E+07  0.1240217E+06
  0.9166667E+00 -0.6683030E+06 -0.6146563E+05 -0.1146906E-01 -0.2441406E-03  0.2163488E+07  0.1529386E+06
  0.9476191E+00 -0.6749998E+06 -0.7522001E+05  0.3898352E-01  0.8636475E-02  0.2176434E+07  0.1863883E+06
  0.9785714E+00 -0.6808885E+06 -0.9117973E+05  0.2267211E-01  0.2258301E-01  0.2187940E+07  0.2249532E+06
  0.1009524E+01 -0.6857771E+06 -0.1094889E+06 -0.3068312E-01 -0.5133057E-01  0.2197191E+07  0.2689039E+06
  0.1040476E+01 -0.6893302E+06 -0.1302617E+06 -0.5371862E-01 -0.4718018E-01  0.2201140E+07  0.3183207E+06
  0.1071429E+01 -0.6926428E+06 -0.1536131E+06  0.8057862E-01  0.3015137E-01  0.2205560E+07  0.3736959E+06
  0.1102381E+01 -0.6926747E+06 -0.1792588E+06 -0.3276322E-01 -0.4980469E-01  0.2201424E+07  0.4339387E+06
  0.1133333E+01 -0.6914632E+06 -0.2073028E+06 -0.2811207E-01 -0.3076172E-01  0.2196534E+07  0.4995736E+06
  0.1164286E+01 -0.6873792E+06 -0.2371593E+06  0.3136523E-01  0.2099609E-01  0.2183639E+07  0.5684886E+06
  0.1195238E+01 -0.6804246E+06 -0.2685477E+06  0.2305278E-01 -0.3430176E-01  0.2161810E+07  0.6397081E+06
  0.1226190E+01 -0.6727061E+06 -0.3015026E+06 -0.3846459E-01 -0.5810547E-01  0.2138636E+07  0.7140099E+06
  0.1257143E+01 -0.6608332E+06 -0.3347839E+06  0.2621737E-02  0.2197266E-02  0.2106306E+07  0.7880948E+06
  0.1288095E+01 -0.6459805E+06 -0.3679371E+06  0.2795658E-01 -0.8789062E-02  0.2066663E+07  0.8602958E+06
  0.1319048E+01 -0.6299345E+06 -0.4009114E+06  0.2336743E-01  0.3503418E-01  0.2028172E+07  0.9321402E+06
  0.1350000E+01 -0.6100678E+06 -0.4315890E+06  0.2717195E-01  0.1928711E-01  0.1978100E+07  0.9961161E+06
  0.1380952E+01 -0.5888843E+06 -0.4603827E+06  0.4799889E-01  0.3259277E-01  0.1924837E+07  0.1054254E+07
  0.1411905E+01 -0.5673722E+06 -0.4869518E+06 -0.8645789E-02 -0.2124023E-01  0.1872285E+07  0.1107463E+07
  0.1442857E+01 -0.5443865E+06 -0.5103541E+06  0.2233524E-01 -0.1342773E-01  0.1817509E+07  0.1152301E+07
  0.1473810E+01 -0.5195380E+06 -0.5293492E+06 -0.5300888E-02 -0.8789062E-02  0.1757867E+07  0.1184780E+07
  0.1504762E+01 -0.4957492E+06 -0.5454095E+06  0.2831181E-01  0.2246094E-01  0.1703796E+07  0.1211226E+07
  0.1535714E+01 -0.4725996E+06 -0.5579256E+06  0.4252589E-01 -0.1611328E-01  0.1652777E+07  0.1229684E+07
  0.1566667E+01 -0.4486493E+06 -0.5652797E+06  0.2859562E-01  0.8422852E-02  0.1598104E+07  0.1233793E+07
  0.1597619E+01 -0.4263893E+06 -0.5696432E+06  0.1956036E-01  0.1074219E-01  0.1547953E+07  0.1230855E+07
  0.1628572E+01 -0.4065747E+06 -0.5718181E+06  0.5681623E-01 -0.4394531E-02  0.1504112E+07  0.1223761E+07
  0.1659524E+01 -0.3874854E+06 -0.5702953E+06 -0.3942678E-01 -0.1342773E-01  0.1463706E+07  0.1209716E+07
  0.1690476E+01 -0.3690485E+06 -0.5646157E+06  0.1516423E-01  0.3906250E-02  0.1424035E+07  0.1184121E+07
  0.1721429E+01 -0.3523925E+06 -0.5568871E+06  0.2836489E-03 -0.5981445E-02  0.1389908E+07  0.1155263E+07
  0.1752381E+01 -0.3381350E+06 -0.5486075E+06  0.1086691E-01 -0.1586914E-02  0.1363694E+07  0.1129289E+07
  0.1783333E+01 -0.3248263E+06 -0.5371962E+06  0.3970137E-02  0.4516602E-02  0.1338603E+07  0.1094420E+07
  0.1814286E+01 -0.3125214E+06 -0.5230887E+06  0.1991572E-01  0.2929688E-02  0.1314872E+07  0.1051728E+07
  0.1845238E+01 -0.3022208E+06 -0.5088262E+06 -0.2209551E-01 -0.1135254E-01  0.1295845E+07  0.1009322E+07
  0.1876190E+01 -0.2940659E+06 -0.4951873E+06 -0.4957790E-01 -0.1367188E-01  0.1281354E+07  0.9692831E+06
  0.1907143E+01 -0.2866955E+06 -0.4805160E+06  0.2291447E-01 -0.6958008E-02  0.1269848E+07  0.9308736E+06
  0.1938095E+01 -0.2802942E+06 -0.4642442E+06  0.8691886E-02 -0.7324219E-03  0.1259772E+07  0.8865967E+06
  0.1969048E+01 -0.2744741E+06 -0.4461717E+06 -0.4835579E-02 -0.2319336E-02  0.1251392E+07  0.8380048E+06
  0.2000000E+01 -0.2700950E+06 -0.4302671E+06 -0.1269531E-01 -0.4028320E-02  0.1247044E+07  0.7996463E+06
