VARIABLES="w (rad/s)"
"abs(F   1   1)" "angle(F   1   1)"
"abs(F   1   2)" "angle(F   1   2)"
"abs(F   1   3)" "angle(F   1   3)"
Zone t="Diffraction force - beta =   0.000 deg",I=    64,F=POINT
  0.5000000E-01  0.1738016E+04 -0.1570793E+01  0.6707077E+03 -0.3092056E+01  0.1348290E+04  0.1570797E+01
  0.8095238E-01  0.2830424E+04 -0.1570787E+01  0.1732684E+04 -0.3090198E+01  0.2170554E+04  0.1570797E+01
  0.1119048E+00  0.3972517E+04 -0.1570778E+01  0.3287865E+04 -0.3088102E+01  0.3061835E+04  0.1570798E+01
  0.1428571E+00  0.5134823E+04 -0.1570763E+01  0.5331669E+04 -0.3085442E+01  0.3981979E+04  0.1570799E+01
  0.1738095E+00  0.6379092E+04 -0.1570743E+01  0.7870739E+04 -0.3082133E+01  0.4966275E+04  0.1570801E+01
  0.2047619E+00  0.7644176E+04 -0.1570712E+01  0.1092032E+05 -0.3078053E+01  0.5992026E+04  0.1570804E+01
  0.2357143E+00  0.9054212E+04 -0.1570668E+01  0.1445698E+05 -0.3072789E+01  0.7159343E+04  0.1570809E+01
  0.2666667E+00  0.1055974E+05 -0.1570604E+01  0.1852342E+05 -0.3066550E+01  0.8391775E+04  0.1570817E+01
  0.2976190E+00  0.1216242E+05 -0.1570508E+01  0.2308469E+05 -0.3058602E+01  0.9775025E+04  0.1570828E+01
  0.3285715E+00  0.1399184E+05 -0.1570367E+01  0.2818245E+05 -0.3049264E+01  0.1134962E+05  0.1570848E+01
  0.3595238E+00  0.1602476E+05 -0.1570155E+01  0.3373466E+05 -0.3037796E+01  0.1313374E+05  0.1570878E+01
  0.3904762E+00  0.1815104E+05 -0.1569835E+01  0.3983746E+05 -0.3024529E+01  0.1502327E+05  0.1570923E+01
  0.4214286E+00  0.2067941E+05 -0.1569374E+01  0.4622134E+05 -0.3009434E+01  0.1734773E+05  0.1570998E+01
  0.4523810E+00  0.2347618E+05 -0.1568698E+01  0.5312005E+05 -0.2992397E+01  0.1993051E+05  0.1571110E+01
  0.4833333E+00  0.2655456E+05 -0.1567765E+01  0.6012889E+05 -0.2974979E+01  0.2274449E+05  0.1571276E+01
  0.5142857E+00  0.2973355E+05 -0.1566453E+01  0.6743033E+05 -0.2956392E+01  0.2583259E+05  0.1571519E+01
  0.5452381E+00  0.3339338E+05 -0.1564733E+01  0.7490727E+05 -0.2938130E+01  0.2938401E+05  0.1571860E+01
  0.5761905E+00  0.3741433E+05 -0.1562520E+01  0.8238298E+05 -0.2920085E+01  0.3334999E+05  0.1572336E+01
  0.6071429E+00  0.4153992E+05 -0.1559647E+01  0.9004774E+05 -0.2902127E+01  0.3745102E+05  0.1572974E+01
  0.6380953E+00  0.4575526E+05 -0.1556043E+01  0.9763634E+05 -0.2885282E+01  0.4167604E+05  0.1573801E+01
  0.6690477E+00  0.5042714E+05 -0.1551651E+01  0.1051928E+06 -0.2868678E+01  0.4668283E+05  0.1574883E+01
  0.7000000E+00  0.5539070E+05 -0.1546303E+01  0.1127935E+06 -0.2852616E+01  0.5194639E+05  0.1576268E+01
  0.7309524E+00  0.6063912E+05 -0.1539912E+01  0.1202103E+06 -0.2837182E+01  0.5747271E+05  0.1578016E+01
  0.7619048E+00  0.6609880E+05 -0.1532295E+01  0.1274277E+06 -0.2821997E+01  0.6339439E+05  0.1580211E+01
  0.7928572E+00  0.7145055E+05 -0.1523167E+01  0.1345575E+06 -0.2807675E+01  0.6944584E+05  0.1582907E+01
  0.8238096E+00  0.7696845E+05 -0.1512531E+01  0.1415743E+06 -0.2794312E+01  0.7592423E+05  0.1586113E+01
  0.8547620E+00  0.8306162E+05 -0.1500559E+01  0.1480725E+06 -0.2780404E+01  0.8274276E+05  0.1589893E+01
  0.8857143E+00  0.8942045E+05 -0.1486949E+01  0.1543725E+06 -0.2767291E+01  0.9037385E+05  0.1594439E+01
  0.9166667E+00  0.9574103E+05 -0.1471393E+01  0.1605222E+06 -0.2755523E+01  0.9807836E+05  0.1599827E+01
  0.9476191E+00  0.1020028E+06 -0.1453745E+01  0.1663987E+06 -0.2744719E+01  0.1060034E+06  0.1606115E+01
  0.9785714E+00  0.1082616E+06 -0.1434018E+01  0.1715635E+06 -0.2732998E+01  0.1137765E+06  0.1613335E+01
  0.1009524E+01  0.1143168E+06 -0.1411964E+01  0.1764250E+06 -0.2722072E+01  0.1220401E+06  0.1621620E+01
  0.1040476E+01  0.1202555E+06 -0.1388000E+01  0.1810066E+06 -0.2712150E+01  0.1305696E+06  0.1630435E+01
  0.1071429E+01  0.1260614E+06 -0.1362103E+01  0.1852546E+06 -0.2703310E+01  0.1391662E+06  0.1640180E+01
  0.1102381E+01  0.1316214E+06 -0.1334230E+01  0.1890847E+06 -0.2694999E+01  0.1479245E+06  0.1650819E+01
  0.1133333E+01  0.1367991E+06 -0.1304378E+01  0.1921706E+06 -0.2685907E+01  0.1561437E+06  0.1662476E+01
  0.1164286E+01  0.1414616E+06 -0.1272473E+01  0.1949379E+06 -0.2677728E+01  0.1646941E+06  0.1675083E+01
  0.1195238E+01  0.1453360E+06 -0.1238856E+01  0.1973326E+06 -0.2670410E+01  0.1728999E+06  0.1687873E+01
  0.1226190E+01  0.1484927E+06 -0.1203999E+01  0.1993525E+06 -0.2664177E+01  0.1807418E+06  0.1700827E+01
  0.1257143E+01  0.1506766E+06 -0.1167356E+01  0.2010484E+06 -0.2658762E+01  0.1882973E+06  0.1714195E+01
  0.1288095E+01  0.1521388E+06 -0.1130569E+01  0.2019176E+06 -0.2652768E+01  0.1949354E+06  0.1727266E+01
  0.1319048E+01  0.1525192E+06 -0.1092725E+01  0.2022883E+06 -0.2646781E+01  0.2005632E+06  0.1740075E+01
  0.1350000E+01  0.1520188E+06 -0.1055301E+01  0.2023751E+06 -0.2641602E+01  0.2063865E+06  0.1751707E+01
  0.1380952E+01  0.1502492E+06 -0.1017434E+01  0.2020526E+06 -0.2637355E+01  0.2112182E+06  0.1762739E+01
  0.1411905E+01  0.1468112E+06 -0.9777080E+00  0.2012938E+06 -0.2633978E+01  0.2145858E+06  0.1772562E+01
  0.1442857E+01  0.1426504E+06 -0.9394772E+00  0.2002499E+06 -0.2631509E+01  0.2176093E+06  0.1780827E+01
  0.1473810E+01  0.1375419E+06 -0.9030384E+00  0.1986475E+06 -0.2628700E+01  0.2196186E+06  0.1786352E+01
  0.1504762E+01  0.1314510E+06 -0.8683658E+00  0.1964643E+06 -0.2625584E+01  0.2201594E+06  0.1789206E+01
  0.1535714E+01  0.1244754E+06 -0.8351129E+00  0.1939448E+06 -0.2623035E+01  0.2203126E+06  0.1790178E+01
  0.1566667E+01  0.1166046E+06 -0.8033415E+00  0.1911534E+06 -0.2621169E+01  0.2201268E+06  0.1788854E+01
  0.1597619E+01  0.1079323E+06 -0.7735523E+00  0.1880425E+06 -0.2620097E+01  0.2192430E+06  0.1784466E+01
  0.1628572E+01  0.9847307E+05 -0.7455072E+00  0.1846237E+06 -0.2619893E+01  0.2175209E+06  0.1776993E+01
  0.1659524E+01  0.8834921E+05 -0.7192731E+00  0.1809254E+06 -0.2620438E+01  0.2152504E+06  0.1766432E+01
  0.1690476E+01  0.7779416E+05 -0.6971606E+00  0.1768877E+06 -0.2621051E+01  0.2126182E+06  0.1752134E+01
  0.1721429E+01  0.6684930E+05 -0.6813778E+00  0.1723666E+06 -0.2621158E+01  0.2088504E+06  0.1732965E+01
  0.1752381E+01  0.5553373E+05 -0.6723568E+00  0.1675944E+06 -0.2621813E+01  0.2045815E+06  0.1709628E+01
  0.1783333E+01  0.4421453E+05 -0.6754603E+00  0.1626837E+06 -0.2623049E+01  0.2010195E+06  0.1684676E+01
  0.1814286E+01  0.3265224E+05 -0.6975985E+00  0.1575997E+06 -0.2625015E+01  0.1972185E+06  0.1656148E+01
  0.1845238E+01  0.2111033E+05 -0.7706460E+00  0.1523342E+06 -0.2627761E+01  0.1933539E+06  0.1624638E+01
  0.1876190E+01  0.1012359E+05 -0.1059020E+01  0.1468969E+06 -0.2631389E+01  0.1894781E+06  0.1589325E+01
  0.1907143E+01  0.6374791E+04 -0.2581596E+01  0.1412895E+06 -0.2635881E+01  0.1858395E+06  0.1550946E+01
  0.1938095E+01  0.1601017E+05  0.3041685E+01  0.1355138E+06 -0.2640275E+01  0.1824412E+06  0.1509845E+01
  0.1969048E+01  0.2720746E+05  0.2919718E+01  0.1296133E+06 -0.2644821E+01  0.1787853E+06  0.1462938E+01
  0.2000000E+01  0.3841993E+05  0.2880640E+01  0.1236330E+06 -0.2650045E+01  0.1753513E+06  0.1412113E+01
