VARIABLES="w (rad/s)"
"A   1   1" "B   1   1"
"A   1   2" "B   1   2"
"A   1   3" "B   1   3"
Zone t="Motion of body    1 in DoF   1",I=    64,F=POINT
  0.5000000E-01  0.1105711E+06  0.1881610E-01  0.7781982E-02  0.5462248E-04 -0.8564086E+05 -0.1241112E-02
  0.8095238E-01  0.1105496E+06  0.8278611E-01  0.6031709E-02  0.1017224E-03 -0.8442163E+05 -0.5268594E-02
  0.1119048E+00  0.1112350E+06  0.2324567E+00 -0.3681589E-02  0.2117082E-04 -0.8505483E+05 -0.1518588E-01
  0.1428571E+00  0.1112770E+06  0.5240220E+00  0.2114868E-01  0.4006093E-03 -0.8518443E+05 -0.3596071E-01
  0.1738095E+00  0.1118978E+06  0.1045439E+01 -0.1316854E-01 -0.1145266E-03 -0.8547178E+05 -0.7555858E-01
  0.2047619E+00  0.1117150E+06  0.1928725E+01 -0.1147603E-01 -0.1518466E-03 -0.8528209E+05 -0.1449273E+00
  0.2357143E+00  0.1124121E+06  0.3405202E+01  0.1307632E-01  0.5467907E-03 -0.8585574E+05 -0.2722445E+00
  0.2666667E+00  0.1129070E+06  0.5822048E+01  0.1029968E-01  0.5317330E-03 -0.8584127E+05 -0.4903151E+00
  0.2976190E+00  0.1130800E+06  0.9775855E+01 -0.3055664E-01 -0.1278535E-02 -0.8604080E+05 -0.8766089E+00
  0.3285715E+00  0.1138977E+06  0.1622808E+02  0.4114565E-01  0.2200514E-02 -0.8647406E+05 -0.1564679E+01
  0.3595238E+00  0.1147825E+06  0.2673698E+02  0.3047311E-01  0.2057850E-02 -0.8699751E+05 -0.2772379E+01
  0.3904762E+00  0.1148630E+06  0.4364204E+02 -0.3595119E-02  0.2830029E-03 -0.8669936E+05 -0.4776257E+01
  0.4214286E+00  0.1159813E+06  0.7049289E+02  0.2027608E-02  0.8292198E-03 -0.8756589E+05 -0.8354073E+01
  0.4523810E+00  0.1170991E+06  0.1128795E+03 -0.1241262E-01 -0.5102158E-03 -0.8816782E+05 -0.1436542E+02
  0.4833333E+00  0.1182461E+06  0.1763433E+03  0.3788389E-02  0.2042294E-02 -0.8849846E+05 -0.2395470E+02
  0.5142857E+00  0.1187405E+06  0.2704144E+03  0.2171834E-01  0.3565311E-02 -0.8869133E+05 -0.3904433E+02
  0.5452381E+00  0.1201641E+06  0.4057997E+03  0.1208976E-01  0.2483368E-02 -0.8947339E+05 -0.6266763E+02
  0.5761905E+00  0.1219444E+06  0.5952819E+03  0.1811382E-01  0.1917839E-02 -0.9059837E+05 -0.9871334E+02
  0.6071429E+00  0.1233283E+06  0.8562507E+03 -0.1005285E-01 -0.1907349E-02 -0.9107498E+05 -0.1507267E+03
  0.6380953E+00  0.1244240E+06  0.1203353E+04  0.4399997E-02  0.1403809E-02 -0.9119870E+05 -0.2232169E+03
  0.6690477E+00  0.1262113E+06  0.1664278E+04  0.2079974E-01  0.8651733E-02 -0.9255814E+05 -0.3289931E+03
  0.7000000E+00  0.1282419E+06  0.2267887E+04  0.2458845E-01  0.1132965E-01 -0.9366488E+05 -0.4752826E+03
  0.7309524E+00  0.1304720E+06  0.3043870E+04 -0.1118912E-01 -0.8262634E-02 -0.9473027E+05 -0.6745415E+03
  0.7619048E+00  0.1327512E+06  0.4032166E+04  0.4806518E-03  0.1014709E-02 -0.9600955E+05 -0.9456776E+03
  0.7928572E+00  0.1345494E+06  0.5269136E+04  0.2463401E-02  0.7644653E-02 -0.9690591E+05 -0.1302220E+04
  0.8238096E+00  0.1364345E+06  0.6802077E+04 -0.3852624E-02  0.1068115E-02 -0.9797200E+05 -0.1764886E+04
  0.8547620E+00  0.1390520E+06  0.8690304E+04  0.2427805E-02  0.1388550E-02 -0.9934873E+05 -0.2356351E+04
  0.8857143E+00  0.1418440E+06  0.1099283E+05  0.1157699E-01  0.1654053E-01 -0.1014421E+06 -0.3137520E+04
  0.9166667E+00  0.1444061E+06  0.1376266E+05  0.2689986E-01  0.2618408E-01 -0.1031391E+06 -0.4123979E+04
  0.9476191E+00  0.1467580E+06  0.1706384E+05  0.3864537E-02  0.9155273E-02 -0.1046831E+06 -0.5360039E+04
  0.9785714E+00  0.1489977E+06  0.2096175E+05 -0.1534344E-01  0.8850098E-03 -0.1060124E+06 -0.6866411E+04
  0.1009524E+01  0.1509017E+06  0.2550936E+05 -0.3627561E-03  0.1040649E-01 -0.1076755E+06 -0.8738960E+04
  0.1040476E+01  0.1526093E+06  0.3072084E+05 -0.1173216E-02 -0.6530762E-02 -0.1093580E+06 -0.1093561E+05
  0.1071429E+01  0.1541497E+06  0.3664534E+05  0.2734375E-02 -0.4455566E-02 -0.1108507E+06 -0.1353808E+05
  0.1102381E+01  0.1553932E+06  0.4331842E+05 -0.8858666E-02 -0.9399414E-02 -0.1123774E+06 -0.1661017E+05
  0.1133333E+01  0.1562299E+06  0.5074935E+05  0.2585018E-02  0.3112793E-02 -0.1135053E+06 -0.2014448E+05
  0.1164286E+01  0.1565201E+06  0.5893328E+05  0.3564752E-02  0.1831055E-01 -0.1148654E+06 -0.2429576E+05
  0.1195238E+01  0.1560617E+06  0.6772120E+05 -0.8374704E-02 -0.7568359E-02 -0.1157935E+06 -0.2887947E+05
  0.1226190E+01  0.1549993E+06  0.7703553E+05  0.1791945E-02  0.3308105E-01 -0.1163230E+06 -0.3390931E+05
  0.1257143E+01  0.1531147E+06  0.8681763E+05 -0.4272461E-02  0.9765625E-03 -0.1165175E+06 -0.3949194E+05
  0.1288095E+01  0.1507548E+06  0.9688086E+05  0.5875621E-02  0.2294922E-01 -0.1163205E+06 -0.4539789E+05
  0.1319048E+01  0.1476295E+06  0.1071315E+06 -0.7403542E-03  0.9155273E-02 -0.1155078E+06 -0.5160286E+05
  0.1350000E+01  0.1439839E+06  0.1173633E+06  0.6962529E-02  0.3027344E-01 -0.1149526E+06 -0.5820772E+05
  0.1380952E+01  0.1395810E+06  0.1273521E+06  0.5480536E-02 -0.5737305E-02 -0.1137145E+06 -0.6501691E+05
  0.1411905E+01  0.1341032E+06  0.1368043E+06 -0.1988532E-02 -0.9643555E-02 -0.1114418E+06 -0.7170443E+05
  0.1442857E+01  0.1285109E+06  0.1458623E+06 -0.8291112E-02  0.2709961E-01 -0.1090711E+06 -0.7855109E+05
  0.1473810E+01  0.1227143E+06  0.1542656E+06 -0.9110902E-02 -0.2319336E-01 -0.1064496E+06 -0.8506472E+05
  0.1504762E+01  0.1167630E+06  0.1619217E+06 -0.4786238E-02 -0.6835938E-02 -0.1033745E+06 -0.9108088E+05
  0.1535714E+01  0.1106947E+06  0.1688422E+06 -0.1748728E-02 -0.1220703E-02 -0.1003249E+06 -0.9712168E+05
  0.1566667E+01  0.1044962E+06  0.1749146E+06 -0.5454205E-03  0.1733398E-01 -0.9723260E+05 -0.1030782E+06
  0.1597619E+01  0.9832306E+05  0.1800974E+06 -0.8863287E-02  0.6591797E-02 -0.9393614E+05 -0.1085742E+06
  0.1628572E+01  0.9218646E+05  0.1843371E+06  0.1499109E-02  0.5615234E-02 -0.9027670E+05 -0.1134827E+06
  0.1659524E+01  0.8615845E+05  0.1876901E+06 -0.1320356E-01  0.3198242E-01 -0.8644811E+05 -0.1179265E+06
  0.1690476E+01  0.8044285E+05  0.1903065E+06 -0.1148149E-01  0.1000977E-01 -0.8277557E+05 -0.1219019E+06
  0.1721429E+01  0.7509634E+05  0.1922228E+06  0.3191050E-02 -0.9033203E-02 -0.7914898E+05 -0.1249761E+06
  0.1752381E+01  0.7005078E+05  0.1934285E+06 -0.2124621E-02 -0.3662109E-02 -0.7553579E+05 -0.1274214E+06
  0.1783333E+01  0.6537018E+05  0.1942694E+06 -0.9856893E-02  0.2197266E-02 -0.7243996E+05 -0.1304008E+06
  0.1814286E+01  0.6081838E+05  0.1944043E+06 -0.1345657E-02 -0.1013184E-01 -0.6918430E+05 -0.1327659E+06
  0.1845238E+01  0.5655209E+05  0.1940075E+06 -0.7442351E-02 -0.4272461E-02 -0.6592752E+05 -0.1347967E+06
  0.1876190E+01  0.5255035E+05  0.1930730E+06 -0.2911563E-02  0.4150391E-02 -0.6265365E+05 -0.1361529E+06
  0.1907143E+01  0.4884884E+05  0.1917437E+06 -0.9745052E-02  0.1123047E-01 -0.5950952E+05 -0.1371238E+06
  0.1938095E+01  0.4544446E+05  0.1900400E+06  0.4802582E-02  0.5371094E-02 -0.5649129E+05 -0.1378439E+06
  0.1969048E+01  0.4240548E+05  0.1881842E+06 -0.6664419E-03  0.5004883E-02 -0.5383419E+05 -0.1379566E+06
  0.2000000E+01  0.3967801E+05  0.1861561E+06  0.1678467E-02  0.6103516E-03 -0.5144856E+05 -0.1377117E+06
Zone t="Motion of body    1 in DoF   2",I=    64,F=POINT
  0.5000000E-01 -0.1556396E-01  0.7534027E-04  0.2723972E+06  0.6634756E+03 -0.2197266E-01  0.2288818E-03
  0.8095238E-01 -0.4335291E-02  0.1039505E-03  0.2685349E+06  0.1098272E+04 -0.6484088E-01  0.9155273E-04
  0.1119048E+00  0.8999439E-02  0.1335144E-04  0.2667579E+06  0.1568910E+04  0.2181682E-01 -0.2136230E-03
  0.1428571E+00 -0.2670288E-02 -0.1716614E-04  0.2655394E+06  0.2091707E+04 -0.5297851E-01 -0.2746582E-03
  0.1738095E+00  0.6233111E-02 -0.4577637E-04  0.2649345E+06  0.2686953E+04 -0.4073469E-01 -0.1525879E-04
  0.2047619E+00  0.1788472E-01  0.2021790E-03  0.2650012E+06  0.3380793E+04  0.6915425E-01  0.5798340E-03
  0.2357143E+00 -0.9839606E-02  0.1907349E-04  0.2648938E+06  0.4208662E+04  0.5593039E-01  0.7019043E-03
  0.2666667E+00 -0.2975464E-02  0.7629395E-04  0.2653781E+06  0.5196568E+04 -0.2014160E-01 -0.6713867E-03
  0.2976190E+00  0.4409180E-02 -0.4577637E-03  0.2657138E+06  0.6413647E+04 -0.5250000E-01  0.1525879E-02
  0.3285715E+00 -0.9287957E-04 -0.1296997E-03  0.2663913E+06  0.7884626E+04  0.6538722E-01  0.3051758E-03
  0.3595238E+00 -0.1222320E-01 -0.2136230E-03  0.2665816E+06  0.9687947E+04 -0.5432533E-02  0.1708984E-02
  0.3904762E+00  0.0000000E+00 -0.5187988E-03  0.2671622E+06  0.1186595E+05  0.6002286E-01  0.1831055E-02
  0.4214286E+00 -0.4344875E-03 -0.7934570E-03  0.2664046E+06  0.1437937E+05  0.2317267E-01  0.4150391E-02
  0.4523810E+00 -0.1565070E-01 -0.1525879E-04  0.2660399E+06  0.1734753E+05  0.5396792E-01 -0.1708984E-02
  0.4833333E+00  0.1401704E-01  0.1770020E-02  0.2641836E+06  0.2047859E+05  0.5455280E-01 -0.2685547E-02
  0.5142857E+00  0.3797743E-02  0.4577637E-03  0.2621065E+06  0.2392770E+05 -0.3417969E-01 -0.2441406E-02
  0.5452381E+00 -0.1074645E-01 -0.2441406E-03  0.2595761E+06  0.2746022E+05  0.3761258E-01  0.9521484E-02
  0.5761905E+00 -0.8898017E-02  0.1708984E-02  0.2562417E+06  0.3100669E+05  0.0000000E+00  0.4150391E-02
  0.6071429E+00 -0.2211627E-02  0.1098633E-02  0.2530011E+06  0.3463813E+05 -0.4181985E-01 -0.1123047E-01
  0.6380953E+00 -0.1099999E-01 -0.4150391E-02  0.2491937E+06  0.3808292E+05 -0.9182602E-02  0.8300781E-02
  0.6690477E+00 -0.1103846E-01 -0.1953125E-02  0.2451780E+06  0.4147182E+05 -0.3649077E-01 -0.2685547E-02
  0.7000000E+00 -0.1726423E-01 -0.1647949E-02  0.2413243E+06  0.4477116E+05  0.4185268E-01  0.1025391E-01
  0.7309524E+00 -0.1252513E-02  0.3662109E-03  0.2371572E+06  0.4786118E+05 -0.2939230E-01  0.1074219E-01
  0.7619048E+00 -0.6809234E-02  0.3479004E-02  0.2328034E+06  0.5078776E+05  0.7690429E-02 -0.0000000E+00
  0.7928572E+00  0.2309438E-02 -0.1281738E-02  0.2286829E+06  0.5348272E+05  0.4434121E-01  0.1220703E-01
  0.8238096E+00  0.4223068E-02  0.5126953E-02  0.2248111E+06  0.5591082E+05  0.2015219E-01 -0.5371094E-02
  0.8547620E+00 -0.3998738E-02 -0.3479004E-02  0.2203593E+06  0.5816017E+05  0.4569986E-01  0.2392578E-01
  0.8857143E+00 -0.1316194E-01  0.1135254E-01  0.2162056E+06  0.6014161E+05  0.1212828E-01  0.9765625E-02
  0.9166667E+00 -0.1631303E-01 -0.9155273E-02  0.2125162E+06  0.6176509E+05 -0.4261364E-02  0.4882812E-02
  0.9476191E+00 -0.3606902E-02 -0.6835938E-02  0.2091041E+06  0.6304729E+05 -0.3091630E-02  0.6347656E-02
  0.9785714E+00  0.6237169E-03  0.9765625E-03  0.2051130E+06  0.6413466E+05  0.4091583E-01 -0.2099609E-01
  0.1009524E+01 -0.1058039E-01 -0.2807617E-02  0.2014563E+06  0.6492161E+05  0.9673497E-03 -0.1806641E-01
  0.1040476E+01 -0.1413725E-01 -0.2441406E-03  0.1982207E+06  0.6539656E+05 -0.2628003E-01 -0.5517578E-01
  0.1071429E+01 -0.2278646E-03 -0.2807617E-02  0.1953526E+06  0.6552073E+05  0.2552084E-01 -0.3369141E-01
  0.1102381E+01 -0.1223603E-01  0.2929688E-02  0.1926960E+06  0.6538583E+05 -0.3543466E-02 -0.3466797E-01
  0.1133333E+01 -0.9909237E-02 -0.5371094E-02  0.1896687E+06  0.6504160E+05  0.5170037E-02  0.9765625E-03
  0.1164286E+01 -0.6972237E-02 -0.2441406E-03  0.1870875E+06  0.6445761E+05  0.4948715E-01 -0.2636719E-01
  0.1195238E+01 -0.5515049E-02  0.9765625E-03  0.1848721E+06  0.6362236E+05 -0.3431586E-01 -0.2783203E-01
  0.1226190E+01 -0.1000503E-01 -0.6347656E-02  0.1830402E+06  0.6250701E+05  0.1353914E-01  0.6298828E-01
  0.1257143E+01  0.2439672E-02 -0.8056641E-02  0.1816307E+06  0.6125184E+05 -0.3107244E-01 -0.0000000E+00
  0.1288095E+01 -0.4927940E-02 -0.2014160E-01  0.1798396E+06  0.5971058E+05 -0.3108393E-01  0.1904297E-01
  0.1319048E+01 -0.4615646E-02 -0.1220703E-02  0.1781245E+06  0.5801841E+05 -0.1554744E-01 -0.1708984E-01
  0.1350000E+01 -0.4978886E-02 -0.4882812E-03  0.1768737E+06  0.5634738E+05 -0.1736111E-01 -0.2636719E-01
  0.1380952E+01 -0.6182523E-02  0.5737305E-02  0.1758931E+06  0.5447927E+05 -0.1980065E-01  0.1806641E-01
  0.1411905E+01 -0.4820027E-02  0.5981445E-02  0.1751870E+06  0.5238665E+05 -0.4219145E-01 -0.4736328E-01
  0.1442857E+01 -0.1107244E-01 -0.1306152E-01  0.1748221E+06  0.5031684E+05  0.8121906E-02 -0.4394531E-01
  0.1473810E+01  0.5549368E-02  0.1513672E-01  0.1743521E+06  0.4820417E+05  0.3445577E-01 -0.3710938E-01
  0.1504762E+01 -0.8203531E-02 -0.3173828E-01  0.1737394E+06  0.4589930E+05  0.1297963E-02  0.6152344E-01
  0.1535714E+01 -0.1440714E-02 -0.6958008E-02  0.1733417E+06  0.4362220E+05  0.7630813E-02  0.2343750E-01
  0.1566667E+01 -0.2785541E-02 -0.2600098E-01  0.1732091E+06  0.4147904E+05 -0.3116689E-01  0.9277344E-02
  0.1597619E+01 -0.7621663E-02 -0.3332520E-01  0.1732628E+06  0.3933842E+05 -0.2689549E-01  0.4956055E-01
  0.1628572E+01 -0.4722193E-02 -0.1269531E-01  0.1735042E+06  0.3717746E+05 -0.9594298E-02  0.3491211E-01
  0.1659524E+01 -0.1103362E-03 -0.1086426E-01  0.1738986E+06  0.3506686E+05 -0.3530757E-02  0.1074219E-01
  0.1690476E+01  0.2166318E-03 -0.8544922E-03  0.1742645E+06  0.3306412E+05  0.2888424E-01  0.2905273E-01
  0.1721429E+01  0.5850258E-03 -0.1257324E-01  0.1744472E+06  0.3086496E+05 -0.5672977E-02  0.3125000E-01
  0.1752381E+01  0.2612239E-02 -0.2929688E-02  0.1747322E+06  0.2866368E+05 -0.1671833E-01  0.2246094E-01
  0.1783333E+01  0.4586193E-02 -0.7568359E-02  0.1751069E+06  0.2678401E+05  0.1423773E-01  0.2539062E-01
  0.1814286E+01  0.4205178E-02 -0.9399414E-02  0.1755843E+06  0.2502848E+05 -0.2476009E-01  0.1464844E-01
  0.1845238E+01  0.2083858E-02 -0.1135254E-01  0.1761561E+06  0.2331914E+05 -0.2434476E-01  0.1220703E-01
  0.1876190E+01  0.2082011E-02 -0.2978516E-01  0.1767701E+06  0.2167056E+05 -0.2082011E-02  0.2026367E-01
  0.1907143E+01  0.5472591E-02  0.3540039E-02  0.1773973E+06  0.2007028E+05 -0.9216995E-02 -0.4150391E-02
  0.1938095E+01 -0.2897295E-02 -0.2539062E-01  0.1779842E+06  0.1851533E+05 -0.2620163E-01  0.2868652E-01
  0.1969048E+01 -0.2324797E-02 -0.1782227E-01  0.1785028E+06  0.1700037E+05  0.2678167E-01  0.1184082E-01
  0.2000000E+01  0.2929688E-02 -0.3662109E-03  0.1789915E+06  0.1559847E+05 -0.5859375E-02  0.8544922E-03
Zone t="Motion of body    1 in DoF   3",I=    64,F=POINT
  0.5000000E-01 -0.8701623E+05 -0.1460609E-02 -0.1647949E-01 -0.1407851E-03  0.6241051E+06  0.3357588E-03
  0.8095238E-01 -0.8612028E+05 -0.6174241E-02 -0.6408691E-01 -0.5877800E-03  0.6182036E+06  0.9519237E-03
  0.1119048E+00 -0.8703494E+05 -0.1722528E-01  0.3545234E-01 -0.3485248E-04  0.6196949E+06  0.2035592E-02
  0.1428571E+00 -0.8715043E+05 -0.4092524E-01  0.2563477E-02 -0.6411653E-03  0.6196255E+06  0.3045231E-02
  0.1738095E+00 -0.8763710E+05 -0.8467743E-01  0.4284166E-01  0.2611994E-03  0.6193955E+06  0.6920468E-02
  0.2047619E+00 -0.8697004E+05 -0.1634216E+00  0.3517328E-01 -0.8685843E-03  0.6202022E+06  0.1385556E-01
  0.2357143E+00 -0.8796705E+05 -0.3005683E+00  0.1191110E-01 -0.6738529E-03  0.6200772E+06  0.2231634E-01
  0.2666667E+00 -0.8779074E+05 -0.5414622E+00 -0.2655029E-01 -0.1657357E-02  0.6198326E+06  0.4260277E-01
  0.2976190E+00 -0.8796288E+05 -0.9609318E+00  0.9228516E-01  0.1573883E-02  0.6199297E+06  0.8212853E-01
  0.3285715E+00 -0.8844657E+05 -0.1696685E+01  0.8916439E-02 -0.2674446E-02  0.6204508E+06  0.1576844E+00
  0.3595238E+00 -0.8923414E+05 -0.2964932E+01 -0.2037200E-01 -0.4689284E-02  0.6204148E+06  0.3072301E+00
  0.3904762E+00 -0.8833172E+05 -0.5159757E+01  0.3813953E-01  0.1382306E-03  0.6207224E+06  0.5767169E+00
  0.4214286E+00 -0.8972789E+05 -0.8858836E+01  0.1019597E+00  0.1636103E-02  0.6202656E+06  0.1022638E+01
  0.4523810E+00 -0.9010025E+05 -0.1511672E+02  0.2158717E-01 -0.2624571E-02  0.6225522E+06  0.1914891E+01
  0.4833333E+00 -0.9077930E+05 -0.2514985E+02 -0.1767915E-01 -0.7743478E-02  0.6202387E+06  0.3440347E+01
  0.5142857E+00 -0.9051738E+05 -0.4099217E+02 -0.8355035E-01 -0.1027429E-01  0.6211960E+06  0.5948153E+01
  0.5452381E+00 -0.9139538E+05 -0.6530155E+02  0.6895640E-01  0.3678203E-02  0.6217701E+06  0.9964344E+01
  0.5761905E+00 -0.9300562E+05 -0.1015488E+03 -0.2711777E-01 -0.8636951E-02  0.6219572E+06  0.1681858E+02
  0.6071429E+00 -0.9301767E+05 -0.1555620E+03  0.3699448E-01 -0.8186817E-02  0.6235623E+06  0.2804443E+02
  0.6380953E+00 -0.9301323E+05 -0.2314155E+03 -0.4782606E-01 -0.2882767E-01  0.6212644E+06  0.4388282E+02
  0.6690477E+00 -0.9462027E+05 -0.3366371E+03 -0.8465858E-01 -0.2514172E-01  0.6227369E+06  0.6562733E+02
  0.7000000E+00 -0.9557494E+05 -0.4848821E+03  0.2162388E-01 -0.1026154E-01  0.6249154E+06  0.1001261E+03
  0.7309524E+00 -0.9680959E+05 -0.6861443E+03 -0.4475646E-01 -0.2716351E-01  0.6244453E+06  0.1516600E+03
  0.7619048E+00 -0.9828876E+05 -0.9577646E+03  0.1922607E-02 -0.1727104E-01  0.6244413E+06  0.2274530E+03
  0.7928572E+00 -0.9875820E+05 -0.1321711E+04  0.3264006E-01 -0.1734352E-01  0.6255776E+06  0.3345587E+03
  0.8238096E+00 -0.9935661E+05 -0.1792134E+04 -0.8890670E-02  0.1002121E-01  0.6274921E+06  0.4646150E+03
  0.8547620E+00 -0.1012300E+06 -0.2381159E+04 -0.2456367E-01 -0.3023911E-01  0.6256221E+06  0.6332732E+03
  0.8857143E+00 -0.1036053E+06 -0.3142490E+04  0.9923135E-02 -0.2634811E-01  0.6276172E+06  0.8795222E+03
  0.9166667E+00 -0.1051600E+06 -0.4126090E+04 -0.8575994E-01 -0.8566284E-01  0.6296928E+06  0.1235076E+04
  0.9476191E+00 -0.1062936E+06 -0.5377634E+04 -0.7162276E-01 -0.9123230E-01  0.6321248E+06  0.1710401E+04
  0.9785714E+00 -0.1077126E+06 -0.6896851E+04  0.5738196E-01 -0.2638245E-01  0.6303982E+06  0.2302608E+04
  0.1009524E+01 -0.1093142E+06 -0.8760793E+04  0.1837964E-01 -0.1782227E-01  0.6309241E+06  0.3079717E+04
  0.1040476E+01 -0.1108781E+06 -0.1093775E+05 -0.8587940E-01 -0.7125854E-01  0.6327454E+06  0.3906284E+04
  0.1071429E+01 -0.1121721E+06 -0.1355469E+05 -0.1458333E-01 -0.1296997E-01  0.6347844E+06  0.5003270E+04
  0.1102381E+01 -0.1135753E+06 -0.1662115E+05  0.5093733E-01  0.2224731E-01  0.6365101E+06  0.6334997E+04
  0.1133333E+01 -0.1148992E+06 -0.2015166E+05 -0.2024931E-01 -0.4171753E-01  0.6352019E+06  0.7980569E+04
  0.1164286E+01 -0.1163447E+06 -0.2425212E+05  0.3061493E-01 -0.1370239E-01  0.6362239E+06  0.1003139E+05
  0.1195238E+01 -0.1171483E+06 -0.2880130E+05 -0.7516807E-01 -0.8013916E-01  0.6379294E+06  0.1228916E+05
  0.1226190E+01 -0.1175080E+06 -0.3384079E+05 -0.2110513E-01 -0.4486084E-01  0.6395597E+06  0.1487215E+05
  0.1257143E+01 -0.1173743E+06 -0.3941864E+05  0.1631303E-01 -0.4205322E-01  0.6418026E+06  0.1796544E+05
  0.1288095E+01 -0.1172700E+06 -0.4529541E+05  0.2463970E-01  0.5554199E-02  0.6410669E+06  0.2119710E+05
  0.1319048E+01 -0.1166182E+06 -0.5147738E+05  0.5552656E-02  0.1055908E-01  0.6389864E+06  0.2466549E+05
  0.1350000E+01 -0.1162418E+06 -0.5787609E+05 -0.4701967E-02  0.3967285E-02  0.6401704E+06  0.2844346E+05
  0.1380952E+01 -0.1149567E+06 -0.6453515E+05  0.2015423E-01  0.6896973E-02  0.6411354E+06  0.3287623E+05
  0.1411905E+01 -0.1123169E+06 -0.7164728E+05 -0.1521659E-01 -0.3356934E-02  0.6409036E+06  0.3761876E+05
  0.1442857E+01 -0.1096070E+06 -0.7855473E+05 -0.4060953E-02 -0.4064941E-01  0.6412922E+06  0.4261798E+05
  0.1473810E+01 -0.1069010E+06 -0.8499742E+05  0.5234627E-01  0.2563477E-01  0.6401627E+06  0.4696845E+05
  0.1504762E+01 -0.1039742E+06 -0.9095266E+05  0.5191851E-01  0.7189941E-01  0.6365680E+06  0.5061758E+05
  0.1535714E+01 -0.1011396E+06 -0.9681236E+05  0.6359011E-03 -0.1684570E-01  0.6342596E+06  0.5487864E+05
  0.1566667E+01 -0.9814295E+05 -0.1025064E+06 -0.1870013E-02 -0.2404785E-01  0.6336984E+06  0.5988762E+05
  0.1597619E+01 -0.9488071E+05 -0.1078671E+06 -0.4890089E-02 -0.8544922E-02  0.6332279E+06  0.6490395E+05
  0.1628572E+01 -0.9105685E+05 -0.1127446E+06  0.2458539E-01 -0.1306152E-01  0.6319139E+06  0.6970033E+05
  0.1659524E+01 -0.8691437E+05 -0.1172093E+06  0.2824605E-01 -0.3454590E-01  0.6305546E+06  0.7450265E+05
  0.1690476E+01 -0.8304686E+05 -0.1210421E+06  0.4910321E-01 -0.2624512E-01  0.6289568E+06  0.7855525E+05
  0.1721429E+01 -0.7958712E+05 -0.1239678E+06  0.1418244E-01  0.2563477E-01  0.6249182E+06  0.8029122E+05
  0.1752381E+01 -0.7614769E+05 -0.1262672E+06  0.2563477E-01  0.4272461E-02  0.6202508E+06  0.8088035E+05
  0.1783333E+01 -0.7347857E+05 -0.1290467E+06  0.1752337E-01 -0.2685547E-01  0.6189201E+06  0.8452354E+05
  0.1814286E+01 -0.7030585E+05 -0.1312965E+06  0.1830094E-01 -0.2075195E-02  0.6174504E+06  0.8820284E+05
  0.1845238E+01 -0.6706234E+05 -0.1332025E+06 -0.3175403E-01 -0.1733398E-01  0.6159229E+06  0.9242503E+05
  0.1876190E+01 -0.6357122E+05 -0.1344952E+06 -0.5205029E-03 -0.1220703E-03  0.6138652E+06  0.9552538E+05
  0.1907143E+01 -0.6010539E+05 -0.1355803E+06  0.1945810E-01 -0.4675293E-01  0.6121086E+06  0.9860000E+05
  0.1938095E+01 -0.5680495E+05 -0.1358717E+06 -0.2771326E-01 -0.2661133E-01  0.6103480E+06  0.1015020E+06
  0.1969048E+01 -0.5424174E+05 -0.1357210E+06  0.4116441E-01 -0.3540039E-02  0.6073776E+06  0.1007965E+06
  0.2000000E+01 -0.5204614E+05 -0.1353188E+06  0.2343750E-01 -0.2575684E-01  0.6044218E+06  0.9836240E+05
