VARIABLES="w (rad/s)"
"abs(F   1   1)" "angle(F   1   1)"
"abs(F   1   2)" "angle(F   1   2)"
"abs(F   1   3)" "angle(F   1   3)"
Zone t="Diffraction force - beta =   0.000 deg",I=    64,F=POINT
  0.5000000E-01  0.5099484E+04 -0.1570793E+01  0.2417532E+06 -0.1622925E-04  0.1671976E+05  0.1570799E+01
  0.8095238E-01  0.8327574E+04 -0.1570781E+01  0.2408708E+06 -0.4358423E-04  0.2728360E+05  0.1570793E+01
  0.1119048E+00  0.1161586E+05 -0.1570789E+01  0.2395742E+06 -0.8631445E-04  0.3802743E+05  0.1570814E+01
  0.1428571E+00  0.1500796E+05 -0.1570785E+01  0.2378661E+06 -0.1475345E-03  0.4909694E+05  0.1570814E+01
  0.1738095E+00  0.1853458E+05 -0.1570780E+01  0.2357488E+06 -0.2316612E-03  0.6055723E+05  0.1570816E+01
  0.2047619E+00  0.2222463E+05 -0.1570768E+01  0.2332232E+06 -0.3455920E-03  0.7254889E+05  0.1570825E+01
  0.2357143E+00  0.2614011E+05 -0.1570751E+01  0.2303044E+06 -0.4989337E-03  0.8521788E+05  0.1570836E+01
  0.2666667E+00  0.3032140E+05 -0.1570734E+01  0.2269867E+06 -0.7026467E-03  0.9867733E+05  0.1570860E+01
  0.2976190E+00  0.3483925E+05 -0.1570704E+01  0.2232933E+06 -0.9777452E-03  0.1132011E+06  0.1570892E+01
  0.3285715E+00  0.3973984E+05 -0.1570657E+01  0.2192224E+06 -0.1341668E-02  0.1288786E+06  0.1570935E+01
  0.3595238E+00  0.4512923E+05 -0.1570589E+01  0.2148168E+06 -0.1827421E-02  0.1460166E+06  0.1571003E+01
  0.3904762E+00  0.5100335E+05 -0.1570489E+01  0.2100627E+06 -0.2466195E-02  0.1646718E+06  0.1571105E+01
  0.4214286E+00  0.5751094E+05 -0.1570340E+01  0.2050500E+06 -0.3276838E-02  0.1852222E+06  0.1571254E+01
  0.4523810E+00  0.6459629E+05 -0.1570124E+01  0.1997472E+06 -0.4327158E-02  0.2074560E+06  0.1571471E+01
  0.4833333E+00  0.7231270E+05 -0.1569825E+01  0.1942433E+06 -0.5563702E-02  0.2314955E+06  0.1571768E+01
  0.5142857E+00  0.8059614E+05 -0.1569413E+01  0.1885465E+06 -0.7075076E-02  0.2572547E+06  0.1572180E+01
  0.5452381E+00  0.8941145E+05 -0.1568864E+01  0.1826660E+06 -0.8819427E-02  0.2845027E+06  0.1572728E+01
  0.5761905E+00  0.9876686E+05 -0.1568157E+01  0.1766939E+06 -0.1079464E-01  0.3130653E+06  0.1573435E+01
  0.6071429E+00  0.1084574E+06 -0.1567246E+01  0.1705815E+06 -0.1308121E-01  0.3424847E+06  0.1574347E+01
  0.6380953E+00  0.1185319E+06 -0.1566115E+01  0.1643860E+06 -0.1557592E-01  0.3728021E+06  0.1575478E+01
  0.6690477E+00  0.1289854E+06 -0.1564718E+01  0.1581564E+06 -0.1836485E-01  0.4041081E+06  0.1576875E+01
  0.7000000E+00  0.1396254E+06 -0.1563008E+01  0.1518562E+06 -0.2148934E-01  0.4355059E+06  0.1578584E+01
  0.7309524E+00  0.1505614E+06 -0.1560954E+01  0.1455378E+06 -0.2488709E-01  0.4673081E+06  0.1580639E+01
  0.7619048E+00  0.1618170E+06 -0.1558502E+01  0.1392671E+06 -0.2861083E-01  0.4996900E+06  0.1583089E+01
  0.7928572E+00  0.1730944E+06 -0.1555603E+01  0.1329988E+06 -0.3269887E-01  0.5318176E+06  0.1585989E+01
  0.8238096E+00  0.1845931E+06 -0.1552206E+01  0.1267279E+06 -0.3718138E-01  0.5643096E+06  0.1589386E+01
  0.8547620E+00  0.1961543E+06 -0.1548269E+01  0.1206060E+06 -0.4197037E-01  0.5963288E+06  0.1593323E+01
  0.8857143E+00  0.2079581E+06 -0.1543739E+01  0.1145731E+06 -0.4716732E-01  0.6284339E+06  0.1597852E+01
  0.9166667E+00  0.2196434E+06 -0.1538566E+01  0.1086026E+06 -0.5280410E-01  0.6595461E+06  0.1603024E+01
  0.9476191E+00  0.2314159E+06 -0.1532696E+01  0.1027149E+06 -0.5894832E-01  0.6905357E+06  0.1608894E+01
  0.9785714E+00  0.2430398E+06 -0.1526090E+01  0.9702956E+05 -0.6539366E-01  0.7202818E+06  0.1615498E+01
  0.1009524E+01  0.2547628E+06 -0.1518700E+01  0.9151002E+05 -0.7229082E-01  0.7497801E+06  0.1622887E+01
  0.1040476E+01  0.2661758E+06 -0.1510489E+01  0.8613023E+05 -0.7974535E-01  0.7780682E+06  0.1631098E+01
  0.1071429E+01  0.2772372E+06 -0.1501457E+01  0.8088580E+05 -0.8781184E-01  0.8045522E+06  0.1640127E+01
  0.1102381E+01  0.2881771E+06 -0.1491597E+01  0.7577728E+05 -0.9660354E-01  0.8299025E+06  0.1649981E+01
  0.1133333E+01  0.2987058E+06 -0.1480898E+01  0.7095965E+05 -0.1053947E+00  0.8530593E+06  0.1660673E+01
  0.1164286E+01  0.3090017E+06 -0.1469342E+01  0.6632182E+05 -0.1148150E+00  0.8749549E+06  0.1672221E+01
  0.1195238E+01  0.3186270E+06 -0.1456931E+01  0.6186901E+05 -0.1249192E+00  0.8946342E+06  0.1684633E+01
  0.1226190E+01  0.3274406E+06 -0.1443757E+01  0.5757979E+05 -0.1358270E+00  0.9111144E+06  0.1697792E+01
  0.1257143E+01  0.3355931E+06 -0.1429796E+01  0.5347939E+05 -0.1477258E+00  0.9256472E+06  0.1711752E+01
  0.1288095E+01  0.3431787E+06 -0.1415152E+01  0.4958013E+05 -0.1599782E+00  0.9375529E+06  0.1726378E+01
  0.1319048E+01  0.3498295E+06 -0.1399926E+01  0.4593659E+05 -0.1721970E+00  0.9465802E+06  0.1741592E+01
  0.1350000E+01  0.3557459E+06 -0.1384251E+01  0.4248450E+05 -0.1852102E+00  0.9532418E+06  0.1757249E+01
  0.1380952E+01  0.3605189E+06 -0.1368313E+01  0.3921877E+05 -0.1990087E+00  0.9562521E+06  0.1773181E+01
  0.1411905E+01  0.3635015E+06 -0.1352596E+01  0.3612110E+05 -0.2138485E+00  0.9544635E+06  0.1788842E+01
  0.1442857E+01  0.3661148E+06 -0.1336492E+01  0.3320821E+05 -0.2297537E+00  0.9509854E+06  0.1804938E+01
  0.1473810E+01  0.3676226E+06 -0.1320542E+01  0.3045479E+05 -0.2471904E+00  0.9443429E+06  0.1820847E+01
  0.1504762E+01  0.3679490E+06 -0.1304957E+01  0.2791877E+05 -0.2630975E+00  0.9341909E+06  0.1836367E+01
  0.1535714E+01  0.3673453E+06 -0.1289777E+01  0.2555316E+05 -0.2800042E+00  0.9217917E+06  0.1851496E+01
  0.1566667E+01  0.3657957E+06 -0.1275269E+01  0.2335486E+05 -0.2974806E+00  0.9071449E+06  0.1865988E+01
  0.1597619E+01  0.3630632E+06 -0.1261745E+01  0.2130639E+05 -0.3158878E+00  0.8893161E+06  0.1879479E+01
  0.1628572E+01  0.3592066E+06 -0.1249408E+01  0.1938911E+05 -0.3361430E+00  0.8684890E+06  0.1891656E+01
  0.1659524E+01  0.3546253E+06 -0.1238041E+01  0.1762080E+05 -0.3568653E+00  0.8463982E+06  0.1902999E+01
  0.1690476E+01  0.3493500E+06 -0.1227825E+01  0.1598343E+05 -0.3792152E+00  0.8230919E+06  0.1913220E+01
  0.1721429E+01  0.3431386E+06 -0.1219329E+01  0.1446590E+05 -0.4017124E+00  0.7972553E+06  0.1921483E+01
  0.1752381E+01  0.3365173E+06 -0.1212228E+01  0.1306925E+05 -0.4241946E+00  0.7709472E+06  0.1928441E+01
  0.1783333E+01  0.3295474E+06 -0.1206605E+01  0.1179862E+05 -0.4464996E+00  0.7444533E+06  0.1933962E+01
  0.1814286E+01  0.3220371E+06 -0.1202565E+01  0.1063816E+05 -0.4687349E+00  0.7173637E+06  0.1938045E+01
  0.1845238E+01  0.3140902E+06 -0.1200380E+01  0.9568211E+04 -0.4926994E+00  0.6895387E+06  0.1940151E+01
  0.1876190E+01  0.3057513E+06 -0.1200203E+01  0.8584482E+04 -0.5200282E+00  0.6611104E+06  0.1939973E+01
  0.1907143E+01  0.2973308E+06 -0.1201567E+01  0.7688587E+04 -0.5473137E+00  0.6332294E+06  0.1938478E+01
  0.1938095E+01  0.2888856E+06 -0.1204455E+01  0.6877185E+04 -0.5744941E+00  0.6060722E+06  0.1935693E+01
  0.1969048E+01  0.2803426E+06 -0.1209347E+01  0.6134478E+04 -0.6056861E+00  0.5789712E+06  0.1930558E+01
  0.2000000E+01  0.2718124E+06 -0.1216039E+01  0.5452056E+04 -0.6380112E+00  0.5523230E+06  0.1923466E+01
