VARIABLES="w (rad/s)"
"abs(F   1   1)" "angle(F   1   1)"
"abs(F   1   2)" "angle(F   1   2)"
"abs(F   1   3)" "angle(F   1   3)"
Zone t="Diffraction force - beta =   0.000 deg",I=    64,F=POINT
  0.5000000E-01  0.2114734E+04 -0.1570794E+01  0.1179734E+03 -0.3109421E+01  0.6472548E+04  0.1570799E+01
  0.8095238E-01  0.3473755E+04 -0.1570790E+01  0.3065565E+03 -0.3108455E+01  0.1061891E+05  0.1570802E+01
  0.1119048E+00  0.4855332E+04 -0.1570784E+01  0.5822806E+03 -0.3107212E+01  0.1482246E+05  0.1570809E+01
  0.1428571E+00  0.6280934E+04 -0.1570775E+01  0.9448844E+03 -0.3105616E+01  0.1916854E+05  0.1570818E+01
  0.1738095E+00  0.7768741E+04 -0.1570761E+01  0.1394543E+04 -0.3103629E+01  0.2365960E+05  0.1570832E+01
  0.2047619E+00  0.9325560E+04 -0.1570741E+01  0.1929053E+04 -0.3101053E+01  0.2839258E+05  0.1570852E+01
  0.2357143E+00  0.1097992E+05 -0.1570713E+01  0.2547342E+04 -0.3097783E+01  0.3339645E+05  0.1570880E+01
  0.2666667E+00  0.1276571E+05 -0.1570671E+01  0.3253231E+04 -0.3093920E+01  0.3874770E+05  0.1570922E+01
  0.2976190E+00  0.1468291E+05 -0.1570609E+01  0.4032068E+04 -0.3088871E+01  0.4452411E+05  0.1570985E+01
  0.3285715E+00  0.1679270E+05 -0.1570518E+01  0.4897643E+04 -0.3083028E+01  0.5082528E+05  0.1571077E+01
  0.3595238E+00  0.1909538E+05 -0.1570382E+01  0.5822661E+04 -0.3075741E+01  0.5767625E+05  0.1571214E+01
  0.3904762E+00  0.2164846E+05 -0.1570179E+01  0.6820545E+04 -0.3067260E+01  0.6523955E+05  0.1571417E+01
  0.4214286E+00  0.2445075E+05 -0.1569885E+01  0.7862298E+04 -0.3057802E+01  0.7356931E+05  0.1571713E+01
  0.4523810E+00  0.2755515E+05 -0.1569455E+01  0.8941881E+04 -0.3046619E+01  0.8267072E+05  0.1572146E+01
  0.4833333E+00  0.3095688E+05 -0.1568865E+01  0.1006076E+05 -0.3035829E+01  0.9260962E+05  0.1572739E+01
  0.5142857E+00  0.3461208E+05 -0.1568049E+01  0.1115711E+05 -0.3023594E+01  0.1033039E+06  0.1573560E+01
  0.5452381E+00  0.3858941E+05 -0.1566972E+01  0.1229476E+05 -0.3011966E+01  0.1148647E+06  0.1574642E+01
  0.5761905E+00  0.4274528E+05 -0.1565582E+01  0.1338890E+05 -0.3000352E+01  0.1267912E+06  0.1576041E+01
  0.6071429E+00  0.4716707E+05 -0.1563801E+01  0.1446430E+05 -0.2988255E+01  0.1393953E+06  0.1577832E+01
  0.6380953E+00  0.5184577E+05 -0.1561604E+01  0.1557520E+05 -0.2977780E+01  0.1527031E+06  0.1580040E+01
  0.6690477E+00  0.5661706E+05 -0.1558891E+01  0.1657437E+05 -0.2966562E+01  0.1662669E+06  0.1582762E+01
  0.7000000E+00  0.6162906E+05 -0.1555591E+01  0.1755322E+05 -0.2955434E+01  0.1802548E+06  0.1586077E+01
  0.7309524E+00  0.6691528E+05 -0.1551663E+01  0.1854235E+05 -0.2945434E+01  0.1948156E+06  0.1590027E+01
  0.7619048E+00  0.7223963E+05 -0.1546978E+01  0.1942409E+05 -0.2935127E+01  0.2093350E+06  0.1594736E+01
  0.7928572E+00  0.7776534E+05 -0.1541472E+01  0.2023940E+05 -0.2924757E+01  0.2244091E+06  0.1600260E+01
  0.8238096E+00  0.8348462E+05 -0.1535071E+01  0.2102983E+05 -0.2914967E+01  0.2397542E+06  0.1606688E+01
  0.8547620E+00  0.8933462E+05 -0.1527686E+01  0.2180357E+05 -0.2905938E+01  0.2554966E+06  0.1614082E+01
  0.8857143E+00  0.9520916E+05 -0.1519216E+01  0.2239273E+05 -0.2896110E+01  0.2707975E+06  0.1622584E+01
  0.9166667E+00  0.1012829E+06 -0.1509617E+01  0.2294394E+05 -0.2886733E+01  0.2864656E+06  0.1632216E+01
  0.9476191E+00  0.1074732E+06 -0.1498806E+01  0.2344830E+05 -0.2877777E+01  0.3020752E+06  0.1643080E+01
  0.9785714E+00  0.1137670E+06 -0.1486700E+01  0.2392052E+05 -0.2869361E+01  0.3179155E+06  0.1655215E+01
  0.1009524E+01  0.1199145E+06 -0.1473164E+01  0.2422779E+05 -0.2860735E+01  0.3330000E+06  0.1668790E+01
  0.1040476E+01  0.1261613E+06 -0.1458205E+01  0.2445041E+05 -0.2851979E+01  0.3484127E+06  0.1683743E+01
  0.1071429E+01  0.1322872E+06 -0.1441760E+01  0.2461592E+05 -0.2843560E+01  0.3630109E+06  0.1700199E+01
  0.1102381E+01  0.1385404E+06 -0.1423969E+01  0.2473614E+05 -0.2835481E+01  0.3774202E+06  0.1718033E+01
  0.1133333E+01  0.1446146E+06 -0.1404627E+01  0.2482009E+05 -0.2827729E+01  0.3911785E+06  0.1737395E+01
  0.1164286E+01  0.1503488E+06 -0.1383698E+01  0.2472906E+05 -0.2820192E+01  0.4034212E+06  0.1758389E+01
  0.1195238E+01  0.1559628E+06 -0.1361216E+01  0.2456305E+05 -0.2812437E+01  0.4153706E+06  0.1780885E+01
  0.1226190E+01  0.1612460E+06 -0.1337205E+01  0.2434447E+05 -0.2804963E+01  0.4259828E+06  0.1804926E+01
  0.1257143E+01  0.1660937E+06 -0.1311674E+01  0.2408511E+05 -0.2797474E+01  0.4351733E+06  0.1830478E+01
  0.1288095E+01  0.1710057E+06 -0.1284921E+01  0.2378773E+05 -0.2790421E+01  0.4443082E+06  0.1857231E+01
  0.1319048E+01  0.1750236E+06 -0.1256553E+01  0.2344514E+05 -0.2783455E+01  0.4510799E+06  0.1885504E+01
  0.1350000E+01  0.1783564E+06 -0.1226956E+01  0.2295847E+05 -0.2777207E+01  0.4555542E+06  0.1915034E+01
  0.1380952E+01  0.1813468E+06 -0.1196417E+01  0.2242186E+05 -0.2770731E+01  0.4591370E+06  0.1945477E+01
  0.1411905E+01  0.1830851E+06 -0.1164764E+01  0.2185137E+05 -0.2764473E+01  0.4598078E+06  0.1976759E+01
  0.1442857E+01  0.1847354E+06 -0.1132637E+01  0.2126945E+05 -0.2758399E+01  0.4591368E+06  0.2008893E+01
  0.1473810E+01  0.1858798E+06 -0.1099942E+01  0.2065560E+05 -0.2752251E+01  0.4573253E+06  0.2041458E+01
  0.1504762E+01  0.1861032E+06 -0.1066488E+01  0.2003025E+05 -0.2746152E+01  0.4533935E+06  0.2074693E+01
  0.1535714E+01  0.1854522E+06 -0.1032716E+01  0.1935911E+05 -0.2741114E+01  0.4470312E+06  0.2108221E+01
  0.1566667E+01  0.1840385E+06 -0.9989116E+00  0.1863046E+05 -0.2736564E+01  0.4386792E+06  0.2141829E+01
  0.1597619E+01  0.1821132E+06 -0.9652390E+00  0.1786900E+05 -0.2731974E+01  0.4295009E+06  0.2175239E+01
  0.1628572E+01  0.1794164E+06 -0.9319221E+00  0.1711507E+05 -0.2727512E+01  0.4182237E+06  0.2208306E+01
  0.1659524E+01  0.1760906E+06 -0.8991656E+00  0.1637607E+05 -0.2723366E+01  0.4053705E+06  0.2240933E+01
  0.1690476E+01  0.1722935E+06 -0.8669170E+00  0.1562175E+05 -0.2719322E+01  0.3918354E+06  0.2272845E+01
  0.1721429E+01  0.1679584E+06 -0.8350974E+00  0.1487763E+05 -0.2715273E+01  0.3775678E+06  0.2304238E+01
  0.1752381E+01  0.1629072E+06 -0.8040506E+00  0.1415629E+05 -0.2711286E+01  0.3616677E+06  0.2334857E+01
  0.1783333E+01  0.1573274E+06 -0.7741907E+00  0.1342947E+05 -0.2709079E+01  0.3445025E+06  0.2364249E+01
  0.1814286E+01  0.1514358E+06 -0.7451218E+00  0.1267898E+05 -0.2707106E+01  0.3271654E+06  0.2392913E+01
  0.1845238E+01  0.1453109E+06 -0.7167765E+00  0.1193090E+05 -0.2705566E+01  0.3100211E+06  0.2420773E+01
  0.1876190E+01  0.1388463E+06 -0.6896606E+00  0.1121749E+05 -0.2704088E+01  0.2922038E+06  0.2447251E+01
  0.1907143E+01  0.1321461E+06 -0.6637771E+00  0.1054262E+05 -0.2702863E+01  0.2740316E+06  0.2472510E+01
  0.1938095E+01  0.1253993E+06 -0.6390663E+00  0.9881649E+04 -0.2702226E+01  0.2563203E+06  0.2496463E+01
  0.1969048E+01  0.1186606E+06 -0.6155378E+00  0.9236977E+04 -0.2702109E+01  0.2392366E+06  0.2519121E+01
  0.2000000E+01  0.1116412E+06 -0.5926473E+00  0.8620147E+04 -0.2702189E+01  0.2219238E+06  0.2541239E+01
