VARIABLES="w (rad/s)"
"abs(F   1   1)" "angle(F   1   1)"
"abs(F   1   2)" "angle(F   1   2)"
"abs(F   1   3)" "angle(F   1   3)"
Zone t="Diffraction force - beta =   0.000 deg",I=    64,F=POINT
  0.5000000E-01  0.9799379E+03 -0.1570804E+01  0.1219696E+06 -0.8364353E-05  0.1699014E+04  0.1570782E+01
  0.8095238E-01  0.1602476E+04 -0.1570763E+01  0.1218020E+06 -0.2250970E-04  0.2777616E+04  0.1570746E+01
  0.1119048E+00  0.2240604E+04 -0.1570791E+01  0.1215555E+06 -0.4472242E-04  0.3877401E+04  0.1570811E+01
  0.1428571E+00  0.2897098E+04 -0.1570795E+01  0.1212300E+06 -0.7675119E-04  0.5007291E+04  0.1570780E+01
  0.1738095E+00  0.3580516E+04 -0.1570790E+01  0.1208256E+06 -0.1212107E-03  0.6178441E+04  0.1570792E+01
  0.2047619E+00  0.4297941E+04 -0.1570783E+01  0.1203417E+06 -0.1819032E-03  0.7406258E+04  0.1570812E+01
  0.2357143E+00  0.5064062E+04 -0.1570795E+01  0.1197787E+06 -0.2644718E-03  0.8706416E+04  0.1570803E+01
  0.2666667E+00  0.5883074E+04 -0.1570790E+01  0.1191361E+06 -0.3758137E-03  0.1009122E+05  0.1570804E+01
  0.2976190E+00  0.6766127E+04 -0.1570777E+01  0.1184141E+06 -0.5276175E-03  0.1158277E+05  0.1570820E+01
  0.3285715E+00  0.7733430E+04 -0.1570768E+01  0.1176133E+06 -0.7319543E-03  0.1320039E+05  0.1570822E+01
  0.3595238E+00  0.8802697E+04 -0.1570751E+01  0.1167348E+06 -0.1007934E-02  0.1496911E+05  0.1570840E+01
  0.3904762E+00  0.9965115E+04 -0.1570735E+01  0.1157793E+06 -0.1377071E-02  0.1689933E+05  0.1570859E+01
  0.4214286E+00  0.1125757E+05 -0.1570704E+01  0.1147514E+06 -0.1854503E-02  0.1901905E+05  0.1570886E+01
  0.4523810E+00  0.1268217E+05 -0.1570660E+01  0.1136531E+06 -0.2477307E-02  0.2133657E+05  0.1570932E+01
  0.4833333E+00  0.1422730E+05 -0.1570598E+01  0.1124898E+06 -0.3232623E-02  0.2383754E+05  0.1570994E+01
  0.5142857E+00  0.1589800E+05 -0.1570514E+01  0.1112625E+06 -0.4164142E-02  0.2652665E+05  0.1571079E+01
  0.5452381E+00  0.1768034E+05 -0.1570403E+01  0.1099776E+06 -0.5262262E-02  0.2936431E+05  0.1571194E+01
  0.5761905E+00  0.1958288E+05 -0.1570252E+01  0.1086384E+06 -0.6533294E-02  0.3234592E+05  0.1571339E+01
  0.6071429E+00  0.2157372E+05 -0.1570061E+01  0.1072475E+06 -0.8014860E-02  0.3544854E+05  0.1571532E+01
  0.6380953E+00  0.2363117E+05 -0.1569820E+01  0.1058031E+06 -0.9681025E-02  0.3863625E+05  0.1571775E+01
  0.6690477E+00  0.2577950E+05 -0.1569518E+01  0.1043132E+06 -0.1156900E-01  0.4190267E+05  0.1572073E+01
  0.7000000E+00  0.2801048E+05 -0.1569145E+01  0.1027834E+06 -0.1370423E-01  0.4524815E+05  0.1572446E+01
  0.7309524E+00  0.3030111E+05 -0.1568694E+01  0.1012129E+06 -0.1607868E-01  0.4864127E+05  0.1572897E+01
  0.7619048E+00  0.3265287E+05 -0.1568149E+01  0.9960638E+05 -0.1871766E-01  0.5205907E+05  0.1573441E+01
  0.7928572E+00  0.3506417E+05 -0.1567500E+01  0.9796570E+05 -0.2163817E-01  0.5553298E+05  0.1574092E+01
  0.8238096E+00  0.3749230E+05 -0.1566730E+01  0.9629806E+05 -0.2485517E-01  0.5898454E+05  0.1574862E+01
  0.8547620E+00  0.3999419E+05 -0.1565828E+01  0.9460504E+05 -0.2837731E-01  0.6246700E+05  0.1575766E+01
  0.8857143E+00  0.4256790E+05 -0.1564774E+01  0.9289248E+05 -0.3221814E-01  0.6594643E+05  0.1576819E+01
  0.9166667E+00  0.4518361E+05 -0.1563555E+01  0.9116223E+05 -0.3638698E-01  0.6944435E+05  0.1578037E+01
  0.9476191E+00  0.4780000E+05 -0.1562154E+01  0.8942208E+05 -0.4089927E-01  0.7286720E+05  0.1579437E+01
  0.9785714E+00  0.5045462E+05 -0.1560554E+01  0.8766673E+05 -0.4575989E-01  0.7628873E+05  0.1581039E+01
  0.1009524E+01  0.5311497E+05 -0.1558738E+01  0.8590551E+05 -0.5098627E-01  0.7962379E+05  0.1582854E+01
  0.1040476E+01  0.5582978E+05 -0.1556692E+01  0.8413774E+05 -0.5658178E-01  0.8295772E+05  0.1584899E+01
  0.1071429E+01  0.5854509E+05 -0.1554394E+01  0.8237238E+05 -0.6256548E-01  0.8620827E+05  0.1587197E+01
  0.1102381E+01  0.6127000E+05 -0.1551832E+01  0.8061333E+05 -0.6894293E-01  0.8935206E+05  0.1589759E+01
  0.1133333E+01  0.6402031E+05 -0.1548984E+01  0.7885809E+05 -0.7571158E-01  0.9246962E+05  0.1592608E+01
  0.1164286E+01  0.6675943E+05 -0.1545840E+01  0.7711281E+05 -0.8288690E-01  0.9544675E+05  0.1595753E+01
  0.1195238E+01  0.6952435E+05 -0.1542385E+01  0.7537477E+05 -0.9046186E-01  0.9837070E+05  0.1599208E+01
  0.1226190E+01  0.7223579E+05 -0.1538600E+01  0.7364674E+05 -0.9846022E-01  0.1011682E+06  0.1602993E+01
  0.1257143E+01  0.7485642E+05 -0.1534485E+01  0.7193938E+05 -0.1069729E+00  0.1037529E+06  0.1607104E+01
  0.1288095E+01  0.7751027E+05 -0.1530011E+01  0.7024016E+05 -0.1157567E+00  0.1062881E+06  0.1611573E+01
  0.1319048E+01  0.8010838E+05 -0.1525198E+01  0.6856365E+05 -0.1250685E+00  0.1086483E+06  0.1616380E+01
  0.1350000E+01  0.8269043E+05 -0.1520039E+01  0.6690809E+05 -0.1348253E+00  0.1108500E+06  0.1621536E+01
  0.1380952E+01  0.8527045E+05 -0.1514530E+01  0.6527277E+05 -0.1450053E+00  0.1129561E+06  0.1627043E+01
  0.1411905E+01  0.8747132E+05 -0.1509015E+01  0.6370628E+05 -0.1551771E+00  0.1147220E+06  0.1632565E+01
  0.1442857E+01  0.8984005E+05 -0.1502850E+01  0.6212908E+05 -0.1662399E+00  0.1164029E+06  0.1638730E+01
  0.1473810E+01  0.9212301E+05 -0.1496355E+01  0.6057593E+05 -0.1777640E+00  0.1178922E+06  0.1645229E+01
  0.1504762E+01  0.9433112E+05 -0.1489532E+01  0.5904392E+05 -0.1897381E+00  0.1192481E+06  0.1652055E+01
  0.1535714E+01  0.9640223E+05 -0.1482439E+01  0.5754360E+05 -0.2021651E+00  0.1202924E+06  0.1659134E+01
  0.1566667E+01  0.9838793E+05 -0.1475080E+01  0.5606345E+05 -0.2150562E+00  0.1211695E+06  0.1666474E+01
  0.1597619E+01  0.1002696E+06 -0.1467485E+01  0.5460870E+05 -0.2284053E+00  0.1218886E+06  0.1674034E+01
  0.1628572E+01  0.1019573E+06 -0.1459681E+01  0.5318586E+05 -0.2422784E+00  0.1223389E+06  0.1681805E+01
  0.1659524E+01  0.1035033E+06 -0.1451759E+01  0.5179688E+05 -0.2566261E+00  0.1225213E+06  0.1689674E+01
  0.1690476E+01  0.1049021E+06 -0.1443750E+01  0.5044004E+05 -0.2714683E+00  0.1224555E+06  0.1697637E+01
  0.1721429E+01  0.1061728E+06 -0.1435668E+01  0.4911062E+05 -0.2868125E+00  0.1222377E+06  0.1705704E+01
  0.1752381E+01  0.1072880E+06 -0.1427609E+01  0.4781334E+05 -0.3026092E+00  0.1217865E+06  0.1713739E+01
  0.1783333E+01  0.1082243E+06 -0.1419644E+01  0.4654943E+05 -0.3188548E+00  0.1210694E+06  0.1721659E+01
  0.1814286E+01  0.1090112E+06 -0.1411812E+01  0.4531036E+05 -0.3355657E+00  0.1201780E+06  0.1729445E+01
  0.1845238E+01  0.1096472E+06 -0.1404169E+01  0.4409678E+05 -0.3527482E+00  0.1191350E+06  0.1737034E+01
  0.1876190E+01  0.1100435E+06 -0.1396785E+01  0.4291887E+05 -0.3704773E+00  0.1178342E+06  0.1744378E+01
  0.1907143E+01  0.1102675E+06 -0.1389789E+01  0.4176995E+05 -0.3886626E+00  0.1163179E+06  0.1751301E+01
  0.1938095E+01  0.1102926E+06 -0.1383273E+01  0.4065592E+05 -0.4072824E+00  0.1145489E+06  0.1757697E+01
  0.1969048E+01  0.1101718E+06 -0.1377207E+01  0.3956445E+05 -0.4264728E+00  0.1126693E+06  0.1763711E+01
  0.2000000E+01  0.1099052E+06 -0.1371644E+01  0.3850134E+05 -0.4462142E+00  0.1106935E+06  0.1769279E+01
