VARIABLES="w (rad/s)"
"abs(F   1   1)" "angle(F   1   1)"
"abs(F   1   2)" "angle(F   1   2)"
"abs(F   1   3)" "angle(F   1   3)"
Zone t="Diffraction force - beta =   0.000 deg",I=    64,F=POINT
  0.5000000E-01  0.2751882E+04 -0.1570810E+01  0.1782464E+06 -0.1206469E-04  0.6701508E+04  0.1570797E+01
  0.8095238E-01  0.4500039E+04 -0.1570795E+01  0.1777345E+06 -0.3242239E-04  0.1095451E+05  0.1570812E+01
  0.1119048E+00  0.6277641E+04 -0.1570787E+01  0.1769816E+06 -0.6427585E-04  0.1528004E+05  0.1570803E+01
  0.1428571E+00  0.8118479E+04 -0.1570797E+01  0.1759893E+06 -0.1100142E-03  0.1974059E+05  0.1570814E+01
  0.1738095E+00  0.1003244E+05 -0.1570787E+01  0.1747581E+06 -0.1730758E-03  0.2438075E+05  0.1570808E+01
  0.2047619E+00  0.1204172E+05 -0.1570783E+01  0.1732880E+06 -0.2586948E-03  0.2923638E+05  0.1570814E+01
  0.2357143E+00  0.1417841E+05 -0.1570770E+01  0.1715868E+06 -0.3743459E-03  0.3439431E+05  0.1570821E+01
  0.2666667E+00  0.1646237E+05 -0.1570762E+01  0.1696494E+06 -0.5287327E-03  0.3989325E+05  0.1570832E+01
  0.2976190E+00  0.1893929E+05 -0.1570745E+01  0.1674886E+06 -0.7378852E-03  0.4583266E+05  0.1570851E+01
  0.3285715E+00  0.2163424E+05 -0.1570723E+01  0.1651003E+06 -0.1016137E-02  0.5229029E+05  0.1570867E+01
  0.3595238E+00  0.2460267E+05 -0.1570683E+01  0.1625070E+06 -0.1388919E-02  0.5937756E+05  0.1570907E+01
  0.3904762E+00  0.2785748E+05 -0.1570628E+01  0.1596973E+06 -0.1881656E-02  0.6711447E+05  0.1570965E+01
  0.4214286E+00  0.3146726E+05 -0.1570546E+01  0.1567212E+06 -0.2511039E-02  0.7566584E+05  0.1571045E+01
  0.4523810E+00  0.3540509E+05 -0.1570429E+01  0.1535520E+06 -0.3327359E-02  0.8500913E+05  0.1571165E+01
  0.4833333E+00  0.3971788E+05 -0.1570261E+01  0.1502478E+06 -0.4297285E-02  0.9513150E+05  0.1571333E+01
  0.5142857E+00  0.4436286E+05 -0.1570030E+01  0.1467996E+06 -0.5484807E-02  0.1060057E+06  0.1571562E+01
  0.5452381E+00  0.4931989E+05 -0.1569721E+01  0.1432174E+06 -0.6862806E-02  0.1175848E+06  0.1571869E+01
  0.5761905E+00  0.5458552E+05 -0.1569322E+01  0.1395500E+06 -0.8432527E-02  0.1298605E+06  0.1572270E+01
  0.6071429E+00  0.6009070E+05 -0.1568805E+01  0.1357624E+06 -0.1024991E-01  0.1425651E+06  0.1572788E+01
  0.6380953E+00  0.6583901E+05 -0.1568157E+01  0.1319003E+06 -0.1224669E-01  0.1557171E+06  0.1573435E+01
  0.6690477E+00  0.7182760E+05 -0.1567351E+01  0.1279805E+06 -0.1448489E-01  0.1693724E+06  0.1574241E+01
  0.7000000E+00  0.7794580E+05 -0.1566357E+01  0.1239766E+06 -0.1699092E-01  0.1832742E+06  0.1575235E+01
  0.7309524E+00  0.8425744E+05 -0.1565156E+01  0.1199332E+06 -0.1972634E-01  0.1975136E+06  0.1576438E+01
  0.7619048E+00  0.9080533E+05 -0.1563711E+01  0.1158809E+06 -0.2273464E-01  0.2120845E+06  0.1577882E+01
  0.7928572E+00  0.9743797E+05 -0.1561989E+01  0.1117872E+06 -0.2602962E-01  0.2267121E+06  0.1579603E+01
  0.8238096E+00  0.1042356E+06 -0.1559956E+01  0.1076456E+06 -0.2962613E-01  0.2416168E+06  0.1581637E+01
  0.8547620E+00  0.1111312E+06 -0.1557576E+01  0.1035779E+06 -0.3349503E-01  0.2565618E+06  0.1584017E+01
  0.8857143E+00  0.1181865E+06 -0.1554812E+01  0.9951457E+05 -0.3768837E-01  0.2717994E+06  0.1586781E+01
  0.9166667E+00  0.1252486E+06 -0.1551625E+01  0.9544594E+05 -0.4221235E-01  0.2868765E+06  0.1589967E+01
  0.9476191E+00  0.1324692E+06 -0.1547982E+01  0.9138100E+05 -0.4710352E-01  0.3020785E+06  0.1593610E+01
  0.9785714E+00  0.1397121E+06 -0.1543841E+01  0.8742735E+05 -0.5226510E-01  0.3170168E+06  0.1597751E+01
  0.1009524E+01  0.1470911E+06 -0.1539160E+01  0.8353073E+05 -0.5779271E-01  0.3320690E+06  0.1602431E+01
  0.1040476E+01  0.1543937E+06 -0.1533901E+01  0.7967717E+05 -0.6372401E-01  0.3468033E+06  0.1607689E+01
  0.1071429E+01  0.1616545E+06 -0.1528029E+01  0.7586802E+05 -0.7008310E-01  0.3612388E+06  0.1613561E+01
  0.1102381E+01  0.1689138E+06 -0.1521510E+01  0.7210602E+05 -0.7690964E-01  0.3755059E+06  0.1620079E+01
  0.1133333E+01  0.1760862E+06 -0.1514321E+01  0.6852202E+05 -0.8389739E-01  0.3893409E+06  0.1627268E+01
  0.1164286E+01  0.1832821E+06 -0.1506463E+01  0.6501159E+05 -0.9136171E-01  0.4029158E+06  0.1635123E+01
  0.1195238E+01  0.1902882E+06 -0.1497914E+01  0.6158135E+05 -0.9933755E-01  0.4158194E+06  0.1643670E+01
  0.1226190E+01  0.1970542E+06 -0.1488663E+01  0.5822680E+05 -0.1078458E+00  0.4278286E+06  0.1652915E+01
  0.1257143E+01  0.2036092E+06 -0.1478705E+01  0.5495543E+05 -0.1170614E+00  0.4393078E+06  0.1662872E+01
  0.1288095E+01  0.2100348E+06 -0.1468006E+01  0.5182130E+05 -0.1263762E+00  0.4499994E+06  0.1673562E+01
  0.1319048E+01  0.2161337E+06 -0.1456628E+01  0.4883205E+05 -0.1360054E+00  0.4598438E+06  0.1684937E+01
  0.1350000E+01  0.2219672E+06 -0.1444569E+01  0.4594771E+05 -0.1462049E+00  0.4689666E+06  0.1696992E+01
  0.1380952E+01  0.2273162E+06 -0.1431878E+01  0.4316171E+05 -0.1570697E+00  0.4768916E+06  0.1709687E+01
  0.1411905E+01  0.2319414E+06 -0.1418600E+01  0.4047323E+05 -0.1687319E+00  0.4832850E+06  0.1722956E+01
  0.1442857E+01  0.2363635E+06 -0.1404866E+01  0.3788847E+05 -0.1812075E+00  0.4889496E+06  0.1736692E+01
  0.1473810E+01  0.2402454E+06 -0.1390875E+01  0.3540948E+05 -0.1943436E+00  0.4930575E+06  0.1750658E+01
  0.1504762E+01  0.2435968E+06 -0.1376631E+01  0.3309779E+05 -0.2068454E+00  0.4957933E+06  0.1764878E+01
  0.1535714E+01  0.2464643E+06 -0.1362208E+01  0.3089296E+05 -0.2201274E+00  0.4973890E+06  0.1779276E+01
  0.1566667E+01  0.2487155E+06 -0.1347680E+01  0.2879790E+05 -0.2340329E+00  0.4977100E+06  0.1793801E+01
  0.1597619E+01  0.2502452E+06 -0.1333254E+01  0.2680073E+05 -0.2488011E+00  0.4964123E+06  0.1808216E+01
  0.1628572E+01  0.2510316E+06 -0.1319096E+01  0.2489484E+05 -0.2646550E+00  0.4934398E+06  0.1822330E+01
  0.1659524E+01  0.2512831E+06 -0.1305173E+01  0.2309720E+05 -0.2813411E+00  0.4895280E+06  0.1836262E+01
  0.1690476E+01  0.2509398E+06 -0.1291877E+01  0.2138654E+05 -0.2993822E+00  0.4842860E+06  0.1849523E+01
  0.1721429E+01  0.2499124E+06 -0.1279359E+01  0.1979881E+05 -0.3160775E+00  0.4774985E+06  0.1861950E+01
  0.1752381E+01  0.2484067E+06 -0.1267551E+01  0.1830619E+05 -0.3333452E+00  0.4698636E+06  0.1873713E+01
  0.1783333E+01  0.2464435E+06 -0.1256580E+01  0.1690680E+05 -0.3512548E+00  0.4614325E+06  0.1884636E+01
  0.1814286E+01  0.2438477E+06 -0.1246579E+01  0.1560018E+05 -0.3695515E+00  0.4519504E+06  0.1894650E+01
  0.1845238E+01  0.2407354E+06 -0.1237764E+01  0.1436901E+05 -0.3891512E+00  0.4414756E+06  0.1903419E+01
  0.1876190E+01  0.2371358E+06 -0.1230350E+01  0.1320991E+05 -0.4103313E+00  0.4300686E+06  0.1910695E+01
  0.1907143E+01  0.2332583E+06 -0.1224075E+01  0.1213432E+05 -0.4317344E+00  0.4184040E+06  0.1916958E+01
  0.1938095E+01  0.2291157E+06 -0.1219069E+01  0.1113037E+05 -0.4544220E+00  0.4064632E+06  0.1921990E+01
  0.1969048E+01  0.2245749E+06 -0.1215753E+01  0.1019088E+05 -0.4780191E+00  0.3937212E+06  0.1925110E+01
  0.2000000E+01  0.2198471E+06 -0.1213794E+01  0.9316269E+04 -0.5009516E+00  0.3808460E+06  0.1926916E+01
