VARIABLES="w (rad/s)"
"A   1   1" "B   1   1"
"A   1   2" "B   1   2"
"A   1   3" "B   1   3"
Zone t="Motion of body    1 in DoF   1",I=    64,F=POINT
  0.5000000E-01  0.2419315E+05  0.8346161E-03  0.2527237E-02  0.3000462E-05  0.3265799E+03  0.1458982E-04
  0.8095238E-01  0.2421603E+05  0.3613643E-02  0.3051197E-02  0.9653058E-06  0.3264309E+03  0.6202700E-04
  0.1119048E+00  0.2422724E+05  0.1017021E-01  0.2330821E-02 -0.4496362E-05  0.3217162E+03  0.1737165E-03
  0.1428571E+00  0.2425827E+05  0.2290178E-01  0.3351211E-02  0.7820418E-05  0.3257108E+03  0.3949532E-03
  0.1738095E+00  0.2431746E+05  0.4567776E-01 -0.5613092E-02 -0.4257514E-04  0.3236056E+03  0.7850842E-03
  0.2047619E+00  0.2435349E+05  0.8439934E-01  0.2347369E-02  0.1674202E-04  0.3269111E+03  0.1456380E-02
  0.2357143E+00  0.2435492E+05  0.1487590E+00  0.1581943E-02  0.4284503E-04  0.3264529E+03  0.2578949E-02
  0.2666667E+00  0.2444164E+05  0.2544344E+00  0.8583068E-04 -0.6241375E-05  0.3282012E+03  0.4436148E-02
  0.2976190E+00  0.2449780E+05  0.4276041E+00  0.3383789E-02  0.6903929E-04  0.3321158E+03  0.7499100E-02
  0.3285715E+00  0.2450271E+05  0.7086592E+00  0.1520903E-02 -0.2775458E-05  0.3309205E+03  0.1246935E-01
  0.3595238E+00  0.2459423E+05  0.1167038E+01  0.1252029E-02  0.7496262E-04  0.3335715E+03  0.2065867E-01
  0.3904762E+00  0.2468637E+05  0.1908524E+01  0.4410860E-02  0.1683631E-03  0.3379326E+03  0.3405636E-01
  0.4214286E+00  0.2472126E+05  0.3077656E+01 -0.7513013E-03 -0.1207888E-03  0.3415132E+03  0.5538427E-01
  0.4523810E+00  0.2480448E+05  0.4922787E+01 -0.1066710E-02 -0.1412574E-03  0.3431277E+03  0.8918917E-01
  0.4833333E+00  0.2494625E+05  0.7688481E+01  0.4435572E-02  0.3738161E-03  0.3520337E+03  0.1410184E+00
  0.5142857E+00  0.2507044E+05  0.1180793E+02  0.5362829E-02  0.3759749E-03  0.3569781E+03  0.2186068E+00
  0.5452381E+00  0.2509748E+05  0.1768382E+02  0.9934871E-03  0.1461059E-04  0.3538399E+03  0.3290479E+00
  0.5761905E+00  0.2522083E+05  0.2589634E+02 -0.4826380E-02 -0.3789067E-03  0.3612007E+03  0.4877042E+00
  0.6071429E+00  0.2540839E+05  0.3725932E+02  0.3531063E-02  0.5246103E-03  0.3681192E+03  0.7092095E+00
  0.6380953E+00  0.2557005E+05  0.5241719E+02  0.4483692E-03 -0.9723008E-04  0.3762518E+03  0.1010553E+01
  0.6690477E+00  0.2567650E+05  0.7243604E+02 -0.8381473E-03 -0.1079738E-03  0.3775374E+03  0.1408625E+01
  0.7000000E+00  0.2579257E+05  0.9861055E+02  0.1536778E-02  0.1037121E-03  0.3795156E+03  0.1935042E+01
  0.7309524E+00  0.2597514E+05  0.1322812E+03  0.1356889E-03 -0.2527237E-03  0.3876611E+03  0.2629393E+01
  0.7619048E+00  0.2620812E+05  0.1752439E+03  0.1036405E-02  0.1643896E-03  0.3994161E+03  0.3536604E+01
  0.7928572E+00  0.2644571E+05  0.2293970E+03 -0.4440857E-02 -0.1412213E-02  0.4091739E+03  0.4692914E+01
  0.8238096E+00  0.2664428E+05  0.2967952E+03  0.2778334E-03  0.6859303E-03  0.4132912E+03  0.6136127E+01
  0.8547620E+00  0.2679679E+05  0.3797415E+03  0.1155885E-02  0.1107156E-02  0.4172468E+03  0.7942280E+01
  0.8857143E+00  0.2701443E+05  0.4814262E+03  0.5598991E-03  0.1928806E-03  0.4269521E+03  0.1021555E+02
  0.9166667E+00  0.2727982E+05  0.6049877E+03  0.3620494E-03  0.1175523E-02  0.4369691E+03  0.1301330E+02
  0.9476191E+00  0.2757431E+05  0.7539260E+03  0.0000000E+00  0.5902052E-03  0.4475143E+03  0.1644348E+02
  0.9785714E+00  0.2786438E+05  0.9319173E+03 -0.7796461E-05 -0.1264572E-02  0.4612542E+03  0.2065832E+02
  0.1009524E+01  0.2816342E+05  0.1143259E+04  0.1881797E-02  0.2632141E-03  0.4757269E+03  0.2577407E+02
  0.1040476E+01  0.2843526E+05  0.1391888E+04  0.2097123E-02  0.2425432E-02  0.4841805E+03  0.3180810E+02
  0.1071429E+01  0.2868093E+05  0.1682351E+04  0.3830974E-02  0.2275229E-02  0.4908840E+03  0.3893761E+02
  0.1102381E+01  0.2894910E+05  0.2019846E+04  0.3045166E-03  0.5226135E-03  0.5008351E+03  0.4741359E+02
  0.1133333E+01  0.2923921E+05  0.2409357E+04  0.5398918E-02  0.5674839E-02  0.5150350E+03  0.5747010E+02
  0.1164286E+01  0.2956148E+05  0.2856595E+04  0.1946198E-02  0.2526760E-02  0.5318482E+03  0.6933420E+02
  0.1195238E+01  0.2988668E+05  0.3366421E+04 -0.1231950E-02 -0.8597374E-03  0.5468081E+03  0.8305502E+02
  0.1226190E+01  0.3019966E+05  0.3943963E+04 -0.9581927E-03  0.8497238E-03  0.5622548E+03  0.9891396E+02
  0.1257143E+01  0.3046758E+05  0.4594561E+04  0.2755252E-02  0.2835274E-02  0.5755196E+03  0.1170872E+03
  0.1288095E+01  0.3074257E+05  0.5321201E+04  0.3583418E-02 -0.1482010E-02  0.5899536E+03  0.1379292E+03
  0.1319048E+01  0.3095197E+05  0.6128408E+04  0.5246104E-02  0.4548073E-02  0.6013399E+03  0.1615295E+03
  0.1350000E+01  0.3113020E+05  0.7019303E+04 -0.6781684E-04  0.9155273E-04  0.6135725E+03  0.1882350E+03
  0.1380952E+01  0.3129255E+05  0.7994457E+04  0.5358992E-03 -0.3808022E-02  0.6243571E+03  0.2178922E+03
  0.1411905E+01  0.3128484E+05  0.9004918E+04  0.1772387E-02  0.2286911E-02  0.6233966E+03  0.2483509E+03
  0.1442857E+01  0.3138681E+05  0.1014169E+05  0.4706052E-03  0.6790161E-03  0.6334937E+03  0.2841503E+03
  0.1473810E+01  0.3144594E+05  0.1136057E+05  0.4042963E-02  0.3175735E-02  0.6438469E+03  0.3239034E+03
  0.1504762E+01  0.3144851E+05  0.1265750E+05  0.1429787E-02  0.2159119E-02  0.6533810E+03  0.3674699E+03
  0.1535714E+01  0.3140056E+05  0.1402889E+05  0.1187347E-02 -0.2479553E-03  0.6620181E+03  0.4149212E+03
  0.1566667E+01  0.3129589E+05  0.1546637E+05 -0.8960480E-03 -0.2948761E-02  0.6698129E+03  0.4659008E+03
  0.1597619E+01  0.3113771E+05  0.1695804E+05  0.3252100E-02  0.2168655E-02  0.6740194E+03  0.5198228E+03
  0.1628572E+01  0.3091375E+05  0.1849201E+05 -0.1236765E-02 -0.3505707E-02  0.6757283E+03  0.5764090E+03
  0.1659524E+01  0.3063134E+05  0.2005865E+05  0.1792962E-03  0.3776550E-03  0.6746502E+03  0.6354815E+03
  0.1690476E+01  0.3029230E+05  0.2164720E+05  0.4332636E-03  0.6027222E-03  0.6723758E+03  0.6978363E+03
  0.1721429E+01  0.2988447E+05  0.2324457E+05 -0.1560069E-02  0.4444122E-02  0.6689738E+03  0.7633710E+03
  0.1752381E+01  0.2942533E+05  0.2483718E+05 -0.2351015E-02 -0.2525330E-02  0.6639315E+03  0.8306929E+03
  0.1783333E+01  0.2892021E+05  0.2640918E+05  0.5518833E-03  0.2964020E-02  0.6577578E+03  0.9000353E+03
  0.1814286E+01  0.2836888E+05  0.2794677E+05 -0.2607210E-03  0.8850098E-03  0.6491398E+03  0.9699825E+03
  0.1845238E+01  0.2777810E+05  0.2943924E+05  0.1963954E-02  0.8331299E-02  0.6373199E+03  0.1039696E+04
  0.1876190E+01  0.2714594E+05  0.3087502E+05  0.1089803E-02 -0.1026154E-02  0.6234946E+03  0.1109850E+04
  0.1907143E+01  0.2648020E+05  0.3224628E+05  0.1772191E-02  0.3532410E-02  0.6071652E+03  0.1179461E+04
  0.1938095E+01  0.2579401E+05  0.3354356E+05  0.5826083E-03  0.5199432E-02  0.5902822E+03  0.1248759E+04
  0.1969048E+01  0.2508348E+05  0.3476035E+05  0.5734501E-03  0.8888245E-03  0.5722200E+03  0.1317701E+04
  0.2000000E+01  0.2436180E+05  0.3589021E+05  0.1106262E-02  0.5981445E-02  0.5533018E+03  0.1385442E+04
Zone t="Motion of body    1 in DoF   2",I=    64,F=POINT
  0.5000000E-01  0.2727509E-02 -0.4693866E-06  0.4120419E+05  0.8135216E+02 -0.7152557E-03  0.7003546E-06
  0.8095238E-01 -0.5260075E-02 -0.7510185E-05  0.4094134E+05  0.1350268E+03 -0.1295875E-03  0.4217029E-05
  0.1119048E+00  0.1487123E-02 -0.6303191E-05  0.4078046E+05  0.1936556E+03 -0.1116408E-02  0.3457069E-05
  0.1428571E+00 -0.4713058E-02  0.8940697E-06  0.4070198E+05  0.2595488E+03 -0.1008034E-02  0.2682209E-06
  0.1738095E+00  0.5936818E-02 -0.4053116E-05  0.4070529E+05  0.3356929E+03 -0.4554121E-03  0.3159046E-05
  0.2047619E+00  0.1257519E-03 -0.3576279E-05  0.4077556E+05  0.4257273E+03 -0.6893069E-03  0.6139278E-05
  0.2357143E+00  0.3143657E-02 -0.2014637E-04  0.4089915E+05  0.5348850E+03 -0.3479466E-03  0.1299381E-04
  0.2666667E+00  0.1258850E-02 -0.8696318E-04  0.4106271E+05  0.6678639E+03 -0.8797645E-03  0.2026558E-05
  0.2976190E+00  0.4364319E-02 -0.1267195E-03  0.4126155E+05  0.8343186E+03 -0.4229736E-03 -0.5960464E-06
  0.3285715E+00 -0.1799542E-03  0.1525879E-04  0.4149076E+05  0.1040371E+04 -0.7720615E-03  0.3337860E-05
  0.3595238E+00  0.7692551E-02 -0.6556511E-05  0.4171709E+05  0.1297966E+04 -0.1050431E-02  0.1287460E-04
  0.3904762E+00  0.3399732E-02 -0.1583099E-03  0.4194429E+05  0.1617405E+04 -0.1953869E-03  0.1740456E-04
  0.4214286E+00  0.1221996E-02  0.1978874E-03  0.4209969E+05  0.1996907E+04 -0.9866487E-03 -0.1430511E-05
  0.4523810E+00  0.3739808E-02  0.2939701E-03  0.4223177E+05  0.2456611E+04 -0.7251940E-03  0.7152557E-05
  0.4833333E+00  0.2296711E-02 -0.6661415E-03  0.4225048E+05  0.2963175E+04 -0.3314840E-03 -0.3337860E-05
  0.5142857E+00 -0.6898245E-03 -0.8201599E-04  0.4219602E+05  0.3539559E+04 -0.1631843E-03  0.1335144E-03
  0.5452381E+00  0.1448252E-02 -0.5073547E-03  0.4206669E+05  0.4159144E+04 -0.6506641E-03  0.8487701E-04
  0.5761905E+00  0.2615117E-02  0.3719330E-03  0.4187434E+05  0.4812564E+04 -0.9732206E-03  0.3051758E-04
  0.6071429E+00  0.1734116E-02 -0.1131535E-02  0.4160230E+05  0.5514473E+04 -0.4523782E-03  0.6961823E-04
  0.6380953E+00  0.2863585E-02 -0.3590584E-03  0.4129417E+05  0.6229592E+04 -0.7054343E-03  0.1611710E-03
  0.6690477E+00 -0.5627560E-02 -0.2956390E-04  0.4094205E+05  0.6972943E+04 -0.1374105E-02  0.2002716E-04
  0.7000000E+00  0.1427787E-02  0.2098083E-03  0.4053381E+05  0.7747047E+04 -0.5613054E-03  0.7724762E-04
  0.7309524E+00  0.2880780E-02  0.3528595E-04  0.4009766E+05  0.8532906E+04 -0.3131282E-04  0.2193451E-04
  0.7619048E+00  0.8586644E-02  0.8296967E-04  0.3962878E+05  0.9334043E+04 -0.7810592E-03  0.1640320E-03
  0.7928572E+00 -0.3108119E-02  0.1635551E-02  0.3911961E+05  0.1014759E+05 -0.5100009E-03  0.4959106E-04
  0.8238096E+00 -0.8196086E-03  0.5130768E-03  0.3857569E+05  0.1096794E+05 -0.6390169E-03  0.2803802E-03
  0.8547620E+00 -0.4052292E-02  0.2057076E-02  0.3800788E+05  0.1178945E+05 -0.5801740E-03  0.1239777E-03
  0.8857143E+00  0.3406771E-02 -0.7152557E-04  0.3742813E+05  0.1260683E+05  0.2325735E-03  0.7629395E-04
  0.9166667E+00  0.1652111E-02 -0.1660347E-02  0.3682746E+05  0.1341693E+05 -0.9987571E-03  0.1544952E-03
  0.9476191E+00 -0.1328435E-03  0.1548767E-02  0.3620014E+05  0.1421605E+05 -0.2898403E-03  0.5016327E-03
  0.9785714E+00  0.9745577E-04 -0.2019882E-02  0.3555229E+05  0.1499982E+05 -0.3820266E-03  0.1163483E-03
  0.1009524E+01  0.6423807E-04 -0.9078979E-03  0.3489976E+05  0.1576292E+05 -0.7179549E-03  0.4215240E-03
  0.1040476E+01  0.2691064E-02  0.5130768E-03  0.3424336E+05  0.1650157E+05 -0.4032929E-03  0.1583099E-03
  0.1071429E+01  0.7191976E-03 -0.9937286E-03  0.3357995E+05  0.1721357E+05 -0.6195069E-03  0.5550385E-03
  0.1102381E+01  0.1384167E-04  0.1132965E-02  0.3291451E+05  0.1789651E+05 -0.3183583E-03  0.2822876E-03
  0.1133333E+01  0.4136703E-02 -0.1201630E-02  0.3224867E+05  0.1854845E+05 -0.1285777E-02  0.1888275E-03
  0.1164286E+01  0.1028798E-02 -0.1552582E-02  0.3159306E+05  0.1916537E+05 -0.5504397E-03  0.5912781E-03
  0.1195238E+01  0.5329938E-03 -0.8449554E-03  0.3094425E+05  0.1974534E+05 -0.9893896E-03  0.4444122E-03
  0.1226190E+01  0.3123459E-02  0.2195358E-02  0.3030081E+05  0.2028752E+05 -0.4355421E-03  0.1716614E-04
  0.1257143E+01  0.3550269E-03 -0.3910065E-03  0.2966834E+05  0.2080638E+05 -0.7525357E-03  0.4978180E-03
  0.1288095E+01  0.3109578E-03 -0.3252029E-02  0.2903547E+05  0.2125552E+05 -0.8943737E-03  0.8506775E-03
  0.1319048E+01  0.1020879E-02 -0.2038956E-02  0.2842399E+05  0.2167876E+05 -0.9601468E-03  0.7667542E-03
  0.1350000E+01 -0.1076592E-02  0.3126144E-02  0.2783111E+05  0.2205808E+05 -0.8590133E-03  0.9346008E-03
  0.1380952E+01  0.5303745E-03 -0.4753113E-02  0.2726021E+05  0.2239176E+05 -0.7071660E-03  0.7209778E-03
  0.1411905E+01 -0.6484342E-04 -0.2424240E-02  0.2670545E+05  0.2270847E+05 -0.3890605E-03  0.5645752E-03
  0.1442857E+01  0.2900303E-02  0.8106232E-03  0.2616525E+05  0.2296626E+05 -0.6503870E-03  0.1029968E-02
  0.1473810E+01  0.1659116E-02 -0.1014709E-02  0.2564056E+05  0.2318583E+05 -0.6988476E-03  0.7247925E-03
  0.1504762E+01 -0.1095156E-02 -0.3515244E-02  0.2513552E+05  0.2336569E+05 -0.5222272E-03  0.1140594E-02
  0.1535714E+01  0.1455617E-02  0.5722046E-05  0.2465282E+05  0.2350686E+05 -0.8743641E-03  0.5302429E-03
  0.1566667E+01  0.1947930E-02  0.9403229E-03  0.2419266E+05  0.2360630E+05 -0.7061248E-03  0.1045227E-02
  0.1597619E+01 -0.1967497E-02  0.2098083E-04  0.2375300E+05  0.2366981E+05 -0.2769777E-03  0.1079559E-02
  0.1628572E+01  0.1653705E-02  0.1531601E-02  0.2333320E+05  0.2369758E+05 -0.6886532E-03  0.9422302E-03
  0.1659524E+01  0.6390302E-03 -0.2304077E-02  0.2293275E+05  0.2369101E+05 -0.6298355E-03  0.1155853E-02
  0.1690476E+01  0.2707898E-02  0.7247925E-03  0.2255078E+05  0.2365234E+05 -0.6724612E-03  0.1689911E-02
  0.1721429E+01  0.7667384E-03 -0.2424240E-02  0.2218574E+05  0.2358335E+05 -0.9262908E-03  0.1173019E-02
  0.1752381E+01  0.1027480E-02 -0.2006531E-02  0.2184520E+05  0.2348282E+05 -0.7270731E-03  0.1356125E-02
  0.1783333E+01 -0.2181864E-03 -0.5882263E-02  0.2152700E+05  0.2335383E+05 -0.7101754E-03  0.1256943E-02
  0.1814286E+01  0.3406194E-03 -0.3219604E-02  0.2122961E+05  0.2319492E+05 -0.8452408E-03  0.1239777E-02
  0.1845238E+01  0.2290590E-02 -0.2721786E-02  0.2095003E+05  0.2301207E+05 -0.6036574E-03  0.1569748E-02
  0.1876190E+01  0.1012541E-02 -0.6530762E-02  0.2068768E+05  0.2280369E+05 -0.9352786E-03  0.1596451E-02
  0.1907143E+01  0.1388150E-02  0.1991272E-02  0.2044414E+05  0.2257285E+05 -0.8120877E-03  0.1041412E-02
  0.1938095E+01  0.8817856E-03 -0.5689621E-02  0.2021804E+05  0.2232080E+05 -0.7046412E-03  0.1289368E-02
  0.1969048E+01  0.1166273E-02 -0.3719330E-03  0.2000276E+05  0.2205202E+05 -0.8989217E-03  0.2296448E-02
  0.2000000E+01  0.1739502E-02 -0.3574371E-02  0.1980682E+05  0.2176217E+05 -0.9574890E-03  0.1285553E-02
Zone t="Motion of body    1 in DoF   3",I=    64,F=POINT
  0.5000000E-01  0.3342594E+03  0.1468456E-04  0.1362562E-02  0.3812937E-05  0.4619708E+03  0.4611489E-06
  0.8095238E-01  0.3341421E+03  0.6422230E-04  0.1299557E-02  0.6376740E-05  0.4611036E+03  0.9372956E-06
  0.1119048E+00  0.3282384E+03  0.1798721E-03  0.1390183E-02  0.9618233E-05  0.4570056E+03  0.2972032E-05
  0.1428571E+00  0.3331453E+03  0.4086183E-03  0.1440287E-02  0.1389171E-04  0.4576946E+03  0.7823621E-05
  0.1738095E+00  0.3299132E+03  0.8157633E-03  0.1466372E-02  0.1625644E-04  0.4562656E+03  0.1463210E-04
  0.2047619E+00  0.3342168E+03  0.1509292E-02  0.6107119E-03  0.1466859E-04  0.4604012E+03  0.2486830E-04
  0.2357143E+00  0.3334203E+03  0.2671917E-02  0.4106579E-03  0.1319428E-04  0.4589231E+03  0.4742231E-04
  0.2666667E+00  0.3348843E+03  0.4599280E-02  0.4917383E-04  0.8286747E-05  0.4586162E+03  0.8358445E-04
  0.2976190E+00  0.3391268E+03  0.7764068E-02  0.1729546E-02  0.4942336E-04  0.4581059E+03  0.1366946E-03
  0.3285715E+00  0.3379646E+03  0.1293586E-01  0.1867750E-02  0.6014614E-04  0.4593241E+03  0.2308273E-03
  0.3595238E+00  0.3399683E+03  0.2143676E-01  0.1550447E-02  0.7746287E-04  0.4569321E+03  0.3798265E-03
  0.3904762E+00  0.3448463E+03  0.3529979E-01  0.1941047E-02  0.1062382E-03  0.4587921E+03  0.6188800E-03
  0.4214286E+00  0.3489514E+03  0.5732921E-01  0.4865355E-04  0.4305477E-04  0.4584992E+03  0.1022086E-02
  0.4523810E+00  0.3504651E+03  0.9242143E-01  0.1009790E-02  0.1037376E-03  0.4596477E+03  0.1666191E-02
  0.4833333E+00  0.3598152E+03  0.1455618E+00  0.1883342E-02  0.2036738E-03  0.4598474E+03  0.2667925E-02
  0.5142857E+00  0.3648730E+03  0.2254940E+00 -0.4645189E-03 -0.8065836E-06  0.4596882E+03  0.4161531E-02
  0.5452381E+00  0.3614012E+03  0.3409098E+00  0.1082691E-02  0.1482592E-03  0.4605139E+03  0.6331143E-02
  0.5761905E+00  0.3688701E+03  0.5039520E+00  0.1655137E-05  0.5595572E-04  0.4590700E+03  0.9485618E-02
  0.6071429E+00  0.3760262E+03  0.7321426E+00  0.2646726E-03  0.1000847E-03  0.4609216E+03  0.1393444E-01
  0.6380953E+00  0.3846451E+03  0.1040843E+01  0.2391303E-03  0.1512596E-03  0.4620169E+03  0.2003798E-01
  0.6690477E+00  0.3853849E+03  0.1454685E+01 -0.3791619E-03  0.5854457E-04  0.4597846E+03  0.2829614E-01
  0.7000000E+00  0.3875562E+03  0.2003563E+01 -0.1280648E-03  0.1000026E-03  0.4613002E+03  0.3935859E-01
  0.7309524E+00  0.3960013E+03  0.2718280E+01  0.2981894E-02  0.8821012E-03  0.4622478E+03  0.5409963E-01
  0.7619048E+00  0.4078281E+03  0.3642727E+01 -0.4218220E-03  0.2056826E-04  0.4613399E+03  0.7356799E-01
  0.7928572E+00  0.4179554E+03  0.4828629E+01  0.1958211E-02  0.7867496E-03  0.4620805E+03  0.9879421E-01
  0.8238096E+00  0.4221500E+03  0.6331950E+01  0.3078742E-02  0.1293050E-02  0.4632588E+03  0.1309179E+00
  0.8547620E+00  0.4261405E+03  0.8211679E+01 -0.4027746E-03 -0.1147948E-04  0.4634374E+03  0.1717381E+00
  0.8857143E+00  0.4358112E+03  0.1054709E+02  0.1168251E-02  0.6994270E-03  0.4620835E+03  0.2234626E+00
  0.9166667E+00  0.4461913E+03  0.1343635E+02  0.6023754E-03  0.5628020E-03  0.4627314E+03  0.2888009E+00
  0.9476191E+00  0.4569188E+03  0.1697777E+02  0.7054794E-03  0.6447770E-03  0.4646969E+03  0.3700875E+00
  0.9785714E+00  0.4709745E+03  0.2127400E+02  0.8147302E-03  0.6026253E-03  0.4658813E+03  0.4720789E+00
  0.1009524E+01  0.4856613E+03  0.2647624E+02 -0.1511484E-04  0.2752729E-03  0.4653585E+03  0.5968980E+00
  0.1040476E+01  0.4939295E+03  0.3274063E+02  0.2895460E-02  0.2088822E-02  0.4646222E+03  0.7483457E+00
  0.1071429E+01  0.5013981E+03  0.4023857E+02  0.1379649E-03  0.3373474E-03  0.4659626E+03  0.9309039E+00
  0.1102381E+01  0.5116143E+03  0.4905486E+02  0.4957046E-03  0.6094053E-03  0.4671142E+03  0.1152173E+01
  0.1133333E+01  0.5261302E+03  0.5935276E+02  0.1408633E-02  0.1702636E-02  0.4681433E+03  0.1413887E+01
  0.1164286E+01  0.5428615E+03  0.7141350E+02  0.1233575E-02  0.1735002E-02  0.4674768E+03  0.1727786E+01
  0.1195238E+01  0.5574263E+03  0.8546252E+02  0.1822392E-02  0.2227619E-02  0.4673914E+03  0.2102132E+01
  0.1226190E+01  0.5736906E+03  0.1017746E+03  0.9441932E-03  0.1371324E-02  0.4689500E+03  0.2553649E+01
  0.1257143E+01  0.5877573E+03  0.1205778E+03  0.1236525E-02  0.2135485E-02  0.4712817E+03  0.3077551E+01
  0.1288095E+01  0.6021202E+03  0.1419527E+03  0.1080208E-02  0.1743883E-02  0.4721018E+03  0.3686598E+01
  0.1319048E+01  0.6134567E+03  0.1663727E+03  0.1821965E-03  0.1005679E-02  0.4722763E+03  0.4401078E+01
  0.1350000E+01  0.6258172E+03  0.1939079E+03  0.6096452E-03  0.1609832E-02  0.4716216E+03  0.5190635E+01
  0.1380952E+01  0.6365119E+03  0.2246812E+03 -0.5248497E-04  0.1180202E-02  0.4712846E+03  0.6125325E+01
  0.1411905E+01  0.6094651E+03  0.2481476E+03  0.1241481E-02  0.2617151E-02  0.4694190E+03  0.6811848E+01
  0.1442857E+01  0.6202138E+03  0.2843993E+03  0.7766308E-03  0.2111733E-02  0.4715895E+03  0.7982546E+01
  0.1473810E+01  0.6303108E+03  0.3242946E+03  0.6574344E-03  0.1592338E-02  0.4725850E+03  0.9261406E+01
  0.1504762E+01  0.6394475E+03  0.3677349E+03  0.5171570E-03  0.2182305E-02  0.4737462E+03  0.1070192E+02
  0.1535714E+01  0.6479346E+03  0.4151073E+03  0.4576749E-03  0.1457930E-02  0.4736135E+03  0.1230840E+02
  0.1566667E+01  0.6556804E+03  0.4656940E+03  0.9441375E-03  0.2286792E-02  0.4734724E+03  0.1395602E+02
  0.1597619E+01  0.6598696E+03  0.5199932E+03  0.1892283E-03  0.1856446E-02  0.4735911E+03  0.1585246E+02
  0.1628572E+01  0.6624745E+03  0.5776508E+03 -0.5973013E-04  0.2595186E-03  0.4745811E+03  0.1786626E+02
  0.1659524E+01  0.6619211E+03  0.6381480E+03  0.1416555E-02  0.3690839E-02  0.4764615E+03  0.2027181E+02
  0.1690476E+01  0.6594141E+03  0.7015270E+03  0.5370664E-03  0.2524137E-02  0.4774323E+03  0.2275195E+02
  0.1721429E+01  0.6552285E+03  0.7669606E+03  0.4653614E-04  0.5869865E-03  0.4780670E+03  0.2541372E+02
  0.1752381E+01  0.6497281E+03  0.8339182E+03  0.8315626E-03  0.3422141E-02  0.4783470E+03  0.2806862E+02
  0.1783333E+01  0.6430106E+03  0.9026773E+03 -0.7486789E-04  0.1714945E-02  0.4769666E+03  0.3073862E+02
  0.1814286E+01  0.6337006E+03  0.9718903E+03  0.5172369E-03  0.2560854E-02  0.4759954E+03  0.3329572E+02
  0.1845238E+01  0.6218444E+03  0.1042460E+04  0.3989927E-03  0.1823664E-02  0.4757328E+03  0.3626859E+02
  0.1876190E+01  0.6084883E+03  0.1114165E+04  0.1748564E-03  0.3270149E-02  0.4761776E+03  0.3960367E+02
  0.1907143E+01  0.5925503E+03  0.1185971E+04  0.4630500E-03  0.1629114E-02  0.4777364E+03  0.4322916E+02
  0.1938095E+01  0.5753163E+03  0.1255898E+04 -0.6003227E-04  0.2498388E-02  0.4793922E+03  0.4723161E+02
  0.1969048E+01  0.5570652E+03  0.1324816E+04 -0.2479784E-03  0.2732158E-02  0.4797868E+03  0.5088320E+02
  0.2000000E+01  0.5380106E+03  0.1391507E+04 -0.1077652E-03  0.1574993E-02  0.4802786E+03  0.5455948E+02
