VARIABLES="w (rad/s)"
"A   1   1" "B   1   1"
"A   1   2" "B   1   2"
"A   1   3" "B   1   3"
Zone t="Motion of body    1 in DoF   1",I=    64,F=POINT
  0.5000000E-01  0.8241290E+05  0.4629080E-02  0.3414154E-02  0.8191992E-05 -0.9235283E+05 -0.4680972E-02
  0.8095238E-01  0.8261949E+05  0.2031657E-01 -0.5183500E-02 -0.1564791E-04 -0.9230873E+05 -0.2053364E-01
  0.1119048E+00  0.8303151E+05  0.5713269E-01  0.2590748E-02 -0.6661285E-06 -0.9281630E+05 -0.5771335E-01
  0.1428571E+00  0.8333988E+05  0.1289480E+00 -0.2510071E-02 -0.1445907E-04 -0.9306366E+05 -0.1301133E+00
  0.1738095E+00  0.8336318E+05  0.2572239E+00 -0.3928616E-02 -0.3213331E-04 -0.9315291E+05 -0.2598356E+00
  0.2047619E+00  0.8365236E+05  0.4760178E+00  0.3278865E-02  0.4888070E-04 -0.9339518E+05 -0.4807724E+00
  0.2357143E+00  0.8378657E+05  0.8398345E+00  0.1068115E-02  0.9894371E-04 -0.9351555E+05 -0.8483902E+00
  0.2666667E+00  0.8403183E+05  0.1437779E+01 -0.4892349E-02 -0.9727478E-04 -0.9380916E+05 -0.1452732E+01
  0.2976190E+00  0.8433238E+05  0.2421136E+01  0.2384033E-02  0.5147327E-04 -0.9403252E+05 -0.2445534E+01
  0.3285715E+00  0.8458990E+05  0.4022344E+01 -0.7964424E-02 -0.3067832E-03 -0.9434793E+05 -0.4065191E+01
  0.3595238E+00  0.8491204E+05  0.6635632E+01  0.4880791E-02  0.3017411E-03 -0.9460845E+05 -0.6705735E+01
  0.3904762E+00  0.8532680E+05  0.1087402E+02  0.2813572E-02  0.5424023E-05 -0.9501979E+05 -0.1099083E+02
  0.4214286E+00  0.8581241E+05  0.1760641E+02 -0.5340576E-02 -0.3723726E-03 -0.9543596E+05 -0.1779200E+02
  0.4523810E+00  0.8628753E+05  0.2825212E+02 -0.1770822E-02 -0.3859252E-03 -0.9600418E+05 -0.2857063E+02
  0.4833333E+00  0.8663062E+05  0.4420069E+02  0.3062281E-02  0.9478629E-03 -0.9641415E+05 -0.4472764E+02
  0.5142857E+00  0.8747540E+05  0.6823933E+02  0.4272461E-02  0.7115006E-03 -0.9709954E+05 -0.6900179E+02
  0.5452381E+00  0.8806454E+05  0.1027323E+03 -0.2490714E-02 -0.2869964E-03 -0.9768402E+05 -0.1039018E+03
  0.5761905E+00  0.8858411E+05  0.1509778E+03 -0.7362050E-02 -0.1065850E-02 -0.9818481E+05 -0.1527179E+03
  0.6071429E+00  0.8935029E+05  0.2181733E+03  0.1206342E-02  0.6866455E-03 -0.9908767E+05 -0.2209144E+03
  0.6380953E+00  0.9017930E+05  0.3085457E+03 -0.8967385E-02 -0.1166105E-02 -0.9981959E+05 -0.3123110E+03
  0.6690477E+00  0.9109533E+05  0.4292495E+03 -0.5405195E-02 -0.1091480E-02 -0.1005903E+06 -0.4342201E+03
  0.7000000E+00  0.9212548E+05  0.5887501E+03  0.4577636E-03 -0.5190372E-03 -0.1017272E+06 -0.5960527E+03
  0.7309524E+00  0.9300017E+05  0.7945192E+03 -0.3757539E-03 -0.5674362E-04 -0.1026220E+06 -0.8046366E+03
  0.7619048E+00  0.9399012E+05  0.1059025E+04  0.6088256E-02  0.2770901E-02 -0.1036319E+06 -0.1072844E+04
  0.7928572E+00  0.9536809E+05  0.1398095E+04 -0.4907556E-02 -0.2355576E-02 -0.1049518E+06 -0.1416071E+04
  0.8238096E+00  0.9671843E+05  0.1825444E+04  0.6723569E-02  0.3119469E-02 -0.1062488E+06 -0.1848588E+04
  0.8547620E+00  0.9801931E+05  0.2358131E+04  0.4962719E-02  0.3087044E-02 -0.1075294E+06 -0.2388160E+04
  0.8857143E+00  0.9939345E+05  0.3018437E+04  0.2670288E-02 -0.2305984E-02 -0.1088404E+06 -0.3056233E+04
  0.9166667E+00  0.1009955E+06  0.3833500E+04  0.6658381E-03  0.1754761E-02 -0.1104964E+06 -0.3883027E+04
  0.9476191E+00  0.1025198E+06  0.4824979E+04  0.7374825E-02  0.6746292E-02 -0.1121018E+06 -0.4889760E+04
  0.9785714E+00  0.1040921E+06  0.6026459E+04  0.2183009E-03 -0.1127243E-02 -0.1136559E+06 -0.6107062E+04
  0.1009524E+01  0.1059168E+06  0.7482044E+04  0.1904470E-02  0.2403259E-03 -0.1153597E+06 -0.7577211E+04
  0.1040476E+01  0.1078406E+06  0.9227771E+04  0.5220810E-02  0.2391815E-02 -0.1170970E+06 -0.9335470E+04
  0.1071429E+01  0.1098374E+06  0.1130914E+05  0.4158529E-02  0.4043579E-02 -0.1191754E+06 -0.1144612E+05
  0.1102381E+01  0.1116559E+06  0.1375609E+05  0.5592033E-02  0.7873535E-02 -0.1209689E+06 -0.1392052E+05
  0.1133333E+01  0.1134244E+06  0.1662401E+05  0.1104018E-02 -0.3173828E-02 -0.1227135E+06 -0.1681966E+05
  0.1164286E+01  0.1151572E+06  0.1996313E+05 -0.1336782E-02 -0.1632690E-02 -0.1244507E+06 -0.2019792E+05
  0.1195238E+01  0.1168774E+06  0.2382215E+05  0.4212885E-02  0.7629395E-04 -0.1260360E+06 -0.2408158E+05
  0.1226190E+01  0.1186409E+06  0.2827909E+05  0.8461961E-03  0.5020142E-02 -0.1278735E+06 -0.2859441E+05
  0.1257143E+01  0.1199889E+06  0.3329729E+05 -0.1796376E-02 -0.7415771E-02 -0.1291345E+06 -0.3364639E+05
  0.1288095E+01  0.1214738E+06  0.3906812E+05  0.2298126E-02  0.4257202E-02 -0.1303997E+06 -0.3942432E+05
  0.1319048E+01  0.1224459E+06  0.4546396E+05  0.6940820E-04 -0.3616333E-02 -0.1313028E+06 -0.4585628E+05
  0.1350000E+01  0.1230743E+06  0.5253349E+05 -0.9042245E-04  0.1525879E-03 -0.1318026E+06 -0.5294225E+05
  0.1380952E+01  0.1233436E+06  0.6026607E+05  0.2983356E-02  0.8865356E-02 -0.1318576E+06 -0.6065454E+05
  0.1411905E+01  0.1229451E+06  0.6856262E+05  0.1772387E-02 -0.1861572E-02 -0.1315677E+06 -0.6903228E+05
  0.1442857E+01  0.1220831E+06  0.7739238E+05 -0.8883335E-03  0.1647949E-02 -0.1306601E+06 -0.7788554E+05
  0.1473810E+01  0.1206086E+06  0.8660746E+05  0.1594408E-02  0.7415771E-02 -0.1290646E+06 -0.8708246E+05
  0.1504762E+01  0.1185046E+06  0.9610339E+05  0.2149751E-02  0.3662109E-03 -0.1268662E+06 -0.9655004E+05
  0.1535714E+01  0.1158466E+06  0.1057518E+06 -0.3477584E-02  0.1098633E-02 -0.1241339E+06 -0.1061706E+06
  0.1566667E+01  0.1126532E+06  0.1153738E+06 -0.1402510E-02  0.1403809E-02 -0.1206772E+06 -0.1155977E+06
  0.1597619E+01  0.1089865E+06  0.1248771E+06  0.3400140E-02  0.4669189E-02 -0.1167168E+06 -0.1248258E+06
  0.1628572E+01  0.1048949E+06  0.1341276E+06  0.1667759E-02  0.7415771E-02 -0.1125342E+06 -0.1339250E+06
  0.1659524E+01  0.1002121E+06  0.1427129E+06 -0.2611289E-02 -0.2685547E-02 -0.1077678E+06 -0.1423222E+06
  0.1690476E+01  0.9515720E+05  0.1505410E+06  0.1119264E-02 -0.8666992E-02 -0.1026083E+06 -0.1499086E+06
  0.1721429E+01  0.8979934E+05  0.1574988E+06 -0.1028227E-02  0.3601074E-02 -0.9711542E+05 -0.1565459E+06
  0.1752381E+01  0.8432401E+05  0.1635905E+06 -0.4353731E-04 -0.6988525E-02 -0.9158053E+05 -0.1623473E+06
  0.1783333E+01  0.7880145E+05  0.1687536E+06 -0.8984147E-03 -0.8850098E-03 -0.8599592E+05 -0.1671831E+06
  0.1814286E+01  0.7335770E+05  0.1729849E+06 -0.3406195E-02  0.3051758E-02 -0.8040282E+05 -0.1708739E+06
  0.1845238E+01  0.6808393E+05  0.1763952E+06  0.2158282E-02  0.2502441E-02 -0.7502102E+05 -0.1737381E+06
  0.1876190E+01  0.6299720E+05  0.1790534E+06  0.2114543E-03  0.3662109E-02 -0.6996163E+05 -0.1760632E+06
  0.1907143E+01  0.5806660E+05  0.1807638E+06  0.1500162E-02  0.4486084E-02 -0.6507487E+05 -0.1774166E+06
  0.1938095E+01  0.5335057E+05  0.1815958E+06 -0.1830492E-02  0.2380371E-02 -0.6037689E+05 -0.1778010E+06
  0.1969048E+01  0.4888430E+05  0.1816455E+06  0.3332210E-03  0.6408691E-02 -0.5589936E+05 -0.1773091E+06
  0.2000000E+01  0.4470815E+05  0.1811317E+06  0.1537323E-02 -0.6958008E-02 -0.5175978E+05 -0.1763283E+06
Zone t="Motion of body    1 in DoF   2",I=    64,F=POINT
  0.5000000E-01 -0.4615784E-02 -0.1525879E-04  0.6905899E+05  0.1195220E+03  0.3967285E-02  0.2121925E-04
  0.8095238E-01  0.1696418E-02 -0.8821487E-05  0.6891399E+05  0.1981217E+03  0.4523782E-02 -0.3623962E-04
  0.1119048E+00  0.1090841E-02 -0.8058548E-04  0.6857753E+05  0.2836003E+03  0.5045140E-02  0.2479553E-04
  0.1428571E+00 -0.7930756E-02  0.5340576E-04  0.6842898E+05  0.3792175E+03  0.2456665E-02 -0.2479553E-04
  0.1738095E+00 -0.4477305E-02 -0.7247925E-04  0.6844534E+05  0.4888976E+03  0.8779029E-04 -0.2956390E-04
  0.2047619E+00  0.3241606E-02  0.6866455E-04  0.6839784E+05  0.6178199E+03 -0.2235590E-02 -0.3051758E-04
  0.2357143E+00 -0.9386467E-03 -0.9059906E-04  0.6849523E+05  0.7729593E+03  0.4142992E-02 -0.6675720E-04
  0.2666667E+00  0.4405975E-02  0.3623962E-04  0.6865470E+05  0.9602081E+03  0.5836486E-02 -0.9346008E-04
  0.2976190E+00 -0.1794434E-02  0.5722046E-04  0.6880407E+05  0.1193062E+04  0.8613281E-02  0.1525879E-03
  0.3285715E+00 -0.4690418E-02  0.1029968E-03  0.6901877E+05  0.1478260E+04 -0.2136230E-02  0.2174377E-03
  0.3595238E+00 -0.1018600E-02 -0.1106262E-03  0.6918999E+05  0.1831767E+04  0.8148799E-02  0.3700256E-03
  0.3904762E+00 -0.2696340E-02  0.4577637E-04  0.6934132E+05  0.2265263E+04 -0.4689286E-03  0.4577637E-04
  0.4214286E+00  0.4706948E-03  0.1983643E-03  0.6945698E+05  0.2773675E+04  0.1462775E-01 -0.6713867E-03
  0.4523810E+00 -0.3710295E-02 -0.5607605E-03  0.6936638E+05  0.3384277E+04  0.1079359E-02 -0.2670288E-03
  0.4833333E+00  0.1231226E-02  0.1144409E-03  0.6938102E+05  0.4041691E+04 -0.4419787E-02  0.1449585E-03
  0.5142857E+00  0.4331801E-02  0.1602173E-03  0.6894904E+05  0.4782825E+04 -0.3560384E-03 -0.5340576E-03
  0.5452381E+00 -0.2238844E-02  0.1754761E-03  0.6861255E+05  0.5561431E+04 -0.5373226E-02  0.1342773E-02
  0.5761905E+00 -0.2012647E-02 -0.3814697E-03  0.6816265E+05  0.6362560E+04  0.5402368E-02  0.1068115E-02
  0.6071429E+00  0.3317440E-02 -0.4425049E-03  0.6750269E+05  0.7211455E+04  0.1809513E-02 -0.3204346E-03
  0.6380953E+00  0.4830431E-02  0.4272461E-03  0.6699379E+05  0.8043820E+04 -0.1913042E-03  0.8392334E-03
  0.6690477E+00 -0.4105211E-02  0.8087158E-03  0.6627862E+05  0.8889122E+04 -0.1824538E-02  0.3005981E-02
  0.7000000E+00  0.1220703E-02  0.9613037E-03  0.6546246E+05  0.9750579E+04 -0.7062639E-02 -0.4241943E-02
  0.7309524E+00  0.2880780E-02  0.3967285E-03  0.6476099E+05  0.1058703E+05  0.1060461E-01  0.1464844E-02
  0.7619048E+00 -0.2162933E-02 -0.2593994E-03  0.6401778E+05  0.1140992E+05  0.1530075E-01 -0.7934570E-03
  0.7928572E+00  0.2848307E-02  0.9155273E-04  0.6306762E+05  0.1222457E+05 -0.3156232E-02 -0.1586914E-02
  0.8238096E+00 -0.4260113E-02 -0.8544922E-03  0.6219704E+05  0.1301001E+05  0.4445335E-02  0.1831055E-02
  0.8547620E+00 -0.1428121E-03  0.9460449E-03  0.6143874E+05  0.1375020E+05 -0.1142496E-02 -0.1129150E-02
  0.8857143E+00 -0.3307712E-02  0.1007080E-02  0.6051525E+05  0.1445614E+05  0.1653856E-02 -0.4516602E-02
  0.9166667E+00 -0.3595525E-02 -0.1434326E-02  0.5956054E+05  0.1512337E+05  0.2263849E-02 -0.1647949E-02
  0.9476191E+00 -0.3896742E-02 -0.4577637E-03  0.5866570E+05  0.1573836E+05  0.7857893E-02 -0.7019043E-03
  0.9785714E+00 -0.3617558E-02  0.2899170E-02  0.5786632E+05  0.1628782E+05  0.4241275E-02 -0.2807617E-02
  0.1009524E+01  0.5743639E-03 -0.1647949E-02  0.5707295E+05  0.1677717E+05  0.1451025E-02 -0.4302979E-02
  0.1040476E+01 -0.2053128E-02 -0.1678467E-02  0.5609754E+05  0.1721976E+05  0.0000000E+00 -0.4577637E-03
  0.1071429E+01  0.6266276E-03  0.4272461E-03  0.5522926E+05  0.1760378E+05  0.2050781E-02  0.5920410E-02
  0.1102381E+01  0.2214666E-03 -0.1373291E-02  0.5443332E+05  0.1791081E+05 -0.4318600E-02  0.8544922E-03
  0.1133333E+01  0.2383064E-02  0.2593994E-02  0.5375202E+05  0.1814508E+05 -0.5924000E-02  0.3967285E-02
  0.1164286E+01 -0.6552854E-04  0.4089355E-02  0.5308137E+05  0.1831011E+05  0.3355061E-02 -0.3173828E-02
  0.1195238E+01  0.2910720E-02  0.4272461E-03  0.5224637E+05  0.1841876E+05 -0.2859655E-02  0.7934570E-03
  0.1226190E+01 -0.1617728E-03 -0.6713867E-03  0.5153307E+05  0.1847752E+05  0.8959724E-03  0.4272461E-02
  0.1257143E+01  0.2828078E-02 -0.1062012E-01  0.5089417E+05  0.1848199E+05  0.1942028E-02  0.8117676E-02
  0.1288095E+01 -0.1883516E-02  0.1220703E-03  0.5034494E+05  0.1839569E+05  0.2369202E-02 -0.3906250E-02
  0.1319048E+01 -0.2868873E-02  0.2197266E-02  0.4991805E+05  0.1826434E+05  0.4627214E-02 -0.1098633E-02
  0.1350000E+01 -0.7064254E-03 -0.5493164E-03  0.4941534E+05  0.1807012E+05  0.6329571E-03  0.2868652E-02
  0.1380952E+01 -0.2994406E-02 -0.1953125E-02  0.4882423E+05  0.1780538E+05  0.1414332E-02 -0.3173828E-02
  0.1411905E+01 -0.1880459E-02  0.1708984E-02  0.4834946E+05  0.1752600E+05  0.1296868E-02 -0.7934570E-02
  0.1442857E+01 -0.1771379E-02 -0.1220703E-02  0.4794734E+05  0.1720149E+05  0.1945873E-02  0.8789062E-02
  0.1473810E+01 -0.8101455E-03  0.1098633E-02  0.4761901E+05  0.1682506E+05  0.9773512E-02  0.5889893E-02
  0.1504762E+01 -0.2773936E-02  0.5493164E-03  0.4740318E+05  0.1644009E+05  0.5840832E-02  0.8300781E-02
  0.1535714E+01 -0.5725594E-03 -0.2380371E-02  0.4727652E+05  0.1602656E+05  0.2384629E-02 -0.7476807E-02
  0.1566667E+01 -0.3803334E-02  0.1892090E-02  0.4695760E+05  0.1551659E+05  0.6700881E-02 -0.1434326E-02
  0.1597619E+01 -0.2187169E-02  0.3051758E-03  0.4665967E+05  0.1496560E+05  0.2903491E-02  0.5554199E-02
  0.1628572E+01 -0.1920733E-02 -0.3295898E-02  0.4645609E+05  0.1445860E+05  0.3073174E-02  0.9185791E-02
  0.1659524E+01 -0.2574510E-03 -0.1770020E-02  0.4630525E+05  0.1393970E+05  0.2059608E-02  0.6988525E-02
  0.1690476E+01  0.6318428E-03  0.4699707E-02  0.4620868E+05  0.1340034E+05  0.4332636E-03 -0.6622314E-02
  0.1721429E+01 -0.2207143E-02 -0.5676270E-02  0.4618069E+05  0.1287487E+05  0.1843718E-02  0.9277344E-02
  0.1752381E+01 -0.2525164E-03  0.2441406E-03  0.4622011E+05  0.1238851E+05 -0.1671833E-02  0.6164551E-02
  0.1783333E+01  0.8556331E-03 -0.1647949E-02  0.4626838E+05  0.1187578E+05  0.2601124E-02 -0.7476807E-02
  0.1814286E+01 -0.1623199E-02 -0.3234863E-02  0.4618114E+05  0.1120672E+05  0.4171537E-02 -0.7629395E-03
  0.1845238E+01 -0.2770209E-02 -0.6530762E-02  0.4613190E+05  0.1054189E+05  0.2513861E-02  0.6805420E-02
  0.1876190E+01 -0.3017290E-02 -0.2014160E-02  0.4613536E+05  0.9971761E+04  0.5205029E-02  0.2044678E-02
  0.1907143E+01 -0.9921071E-03 -0.3601074E-02  0.4616886E+05  0.9424114E+04 -0.6400691E-04  0.4089355E-02
  0.1938095E+01 -0.1023501E-02 -0.8544922E-03  0.4623678E+05  0.8884402E+04 -0.5668622E-03 -0.1312256E-02
  0.1969048E+01 -0.1115903E-02 -0.6042480E-02  0.4633873E+05  0.8359129E+04  0.5207547E-02  0.6362915E-02
  0.2000000E+01  0.5035400E-03  0.2838135E-02  0.4646851E+05  0.7914311E+04  0.3479004E-02 -0.2960205E-02
Zone t="Motion of body    1 in DoF   3",I=    64,F=POINT
  0.5000000E-01 -0.9204438E+05 -0.4636734E-02 -0.7343292E-03 -0.9579420E-05  0.1408094E+06  0.4711609E-02
  0.8095238E-01 -0.9198057E+05 -0.2031480E-01  0.2144084E-02  0.3975630E-04  0.1404027E+06  0.2048820E-01
  0.1119048E+00 -0.9250423E+05 -0.5719552E-01 -0.9459638E-03 -0.4934019E-04  0.1411479E+06  0.5772633E-01
  0.1428571E+00 -0.9274939E+05 -0.1291553E+00 -0.2388573E-01 -0.2146825E-03  0.1412903E+06  0.1302851E+00
  0.1738095E+00 -0.9280563E+05 -0.2575921E+00 -0.8076707E-02 -0.4841294E-04  0.1415544E+06  0.2601822E+00
  0.2047619E+00 -0.9308588E+05 -0.4769059E+00 -0.1116864E-01 -0.1960045E-03  0.1416592E+06  0.4816118E+00
  0.2357143E+00 -0.9319156E+05 -0.8413597E+00  0.3252896E-02 -0.7555354E-05  0.1417337E+06  0.8499491E+00
  0.2666667E+00 -0.9348262E+05 -0.1440328E+01  0.7596015E-02 -0.6334577E-04  0.1421446E+06  0.1455133E+01
  0.2976190E+00 -0.9371527E+05 -0.2426025E+01 -0.2435303E-03 -0.1200698E-03  0.1422252E+06  0.2450153E+01
  0.3285715E+00 -0.9401659E+05 -0.4030923E+01  0.1587080E-01  0.4571360E-03  0.1426275E+06  0.4073671E+01
  0.3595238E+00 -0.9428166E+05 -0.6651018E+01 -0.6642120E-02 -0.3478825E-03  0.1428086E+06  0.6721251E+01
  0.3904762E+00 -0.9471473E+05 -0.1090091E+02 -0.1230938E-02 -0.1041591E-03  0.1432302E+06  0.1101868E+02
  0.4214286E+00 -0.9510614E+05 -0.1765458E+02 -0.7721205E-02 -0.5147755E-03  0.1436370E+06  0.1784210E+02
  0.4523810E+00 -0.9569448E+05 -0.2833282E+02 -0.1686498E-02 -0.3154576E-04  0.1442484E+06  0.2865303E+02
  0.4833333E+00 -0.9602744E+05 -0.4433758E+02 -0.9044779E-02 -0.9677112E-03  0.1448487E+06  0.4486591E+02
  0.5142857E+00 -0.9679964E+05 -0.6846255E+02  0.1117071E-01  0.7503629E-03  0.1452298E+06  0.6922716E+02
  0.5452381E+00 -0.9735840E+05 -0.1030870E+03 -0.5527147E-02 -0.1108646E-04  0.1458647E+06  0.1042584E+03
  0.5761905E+00 -0.9783241E+05 -0.1515264E+03  0.5826083E-02  0.1655281E-02  0.1463249E+06  0.1532717E+03
  0.6071429E+00 -0.9874498E+05 -0.2190012E+03  0.9889489E-02  0.7928610E-03  0.1473086E+06  0.2217544E+03
  0.6380953E+00 -0.9945725E+05 -0.3097834E+03  0.1476629E-01  0.2185225E-02  0.1480416E+06  0.3135616E+03
  0.6690477E+00 -0.1002456E+06 -0.4310457E+03 -0.5713086E-02 -0.1230478E-02  0.1485966E+06  0.4360322E+03
  0.7000000E+00 -0.1013906E+06 -0.5912968E+03 -0.7738385E-03  0.1159191E-02  0.1498366E+06  0.5986349E+03
  0.7309524E+00 -0.1022383E+06 -0.7980488E+03 -0.1116824E-01 -0.3855228E-02  0.1507789E+06  0.8082133E+03
  0.7619048E+00 -0.1032050E+06 -0.1063877E+04 -0.9302615E-02 -0.3245831E-02  0.1518206E+06  0.1077761E+04
  0.7928572E+00 -0.1045787E+06 -0.1404609E+04  0.1048870E-02  0.3542900E-03  0.1529725E+06  0.1422669E+04
  0.8238096E+00 -0.1058864E+06 -0.1834139E+04  0.1159491E-01  0.3050804E-02  0.1542647E+06  0.1857391E+04
  0.8547620E+00 -0.1071130E+06 -0.2369741E+04 -0.1184447E-01 -0.5481720E-02  0.1556330E+06  0.2399933E+04
  0.8857143E+00 -0.1084176E+06 -0.3033332E+04 -0.1998409E-02  0.2199173E-02  0.1568068E+06  0.3071344E+04
  0.9166667E+00 -0.1100811E+06 -0.3852083E+04 -0.6841486E-02 -0.1363754E-02  0.1584190E+06  0.3901883E+04
  0.9476191E+00 -0.1116556E+06 -0.4847905E+04 -0.1656115E-01 -0.1046753E-01  0.1600972E+06  0.4913023E+04
  0.9785714E+00 -0.1131633E+06 -0.6054917E+04 -0.7172745E-02 -0.4384995E-02  0.1616802E+06  0.6135961E+04
  0.1009524E+01 -0.1148658E+06 -0.7517695E+04 -0.7564977E-02 -0.7476807E-02  0.1633544E+06  0.7613291E+04
  0.1040476E+01 -0.1166572E+06 -0.9269710E+04 -0.4923840E-02 -0.4390717E-02  0.1647682E+06  0.9377697E+04
  0.1071429E+01 -0.1187260E+06 -0.1135874E+05 -0.5294291E-02 -0.8388519E-02  0.1669412E+06  0.1149631E+05
  0.1102381E+01 -0.1204923E+06 -0.1381287E+05  0.2706046E-02  0.2685547E-02  0.1686883E+06  0.1397811E+05
  0.1133333E+01 -0.1221853E+06 -0.1668883E+05  0.5176769E-02  0.6057739E-02  0.1704839E+06  0.1688555E+05
  0.1164286E+01 -0.1238657E+06 -0.2003585E+05  0.3689257E-02  0.2777100E-02  0.1722609E+06  0.2027239E+05
  0.1195238E+01 -0.1254719E+06 -0.2389378E+05  0.3638401E-03  0.4882812E-03  0.1735037E+06  0.2415336E+05
  0.1226190E+01 -0.1272946E+06 -0.2835159E+05 -0.1860387E-02 -0.1754761E-02  0.1753922E+06  0.2866769E+05
  0.1257143E+01 -0.1285728E+06 -0.3336627E+05  0.3240759E-02 -0.7934570E-03  0.1766072E+06  0.3371566E+05
  0.1288095E+01 -0.1298579E+06 -0.3912780E+05 -0.5659431E-02 -0.3143311E-02  0.1777089E+06  0.3948336E+05
  0.1319048E+01 -0.1307232E+06 -0.4551561E+05 -0.3988080E-02 -0.2639771E-02  0.1786936E+06  0.4591096E+05
  0.1350000E+01 -0.1312158E+06 -0.5255735E+05 -0.6326746E-02 -0.1026917E-01  0.1790543E+06  0.5296798E+05
  0.1380952E+01 -0.1313064E+06 -0.6023178E+05 -0.6312008E-02 -0.2243042E-02  0.1787283E+06  0.6061674E+05
  0.1411905E+01 -0.1309586E+06 -0.6847511E+05 -0.1772387E-02 -0.4272461E-03  0.1784674E+06  0.6894316E+05
  0.1442857E+01 -0.1300338E+06 -0.7721792E+05 -0.1977599E-02 -0.3204346E-02  0.1775393E+06  0.7771106E+05
  0.1473810E+01 -0.1284190E+06 -0.8631402E+05 -0.2412318E-02 -0.1861572E-02  0.1758085E+06  0.8678914E+05
  0.1504762E+01 -0.1261945E+06 -0.9567417E+05 -0.5556903E-02 -0.1309204E-01  0.1736015E+06  0.9612541E+05
  0.1535714E+01 -0.1234411E+06 -0.1051831E+06  0.6756450E-03 -0.9918213E-02  0.1709683E+06  0.1056201E+06
  0.1566667E+01 -0.1200531E+06 -0.1145746E+06  0.7889118E-03 -0.9979248E-02  0.1671726E+06  0.1147988E+06
  0.1597619E+01 -0.1161801E+06 -0.1238063E+06 -0.5797430E-02 -0.2047729E-01  0.1628310E+06  0.1237336E+06
  0.1628572E+01 -0.1120634E+06 -0.1328076E+06  0.4872104E-03 -0.1287842E-01  0.1586331E+06  0.1325918E+06
  0.1659524E+01 -0.1073409E+06 -0.1410993E+06  0.1930883E-02  0.4974365E-02  0.1538890E+06  0.1407079E+06
  0.1690476E+01 -0.1022106E+06 -0.1485828E+06 -0.3050898E-02  0.7202148E-02  0.1486732E+06  0.1479575E+06
  0.1721429E+01 -0.9673781E+05 -0.1551623E+06 -0.3669707E-02 -0.6347656E-02  0.1431225E+06  0.1542298E+06
  0.1752381E+01 -0.9122459E+05 -0.1608934E+06  0.3482985E-04  0.1013184E-01  0.1377133E+06  0.1597074E+06
  0.1783333E+01 -0.8566521E+05 -0.1656757E+06 -0.3302744E-02 -0.9796143E-02  0.1322277E+06  0.1642009E+06
  0.1814286E+01 -0.8013533E+05 -0.1693931E+06  0.6223664E-02  0.9918213E-02  0.1263611E+06  0.1673221E+06
  0.1845238E+01 -0.7481723E+05 -0.1722926E+06 -0.7872354E-02 -0.3662109E-02  0.1207637E+06  0.1696220E+06
  0.1876190E+01 -0.6984070E+05 -0.1745448E+06 -0.3968834E-02  0.1800537E-02  0.1158260E+06  0.1715765E+06
  0.1907143E+01 -0.6502655E+05 -0.1758371E+06 -0.5984646E-02 -0.5249023E-02  0.1111273E+06  0.1725678E+06
  0.1938095E+01 -0.6037513E+05 -0.1761935E+06 -0.4503405E-02  0.1708984E-02  0.1065195E+06  0.1724980E+06
  0.1969048E+01 -0.5591079E+05 -0.1757082E+06 -0.8679244E-03 -0.7507324E-02  0.1020545E+06  0.1714888E+06
  0.2000000E+01 -0.5179124E+05 -0.1747457E+06  0.5645752E-02  0.1025391E-01  0.9811170E+05  0.1701584E+06
