VARIABLES="w (rad/s)"
"A   1   1" "B   1   1"
"A   1   2" "B   1   2"
"A   1   3" "B   1   3"
Zone t="Motion of body    1 in DoF   1",I=    64,F=POINT
  0.5000000E-01  0.1615940E+06  0.1144212E-01  0.7896423E-02  0.3022466E-04 -0.2072555E+06 -0.1220908E-01
  0.8095238E-01  0.1626747E+06  0.5001220E-01 -0.6125955E-02  0.1748031E-04 -0.2088564E+06 -0.5361205E-01
  0.1119048E+00  0.1629145E+06  0.1407093E+00 -0.2464619E-01 -0.1200190E-03 -0.2092062E+06 -0.1504859E+00
  0.1428571E+00  0.1633266E+06  0.3170590E+00  0.1869202E-02  0.6980123E-04 -0.2093534E+06 -0.3381667E+00
  0.1738095E+00  0.1634665E+06  0.6308950E+00  0.8691239E-02  0.4389510E-04 -0.2095631E+06 -0.6720527E+00
  0.2047619E+00  0.1638331E+06  0.1166311E+01 -0.1654337E-01 -0.3584032E-03 -0.2096762E+06 -0.1240753E+01
  0.2357143E+00  0.1640862E+06  0.2054605E+01 -0.2039129E-02 -0.4522502E-05 -0.2099710E+06 -0.2183081E+01
  0.2666667E+00  0.1644019E+06  0.3507781E+01 -0.1181602E-01 -0.2231644E-03 -0.2101846E+06 -0.3719227E+01
  0.2976190E+00  0.1648149E+06  0.5889463E+01 -0.1271484E-01 -0.2756678E-03 -0.2104061E+06 -0.6229922E+01
  0.3285715E+00  0.1652479E+06  0.9755328E+01  0.7801884E-02 -0.5165488E-04 -0.2107952E+06 -0.1029548E+02
  0.3595238E+00  0.1656469E+06  0.1603224E+02  0.8106357E-02 -0.1490116E-04 -0.2112228E+06 -0.1688470E+02
  0.3904762E+00  0.1662351E+06  0.2617096E+02 -0.1133244E-01 -0.3072396E-03 -0.2113870E+06 -0.2745067E+02
  0.4214286E+00  0.1669176E+06  0.4218636E+02 -0.2907445E-01 -0.1998976E-02 -0.2118964E+06 -0.4410405E+02
  0.4523810E+00  0.1675857E+06  0.6739701E+02  0.2216058E-01  0.1389831E-02 -0.2124166E+06 -0.7022200E+02
  0.4833333E+00  0.1682468E+06  0.1050038E+03  0.1521670E-01  0.8479655E-03 -0.2130670E+06 -0.1090655E+03
  0.5142857E+00  0.1691650E+06  0.1610789E+03  0.2937317E-02 -0.1809537E-02 -0.2136154E+06 -0.1665513E+03
  0.5452381E+00  0.1702535E+06  0.2413833E+03 -0.8619551E-02  0.1759768E-02 -0.2144166E+06 -0.2484671E+03
  0.5761905E+00  0.1711376E+06  0.3529297E+03 -0.1806086E-01 -0.3504992E-02 -0.2152221E+06 -0.3618805E+03
  0.6071429E+00  0.1721640E+06  0.5068338E+03  0.7238050E-02 -0.2027273E-02 -0.2161133E+06 -0.5175236E+03
  0.6380953E+00  0.1735058E+06  0.7124982E+03 -0.2453477E-01 -0.1739502E-02 -0.2170260E+06 -0.7234973E+03
  0.6690477E+00  0.1748268E+06  0.9844840E+03  0.9898121E-02  0.3141403E-02 -0.2180476E+06 -0.9945113E+03
  0.7000000E+00  0.1762384E+06  0.1340328E+04  0.8108956E-02  0.1582623E-02 -0.2191158E+06 -0.1346610E+04
  0.7309524E+00  0.1777989E+06  0.1797429E+04 -0.8767590E-03 -0.4729271E-02 -0.2204250E+06 -0.1796351E+04
  0.7619048E+00  0.1792767E+06  0.2377963E+04 -0.1301765E-01 -0.1541138E-02 -0.2216829E+06 -0.2363869E+04
  0.7928572E+00  0.1810192E+06  0.3110438E+04  0.8544921E-02 -0.7314682E-03 -0.2229516E+06 -0.3072259E+04
  0.8238096E+00  0.1829876E+06  0.4025227E+04 -0.2556068E-02 -0.8029938E-03 -0.2242689E+06 -0.3947386E+04
  0.8547620E+00  0.1849938E+06  0.5153974E+04  0.1663760E-01  0.7850647E-02 -0.2257899E+06 -0.5020754E+04
  0.8857143E+00  0.1869331E+06  0.6533279E+04  0.6684334E-02  0.3871918E-02 -0.2272918E+06 -0.6322646E+04
  0.9166667E+00  0.1889880E+06  0.8206257E+04  0.1544744E-01  0.7480621E-02 -0.2288352E+06 -0.7886428E+04
  0.9476191E+00  0.1911005E+06  0.1021637E+05  0.2576358E-03 -0.6130219E-02 -0.2303845E+06 -0.9747275E+04
  0.9785714E+00  0.1932757E+06  0.1261433E+05 -0.2052029E-01 -0.1111221E-01 -0.2319793E+06 -0.1194621E+05
  0.1009524E+01  0.1953887E+06  0.1544378E+05 -0.3216438E-01 -0.2063751E-01 -0.2331950E+06 -0.1449818E+05
  0.1040476E+01  0.1976391E+06  0.1877342E+05  0.1308136E-01  0.6385803E-02 -0.2347195E+06 -0.1748120E+05
  0.1071429E+01  0.1996650E+06  0.2263125E+05  0.2620443E-02  0.2655029E-02 -0.2358418E+06 -0.2088559E+05
  0.1102381E+01  0.2016727E+06  0.2708438E+05  0.1328800E-02 -0.6607056E-02 -0.2369827E+06 -0.2477343E+05
  0.1133333E+01  0.2034439E+06  0.3216403E+05  0.1222498E-01 -0.5950928E-02 -0.2379966E+06 -0.2916506E+05
  0.1164286E+01  0.2048072E+06  0.3788860E+05  0.7863425E-02  0.8453369E-02 -0.2385481E+06 -0.3404052E+05
  0.1195238E+01  0.2060243E+06  0.4430758E+05 -0.5617180E-03  0.2334595E-02 -0.2390541E+06 -0.3944982E+05
  0.1226190E+01  0.2067669E+06  0.5138665E+05  0.8909948E-02  0.6057739E-02 -0.2389141E+06 -0.4529688E+05
  0.1257143E+01  0.2069935E+06  0.5908916E+05 -0.1043840E-01 -0.2175903E-01 -0.2382284E+06 -0.5153777E+05
  0.1288095E+01  0.2072034E+06  0.6750310E+05  0.2070682E-01  0.8514404E-02 -0.2374657E+06 -0.5823080E+05
  0.1319048E+01  0.2065918E+06  0.7644041E+05  0.1832377E-01  0.1470947E-01 -0.2361123E+06 -0.6523088E+05
  0.1350000E+01  0.2053338E+06  0.8583980E+05  0.9313513E-02 -0.2307129E-01 -0.2341659E+06 -0.7242667E+05
  0.1380952E+01  0.2036298E+06  0.9567072E+05 -0.5701526E-02 -0.1312256E-02 -0.2320045E+06 -0.7983541E+05
  0.1411905E+01  0.1999998E+06  0.1044297E+06  0.7089547E-02 -0.1028442E-01 -0.2287070E+06 -0.8632116E+05
  0.1442857E+01  0.1969809E+06  0.1144063E+06  0.1057540E-01  0.7751465E-02 -0.2254139E+06 -0.9342677E+05
  0.1473810E+01  0.1934545E+06  0.1243206E+06  0.1114015E-01 -0.1123047E-01 -0.2218048E+06 -0.1002749E+06
  0.1504762E+01  0.1893460E+06  0.1340377E+06  0.5029606E-02 -0.4882812E-02 -0.2179241E+06 -0.1068296E+06
  0.1535714E+01  0.1846584E+06  0.1432645E+06 -0.3576944E-02  0.1300049E-01 -0.2134812E+06 -0.1126901E+06
  0.1566667E+01  0.1796275E+06  0.1519995E+06 -0.2766061E-02 -0.6958008E-02 -0.2088622E+06 -0.1179510E+06
  0.1597619E+01  0.1744502E+06  0.1602058E+06 -0.6112612E-03 -0.2258301E-01 -0.2042873E+06 -0.1226658E+06
  0.1628572E+01  0.1689078E+06  0.1675651E+06  0.9519342E-02  0.8117676E-02 -0.1994192E+06 -0.1264521E+06
  0.1659524E+01  0.1633037E+06  0.1742027E+06  0.2795182E-02  0.6225586E-02 -0.1946588E+06 -0.1295605E+06
  0.1690476E+01  0.1576910E+06  0.1800159E+06  0.2058002E-02  0.3863525E-01 -0.1900068E+06 -0.1318902E+06
  0.1721429E+01  0.1521117E+06  0.1850825E+06 -0.1099139E-01  0.1391602E-01 -0.1856063E+06 -0.1336411E+06
  0.1752381E+01  0.1465585E+06  0.1892664E+06 -0.8637802E-02  0.4455566E-02 -0.1813031E+06 -0.1345955E+06
  0.1783333E+01  0.1410799E+06  0.1925717E+06 -0.4312390E-02 -0.2380371E-01 -0.1770845E+06 -0.1347352E+06
  0.1814286E+01  0.1358616E+06  0.1952037E+06 -0.1480223E-02 -0.6896973E-02 -0.1732633E+06 -0.1344324E+06
  0.1845238E+01  0.1309451E+06  0.1972005E+06 -0.9724672E-02  0.2868652E-02 -0.1698071E+06 -0.1336918E+06
  0.1876190E+01  0.1261577E+06  0.1983533E+06 -0.4294149E-02 -0.1129150E-01 -0.1664113E+06 -0.1321530E+06
  0.1907143E+01  0.1216698E+06  0.1989495E+06  0.6560708E-03  0.9887695E-02 -0.1633590E+06 -0.1302791E+06
  0.1938095E+01  0.1174819E+06  0.1989791E+06 -0.1732079E-02 -0.2301025E-01 -0.1605833E+06 -0.1279684E+06
  0.1969048E+01  0.1136260E+06  0.1986103E+06 -0.7749325E-03 -0.7324219E-02 -0.1581810E+06 -0.1255012E+06
  0.2000000E+01  0.1099648E+06  0.1978162E+06  0.7080078E-02 -0.1654053E-01 -0.1560042E+06 -0.1228247E+06
Zone t="Motion of body    1 in DoF   2",I=    64,F=POINT
  0.5000000E-01 -0.1068115E-02 -0.5078316E-04  0.8619884E+05  0.2372484E+03 -0.3456116E-01 -0.1003742E-03
  0.8095238E-01  0.1121521E-01 -0.2717972E-04  0.8517319E+05  0.3935471E+03  0.6125955E-03  0.1266003E-03
  0.1119048E+00 -0.8454018E-02 -0.3099442E-04  0.8461873E+05  0.5639363E+03  0.1499906E-01  0.1997948E-03
  0.1428571E+00  0.1121521E-01  0.1993179E-03  0.8434015E+05  0.7549272E+03 -0.4010773E-01  0.2102852E-03
  0.1738095E+00  0.1992840E-01  0.1487732E-03  0.8432324E+05  0.9749250E+03 -0.2365948E-01 -0.2508163E-03
  0.2047619E+00 -0.2138714E-01 -0.3194809E-03  0.8446839E+05  0.1234209E+04  0.3174538E-01  0.6599426E-03
  0.2357143E+00  0.2265699E-02  0.1525879E-03  0.8473536E+05  0.1547410E+04 -0.1048695E-01 -0.2260208E-03
  0.2666667E+00 -0.1602173E-02 -0.8773804E-04  0.8516448E+05  0.1927217E+04 -0.2145767E-01  0.8449554E-03
  0.2976190E+00  0.2512207E-02  0.2422333E-03  0.8561804E+05  0.2400884E+04  0.1758545E-01 -0.1144409E-04
  0.3285715E+00 -0.1774000E-01  0.5912781E-03  0.8616938E+05  0.2984026E+04 -0.4560387E-01  0.1596451E-02
  0.3595238E+00 -0.1018600E-02 -0.4005432E-03  0.8670548E+05  0.3709473E+04  0.1035577E-01 -0.2746582E-03
  0.3904762E+00  0.1016012E-02  0.4501343E-03  0.8725030E+05  0.4603885E+04 -0.1328631E-01  0.2746582E-03
  0.4214286E+00  0.2389681E-02  0.8010864E-03  0.8752645E+05  0.5659110E+04 -0.2186920E-01 -0.1407623E-02
  0.4523810E+00  0.3440455E-02  0.1068115E-02  0.8775104E+05  0.6929483E+04  0.6273771E-02 -0.5340576E-03
  0.4833333E+00 -0.2285661E-01  0.2670288E-03  0.8768293E+05  0.8315736E+04 -0.2487709E-01 -0.2708435E-02
  0.5142857E+00  0.1780192E-02 -0.2044678E-02  0.8735655E+05  0.9882017E+04 -0.1970079E-01 -0.4043579E-02
  0.5452381E+00  0.3134382E-02  0.7781982E-03  0.8684878E+05  0.1154759E+05 -0.3431029E-01 -0.1785278E-02
  0.5761905E+00 -0.1106956E-01 -0.3250122E-02  0.8614431E+05  0.1328477E+05  0.3336756E-02  0.1235962E-02
  0.6071429E+00 -0.3619025E-02 -0.1373291E-03  0.8525341E+05  0.1513158E+05 -0.1306870E-01 -0.1922607E-02
  0.6380953E+00  0.2276520E-01 -0.3112793E-02  0.8428798E+05  0.1698981E+05 -0.9613037E-02 -0.8377075E-02
  0.6690477E+00 -0.3284169E-02  0.3982544E-02  0.8315090E+05  0.1889979E+05 -0.7754288E-02  0.1235962E-02
  0.7000000E+00  0.1517159E-01  0.2929688E-02  0.8190420E+05  0.2086475E+05 -0.7803780E-02  0.3585815E-02
  0.7309524E+00  0.2672028E-02 -0.2868652E-02  0.8063383E+05  0.2282976E+05  0.1866244E-01  0.6118774E-02
  0.7619048E+00  0.3444671E-02  0.3387451E-02  0.7926564E+05  0.2480877E+05 -0.1041412E-01  0.4119873E-02
  0.7928572E+00  0.1562720E-01  0.6408691E-03  0.7780674E+05  0.2679450E+05 -0.5773595E-02  0.4943848E-02
  0.8238096E+00  0.4297157E-02 -0.5676270E-02  0.7629879E+05  0.2877056E+05 -0.2181919E-01  0.1678467E-02
  0.8547620E+00 -0.1428121E-02  0.6011963E-02  0.7475354E+05  0.3072232E+05  0.4498580E-02 -0.3875732E-02
  0.8857143E+00 -0.2756426E-02  0.2441406E-02  0.7317985E+05  0.3263993E+05  0.4617014E-02  0.6713867E-03
  0.9166667E+00  0.1191850E-01  0.3814697E-02  0.7158952E+05  0.3451227E+05 -0.1657937E-01  0.7263184E-02
  0.9476191E+00  0.3993355E-02 -0.5767822E-02  0.6998540E+05  0.3633393E+05  0.1114275E-01  0.3753662E-02
  0.9785714E+00 -0.2806726E-02 -0.2502441E-02  0.6836541E+05  0.3809798E+05  0.9667613E-02  0.2136230E-03
  0.1009524E+01 -0.2539293E-02  0.1831055E-02  0.6672320E+05  0.3980248E+05  0.1662632E-01 -0.6195068E-02
  0.1040476E+01 -0.1114555E-02 -0.3051758E-02  0.6510447E+05  0.4143177E+05  0.1701163E-01 -0.1138306E-01
  0.1071429E+01  0.9114584E-02 -0.3967285E-02  0.6349779E+05  0.4298976E+05  0.1082357E-02 -0.3021240E-02
  0.1102381E+01  0.4373966E-02  0.4882812E-03  0.6193005E+05  0.4446138E+05  0.1755123E-01 -0.1129150E-02
  0.1133333E+01 -0.3015855E-02  0.6774902E-02  0.6039171E+05  0.4584852E+05  0.1077091E-02  0.2746582E-02
  0.1164286E+01 -0.8177961E-02  0.6958008E-02  0.5887787E+05  0.4715786E+05  0.1771892E-01  0.1464844E-02
  0.1195238E+01  0.7098073E-02  0.1708984E-02  0.5741508E+05  0.4837675E+05 -0.3344775E-02  0.1556396E-01
  0.1226190E+01 -0.7964199E-02 -0.3295898E-02  0.5598866E+05  0.4952425E+05  0.3434561E-02  0.1098633E-02
  0.1257143E+01  0.6408691E-02  0.2014160E-02  0.5461229E+05  0.5061521E+05  0.1364274E-01 -0.6469727E-02
  0.1288095E+01  0.1449952E-01 -0.1159668E-02  0.5327437E+05  0.5156251E+05 -0.2463970E-02 -0.1031494E-01
  0.1319048E+01  0.4904847E-02  0.1098633E-02  0.5198093E+05  0.5246989E+05 -0.4927983E-02  0.3112793E-02
  0.1350000E+01  0.1116717E-01 -0.1525879E-02  0.5072796E+05  0.5330584E+05  0.1123499E-01  0.7934570E-03
  0.1380952E+01  0.2651872E-02  0.9155273E-03  0.4954716E+05  0.5404775E+05 -0.2011003E-02 -0.3540039E-02
  0.1411905E+01 -0.4106750E-02  0.1080322E-01  0.4838441E+05  0.5482789E+05 -0.2853110E-02 -0.1013184E-01
  0.1442857E+01  0.1818969E-02 -0.9033203E-02  0.4730494E+05  0.5545596E+05  0.7910398E-02  0.1086426E-01
  0.1473810E+01 -0.9442207E-02  0.8239746E-02  0.4627598E+05  0.5601975E+05  0.1130580E-01  0.2929688E-02
  0.1504762E+01  0.1155998E-02 -0.8483887E-02  0.4530382E+05  0.5654840E+05 -0.2210593E-02  0.1831055E-03
  0.1535714E+01  0.4332076E-02 -0.1098633E-02  0.4435127E+05  0.5703208E+05  0.8644281E-02 -0.1086426E-01
  0.1566667E+01 -0.8726728E-02 -0.0000000E+00  0.4345007E+05  0.5747777E+05 -0.1071362E-02  0.7324219E-02
  0.1597619E+01 -0.6131714E-02  0.5554199E-02  0.4259355E+05  0.5787354E+05  0.2521452E-02  0.7995605E-02
  0.1628572E+01  0.2942001E-02  0.5554199E-02  0.4176566E+05  0.5825595E+05  0.1444766E-01 -0.1470947E-01
  0.1659524E+01  0.9930254E-03 -0.5615234E-02  0.4097993E+05  0.5860027E+05 -0.2740014E-02  0.8300781E-02
  0.1690476E+01  0.3285582E-02 -0.8422852E-02  0.4021807E+05  0.5890668E+05  0.4170162E-02  0.1525879E-02
  0.1721429E+01 -0.2322375E-02  0.4577637E-02  0.3948724E+05  0.5919843E+05 -0.3988812E-02 -0.1867676E-01
  0.1752381E+01  0.2786388E-03 -0.2014160E-02  0.3877713E+05  0.5947314E+05 -0.1661384E-01  0.1245117E-01
  0.1783333E+01 -0.2720913E-02  0.1708984E-02  0.3806766E+05  0.5973423E+05  0.7358444E-02 -0.1837158E-01
  0.1814286E+01  0.2102589E-02 -0.3601074E-02  0.3738406E+05  0.5996217E+05 -0.1111849E-01 -0.6652832E-02
  0.1845238E+01  0.5060799E-02  0.1684570E-01  0.3671173E+05  0.6013712E+05 -0.7963316E-02 -0.3479004E-02
  0.1876190E+01 -0.2919696E-02  0.4028320E-02  0.3603602E+05  0.6030174E+05 -0.7978333E-02 -0.7934570E-03
  0.1907143E+01  0.5264568E-02 -0.9765625E-02  0.3537221E+05  0.6041928E+05 -0.6584711E-02 -0.1013184E-01
  0.1938095E+01 -0.6148880E-02 -0.9765625E-03  0.3471600E+05  0.6045691E+05 -0.1043184E-01 -0.7324219E-03
  0.1969048E+01 -0.2944743E-02 -0.7385254E-02  0.3407550E+05  0.6042756E+05 -0.4548854E-02 -0.6591797E-02
  0.2000000E+01 -0.9376526E-02 -0.1373291E-01  0.3342944E+05  0.6035262E+05 -0.5157471E-02 -0.8483887E-02
Zone t="Motion of body    1 in DoF   3",I=    64,F=POINT
  0.5000000E-01 -0.2058888E+06 -0.1183943E-01 -0.6642342E-01 -0.1738062E-03  0.4430321E+06  0.1260639E-01
  0.8095238E-01 -0.2076785E+06 -0.5225087E-01 -0.2690708E-01 -0.1762688E-03  0.4452933E+06  0.5640604E-01
  0.1119048E+00 -0.2080984E+06 -0.1465425E+00  0.9203972E-03  0.1274617E-03  0.4453782E+06  0.1568391E+00
  0.1428571E+00 -0.2082913E+06 -0.3298561E+00  0.1288414E-01  0.6767083E-04  0.4455545E+06  0.3521977E+00
  0.1738095E+00 -0.2084807E+06 -0.6553657E+00  0.1531941E-01  0.1386260E-03  0.4456362E+06  0.6965040E+00
  0.2047619E+00 -0.2086182E+06 -0.1210622E+01  0.2404191E-01  0.3995048E-04  0.4458271E+06  0.1287060E+01
  0.2357143E+00 -0.2089075E+06 -0.2130052E+01  0.2663814E-01  0.3512884E-03  0.4459707E+06  0.2262916E+01
  0.2666667E+00 -0.2090948E+06 -0.3627539E+01  0.1084328E-01  0.1193117E-04  0.4462016E+06  0.3846335E+01
  0.2976190E+00 -0.2093131E+06 -0.6077712E+01  0.4524536E-02  0.2126358E-03  0.4464188E+06  0.6429327E+01
  0.3285715E+00 -0.2097124E+06 -0.1004180E+02 -0.1542962E-01 -0.1004640E-02  0.4465721E+06  0.1060222E+02
  0.3595238E+00 -0.2100935E+06 -0.1645690E+02  0.5749784E-01  0.2719365E-02  0.4469090E+06  0.1733323E+02
  0.3904762E+00 -0.2102780E+06 -0.2678809E+02  0.6486846E-02  0.5315542E-03  0.4471453E+06  0.2809869E+02
  0.4214286E+00 -0.2107658E+06 -0.4303793E+02  0.1973297E-01  0.1680404E-02  0.4475391E+06  0.4499195E+02
  0.4523810E+00 -0.2112709E+06 -0.6852215E+02  0.1898996E-01  0.1106232E-02  0.4478996E+06  0.7139455E+02
  0.4833333E+00 -0.2118628E+06 -0.1063524E+03 -0.6705448E-01 -0.6844044E-02  0.4484126E+06  0.1104670E+03
  0.5142857E+00 -0.2124148E+06 -0.1625236E+03 -0.7313623E-02 -0.1994193E-02  0.4489640E+06  0.1680437E+03
  0.5452381E+00 -0.2132435E+06 -0.2425096E+03  0.3160968E-01  0.3124774E-02  0.4495342E+06  0.2496245E+03
  0.5761905E+00 -0.2139919E+06 -0.3529658E+03  0.1116224E-01 -0.1502037E-04  0.4501234E+06  0.3619156E+03
  0.6071429E+00 -0.2148158E+06 -0.5045326E+03 -0.3018368E-01 -0.9117365E-02  0.4508734E+06  0.5152218E+03
  0.6380953E+00 -0.2157502E+06 -0.7057534E+03  0.4734779E-02 -0.1997232E-02  0.4516420E+06  0.7166655E+03
  0.6690477E+00 -0.2167342E+06 -0.9700814E+03  0.2036641E-01  0.6246567E-02  0.4524974E+06  0.9800023E+03
  0.7000000E+00 -0.2177786E+06 -0.1313476E+04  0.3284999E-01  0.1494408E-01  0.4533075E+06  0.1319693E+04
  0.7309524E+00 -0.2190567E+06 -0.1751041E+04  0.6076775E-01  0.1965380E-01  0.4542111E+06  0.1749972E+04
  0.7619048E+00 -0.2202173E+06 -0.2302604E+04 -0.5467414E-01 -0.1929855E-01  0.4551908E+06  0.2288967E+04
  0.7928572E+00 -0.2214509E+06 -0.2993333E+04 -0.9622659E-02 -0.6643295E-02  0.4562782E+06  0.2956632E+04
  0.8238096E+00 -0.2227830E+06 -0.3848605E+04  0.2187475E-01  0.5378723E-02  0.4572826E+06  0.3774079E+04
  0.8547620E+00 -0.2242719E+06 -0.4893907E+04  0.2743777E-01  0.9687424E-02  0.4583931E+06  0.4767344E+04
  0.8857143E+00 -0.2256986E+06 -0.6159361E+04 -0.5891861E-02  0.7852554E-02  0.4594729E+06  0.5960745E+04
  0.9166667E+00 -0.2271771E+06 -0.7678986E+04  0.5692916E-02 -0.1240540E-01  0.4605289E+06  0.7379413E+04
  0.9476191E+00 -0.2286653E+06 -0.9486283E+04  0.4069036E-01  0.1362228E-01  0.4615545E+06  0.9050570E+04
  0.9785714E+00 -0.2301789E+06 -0.1162134E+05  0.1233400E-01  0.2380371E-02  0.4627440E+06  0.1100575E+05
  0.1009524E+01 -0.2313977E+06 -0.1411454E+05  0.5078586E-02  0.9799957E-02  0.4634780E+06  0.1324916E+05
  0.1040476E+01 -0.2328715E+06 -0.1701294E+05 -0.2572276E-01 -0.1487732E-02  0.4645229E+06  0.1584088E+05
  0.1071429E+01 -0.2339740E+06 -0.2033145E+05  0.2993571E-01  0.2735138E-01  0.4651190E+06  0.1876281E+05
  0.1102381E+01 -0.2350804E+06 -0.2410689E+05 -0.1553035E-01 -0.2178955E-01  0.4655125E+06  0.2204754E+05
  0.1133333E+01 -0.2360154E+06 -0.2835695E+05 -0.3909840E-01 -0.9864807E-02  0.4659341E+06  0.2571268E+05
  0.1164286E+01 -0.2365029E+06 -0.3307883E+05  0.2639489E-01  0.1441956E-01  0.4658103E+06  0.2971623E+05
  0.1195238E+01 -0.2369274E+06 -0.3829537E+05 -0.3661380E-01 -0.5151367E-01  0.4657587E+06  0.3409470E+05
  0.1226190E+01 -0.2367675E+06 -0.4397479E+05 -0.8038864E-02  0.4592896E-02  0.4652254E+06  0.3876132E+05
  0.1257143E+01 -0.2361186E+06 -0.5004290E+05 -0.7865212E-02  0.2914429E-02  0.4641660E+06  0.4364517E+05
  0.1288095E+01 -0.2354072E+06 -0.5655834E+05  0.3624879E-02  0.8117676E-02  0.4629220E+06  0.4877571E+05
  0.1319048E+01 -0.2340616E+06 -0.6333582E+05  0.1665797E-02  0.2371216E-01  0.4613210E+06  0.5403999E+05
  0.1350000E+01 -0.2321646E+06 -0.7031226E+05 -0.4950629E-02 -0.1889038E-01  0.4591501E+06  0.5931443E+05
  0.1380952E+01 -0.2300181E+06 -0.7742645E+05  0.1754656E-01  0.4086304E-01  0.4568327E+06  0.6459296E+05
  0.1411905E+01 -0.2281997E+06 -0.8473248E+05  0.4046229E-01  0.2951050E-01  0.4545132E+06  0.7002372E+05
  0.1442857E+01 -0.2249619E+06 -0.9169429E+05  0.4970437E-02  0.2041626E-01  0.4513831E+06  0.7488061E+05
  0.1473810E+01 -0.2213917E+06 -0.9834641E+05 -0.9587154E-02 -0.1693726E-01  0.4478757E+06  0.7929105E+05
  0.1504762E+01 -0.2175430E+06 -0.1046752E+06  0.8416478E-02  0.1141357E-01  0.4444916E+06  0.8341242E+05
  0.1535714E+01 -0.2131797E+06 -0.1104317E+06 -0.2378668E-01 -0.3778076E-01  0.4407022E+06  0.8686942E+05
  0.1566667E+01 -0.2086725E+06 -0.1156356E+06 -0.3584192E-02 -0.1330566E-01  0.4368710E+06  0.8970230E+05
  0.1597619E+01 -0.2041921E+06 -0.1202234E+06  0.5415392E-02 -0.1141357E-01  0.4331448E+06  0.9199140E+05
  0.1628572E+01 -0.1994468E+06 -0.1240071E+06 -0.2923263E-02 -0.2380371E-02  0.4293106E+06  0.9351827E+05
  0.1659524E+01 -0.1947923E+06 -0.1270898E+06 -0.8100512E-02  0.1062012E-01  0.4256946E+06  0.9446512E+05
  0.1690476E+01 -0.1902335E+06 -0.1293100E+06 -0.1170714E-01 -0.6469727E-02  0.4220012E+06  0.9463557E+05
  0.1721429E+01 -0.1859140E+06 -0.1309085E+06  0.2929561E-02  0.4083252E-01  0.4187424E+06  0.9440863E+05
  0.1752381E+01 -0.1817016E+06 -0.1318033E+06 -0.2159233E-01 -0.8544922E-02  0.4157061E+06  0.9361023E+05
  0.1783333E+01 -0.1775985E+06 -0.1319984E+06  0.9310357E-02  0.1885986E-01  0.4127240E+06  0.9217668E+05
  0.1814286E+01 -0.1738703E+06 -0.1316990E+06  0.1453888E-01  0.4821777E-01  0.4102290E+06  0.9051148E+05
  0.1845238E+01 -0.1704859E+06 -0.1308673E+06 -0.1050405E-01 -0.3100586E-01  0.4080068E+06  0.8845764E+05
  0.1876190E+01 -0.1671874E+06 -0.1294439E+06 -0.2602514E-03 -0.1190186E-01  0.4058802E+06  0.8592059E+05
  0.1907143E+01 -0.1642073E+06 -0.1276798E+06 -0.1940209E-02 -0.8361816E-02  0.4041624E+06  0.8330617E+05
  0.1938095E+01 -0.1614916E+06 -0.1253953E+06  0.1091997E-01  0.2856445E-01  0.4024840E+06  0.8023512E+05
  0.1969048E+01 -0.1591332E+06 -0.1228659E+06  0.1235242E-01  0.1562500E-01  0.4011386E+06  0.7709095E+05
  0.2000000E+01 -0.1570061E+06 -0.1202208E+06 -0.1472473E-02  0.3234863E-02  0.4001462E+06  0.7412609E+05
