VARIABLES="w (rad/s)"
"A   1   1" "B   1   1"
"A   1   2" "B   1   2"
"A   1   3" "B   1   3"
Zone t="Motion of body    1 in DoF   1",I=    64,F=POINT
  0.5000000E-01  0.2522247E+06  0.4848335E-01 -0.8926392E-02 -0.2053039E-04 -0.4756941E+06 -0.8233681E-01
  0.8095238E-01  0.2537599E+06  0.2139638E+00 -0.2120523E-02 -0.8952303E-04 -0.4781667E+06 -0.3639157E+00
  0.1119048E+00  0.2544319E+06  0.6008188E+00 -0.5795093E-02 -0.9769900E-04 -0.4796096E+06 -0.1022624E+01
  0.1428571E+00  0.2551380E+06  0.1354336E+01  0.7369995E-02 -0.6171875E-05 -0.4802667E+06 -0.2303363E+01
  0.1738095E+00  0.2555190E+06  0.2695547E+01 -0.1404645E-02 -0.2065133E-03 -0.4814488E+06 -0.4586724E+01
  0.2047619E+00  0.2567374E+06  0.4982152E+01  0.1073083E-01 -0.6974488E-04 -0.4826992E+06 -0.8471662E+01
  0.2357143E+00  0.2572544E+06  0.8777725E+01  0.1294685E-01 -0.1618490E-03 -0.4837927E+06 -0.1493083E+02
  0.2666667E+00  0.2581824E+06  0.1499202E+02  0.1121521E-01  0.6437302E-03 -0.4855324E+06 -0.2551176E+02
  0.2976190E+00  0.2597317E+06  0.2520092E+02 -0.8510742E-02 -0.5961359E-03 -0.4875686E+06 -0.4286418E+02
  0.3285715E+00  0.2609411E+06  0.4175875E+02 -0.1263162E-01 -0.4400313E-03 -0.4895333E+06 -0.7103524E+02
  0.3595238E+00  0.2622472E+06  0.6867895E+02  0.1689178E-01  0.5027950E-03 -0.4920282E+06 -0.1168887E+03
  0.3904762E+00  0.2641675E+06  0.1122545E+03  0.1016012E-02 -0.2650619E-03 -0.4948319E+06 -0.1909995E+03
  0.4214286E+00  0.2661972E+06  0.1811382E+03  0.4344875E-02 -0.8904934E-03 -0.4981320E+06 -0.3082244E+03
  0.4523810E+00  0.2683686E+06  0.2897900E+03  0.1598800E-01  0.9870529E-03 -0.5019637E+06 -0.4933026E+03
  0.4833333E+00  0.2706167E+06  0.4521805E+03  0.3226444E-01  0.3608704E-02 -0.5059856E+06 -0.7700737E+03
  0.5142857E+00  0.2737596E+06  0.6952880E+03 -0.6171333E-02 -0.1367569E-02 -0.5104516E+06 -0.1183237E+04
  0.5452381E+00  0.2766721E+06  0.1043223E+04  0.4589631E-01  0.6259441E-02 -0.5150039E+06 -0.1774956E+04
  0.5761905E+00  0.2795712E+06  0.1528130E+04 -0.1800789E-02 -0.1027107E-02 -0.5202450E+06 -0.2601417E+04
  0.6071429E+00  0.2832826E+06  0.2200406E+04 -0.5126953E-02 -0.8111000E-02 -0.5266792E+06 -0.3747053E+04
  0.6380953E+00  0.2874403E+06  0.3101442E+04 -0.2305216E-01 -0.7074356E-02 -0.5330069E+06 -0.5277752E+04
  0.6690477E+00  0.2917369E+06  0.4297487E+04  0.1997869E-01  0.4489899E-02 -0.5398591E+06 -0.7310709E+04
  0.7000000E+00  0.2964817E+06  0.5868789E+04  0.3226144E-02 -0.2273560E-02 -0.5476562E+06 -0.9981793E+04
  0.7309524E+00  0.3010399E+06  0.7886249E+04  0.6179064E-02 -0.2277374E-02 -0.5553584E+06 -0.1341339E+05
  0.7619048E+00  0.3061198E+06  0.1046549E+05  0.1369858E-01  0.5264282E-03 -0.5641947E+06 -0.1780458E+05
  0.7928572E+00  0.3122896E+06  0.1374452E+05  0.1000756E-01  0.2861023E-02 -0.5734878E+06 -0.2335262E+05
  0.8238096E+00  0.3182521E+06  0.1783890E+05  0.3111734E-02  0.2029419E-02 -0.5832521E+06 -0.3029593E+05
  0.8547620E+00  0.3241642E+06  0.2289510E+05  0.1720885E-01  0.5981445E-02 -0.5928537E+06 -0.3886152E+05
  0.8857143E+00  0.3300739E+06  0.2908093E+05  0.2067320E-03  0.4577637E-02 -0.6023802E+06 -0.4932984E+05
  0.9166667E+00  0.3362892E+06  0.3658784E+05 -0.2663352E-03 -0.1446533E-01 -0.6124989E+06 -0.6202583E+05
  0.9476191E+00  0.3421185E+06  0.4557126E+05 -0.6698532E-02 -0.1113892E-01 -0.6223231E+06 -0.7723010E+05
  0.9785714E+00  0.3477744E+06  0.5623803E+05  0.1072793E-01  0.1431274E-01 -0.6309334E+06 -0.9517355E+05
  0.1009524E+01  0.3532287E+06  0.6880059E+05  0.1281738E-01  0.7751465E-02 -0.6394219E+06 -0.1162991E+06
  0.1040476E+01  0.3577373E+06  0.8335023E+05  0.9737691E-02  0.2746582E-03 -0.6458580E+06 -0.1406755E+06
  0.1071429E+01  0.3614740E+06  0.1000240E+06  0.3873698E-02 -0.1354980E-01 -0.6514187E+06 -0.1686052E+06
  0.1102381E+01  0.3633670E+06  0.1187061E+06  0.6422533E-02 -0.7324219E-02 -0.6536054E+06 -0.1997812E+06
  0.1133333E+01  0.3635808E+06  0.1393952E+06  0.1475615E-01  0.5493164E-03 -0.6534426E+06 -0.2343345E+06
  0.1164286E+01  0.3619995E+06  0.1618981E+06  0.1404932E-01 -0.2014160E-02 -0.6504856E+06 -0.2718971E+06
  0.1195238E+01  0.3583103E+06  0.1858708E+06 -0.5310788E-02 -0.3967285E-02 -0.6432076E+06 -0.3115629E+06
  0.1226190E+01  0.3531217E+06  0.2111914E+06  0.4081652E-02 -0.2868652E-02 -0.6333025E+06 -0.3531706E+06
  0.1257143E+01  0.3452347E+06  0.2370544E+06  0.1398260E-01  0.1434326E-01 -0.6190626E+06 -0.3955415E+06
  0.1288095E+01  0.3353234E+06  0.2630293E+06 -0.7581447E-03  0.1257324E-01 -0.6010129E+06 -0.4376482E+06
  0.1319048E+01  0.3232630E+06  0.2884988E+06  0.1124413E-01  0.7324219E-02 -0.5803046E+06 -0.4791111E+06
  0.1350000E+01  0.3091700E+06  0.3126078E+06  0.1071506E-01  0.2221680E-01 -0.5558316E+06 -0.5178044E+06
  0.1380952E+01  0.2936433E+06  0.3349321E+06  0.3933611E-02  0.1464844E-01 -0.5286672E+06 -0.5529374E+06
  0.1411905E+01  0.2769907E+06  0.3551726E+06  0.4798413E-02  0.1843262E-01 -0.5003869E+06 -0.5846537E+06
  0.1442857E+01  0.2599003E+06  0.3729798E+06 -0.1226746E-02 -0.2819824E-01 -0.4715126E+06 -0.6121517E+06
  0.1473810E+01  0.2422935E+06  0.3877612E+06  0.2194899E-02 -0.1855469E-01 -0.4414821E+06 -0.6340071E+06
  0.1504762E+01  0.2247479E+06  0.3997832E+06 -0.7503848E-03 -0.1025391E-01 -0.4120196E+06 -0.6513762E+06
  0.1535714E+01  0.2077096E+06  0.4092171E+06  0.4073741E-02  0.2099609E-01 -0.3839419E+06 -0.6648132E+06
  0.1566667E+01  0.1911389E+06  0.4155732E+06  0.6603484E-02  0.1330566E-01 -0.3561099E+06 -0.6721366E+06
  0.1597619E+01  0.1756190E+06  0.4197261E+06  0.3476548E-02  0.8666992E-02 -0.3301329E+06 -0.6755286E+06
  0.1628572E+01  0.1612641E+06  0.4219952E+06 -0.1873886E-02  0.1220703E-01 -0.3064914E+06 -0.6759022E+06
  0.1659524E+01  0.1476832E+06  0.4220747E+06  0.3126191E-02  0.9399414E-02 -0.2845481E+06 -0.6732888E+06
  0.1690476E+01  0.1350694E+06  0.4202201E+06 -0.3114082E-02  0.1782227E-01 -0.2640717E+06 -0.6669751E+06
  0.1721429E+01  0.1234589E+06  0.4166404E+06  0.2929561E-02  0.7141113E-02 -0.2452572E+06 -0.6574457E+06
  0.1752381E+01  0.1130296E+06  0.4121635E+06  0.1371425E-02  0.7324219E-02 -0.2288748E+06 -0.6473172E+06
  0.1783333E+01  0.1036112E+06  0.4065870E+06  0.5322038E-02  0.1251221E-01 -0.2141860E+06 -0.6353212E+06
  0.1814286E+01  0.9498748E+05  0.3999795E+06 -0.2640852E-02  0.9155273E-02 -0.2006113E+06 -0.6210339E+06
  0.1845238E+01  0.8736009E+05  0.3928728E+06 -0.1103949E-02  0.1831055E-03 -0.1888095E+06 -0.6059749E+06
  0.1876190E+01  0.8071230E+05  0.3855304E+06  0.5688934E-02  0.1281738E-02 -0.1788508E+06 -0.5907261E+06
  0.1907143E+01  0.7465716E+05  0.3775124E+06  0.4660503E-02 -0.6164551E-02 -0.1700490E+06 -0.5751248E+06
  0.1938095E+01  0.6921778E+05  0.3688813E+06  0.2322560E-02  0.1220703E-02 -0.1621907E+06 -0.5582769E+06
  0.1969048E+01  0.6434356E+05  0.3595897E+06  0.6044473E-03 -0.1098633E-02 -0.1551818E+06 -0.5397587E+06
  0.2000000E+01  0.6006436E+05  0.3502460E+06  0.3089905E-02  0.2868652E-02 -0.1493221E+06 -0.5218229E+06
Zone t="Motion of body    1 in DoF   2",I=    64,F=POINT
  0.5000000E-01 -0.4653931E-02  0.4959106E-04  0.2045002E+06  0.4882002E+03  0.7690430E-01  0.3128052E-03
  0.8095238E-01 -0.1253465E-01 -0.1335144E-04  0.2022661E+06  0.8074239E+03  0.5202349E-01 -0.1640320E-03
  0.1119048E+00 -0.9749392E-02 -0.1392365E-03  0.2006267E+06  0.1151908E+04  0.1090841E-02  0.2288818E-04
  0.1428571E+00 -0.2136230E-03 -0.4005432E-04  0.1998332E+06  0.1533534E+04  0.4272461E-02  0.5798340E-03
  0.1738095E+00 -0.5442998E-02  0.4959106E-04  0.1992460E+06  0.1965686E+04  0.5829275E-01  0.2365112E-03
  0.2047619E+00 -0.3353385E-02 -0.3395081E-03  0.1988622E+06  0.2467737E+04  0.2980787E-01  0.7476807E-03
  0.2357143E+00 -0.1411207E-01 -0.9536743E-04  0.1990840E+06  0.3063300E+04  0.4609079E-01 -0.5340576E-03
  0.2666667E+00  0.1716614E-02  0.4005432E-03  0.1989015E+06  0.3769942E+04 -0.5035400E-02  0.2151489E-02
  0.2976190E+00 -0.2501953E-01  0.6027222E-03  0.1993242E+06  0.4636266E+04  0.5167969E-01 -0.1205444E-02
  0.3285715E+00  0.1012387E-01 -0.1220703E-03  0.1992442E+06  0.5676791E+04  0.2749235E-01  0.2319336E-02
  0.3595238E+00  0.6366249E-02  0.5416870E-03  0.1996628E+06  0.6943167E+04  0.1426040E-01  0.2899170E-02
  0.3904762E+00  0.1484941E-02 -0.1678467E-03  0.1992494E+06  0.8464750E+04 -0.2813572E-01  0.3448486E-02
  0.4214286E+00  0.7313873E-02 -0.1831055E-03  0.1990842E+06  0.1019985E+05 -0.8689750E-02  0.3601074E-02
  0.4523810E+00  0.6745991E-04 -0.2044678E-02  0.1979749E+06  0.1224943E+05  0.4425370E-01  0.4882812E-02
  0.4833333E+00  0.1868938E-01 -0.7324219E-03  0.1967137E+06  0.1436661E+05 -0.3535830E-02  0.4089355E-02
  0.5142857E+00 -0.3085666E-02  0.3051758E-03  0.1950022E+06  0.1668362E+05  0.5032010E-01 -0.3540039E-02
  0.5452381E+00 -0.1186587E-01  0.2563477E-02  0.1926546E+06  0.1902805E+05  0.6850863E-01 -0.9765625E-03
  0.5761905E+00  0.5190510E-02  0.2868652E-02  0.1907584E+06  0.2130932E+05  0.3813436E-01  0.2319336E-02
  0.6071429E+00  0.1005285E-01 -0.5920410E-02  0.1876147E+06  0.2365640E+05 -0.7238050E-02  0.1245117E-01
  0.6380953E+00  0.4208693E-02  0.1708984E-02  0.1848158E+06  0.2579829E+05  0.1759999E-01  0.1220703E-01
  0.6690477E+00  0.1824538E-02 -0.1953125E-02  0.1825227E+06  0.2782282E+05  0.3649077E-01  0.7568359E-02
  0.7000000E+00 -0.9155273E-02  0.8422852E-02  0.1789830E+06  0.2980628E+05  0.7254463E-01  0.1037598E-01
  0.7309524E+00  0.8266585E-02 -0.1892090E-02  0.1758983E+06  0.3155998E+05 -0.6012062E-02  0.1110840E-01
  0.7619048E+00 -0.3364563E-02  0.5065918E-02  0.1733562E+06  0.3312152E+05  0.3845214E-01  0.3662109E-03
  0.7928572E+00  0.1039247E-01  0.1025391E-01  0.1702787E+06  0.3451146E+05  0.2771326E-01 -0.2441406E-02
  0.8238096E+00 -0.8520225E-02  0.6103516E-03  0.1671435E+06  0.3572796E+05  0.5156589E-01 -0.1220703E-01
  0.8547620E+00 -0.3927331E-02  0.8666992E-02  0.1644160E+06  0.3671191E+05  0.3941613E-01 -0.4882812E-03
  0.8857143E+00 -0.2756426E-02 -0.5493164E-03  0.1621933E+06  0.3744000E+05  0.4410282E-01  0.2734375E-01
  0.9166667E+00 -0.3096147E-02 -0.1000977E-01  0.1594502E+06  0.3794273E+05  0.3462358E-01  0.8544922E-02
  0.9476191E+00 -0.7729075E-02  0.3662109E-03  0.1568097E+06  0.3825372E+05  0.4946608E-01  0.1440430E-01
  0.9785714E+00  0.5052107E-02  0.7324219E-02  0.1545410E+06  0.3833917E+05  0.3742301E-01 -0.2709961E-01
  0.1009524E+01  0.7889946E-02 -0.1708984E-02  0.1528170E+06  0.3821952E+05  0.6287773E-02  0.6835938E-02
  0.1040476E+01  0.1173216E-03  0.1232910E-01  0.1511826E+06  0.3784991E+05  0.2721861E-01  0.2441406E-03
  0.1071429E+01 -0.8117676E-03 -0.6713867E-02  0.1490490E+06  0.3731197E+05  0.1321615E-01  0.1855469E-01
  0.1102381E+01 -0.1121175E-02  0.1220703E-02  0.1473171E+06  0.3658361E+05  0.1683147E-01  0.1293945E-01
  0.1133333E+01 -0.1901066E-01  0.4760742E-02  0.1459766E+06  0.3573539E+05  0.5988626E-01 -0.1208496E-01
  0.1164286E+01 -0.5052250E-02  0.9033203E-02  0.1451364E+06  0.3478505E+05  0.4571271E-01  0.5590820E-01
  0.1195238E+01  0.2116017E-02  0.2124023E-01  0.1445352E+06  0.3366780E+05  0.2083463E-01 -0.1525879E-01
  0.1226190E+01  0.3748774E-03 -0.3540039E-02  0.1432560E+06  0.3229886E+05  0.3305143E-01  0.1623535E-01
  0.1257143E+01 -0.3016212E-02  0.6103516E-03  0.1423533E+06  0.3094249E+05  0.2641158E-01  0.9765625E-03
  0.1288095E+01  0.8647587E-03  0.1440430E-01  0.1417105E+06  0.2944924E+05  0.3297929E-01 -0.1171875E-01
  0.1319048E+01 -0.6663188E-02 -0.3417969E-02  0.1414386E+06  0.2811828E+05  0.1147549E-01  0.3112793E-01
  0.1350000E+01  0.3266511E-02  0.1220703E-03  0.1414961E+06  0.2681321E+05  0.1953125E-01  0.3540039E-01
  0.1380952E+01  0.4773370E-02  0.1342773E-02  0.1416508E+06  0.2540315E+05  0.1272899E-01 -0.1794434E-01
  0.1411905E+01 -0.3739304E-02 -0.9643555E-02  0.1412125E+06  0.2358426E+05  0.3562065E-01  0.1745605E-01
  0.1442857E+01  0.1544008E-02  0.4882812E-03  0.1411015E+06  0.2198208E+05  0.3587175E-01 -0.2673340E-01
  0.1473810E+01  0.2505498E-02  0.1245117E-01  0.1411448E+06  0.2035225E+05  0.1855311E-01 -0.2624512E-01
  0.1504762E+01  0.2535084E-02  0.3295898E-02  0.1413636E+06  0.1895592E+05  0.1979393E-01  0.3051758E-02
  0.1535714E+01  0.1887831E-02  0.1708984E-02  0.1417573E+06  0.1777188E+05  0.1939498E-01 -0.8850098E-02
  0.1566667E+01 -0.1558344E-03  0.5615234E-02  0.1423068E+06  0.1670899E+05  0.2244016E-01 -0.7141113E-02
  0.1597619E+01 -0.6800280E-02 -0.2441406E-02  0.1427965E+06  0.1548233E+05  0.2750675E-01  0.5676270E-02
  0.1628572E+01 -0.3635339E-02  0.6896973E-02  0.1429997E+06  0.1380012E+05  0.3118147E-01 -0.1568604E-01
  0.1659524E+01 -0.5259356E-02  0.7080078E-02  0.1433628E+06  0.1250162E+05  0.1000381E-01  0.1751709E-01
  0.1690476E+01  0.9387378E-03  0.8666992E-02  0.1438009E+06  0.1126877E+05  0.1761939E-01  0.2319336E-01
  0.1721429E+01  0.2552840E-02  0.7812500E-02  0.1442812E+06  0.1016502E+05  0.1333150E-01 -0.1245117E-01
  0.1752381E+01 -0.3274006E-02 -0.3356934E-02  0.1447746E+06  0.9369229E+04  0.2786388E-01  0.1330566E-01
  0.1783333E+01 -0.7084642E-02 -0.2990723E-02  0.1452985E+06  0.8675258E+04  0.8214077E-02  0.4364014E-02
  0.1814286E+01 -0.1042884E-02  0.1171875E-01  0.1458482E+06  0.8026407E+04  0.3121924E-01 -0.1449585E-01
  0.1845238E+01 -0.1753087E-02  0.5065918E-02  0.1463785E+06  0.7206900E+04  0.3175403E-01 -0.1727295E-01
  0.1876190E+01 -0.2635046E-02  0.1464844E-02  0.1468186E+06  0.6188855E+04  0.2966866E-01  0.1007080E-01
  0.1907143E+01 -0.6400691E-03  0.6042480E-02  0.1472642E+06  0.5548230E+04  0.3481976E-01 -0.2349854E-02
  0.1938095E+01  0.1385663E-02 -0.2014160E-02  0.1477216E+06  0.5035308E+04  0.2166673E-01  0.1525879E-03
  0.1969048E+01 -0.1890835E-02 -0.2929688E-02  0.1481899E+06  0.4586926E+04  0.2578975E-01  0.1094055E-01
  0.2000000E+01 -0.3173828E-02 -0.4455566E-02  0.1485891E+06  0.4198914E+04  0.2832031E-01  0.9475708E-02
Zone t="Motion of body    1 in DoF   3",I=    64,F=POINT
  0.5000000E-01 -0.4774053E+06 -0.8301505E-01  0.4554749E-01  0.7381587E-04  0.1238957E+07  0.1410177E+00
  0.8095238E-01 -0.4797545E+06 -0.3667311E+00  0.2469231E-01 -0.8589309E-04  0.1244434E+07  0.6241018E+00
  0.1119048E+00 -0.4813299E+06 -0.1028957E+01 -0.5420117E-01 -0.5574008E-03  0.1246678E+07  0.1750970E+01
  0.1428571E+00 -0.4819924E+06 -0.2318888E+01  0.2691650E-01  0.2254639E-03  0.1247445E+07  0.3942790E+01
  0.1738095E+00 -0.4831598E+06 -0.4616397E+01  0.6584272E-02  0.4190393E-03  0.1250234E+07  0.7854595E+01
  0.2047619E+00 -0.4845800E+06 -0.8533751E+01 -0.8308943E-01 -0.1731981E-02  0.1250916E+07  0.1450930E+02
  0.2357143E+00 -0.4854788E+06 -0.1503493E+02 -0.3482703E-01 -0.1339316E-03  0.1253466E+07  0.2557741E+02
  0.2666667E+00 -0.4873348E+06 -0.2567709E+02 -0.7753371E-01 -0.1700193E-02  0.1255956E+07  0.4369590E+02
  0.2976190E+00 -0.4893490E+06 -0.4316811E+02 -0.1743164E-02  0.1368612E-02  0.1259230E+07  0.7343149E+02
  0.3285715E+00 -0.4914306E+06 -0.7153609E+02  0.1657436E+00  0.7616818E-02  0.1262119E+07  0.1216941E+03
  0.3595238E+00 -0.4937101E+06 -0.1176513E+03 -0.3624518E-01 -0.2620816E-02  0.1267325E+07  0.2002289E+03
  0.3904762E+00 -0.4967590E+06 -0.1922983E+03 -0.2211780E-01 -0.2354503E-02  0.1270617E+07  0.3271852E+03
  0.4214286E+00 -0.4999455E+06 -0.3103144E+03  0.1260014E-01  0.1778364E-02  0.1277119E+07  0.5280350E+03
  0.4523810E+00 -0.5038809E+06 -0.4964362E+03  0.6057899E-01  0.5767107E-02  0.1283173E+07  0.8450598E+03
  0.4833333E+00 -0.5078737E+06 -0.7745624E+03 -0.8965854E-01 -0.8117676E-02  0.1290624E+07  0.1319108E+04
  0.5142857E+00 -0.5123958E+06 -0.1190967E+04 -0.4100376E-01 -0.3520966E-02  0.1296397E+07  0.2026782E+04
  0.5452381E+00 -0.5170732E+06 -0.1786767E+04 -0.5977714E-01 -0.1476002E-01  0.1303582E+07  0.3040042E+04
  0.5761905E+00 -0.5220199E+06 -0.2616962E+04  0.1663082E-01 -0.3126144E-02  0.1313990E+07  0.4455036E+04
  0.6071429E+00 -0.5286134E+06 -0.3767560E+04 -0.1573271E-01 -0.1375198E-02  0.1324137E+07  0.6415838E+04
  0.6380953E+00 -0.5350976E+06 -0.5308908E+04  0.4213475E-01  0.3330231E-02  0.1333828E+07  0.9034171E+04
  0.6690477E+00 -0.5417427E+06 -0.7354822E+04 -0.1058232E-01 -0.3795624E-02  0.1345858E+07  0.1251187E+05
  0.7000000E+00 -0.5497752E+06 -0.1004000E+05  0.5562918E-01  0.1675034E-01  0.1358068E+07  0.1707647E+05
  0.7309524E+00 -0.5574133E+06 -0.1348489E+05 -0.6930571E-02 -0.9017944E-02  0.1370653E+07  0.2293607E+05
  0.7619048E+00 -0.5660545E+06 -0.1788706E+05  0.2763748E-01  0.5645752E-03  0.1386754E+07  0.3043125E+05
  0.7928572E+00 -0.5756023E+06 -0.2347807E+05 -0.1085436E-01  0.5386353E-02  0.1399990E+07  0.3988903E+05
  0.8238096E+00 -0.5854691E+06 -0.3045276E+05  0.7408892E-03  0.1672363E-01  0.1416084E+07  0.5171776E+05
  0.8547620E+00 -0.5950991E+06 -0.3905660E+05 -0.1278168E-01  0.5111694E-02  0.1432305E+07  0.6629487E+05
  0.8857143E+00 -0.6044201E+06 -0.4957129E+05  0.3238801E-01  0.2606201E-01  0.1448461E+07  0.8409038E+05
  0.9166667E+00 -0.6145562E+06 -0.6230602E+05  0.9355024E-02  0.3445435E-01  0.1463795E+07  0.1056239E+06
  0.9476191E+00 -0.6243576E+06 -0.7752098E+05 -0.6634123E-02 -0.2047729E-01  0.1480082E+07  0.1313766E+06
  0.9785714E+00 -0.6330774E+06 -0.9555012E+05 -0.3059332E-01 -0.7720947E-02  0.1493161E+07  0.1616966E+06
  0.1009524E+01 -0.6415770E+06 -0.1167600E+06  0.1641471E-01  0.1501465E-01  0.1507432E+07  0.1973689E+06
  0.1040476E+01 -0.6478986E+06 -0.1412798E+06 -0.1660100E-01 -0.2709961E-01  0.1516572E+07  0.2384531E+06
  0.1071429E+01 -0.6536278E+06 -0.1692805E+06  0.1737468E-01 -0.7080078E-02  0.1524164E+07  0.2853437E+06
  0.1102381E+01 -0.6557806E+06 -0.2005572E+06 -0.2754491E-01  0.5615234E-02  0.1525986E+07  0.3375299E+06
  0.1133333E+01 -0.6554136E+06 -0.2350960E+06 -0.2296896E-01 -0.3552246E-01  0.1524899E+07  0.3952297E+06
  0.1164286E+01 -0.6521263E+06 -0.2725438E+06 -0.4833385E-01 -0.4382324E-01  0.1519900E+07  0.4577688E+06
  0.1195238E+01 -0.6445238E+06 -0.3122444E+06  0.2400068E-01  0.5371094E-02  0.1505763E+07  0.5234532E+06
  0.1226190E+01 -0.6347991E+06 -0.3539164E+06  0.2424103E-01  0.8300781E-02  0.1486018E+07  0.5917856E+06
  0.1257143E+01 -0.6206224E+06 -0.3962864E+06 -0.4175359E-02  0.2929688E-01  0.1460608E+07  0.6611815E+06
  0.1288095E+01 -0.6024832E+06 -0.4385356E+06 -0.5496548E-02 -0.4748535E-01  0.1427511E+07  0.7295812E+06
  0.1319048E+01 -0.5816836E+06 -0.4798152E+06 -0.5339805E-01 -0.1745605E-01  0.1393032E+07  0.7968838E+06
  0.1350000E+01 -0.5570026E+06 -0.5184307E+06  0.1356337E-02  0.1477051E-01  0.1351362E+07  0.8588940E+06
  0.1380952E+01 -0.5295794E+06 -0.5536736E+06  0.2360166E-01  0.2612305E-01  0.1304094E+07  0.9142119E+06
  0.1411905E+01 -0.5013150E+06 -0.5851106E+06  0.2481342E-01 -0.2441406E-03  0.1254447E+07  0.9629260E+06
  0.1442857E+01 -0.4725607E+06 -0.6124397E+06  0.2969572E-01  0.5224609E-01  0.1206217E+07  0.1005042E+07
  0.1473810E+01 -0.4424462E+06 -0.6342218E+06  0.1524005E-01  0.2832031E-01  0.1154655E+07  0.1036765E+07
  0.1504762E+01 -0.4129788E+06 -0.6513775E+06  0.1265514E-01 -0.6103516E-02  0.1105565E+07  0.1061137E+07
  0.1535714E+01 -0.3850076E+06 -0.6644461E+06 -0.1716933E-01 -0.2050781E-01  0.1061090E+07  0.1079896E+07
  0.1566667E+01 -0.3569514E+06 -0.6716621E+06  0.2025848E-02 -0.5224609E-01  0.1014717E+07  0.1086890E+07
  0.1597619E+01 -0.3308050E+06 -0.6751631E+06 -0.1528153E-03 -0.4089355E-01  0.9712764E+06  0.1087044E+07
  0.1628572E+01 -0.3073605E+06 -0.6754976E+06  0.2908272E-01 -0.1989746E-01  0.9310826E+06  0.1081141E+07
  0.1659524E+01 -0.2856522E+06 -0.6726655E+06  0.9562466E-02 -0.2282715E-01  0.8965844E+06  0.1072667E+07
  0.1690476E+01 -0.2652406E+06 -0.6661711E+06 -0.1761939E-01 -0.1904297E-01  0.8633626E+06  0.1056810E+07
  0.1721429E+01 -0.2463539E+06 -0.6565816E+06 -0.1489157E-01 -0.2929688E-01  0.8326181E+06  0.1034973E+07
  0.1752381E+01 -0.2301647E+06 -0.6464972E+06  0.1936539E-01  0.8544922E-03  0.8085768E+06  0.1015348E+07
  0.1783333E+01 -0.2155693E+06 -0.6344759E+06 -0.1081520E-01 -0.2880859E-01  0.7872094E+06  0.9926269E+06
  0.1814286E+01 -0.2018252E+06 -0.6199215E+06  0.1830094E-01 -0.2099609E-01  0.7661969E+06  0.9640136E+06
  0.1845238E+01 -0.1899010E+06 -0.6047164E+06  0.2553554E-01 -0.1708984E-02  0.7479704E+06  0.9338112E+06
  0.1876190E+01 -0.1801386E+06 -0.5894502E+06 -0.9369052E-02 -0.1141357E-01  0.7322011E+06  0.9016936E+06
  0.1907143E+01 -0.1716328E+06 -0.5739656E+06  0.1164926E-01 -0.1831055E-02  0.7202550E+06  0.8734642E+06
  0.1938095E+01 -0.1639716E+06 -0.5570987E+06  0.9195764E-02 -0.2380371E-02  0.7093162E+06  0.8421646E+06
  0.1969048E+01 -0.1568701E+06 -0.5383658E+06  0.1698652E-01  0.5920410E-02  0.6991193E+06  0.8059712E+06
  0.2000000E+01 -0.1510777E+06 -0.5204806E+06 -0.1098633E-01 -0.4150391E-02  0.6917195E+06  0.7732821E+06
