VARIABLES="w (rad/s)"
"A   1   1" "B   1   1"
"A   1   2" "B   1   2"
"A   1   3" "B   1   3"
Zone t="Motion of body    1 in DoF   1",I=    64,F=POINT
  0.5000000E-01  0.5092045E+05  0.3658758E-02  0.1151085E-01  0.1826556E-04  0.6261370E+03  0.6221326E-04
  0.8095238E-01  0.5112537E+05  0.1605544E-01  0.1040234E-01  0.8279665E-05  0.6222657E+03  0.2637813E-03
  0.1119048E+00  0.5130726E+05  0.4518930E-01  0.4005432E-02  0.1868283E-04  0.6289808E+03  0.7511911E-03
  0.1428571E+00  0.5146705E+05  0.1017676E+00  0.1453972E-01  0.1000130E-03  0.6224860E+03  0.1685877E-02
  0.1738095E+00  0.5146733E+05  0.2026113E+00 -0.2227679E-02 -0.2574822E-04  0.6313550E+03  0.3373368E-02
  0.2047619E+00  0.5159317E+05  0.3740662E+00  0.6287597E-02  0.4283222E-04  0.6278181E+03  0.6240661E-02
  0.2357143E+00  0.5175421E+05  0.6594536E+00 -0.7573908E-02 -0.1695504E-03  0.6404294E+03  0.1112761E-01
  0.2666667E+00  0.5177723E+05  0.1125562E+01  0.3633499E-02  0.2664304E-04  0.6386874E+03  0.1911273E-01
  0.2976190E+00  0.5193119E+05  0.1889734E+01 -0.1422729E-02 -0.1137266E-03  0.6429295E+03  0.3234266E-01
  0.3285715E+00  0.5217757E+05  0.3132412E+01 -0.4040261E-02 -0.5140435E-04  0.6558267E+03  0.5424470E-01
  0.3595238E+00  0.5225304E+05  0.5146482E+01  0.1227625E-01  0.3217775E-03  0.6654479E+03  0.9022592E-01
  0.3904762E+00  0.5240518E+05  0.8399150E+01  0.4708825E-02 -0.2936088E-04  0.6670441E+03  0.1486951E+00
  0.4214286E+00  0.5274232E+05  0.1354119E+02 -0.8744061E-02 -0.5708896E-03  0.6911064E+03  0.2440363E+00
  0.4523810E+00  0.5301949E+05  0.2163321E+02 -0.8213243E-02 -0.6643347E-03  0.7033535E+03  0.3952808E+00
  0.4833333E+00  0.5309682E+05  0.3366569E+02 -0.2083614E-02 -0.5256757E-03  0.6971213E+03  0.6209348E+00
  0.5142857E+00  0.5344927E+05  0.5161270E+02  0.3738404E-02  0.6763786E-03  0.7187614E+03  0.9690092E+00
  0.5452381E+00  0.5388931E+05  0.7729220E+02 -0.8983362E-02 -0.1478240E-02  0.7390148E+03  0.1475965E+01
  0.5761905E+00  0.5422274E+05  0.1129599E+03  0.1483003E-02 -0.2130866E-03  0.7586084E+03  0.2196979E+01
  0.6071429E+00  0.5445029E+05  0.1619253E+03  0.4749971E-02 -0.3159940E-03  0.7576936E+03  0.3186398E+01
  0.6380953E+00  0.5483769E+05  0.2271719E+03 -0.2522824E-02 -0.1101434E-02  0.7728117E+03  0.4546218E+01
  0.6690477E+00  0.5537106E+05  0.3134943E+03  0.7708675E-02  0.5190969E-03  0.8046613E+03  0.6413711E+01
  0.7000000E+00  0.5594011E+05  0.4262011E+03 -0.5013602E-02 -0.2077579E-02  0.8335443E+03  0.8899931E+01
  0.7309524E+00  0.5641323E+05  0.5701243E+03  0.1540591E-01  0.2689242E-02  0.8454025E+03  0.1209914E+02
  0.7619048E+00  0.5679594E+05  0.7521470E+03 -0.5237102E-02 -0.3152847E-02  0.8583478E+03  0.1624699E+02
  0.7928572E+00  0.5735341E+05  0.9808840E+03 -0.4301329E-02 -0.3103495E-02  0.8842059E+03  0.2161930E+02
  0.8238096E+00  0.5802669E+05  0.1265134E+04  0.3797057E-02 -0.1456976E-02  0.9130538E+03  0.2844812E+02
  0.8547620E+00  0.5872174E+05  0.1614332E+04  0.3597079E-02 -0.2813339E-03  0.9477656E+03  0.3710807E+02
  0.8857143E+00  0.5944012E+05  0.2039661E+04  0.9044524E-02  0.5137444E-02  0.9899705E+03  0.4804058E+02
  0.9166667E+00  0.6010992E+05  0.2552122E+04 -0.3578880E-02 -0.1002789E-02  0.1017595E+04  0.6136335E+02
  0.9476191E+00  0.6069795E+05  0.3163450E+04  0.8018916E-02  0.4391193E-02  0.1035442E+04  0.7746069E+02
  0.9785714E+00  0.6133556E+05  0.3887665E+04  0.3742301E-03 -0.1996994E-02  0.1064201E+04  0.9715778E+02
  0.1009524E+01  0.6204821E+05  0.4738720E+04  0.2161422E-02  0.4072189E-03  0.1105105E+04  0.1211307E+03
  0.1040476E+01  0.6282595E+05  0.5731494E+04  0.7303268E-02  0.2737045E-02  0.1153050E+04  0.1501449E+03
  0.1071429E+01  0.6359391E+05  0.6879279E+04  0.4614258E-02  0.1251221E-02  0.1196849E+04  0.1843953E+03
  0.1102381E+01  0.6431225E+05  0.8195858E+04  0.9412332E-03  0.1735687E-02  0.1238614E+04  0.2247008E+03
  0.1133333E+01  0.6494577E+05  0.9693507E+04  0.3096637E-03  0.9536743E-04  0.1280153E+04  0.2720757E+03
  0.1164286E+01  0.6545789E+05  0.1138119E+05 -0.1808588E-02 -0.5338669E-02  0.1313514E+04  0.3269009E+03
  0.1195238E+01  0.6587686E+05  0.1326837E+05  0.2821356E-02  0.8316040E-03  0.1348800E+04  0.3902059E+03
  0.1226190E+01  0.6624285E+05  0.1535629E+05 -0.2314596E-02 -0.9046555E-02  0.1380700E+04  0.4617813E+03
  0.1257143E+01  0.6649926E+05  0.1765258E+05  0.5583329E-03 -0.1022339E-02  0.1409721E+04  0.5421606E+03
  0.1288095E+01  0.6674547E+05  0.2013417E+05 -0.1883516E-02 -0.9880066E-02  0.1443576E+04  0.6324012E+03
  0.1319048E+01  0.6679949E+05  0.2281514E+05  0.2012838E-02 -0.9536743E-04  0.1474077E+04  0.7341464E+03
  0.1350000E+01  0.6671855E+05  0.2567773E+05  0.5199291E-02  0.7671356E-02  0.1501980E+04  0.8467133E+03
  0.1380952E+01  0.6649594E+05  0.2870572E+05  0.3756819E-02 -0.3044128E-02  0.1529845E+04  0.9704767E+03
  0.1411905E+01  0.6582226E+05  0.3168775E+05  0.2485664E-03 -0.4020691E-02  0.1514731E+04  0.1092238E+04
  0.1442857E+01  0.6527473E+05  0.3493156E+05  0.2199683E-02  0.9639740E-02  0.1523230E+04  0.1231324E+04
  0.1473810E+01  0.6456880E+05  0.3824912E+05  0.3468355E-02 -0.1640320E-02  0.1523575E+04  0.1378318E+04
  0.1504762E+01  0.6369261E+05  0.4161001E+05  0.7098234E-04  0.8544922E-03  0.1520008E+04  0.1535149E+04
  0.1535714E+01  0.6265051E+05  0.4497834E+05  0.1808344E-02 -0.2952576E-02  0.1512503E+04  0.1700348E+04
  0.1566667E+01  0.6148213E+05  0.4831394E+05  0.1957670E-02  0.8804321E-02  0.1500700E+04  0.1871258E+04
  0.1597619E+01  0.6019116E+05  0.5157665E+05  0.6017102E-02  0.3776550E-02  0.1483531E+04  0.2046777E+04
  0.1628572E+01  0.5878991E+05  0.5473580E+05  0.4047594E-02  0.6469727E-02  0.1455211E+04  0.2222231E+04
  0.1659524E+01  0.5727654E+05  0.5776020E+05  0.3935323E-02  0.1468658E-01  0.1420480E+04  0.2399614E+04
  0.1690476E+01  0.5567592E+05  0.6062805E+05  0.2220476E-02 -0.2090454E-02  0.1377848E+04  0.2576639E+04
  0.1721429E+01  0.5402188E+05  0.6331550E+05  0.4015404E-02  0.1172638E-01  0.1332645E+04  0.2753190E+04
  0.1752381E+01  0.5230790E+05  0.6580343E+05 -0.1854689E-02  0.2067566E-02  0.1286631E+04  0.2929885E+04
  0.1783333E+01  0.5057582E+05  0.6808002E+05  0.2087745E-02 -0.6233215E-02  0.1235200E+04  0.3103501E+04
  0.1814286E+01  0.4883669E+05  0.7013468E+05 -0.2119410E-02 -0.4585266E-02  0.1178847E+04  0.3273472E+04
  0.1845238E+01  0.4710938E+05  0.7196608E+05  0.7607737E-03  0.7751465E-02  0.1120611E+04  0.3439142E+04
  0.1876190E+01  0.4540868E+05  0.7357484E+05 -0.8214186E-03 -0.1686096E-02  0.1055783E+04  0.3597165E+04
  0.1907143E+01  0.4373492E+05  0.7496192E+05 -0.4480483E-03  0.4592896E-02  0.9908672E+03  0.3748240E+04
  0.1938095E+01  0.4209620E+05  0.7614001E+05  0.9447702E-04  0.7835388E-02  0.9224189E+03  0.3889013E+04
  0.1969048E+01  0.4051728E+05  0.7711930E+05  0.3332210E-03  0.4753113E-02  0.8551329E+03  0.4023967E+04
  0.2000000E+01  0.3898560E+05  0.7790692E+05 -0.9918213E-03 -0.2830505E-02  0.7864827E+03  0.4155666E+04
Zone t="Motion of body    1 in DoF   2",I=    64,F=POINT
  0.5000000E-01  0.2689362E-02  0.2789497E-04  0.8760559E+05  0.2189580E+03  0.8392334E-03  0.5960464E-06
  0.8095238E-01 -0.2096961E-02 -0.2217293E-04  0.8668212E+05  0.3631287E+03  0.1908471E-02  0.6854534E-05
  0.1119048E+00  0.7022290E-02  0.4714727E-04  0.8614923E+05  0.5201780E+03  0.4261098E-03 -0.3337860E-05
  0.1428571E+00 -0.6635665E-02 -0.4386902E-04  0.8588195E+05  0.6960889E+03  0.2830505E-02  0.5841255E-05
  0.1738095E+00  0.2677604E-02  0.6580353E-04  0.8580823E+05  0.8984698E+03  0.1251012E-02  0.2145767E-04
  0.2047619E+00  0.5598290E-02  0.1904964E-03  0.8593149E+05  0.1136760E+04  0.2216960E-02  0.2837181E-04
  0.2357143E+00  0.3333814E-02  0.2864599E-03  0.8613443E+05  0.1424276E+04  0.1909660E-02 -0.6675720E-05
  0.2666667E+00 -0.8254051E-02  0.8821487E-05  0.8646998E+05  0.1772417E+04  0.6580352E-03  0.5817413E-04
  0.2976190E+00 -0.3537598E-02  0.1463890E-03  0.8686860E+05  0.2206135E+04  0.1614990E-02 -0.8583069E-05
  0.3285715E+00 -0.2623848E-02 -0.1971722E-03  0.8732046E+05  0.2739262E+04  0.2670288E-02  0.4720688E-04
  0.3595238E+00  0.8477722E-02  0.2899170E-03  0.8773702E+05  0.3401695E+04  0.9761582E-03 -0.6198883E-05
  0.3904762E+00  0.5255908E-02  0.8535385E-04  0.8818820E+05  0.4216900E+04  0.1230938E-02  0.8583069E-04
  0.4214286E+00  0.5874633E-02 -0.8249283E-04  0.8837662E+05  0.5177090E+04  0.1937090E-02  0.1430511E-03
  0.4523810E+00  0.4460786E-02  0.4386902E-04  0.8849974E+05  0.6331402E+04  0.1416658E-02  0.2851486E-03
  0.4833333E+00 -0.4104088E-02  0.1150131E-02  0.8834147E+05  0.7586847E+04  0.1641635E-02  0.2288818E-04
  0.5142857E+00  0.3293355E-02  0.9555817E-03  0.8798574E+05  0.9002323E+04  0.2032386E-02  0.1678467E-03
  0.5452381E+00  0.2140895E-02 -0.1058578E-03  0.8742872E+05  0.1050324E+05  0.2266830E-02  0.1544952E-03
  0.5761905E+00  0.6620548E-04  0.3337860E-03  0.8667118E+05  0.1206280E+05  0.2383397E-03  0.8392334E-04
  0.6071429E+00 -0.1021621E-01 -0.1346588E-02  0.8575757E+05  0.1371635E+05  0.1281738E-02  0.8010864E-04
  0.6380953E+00  0.2965215E-02  0.1811981E-03  0.8477427E+05  0.1537005E+05  0.1339130E-02  0.1678467E-03
  0.6690477E+00 -0.8894625E-03  0.9593964E-03  0.8365500E+05  0.1706241E+05  0.2166639E-02 -0.3051758E-04
  0.7000000E+00  0.3073556E-02 -0.1033783E-02  0.8241145E+05  0.1879637E+05  0.1482282E-02  0.7057190E-03
  0.7309524E+00  0.6638318E-02 -0.1604080E-02  0.8112041E+05  0.2052031E+05  0.5427556E-03  0.8392334E-04
  0.7619048E+00  0.7640361E-02  0.2906799E-02  0.7975630E+05  0.2224471E+05  0.1301765E-02  0.2632141E-03
  0.7928572E+00 -0.6774352E-02  0.3751755E-02  0.7834041E+05  0.2396074E+05  0.1116228E-02 -0.4577637E-04
  0.8238096E+00  0.8242392E-03  0.1487732E-02  0.7686296E+05  0.2565654E+05  0.1444734E-02  0.3547668E-03
  0.8547620E+00  0.5694631E-02 -0.6141663E-03  0.7534004E+05  0.2731804E+05  0.1374566E-02  0.5111694E-03
  0.8857143E+00  0.2661674E-02  0.2857208E-02  0.7379602E+05  0.2893321E+05  0.7407896E-03  0.6103516E-04
  0.9166667E+00  0.4336271E-02  0.7171631E-03  0.7224556E+05  0.3049008E+05  0.2879750E-02 -0.0000000E+00
  0.9476191E+00 -0.4621343E-02 -0.3002167E-02  0.7066601E+05  0.3198608E+05  0.7407030E-03  0.7095337E-03
  0.9785714E+00 -0.3983992E-02  0.1045227E-02  0.6907802E+05  0.3341233E+05  0.5301594E-03 -0.5416870E-03
  0.1009524E+01  0.1224302E-02  0.2513885E-02  0.6749816E+05  0.3476305E+05  0.4081007E-03  0.3356934E-03
  0.1040476E+01  0.7317934E-02  0.1972198E-02  0.6594196E+05  0.3602853E+05  0.1451855E-02  0.5416870E-03
  0.1071429E+01  0.2485148E-02  0.6954193E-02  0.6439858E+05  0.3720719E+05  0.1011149E-02  0.3814697E-04
  0.1102381E+01  0.3813379E-02  0.1181793E-01  0.6287988E+05  0.3829270E+05  0.1411850E-02  0.6484985E-03
  0.1133333E+01 -0.3487082E-02  0.8544922E-03  0.6137530E+05  0.3928605E+05  0.1561782E-02 -0.5340576E-04
  0.1164286E+01 -0.6094154E-03  0.1323700E-02  0.5991996E+05  0.4017964E+05  0.8649767E-03  0.5493164E-03
  0.1195238E+01  0.3383074E-02  0.2704620E-02  0.5851232E+05  0.4097187E+05  0.2310704E-02  0.9841919E-03
  0.1226190E+01  0.1916385E-02  0.4173279E-02  0.5715729E+05  0.4166231E+05  0.1767057E-02  0.2975464E-03
  0.1257143E+01  0.4290667E-02 -0.5874634E-03  0.5585294E+05  0.4228454E+05  0.3884055E-03  0.7629395E-04
  0.1288095E+01  0.1362291E-03  0.6523132E-03  0.5457760E+05  0.4275780E+05  0.8884508E-03 -0.7629395E-05
  0.1319048E+01  0.1891374E-02  0.7812500E-02  0.5334667E+05  0.4317189E+05  0.9601468E-03 -0.8392334E-04
  0.1350000E+01 -0.2740931E-02  0.5313873E-02  0.5218045E+05  0.4348870E+05  0.1503273E-02  0.3967285E-03
  0.1380952E+01 -0.5370041E-02 -0.3242493E-03  0.5107987E+05  0.4370162E+05  0.6961165E-03 -0.3814697E-04
  0.1411905E+01 -0.2869321E-02 -0.2357483E-02  0.5002538E+05  0.4387532E+05  0.2053375E-03  0.9994507E-03
  0.1442857E+01 -0.3526895E-02  0.5664825E-02  0.4902995E+05  0.4392348E+05  0.1120992E-02  0.1373291E-03
  0.1473810E+01 -0.2018893E-03  0.3650665E-02  0.4808832E+05  0.4389041E+05  0.6936709E-03 -0.6790161E-03
  0.1504762E+01 -0.1181349E-02  0.9063721E-02  0.4719268E+05  0.4378570E+05  0.4461747E-03  0.3204346E-03
  0.1535714E+01 -0.3527264E-02  0.2609253E-02  0.4635348E+05  0.4360360E+05  0.1321482E-02 -0.2212524E-03
  0.1566667E+01  0.2727103E-02  0.1335144E-03  0.4557402E+05  0.4335365E+05  0.1480427E-02 -0.3204346E-03
  0.1597619E+01  0.5405841E-02 -0.6866455E-04  0.4485491E+05  0.4303147E+05  0.1002850E-02 -0.8163452E-03
  0.1628572E+01  0.1302351E-02 -0.4032135E-02  0.4418446E+05  0.4264913E+05  0.1845778E-02  0.1525879E-04
  0.1659524E+01  0.3907739E-02 -0.1312256E-02  0.4355944E+05  0.4220775E+05  0.9746360E-03  0.9918213E-03
  0.1690476E+01 -0.2834266E-02  0.2670288E-02  0.4298402E+05  0.4171284E+05  0.1245633E-02  0.7705688E-03
  0.1721429E+01 -0.5220912E-02  0.1441956E-02  0.4245293E+05  0.4116944E+05  0.1205508E-02  0.2670288E-03
  0.1752381E+01  0.4353731E-04  0.4093170E-02  0.4195781E+05  0.4058260E+05  0.8359163E-03 -0.3471375E-03
  0.1783333E+01 -0.5493164E-02 -0.1320648E-01  0.4151533E+05  0.3995178E+05  0.1026760E-02 -0.3051758E-03
  0.1814286E+01 -0.2203513E-02 -0.3019333E-02  0.4111978E+05  0.3928771E+05  0.1749354E-02 -0.2098083E-03
  0.1845238E+01  0.1538086E-02 -0.3915787E-02  0.4076730E+05  0.3858509E+05  0.1157699E-02 -0.9193420E-03
  0.1876190E+01 -0.2171473E-02  0.1246643E-01  0.4044926E+05  0.3785443E+05  0.1171132E-02 -0.1125336E-02
  0.1907143E+01 -0.3920423E-03 -0.1516342E-02  0.4016366E+05  0.3709329E+05  0.2080225E-03 -0.9536743E-04
  0.1938095E+01  0.4015274E-03  0.1088333E-01  0.3991581E+05  0.3630908E+05  0.1716333E-02  0.6179810E-03
  0.1969048E+01  0.1472372E-03 -0.1834869E-02  0.3969564E+05  0.3550442E+05  0.1410377E-02 -0.4959106E-03
  0.2000000E+01  0.1731873E-02 -0.1228333E-02  0.3949846E+05  0.3468807E+05  0.1770020E-02 -0.2746582E-03
Zone t="Motion of body    1 in DoF   3",I=    64,F=POINT
  0.5000000E-01  0.6119095E+03  0.6141562E-04 -0.2021790E-02 -0.7071659E-05  0.1498864E+04  0.1775118E-05
  0.8095238E-01  0.6072831E+03  0.2641380E-03  0.7598540E-03 -0.1046207E-05  0.1504638E+04  0.3437353E-05
  0.1119048E+00  0.6158332E+03  0.7483154E-03 -0.2748408E-03 -0.4884501E-05  0.1518197E+04  0.1424145E-04
  0.1428571E+00  0.6057430E+03  0.1689568E-02  0.1739025E-02  0.8843566E-05  0.1514192E+04  0.2826002E-04
  0.1738095E+00  0.6180931E+03  0.3378128E-02  0.2576096E-02  0.1874670E-04  0.1529015E+04  0.5548654E-04
  0.2047619E+00  0.6119479E+03  0.6278856E-02  0.2976129E-02  0.2798690E-04  0.1520951E+04  0.1154655E-03
  0.2357143E+00  0.6251291E+03  0.1116278E-01  0.1066092E-02  0.5992733E-06  0.1518391E+04  0.1964414E-03
  0.2666667E+00  0.6239132E+03  0.1922319E-01  0.1276731E-02  0.9772994E-06  0.1523421E+04  0.3294345E-03
  0.2976190E+00  0.6263695E+03  0.3254893E-01  0.7422867E-02  0.1870643E-03  0.1515660E+04  0.5557097E-03
  0.3285715E+00  0.6402617E+03  0.5451721E-01  0.1587660E-02  0.3468010E-04  0.1521580E+04  0.9141241E-03
  0.3595238E+00  0.6514376E+03  0.9057531E-01 -0.5994885E-03 -0.5017803E-04  0.1521818E+04  0.1558620E-02
  0.3904762E+00  0.6525471E+03  0.1497250E+00 -0.2354412E-02 -0.1418264E-03  0.1523894E+04  0.2640670E-02
  0.4214286E+00  0.6775823E+03  0.2444545E+00 -0.9006564E-03 -0.8417870E-04  0.1524855E+04  0.4410791E-02
  0.4523810E+00  0.6899117E+03  0.3959183E+00 -0.7378427E-03 -0.1700997E-03  0.1524362E+04  0.7191910E-02
  0.4833333E+00  0.6827203E+03  0.6255256E+00  0.2945867E-02  0.2906204E-03  0.1526691E+04  0.1150898E-01
  0.5142857E+00  0.7042003E+03  0.9727998E+00  0.2145502E-02  0.2107844E-03  0.1521696E+04  0.1825893E-01
  0.5452381E+00  0.7253922E+03  0.1479779E+01  0.3744817E-02  0.4034960E-03  0.1530036E+04  0.2819286E-01
  0.5761905E+00  0.7454128E+03  0.2198806E+01  0.3212621E-02  0.4524160E-03  0.1527539E+04  0.4267612E-01
  0.6071429E+00  0.7432692E+03  0.3207340E+01  0.2632590E-02  0.3005778E-03  0.1525067E+04  0.6321481E-01
  0.6380953E+00  0.7587681E+03  0.4580701E+01 -0.1530434E-02 -0.6018318E-03  0.1530588E+04  0.9183043E-01
  0.6690477E+00  0.7906720E+03  0.6432610E+01 -0.2853692E-02 -0.8845152E-03  0.1528978E+04  0.1317413E+00
  0.7000000E+00  0.8203959E+03  0.8909495E+01 -0.3596714E-03 -0.4583616E-03  0.1531245E+04  0.1862227E+00
  0.7309524E+00  0.8319325E+03  0.1216244E+02  0.2418916E-02  0.4272498E-03  0.1534977E+04  0.2582642E+00
  0.7619048E+00  0.8447109E+03  0.1637516E+02  0.1927614E-02  0.2699383E-03  0.1533717E+04  0.3541678E+00
  0.7928572E+00  0.8699018E+03  0.2177809E+02  0.3408827E-02  0.5136542E-03  0.1530462E+04  0.4783688E+00
  0.8238096E+00  0.8996215E+03  0.2867348E+02  0.4929228E-02  0.1774170E-02  0.1535902E+04  0.6440734E+00
  0.8547620E+00  0.9345099E+03  0.3734027E+02  0.1410269E-02  0.2669320E-03  0.1541453E+04  0.8601820E+00
  0.8857143E+00  0.9772465E+03  0.4817136E+02  0.4741915E-02  0.2208993E-02  0.1541517E+04  0.1134685E+01
  0.9166667E+00  0.1003654E+04  0.6163361E+02 -0.2898476E-02 -0.2415121E-02  0.1538182E+04  0.1482080E+01
  0.9476191E+00  0.1023171E+04  0.7827671E+02  0.4079905E-02  0.2154380E-02  0.1542746E+04  0.1915051E+01
  0.9785714E+00  0.1052158E+04  0.9833767E+02 -0.3313496E-03 -0.1147345E-02  0.1546829E+04  0.2455089E+01
  0.1009524E+01  0.1093342E+04  0.1223744E+03  0.5106926E-02  0.3669322E-02  0.1548537E+04  0.3129836E+01
  0.1040476E+01  0.1139615E+04  0.1512018E+03  0.1338199E-03  0.8139014E-04  0.1545245E+04  0.3942218E+01
  0.1071429E+01  0.1183701E+04  0.1856487E+03 -0.7850647E-03 -0.2266407E-02  0.1548133E+04  0.4974974E+01
  0.1102381E+01  0.1227607E+04  0.2264629E+03 -0.1067539E-02 -0.1753539E-02  0.1557682E+04  0.6217799E+01
  0.1133333E+01  0.1269205E+04  0.2742172E+03 -0.2648971E-02 -0.3468335E-02  0.1561402E+04  0.7724155E+01
  0.1164286E+01  0.1301794E+04  0.3299544E+03 -0.2414727E-02 -0.4690588E-02  0.1561973E+04  0.9524584E+01
  0.1195238E+01  0.1337098E+04  0.3942210E+03 -0.1198438E-02 -0.2004743E-02  0.1559106E+04  0.1156517E+02
  0.1226190E+01  0.1368905E+04  0.4673383E+03 -0.1123077E-02 -0.3122032E-02  0.1558140E+04  0.1402874E+02
  0.1257143E+01  0.1402582E+04  0.5507957E+03  0.8117069E-03 -0.1481414E-02  0.1563724E+04  0.1680103E+02
  0.1288095E+01  0.1436704E+04  0.6426215E+03  0.2857850E-02  0.2799511E-02  0.1571956E+04  0.2022197E+02
  0.1319048E+01  0.1465973E+04  0.7457202E+03  0.6333499E-03 -0.1786947E-02  0.1574871E+04  0.2403339E+02
  0.1350000E+01  0.1493795E+04  0.8597272E+03  0.1271566E-02 -0.1102209E-02  0.1577007E+04  0.2849385E+02
  0.1380952E+01  0.1521895E+04  0.9841247E+03 -0.1643608E-02 -0.3040910E-02  0.1576253E+04  0.3302464E+02
  0.1411905E+01  0.1429308E+04  0.1067566E+04  0.1718351E-02  0.9620190E-04  0.1565450E+04  0.3655662E+02
  0.1442857E+01  0.1440816E+04  0.1207053E+04  0.1797818E-03 -0.4993439E-02  0.1569232E+04  0.4217384E+02
  0.1473810E+01  0.1442481E+04  0.1354898E+04  0.3426941E-02  0.6518841E-02  0.1576462E+04  0.4913113E+02
  0.1504762E+01  0.1438455E+04  0.1511127E+04  0.1343594E-02  0.2696753E-02  0.1579413E+04  0.5628947E+02
  0.1535714E+01  0.1429528E+04  0.1673011E+04  0.4222781E-04 -0.2704144E-02  0.1582317E+04  0.6386939E+02
  0.1566667E+01  0.1417135E+04  0.1840158E+04  0.1095711E-02 -0.3152370E-02  0.1579215E+04  0.7161329E+02
  0.1597619E+01  0.1398824E+04  0.2010993E+04  0.2103598E-02  0.1769543E-02  0.1575202E+04  0.7862138E+02
  0.1628572E+01  0.1370926E+04  0.2185874E+04  0.2023797E-02 -0.5173683E-04  0.1574108E+04  0.8697843E+02
  0.1659524E+01  0.1338843E+04  0.2365242E+04  0.4689286E-03  0.1590252E-02  0.1576302E+04  0.9702105E+02
  0.1690476E+01  0.1298366E+04  0.2545615E+04  0.1532219E-02  0.4166365E-02  0.1583246E+04  0.1079428E+03
  0.1721429E+01  0.1253783E+04  0.2722607E+04  0.1580013E-02 -0.3636599E-02  0.1589297E+04  0.1202057E+03
  0.1752381E+01  0.1208555E+04  0.2894512E+04  0.2179042E-02  0.3083229E-02  0.1591587E+04  0.1311139E+03
  0.1783333E+01  0.1157824E+04  0.3062938E+04  0.1488802E-02 -0.1743317E-02  0.1592252E+04  0.1418391E+03
  0.1814286E+01  0.1101529E+04  0.3229939E+04  0.2737571E-02 -0.3104687E-02  0.1584753E+04  0.1503084E+03
  0.1845238E+01  0.1041639E+04  0.3390563E+04  0.1711741E-02 -0.1714706E-02  0.1577892E+04  0.1585479E+03
  0.1876190E+01  0.9746890E+03  0.3548233E+04  0.7258575E-03 -0.1654625E-03  0.1573511E+04  0.1678550E+03
  0.1907143E+01  0.9107095E+03  0.3702136E+04  0.1232133E-02  0.3603935E-02  0.1572475E+04  0.1795297E+03
  0.1938095E+01  0.8437029E+03  0.3853420E+04  0.1907255E-02 -0.2522469E-02  0.1575447E+04  0.1935905E+03
  0.1969048E+01  0.7751200E+03  0.3989629E+04  0.1859838E-02 -0.1877785E-02  0.1581380E+04  0.2110703E+03
  0.2000000E+01  0.7047402E+03  0.4120689E+04  0.1380920E-02 -0.2833843E-02  0.1581643E+04  0.2262631E+03
