VARIABLES="w (rad/s)"
"abs(F   1   1)" "angle(F   1   1)"
"abs(F   1   2)" "angle(F   1   2)"
"abs(F   1   3)" "angle(F   1   3)"
Zone t="Diffraction force - beta =   0.000 deg",I=    64,F=POINT
  0.5000000E-01  0.2323874E+04 -0.1570794E+01  0.3738027E+03 -0.3068943E+01  0.2984091E+04  0.1570799E+01
  0.8095238E-01  0.3801207E+04 -0.1570789E+01  0.9632193E+03 -0.3065943E+01  0.4873029E+04  0.1570802E+01
  0.1119048E+00  0.5299847E+04 -0.1570781E+01  0.1825138E+04 -0.3062621E+01  0.6783513E+04  0.1570809E+01
  0.1428571E+00  0.6853431E+04 -0.1570769E+01  0.2959430E+04 -0.3058507E+01  0.8740156E+04  0.1570818E+01
  0.1738095E+00  0.8454019E+04 -0.1570751E+01  0.4375208E+04 -0.3053496E+01  0.1076258E+05  0.1570832E+01
  0.2047619E+00  0.1015165E+05 -0.1570726E+01  0.6079013E+04 -0.3047282E+01  0.1286392E+05  0.1570851E+01
  0.2357143E+00  0.1192200E+05 -0.1570689E+01  0.8086222E+04 -0.3039579E+01  0.1507387E+05  0.1570880E+01
  0.2666667E+00  0.1383175E+05 -0.1570636E+01  0.1040074E+05 -0.3030253E+01  0.1740978E+05  0.1570922E+01
  0.2976190E+00  0.1589950E+05 -0.1570556E+01  0.1303692E+05 -0.3018571E+01  0.1988738E+05  0.1570984E+01
  0.3285715E+00  0.1812886E+05 -0.1570439E+01  0.1602498E+05 -0.3004891E+01  0.2256651E+05  0.1571075E+01
  0.3595238E+00  0.2057151E+05 -0.1570264E+01  0.1933068E+05 -0.2988152E+01  0.2543368E+05  0.1571210E+01
  0.3904762E+00  0.2328602E+05 -0.1570003E+01  0.2298567E+05 -0.2968525E+01  0.2854711E+05  0.1571411E+01
  0.4214286E+00  0.2622612E+05 -0.1569624E+01  0.2692319E+05 -0.2946599E+01  0.3196678E+05  0.1571701E+01
  0.4523810E+00  0.2943281E+05 -0.1569070E+01  0.3119936E+05 -0.2921553E+01  0.3559312E+05  0.1572125E+01
  0.4833333E+00  0.3295556E+05 -0.1568308E+01  0.3565904E+05 -0.2896016E+01  0.3946993E+05  0.1572705E+01
  0.5142857E+00  0.3676692E+05 -0.1567258E+01  0.4032850E+05 -0.2868378E+01  0.4359376E+05  0.1573502E+01
  0.5452381E+00  0.4076672E+05 -0.1565867E+01  0.4521955E+05 -0.2841308E+01  0.4796579E+05  0.1574547E+01
  0.5761905E+00  0.4493229E+05 -0.1564070E+01  0.5024486E+05 -0.2814730E+01  0.5238071E+05  0.1575887E+01
  0.6071429E+00  0.4937601E+05 -0.1561780E+01  0.5537352E+05 -0.2787341E+01  0.5680236E+05  0.1577597E+01
  0.6380953E+00  0.5399204E+05 -0.1558957E+01  0.6062799E+05 -0.2761637E+01  0.6137104E+05  0.1579687E+01
  0.6690477E+00  0.5869010E+05 -0.1555482E+01  0.6598543E+05 -0.2736508E+01  0.6599027E+05  0.1582227E+01
  0.7000000E+00  0.6341516E+05 -0.1551244E+01  0.7142764E+05 -0.2711525E+01  0.7047955E+05  0.1585297E+01
  0.7309524E+00  0.6827118E+05 -0.1546212E+01  0.7694456E+05 -0.2687661E+01  0.7491875E+05  0.1588912E+01
  0.7619048E+00  0.7321935E+05 -0.1540277E+01  0.8245523E+05 -0.2664038E+01  0.7916711E+05  0.1593149E+01
  0.7928572E+00  0.7823678E+05 -0.1533350E+01  0.8794583E+05 -0.2640660E+01  0.8329588E+05  0.1598047E+01
  0.8238096E+00  0.8327108E+05 -0.1525346E+01  0.9344907E+05 -0.2618140E+01  0.8729633E+05  0.1603628E+01
  0.8547620E+00  0.8811288E+05 -0.1516115E+01  0.9894980E+05 -0.2596519E+01  0.9114626E+05  0.1609913E+01
  0.8857143E+00  0.9286268E+05 -0.1505640E+01  0.1044226E+06 -0.2575768E+01  0.9471159E+05  0.1616927E+01
  0.9166667E+00  0.9750802E+05 -0.1493902E+01  0.1098209E+06 -0.2555547E+01  0.9782280E+05  0.1624695E+01
  0.9476191E+00  0.1020965E+06 -0.1480931E+01  0.1151013E+06 -0.2535740E+01  0.1005944E+06  0.1633161E+01
  0.9785714E+00  0.1064268E+06 -0.1466599E+01  0.1202409E+06 -0.2516267E+01  0.1031229E+06  0.1642263E+01
  0.1009524E+01  0.1104309E+06 -0.1450893E+01  0.1252478E+06 -0.2497422E+01  0.1051948E+06  0.1651953E+01
  0.1040476E+01  0.1140889E+06 -0.1433851E+01  0.1301361E+06 -0.2479620E+01  0.1069186E+06  0.1662069E+01
  0.1071429E+01  0.1172582E+06 -0.1415439E+01  0.1348911E+06 -0.2462802E+01  0.1081179E+06  0.1672503E+01
  0.1102381E+01  0.1199179E+06 -0.1395798E+01  0.1394947E+06 -0.2446850E+01  0.1089069E+06  0.1683040E+01
  0.1133333E+01  0.1219626E+06 -0.1374980E+01  0.1439134E+06 -0.2431386E+01  0.1091204E+06  0.1693592E+01
  0.1164286E+01  0.1233958E+06 -0.1353201E+01  0.1481446E+06 -0.2416526E+01  0.1087658E+06  0.1703923E+01
  0.1195238E+01  0.1242339E+06 -0.1330695E+01  0.1521667E+06 -0.2402316E+01  0.1080289E+06  0.1713693E+01
  0.1226190E+01  0.1243060E+06 -0.1307469E+01  0.1559686E+06 -0.2388680E+01  0.1067270E+06  0.1722671E+01
  0.1257143E+01  0.1236327E+06 -0.1283620E+01  0.1595828E+06 -0.2375595E+01  0.1050326E+06  0.1730549E+01
  0.1288095E+01  0.1221628E+06 -0.1260015E+01  0.1628748E+06 -0.2363572E+01  0.1029988E+06  0.1736753E+01
  0.1319048E+01  0.1198111E+06 -0.1236127E+01  0.1659658E+06 -0.2351868E+01  0.1004483E+06  0.1741342E+01
  0.1350000E+01  0.1166708E+06 -0.1212622E+01  0.1688220E+06 -0.2340935E+01  0.9765527E+05  0.1743891E+01
  0.1380952E+01  0.1127365E+06 -0.1189807E+01  0.1714047E+06 -0.2330835E+01  0.9462462E+05  0.1744000E+01
  0.1411905E+01  0.1071644E+06 -0.1169662E+01  0.1725159E+06 -0.2318185E+01  0.9147143E+05  0.1739743E+01
  0.1442857E+01  0.1017218E+06 -0.1148992E+01  0.1745472E+06 -0.2308970E+01  0.8809853E+05  0.1734526E+01
  0.1473810E+01  0.9557011E+05 -0.1130058E+01  0.1763028E+06 -0.2300389E+01  0.8475364E+05  0.1726471E+01
  0.1504762E+01  0.8872227E+05 -0.1113175E+01  0.1777934E+06 -0.2292221E+01  0.8143830E+05  0.1715634E+01
  0.1535714E+01  0.8122216E+05 -0.1098989E+01  0.1789934E+06 -0.2284333E+01  0.7812212E+05  0.1701884E+01
  0.1566667E+01  0.7322723E+05 -0.1088804E+01  0.1799210E+06 -0.2277266E+01  0.7506661E+05  0.1686011E+01
  0.1597619E+01  0.6474662E+05 -0.1083946E+01  0.1805394E+06 -0.2270769E+01  0.7214748E+05  0.1668019E+01
  0.1628572E+01  0.5584648E+05 -0.1086611E+01  0.1808441E+06 -0.2264894E+01  0.6942088E+05  0.1648683E+01
  0.1659524E+01  0.4664400E+05 -0.1101303E+01  0.1808288E+06 -0.2259835E+01  0.6695645E+05  0.1628867E+01
  0.1690476E+01  0.3724105E+05 -0.1136699E+01  0.1805033E+06 -0.2255444E+01  0.6473634E+05  0.1609235E+01
  0.1721429E+01  0.2780117E+05 -0.1212379E+01  0.1799160E+06 -0.2251412E+01  0.6282457E+05  0.1591434E+01
  0.1752381E+01  0.1867932E+05 -0.1387381E+01  0.1790168E+06 -0.2247737E+01  0.6109219E+05  0.1575447E+01
  0.1783333E+01  0.1133872E+05 -0.1865485E+01  0.1778262E+06 -0.2244619E+01  0.5962389E+05  0.1563031E+01
  0.1814286E+01  0.1088621E+05 -0.2811149E+01  0.1763635E+06 -0.2242098E+01  0.5834900E+05  0.1554570E+01
  0.1845238E+01  0.1790778E+05  0.2939406E+01  0.1745625E+06 -0.2240158E+01  0.5722345E+05  0.1550712E+01
  0.1876190E+01  0.2708133E+05  0.2742781E+01  0.1724322E+06 -0.2238876E+01  0.5629172E+05  0.1552475E+01
  0.1907143E+01  0.3676330E+05  0.2654267E+01  0.1699672E+06 -0.2238502E+01  0.5550193E+05  0.1559867E+01
  0.1938095E+01  0.4656120E+05  0.2608340E+01  0.1672010E+06 -0.2238884E+01  0.5474323E+05  0.1572803E+01
  0.1969048E+01  0.5627967E+05  0.2582514E+01  0.1641903E+06 -0.2239762E+01  0.5409321E+05  0.1591874E+01
  0.2000000E+01  0.6582873E+05  0.2567297E+01  0.1608986E+06 -0.2241309E+01  0.5359184E+05  0.1617527E+01
