VARIABLES="w (rad/s)"
"abs(F   1   1)" "angle(F   1   1)"
"abs(F   1   2)" "angle(F   1   2)"
"abs(F   1   3)" "angle(F   1   3)"
Zone t="Diffraction force - beta =   0.000 deg",I=    64,F=POINT
  0.5000000E-01  0.2620254E+04 -0.1570794E+01  0.3908254E+03 -0.3079091E+01  0.2534031E+04  0.1570798E+01
  0.8095238E-01  0.4280365E+04 -0.1570789E+01  0.1009289E+04 -0.3076659E+01  0.4138185E+04  0.1570799E+01
  0.1119048E+00  0.5962849E+04 -0.1570781E+01  0.1913644E+04 -0.3073860E+01  0.5771895E+04  0.1570803E+01
  0.1428571E+00  0.7702279E+04 -0.1570770E+01  0.3105819E+04 -0.3070411E+01  0.7436191E+04  0.1570808E+01
  0.1738095E+00  0.9502658E+04 -0.1570754E+01  0.4590428E+04 -0.3066116E+01  0.9151726E+04  0.1570815E+01
  0.2047619E+00  0.1139744E+05 -0.1570730E+01  0.6377629E+04 -0.3060810E+01  0.1093087E+05  0.1570825E+01
  0.2357143E+00  0.1338304E+05 -0.1570695E+01  0.8475060E+04 -0.3054155E+01  0.1282428E+05  0.1570840E+01
  0.2666667E+00  0.1552262E+05 -0.1570644E+01  0.1089044E+05 -0.3046108E+01  0.1477549E+05  0.1570861E+01
  0.2976190E+00  0.1782144E+05 -0.1570569E+01  0.1363652E+05 -0.3036028E+01  0.1688521E+05  0.1570892E+01
  0.3285715E+00  0.2029341E+05 -0.1570458E+01  0.1672981E+05 -0.3024121E+01  0.1917810E+05  0.1570938E+01
  0.3595238E+00  0.2301452E+05 -0.1570291E+01  0.2014367E+05 -0.3009572E+01  0.2160601E+05  0.1571005E+01
  0.3904762E+00  0.2601201E+05 -0.1570045E+01  0.2391772E+05 -0.2992577E+01  0.2420610E+05  0.1571104E+01
  0.4214286E+00  0.2926591E+05 -0.1569684E+01  0.2797666E+05 -0.2973604E+01  0.2710092E+05  0.1571244E+01
  0.4523810E+00  0.3281516E+05 -0.1569159E+01  0.3235370E+05 -0.2951779E+01  0.3019141E+05  0.1571445E+01
  0.4833333E+00  0.3670119E+05 -0.1568436E+01  0.3693046E+05 -0.2929738E+01  0.3340975E+05  0.1571715E+01
  0.5142857E+00  0.4085273E+05 -0.1567439E+01  0.4172614E+05 -0.2905957E+01  0.3685689E+05  0.1572079E+01
  0.5452381E+00  0.4520928E+05 -0.1566116E+01  0.4673881E+05 -0.2882686E+01  0.4050467E+05  0.1572546E+01
  0.5761905E+00  0.4976480E+05 -0.1564412E+01  0.5186829E+05 -0.2859835E+01  0.4423819E+05  0.1573128E+01
  0.6071429E+00  0.5455958E+05 -0.1562237E+01  0.5710274E+05 -0.2836384E+01  0.4789891E+05  0.1573846E+01
  0.6380953E+00  0.5950770E+05 -0.1559556E+01  0.6249732E+05 -0.2814786E+01  0.5161295E+05  0.1574690E+01
  0.6690477E+00  0.6449805E+05 -0.1556256E+01  0.6797969E+05 -0.2793689E+01  0.5543962E+05  0.1575681E+01
  0.7000000E+00  0.6953515E+05 -0.1552245E+01  0.7352427E+05 -0.2772734E+01  0.5921523E+05  0.1576823E+01
  0.7309524E+00  0.7465058E+05 -0.1547484E+01  0.7912470E+05 -0.2752820E+01  0.6282303E+05  0.1578092E+01
  0.7619048E+00  0.7980360E+05 -0.1541877E+01  0.8471623E+05 -0.2733351E+01  0.6626231E+05  0.1579475E+01
  0.7928572E+00  0.8496394E+05 -0.1535344E+01  0.9030908E+05 -0.2714501E+01  0.6959555E+05  0.1580952E+01
  0.8238096E+00  0.9000400E+05 -0.1527788E+01  0.9589800E+05 -0.2696492E+01  0.7285386E+05  0.1582489E+01
  0.8547620E+00  0.9488897E+05 -0.1519152E+01  0.1014800E+06 -0.2679552E+01  0.7601469E+05  0.1584035E+01
  0.8857143E+00  0.9956780E+05 -0.1509383E+01  0.1069819E+06 -0.2663264E+01  0.7897118E+05  0.1585527E+01
  0.9166667E+00  0.1040768E+06 -0.1498498E+01  0.1123847E+06 -0.2647654E+01  0.8165038E+05  0.1586875E+01
  0.9476191E+00  0.1083151E+06 -0.1486472E+01  0.1176442E+06 -0.2632618E+01  0.8400113E+05  0.1587967E+01
  0.9785714E+00  0.1122335E+06 -0.1473321E+01  0.1227886E+06 -0.2618592E+01  0.8609158E+05  0.1588689E+01
  0.1009524E+01  0.1157019E+06 -0.1459019E+01  0.1277871E+06 -0.2605408E+01  0.8806627E+05  0.1588960E+01
  0.1040476E+01  0.1186658E+06 -0.1443626E+01  0.1326490E+06 -0.2593386E+01  0.8988811E+05  0.1588647E+01
  0.1071429E+01  0.1210219E+06 -0.1427210E+01  0.1373559E+06 -0.2582477E+01  0.9148736E+05  0.1587604E+01
  0.1102381E+01  0.1227422E+06 -0.1409940E+01  0.1418950E+06 -0.2572650E+01  0.9291495E+05  0.1585769E+01
  0.1133333E+01  0.1237523E+06 -0.1391997E+01  0.1462212E+06 -0.2563580E+01  0.9409942E+05  0.1583009E+01
  0.1164286E+01  0.1240051E+06 -0.1373568E+01  0.1503346E+06 -0.2555380E+01  0.9513121E+05  0.1579339E+01
  0.1195238E+01  0.1234631E+06 -0.1354909E+01  0.1542205E+06 -0.2548164E+01  0.9602596E+05  0.1574745E+01
  0.1226190E+01  0.1220838E+06 -0.1336312E+01  0.1579151E+06 -0.2542327E+01  0.9680830E+05  0.1569264E+01
  0.1257143E+01  0.1198171E+06 -0.1317825E+01  0.1614112E+06 -0.2537010E+01  0.9758783E+05  0.1563129E+01
  0.1288095E+01  0.1166493E+06 -0.1300466E+01  0.1646645E+06 -0.2533578E+01  0.9833330E+05  0.1556512E+01
  0.1319048E+01  0.1126081E+06 -0.1284063E+01  0.1677176E+06 -0.2530790E+01  0.9918751E+05  0.1549869E+01
  0.1350000E+01  0.1076493E+06 -0.1269237E+01  0.1705478E+06 -0.2529000E+01  0.1000812E+06  0.1543392E+01
  0.1380952E+01  0.1018746E+06 -0.1256747E+01  0.1731816E+06 -0.2528522E+01  0.1011415E+06  0.1537746E+01
  0.1411905E+01  0.9536005E+05 -0.1247075E+01  0.1752110E+06 -0.2530465E+01  0.1022541E+06  0.1533097E+01
  0.1442857E+01  0.8807438E+05 -0.1241373E+01  0.1774998E+06 -0.2531990E+01  0.1035316E+06  0.1529983E+01
  0.1473810E+01  0.8012027E+05 -0.1241236E+01  0.1796561E+06 -0.2534701E+01  0.1050003E+06  0.1528958E+01
  0.1504762E+01  0.7155217E+05 -0.1248879E+01  0.1816779E+06 -0.2538368E+01  0.1065759E+06  0.1530125E+01
  0.1535714E+01  0.6251938E+05 -0.1267745E+01  0.1836139E+06 -0.2542869E+01  0.1084049E+06  0.1534166E+01
  0.1566667E+01  0.5308730E+05 -0.1303926E+01  0.1854188E+06 -0.2547794E+01  0.1103217E+06  0.1540864E+01
  0.1597619E+01  0.4351971E+05 -0.1369272E+01  0.1872000E+06 -0.2553182E+01  0.1124205E+06  0.1550647E+01
  0.1628572E+01  0.3409702E+05 -0.1487664E+01  0.1889297E+06 -0.2558734E+01  0.1146120E+06  0.1563342E+01
  0.1659524E+01  0.2555453E+05 -0.1710523E+01  0.1905344E+06 -0.2563845E+01  0.1169770E+06  0.1579083E+01
  0.1690476E+01  0.1966124E+05 -0.2128846E+01  0.1920732E+06 -0.2568696E+01  0.1194798E+06  0.1597737E+01
  0.1721429E+01  0.1944609E+05 -0.2710710E+01  0.1934881E+06 -0.2572908E+01  0.1220662E+06  0.1619067E+01
  0.1752381E+01  0.2525654E+05  0.3130262E+01  0.1946918E+06 -0.2575571E+01  0.1247392E+06  0.1642923E+01
  0.1783333E+01  0.3417425E+05  0.2889315E+01  0.1955794E+06 -0.2576825E+01  0.1275469E+06  0.1669086E+01
  0.1814286E+01  0.4433066E+05  0.2758262E+01  0.1960386E+06 -0.2576444E+01  0.1304637E+06  0.1697307E+01
  0.1845238E+01  0.5498740E+05  0.2681419E+01  0.1960635E+06 -0.2574782E+01  0.1334390E+06  0.1727145E+01
  0.1876190E+01  0.6582212E+05  0.2632961E+01  0.1954942E+06 -0.2571785E+01  0.1364736E+06  0.1758315E+01
  0.1907143E+01  0.7658051E+05  0.2601151E+01  0.1940764E+06 -0.2567303E+01  0.1396949E+06  0.1790758E+01
  0.1938095E+01  0.8721041E+05  0.2579069E+01  0.1918982E+06 -0.2562288E+01  0.1429299E+06  0.1823688E+01
  0.1969048E+01  0.9760697E+05  0.2563542E+01  0.1889226E+06 -0.2556881E+01  0.1462649E+06  0.1857562E+01
  0.2000000E+01  0.1077491E+06  0.2552113E+01  0.1851318E+06 -0.2551699E+01  0.1495247E+06  0.1891654E+01
