VARIABLES="w (rad/s)"
"A   1   1" "B   1   1"
"A   1   2" "B   1   2"
"A   1   3" "B   1   3"
Zone t="Motion of body    1 in DoF   1",I=    64,F=POINT
  0.5000000E-01  0.4140515E+05  0.1482053E-02 -0.2784729E-02  0.8345050E-06 -0.4002066E+05 -0.1202986E-02
  0.8095238E-01  0.4149310E+05  0.6457219E-02 -0.3416398E-02 -0.9268162E-05 -0.4010940E+05 -0.5226349E-02
  0.1119048E+00  0.4148487E+05  0.1813648E-01 -0.1704439E-04  0.3239664E-05 -0.4007677E+05 -0.1463255E-01
  0.1428571E+00  0.4163919E+05  0.4093845E-01 -0.1268387E-02  0.1357181E-04 -0.4020306E+05 -0.3301059E-01
  0.1738095E+00  0.4171891E+05  0.8168393E-01 -0.2403259E-02 -0.1810159E-04 -0.4029362E+05 -0.6598062E-01
  0.2047619E+00  0.4183457E+05  0.1512067E+00 -0.4843778E-03  0.9624753E-05 -0.4035000E+05 -0.1221509E+00
  0.2357143E+00  0.4189925E+05  0.2667558E+00 -0.2014854E-02  0.3944850E-05 -0.4043104E+05 -0.2156560E+00
  0.2666667E+00  0.4198378E+05  0.4564762E+00  0.8869171E-03  0.7027783E-04 -0.4050991E+05 -0.3692435E+00
  0.2976190E+00  0.4213897E+05  0.7684315E+00 -0.9100342E-03 -0.2408866E-05 -0.4061631E+05 -0.6216848E+00
  0.3285715E+00  0.4223769E+05  0.1276073E+01 -0.7082067E-03  0.4358683E-04 -0.4070536E+05 -0.1033178E+01
  0.3595238E+00  0.4228450E+05  0.2102026E+01 -0.2875423E-02 -0.1117028E-03 -0.4076629E+05 -0.1703254E+01
  0.3904762E+00  0.4250507E+05  0.3444489E+01 -0.5763914E-03  0.9236671E-04 -0.4089082E+05 -0.2790871E+01
  0.4214286E+00  0.4270923E+05  0.5572555E+01 -0.9594932E-03  0.1165457E-03 -0.4107264E+05 -0.4519868E+01
  0.4523810E+00  0.4282721E+05  0.8928187E+01  0.2546611E-02  0.2155378E-03 -0.4115056E+05 -0.7245232E+01
  0.4833333E+00  0.4302536E+05  0.1396833E+02  0.9628822E-03  0.3102422E-03 -0.4137795E+05 -0.1135481E+02
  0.5142857E+00  0.4328667E+05  0.2151522E+02 -0.2625783E-02 -0.2149940E-03 -0.4156982E+05 -0.1749986E+02
  0.5452381E+00  0.4359595E+05  0.3237732E+02 -0.1679133E-03  0.1090467E-03 -0.4179730E+05 -0.2634998E+02
  0.5761905E+00  0.4376046E+05  0.4751255E+02 -0.3217587E-02 -0.3738999E-03 -0.4194946E+05 -0.3871296E+02
  0.6071429E+00  0.4396304E+05  0.6848150E+02 -0.3794950E-02 -0.4919469E-03 -0.4212184E+05 -0.5585854E+02
  0.6380953E+00  0.4439563E+05  0.9679211E+02 -0.1004347E-02 -0.1400113E-03 -0.4248527E+05 -0.7903578E+02
  0.6690477E+00  0.4472703E+05  0.1343671E+03 -0.2725404E-02  0.8165836E-04 -0.4273890E+05 -0.1098090E+03
  0.7000000E+00  0.4502388E+05  0.1837001E+03 -0.2179827E-02  0.5173683E-04 -0.4297076E+05 -0.1502644E+03
  0.7309524E+00  0.4543280E+05  0.2475851E+03  0.4175043E-03  0.2034903E-03 -0.4333205E+05 -0.2028038E+03
  0.7619048E+00  0.4575917E+05  0.3290951E+03 -0.3745079E-02 -0.1049995E-02 -0.4361968E+05 -0.2699306E+03
  0.7928572E+00  0.4622259E+05  0.4329158E+03  0.1578116E-02  0.1242638E-02 -0.4401618E+05 -0.3555489E+03
  0.8238096E+00  0.4674203E+05  0.5635592E+03 -0.2055967E-02  0.8082390E-04 -0.4436832E+05 -0.4629122E+03
  0.8547620E+00  0.4729570E+05  0.7263112E+03 -0.4837758E-02 -0.1908302E-02 -0.4487065E+05 -0.5976188E+03
  0.8857143E+00  0.4776799E+05  0.9263281E+03 -0.4927112E-02 -0.1478195E-02 -0.4525775E+05 -0.7630461E+03
  0.9166667E+00  0.4826959E+05  0.1171097E+04 -0.3562234E-02 -0.9770393E-03 -0.4570339E+05 -0.9661957E+03
  0.9476191E+00  0.4881577E+05  0.1468488E+04 -0.5217126E-02 -0.2679825E-03 -0.4610652E+05 -0.1212144E+04
  0.9785714E+00  0.4949875E+05  0.1829358E+04  0.9355754E-03  0.1708031E-02 -0.4673795E+05 -0.1512906E+04
  0.1009524E+01  0.5018574E+05  0.2262200E+04 -0.2599752E-02 -0.6990433E-03 -0.4728583E+05 -0.1872308E+04
  0.1040476E+01  0.5086433E+05  0.2777817E+04 -0.9532378E-03  0.8068085E-03 -0.4784512E+05 -0.2301635E+04
  0.1071429E+01  0.5155793E+05  0.3388342E+04 -0.2691651E-02 -0.1466751E-02 -0.4840366E+05 -0.2810035E+04
  0.1102381E+01  0.5228183E+05  0.4107361E+04 -0.4401650E-02 -0.4304886E-02 -0.4896380E+05 -0.3408182E+04
  0.1133333E+01  0.5304396E+05  0.4950214E+04 -0.1171337E-02  0.2351761E-02 -0.4966379E+05 -0.4115282E+04
  0.1164286E+01  0.5373357E+05  0.5925562E+04 -0.7470254E-03 -0.1277924E-02 -0.5024414E+05 -0.4931620E+04
  0.1195238E+01  0.5440723E+05  0.7051458E+04 -0.1646855E-02 -0.4386902E-03 -0.5081977E+05 -0.5875653E+04
  0.1226190E+01  0.5511623E+05  0.8346742E+04 -0.1567952E-02 -0.1510620E-02 -0.5143591E+05 -0.6963864E+04
  0.1257143E+01  0.5580543E+05  0.9821977E+04  0.2791665E-03 -0.6217957E-03 -0.5192773E+05 -0.8192444E+04
  0.1288095E+01  0.5667836E+05  0.1152824E+05 -0.2724582E-03  0.3776550E-02 -0.5266196E+05 -0.9624832E+04
  0.1319048E+01  0.5736418E+05  0.1343745E+05 -0.7981944E-03  0.3433228E-02 -0.5325922E+05 -0.1123220E+05
  0.1350000E+01  0.5793946E+05  0.1557011E+05 -0.1831055E-02  0.2632141E-02 -0.5371811E+05 -0.1302279E+05
  0.1380952E+01  0.5843080E+05  0.1794323E+05 -0.4198798E-03  0.1754761E-03 -0.5413134E+05 -0.1502094E+05
  0.1411905E+01  0.5868848E+05  0.2053778E+05  0.7781210E-03  0.1571655E-02 -0.5441281E+05 -0.1722235E+05
  0.1442857E+01  0.5894998E+05  0.2338831E+05 -0.6979763E-03  0.4028320E-02 -0.5457981E+05 -0.1961495E+05
  0.1473810E+01  0.5912128E+05  0.2648631E+05 -0.3437295E-02 -0.2258301E-02 -0.5469695E+05 -0.2222122E+05
  0.1504762E+01  0.5917491E+05  0.2982909E+05 -0.1825260E-02 -0.3540039E-02 -0.5480045E+05 -0.2505989E+05
  0.1535714E+01  0.5900946E+05  0.3336066E+05 -0.2364757E-02 -0.3173828E-02 -0.5467082E+05 -0.2804512E+05
  0.1566667E+01  0.5869651E+05  0.3708434E+05 -0.3272523E-02 -0.5172729E-02 -0.5435599E+05 -0.3116886E+05
  0.1597619E+01  0.5821668E+05  0.4098477E+05 -0.2540554E-02 -0.6561279E-03 -0.5393057E+05 -0.3445304E+05
  0.1628572E+01  0.5753852E+05  0.4501455E+05 -0.2342358E-02  0.2655029E-02 -0.5335591E+05 -0.3786301E+05
  0.1659524E+01  0.5665319E+05  0.4910496E+05 -0.1011415E-02  0.4882812E-03 -0.5253546E+05 -0.4127888E+05
  0.1690476E+01  0.5559900E+05  0.5323536E+05 -0.1308817E-02  0.3829956E-02 -0.5157286E+05 -0.4472163E+05
  0.1721429E+01  0.5439896E+05  0.5739102E+05 -0.2295783E-02  0.4730225E-03 -0.5057757E+05 -0.4824007E+05
  0.1752381E+01  0.5296023E+05  0.6142969E+05 -0.2046254E-02  0.1678467E-02 -0.4936846E+05 -0.5165303E+05
  0.1783333E+01  0.5135999E+05  0.6532160E+05 -0.1677041E-02  0.2380371E-02 -0.4799595E+05 -0.5491669E+05
  0.1814286E+01  0.4960854E+05  0.6901720E+05 -0.1959613E-02 -0.4516602E-02 -0.4645243E+05 -0.5796897E+05
  0.1845238E+01  0.4775308E+05  0.7251694E+05 -0.1372700E-02 -0.7629395E-03 -0.4485370E+05 -0.6088162E+05
  0.1876190E+01  0.4580955E+05  0.7577439E+05  0.3659786E-03  0.1220703E-03 -0.4319894E+05 -0.6361254E+05
  0.1907143E+01  0.4379482E+05  0.7872557E+05 -0.1448156E-02 -0.3936768E-02 -0.4143635E+05 -0.6600945E+05
  0.1938095E+01  0.4175986E+05  0.8138270E+05 -0.8581663E-03  0.1251221E-02 -0.3964171E+05 -0.6811688E+05
  0.1969048E+01  0.3973010E+05  0.8377845E+05 -0.1294137E-02 -0.1525879E-03 -0.3791028E+05 -0.7007641E+05
  0.2000000E+01  0.3773130E+05  0.8590543E+05 -0.9498596E-03 -0.2838135E-02 -0.3623823E+05 -0.7184762E+05
Zone t="Motion of body    1 in DoF   2",I=    64,F=POINT
  0.5000000E-01  0.8964539E-03  0.2563000E-05  0.4098271E+05  0.5871315E+02  0.1525879E-02 -0.2980232E-05
  0.8095238E-01  0.3345714E-02 -0.2503395E-05  0.4107151E+05  0.9737465E+02  0.1507927E-02  0.1430511E-05
  0.1119048E+00  0.2215771E-03 -0.2789497E-04  0.4095693E+05  0.1394883E+03 -0.4772430E-03  0.1215935E-04
  0.1428571E+00  0.2990722E-02 -0.1573563E-04  0.4087231E+05  0.1867048E+03  0.2403259E-02  0.1478195E-04
  0.1738095E+00  0.3314083E-02 -0.1573563E-04  0.4080493E+05  0.2410269E+03 -0.2633709E-03  0.4100800E-04
  0.2047619E+00  0.2161070E-02 -0.4768372E-06  0.4084133E+05  0.3050295E+03  0.1788472E-02  0.4768372E-05
  0.2357143E+00  0.3188162E-02  0.6866455E-04  0.4092862E+05  0.3823024E+03  0.1618356E-02 -0.4482269E-04
  0.2666667E+00  0.2946853E-02  0.4196167E-04  0.4097582E+05  0.4759360E+03  0.1144409E-03 -0.3337860E-04
  0.2976190E+00  0.2076416E-02 -0.1401901E-03  0.4113209E+05  0.5926971E+03 -0.3229981E-02  0.8392334E-04
  0.3285715E+00  0.4272460E-02  0.4386902E-04  0.4120078E+05  0.7364219E+03  0.3065026E-02 -0.3814697E-04
  0.3595238E+00  0.1082262E-02  0.3433228E-04  0.4134762E+05  0.9152125E+03  0.1443016E-02  0.7629395E-04
  0.3904762E+00 -0.1953869E-03  0.5912781E-04  0.4143133E+05  0.1135498E+04 -0.1094167E-02 -0.6675720E-04
  0.4214286E+00  0.2932791E-02 -0.1525879E-04  0.4148455E+05  0.1395626E+04  0.3620729E-03 -0.7247925E-04
  0.4523810E+00  0.1821417E-02 -0.2670288E-04  0.4153596E+05  0.1708898E+04  0.8769787E-03 -0.2517700E-03
  0.4833333E+00  0.2715012E-02  0.1220703E-03  0.4144882E+05  0.2050378E+04 -0.4419787E-03 -0.3280640E-03
  0.5142857E+00  0.5103217E-02  0.9155273E-04  0.4144688E+05  0.2435477E+04 -0.2966987E-02 -0.3662109E-03
  0.5452381E+00  0.2518700E-02  0.2441406E-03  0.4119438E+05  0.2845958E+04 -0.5597111E-03  0.3662109E-03
  0.5761905E+00  0.1006323E-02 -0.4882812E-03  0.4100242E+05  0.3272332E+04 -0.1377074E-02  0.8850098E-03
  0.6071429E+00  0.3669290E-02 -0.1068115E-03  0.4078002E+05  0.3725520E+04 -0.3116383E-02 -0.1449585E-03
  0.6380953E+00  0.2199998E-02 -0.5416870E-03  0.4044025E+05  0.4180144E+04 -0.2678259E-02  0.1831055E-03
  0.6690477E+00  0.3899951E-02  0.2517700E-03  0.4015731E+05  0.4644422E+04 -0.1094723E-02 -0.9155273E-04
  0.7000000E+00  0.8719307E-03  0.5798340E-03  0.3983426E+05  0.5120539E+04  0.2702985E-02 -0.8392334E-03
  0.7309524E+00  0.2254523E-02 -0.4119873E-03  0.3940079E+05  0.5596268E+04 -0.4592547E-02  0.9002686E-03
  0.7619048E+00  0.1401901E-02 -0.4806519E-03  0.3901665E+05  0.6070002E+04  0.4165649E-02  0.2899170E-03
  0.7928572E+00  0.1154719E-02 -0.3814697E-03  0.3870928E+05  0.6536896E+04 -0.6928314E-03  0.2136230E-03
  0.8238096E+00  0.2593112E-02  0.1205444E-02  0.3818479E+05  0.7003132E+04  0.1481778E-02 -0.3814697E-03
  0.8547620E+00  0.4212955E-02 -0.1068115E-03  0.3771457E+05  0.7457321E+04  0.4498580E-02  0.3051758E-04
  0.8857143E+00  0.4806519E-02 -0.8239746E-03  0.3727780E+05  0.7893279E+04 -0.4961567E-02 -0.3509521E-03
  0.9166667E+00  0.3412420E-02  0.1190186E-02  0.3691890E+05  0.8304607E+04 -0.2330433E-02  0.1678467E-02
  0.9476191E+00  0.6086647E-02 -0.1144409E-02  0.3636568E+05  0.8704436E+04  0.1094952E-02  0.2563477E-02
  0.9785714E+00  0.1309806E-02 -0.1571655E-02  0.3586399E+05  0.9081162E+04  0.1372177E-02  0.8544922E-03
  0.1009524E+01  0.2448604E-02 -0.5493164E-03  0.3539760E+05  0.9427619E+04 -0.7859716E-03 -0.0000000E+00
  0.1040476E+01  0.1598507E-02 -0.8087158E-03  0.3499287E+05  0.9739085E+04  0.1290537E-02  0.3051758E-04
  0.1071429E+01  0.1894124E-02  0.1296997E-02  0.3455456E+05  0.1001979E+05  0.7975261E-03 -0.1800537E-02
  0.1102381E+01  0.2657600E-02  0.1647949E-02  0.3403157E+05  0.1027564E+05  0.7197666E-03 -0.2746582E-02
  0.1133333E+01  0.2288818E-02  0.6408691E-03  0.3356513E+05  0.1050185E+05 -0.5924000E-03 -0.8850098E-03
  0.1164286E+01  0.1467839E-02 -0.3906250E-02  0.3313573E+05  0.1068663E+05  0.3774444E-02  0.4730225E-02
  0.1195238E+01  0.2412834E-02 -0.3021240E-02  0.3277099E+05  0.1083143E+05 -0.1531958E-03  0.1831055E-03
  0.1226190E+01  0.2277263E-02  0.1129150E-02  0.3243650E+05  0.1093615E+05  0.1194630E-02 -0.4272461E-03
  0.1257143E+01  0.2014854E-02 -0.1434326E-02  0.3197349E+05  0.1102102E+05  0.1796376E-02 -0.1983643E-02
  0.1288095E+01  0.2120436E-02  0.5187988E-03  0.3156680E+05  0.1106265E+05  0.6159925E-03 -0.2441406E-02
  0.1319048E+01  0.1156803E-03 -0.1861572E-02  0.3120506E+05  0.1107738E+05  0.8328985E-03  0.3448486E-02
  0.1350000E+01  0.1627604E-02  0.4913330E-02  0.3088513E+05  0.1105072E+05  0.5425347E-03 -0.2777100E-02
  0.1380952E+01  0.8010864E-03 -0.7324219E-03  0.3063482E+05  0.1099336E+05 -0.5745724E-03  0.3021240E-02
  0.1411905E+01  0.2890936E-02 -0.1953125E-02  0.3042833E+05  0.1090271E+05 -0.9942658E-03  0.4882812E-02
  0.1442857E+01  0.9835120E-03  0.1525879E-02  0.3008575E+05  0.1077478E+05  0.1903572E-02 -0.1495361E-02
  0.1473810E+01  0.1542641E-02 -0.3051758E-02  0.2978544E+05  0.1061978E+05  0.3230229E-02  0.1892090E-02
  0.1504762E+01  0.1145858E-02 -0.5493164E-03  0.2954451E+05  0.1045671E+05  0.1703576E-02  0.9765625E-03
  0.1535714E+01  0.4694739E-03 -0.1525879E-03  0.2933639E+05  0.1026337E+05 -0.3974382E-04 -0.4028320E-02
  0.1566667E+01  0.3604889E-02  0.4699707E-02  0.2917259E+05  0.1004626E+05  0.1870013E-02 -0.2685547E-02
  0.1597619E+01  0.1206405E-02  0.1586914E-02  0.2907058E+05  0.9828110E+04  0.1031503E-02 -0.1129150E-02
  0.1628572E+01  0.2814050E-02 -0.8850098E-03  0.2901330E+05  0.9593146E+04 -0.3372995E-03 -0.3662109E-03
  0.1659524E+01  0.2961261E-02 -0.3417969E-02  0.2882181E+05  0.9293790E+04  0.1103362E-03  0.5859375E-02
  0.1690476E+01  0.1042541E-02  0.3173828E-02  0.2865359E+05  0.8973279E+04  0.2346845E-02 -0.4150391E-02
  0.1721429E+01  0.1205508E-02 -0.2014160E-02  0.2854139E+05  0.8679396E+04  0.4609294E-03 -0.4577637E-03
  0.1752381E+01  0.1414963E-02 -0.1159668E-02  0.2845854E+05  0.8379916E+04  0.2890877E-02  0.2105713E-02
  0.1783333E+01  0.1398960E-02 -0.4882812E-03  0.2840368E+05  0.8073244E+04  0.1369013E-02 -0.2761841E-02
  0.1814286E+01  0.1063910E-02 -0.2685547E-02  0.2838398E+05  0.7769619E+04  0.1042884E-02  0.2288818E-02
  0.1845238E+01  0.2203763E-02  0.2075195E-02  0.2840505E+05  0.7493347E+04  0.6615424E-04 -0.2044678E-02
  0.1876190E+01  0.2252802E-02 -0.1464844E-02  0.2845850E+05  0.7225528E+04  0.1984417E-02  0.3448486E-02
  0.1907143E+01  0.1360147E-02  0.3295898E-02  0.2842059E+05  0.6860925E+04  0.2400259E-02 -0.2441406E-03
  0.1938095E+01  0.1566744E-02 -0.2746582E-02  0.2837603E+05  0.6462940E+04  0.6928315E-03  0.1098633E-02
  0.1969048E+01  0.2057446E-02 -0.1770020E-02  0.2836931E+05  0.6116803E+04  0.9609163E-03  0.1358032E-02
  0.2000000E+01  0.2212524E-02 -0.1159668E-02  0.2838150E+05  0.5810157E+04  0.6103516E-03  0.1541138E-02
Zone t="Motion of body    1 in DoF   3",I=    64,F=POINT
  0.5000000E-01 -0.3986270E+05 -0.1175898E-02  0.1001358E-01  0.7256181E-05  0.6138602E+05  0.9597059E-03
  0.8095238E-01 -0.3989217E+05 -0.5141030E-02  0.1669323E-01  0.4517626E-04  0.6163573E+05  0.4145921E-02
  0.1119048E+00 -0.3982413E+05 -0.1440612E-01  0.5326373E-02 -0.1564348E-04  0.6167384E+05  0.1163434E-01
  0.1428571E+00 -0.3997115E+05 -0.3254497E-01 -0.2403259E-03 -0.3814766E-04  0.6176686E+05  0.2622642E-01
  0.1738095E+00 -0.4007858E+05 -0.6497329E-01  0.1328926E-01  0.6778922E-04  0.6180194E+05  0.5245647E-01
  0.2047619E+00 -0.4013522E+05 -0.1203073E+00  0.2291480E-02 -0.4819059E-04  0.6180525E+05  0.9720454E-01
  0.2357143E+00 -0.4020466E+05 -0.2124256E+00  0.1429009E-01  0.1073533E-03  0.6194144E+05  0.1717554E+00
  0.2666667E+00 -0.4029739E+05 -0.3635654E+00  0.2574920E-02 -0.2180645E-04  0.6197232E+05  0.2940060E+00
  0.2976190E+00 -0.4039079E+05 -0.6125093E+00  0.1333008E-02 -0.5614199E-04  0.6209749E+05  0.4954599E+00
  0.3285715E+00 -0.4049276E+05 -0.1017709E+01  0.8742290E-02  0.1256587E-03  0.6211016E+05  0.8239278E+00
  0.3595238E+00 -0.4053471E+05 -0.1677454E+01  0.7809266E-02  0.5738065E-04  0.6222390E+05  0.1359164E+01
  0.3904762E+00 -0.4067780E+05 -0.2751037E+01  0.7200008E-02  0.5568191E-04  0.6222958E+05  0.2229257E+01
  0.4214286E+00 -0.4086052E+05 -0.4454096E+01  0.1405748E-01  0.2958253E-03  0.6241144E+05  0.3613053E+01
  0.4523810E+00 -0.4092307E+05 -0.7142504E+01 -0.1441955E-02 -0.2877340E-03  0.6246281E+05  0.5797364E+01
  0.4833333E+00 -0.4116553E+05 -0.1118375E+02  0.7379466E-02  0.1338869E-04  0.6269582E+05  0.9091958E+01
  0.5142857E+00 -0.4132583E+05 -0.1724382E+02  0.1088884E-01  0.1700670E-03  0.6292066E+05  0.1402540E+02
  0.5452381E+00 -0.4158830E+05 -0.2597387E+02  0.5387219E-02 -0.3407449E-03  0.6298052E+05  0.2113887E+02
  0.5761905E+00 -0.4172281E+05 -0.3815326E+02  0.4051776E-02 -0.3633797E-03  0.6315061E+05  0.3108769E+02
  0.6071429E+00 -0.4187330E+05 -0.5504971E+02  0.4285026E-02  0.4502535E-03  0.6331029E+05  0.4490183E+02
  0.6380953E+00 -0.4226903E+05 -0.7788871E+02  0.6791300E-02  0.2779961E-03  0.6357070E+05  0.6359937E+02
  0.6690477E+00 -0.4250661E+05 -0.1082502E+03  0.4652573E-02 -0.1083612E-03  0.6379125E+05  0.8846397E+02
  0.7000000E+00 -0.4271886E+05 -0.1481698E+03  0.6888253E-02 -0.1531839E-03  0.6398997E+05  0.1212019E+03
  0.7309524E+00 -0.4309984E+05 -0.1999055E+03  0.6711381E-02  0.1378298E-02  0.6426071E+05  0.1637498E+03
  0.7619048E+00 -0.4337328E+05 -0.2660130E+03  0.9923457E-02  0.9427071E-03  0.6450669E+05  0.2181888E+03
  0.7928572E+00 -0.4373785E+05 -0.3504129E+03  0.5388689E-02  0.1126289E-02  0.6495236E+05  0.2877854E+03
  0.8238096E+00 -0.4411656E+05 -0.4566808E+03  0.7918253E-02 -0.0000000E+00  0.6504690E+05  0.3751164E+03
  0.8547620E+00 -0.4462920E+05 -0.5892623E+03  0.1081801E-01  0.3315926E-02  0.6551760E+05  0.4848547E+03
  0.8857143E+00 -0.4499673E+05 -0.7524622E+03  0.1385966E-01  0.3363132E-02  0.6584283E+05  0.6198439E+03
  0.9166667E+00 -0.4540202E+05 -0.9525869E+03  0.4219749E-02 -0.1306534E-03  0.6634016E+05  0.7859612E+03
  0.9476191E+00 -0.4582007E+05 -0.1195692E+04  0.2006339E-01  0.4466534E-02  0.6649511E+05  0.9869743E+03
  0.9785714E+00 -0.4646026E+05 -0.1491184E+04  0.4178904E-02 -0.1707077E-03  0.6707881E+05  0.1233231E+04
  0.1009524E+01 -0.4700898E+05 -0.1846199E+04  0.1091291E-01  0.2394676E-02  0.6750495E+05  0.1527932E+04
  0.1040476E+01 -0.4754300E+05 -0.2270131E+04  0.1649835E-02 -0.4695892E-02  0.6802676E+05  0.1880995E+04
  0.1071429E+01 -0.4808847E+05 -0.2772625E+04  0.7120769E-02  0.1277924E-02  0.6848855E+05  0.2299455E+04
  0.1102381E+01 -0.4866145E+05 -0.3364406E+04  0.9896791E-02  0.5392075E-02  0.6882134E+05  0.2791638E+04
  0.1133333E+01 -0.4935908E+05 -0.4059083E+04  0.6563523E-02 -0.7076263E-03  0.6947574E+05  0.3374567E+04
  0.1164286E+01 -0.4992427E+05 -0.4863782E+04  0.9278841E-02  0.4909515E-02  0.6995844E+05  0.4048167E+04
  0.1195238E+01 -0.5046980E+05 -0.5794350E+04  0.1444509E-01  0.7530212E-02  0.7048495E+05  0.4828516E+04
  0.1226190E+01 -0.5105882E+05 -0.6866802E+04  0.2818580E-02 -0.4272461E-03  0.7107612E+05  0.5729660E+04
  0.1257143E+01 -0.5158033E+05 -0.8085788E+04  0.5953528E-02  0.2559662E-02  0.7129826E+05  0.6743418E+04
  0.1288095E+01 -0.5232780E+05 -0.9499711E+04  0.9074043E-02  0.1968384E-02  0.7189992E+05  0.7930418E+04
  0.1319048E+01 -0.5292461E+05 -0.1108343E+05  0.3730691E-02 -0.4234314E-02  0.7243639E+05  0.9264176E+04
  0.1350000E+01 -0.5337496E+05 -0.1285392E+05  0.9810836E-02  0.6988525E-02  0.7279659E+05  0.1075096E+05
  0.1380952E+01 -0.5376627E+05 -0.1482773E+05  0.5469487E-02  0.1373291E-03  0.7319638E+05  0.1241386E+05
  0.1411905E+01 -0.5399509E+05 -0.1699142E+05  0.7467800E-02 -0.6637573E-03  0.7354588E+05  0.1425226E+05
  0.1442857E+01 -0.5416787E+05 -0.1935666E+05  0.7000914E-02 -0.5294800E-02  0.7353937E+05  0.1623485E+05
  0.1473810E+01 -0.5429193E+05 -0.2192944E+05  0.9856340E-02  0.2159119E-02  0.7355483E+05  0.1839775E+05
  0.1504762E+01 -0.5439571E+05 -0.2470943E+05  0.5212132E-02  0.2182007E-02  0.7370545E+05  0.2075974E+05
  0.1535714E+01 -0.5426290E+05 -0.2764288E+05  0.4809002E-02 -0.5493164E-03  0.7360398E+05  0.2323903E+05
  0.1566667E+01 -0.5395423E+05 -0.3073553E+05  0.1031429E-01  0.2288818E-03  0.7329530E+05  0.2583143E+05
  0.1597619E+01 -0.5353160E+05 -0.3398475E+05  0.6695220E-02  0.3509521E-02  0.7299504E+05  0.2857035E+05
  0.1628572E+01 -0.5294824E+05 -0.3735396E+05  0.5453009E-02 -0.5233765E-02  0.7261118E+05  0.3143123E+05
  0.1659524E+01 -0.5214920E+05 -0.4073751E+05  0.6739700E-02  0.7629395E-04  0.7177270E+05  0.3424561E+05
  0.1690476E+01 -0.5121228E+05 -0.4415091E+05  0.6047638E-02  0.1037598E-02  0.7081999E+05  0.3707930E+05
  0.1721429E+01 -0.5024223E+05 -0.4760122E+05  0.8030809E-02 -0.2166748E-02  0.7001748E+05  0.4000356E+05
  0.1752381E+01 -0.4905175E+05 -0.5094836E+05  0.8141477E-02 -0.4638672E-02  0.6904250E+05  0.4283847E+05
  0.1783333E+01 -0.4769719E+05 -0.5416019E+05  0.7769148E-02  0.8087158E-03  0.6788846E+05  0.4553184E+05
  0.1814286E+01 -0.4616747E+05 -0.5719654E+05  0.7064700E-02 -0.3158569E-02  0.6655466E+05  0.4803872E+05
  0.1845238E+01 -0.4458261E+05 -0.6008852E+05  0.4399257E-02 -0.4425049E-03  0.6527162E+05  0.5046150E+05
  0.1876190E+01 -0.4293388E+05 -0.6279139E+05  0.6002048E-02 -0.2304077E-02  0.6398011E+05  0.5275761E+05
  0.1907143E+01 -0.4119334E+05 -0.6516850E+05  0.6912746E-02  0.2304077E-02  0.6238843E+05  0.5466188E+05
  0.1938095E+01 -0.3942629E+05 -0.6726839E+05  0.5463921E-02 -0.9918213E-03  0.6069783E+05  0.5626833E+05
  0.1969048E+01 -0.3772784E+05 -0.6919362E+05  0.5811993E-02  0.4364014E-02  0.5922869E+05  0.5784014E+05
  0.2000000E+01 -0.3610479E+05 -0.7091482E+05  0.5081177E-02 -0.2532959E-02  0.5788841E+05  0.5929028E+05
