VARIABLES="w (rad/s)"
"abs(F   1   1)" "angle(F   1   1)"
"abs(F   1   2)" "angle(F   1   2)"
"abs(F   1   3)" "angle(F   1   3)"
Zone t="Diffraction force - beta =   0.000 deg",I=    64,F=POINT
  0.5000000E-01  0.4239381E+04 -0.1570776E+01  0.2268331E+06 -0.1543495E-04  0.9267840E+04  0.1570793E+01
  0.8095238E-01  0.6947941E+04 -0.1570805E+01  0.2264626E+06 -0.4152954E-04  0.1516644E+05  0.1570811E+01
  0.1119048E+00  0.9712787E+04 -0.1570790E+01  0.2259179E+06 -0.8248482E-04  0.2117519E+05  0.1570806E+01
  0.1428571E+00  0.1257323E+05 -0.1570794E+01  0.2251989E+06 -0.1414835E-03  0.2736868E+05  0.1570801E+01
  0.1738095E+00  0.1553453E+05 -0.1570786E+01  0.2243055E+06 -0.2233126E-03  0.3379346E+05  0.1570811E+01
  0.2047619E+00  0.1866546E+05 -0.1570771E+01  0.2232357E+06 -0.3348922E-03  0.4055009E+05  0.1570820E+01
  0.2357143E+00  0.2199314E+05 -0.1570763E+01  0.2219898E+06 -0.4865260E-03  0.4771737E+05  0.1570828E+01
  0.2666667E+00  0.2556156E+05 -0.1570745E+01  0.2205666E+06 -0.6906757E-03  0.5537958E+05  0.1570852E+01
  0.2976190E+00  0.2943214E+05 -0.1570716E+01  0.2189664E+06 -0.9686541E-03  0.6365971E+05  0.1570875E+01
  0.3285715E+00  0.3364717E+05 -0.1570682E+01  0.2171883E+06 -0.1342121E-02  0.7266905E+05  0.1570912E+01
  0.3595238E+00  0.3831764E+05 -0.1570619E+01  0.2152366E+06 -0.1845730E-02  0.8255324E+05  0.1570974E+01
  0.3904762E+00  0.4343557E+05 -0.1570532E+01  0.2131132E+06 -0.2518084E-02  0.9339066E+05  0.1571064E+01
  0.4214286E+00  0.4913779E+05 -0.1570400E+01  0.2108309E+06 -0.3385372E-02  0.1053697E+06  0.1571194E+01
  0.4523810E+00  0.5537573E+05 -0.1570210E+01  0.2083912E+06 -0.4515091E-02  0.1184903E+06  0.1571383E+01
  0.4833333E+00  0.6222778E+05 -0.1569943E+01  0.2058133E+06 -0.5880437E-02  0.1327647E+06  0.1571647E+01
  0.5142857E+00  0.6971465E+05 -0.1569575E+01  0.2031040E+06 -0.7560781E-02  0.1482504E+06  0.1572019E+01
  0.5452381E+00  0.7765915E+05 -0.1569078E+01  0.2002715E+06 -0.9535125E-02  0.1646796E+06  0.1572515E+01
  0.5761905E+00  0.8611374E+05 -0.1568429E+01  0.1973282E+06 -0.1181318E-01  0.1820257E+06  0.1573164E+01
  0.6071429E+00  0.9508734E+05 -0.1567584E+01  0.1942839E+06 -0.1446230E-01  0.2002698E+06  0.1574008E+01
  0.6380953E+00  0.1044980E+06 -0.1566525E+01  0.1911343E+06 -0.1742862E-01  0.2192950E+06  0.1575067E+01
  0.6690477E+00  0.1143659E+06 -0.1565200E+01  0.1878987E+06 -0.2077790E-01  0.2389718E+06  0.1576393E+01
  0.7000000E+00  0.1245487E+06 -0.1563555E+01  0.1845880E+06 -0.2455408E-01  0.2593231E+06  0.1578037E+01
  0.7309524E+00  0.1351261E+06 -0.1561552E+01  0.1811986E+06 -0.2873754E-01  0.2802840E+06  0.1580039E+01
  0.7619048E+00  0.1461393E+06 -0.1559130E+01  0.1777508E+06 -0.3337324E-01  0.3016722E+06  0.1582461E+01
  0.7928572E+00  0.1576605E+06 -0.1556221E+01  0.1742515E+06 -0.3848554E-01  0.3238797E+06  0.1585370E+01
  0.8238096E+00  0.1693501E+06 -0.1552761E+01  0.1707148E+06 -0.4409561E-01  0.3462408E+06  0.1588831E+01
  0.8547620E+00  0.1814381E+06 -0.1548678E+01  0.1671370E+06 -0.5021584E-01  0.3691888E+06  0.1592913E+01
  0.8857143E+00  0.1939300E+06 -0.1543897E+01  0.1635328E+06 -0.5686965E-01  0.3925679E+06  0.1597693E+01
  0.9166667E+00  0.2068018E+06 -0.1538333E+01  0.1599101E+06 -0.6407778E-01  0.4164704E+06  0.1603255E+01
  0.9476191E+00  0.2198448E+06 -0.1531916E+01  0.1562895E+06 -0.7186195E-01  0.4402854E+06  0.1609672E+01
  0.9785714E+00  0.2334235E+06 -0.1524534E+01  0.1526657E+06 -0.8022768E-01  0.4647621E+06  0.1617051E+01
  0.1009524E+01  0.2471827E+06 -0.1516117E+01  0.1490521E+06 -0.8920255E-01  0.4891302E+06  0.1625465E+01
  0.1040476E+01  0.2614016E+06 -0.1506562E+01  0.1454497E+06 -0.9879203E-01  0.5139494E+06  0.1635018E+01
  0.1071429E+01  0.2755811E+06 -0.1495789E+01  0.1418707E+06 -0.1090320E+00  0.5384929E+06  0.1645786E+01
  0.1102381E+01  0.2898362E+06 -0.1483715E+01  0.1383162E+06 -0.1199379E+00  0.5628380E+06  0.1657855E+01
  0.1133333E+01  0.3043030E+06 -0.1470254E+01  0.1347952E+06 -0.1315206E+00  0.5871523E+06  0.1671307E+01
  0.1164286E+01  0.3187546E+06 -0.1455370E+01  0.1313130E+06 -0.1438255E+00  0.6107823E+06  0.1686182E+01
  0.1195238E+01  0.3334642E+06 -0.1439001E+01  0.1278736E+06 -0.1568424E+00  0.6341941E+06  0.1702538E+01
  0.1226190E+01  0.3479094E+06 -0.1421055E+01  0.1244837E+06 -0.1706086E+00  0.6568403E+06  0.1720472E+01
  0.1257143E+01  0.3612954E+06 -0.1401798E+01  0.1211646E+06 -0.1852749E+00  0.6771568E+06  0.1739707E+01
  0.1288095E+01  0.3754249E+06 -0.1380528E+01  0.1178855E+06 -0.2004617E+00  0.6981559E+06  0.1760962E+01
  0.1319048E+01  0.3883179E+06 -0.1358018E+01  0.1146790E+06 -0.2165995E+00  0.7164460E+06  0.1783444E+01
  0.1350000E+01  0.4006079E+06 -0.1334111E+01  0.1115298E+06 -0.2336168E+00  0.7330500E+06  0.1807316E+01
  0.1380952E+01  0.4123155E+06 -0.1308867E+01  0.1084383E+06 -0.2514798E+00  0.7482075E+06  0.1832521E+01
  0.1411905E+01  0.4201881E+06 -0.1284442E+01  0.1054796E+06 -0.2705952E+00  0.7579738E+06  0.1856914E+01
  0.1442857E+01  0.4288229E+06 -0.1257612E+01  0.1025726E+06 -0.2903742E+00  0.7669206E+06  0.1883674E+01
  0.1473810E+01  0.4362502E+06 -0.1230009E+01  0.9973779E+05 -0.3111810E+00  0.7735236E+06  0.1911220E+01
  0.1504762E+01  0.4424868E+06 -0.1202015E+01  0.9698995E+05 -0.3329599E+00  0.7776331E+06  0.1939161E+01
  0.1535714E+01  0.4468758E+06 -0.1174193E+01  0.9435040E+05 -0.3557385E+00  0.7777703E+06  0.1966880E+01
  0.1566667E+01  0.4500058E+06 -0.1146356E+01  0.9179686E+05 -0.3795995E+00  0.7756937E+06  0.1994624E+01
  0.1597619E+01  0.4517100E+06 -0.1118962E+01  0.8933641E+05 -0.4044606E+00  0.7711349E+06  0.2021924E+01
  0.1628572E+01  0.4513963E+06 -0.1092435E+01  0.8699603E+05 -0.4304365E+00  0.7632568E+06  0.2048348E+01
  0.1659524E+01  0.4493070E+06 -0.1067278E+01  0.8477997E+05 -0.4573878E+00  0.7521131E+06  0.2073334E+01
  0.1690476E+01  0.4458418E+06 -0.1043514E+01  0.8266652E+05 -0.4854805E+00  0.7388427E+06  0.2096943E+01
  0.1721429E+01  0.4413204E+06 -0.1021100E+01  0.8066260E+05 -0.5146738E+00  0.7242410E+06  0.2119229E+01
  0.1752381E+01  0.4354517E+06 -0.1000880E+01  0.7880351E+05 -0.5447368E+00  0.7072507E+06  0.2139237E+01
  0.1783333E+01  0.4286036E+06 -0.9827974E+00  0.7707506E+05 -0.5756492E+00  0.6886828E+06  0.2157085E+01
  0.1814286E+01  0.4210792E+06 -0.9667692E+00  0.7547638E+05 -0.6073292E+00  0.6693060E+06  0.2172823E+01
  0.1845238E+01  0.4131016E+06 -0.9526856E+00  0.7401193E+05 -0.6396732E+00  0.6496204E+06  0.2186658E+01
  0.1876190E+01  0.4043112E+06 -0.9410051E+00  0.7271212E+05 -0.6722947E+00  0.6289636E+06  0.2198134E+01
  0.1907143E+01  0.3951052E+06 -0.9317243E+00  0.7155214E+05 -0.7049590E+00  0.6077141E+06  0.2207041E+01
  0.1938095E+01  0.3855175E+06 -0.9247701E+00  0.7053477E+05 -0.7374652E+00  0.5861041E+06  0.2213578E+01
  0.1969048E+01  0.3759639E+06 -0.9195205E+00  0.6964220E+05 -0.7697460E+00  0.5652048E+06  0.2218612E+01
  0.2000000E+01  0.3665268E+06 -0.9160430E+00  0.6885627E+05 -0.8013971E+00  0.5450226E+06  0.2221960E+01
