VARIABLES="w (rad/s)"
"abs(F   1   1)" "angle(F   1   1)"
"abs(F   1   2)" "angle(F   1   2)"
"abs(F   1   3)" "angle(F   1   3)"
Zone t="Diffraction force - beta =   0.000 deg",I=    64,F=POINT
  0.5000000E-01  0.3531246E+04 -0.1570786E+01  0.3614588E+06 -0.2698247E-04  0.3656859E+04  0.1570788E+01
  0.8095238E-01  0.5765061E+04 -0.1570798E+01  0.3607219E+06 -0.7257756E-04  0.5964441E+04  0.1570773E+01
  0.1119048E+00  0.8044349E+04 -0.1570791E+01  0.3596387E+06 -0.1440893E-03  0.8306055E+04  0.1570781E+01
  0.1428571E+00  0.1039705E+05 -0.1570783E+01  0.3582099E+06 -0.2470239E-03  0.1070294E+05  0.1570797E+01
  0.1738095E+00  0.1283730E+05 -0.1570784E+01  0.3564322E+06 -0.3895972E-03  0.1318797E+05  0.1570815E+01
  0.2047619E+00  0.1540531E+05 -0.1570777E+01  0.3543046E+06 -0.5837806E-03  0.1576628E+05  0.1570819E+01
  0.2357143E+00  0.1813031E+05 -0.1570765E+01  0.3518244E+06 -0.8472489E-03  0.1848068E+05  0.1570833E+01
  0.2666667E+00  0.2103191E+05 -0.1570746E+01  0.3489857E+06 -0.1201270E-02  0.2136371E+05  0.1570848E+01
  0.2976190E+00  0.2418574E+05 -0.1570727E+01  0.3457926E+06 -0.1682585E-02  0.2442266E+05  0.1570869E+01
  0.3285715E+00  0.2761419E+05 -0.1570691E+01  0.3422416E+06 -0.2327673E-02  0.2772383E+05  0.1570904E+01
  0.3595238E+00  0.3135535E+05 -0.1570637E+01  0.3383352E+06 -0.3195773E-02  0.3131552E+05  0.1570952E+01
  0.3904762E+00  0.3547441E+05 -0.1570562E+01  0.3340800E+06 -0.4351995E-02  0.3518790E+05  0.1571031E+01
  0.4214286E+00  0.4003517E+05 -0.1570449E+01  0.3295158E+06 -0.5839447E-02  0.3937206E+05  0.1571145E+01
  0.4523810E+00  0.4500566E+05 -0.1570284E+01  0.3246275E+06 -0.7772539E-02  0.4392830E+05  0.1571307E+01
  0.4833333E+00  0.5038996E+05 -0.1570057E+01  0.3194618E+06 -0.1009991E-01  0.4880346E+05  0.1571537E+01
  0.5142857E+00  0.5621504E+05 -0.1569741E+01  0.3140553E+06 -0.1295923E-01  0.5391866E+05  0.1571851E+01
  0.5452381E+00  0.6243747E+05 -0.1569325E+01  0.3084140E+06 -0.1630672E-01  0.5926929E+05  0.1572267E+01
  0.5761905E+00  0.6897067E+05 -0.1568787E+01  0.3025477E+06 -0.2015291E-01  0.6481255E+05  0.1572804E+01
  0.6071429E+00  0.7575941E+05 -0.1568095E+01  0.2964888E+06 -0.2461512E-01  0.7049784E+05  0.1573497E+01
  0.6380953E+00  0.8283441E+05 -0.1567241E+01  0.2902394E+06 -0.2959423E-01  0.7617834E+05  0.1574349E+01
  0.6690477E+00  0.9017062E+05 -0.1566188E+01  0.2838464E+06 -0.3519794E-01  0.8185083E+05  0.1575400E+01
  0.7000000E+00  0.9767637E+05 -0.1564905E+01  0.2773205E+06 -0.4149332E-01  0.8752348E+05  0.1576682E+01
  0.7309524E+00  0.1053177E+06 -0.1563371E+01  0.2706298E+06 -0.4843919E-01  0.9316526E+05  0.1578214E+01
  0.7619048E+00  0.1130724E+06 -0.1561553E+01  0.2638231E+06 -0.5610867E-01  0.9868504E+05  0.1580027E+01
  0.7928572E+00  0.1209529E+06 -0.1559420E+01  0.2569544E+06 -0.6455326E-01  0.1040123E+06  0.1582154E+01
  0.8238096E+00  0.1289407E+06 -0.1556948E+01  0.2500353E+06 -0.7379565E-01  0.1091234E+06  0.1584620E+01
  0.8547620E+00  0.1369842E+06 -0.1554111E+01  0.2430545E+06 -0.8384755E-01  0.1140043E+06  0.1587448E+01
  0.8857143E+00  0.1450366E+06 -0.1550884E+01  0.2360184E+06 -0.9472895E-01  0.1186427E+06  0.1590660E+01
  0.9166667E+00  0.1530185E+06 -0.1547247E+01  0.2289446E+06 -0.1064901E+00  0.1230520E+06  0.1594275E+01
  0.9476191E+00  0.1609058E+06 -0.1543192E+01  0.2218630E+06 -0.1191614E+00  0.1271300E+06  0.1598302E+01
  0.9785714E+00  0.1686871E+06 -0.1538723E+01  0.2147934E+06 -0.1327846E+00  0.1307638E+06  0.1602737E+01
  0.1009524E+01  0.1763546E+06 -0.1533848E+01  0.2077566E+06 -0.1473892E+00  0.1339509E+06  0.1607573E+01
  0.1040476E+01  0.1838461E+06 -0.1528582E+01  0.2007646E+06 -0.1630019E+00  0.1366955E+06  0.1612793E+01
  0.1071429E+01  0.1910559E+06 -0.1522943E+01  0.1938210E+06 -0.1796469E+00  0.1389563E+06  0.1618372E+01
  0.1102381E+01  0.1979788E+06 -0.1516974E+01  0.1868969E+06 -0.1973348E+00  0.1407708E+06  0.1624260E+01
  0.1133333E+01  0.2044975E+06 -0.1510720E+01  0.1800112E+06 -0.2161444E+00  0.1420625E+06  0.1630397E+01
  0.1164286E+01  0.2105857E+06 -0.1504255E+01  0.1731518E+06 -0.2361486E+00  0.1428469E+06  0.1636703E+01
  0.1195238E+01  0.2161839E+06 -0.1497677E+01  0.1663512E+06 -0.2574264E+00  0.1430439E+06  0.1643080E+01
  0.1226190E+01  0.2212464E+06 -0.1491087E+01  0.1596336E+06 -0.2800795E+00  0.1426565E+06  0.1649435E+01
  0.1257143E+01  0.2257361E+06 -0.1484558E+01  0.1530239E+06 -0.3043317E+00  0.1416930E+06  0.1655694E+01
  0.1288095E+01  0.2296881E+06 -0.1478376E+01  0.1464547E+06 -0.3298537E+00  0.1401297E+06  0.1661561E+01
  0.1319048E+01  0.2329646E+06 -0.1472507E+01  0.1400016E+06 -0.3571688E+00  0.1380265E+06  0.1667057E+01
  0.1350000E+01  0.2355862E+06 -0.1467167E+01  0.1336030E+06 -0.3863008E+00  0.1354070E+06  0.1671958E+01
  0.1380952E+01  0.2375336E+06 -0.1462508E+01  0.1272739E+06 -0.4174104E+00  0.1323032E+06  0.1676106E+01
  0.1411905E+01  0.2385800E+06 -0.1459025E+01  0.1210616E+06 -0.4500068E+00  0.1288102E+06  0.1679061E+01
  0.1442857E+01  0.2391571E+06 -0.1456177E+01  0.1149328E+06 -0.4861392E+00  0.1248576E+06  0.1681306E+01
  0.1473810E+01  0.2390767E+06 -0.1454502E+01  0.1089047E+06 -0.5252748E+00  0.1205326E+06  0.1682295E+01
  0.1504762E+01  0.2383291E+06 -0.1454128E+01  0.1030075E+06 -0.5678978E+00  0.1158988E+06  0.1681945E+01
  0.1535714E+01  0.2369783E+06 -0.1455211E+01  0.9723861E+05 -0.6145638E+00  0.1110341E+06  0.1680116E+01
  0.1566667E+01  0.2350363E+06 -0.1457911E+01  0.9161552E+05 -0.6659969E+00  0.1059517E+06  0.1676633E+01
  0.1597619E+01  0.2325687E+06 -0.1462324E+01  0.8619498E+05 -0.7229255E+00  0.1007606E+06  0.1671475E+01
  0.1628572E+01  0.2296021E+06 -0.1468572E+01  0.8102040E+05 -0.7863049E+00  0.9549055E+05  0.1664565E+01
  0.1659524E+01  0.2261947E+06 -0.1476754E+01  0.7616353E+05 -0.8573745E+00  0.9019430E+05  0.1655889E+01
  0.1690476E+01  0.2224189E+06 -0.1486980E+01  0.7164716E+05 -0.9372407E+00  0.8492211E+05  0.1645367E+01
  0.1721429E+01  0.2183058E+06 -0.1499314E+01  0.6759438E+05 -0.1026728E+01  0.7971980E+05  0.1633138E+01
  0.1752381E+01  0.2139065E+06 -0.1513820E+01  0.6412086E+05 -0.1125876E+01  0.7461003E+05  0.1619181E+01
  0.1783333E+01  0.2092928E+06 -0.1530554E+01  0.6131180E+05 -0.1234999E+01  0.6966147E+05  0.1603832E+01
  0.1814286E+01  0.2044904E+06 -0.1549611E+01  0.5928843E+05 -0.1352375E+01  0.6483758E+05  0.1586982E+01
  0.1845238E+01  0.1995738E+06 -0.1570960E+01  0.5820231E+05 -0.1474344E+01  0.6020942E+05  0.1569152E+01
  0.1876190E+01  0.1945682E+06 -0.1594641E+01  0.5803702E+05 -0.1596702E+01  0.5578956E+05  0.1550779E+01
  0.1907143E+01  0.1895142E+06 -0.1620665E+01  0.5875986E+05 -0.1714472E+01  0.5157931E+05  0.1532295E+01
  0.1938095E+01  0.1844593E+06 -0.1649066E+01  0.6027176E+05 -0.1825043E+01  0.4758172E+05  0.1514086E+01
  0.1969048E+01  0.1794191E+06 -0.1679886E+01  0.6244352E+05 -0.1925302E+01  0.4378441E+05  0.1496787E+01
  0.2000000E+01  0.1744417E+06 -0.1712976E+01  0.6506880E+05 -0.2012558E+01  0.4025686E+05  0.1482281E+01
