VARIABLES="w (rad/s)"
"abs(F   1   1)" "angle(F   1   1)"
"abs(F   1   2)" "angle(F   1   2)"
"abs(F   1   3)" "angle(F   1   3)"
Zone t="Diffraction force - beta =   0.000 deg",I=    64,F=POINT
  0.5000000E-01  0.1434360E+04 -0.1570794E+01  0.2321372E+03 -0.3102619E+01  0.2405515E+04  0.1570798E+01
  0.8095238E-01  0.2349544E+04 -0.1570790E+01  0.6010279E+03 -0.3101245E+01  0.3939781E+04  0.1570801E+01
  0.1119048E+00  0.3280481E+04 -0.1570784E+01  0.1142938E+04 -0.3099691E+01  0.5503183E+04  0.1570806E+01
  0.1428571E+00  0.4250049E+04 -0.1570774E+01  0.1853795E+04 -0.3097603E+01  0.7128812E+04  0.1570814E+01
  0.1738095E+00  0.5260639E+04 -0.1570760E+01  0.2734850E+04 -0.3094976E+01  0.8824616E+04  0.1570825E+01
  0.2047619E+00  0.6331878E+04 -0.1570740E+01  0.3792845E+04 -0.3091739E+01  0.1062454E+05  0.1570841E+01
  0.2357143E+00  0.7453759E+04 -0.1570709E+01  0.5020266E+04 -0.3087580E+01  0.1253086E+05  0.1570864E+01
  0.2666667E+00  0.8689239E+04 -0.1570666E+01  0.6420531E+04 -0.3082551E+01  0.1460740E+05  0.1570898E+01
  0.2976190E+00  0.1002294E+05 -0.1570601E+01  0.7995766E+04 -0.3076210E+01  0.1686095E+05  0.1570948E+01
  0.3285715E+00  0.1147329E+05 -0.1570505E+01  0.9736471E+04 -0.3068615E+01  0.1932249E+05  0.1571023E+01
  0.3595238E+00  0.1309667E+05 -0.1570362E+01  0.1163738E+05 -0.3059354E+01  0.2207409E+05  0.1571135E+01
  0.3904762E+00  0.1490554E+05 -0.1570148E+01  0.1370187E+05 -0.3048477E+01  0.2511674E+05  0.1571303E+01
  0.4214286E+00  0.1687453E+05 -0.1569834E+01  0.1586806E+05 -0.3036150E+01  0.2847731E+05  0.1571548E+01
  0.4523810E+00  0.1903931E+05 -0.1569375E+01  0.1820316E+05 -0.3022141E+01  0.3218933E+05  0.1571907E+01
  0.4833333E+00  0.2150932E+05 -0.1568745E+01  0.2054139E+05 -0.3007593E+01  0.3634446E+05  0.1572403E+01
  0.5142857E+00  0.2415165E+05 -0.1567868E+01  0.2302274E+05 -0.2992339E+01  0.4085729E+05  0.1573092E+01
  0.5452381E+00  0.2698046E+05 -0.1566702E+01  0.2548051E+05 -0.2976699E+01  0.4569457E+05  0.1574009E+01
  0.5761905E+00  0.2994298E+05 -0.1565184E+01  0.2797259E+05 -0.2961504E+01  0.5081224E+05  0.1575202E+01
  0.6071429E+00  0.3323497E+05 -0.1563251E+01  0.3054906E+05 -0.2946414E+01  0.5635081E+05  0.1576734E+01
  0.6380953E+00  0.3670439E+05 -0.1560852E+01  0.3299692E+05 -0.2931447E+01  0.6224271E+05  0.1578637E+01
  0.6690477E+00  0.4022887E+05 -0.1557864E+01  0.3548414E+05 -0.2917094E+01  0.6829373E+05  0.1581007E+01
  0.7000000E+00  0.4386727E+05 -0.1554194E+01  0.3801461E+05 -0.2903349E+01  0.7455068E+05  0.1583922E+01
  0.7309524E+00  0.4775438E+05 -0.1549821E+01  0.4033970E+05 -0.2888976E+01  0.8122855E+05  0.1587403E+01
  0.7619048E+00  0.5185407E+05 -0.1544638E+01  0.4265172E+05 -0.2875292E+01  0.8809379E+05  0.1591560E+01
  0.7928572E+00  0.5607080E+05 -0.1538509E+01  0.4498253E+05 -0.2862624E+01  0.9528855E+05  0.1596478E+01
  0.8238096E+00  0.6042480E+05 -0.1531345E+01  0.4712888E+05 -0.2849648E+01  0.1026237E+06  0.1602258E+01
  0.8547620E+00  0.6479896E+05 -0.1523005E+01  0.4912870E+05 -0.2836600E+01  0.1101409E+06  0.1608978E+01
  0.8857143E+00  0.6918345E+05 -0.1513386E+01  0.5105910E+05 -0.2824234E+01  0.1176781E+06  0.1616738E+01
  0.9166667E+00  0.7371241E+05 -0.1502500E+01  0.5298754E+05 -0.2813227E+01  0.1254867E+06  0.1625524E+01
  0.9476191E+00  0.7852814E+05 -0.1490439E+01  0.5465355E+05 -0.2801768E+01  0.1334155E+06  0.1635354E+01
  0.9785714E+00  0.8334531E+05 -0.1476872E+01  0.5610535E+05 -0.2789967E+01  0.1415407E+06  0.1646425E+01
  0.1009524E+01  0.8803077E+05 -0.1461665E+01  0.5744796E+05 -0.2778948E+01  0.1493318E+06  0.1658876E+01
  0.1040476E+01  0.9268902E+05 -0.1444822E+01  0.5872859E+05 -0.2768926E+01  0.1573921E+06  0.1672629E+01
  0.1071429E+01  0.9713812E+05 -0.1426193E+01  0.5993997E+05 -0.2760248E+01  0.1649232E+06  0.1687895E+01
  0.1102381E+01  0.1015352E+06 -0.1405961E+01  0.6071856E+05 -0.2749879E+01  0.1723403E+06  0.1704489E+01
  0.1133333E+01  0.1056545E+06 -0.1383994E+01  0.6138511E+05 -0.2740025E+01  0.1794907E+06  0.1722417E+01
  0.1164286E+01  0.1095284E+06 -0.1360660E+01  0.6190557E+05 -0.2730911E+01  0.1858962E+06  0.1741480E+01
  0.1195238E+01  0.1132379E+06 -0.1336024E+01  0.6233336E+05 -0.2722626E+01  0.1922187E+06  0.1761531E+01
  0.1226190E+01  0.1164619E+06 -0.1309641E+01  0.6268049E+05 -0.2715613E+01  0.1976793E+06  0.1783052E+01
  0.1257143E+01  0.1191908E+06 -0.1281650E+01  0.6272651E+05 -0.2708117E+01  0.2022468E+06  0.1805788E+01
  0.1288095E+01  0.1216079E+06 -0.1252752E+01  0.6249226E+05 -0.2700361E+01  0.2064284E+06  0.1829181E+01
  0.1319048E+01  0.1232417E+06 -0.1222391E+01  0.6214597E+05 -0.2693196E+01  0.2093508E+06  0.1853520E+01
  0.1350000E+01  0.1242461E+06 -0.1191509E+01  0.6167553E+05 -0.2686802E+01  0.2110729E+06  0.1877990E+01
  0.1380952E+01  0.1247030E+06 -0.1160024E+01  0.6113016E+05 -0.2681270E+01  0.2122114E+06  0.1902608E+01
  0.1411905E+01  0.1241552E+06 -0.1127026E+01  0.6051966E+05 -0.2676523E+01  0.2118081E+06  0.1927965E+01
  0.1442857E+01  0.1231036E+06 -0.1094283E+01  0.5971015E+05 -0.2672439E+01  0.2102853E+06  0.1952900E+01
  0.1473810E+01  0.1213997E+06 -0.1061705E+01  0.5855205E+05 -0.2667610E+01  0.2077046E+06  0.1977132E+01
  0.1504762E+01  0.1188777E+06 -0.1029332E+01  0.5734219E+05 -0.2663724E+01  0.2039820E+06  0.2000434E+01
  0.1535714E+01  0.1155493E+06 -0.9973009E+00  0.5604365E+05 -0.2660882E+01  0.1987901E+06  0.2022639E+01
  0.1566667E+01  0.1115570E+06 -0.9655041E+00  0.5468579E+05 -0.2658553E+01  0.1927433E+06  0.2043831E+01
  0.1597619E+01  0.1069598E+06 -0.9343346E+00  0.5328833E+05 -0.2657152E+01  0.1859867E+06  0.2063363E+01
  0.1628572E+01  0.1016374E+06 -0.9038856E+00  0.5186365E+05 -0.2656888E+01  0.1779278E+06  0.2080885E+01
  0.1659524E+01  0.9581748E+05 -0.8749883E+00  0.5036029E+05 -0.2657943E+01  0.1690710E+06  0.2095519E+01
  0.1690476E+01  0.8953931E+05 -0.8474024E+00  0.4858238E+05 -0.2659479E+01  0.1594359E+06  0.2107230E+01
  0.1721429E+01  0.8275825E+05 -0.8206034E+00  0.4681686E+05 -0.2661733E+01  0.1492932E+06  0.2116178E+01
  0.1752381E+01  0.7553932E+05 -0.7950487E+00  0.4505655E+05 -0.2665385E+01  0.1385050E+06  0.2121161E+01
  0.1783333E+01  0.6791228E+05 -0.7708329E+00  0.4331491E+05 -0.2670447E+01  0.1270561E+06  0.2121139E+01
  0.1814286E+01  0.6008062E+05 -0.7480075E+00  0.4159064E+05 -0.2675846E+01  0.1156193E+06  0.2115818E+01
  0.1845238E+01  0.5202292E+05 -0.7263892E+00  0.3990047E+05 -0.2681911E+01  0.1040916E+06  0.2103867E+01
  0.1876190E+01  0.4369027E+05 -0.7061824E+00  0.3825980E+05 -0.2688835E+01  0.9223415E+05  0.2081940E+01
  0.1907143E+01  0.3523067E+05 -0.6879527E+00  0.3667316E+05 -0.2697036E+01  0.8047009E+05  0.2046751E+01
  0.1938095E+01  0.2670780E+05 -0.6725840E+00  0.3500080E+05 -0.2706505E+01  0.6881549E+05  0.1991917E+01
  0.1969048E+01  0.1812931E+05 -0.6615576E+00  0.3334823E+05 -0.2715231E+01  0.5764885E+05  0.1909140E+01
  0.2000000E+01  0.9513171E+04 -0.6607921E+00  0.3176572E+05 -0.2722951E+01  0.4734102E+05  0.1784001E+01
