VARIABLES="w (rad/s)"
"abs(F   1   1)" "angle(F   1   1)"
"abs(F   1   2)" "angle(F   1   2)"
"abs(F   1   3)" "angle(F   1   3)"
Zone t="Diffraction force - beta =   0.000 deg",I=    64,F=POINT
  0.5000000E-01  0.5107842E+04 -0.1570788E+01  0.5479895E+06 -0.3745089E-04  0.6926883E+04  0.1570770E+01
  0.8095238E-01  0.8335811E+04 -0.1570787E+01  0.5467989E+06 -0.1007120E-03  0.1128714E+05  0.1570813E+01
  0.1119048E+00  0.1162706E+05 -0.1570787E+01  0.5450508E+06 -0.1998723E-03  0.1571590E+05  0.1570801E+01
  0.1428571E+00  0.1502972E+05 -0.1570796E+01  0.5427468E+06 -0.3424662E-03  0.2025028E+05  0.1570795E+01
  0.1738095E+00  0.1855067E+05 -0.1570775E+01  0.5398801E+06 -0.5397561E-03  0.2494128E+05  0.1570820E+01
  0.2047619E+00  0.2227432E+05 -0.1570766E+01  0.5364494E+06 -0.8081228E-03  0.2980396E+05  0.1570816E+01
  0.2357143E+00  0.2618590E+05 -0.1570753E+01  0.5324486E+06 -0.1171710E-02  0.3492788E+05  0.1570837E+01
  0.2666667E+00  0.3038221E+05 -0.1570737E+01  0.5278729E+06 -0.1659394E-02  0.4033223E+05  0.1570853E+01
  0.2976190E+00  0.3494413E+05 -0.1570699E+01  0.5227241E+06 -0.2321239E-02  0.4608635E+05  0.1570886E+01
  0.3285715E+00  0.3987343E+05 -0.1570658E+01  0.5169936E+06 -0.3206103E-02  0.5229712E+05  0.1570939E+01
  0.3595238E+00  0.4526786E+05 -0.1570592E+01  0.5107024E+06 -0.4394380E-02  0.5897998E+05  0.1571003E+01
  0.3904762E+00  0.5123904E+05 -0.1570489E+01  0.5038607E+06 -0.5972727E-02  0.6623569E+05  0.1571104E+01
  0.4214286E+00  0.5778817E+05 -0.1570341E+01  0.4965442E+06 -0.7996034E-02  0.7410277E+05  0.1571250E+01
  0.4523810E+00  0.6492684E+05 -0.1570129E+01  0.4887230E+06 -0.1061653E-01  0.8258302E+05  0.1571465E+01
  0.4833333E+00  0.7269603E+05 -0.1569832E+01  0.4805278E+06 -0.1376236E-01  0.9160390E+05  0.1571758E+01
  0.5142857E+00  0.8111709E+05 -0.1569425E+01  0.4719987E+06 -0.1761016E-01  0.1011317E+06  0.1572166E+01
  0.5452381E+00  0.9004335E+05 -0.1568886E+01  0.4631391E+06 -0.2209219E-01  0.1111190E+06  0.1572704E+01
  0.5761905E+00  0.9937779E+05 -0.1568192E+01  0.4539945E+06 -0.2721937E-01  0.1213896E+06  0.1573401E+01
  0.6071429E+00  0.1092192E+06 -0.1567302E+01  0.4446400E+06 -0.3313735E-01  0.1317825E+06  0.1574291E+01
  0.6380953E+00  0.1194170E+06 -0.1566202E+01  0.4350719E+06 -0.3970934E-01  0.1422724E+06  0.1575391E+01
  0.6690477E+00  0.1299517E+06 -0.1564849E+01  0.4253457E+06 -0.4705717E-01  0.1528052E+06  0.1576744E+01
  0.7000000E+00  0.1407214E+06 -0.1563203E+01  0.4154761E+06 -0.5526328E-01  0.1632682E+06  0.1578390E+01
  0.7309524E+00  0.1516178E+06 -0.1561238E+01  0.4054659E+06 -0.6427161E-01  0.1735038E+06  0.1580355E+01
  0.7619048E+00  0.1627987E+06 -0.1558918E+01  0.3954001E+06 -0.7415693E-01  0.1835079E+06  0.1582676E+01
  0.7928572E+00  0.1741815E+06 -0.1556202E+01  0.3853397E+06 -0.8496650E-01  0.1931210E+06  0.1585393E+01
  0.8238096E+00  0.1856915E+06 -0.1553058E+01  0.3752878E+06 -0.9670298E-01  0.2025309E+06  0.1588541E+01
  0.8547620E+00  0.1971485E+06 -0.1549455E+01  0.3652395E+06 -0.1093770E+00  0.2113694E+06  0.1592145E+01
  0.8857143E+00  0.2085716E+06 -0.1545365E+01  0.3552076E+06 -0.1230012E+00  0.2198014E+06  0.1596232E+01
  0.9166667E+00  0.2199264E+06 -0.1540780E+01  0.3452253E+06 -0.1376109E+00  0.2274891E+06  0.1600812E+01
  0.9476191E+00  0.2312099E+06 -0.1535697E+01  0.3353802E+06 -0.1532318E+00  0.2345912E+06  0.1605897E+01
  0.9785714E+00  0.2422963E+06 -0.1530115E+01  0.3256990E+06 -0.1698723E+00  0.2408337E+06  0.1611490E+01
  0.1009524E+01  0.2532085E+06 -0.1524042E+01  0.3161662E+06 -0.1875194E+00  0.2464908E+06  0.1617580E+01
  0.1040476E+01  0.2637242E+06 -0.1517506E+01  0.3068018E+06 -0.2061769E+00  0.2511187E+06  0.1624130E+01
  0.1071429E+01  0.2738589E+06 -0.1510554E+01  0.2975661E+06 -0.2258071E+00  0.2549153E+06  0.1631083E+01
  0.1102381E+01  0.2833829E+06 -0.1503214E+01  0.2884845E+06 -0.2464643E+00  0.2578810E+06  0.1638404E+01
  0.1133333E+01  0.2921957E+06 -0.1495586E+01  0.2796083E+06 -0.2681552E+00  0.2595997E+06  0.1645981E+01
  0.1164286E+01  0.3004339E+06 -0.1487796E+01  0.2708800E+06 -0.2908916E+00  0.2604155E+06  0.1653732E+01
  0.1195238E+01  0.3078791E+06 -0.1479963E+01  0.2624000E+06 -0.3147028E+00  0.2599512E+06  0.1661529E+01
  0.1226190E+01  0.3146087E+06 -0.1472225E+01  0.2541110E+06 -0.3395283E+00  0.2585004E+06  0.1669244E+01
  0.1257143E+01  0.3204378E+06 -0.1464611E+01  0.2460708E+06 -0.3655840E+00  0.2561770E+06  0.1676830E+01
  0.1288095E+01  0.3253040E+06 -0.1457517E+01  0.2382612E+06 -0.3923039E+00  0.2527193E+06  0.1683863E+01
  0.1319048E+01  0.3291785E+06 -0.1450897E+01  0.2306618E+06 -0.4202169E+00  0.2482600E+06  0.1690414E+01
  0.1350000E+01  0.3321365E+06 -0.1445023E+01  0.2232362E+06 -0.4491296E+00  0.2429818E+06  0.1696241E+01
  0.1380952E+01  0.3340464E+06 -0.1440086E+01  0.2160388E+06 -0.4790564E+00  0.2365962E+06  0.1701102E+01
  0.1411905E+01  0.3341976E+06 -0.1437568E+01  0.2095771E+06 -0.5064874E+00  0.2294645E+06  0.1703551E+01
  0.1442857E+01  0.3343150E+06 -0.1434953E+01  0.2027914E+06 -0.5381930E+00  0.2218091E+06  0.1706077E+01
  0.1473810E+01  0.3334698E+06 -0.1433696E+01  0.1962354E+06 -0.5709855E+00  0.2135532E+06  0.1707274E+01
  0.1504762E+01  0.3317067E+06 -0.1433983E+01  0.1899302E+06 -0.6047496E+00  0.2046603E+06  0.1706812E+01
  0.1535714E+01  0.3292191E+06 -0.1435908E+01  0.1837845E+06 -0.6395785E+00  0.1955558E+06  0.1704852E+01
  0.1566667E+01  0.3260051E+06 -0.1439609E+01  0.1778505E+06 -0.6754010E+00  0.1861340E+06  0.1701040E+01
  0.1597619E+01  0.3221068E+06 -0.1445183E+01  0.1721286E+06 -0.7121907E+00  0.1764425E+06  0.1695288E+01
  0.1628572E+01  0.3176701E+06 -0.1452701E+01  0.1665659E+06 -0.7499620E+00  0.1666933E+06  0.1687612E+01
  0.1659524E+01  0.3127598E+06 -0.1462209E+01  0.1611722E+06 -0.7887141E+00  0.1569662E+06  0.1677932E+01
  0.1690476E+01  0.3074058E+06 -0.1473690E+01  0.1559817E+06 -0.8285809E+00  0.1473336E+06  0.1666462E+01
  0.1721429E+01  0.3016707E+06 -0.1487255E+01  0.1509812E+06 -0.8692506E+00  0.1377091E+06  0.1652624E+01
  0.1752381E+01  0.2956663E+06 -0.1502837E+01  0.1461254E+06 -0.9109723E+00  0.1283253E+06  0.1636969E+01
  0.1783333E+01  0.2894656E+06 -0.1520437E+01  0.1414227E+06 -0.9539024E+00  0.1192197E+06  0.1619452E+01
  0.1814286E+01  0.2830818E+06 -0.1540090E+01  0.1368948E+06 -0.9977764E+00  0.1103357E+06  0.1599806E+01
  0.1845238E+01  0.2765730E+06 -0.1561749E+01  0.1325209E+06 -0.1042619E+01  0.1017571E+06  0.1578299E+01
  0.1876190E+01  0.2700030E+06 -0.1585402E+01  0.1282826E+06 -0.1088518E+01  0.9349249E+05  0.1554905E+01
  0.1907143E+01  0.2634088E+06 -0.1611052E+01  0.1241565E+06 -0.1135428E+01  0.8550862E+05  0.1529402E+01
  0.1938095E+01  0.2568295E+06 -0.1638550E+01  0.1202312E+06 -0.1183601E+01  0.7789710E+05  0.1502488E+01
  0.1969048E+01  0.2502794E+06 -0.1667929E+01  0.1164270E+06 -0.1232815E+01  0.7062391E+05  0.1473950E+01
  0.2000000E+01  0.2437914E+06 -0.1699098E+01  0.1127876E+06 -0.1282979E+01  0.6372460E+05  0.1444380E+01
