VARIABLES="w (rad/s)"
"A   1   1" "B   1   1"
"A   1   2" "B   1   2"
"A   1   3" "B   1   3"
Zone t="Motion of body    1 in DoF   1",I=    64,F=POINT
  0.5000000E-01  0.1768392E+06  0.1139104E-01  0.1811981E-01  0.5238356E-04 -0.3647654E+06 -0.2126240E-01
  0.8095238E-01  0.1780317E+06  0.4949662E-01  0.1573899E-01  0.5752981E-04 -0.3668516E+06 -0.9272636E-01
  0.1119048E+00  0.1787908E+06  0.1394904E+00  0.2774827E-01  0.1501081E-03 -0.3675692E+06 -0.2594727E+00
  0.1428571E+00  0.1790078E+06  0.3129726E+00  0.1198959E-01  0.2571581E-03 -0.3679150E+06 -0.5810543E+00
  0.1738095E+00  0.1793273E+06  0.6236041E+00  0.8362025E-02  0.2029424E-03 -0.3682955E+06 -0.1156803E+01
  0.2047619E+00  0.1794900E+06  0.1151088E+01  0.6073353E-02  0.3201396E-03 -0.3686370E+06 -0.2135664E+01
  0.2357143E+00  0.1798224E+06  0.2026797E+01 -0.2168597E-02  0.3429367E-03 -0.3690113E+06 -0.3754179E+01
  0.2666667E+00  0.1802206E+06  0.3458620E+01 -0.1255989E-01 -0.3736569E-03 -0.3694713E+06 -0.6392673E+01
  0.2976190E+00  0.1804642E+06  0.5798249E+01 -0.1333008E-02  0.3788387E-03 -0.3700229E+06 -0.1070276E+02
  0.3285715E+00  0.1809689E+06  0.9596633E+01  0.1625393E-03  0.2845656E-03 -0.3706405E+06 -0.1767607E+02
  0.3595238E+00  0.1815473E+06  0.1576669E+02 -0.2461616E-02  0.2333671E-03 -0.3713209E+06 -0.2896912E+02
  0.3904762E+00  0.1819692E+06  0.2569357E+02  0.1010150E-01  0.1170076E-03 -0.3720652E+06 -0.4711706E+02
  0.4214286E+00  0.1826195E+06  0.4136646E+02 -0.1448292E-03 -0.9100363E-03 -0.3729616E+06 -0.7565069E+02
  0.4523810E+00  0.1835291E+06  0.6606791E+02  0.1065866E-01  0.1129165E-02 -0.3741236E+06 -0.1204413E+03
  0.4833333E+00  0.1842421E+06  0.1028330E+03 -0.2620302E-01 -0.2393708E-02 -0.3752428E+06 -0.1869462E+03
  0.5142857E+00  0.1850641E+06  0.1575163E+03  0.9583368E-02  0.2616644E-04 -0.3764612E+06 -0.2855023E+03
  0.5452381E+00  0.1859976E+06  0.2356178E+03 -0.5597110E-02 -0.1260757E-02 -0.3777679E+06 -0.4256003E+03
  0.5761905E+00  0.1870908E+06  0.3443152E+03  0.9374697E-02  0.1272321E-02 -0.3792946E+06 -0.6196353E+03
  0.6071429E+00  0.1883667E+06  0.4943361E+03 -0.1608456E-02 -0.6002188E-03 -0.3811201E+06 -0.8862015E+03
  0.6380953E+00  0.1894344E+06  0.6935021E+03 -0.1501738E-01  0.6254911E-03 -0.3828521E+06 -0.1239009E+04
  0.6690477E+00  0.1907226E+06  0.9569526E+03  0.1927169E-01  0.5125999E-02 -0.3847373E+06 -0.1702761E+04
  0.7000000E+00  0.1923960E+06  0.1302559E+04 -0.9307860E-02 -0.2817154E-02 -0.3870050E+06 -0.2306654E+04
  0.7309524E+00  0.1939283E+06  0.1744850E+04 -0.1164837E-01 -0.3461838E-03 -0.3891771E+06 -0.3075728E+04
  0.7619048E+00  0.1956168E+06  0.2308154E+04 -0.1441955E-02 -0.7719994E-03 -0.3916805E+06 -0.4050176E+04
  0.7928572E+00  0.1974396E+06  0.3017699E+04  0.6120011E-02 -0.1050949E-02 -0.3942787E+06 -0.5269103E+04
  0.8238096E+00  0.1993181E+06  0.3901810E+04  0.6297558E-03 -0.3090858E-02 -0.3971106E+06 -0.6780576E+04
  0.8547620E+00  0.2012355E+06  0.4991607E+04  0.4212955E-02 -0.6866455E-04 -0.3997596E+06 -0.8627629E+04
  0.8857143E+00  0.2034079E+06  0.6329502E+04 -0.1860588E-02 -0.4299164E-02 -0.4027133E+06 -0.1087727E+05
  0.9166667E+00  0.2057557E+06  0.7957268E+04 -0.1774458E-01 -0.9651184E-03 -0.4058042E+06 -0.1359041E+05
  0.9476191E+00  0.2080946E+06  0.9917549E+04 -0.2898403E-03  0.3921509E-02 -0.4090786E+06 -0.1684067E+05
  0.9785714E+00  0.2102773E+06  0.1225228E+05  0.3212142E-02  0.1567841E-02 -0.4120230E+06 -0.2068046E+05
  0.1009524E+01  0.2126241E+06  0.1502741E+05 -0.1360336E-02 -0.3578186E-02 -0.4152711E+06 -0.2521312E+05
  0.1040476E+01  0.2148735E+06  0.1828565E+05  0.1419591E-01  0.7022858E-02 -0.4181507E+06 -0.3048083E+05
  0.1071429E+01  0.2173384E+06  0.2210474E+05  0.1424154E-02  0.5607605E-03 -0.4210977E+06 -0.3658344E+05
  0.1102381E+01  0.2195880E+06  0.2652421E+05  0.1331568E-01  0.8590698E-02 -0.4237620E+06 -0.4358830E+05
  0.1133333E+01  0.2216468E+06  0.3159977E+05 -0.4039091E-02  0.1347351E-01 -0.4260309E+06 -0.5155054E+05
  0.1164286E+01  0.2236604E+06  0.3740918E+05 -0.7077082E-02  0.3211975E-02 -0.4282257E+06 -0.6058107E+05
  0.1195238E+01  0.2252783E+06  0.4394849E+05  0.1399188E-01  0.1286316E-01 -0.4296382E+06 -0.7062125E+05
  0.1226190E+01  0.2267054E+06  0.5128170E+05 -0.4081652E-02 -0.8087158E-03 -0.4306398E+06 -0.8174568E+05
  0.1257143E+01  0.2273810E+06  0.5931237E+05  0.3786954E-02 -0.6683350E-02 -0.4307826E+06 -0.9385041E+05
  0.1288095E+01  0.2279038E+06  0.6823342E+05 -0.7581446E-02 -0.1943970E-01 -0.4303134E+06 -0.1070647E+06
  0.1319048E+01  0.2277343E+06  0.7782448E+05  0.4766030E-02  0.1068115E-01 -0.4288992E+06 -0.1211168E+06
  0.1350000E+01  0.2270244E+06  0.8807728E+05  0.1139323E-01  0.1409912E-01 -0.4264345E+06 -0.1358597E+06
  0.1380952E+01  0.2256908E+06  0.9891686E+05 -0.6497087E-02 -0.1626587E-01 -0.4229857E+06 -0.1511867E+06
  0.1411905E+01  0.2226283E+06  0.1090339E+06  0.4884871E-02 -0.2319336E-02 -0.4176147E+06 -0.1653859E+06
  0.1442857E+01  0.2199812E+06  0.1205377E+06  0.2495794E-02 -0.8850098E-03 -0.4123631E+06 -0.1811473E+06
  0.1473810E+01  0.2164726E+06  0.1320906E+06  0.4058492E-02 -0.8087158E-02 -0.4058692E+06 -0.1966133E+06
  0.1504762E+01  0.2122312E+06  0.1435522E+06  0.8193390E-02  0.1397705E-01 -0.3984010E+06 -0.2116010E+06
  0.1535714E+01  0.2074952E+06  0.1548464E+06  0.4411564E-02  0.6805420E-02 -0.3904299E+06 -0.2260651E+06
  0.1566667E+01  0.2020401E+06  0.1655364E+06 -0.3272523E-02  0.1306152E-01 -0.3814294E+06 -0.2392080E+06
  0.1597619E+01  0.1961403E+06  0.1756003E+06  0.4011401E-02  0.3662109E-03 -0.3719805E+06 -0.2511409E+06
  0.1628572E+01  0.1899200E+06  0.1848523E+06  0.1761453E-02 -0.2502441E-02 -0.3621651E+06 -0.2615377E+06
  0.1659524E+01  0.1834326E+06  0.1932384E+06  0.1655042E-02 -0.5493164E-02 -0.3522767E+06 -0.2705218E+06
  0.1690476E+01  0.1767582E+06  0.2005640E+06  0.3935478E-02 -0.1892090E-02 -0.3422631E+06 -0.2777036E+06
  0.1721429E+01  0.1699243E+06  0.2066762E+06 -0.5318417E-03 -0.4943848E-02 -0.3321408E+06 -0.2828508E+06
  0.1752381E+01  0.1632776E+06  0.2119682E+06 -0.4876179E-03 -0.3723145E-02 -0.3225967E+06 -0.2868444E+06
  0.1783333E+01  0.1568318E+06  0.2163106E+06  0.2738026E-02  0.1153564E-01 -0.3135398E+06 -0.2894238E+06
  0.1814286E+01  0.1504023E+06  0.2193304E+06 -0.1497043E-02  0.3662109E-03 -0.3045682E+06 -0.2898557E+06
  0.1845238E+01  0.1443146E+06  0.2215199E+06 -0.2282321E-02  0.1251221E-01 -0.2963146E+06 -0.2891997E+06
  0.1876190E+01  0.1385613E+06  0.2228345E+06  0.5205029E-02  0.9948730E-02 -0.2886426E+06 -0.2872676E+06
  0.1907143E+01  0.1331750E+06  0.2234510E+06 -0.5104551E-02  0.7446289E-02 -0.2817291E+06 -0.2845776E+06
  0.1938095E+01  0.1280685E+06  0.2232360E+06  0.1102232E-02 -0.2990723E-02 -0.2753731E+06 -0.2808637E+06
  0.1969048E+01  0.1232431E+06  0.2220973E+06  0.4525606E-02  0.7324219E-03 -0.2693776E+06 -0.2756308E+06
  0.2000000E+01  0.1187986E+06  0.2204860E+06 -0.1953125E-02  0.7934570E-02 -0.2640590E+06 -0.2699884E+06
Zone t="Motion of body    1 in DoF   2",I=    64,F=POINT
  0.5000000E-01 -0.1266479E-01 -0.1668930E-05  0.3935971E+05  0.1053722E+03 -0.4301071E-02 -0.5996227E-04
  0.8095238E-01 -0.1526776E-01 -0.9179115E-04  0.3891943E+05  0.1748086E+03 -0.5280102E-01  0.2174377E-03
  0.1119048E+00 -0.2658925E-02  0.2670288E-04  0.3868430E+05  0.2505237E+03 -0.3204346E-02  0.1690388E-03
  0.1428571E+00 -0.1441955E-02  0.4482269E-04  0.3858046E+05  0.3354609E+03 -0.6795883E-02 -0.1356602E-03
  0.1738095E+00  0.6935433E-02  0.7057190E-04  0.3856237E+05  0.4333208E+03 -0.4229297E-01 -0.5638599E-04
  0.2047619E+00 -0.1184863E-01  0.3051758E-04  0.3864016E+05  0.5487732E+03  0.3245331E-01 -0.1835823E-04
  0.2357143E+00  0.5114006E-02 -0.1258850E-03  0.3876120E+05  0.6883571E+03  0.2136230E-02 -0.1358986E-04
  0.2666667E+00  0.1041412E-01 -0.2689362E-03  0.3895286E+05  0.8577394E+03 -0.8811951E-02 -0.2505779E-03
  0.2976190E+00 -0.8356933E-02 -0.2403259E-03  0.3917635E+05  0.1069283E+04 -0.1079224E-01  0.1730919E-03
  0.3285715E+00 -0.1541801E-01 -0.6675720E-04  0.3942646E+05  0.1330011E+04  0.6153272E-02 -0.5364418E-03
  0.3595238E+00 -0.1167146E-01  0.2365112E-03  0.3967286E+05  0.1654952E+04  0.1708277E-01  0.1101971E-02
  0.3904762E+00 -0.1320816E-01 -0.2555847E-03  0.3992904E+05  0.2056034E+04 -0.1937261E-01 -0.3519058E-03
  0.4214286E+00 -0.9993212E-02  0.2708435E-03  0.4007889E+05  0.2530397E+04  0.3414348E-01 -0.1248360E-02
  0.4523810E+00 -0.5261872E-02  0.1945496E-03  0.4018413E+05  0.3102850E+04 -0.1462193E-01  0.1969337E-02
  0.4833333E+00 -0.1875252E-01  0.1075745E-02  0.4016471E+05  0.3729046E+04 -0.6456046E-02  0.7266998E-03
  0.5142857E+00 -0.8248224E-02 -0.9841919E-03  0.4004636E+05  0.4438348E+04  0.1462725E-01  0.1399994E-02
  0.5452381E+00 -0.9683001E-02  0.6637573E-03  0.3983158E+05  0.5195054E+04 -0.4343358E-01 -0.4711151E-03
  0.5761905E+00 -0.1403556E-01 -0.1998901E-02  0.3951675E+05  0.5986747E+04  0.3773713E-02 -0.2399445E-02
  0.6071429E+00 -0.1055549E-01 -0.1502991E-02  0.3912736E+05  0.6830648E+04 -0.1168644E-02  0.4730225E-03
  0.6380953E+00  0.5452170E-02 -0.1373291E-03  0.3870604E+05  0.7683492E+04  0.2840868E-01 -0.9632111E-02
  0.6690477E+00 -0.6842019E-02  0.9460449E-03  0.3821539E+05  0.8562191E+04  0.8837608E-02 -0.3128052E-02
  0.7000000E+00 -0.2485003E-02 -0.4272461E-03  0.3765677E+05  0.9469293E+04 -0.2073015E-01 -0.1014709E-02
  0.7309524E+00 -0.7515077E-03  0.3051758E-03  0.3706640E+05  0.1038148E+05 -0.2788929E-01 -0.8010864E-02
  0.7619048E+00  0.1041412E-02 -0.1068115E-02  0.3644826E+05  0.1130133E+05  0.3104210E-03 -0.3295898E-02
  0.7928572E+00 -0.1924532E-03 -0.3067017E-02  0.3579325E+05  0.1222645E+05  0.1615644E-01 -0.3509521E-03
  0.8238096E+00 -0.1259512E-02 -0.2441406E-02  0.3510817E+05  0.1314940E+05  0.8131258E-02  0.6767273E-02
  0.8547620E+00 -0.1428121E-02 -0.4241943E-02  0.3439621E+05  0.1406414E+05  0.2006509E-01 -0.7324219E-03
  0.8857143E+00 -0.2411873E-02  0.1617432E-02  0.3366016E+05  0.1496502E+05 -0.3962363E-03 -0.8506775E-02
  0.9166667E+00 -0.4760742E-02 -0.6530762E-02  0.3291325E+05  0.1584629E+05 -0.1325018E-01  0.7713318E-02
  0.9476191E+00  0.8469778E-02 -0.1251221E-02  0.3215624E+05  0.1670399E+05 -0.2419361E-01  0.4348755E-03
  0.9785714E+00 -0.2619611E-02  0.3295898E-02  0.3138582E+05  0.1753548E+05  0.1863354E-02  0.4356384E-02
  0.1009524E+01  0.5562261E-02  0.6103516E-03  0.3061929E+05  0.1833363E+05  0.1692862E-02 -0.9460449E-03
  0.1040476E+01 -0.1437189E-02  0.9460449E-03  0.2985325E+05  0.1909890E+05  0.8542477E-02  0.1960754E-02
  0.1071429E+01 -0.2905274E-02  0.1678467E-02  0.2908997E+05  0.1982536E+05 -0.2525737E-01  0.6233215E-02
  0.1102381E+01 -0.5675083E-02  0.1403809E-02  0.2833263E+05  0.2051404E+05 -0.4056300E-01  0.2403259E-02
  0.1133333E+01 -0.4604564E-02  0.1159668E-02  0.2758119E+05  0.2116143E+05 -0.1270294E-01  0.1345062E-01
  0.1164286E+01 -0.8544921E-02  0.4486084E-02  0.2685130E+05  0.2176400E+05  0.6120366E-02  0.9918213E-03
  0.1195238E+01 -0.2808590E-02 -0.5523682E-02  0.2614031E+05  0.2232379E+05 -0.1204502E-01 -0.1356506E-01
  0.1226190E+01  0.1786967E-01  0.4699707E-02  0.2544945E+05  0.2283699E+05 -0.1159787E-01  0.4165649E-02
  0.1257143E+01  0.1043840E-02 -0.8117676E-02  0.2478265E+05  0.2331994E+05  0.9048635E-02 -0.6240845E-02
  0.1288095E+01  0.1004542E-01 -0.1892090E-02  0.2412701E+05  0.2373609E+05 -0.9891419E-03 -0.1235962E-01
  0.1319048E+01 -0.1503845E-02 -0.1831055E-03  0.2350273E+05  0.2412116E+05 -0.4482613E-02 -0.2290344E-01
  0.1350000E+01  0.3436053E-02  0.4943848E-02  0.2289880E+05  0.2446750E+05 -0.2074065E-02 -0.4043579E-02
  0.1380952E+01  0.7513638E-02 -0.5493164E-02  0.2232639E+05  0.2477084E+05  0.6104831E-02 -0.7919312E-02
  0.1411905E+01 -0.5446847E-02  0.3723145E-02  0.2177876E+05  0.2510561E+05  0.1249317E-01  0.1231384E-01
  0.1442857E+01  0.1099841E-02 -0.3234863E-02  0.2125220E+05  0.2533552E+05 -0.1125222E-01 -0.3067017E-02
  0.1473810E+01 -0.2070660E-04 -0.2075195E-02  0.2074766E+05  0.2553489E+05 -0.1059142E-01 -0.1774597E-01
  0.1504762E+01  0.7179357E-02  0.3417969E-02  0.2027201E+05  0.2570569E+05 -0.9374739E-02 -0.1480103E-02
  0.1535714E+01  0.1987191E-04 -0.1953125E-02  0.1982559E+05  0.2583709E+05 -0.2934087E-01 -0.5950928E-03
  0.1566667E+01 -0.1558344E-02 -0.6896973E-02  0.1939937E+05  0.2594956E+05  0.2805020E-02 -0.1525879E-04
  0.1597619E+01 -0.5635064E-02  0.7446289E-02  0.1900419E+05  0.2603735E+05  0.4283604E-02  0.1748657E-01
  0.1628572E+01  0.2117492E-02 -0.5187988E-02  0.1862634E+05  0.2609689E+05 -0.6108869E-02  0.8239746E-02
  0.1659524E+01  0.2261891E-02  0.4882812E-02  0.1827221E+05  0.2614233E+05  0.1195308E-02 -0.7568359E-02
  0.1690476E+01 -0.8123693E-03 -0.1043701E-01  0.1793753E+05  0.2617564E+05  0.1570129E-01  0.6637573E-02
  0.1721429E+01 -0.5593201E-02 -0.1324463E-01  0.1761233E+05  0.2619792E+05  0.4906239E-02  0.7629395E-02
  0.1752381E+01  0.2220403E-02  0.1324463E-01  0.1731490E+05  0.2620733E+05  0.5228831E-02 -0.4547119E-02
  0.1783333E+01  0.5886755E-02  0.6958008E-02  0.1703022E+05  0.2619779E+05 -0.9337096E-02  0.7171631E-03
  0.1814286E+01  0.1682071E-02 -0.7751465E-02  0.1675026E+05  0.2619027E+05 -0.7947787E-03  0.1953125E-02
  0.1845238E+01  0.4457142E-02  0.7568359E-02  0.1649132E+05  0.2617331E+05  0.1385104E-02  0.4211426E-02
  0.1876190E+01 -0.1219929E-02  0.6835938E-02  0.1624099E+05  0.2614158E+05  0.6140308E-03 -0.1091003E-01
  0.1907143E+01  0.2280246E-02 -0.2929688E-02  0.1600208E+05  0.2610026E+05 -0.9142986E-02  0.1800537E-02
  0.1938095E+01  0.5912687E-02 -0.3540039E-02  0.1577015E+05  0.2606780E+05 -0.7766799E-02 -0.1454163E-01
  0.1969048E+01 -0.1228268E-02 -0.9155273E-03  0.1553017E+05  0.2601482E+05  0.3555003E-02  0.1502991E-01
  0.2000000E+01  0.1258850E-03 -0.4943848E-02  0.1529661E+05  0.2595685E+05 -0.9750366E-02  0.6637573E-02
Zone t="Motion of body    1 in DoF   3",I=    64,F=POINT
  0.5000000E-01 -0.3631914E+06 -0.2077183E-01 -0.5479813E-01 -0.1435741E-03  0.1003891E+07  0.3892473E-01
  0.8095238E-01 -0.3657740E+06 -0.9086461E-01 -0.1604529E-01 -0.1531550E-03  0.1007468E+07  0.1705737E+00
  0.1119048E+00 -0.3667935E+06 -0.2557863E+00 -0.3153212E-01 -0.1160685E-03  0.1008254E+07  0.4758880E+00
  0.1428571E+00 -0.3671386E+06 -0.5713225E+00 -0.1284676E+00 -0.9862063E-03  0.1008702E+07  0.1060883E+01
  0.1738095E+00 -0.3675530E+06 -0.1138314E+01 -0.7615808E-01 -0.5700593E-03  0.1009283E+07  0.2111889E+01
  0.2047619E+00 -0.3678535E+06 -0.2101001E+01 -0.7852510E-01 -0.9807004E-03  0.1009734E+07  0.3897371E+01
  0.2357143E+00 -0.3682407E+06 -0.3693885E+01 -0.2294829E-01 -0.2807556E-03  0.1010278E+07  0.6839743E+01
  0.2666667E+00 -0.3687202E+06 -0.6291281E+01  0.6551742E-02 -0.1018671E-03  0.1010920E+07  0.1162626E+02
  0.2976190E+00 -0.3691862E+06 -0.1053049E+02 -0.4696289E-01 -0.1027299E-02  0.1011738E+07  0.1944317E+02
  0.3285715E+00 -0.3698208E+06 -0.1739143E+02 -0.2205890E-01 -0.1563326E-02  0.1012593E+07  0.3203401E+02
  0.3595238E+00 -0.3705192E+06 -0.2851402E+02 -0.8063916E-02 -0.8888319E-03  0.1013631E+07  0.5239487E+02
  0.3904762E+00 -0.3712193E+06 -0.4635499E+02  0.3071482E-01  0.1032300E-02  0.1014672E+07  0.8500568E+02
  0.4214286E+00 -0.3720783E+06 -0.7443382E+02  0.5662820E-01  0.3947377E-02  0.1016012E+07  0.1361258E+03
  0.4523810E+00 -0.3733021E+06 -0.1185628E+03  0.2654547E-01  0.1716256E-02  0.1017665E+07  0.2161410E+03
  0.4833333E+00 -0.3743688E+06 -0.1839698E+03  0.1733188E-01  0.6382257E-02  0.1019306E+07  0.3344640E+03
  0.5142857E+00 -0.3755295E+06 -0.2809205E+03  0.3753239E-01  0.2574265E-02  0.1021051E+07  0.5091645E+03
  0.5452381E+00 -0.3768074E+06 -0.4188139E+03 -0.4779932E-01 -0.4534125E-02  0.1022996E+07  0.7565126E+03
  0.5761905E+00 -0.3783360E+06 -0.6098370E+03 -0.3206994E-01 -0.5562663E-02  0.1025274E+07  0.1097464E+04
  0.6071429E+00 -0.3801708E+06 -0.8722377E+03 -0.2121151E-01 -0.1400709E-02  0.1027875E+07  0.1563738E+04
  0.6380953E+00 -0.3817825E+06 -0.1218777E+04  0.6145648E-02  0.4818439E-02  0.1030462E+07  0.2177463E+04
  0.6690477E+00 -0.3836103E+06 -0.1674818E+04  0.2330848E-01  0.3766537E-02  0.1033278E+07  0.2980121E+04
  0.7000000E+00 -0.3859428E+06 -0.2269792E+04  0.6648472E-02  0.7596016E-03  0.1036506E+07  0.4019546E+04
  0.7309524E+00 -0.3880638E+06 -0.3026608E+04  0.4396320E-01  0.1338959E-02  0.1039630E+07  0.5335126E+04
  0.7619048E+00 -0.3905027E+06 -0.3984374E+04  0.4261779E-01  0.1474190E-01  0.1043268E+07  0.6991494E+04
  0.7928572E+00 -0.3930602E+06 -0.5183155E+04 -0.7467183E-02 -0.2145767E-02  0.1046926E+07  0.9050044E+04
  0.8238096E+00 -0.3957938E+06 -0.6666833E+04 -0.4997297E-01 -0.1456451E-01  0.1050985E+07  0.1158559E+05
  0.8547620E+00 -0.3983936E+06 -0.8483491E+04  0.4534283E-02 -0.2321243E-02  0.1054745E+07  0.1466292E+05
  0.8857143E+00 -0.4013294E+06 -0.1069740E+05  0.2852901E-01  0.4400253E-02  0.1058862E+07  0.1838351E+05
  0.9166667E+00 -0.4044376E+06 -0.1336989E+05  0.4680841E-01  0.1834488E-01  0.1062961E+07  0.2283433E+05
  0.9476191E+00 -0.4076381E+06 -0.1656255E+05 -0.3317061E-01 -0.3392792E-01  0.1067419E+07  0.2812410E+05
  0.9785714E+00 -0.4104743E+06 -0.2033341E+05 -0.1587360E-01  0.1112366E-01  0.1071220E+07  0.3431956E+05
  0.1009524E+01 -0.4136139E+06 -0.2477729E+05  0.4906277E-01  0.2807617E-01  0.1075447E+07  0.4157059E+05
  0.1040476E+01 -0.4164082E+06 -0.2995123E+05  0.2053128E-02 -0.4432678E-02  0.1079075E+07  0.4992605E+05
  0.1071429E+01 -0.4193905E+06 -0.3595926E+05 -0.2606201E-01 -0.1103210E-01  0.1082445E+07  0.5951030E+05
  0.1102381E+01 -0.4220208E+06 -0.4284657E+05 -0.1013210E-01 -0.2819061E-01  0.1085502E+07  0.7040859E+05
  0.1133333E+01 -0.4242445E+06 -0.5067449E+05  0.3231273E-03  0.2624512E-01  0.1087791E+07  0.8266589E+05
  0.1164286E+01 -0.4263973E+06 -0.5953746E+05 -0.7339196E-02  0.5310059E-02  0.1089779E+07  0.9640992E+05
  0.1195238E+01 -0.4277760E+06 -0.6940766E+05 -0.2144741E-01 -0.8071899E-02  0.1090617E+07  0.1115281E+06
  0.1226190E+01 -0.4287738E+06 -0.8033662E+05 -0.2837246E-01 -0.2688599E-01  0.1090402E+07  0.1280514E+06
  0.1257143E+01 -0.4288274E+06 -0.9216798E+05 -0.1165217E-01  0.1281738E-01  0.1089227E+07  0.1458298E+06
  0.1288095E+01 -0.4283162E+06 -0.1051318E+06  0.4880556E-02 -0.9918213E-02  0.1086765E+07  0.1649500E+06
  0.1319048E+01 -0.4268852E+06 -0.1188963E+06 -0.6663188E-02 -0.3067017E-01  0.1083107E+07  0.1850278E+06
  0.1350000E+01 -0.4245068E+06 -0.1333915E+06 -0.7911964E-02 -0.1626587E-01  0.1077701E+07  0.2057301E+06
  0.1380952E+01 -0.4211748E+06 -0.1484867E+06  0.2050781E-01 -0.1281738E-01  0.1071037E+07  0.2269230E+06
  0.1411905E+01 -0.4166619E+06 -0.1629499E+06  0.2334363E-02  0.1092529E-01  0.1062638E+07  0.2471375E+06
  0.1442857E+01 -0.4114846E+06 -0.1784476E+06 -0.2804596E-01 -0.1861572E-01  0.1053258E+07  0.2681298E+06
  0.1473810E+01 -0.4050733E+06 -0.1936578E+06  0.1134721E-01  0.9338379E-02  0.1042194E+07  0.2881904E+06
  0.1504762E+01 -0.3977042E+06 -0.2084032E+06 -0.6530375E-02 -0.1464844E-01  0.1029958E+07  0.3071250E+06
  0.1535714E+01 -0.3898156E+06 -0.2225470E+06 -0.1633471E-01 -0.1983643E-01  0.1017161E+07  0.3248247E+06
  0.1566667E+01 -0.3809572E+06 -0.2354723E+06  0.9272149E-02  0.2752686E-01  0.1003109E+07  0.3401533E+06
  0.1597619E+01 -0.3716624E+06 -0.2472218E+06  0.2941694E-01  0.7934570E-02  0.9888574E+06  0.3534767E+06
  0.1628572E+01 -0.3620053E+06 -0.2574494E+06 -0.2136230E-02  0.8422852E-02  0.9740600E+06  0.3641527E+06
  0.1659524E+01 -0.3522700E+06 -0.2662340E+06  0.1489538E-01  0.4150391E-02  0.9595647E+06  0.3725472E+06
  0.1690476E+01 -0.3424384E+06 -0.2733292E+06 -0.1135512E-01 -0.3259277E-01  0.9453119E+06  0.3782591E+06
  0.1721429E+01 -0.3325106E+06 -0.2785122E+06 -0.2379105E-01 -0.2807617E-01  0.9311082E+06  0.3809152E+06
  0.1752381E+01 -0.3231347E+06 -0.2824619E+06  0.9229910E-03 -0.1464844E-02  0.9181354E+06  0.3819791E+06
  0.1783333E+01 -0.3142324E+06 -0.2848994E+06 -0.1228689E-01 -0.2929688E-02  0.9058585E+06  0.3808162E+06
  0.1814286E+01 -0.3054259E+06 -0.2854414E+06  0.2502081E-01  0.2600098E-01  0.8941020E+06  0.3768264E+06
  0.1845238E+01 -0.2973199E+06 -0.2848721E+06  0.5366762E-02  0.2612305E-01  0.8836441E+06  0.3715148E+06
  0.1876190E+01 -0.2897834E+06 -0.2829777E+06 -0.8140991E-02 -0.1831055E-03  0.8738806E+06  0.3642875E+06
  0.1907143E+01 -0.2829932E+06 -0.2802249E+06  0.3852416E-02 -0.9765625E-03  0.8653868E+06  0.3561851E+06
  0.1938095E+01 -0.2767468E+06 -0.2765636E+06  0.2221981E-01  0.1336670E-01  0.8581635E+06  0.3473092E+06
  0.1969048E+01 -0.2708563E+06 -0.2715375E+06  0.1647991E-01 -0.8117676E-02  0.8511954E+06  0.3361256E+06
  0.2000000E+01 -0.2656289E+06 -0.2660950E+06 -0.1204872E-01 -0.1171875E-01  0.8453885E+06  0.3248587E+06
