VARIABLES="w (rad/s)"
"abs(F   1   1)" "angle(F   1   1)"
"abs(F   1   2)" "angle(F   1   2)"
"abs(F   1   3)" "angle(F   1   3)"
Zone t="Diffraction force - beta =   0.000 deg",I=    64,F=POINT
  0.5000000E-01  0.2824628E+04 -0.1570794E+01  0.1978759E+03 -0.3103797E+01  0.5901257E+04  0.1570799E+01
  0.8095238E-01  0.4632395E+04 -0.1570790E+01  0.5141423E+03 -0.3102617E+01  0.9681087E+04  0.1570802E+01
  0.1119048E+00  0.6471506E+04 -0.1570784E+01  0.9760295E+03 -0.3101062E+01  0.1352882E+05  0.1570808E+01
  0.1428571E+00  0.8384932E+04 -0.1570775E+01  0.1584762E+04 -0.3099109E+01  0.1751412E+05  0.1570817E+01
  0.1738095E+00  0.1038543E+05 -0.1570762E+01  0.2342189E+04 -0.3096687E+01  0.2167774E+05  0.1570830E+01
  0.2047619E+00  0.1248405E+05 -0.1570742E+01  0.3238845E+04 -0.3093463E+01  0.2604356E+05  0.1570850E+01
  0.2357143E+00  0.1473892E+05 -0.1570714E+01  0.4289402E+04 -0.3089528E+01  0.3071663E+05  0.1570878E+01
  0.2666667E+00  0.1715636E+05 -0.1570672E+01  0.5481178E+04 -0.3084692E+01  0.3572885E+05  0.1570919E+01
  0.2976190E+00  0.1978929E+05 -0.1570611E+01  0.6822873E+04 -0.3078627E+01  0.4117657E+05  0.1570980E+01
  0.3285715E+00  0.2269709E+05 -0.1570519E+01  0.8300309E+04 -0.3071336E+01  0.4717819E+05  0.1571070E+01
  0.3595238E+00  0.2590334E+05 -0.1570381E+01  0.9922451E+04 -0.3062551E+01  0.5375285E+05  0.1571206E+01
  0.3904762E+00  0.2945072E+05 -0.1570175E+01  0.1165515E+05 -0.3052004E+01  0.6104177E+05  0.1571409E+01
  0.4214286E+00  0.3343629E+05 -0.1569874E+01  0.1352584E+05 -0.3040548E+01  0.6922729E+05  0.1571706E+01
  0.4523810E+00  0.3780585E+05 -0.1569432E+01  0.1543828E+05 -0.3026664E+01  0.7818934E+05  0.1572142E+01
  0.4833333E+00  0.4268761E+05 -0.1568820E+01  0.1747213E+05 -0.3013320E+01  0.8808023E+05  0.1572747E+01
  0.5142857E+00  0.4795512E+05 -0.1567968E+01  0.1950138E+05 -0.2998307E+01  0.9877910E+05  0.1573589E+01
  0.5452381E+00  0.5368291E+05 -0.1566831E+01  0.2158138E+05 -0.2983554E+01  0.1104073E+06  0.1574711E+01
  0.5761905E+00  0.5982012E+05 -0.1565353E+01  0.2372385E+05 -0.2969610E+01  0.1228440E+06  0.1576170E+01
  0.6071429E+00  0.6640988E+05 -0.1563441E+01  0.2576854E+05 -0.2954309E+01  0.1360170E+06  0.1578060E+01
  0.6380953E+00  0.7340805E+05 -0.1561054E+01  0.2788925E+05 -0.2940793E+01  0.1499660E+06  0.1580420E+01
  0.6690477E+00  0.8073249E+05 -0.1558083E+01  0.2999807E+05 -0.2927554E+01  0.1645972E+06  0.1583355E+01
  0.7000000E+00  0.8846245E+05 -0.1554423E+01  0.3197749E+05 -0.2913394E+01  0.1800948E+06  0.1586966E+01
  0.7309524E+00  0.9661988E+05 -0.1550002E+01  0.3399086E+05 -0.2900535E+01  0.1961095E+06  0.1591339E+01
  0.7619048E+00  0.1052882E+06 -0.1544697E+01  0.3603138E+05 -0.2888652E+01  0.2130532E+06  0.1596587E+01
  0.7928572E+00  0.1142265E+06 -0.1538367E+01  0.3782312E+05 -0.2875480E+01  0.2304371E+06  0.1602850E+01
  0.8238096E+00  0.1236085E+06 -0.1530905E+01  0.3958989E+05 -0.2862976E+01  0.2486489E+06  0.1610230E+01
  0.8547620E+00  0.1334983E+06 -0.1522205E+01  0.4135182E+05 -0.2851519E+01  0.2677682E+06  0.1618835E+01
  0.8857143E+00  0.1436368E+06 -0.1512083E+01  0.4303607E+05 -0.2840579E+01  0.2873785E+06  0.1628834E+01
  0.9166667E+00  0.1542018E+06 -0.1500437E+01  0.4448945E+05 -0.2828874E+01  0.3074502E+06  0.1640360E+01
  0.9476191E+00  0.1652792E+06 -0.1487134E+01  0.4586971E+05 -0.2817674E+01  0.3281652E+06  0.1653546E+01
  0.9785714E+00  0.1768056E+06 -0.1472048E+01  0.4720139E+05 -0.2807334E+01  0.3496298E+06  0.1668501E+01
  0.1009524E+01  0.1886310E+06 -0.1455019E+01  0.4850977E+05 -0.2798081E+01  0.3717065E+06  0.1685358E+01
  0.1040476E+01  0.2004844E+06 -0.1435894E+01  0.4948632E+05 -0.2787678E+01  0.3933681E+06  0.1704319E+01
  0.1071429E+01  0.2127745E+06 -0.1414636E+01  0.5036347E+05 -0.2777486E+01  0.4161053E+06  0.1725341E+01
  0.1102381E+01  0.2250199E+06 -0.1391095E+01  0.5116132E+05 -0.2767995E+01  0.4381971E+06  0.1748663E+01
  0.1133333E+01  0.2375233E+06 -0.1365303E+01  0.5188966E+05 -0.2759167E+01  0.4605331E+06  0.1774217E+01
  0.1164286E+01  0.2499702E+06 -0.1337120E+01  0.5258209E+05 -0.2751284E+01  0.4824411E+06  0.1802148E+01
  0.1195238E+01  0.2620492E+06 -0.1306504E+01  0.5294209E+05 -0.2742506E+01  0.5029028E+06  0.1832562E+01
  0.1226190E+01  0.2739555E+06 -0.1273504E+01  0.5318264E+05 -0.2733693E+01  0.5232813E+06  0.1865273E+01
  0.1257143E+01  0.2848351E+06 -0.1238209E+01  0.5332402E+05 -0.2725054E+01  0.5413996E+06  0.1900244E+01
  0.1288095E+01  0.2957475E+06 -0.1200745E+01  0.5339823E+05 -0.2717364E+01  0.5590190E+06  0.1937449E+01
  0.1319048E+01  0.3055637E+06 -0.1161432E+01  0.5340166E+05 -0.2709888E+01  0.5745481E+06  0.1976402E+01
  0.1350000E+01  0.3139643E+06 -0.1120167E+01  0.5337188E+05 -0.2703022E+01  0.5875136E+06  0.2017203E+01
  0.1380952E+01  0.3208936E+06 -0.1077503E+01  0.5298191E+05 -0.2695333E+01  0.5968904E+06  0.2059474E+01
  0.1411905E+01  0.3261135E+06 -0.1033315E+01  0.5250976E+05 -0.2687303E+01  0.6039337E+06  0.2102976E+01
  0.1442857E+01  0.3302499E+06 -0.9888383E+00  0.5195667E+05 -0.2679626E+01  0.6080088E+06  0.2146939E+01
  0.1473810E+01  0.3327852E+06 -0.9439347E+00  0.5135048E+05 -0.2672379E+01  0.6084458E+06  0.2191482E+01
  0.1504762E+01  0.3338929E+06 -0.8989687E+00  0.5067755E+05 -0.2665214E+01  0.6063307E+06  0.2236003E+01
  0.1535714E+01  0.3333928E+06 -0.8542460E+00  0.4995943E+05 -0.2658235E+01  0.6015895E+06  0.2280137E+01
  0.1566667E+01  0.3309253E+06 -0.8100993E+00  0.4915528E+05 -0.2651488E+01  0.5931816E+06  0.2323687E+01
  0.1597619E+01  0.3266296E+06 -0.7669320E+00  0.4811935E+05 -0.2644309E+01  0.5810664E+06  0.2366302E+01
  0.1628572E+01  0.3211957E+06 -0.7248251E+00  0.4702080E+05 -0.2636636E+01  0.5675486E+06  0.2407708E+01
  0.1659524E+01  0.3145833E+06 -0.6841580E+00  0.4586722E+05 -0.2628814E+01  0.5520299E+06  0.2447587E+01
  0.1690476E+01  0.3066633E+06 -0.6453053E+00  0.4467338E+05 -0.2621244E+01  0.5337200E+06  0.2485864E+01
  0.1721429E+01  0.2979649E+06 -0.6080874E+00  0.4344100E+05 -0.2613763E+01  0.5143691E+06  0.2522452E+01
  0.1752381E+01  0.2885854E+06 -0.5725965E+00  0.4216813E+05 -0.2606098E+01  0.4942030E+06  0.2557149E+01
  0.1783333E+01  0.2782376E+06 -0.5384774E+00  0.4085702E+05 -0.2598316E+01  0.4727800E+06  0.2590383E+01
  0.1814286E+01  0.2671823E+06 -0.5062225E+00  0.3946907E+05 -0.2590578E+01  0.4501452E+06  0.2621742E+01
  0.1845238E+01  0.2555041E+06 -0.4759044E+00  0.3797175E+05 -0.2582957E+01  0.4264008E+06  0.2651230E+01
  0.1876190E+01  0.2437349E+06 -0.4471209E+00  0.3642386E+05 -0.2575254E+01  0.4032700E+06  0.2679055E+01
  0.1907143E+01  0.2319161E+06 -0.4197079E+00  0.3484706E+05 -0.2567792E+01  0.3805301E+06  0.2705289E+01
  0.1938095E+01  0.2197139E+06 -0.3936952E+00  0.3327786E+05 -0.2560913E+01  0.3569899E+06  0.2730166E+01
  0.1969048E+01  0.2075128E+06 -0.3692286E+00  0.3171820E+05 -0.2554846E+01  0.3338904E+06  0.2753500E+01
  0.2000000E+01  0.1953437E+06 -0.3461778E+00  0.3014465E+05 -0.2549599E+01  0.3113119E+06  0.2775120E+01
