VARIABLES="w (rad/s)"
"abs(F   1   1)" "angle(F   1   1)"
"abs(F   1   2)" "angle(F   1   2)"
"abs(F   1   3)" "angle(F   1   3)"
Zone t="Diffraction force - beta =   0.000 deg",I=    64,F=POINT
  0.5000000E-01  0.2024062E+04 -0.1570777E+01  0.8903502E+05 -0.6103743E-05  0.7122318E+04  0.1570818E+01
  0.8095238E-01  0.3307101E+04 -0.1570800E+01  0.8873114E+05 -0.1639510E-04  0.1162237E+05  0.1570808E+01
  0.1119048E+00  0.4612825E+04 -0.1570796E+01  0.8828431E+05 -0.3247835E-04  0.1619865E+05  0.1570781E+01
  0.1428571E+00  0.5958861E+04 -0.1570793E+01  0.8769549E+05 -0.5554020E-04  0.2090174E+05  0.1570798E+01
  0.1738095E+00  0.7356912E+04 -0.1570788E+01  0.8696562E+05 -0.8725687E-04  0.2577067E+05  0.1570808E+01
  0.2047619E+00  0.8818805E+04 -0.1570781E+01  0.8609584E+05 -0.1302562E-03  0.3085298E+05  0.1570807E+01
  0.2357143E+00  0.1036801E+05 -0.1570780E+01  0.8508893E+05 -0.1881887E-03  0.3621392E+05  0.1570813E+01
  0.2666667E+00  0.1201983E+05 -0.1570773E+01  0.8394668E+05 -0.2652739E-03  0.4190877E+05  0.1570824E+01
  0.2976190E+00  0.1379713E+05 -0.1570757E+01  0.8267352E+05 -0.3694844E-03  0.4801712E+05  0.1570835E+01
  0.3285715E+00  0.1573323E+05 -0.1570744E+01  0.8127345E+05 -0.5076106E-03  0.5462251E+05  0.1570850E+01
  0.3595238E+00  0.1784037E+05 -0.1570715E+01  0.7975429E+05 -0.6922313E-03  0.6179024E+05  0.1570877E+01
  0.3904762E+00  0.2015188E+05 -0.1570676E+01  0.7812123E+05 -0.9354880E-03  0.6960892E+05  0.1570919E+01
  0.4214286E+00  0.2269257E+05 -0.1570615E+01  0.7638869E+05 -0.1244820E-02  0.7815855E+05  0.1570974E+01
  0.4523810E+00  0.2545855E+05 -0.1570530E+01  0.7455925E+05 -0.1646082E-02  0.8741181E+05  0.1571061E+01
  0.4833333E+00  0.2847332E+05 -0.1570413E+01  0.7265592E+05 -0.2120171E-02  0.9741040E+05  0.1571180E+01
  0.5142857E+00  0.3168829E+05 -0.1570251E+01  0.7067816E+05 -0.2700269E-02  0.1080296E+06  0.1571339E+01
  0.5452381E+00  0.3511310E+05 -0.1570037E+01  0.6864016E+05 -0.3371514E-02  0.1192312E+06  0.1571556E+01
  0.5761905E+00  0.3869474E+05 -0.1569761E+01  0.6655251E+05 -0.4133560E-02  0.1308621E+06  0.1571831E+01
  0.6071429E+00  0.4242612E+05 -0.1569405E+01  0.6441497E+05 -0.5017331E-02  0.1428613E+06  0.1572188E+01
  0.6380953E+00  0.4631001E+05 -0.1568965E+01  0.6224819E+05 -0.5985124E-02  0.1551855E+06  0.1572629E+01
  0.6690477E+00  0.5026408E+05 -0.1568421E+01  0.6005081E+05 -0.7069838E-02  0.1676578E+06  0.1573172E+01
  0.7000000E+00  0.5431438E+05 -0.1567755E+01  0.5782693E+05 -0.8288839E-02  0.1802766E+06  0.1573838E+01
  0.7309524E+00  0.5847414E+05 -0.1566958E+01  0.5559714E+05 -0.9616232E-02  0.1929783E+06  0.1574634E+01
  0.7619048E+00  0.6266372E+05 -0.1566009E+01  0.5336196E+05 -0.1107906E-01  0.2056581E+06  0.1575584E+01
  0.7928572E+00  0.6690655E+05 -0.1564886E+01  0.5112381E+05 -0.1269150E-01  0.2183206E+06  0.1576706E+01
  0.8238096E+00  0.7118789E+05 -0.1563573E+01  0.4889239E+05 -0.1445550E-01  0.2308637E+06  0.1578019E+01
  0.8547620E+00  0.7553600E+05 -0.1562051E+01  0.4668792E+05 -0.1635303E-01  0.2433911E+06  0.1579542E+01
  0.8857143E+00  0.7984873E+05 -0.1560299E+01  0.4450257E+05 -0.1842600E-01  0.2555931E+06  0.1581295E+01
  0.9166667E+00  0.8419367E+05 -0.1558295E+01  0.4233961E+05 -0.2068797E-01  0.2676414E+06  0.1583297E+01
  0.9476191E+00  0.8851600E+05 -0.1556020E+01  0.4020841E+05 -0.2314646E-01  0.2793168E+06  0.1585572E+01
  0.9785714E+00  0.9288200E+05 -0.1553453E+01  0.3813209E+05 -0.2572617E-01  0.2908150E+06  0.1588138E+01
  0.1009524E+01  0.9717314E+05 -0.1550571E+01  0.3609750E+05 -0.2853224E-01  0.3019168E+06  0.1591019E+01
  0.1040476E+01  0.1014004E+06 -0.1547357E+01  0.3410808E+05 -0.3157984E-01  0.3125501E+06  0.1594232E+01
  0.1071429E+01  0.1056045E+06 -0.1543790E+01  0.3216570E+05 -0.3490448E-01  0.3228526E+06  0.1597798E+01
  0.1102381E+01  0.1097555E+06 -0.1539858E+01  0.3028560E+05 -0.3840916E-01  0.3326135E+06  0.1601728E+01
  0.1133333E+01  0.1138915E+06 -0.1535540E+01  0.2847198E+05 -0.4207268E-01  0.3419842E+06  0.1606042E+01
  0.1164286E+01  0.1178864E+06 -0.1530820E+01  0.2671991E+05 -0.4602516E-01  0.3507038E+06  0.1610760E+01
  0.1195238E+01  0.1217481E+06 -0.1525684E+01  0.2502904E+05 -0.5030132E-01  0.3587163E+06  0.1615892E+01
  0.1226190E+01  0.1255636E+06 -0.1520107E+01  0.2339947E+05 -0.5494957E-01  0.3663469E+06  0.1621465E+01
  0.1257143E+01  0.1291476E+06 -0.1514120E+01  0.2183303E+05 -0.6007793E-01  0.3730070E+06  0.1627445E+01
  0.1288095E+01  0.1328096E+06 -0.1507625E+01  0.2034998E+05 -0.6496535E-01  0.3794309E+06  0.1633932E+01
  0.1319048E+01  0.1362674E+06 -0.1500682E+01  0.1893364E+05 -0.7028701E-01  0.3851514E+06  0.1640867E+01
  0.1350000E+01  0.1395060E+06 -0.1493281E+01  0.1758503E+05 -0.7599417E-01  0.3900127E+06  0.1648258E+01
  0.1380952E+01  0.1425630E+06 -0.1485439E+01  0.1630257E+05 -0.8211309E-01  0.3940416E+06  0.1656088E+01
  0.1411905E+01  0.1453374E+06 -0.1477142E+01  0.1508520E+05 -0.8872886E-01  0.3973871E+06  0.1664370E+01
  0.1442857E+01  0.1480109E+06 -0.1468438E+01  0.1393125E+05 -0.9595302E-01  0.3997657E+06  0.1673049E+01
  0.1473810E+01  0.1505612E+06 -0.1459280E+01  0.1284957E+05 -0.1029331E+00  0.4015417E+06  0.1682186E+01
  0.1504762E+01  0.1529650E+06 -0.1449687E+01  0.1182938E+05 -0.1103156E+00  0.4027022E+06  0.1691746E+01
  0.1535714E+01  0.1550729E+06 -0.1439651E+01  0.1087752E+05 -0.1178572E+00  0.4030523E+06  0.1701776E+01
  0.1566667E+01  0.1568670E+06 -0.1429316E+01  0.9982455E+04 -0.1260288E+00  0.4022594E+06  0.1712055E+01
  0.1597619E+01  0.1584471E+06 -0.1418577E+01  0.9146597E+04 -0.1345506E+00  0.4008136E+06  0.1722760E+01
  0.1628572E+01  0.1598427E+06 -0.1407452E+01  0.8364046E+04 -0.1438157E+00  0.3988506E+06  0.1733850E+01
  0.1659524E+01  0.1608952E+06 -0.1396136E+01  0.7634057E+04 -0.1538250E+00  0.3957793E+06  0.1745094E+01
  0.1690476E+01  0.1617491E+06 -0.1384533E+01  0.6957727E+04 -0.1637416E+00  0.3921455E+06  0.1756643E+01
  0.1721429E+01  0.1623856E+06 -0.1372779E+01  0.6328089E+04 -0.1738478E+00  0.3878636E+06  0.1768301E+01
  0.1752381E+01  0.1627493E+06 -0.1360901E+01  0.5748819E+04 -0.1840849E+00  0.3829765E+06  0.1780119E+01
  0.1783333E+01  0.1627907E+06 -0.1348987E+01  0.5217002E+04 -0.1941353E+00  0.3773195E+06  0.1792014E+01
  0.1814286E+01  0.1624636E+06 -0.1337304E+01  0.4723583E+04 -0.2054019E+00  0.3705930E+06  0.1803505E+01
  0.1845238E+01  0.1619298E+06 -0.1325564E+01  0.4271442E+04 -0.2163738E+00  0.3635202E+06  0.1815150E+01
  0.1876190E+01  0.1611856E+06 -0.1313833E+01  0.3854392E+04 -0.2286274E+00  0.3561509E+06  0.1826814E+01
  0.1907143E+01  0.1601283E+06 -0.1302467E+01  0.3470208E+04 -0.2421509E+00  0.3480222E+06  0.1838008E+01
  0.1938095E+01  0.1588433E+06 -0.1291382E+01  0.3120514E+04 -0.2554873E+00  0.3394556E+06  0.1848913E+01
  0.1969048E+01  0.1573747E+06 -0.1280564E+01  0.2798506E+04 -0.2686413E+00  0.3306503E+06  0.1859535E+01
  0.2000000E+01  0.1557775E+06 -0.1270122E+01  0.2502645E+04 -0.2847194E+00  0.3217362E+06  0.1869768E+01
