VARIABLES="w (rad/s)"
"abs(F   1   1)" "angle(F   1   1)"
"abs(F   1   2)" "angle(F   1   2)"
"abs(F   1   3)" "angle(F   1   3)"
Zone t="Diffraction force - beta =   0.000 deg",I=    64,F=POINT
  0.5000000E-01  0.2062098E+03 -0.1570796E+01  0.5579136E+02 -0.3109109E+01  0.2270328E+01 -0.1570796E+01
  0.8095238E-01  0.3367701E+03 -0.1570795E+01  0.1452623E+03 -0.3108048E+01  0.3700265E+01 -0.1570795E+01
  0.1119048E+00  0.4712151E+03 -0.1570794E+01  0.2768712E+03 -0.3106673E+01  0.5192352E+01 -0.1570793E+01
  0.1428571E+00  0.6114387E+03 -0.1570793E+01  0.4508205E+03 -0.3104860E+01  0.6641749E+01 -0.1570791E+01
  0.1738095E+00  0.7552139E+03 -0.1570790E+01  0.6676476E+03 -0.3102509E+01  0.8315217E+01 -0.1570788E+01
  0.2047619E+00  0.9088404E+03 -0.1570787E+01  0.9284048E+03 -0.3099534E+01  0.9942104E+01 -0.1570783E+01
  0.2357143E+00  0.1073193E+04 -0.1570782E+01  0.1234003E+04 -0.3095741E+01  0.1187352E+02 -0.1570777E+01
  0.2666667E+00  0.1245751E+04 -0.1570775E+01  0.1585846E+04 -0.3091080E+01  0.1380875E+02 -0.1570769E+01
  0.2976190E+00  0.1438943E+04 -0.1570764E+01  0.1985050E+04 -0.3085189E+01  0.1594465E+02 -0.1570754E+01
  0.3285715E+00  0.1649677E+04 -0.1570748E+01  0.2432593E+04 -0.3078043E+01  0.1854570E+02 -0.1570734E+01
  0.3595238E+00  0.1878074E+04 -0.1570724E+01  0.2929213E+04 -0.3069316E+01  0.2122139E+02 -0.1570702E+01
  0.3904762E+00  0.2130751E+04 -0.1570687E+01  0.3476052E+04 -0.3058861E+01  0.2405603E+02 -0.1570656E+01
  0.4214286E+00  0.2419853E+04 -0.1570634E+01  0.4068699E+04 -0.3047024E+01  0.2763926E+02 -0.1570588E+01
  0.4523810E+00  0.2732750E+04 -0.1570554E+01  0.4708429E+04 -0.3033202E+01  0.3157229E+02 -0.1570489E+01
  0.4833333E+00  0.3069929E+04 -0.1570443E+01  0.5390778E+04 -0.3018991E+01  0.3578510E+02 -0.1570348E+01
  0.5142857E+00  0.3446001E+04 -0.1570288E+01  0.6112385E+04 -0.3003445E+01  0.4058488E+02 -0.1570153E+01
  0.5452381E+00  0.3856156E+04 -0.1570080E+01  0.6872154E+04 -0.2987660E+01  0.4671822E+02 -0.1569906E+01
  0.5761905E+00  0.4283602E+04 -0.1569806E+01  0.7667364E+04 -0.2971875E+01  0.5200363E+02 -0.1569559E+01
  0.6071429E+00  0.4721438E+04 -0.1569445E+01  0.8494709E+04 -0.2955475E+01  0.5717006E+02 -0.1569097E+01
  0.6380953E+00  0.5199378E+04 -0.1568994E+01  0.9360383E+04 -0.2939721E+01  0.6426384E+02 -0.1568552E+01
  0.6690477E+00  0.5708913E+04 -0.1568430E+01  0.1025369E+05 -0.2923782E+01  0.7157297E+02 -0.1567863E+01
  0.7000000E+00  0.6235620E+04 -0.1567727E+01  0.1117049E+05 -0.2907469E+01  0.7967262E+02 -0.1567021E+01
  0.7309524E+00  0.6769455E+04 -0.1566864E+01  0.1211967E+05 -0.2891511E+01  0.8731976E+02 -0.1565959E+01
  0.7619048E+00  0.7313076E+04 -0.1565811E+01  0.1309422E+05 -0.2875568E+01  0.9444901E+02 -0.1564629E+01
  0.7928572E+00  0.7890150E+04 -0.1564552E+01  0.1408724E+05 -0.2859514E+01  0.1031103E+03 -0.1563086E+01
  0.8238096E+00  0.8496915E+04 -0.1563058E+01  0.1509729E+05 -0.2843441E+01  0.1133873E+03 -0.1561319E+01
  0.8547620E+00  0.9129839E+04 -0.1561300E+01  0.1612537E+05 -0.2827507E+01  0.1246291E+03 -0.1559273E+01
  0.8857143E+00  0.9775177E+04 -0.1559233E+01  0.1716567E+05 -0.2811650E+01  0.1355596E+03 -0.1556821E+01
  0.9166667E+00  0.1041788E+05 -0.1556808E+01  0.1821527E+05 -0.2795883E+01  0.1452930E+03 -0.1553827E+01
  0.9476191E+00  0.1106003E+05 -0.1553986E+01  0.1927175E+05 -0.2780235E+01  0.1557489E+03 -0.1550383E+01
  0.9785714E+00  0.1173758E+05 -0.1550767E+01  0.2033663E+05 -0.2764833E+01  0.1684367E+03 -0.1546613E+01
  0.1009524E+01  0.1244332E+05 -0.1547114E+01  0.2140169E+05 -0.2749551E+01  0.1815022E+03 -0.1542317E+01
  0.1040476E+01  0.1317136E+05 -0.1542984E+01  0.2246430E+05 -0.2734420E+01  0.1951268E+03 -0.1537450E+01
  0.1071429E+01  0.1390883E+05 -0.1538319E+01  0.2351918E+05 -0.2719384E+01  0.2102037E+03 -0.1532089E+01
  0.1102381E+01  0.1465712E+05 -0.1533083E+01  0.2457014E+05 -0.2704630E+01  0.2266227E+03 -0.1526193E+01
  0.1133333E+01  0.1540565E+05 -0.1527217E+01  0.2561413E+05 -0.2690174E+01  0.2424880E+03 -0.1519448E+01
  0.1164286E+01  0.1614265E+05 -0.1520654E+01  0.2664857E+05 -0.2675988E+01  0.2564452E+03 -0.1511561E+01
  0.1195238E+01  0.1687301E+05 -0.1513367E+01  0.2767080E+05 -0.2662077E+01  0.2705353E+03 -0.1502793E+01
  0.1226190E+01  0.1761919E+05 -0.1505395E+01  0.2867776E+05 -0.2648390E+01  0.2869425E+03 -0.1493529E+01
  0.1257143E+01  0.1835685E+05 -0.1496645E+01  0.2967337E+05 -0.2634562E+01  0.3047745E+03 -0.1483651E+01
  0.1288095E+01  0.1914808E+05 -0.1487310E+01  0.3063713E+05 -0.2621753E+01  0.3259441E+03 -0.1473521E+01
  0.1319048E+01  0.1991605E+05 -0.1477124E+01  0.3158590E+05 -0.2608849E+01  0.3454820E+03 -0.1462080E+01
  0.1350000E+01  0.2067308E+05 -0.1466113E+01  0.3251011E+05 -0.2596200E+01  0.3654735E+03 -0.1449778E+01
  0.1380952E+01  0.2141193E+05 -0.1454233E+01  0.3341065E+05 -0.2583925E+01  0.3850807E+03 -0.1436374E+01
  0.1411905E+01  0.2199535E+05 -0.1441484E+01  0.3426151E+05 -0.2571660E+01  0.3959765E+03 -0.1420233E+01
  0.1442857E+01  0.2265125E+05 -0.1427682E+01  0.3510559E+05 -0.2559833E+01  0.4145373E+03 -0.1404321E+01
  0.1473810E+01  0.2327012E+05 -0.1412918E+01  0.3592428E+05 -0.2548399E+01  0.4329446E+03 -0.1387270E+01
  0.1504762E+01  0.2385233E+05 -0.1397251E+01  0.3671596E+05 -0.2537371E+01  0.4520973E+03 -0.1369641E+01
  0.1535714E+01  0.2440599E+05 -0.1380825E+01  0.3747780E+05 -0.2526623E+01  0.4701150E+03 -0.1350850E+01
  0.1566667E+01  0.2491723E+05 -0.1363604E+01  0.3820663E+05 -0.2516119E+01  0.4879023E+03 -0.1331370E+01
  0.1597619E+01  0.2538055E+05 -0.1345610E+01  0.3890109E+05 -0.2505857E+01  0.5050916E+03 -0.1310969E+01
  0.1628572E+01  0.2578688E+05 -0.1326833E+01  0.3955974E+05 -0.2495793E+01  0.5225183E+03 -0.1289801E+01
  0.1659524E+01  0.2612077E+05 -0.1307211E+01  0.4018248E+05 -0.2485977E+01  0.5395957E+03 -0.1267910E+01
  0.1690476E+01  0.2638530E+05 -0.1286834E+01  0.4077093E+05 -0.2476501E+01  0.5561936E+03 -0.1245471E+01
  0.1721429E+01  0.2657478E+05 -0.1265741E+01  0.4132414E+05 -0.2467389E+01  0.5722150E+03 -0.1222658E+01
  0.1752381E+01  0.2668470E+05 -0.1244088E+01  0.4184092E+05 -0.2458588E+01  0.5856780E+03 -0.1198943E+01
  0.1783333E+01  0.2671093E+05 -0.1221945E+01  0.4231934E+05 -0.2450026E+01  0.5966498E+03 -0.1174232E+01
  0.1814286E+01  0.2664078E+05 -0.1199257E+01  0.4275899E+05 -0.2441690E+01  0.6037392E+03 -0.1148152E+01
  0.1845238E+01  0.2648102E+05 -0.1176180E+01  0.4315965E+05 -0.2433620E+01  0.6094979E+03 -0.1121714E+01
  0.1876190E+01  0.2622625E+05 -0.1152719E+01  0.4351996E+05 -0.2425746E+01  0.6138507E+03 -0.1094868E+01
  0.1907143E+01  0.2586823E+05 -0.1128801E+01  0.4384071E+05 -0.2418106E+01  0.6168317E+03 -0.1067954E+01
  0.1938095E+01  0.2541411E+05 -0.1104647E+01  0.4412370E+05 -0.2410802E+01  0.6179191E+03 -0.1041600E+01
  0.1969048E+01  0.2486540E+05 -0.1080419E+01  0.4436754E+05 -0.2403808E+01  0.6170183E+03 -0.1015494E+01
  0.2000000E+01  0.2421937E+05 -0.1056102E+01  0.4457122E+05 -0.2397104E+01  0.6129753E+03 -0.9891838E+00
