VARIABLES="w (rad/s)"
"abs(F   1   1)" "angle(F   1   1)"
"abs(F   1   2)" "angle(F   1   2)"
"abs(F   1   3)" "angle(F   1   3)"
Zone t="Diffraction force - beta =   0.000 deg",I=    64,F=POINT
  0.5000000E-01  0.1444748E+04 -0.1570794E+01  0.3228877E+03 -0.3078268E+01  0.7900136E+03  0.1570797E+01
  0.8095238E-01  0.2363990E+04 -0.1570791E+01  0.8340430E+03 -0.3075778E+01  0.1295869E+04  0.1570799E+01
  0.1119048E+00  0.3299222E+04 -0.1570786E+01  0.1582309E+04 -0.3072915E+01  0.1805748E+04  0.1570802E+01
  0.1428571E+00  0.4267527E+04 -0.1570777E+01  0.2567231E+04 -0.3069309E+01  0.2321532E+04  0.1570806E+01
  0.1738095E+00  0.5266188E+04 -0.1570765E+01  0.3800199E+04 -0.3064943E+01  0.2858127E+04  0.1570812E+01
  0.2047619E+00  0.6321380E+04 -0.1570748E+01  0.5281050E+04 -0.3059426E+01  0.3407908E+04  0.1570821E+01
  0.2357143E+00  0.7430978E+04 -0.1570722E+01  0.7023438E+04 -0.3052539E+01  0.3998431E+04  0.1570834E+01
  0.2666667E+00  0.8624472E+04 -0.1570685E+01  0.9043316E+04 -0.3044295E+01  0.4590658E+04  0.1570852E+01
  0.2976190E+00  0.9912926E+04 -0.1570630E+01  0.1132986E+05 -0.3033786E+01  0.5240824E+04  0.1570879E+01
  0.3285715E+00  0.1130846E+05 -0.1570548E+01  0.1391491E+05 -0.3021371E+01  0.5948214E+04  0.1570918E+01
  0.3595238E+00  0.1283615E+05 -0.1570426E+01  0.1679946E+05 -0.3006401E+01  0.6680748E+04  0.1570976E+01
  0.3904762E+00  0.1452901E+05 -0.1570243E+01  0.1997967E+05 -0.2988660E+01  0.7461935E+04  0.1571061E+01
  0.4214286E+00  0.1639604E+05 -0.1569977E+01  0.2339517E+05 -0.2968662E+01  0.8315316E+04  0.1571182E+01
  0.4523810E+00  0.1841464E+05 -0.1569587E+01  0.2712128E+05 -0.2945888E+01  0.9253171E+04  0.1571356E+01
  0.4833333E+00  0.2059822E+05 -0.1569048E+01  0.3103988E+05 -0.2922731E+01  0.1022658E+05  0.1571589E+01
  0.5142857E+00  0.2299349E+05 -0.1568303E+01  0.3513829E+05 -0.2897485E+01  0.1120128E+05  0.1571904E+01
  0.5452381E+00  0.2553031E+05 -0.1567315E+01  0.3941576E+05 -0.2872384E+01  0.1226213E+05  0.1572306E+01
  0.5761905E+00  0.2815691E+05 -0.1566031E+01  0.4386578E+05 -0.2847951E+01  0.1337652E+05  0.1572805E+01
  0.6071429E+00  0.3091953E+05 -0.1564384E+01  0.4844685E+05 -0.2822899E+01  0.1443260E+05  0.1573421E+01
  0.6380953E+00  0.3379569E+05 -0.1562343E+01  0.5314512E+05 -0.2799124E+01  0.1546642E+05  0.1574146E+01
  0.6690477E+00  0.3678562E+05 -0.1559832E+01  0.5792397E+05 -0.2775490E+01  0.1649106E+05  0.1574986E+01
  0.7000000E+00  0.3982489E+05 -0.1556760E+01  0.6280645E+05 -0.2752023E+01  0.1752757E+05  0.1575941E+01
  0.7309524E+00  0.4285035E+05 -0.1553064E+01  0.6780187E+05 -0.2729701E+01  0.1855008E+05  0.1576992E+01
  0.7619048E+00  0.4594987E+05 -0.1548685E+01  0.7284584E+05 -0.2707765E+01  0.1947622E+05  0.1578121E+01
  0.7928572E+00  0.4911519E+05 -0.1543555E+01  0.7789640E+05 -0.2685935E+01  0.2026336E+05  0.1579288E+01
  0.8238096E+00  0.5231688E+05 -0.1537600E+01  0.8294142E+05 -0.2664391E+01  0.2105371E+05  0.1580452E+01
  0.8547620E+00  0.5546270E+05 -0.1530720E+01  0.8799852E+05 -0.2643520E+01  0.2176486E+05  0.1581524E+01
  0.8857143E+00  0.5855693E+05 -0.1522850E+01  0.9306613E+05 -0.2623525E+01  0.2246346E+05  0.1582426E+01
  0.9166667E+00  0.6156804E+05 -0.1513934E+01  0.9812916E+05 -0.2604370E+01  0.2303823E+05  0.1583025E+01
  0.9476191E+00  0.6449352E+05 -0.1503951E+01  0.1031198E+06 -0.2585545E+01  0.2353348E+05  0.1583223E+01
  0.9785714E+00  0.6730240E+05 -0.1492866E+01  0.1080213E+06 -0.2567046E+01  0.2385342E+05  0.1582801E+01
  0.1009524E+01  0.7002709E+05 -0.1480716E+01  0.1128281E+06 -0.2549005E+01  0.2411636E+05  0.1581618E+01
  0.1040476E+01  0.7255154E+05 -0.1467418E+01  0.1175281E+06 -0.2531469E+01  0.2424737E+05  0.1579342E+01
  0.1071429E+01  0.7486518E+05 -0.1453012E+01  0.1221242E+06 -0.2514747E+01  0.2432389E+05  0.1575746E+01
  0.1102381E+01  0.7687179E+05 -0.1437417E+01  0.1266125E+06 -0.2498840E+01  0.2442872E+05  0.1570703E+01
  0.1133333E+01  0.7851107E+05 -0.1420650E+01  0.1309667E+06 -0.2483599E+01  0.2442514E+05  0.1563702E+01
  0.1164286E+01  0.7983698E+05 -0.1402952E+01  0.1352021E+06 -0.2469289E+01  0.2438188E+05  0.1554751E+01
  0.1195238E+01  0.8074249E+05 -0.1384319E+01  0.1392743E+06 -0.2455384E+01  0.2422407E+05  0.1543401E+01
  0.1226190E+01  0.8126976E+05 -0.1365034E+01  0.1431824E+06 -0.2442159E+01  0.2402819E+05  0.1529711E+01
  0.1257143E+01  0.8134124E+05 -0.1344910E+01  0.1469527E+06 -0.2429120E+01  0.2390568E+05  0.1514069E+01
  0.1288095E+01  0.8092342E+05 -0.1324669E+01  0.1504272E+06 -0.2416884E+01  0.2377302E+05  0.1496280E+01
  0.1319048E+01  0.7999634E+05 -0.1303934E+01  0.1537540E+06 -0.2405113E+01  0.2372047E+05  0.1477161E+01
  0.1350000E+01  0.7856429E+05 -0.1283231E+01  0.1568783E+06 -0.2394126E+01  0.2373704E+05  0.1457353E+01
  0.1380952E+01  0.7657941E+05 -0.1262682E+01  0.1597893E+06 -0.2383831E+01  0.2379095E+05  0.1437285E+01
  0.1411905E+01  0.7347364E+05 -0.1244421E+01  0.1610961E+06 -0.2370937E+01  0.2426472E+05  0.1423451E+01
  0.1442857E+01  0.7049968E+05 -0.1225121E+01  0.1635387E+06 -0.2361483E+01  0.2452190E+05  0.1407120E+01
  0.1473810E+01  0.6699366E+05 -0.1206781E+01  0.1657556E+06 -0.2352521E+01  0.2492200E+05  0.1394520E+01
  0.1504762E+01  0.6295745E+05 -0.1189775E+01  0.1677334E+06 -0.2343890E+01  0.2541659E+05  0.1385854E+01
  0.1535714E+01  0.5846973E+05 -0.1174953E+01  0.1694729E+06 -0.2335969E+01  0.2607315E+05  0.1383223E+01
  0.1566667E+01  0.5352194E+05 -0.1162880E+01  0.1709638E+06 -0.2328506E+01  0.2682917E+05  0.1386137E+01
  0.1597619E+01  0.4815079E+05 -0.1154535E+01  0.1722026E+06 -0.2321505E+01  0.2770562E+05  0.1395266E+01
  0.1628572E+01  0.4240886E+05 -0.1151777E+01  0.1731802E+06 -0.2315097E+01  0.2869650E+05  0.1410663E+01
  0.1659524E+01  0.3634443E+05 -0.1157505E+01  0.1738952E+06 -0.2309151E+01  0.2979094E+05  0.1432013E+01
  0.1690476E+01  0.3001459E+05 -0.1176683E+01  0.1743551E+06 -0.2303714E+01  0.3103406E+05  0.1459547E+01
  0.1721429E+01  0.2347135E+05 -0.1220659E+01  0.1745285E+06 -0.2298641E+01  0.3235454E+05  0.1491563E+01
  0.1752381E+01  0.1689190E+05 -0.1318769E+01  0.1744238E+06 -0.2294285E+01  0.3383428E+05  0.1528455E+01
  0.1783333E+01  0.1067761E+05 -0.1567614E+01  0.1740491E+06 -0.2290523E+01  0.3544262E+05  0.1568938E+01
  0.1814286E+01  0.6703103E+04 -0.2295547E+01  0.1733992E+06 -0.2287168E+01  0.3719808E+05  0.1612337E+01
  0.1845238E+01  0.9199326E+04  0.3078210E+01  0.1724694E+06 -0.2284333E+01  0.3912357E+05  0.1657842E+01
  0.1876190E+01  0.1540662E+05  0.2734775E+01  0.1712695E+06 -0.2281978E+01  0.4118741E+05  0.1704696E+01
  0.1907143E+01  0.2248019E+05  0.2604486E+01  0.1697828E+06 -0.2280124E+01  0.4335430E+05  0.1752287E+01
  0.1938095E+01  0.2979051E+05  0.2543659E+01  0.1680443E+06 -0.2278708E+01  0.4568519E+05  0.1800050E+01
  0.1969048E+01  0.3717391E+05  0.2511453E+01  0.1660172E+06 -0.2277828E+01  0.4817575E+05  0.1847381E+01
  0.2000000E+01  0.4453886E+05  0.2493594E+01  0.1637212E+06 -0.2277353E+01  0.5083350E+05  0.1893858E+01
