VARIABLES="w (rad/s)"
"abs(F   1   1)" "angle(F   1   1)"
"abs(F   1   2)" "angle(F   1   2)"
"abs(F   1   3)" "angle(F   1   3)"
Zone t="Diffraction force - beta =   0.000 deg",I=    64,F=POINT
  0.5000000E-01  0.9288732E+02 -0.1570796E+01  0.2482727E+02 -0.3116568E+01  0.7821582E+00 -0.1570796E+01
  0.8095238E-01  0.1514437E+03 -0.1570796E+01  0.6475875E+02 -0.3115782E+01  0.1277393E+01 -0.1570796E+01
  0.1119048E+00  0.2110750E+03 -0.1570795E+01  0.1236857E+03 -0.3114759E+01  0.1765964E+01 -0.1570796E+01
  0.1428571E+00  0.2733333E+03 -0.1570795E+01  0.2015908E+03 -0.3113363E+01  0.2309156E+01 -0.1570794E+01
  0.1738095E+00  0.3385976E+03 -0.1570794E+01  0.2987380E+03 -0.3111534E+01  0.2826281E+01 -0.1570793E+01
  0.2047619E+00  0.4074633E+03 -0.1570792E+01  0.4154008E+03 -0.3109194E+01  0.3436252E+01 -0.1570792E+01
  0.2357143E+00  0.4798070E+03 -0.1570790E+01  0.5521537E+03 -0.3106207E+01  0.4024552E+01 -0.1570789E+01
  0.2666667E+00  0.5600225E+03 -0.1570786E+01  0.7093837E+03 -0.3102513E+01  0.4707835E+01 -0.1570785E+01
  0.2976190E+00  0.6457701E+03 -0.1570782E+01  0.8875160E+03 -0.3097828E+01  0.5482934E+01 -0.1570780E+01
  0.3285715E+00  0.7383544E+03 -0.1570774E+01  0.1087450E+04 -0.3092139E+01  0.6276723E+01 -0.1570768E+01
  0.3595238E+00  0.8438184E+03 -0.1570763E+01  0.1308957E+04 -0.3085155E+01  0.7165842E+01 -0.1570756E+01
  0.3904762E+00  0.9597245E+03 -0.1570747E+01  0.1552401E+04 -0.3076740E+01  0.8267489E+01 -0.1570735E+01
  0.4214286E+00  0.1086602E+04 -0.1570722E+01  0.1817317E+04 -0.3067201E+01  0.9424003E+01 -0.1570704E+01
  0.4523810E+00  0.1226079E+04 -0.1570686E+01  0.2103719E+04 -0.3056031E+01  0.1060055E+02 -0.1570655E+01
  0.4833333E+00  0.1383984E+04 -0.1570636E+01  0.2409694E+04 -0.3044450E+01  0.1208990E+02 -0.1570593E+01
  0.5142857E+00  0.1554149E+04 -0.1570565E+01  0.2734134E+04 -0.3031740E+01  0.1373488E+02 -0.1570503E+01
  0.5452381E+00  0.1732265E+04 -0.1570468E+01  0.3078326E+04 -0.3018805E+01  0.1548006E+02 -0.1570384E+01
  0.5761905E+00  0.1925532E+04 -0.1570342E+01  0.3440111E+04 -0.3005780E+01  0.1726064E+02 -0.1570223E+01
  0.6071429E+00  0.2134378E+04 -0.1570177E+01  0.3817757E+04 -0.2992168E+01  0.1947092E+02 -0.1570020E+01
  0.6380953E+00  0.2355232E+04 -0.1569969E+01  0.4214334E+04 -0.2978956E+01  0.2195566E+02 -0.1569772E+01
  0.6690477E+00  0.2578005E+04 -0.1569704E+01  0.4626639E+04 -0.2965545E+01  0.2387678E+02 -0.1569430E+01
  0.7000000E+00  0.2806796E+04 -0.1569372E+01  0.5053341E+04 -0.2951793E+01  0.2607424E+02 -0.1569011E+01
  0.7309524E+00  0.3054827E+04 -0.1568968E+01  0.5497507E+04 -0.2938213E+01  0.2890898E+02 -0.1568523E+01
  0.7619048E+00  0.3316190E+04 -0.1568478E+01  0.5954945E+04 -0.2924488E+01  0.3177675E+02 -0.1567924E+01
  0.7928572E+00  0.3585437E+04 -0.1567885E+01  0.6423658E+04 -0.2910568E+01  0.3490818E+02 -0.1567211E+01
  0.8238096E+00  0.3858535E+04 -0.1567171E+01  0.6905182E+04 -0.2896605E+01  0.3801744E+02 -0.1566345E+01
  0.8547620E+00  0.4133355E+04 -0.1566318E+01  0.7399394E+04 -0.2882681E+01  0.4075724E+02 -0.1565266E+01
  0.8857143E+00  0.4419628E+04 -0.1565314E+01  0.7904065E+04 -0.2868744E+01  0.4381212E+02 -0.1564013E+01
  0.9166667E+00  0.4720102E+04 -0.1564143E+01  0.8416614E+04 -0.2854754E+01  0.4746173E+02 -0.1562600E+01
  0.9476191E+00  0.5034631E+04 -0.1562788E+01  0.8936545E+04 -0.2840762E+01  0.5162004E+02 -0.1561009E+01
  0.9785714E+00  0.5359930E+04 -0.1561224E+01  0.9463793E+04 -0.2826843E+01  0.5601793E+02 -0.1559185E+01
  0.1009524E+01  0.5690416E+04 -0.1559424E+01  0.9996016E+04 -0.2812957E+01  0.6033390E+02 -0.1557054E+01
  0.1040476E+01  0.6020594E+04 -0.1557353E+01  0.1053253E+05 -0.2799139E+01  0.6414646E+02 -0.1554498E+01
  0.1071429E+01  0.6347089E+04 -0.1554980E+01  0.1107216E+05 -0.2785397E+01  0.6806497E+02 -0.1551577E+01
  0.1102381E+01  0.6686046E+04 -0.1552304E+01  0.1161637E+05 -0.2771848E+01  0.7273468E+02 -0.1548401E+01
  0.1133333E+01  0.7040532E+04 -0.1549313E+01  0.1216231E+05 -0.2758440E+01  0.7774772E+02 -0.1544885E+01
  0.1164286E+01  0.7406465E+04 -0.1545976E+01  0.1270769E+05 -0.2745126E+01  0.8303536E+02 -0.1540981E+01
  0.1195238E+01  0.7781439E+04 -0.1542264E+01  0.1325158E+05 -0.2731930E+01  0.8843779E+02 -0.1536609E+01
  0.1226190E+01  0.8159187E+04 -0.1538135E+01  0.1379167E+05 -0.2718801E+01  0.9442368E+02 -0.1531880E+01
  0.1257143E+01  0.8533308E+04 -0.1533543E+01  0.1433056E+05 -0.2705491E+01  0.1006125E+03 -0.1526665E+01
  0.1288095E+01  0.8926537E+04 -0.1528525E+01  0.1486536E+05 -0.2693206E+01  0.1072541E+03 -0.1521004E+01
  0.1319048E+01  0.9305621E+04 -0.1522958E+01  0.1539632E+05 -0.2680714E+01  0.1127764E+03 -0.1514342E+01
  0.1350000E+01  0.9678898E+04 -0.1516831E+01  0.1592233E+05 -0.2668453E+01  0.1180713E+03 -0.1506897E+01
  0.1380952E+01  0.1005822E+05 -0.1510180E+01  0.1644371E+05 -0.2656485E+01  0.1240476E+03 -0.1499027E+01
  0.1411905E+01  0.1038544E+05 -0.1503014E+01  0.1694644E+05 -0.2644441E+01  0.1277055E+03 -0.1489748E+01
  0.1442857E+01  0.1077237E+05 -0.1495282E+01  0.1745051E+05 -0.2632723E+01  0.1349648E+03 -0.1481040E+01
  0.1473810E+01  0.1116576E+05 -0.1487002E+01  0.1794618E+05 -0.2621237E+01  0.1429368E+03 -0.1471914E+01
  0.1504762E+01  0.1155678E+05 -0.1478118E+01  0.1843219E+05 -0.2609966E+01  0.1504661E+03 -0.1461834E+01
  0.1535714E+01  0.1194362E+05 -0.1468608E+01  0.1890709E+05 -0.2598866E+01  0.1582285E+03 -0.1451141E+01
  0.1566667E+01  0.1232124E+05 -0.1458430E+01  0.1937090E+05 -0.2587977E+01  0.1657133E+03 -0.1439523E+01
  0.1597619E+01  0.1268966E+05 -0.1447578E+01  0.1982323E+05 -0.2577312E+01  0.1733109E+03 -0.1427158E+01
  0.1628572E+01  0.1303658E+05 -0.1435957E+01  0.2026216E+05 -0.2566774E+01  0.1808102E+03 -0.1413883E+01
  0.1659524E+01  0.1336621E+05 -0.1423595E+01  0.2069003E+05 -0.2556548E+01  0.1880094E+03 -0.1399584E+01
  0.1690476E+01  0.1367878E+05 -0.1410495E+01  0.2110641E+05 -0.2546634E+01  0.1952659E+03 -0.1384496E+01
  0.1721429E+01  0.1397542E+05 -0.1396724E+01  0.2151039E+05 -0.2537014E+01  0.2028046E+03 -0.1369052E+01
  0.1752381E+01  0.1425937E+05 -0.1382373E+01  0.2190108E+05 -0.2527606E+01  0.2097824E+03 -0.1352560E+01
  0.1783333E+01  0.1452520E+05 -0.1367421E+01  0.2227703E+05 -0.2518390E+01  0.2169028E+03 -0.1335722E+01
  0.1814286E+01  0.1476922E+05 -0.1351864E+01  0.2263749E+05 -0.2509337E+01  0.2236019E+03 -0.1318066E+01
  0.1845238E+01  0.1499140E+05 -0.1335739E+01  0.2298277E+05 -0.2500512E+01  0.2303487E+03 -0.1299762E+01
  0.1876190E+01  0.1518108E+05 -0.1318948E+01  0.2331101E+05 -0.2491763E+01  0.2372191E+03 -0.1280990E+01
  0.1907143E+01  0.1534020E+05 -0.1301553E+01  0.2362397E+05 -0.2483286E+01  0.2438686E+03 -0.1261695E+01
  0.1938095E+01  0.1546757E+05 -0.1283587E+01  0.2392133E+05 -0.2475055E+01  0.2502912E+03 -0.1241916E+01
  0.1969048E+01  0.1556087E+05 -0.1265082E+01  0.2420292E+05 -0.2467113E+01  0.2565310E+03 -0.1221948E+01
  0.2000000E+01  0.1561847E+05 -0.1246156E+01  0.2446822E+05 -0.2459414E+01  0.2618527E+03 -0.1201255E+01
