VARIABLES="w (rad/s)"
"abs(F   1   1)" "angle(F   1   1)"
"abs(F   1   2)" "angle(F   1   2)"
"abs(F   1   3)" "angle(F   1   3)"
Zone t="Diffraction force - beta =   0.000 deg",I=    64,F=POINT
  0.5000000E-01  0.8957196E+04 -0.1570790E+01  0.7712972E+06 -0.5441489E-04  0.9196651E+04  0.1570829E+01
  0.8095238E-01  0.1461794E+05 -0.1570786E+01  0.7693621E+06 -0.1462905E-03  0.1499619E+05  0.1570811E+01
  0.1119048E+00  0.2038924E+05 -0.1570782E+01  0.7665258E+06 -0.2902178E-03  0.2089232E+05  0.1570806E+01
  0.1428571E+00  0.2635252E+05 -0.1570779E+01  0.7627879E+06 -0.4970229E-03  0.2691910E+05  0.1570807E+01
  0.1738095E+00  0.3254502E+05 -0.1570766E+01  0.7581373E+06 -0.7828673E-03  0.3316769E+05  0.1570824E+01
  0.2047619E+00  0.3905646E+05 -0.1570745E+01  0.7525711E+06 -0.1171245E-02  0.3965216E+05  0.1570850E+01
  0.2357143E+00  0.4596044E+05 -0.1570722E+01  0.7460722E+06 -0.1696700E-02  0.4647212E+05  0.1570881E+01
  0.2666667E+00  0.5333825E+05 -0.1570683E+01  0.7386362E+06 -0.2400360E-02  0.5370476E+05  0.1570910E+01
  0.2976190E+00  0.6133771E+05 -0.1570627E+01  0.7302638E+06 -0.3353850E-02  0.6140491E+05  0.1570968E+01
  0.3285715E+00  0.7004855E+05 -0.1570542E+01  0.7209312E+06 -0.4626151E-02  0.6970653E+05  0.1571054E+01
  0.3595238E+00  0.7956904E+05 -0.1570420E+01  0.7106917E+06 -0.6331237E-02  0.7869399E+05  0.1571171E+01
  0.3904762E+00  0.9007959E+05 -0.1570236E+01  0.6995409E+06 -0.8591357E-02  0.8841441E+05  0.1571356E+01
  0.4214286E+00  0.1016841E+06 -0.1569968E+01  0.6876305E+06 -0.1148152E-01  0.9899426E+05  0.1571625E+01
  0.4523810E+00  0.1143300E+06 -0.1569574E+01  0.6749226E+06 -0.1521949E-01  0.1104660E+06  0.1572018E+01
  0.4833333E+00  0.1281353E+06 -0.1569034E+01  0.6616252E+06 -0.1968716E-01  0.1226788E+06  0.1572558E+01
  0.5142857E+00  0.1430488E+06 -0.1568287E+01  0.6478261E+06 -0.2514449E-01  0.1355730E+06  0.1573303E+01
  0.5452381E+00  0.1589603E+06 -0.1567298E+01  0.6335156E+06 -0.3148540E-01  0.1490886E+06  0.1574294E+01
  0.5761905E+00  0.1756807E+06 -0.1566022E+01  0.6188139E+06 -0.3871728E-01  0.1631400E+06  0.1575568E+01
  0.6071429E+00  0.1932178E+06 -0.1564385E+01  0.6038316E+06 -0.4705477E-01  0.1774028E+06  0.1577204E+01
  0.6380953E+00  0.2115109E+06 -0.1562365E+01  0.5884926E+06 -0.5627831E-01  0.1916876E+06  0.1579221E+01
  0.6690477E+00  0.2304041E+06 -0.1559880E+01  0.5729579E+06 -0.6657993E-01  0.2061067E+06  0.1581702E+01
  0.7000000E+00  0.2497877E+06 -0.1556856E+01  0.5572732E+06 -0.7807717E-01  0.2206026E+06  0.1584724E+01
  0.7309524E+00  0.2695357E+06 -0.1553253E+01  0.5413607E+06 -0.9066869E-01  0.2347475E+06  0.1588320E+01
  0.7619048E+00  0.2897209E+06 -0.1548997E+01  0.5254021E+06 -0.1044800E+00  0.2486560E+06  0.1592566E+01
  0.7928572E+00  0.3101556E+06 -0.1544025E+01  0.5095086E+06 -0.1195882E+00  0.2619732E+06  0.1597526E+01
  0.8238096E+00  0.3308173E+06 -0.1538288E+01  0.4936089E+06 -0.1360205E+00  0.2747148E+06  0.1603246E+01
  0.8547620E+00  0.3515387E+06 -0.1531745E+01  0.4777018E+06 -0.1537919E+00  0.2868855E+06  0.1609766E+01
  0.8857143E+00  0.3720516E+06 -0.1524353E+01  0.4618832E+06 -0.1729631E+00  0.2984578E+06  0.1617127E+01
  0.9166667E+00  0.3922711E+06 -0.1516110E+01  0.4461638E+06 -0.1935968E+00  0.3090028E+06  0.1625323E+01
  0.9476191E+00  0.4120798E+06 -0.1507040E+01  0.4306460E+06 -0.2157798E+00  0.3183125E+06  0.1634329E+01
  0.9785714E+00  0.4313537E+06 -0.1497186E+01  0.4153333E+06 -0.2395628E+00  0.3263314E+06  0.1644105E+01
  0.1009524E+01  0.4499124E+06 -0.1486605E+01  0.4002504E+06 -0.2650306E+00  0.3331923E+06  0.1654593E+01
  0.1040476E+01  0.4673009E+06 -0.1475389E+01  0.3854231E+06 -0.2922578E+00  0.3383011E+06  0.1665678E+01
  0.1071429E+01  0.4836220E+06 -0.1463673E+01  0.3707857E+06 -0.3213192E+00  0.3422522E+06  0.1677227E+01
  0.1102381E+01  0.4983050E+06 -0.1451618E+01  0.3563800E+06 -0.3523695E+00  0.3443655E+06  0.1689055E+01
  0.1133333E+01  0.5113887E+06 -0.1439468E+01  0.3422490E+06 -0.3855560E+00  0.3448039E+06  0.1700918E+01
  0.1164286E+01  0.5226868E+06 -0.1427465E+01  0.3283772E+06 -0.4211292E+00  0.3436068E+06  0.1712582E+01
  0.1195238E+01  0.5318863E+06 -0.1415891E+01  0.3149376E+06 -0.4592923E+00  0.3403201E+06  0.1723736E+01
  0.1226190E+01  0.5391958E+06 -0.1405035E+01  0.3018332E+06 -0.5002687E+00  0.3355654E+06  0.1734126E+01
  0.1257143E+01  0.5443637E+06 -0.1395061E+01  0.2892558E+06 -0.5443838E+00  0.3289850E+06  0.1743537E+01
  0.1288095E+01  0.5474884E+06 -0.1386646E+01  0.2769822E+06 -0.5915834E+00  0.3209263E+06  0.1751323E+01
  0.1319048E+01  0.5485978E+06 -0.1379720E+01  0.2652785E+06 -0.6426296E+00  0.3115350E+06  0.1757496E+01
  0.1350000E+01  0.5477531E+06 -0.1374594E+01  0.2541782E+06 -0.6977419E+00  0.3012280E+06  0.1761851E+01
  0.1380952E+01  0.5449293E+06 -0.1371578E+01  0.2438188E+06 -0.7571098E+00  0.2895769E+06  0.1763903E+01
  0.1411905E+01  0.5401106E+06 -0.1371437E+01  0.2341171E+06 -0.8189209E+00  0.2776225E+06  0.1763212E+01
  0.1442857E+01  0.5343279E+06 -0.1373114E+01  0.2254527E+06 -0.8878369E+00  0.2647575E+06  0.1760494E+01
  0.1473810E+01  0.5272206E+06 -0.1377398E+01  0.2178588E+06 -0.9615536E+00  0.2515383E+06  0.1755165E+01
  0.1504762E+01  0.5190179E+06 -0.1384476E+01  0.2115140E+06 -0.1039662E+01  0.2380185E+06  0.1746986E+01
  0.1535714E+01  0.5099672E+06 -0.1394347E+01  0.2065835E+06 -0.1121470E+01  0.2245910E+06  0.1736144E+01
  0.1566667E+01  0.5001780E+06 -0.1407046E+01  0.2032335E+06 -0.1205369E+01  0.2112846E+06  0.1722715E+01
  0.1597619E+01  0.4897645E+06 -0.1422647E+01  0.2015055E+06 -0.1289683E+01  0.1979779E+06  0.1706359E+01
  0.1628572E+01  0.4790983E+06 -0.1441067E+01  0.2013096E+06 -0.1373242E+01  0.1852281E+06  0.1687904E+01
  0.1659524E+01  0.4681971E+06 -0.1462393E+01  0.2025430E+06 -0.1453516E+01  0.1727102E+06  0.1666745E+01
  0.1690476E+01  0.4571637E+06 -0.1486477E+01  0.2050495E+06 -0.1528826E+01  0.1606599E+06  0.1643652E+01
  0.1721429E+01  0.4461951E+06 -0.1513303E+01  0.2085131E+06 -0.1598424E+01  0.1491067E+06  0.1618823E+01
  0.1752381E+01  0.4353569E+06 -0.1542871E+01  0.2125257E+06 -0.1661515E+01  0.1379005E+06  0.1591905E+01
  0.1783333E+01  0.4247848E+06 -0.1574823E+01  0.2168324E+06 -0.1717459E+01  0.1273777E+06  0.1564768E+01
  0.1814286E+01  0.4144709E+06 -0.1609214E+01  0.2210387E+06 -0.1767129E+01  0.1172872E+06  0.1536929E+01
  0.1845238E+01  0.4044812E+06 -0.1645846E+01  0.2247455E+06 -0.1811346E+01  0.1076448E+06  0.1509019E+01
  0.1876190E+01  0.3949289E+06 -0.1684541E+01  0.2277706E+06 -0.1851674E+01  0.9855043E+05  0.1482315E+01
  0.1907143E+01  0.3857663E+06 -0.1725320E+01  0.2299800E+06 -0.1889235E+01  0.8971828E+05  0.1454748E+01
  0.1938095E+01  0.3770219E+06 -0.1767807E+01  0.2313369E+06 -0.1924871E+01  0.8144588E+05  0.1433054E+01
  0.1969048E+01  0.3687041E+06 -0.1811863E+01  0.2317882E+06 -0.1959730E+01  0.7362920E+05  0.1415999E+01
  0.2000000E+01  0.3607845E+06 -0.1857605E+01  0.2313998E+06 -0.1994864E+01  0.6597788E+05  0.1401809E+01
