VARIABLES="w (rad/s)"
"abs(F   1   1)" "angle(F   1   1)"
"abs(F   1   2)" "angle(F   1   2)"
"abs(F   1   3)" "angle(F   1   3)"
Zone t="Diffraction force - beta =   0.000 deg",I=    64,F=POINT
  0.5000000E-01  0.1211015E+03 -0.1570796E+01  0.3245423E+02 -0.3114269E+01  0.1118934E+01 -0.1570796E+01
  0.8095238E-01  0.1974720E+03 -0.1570796E+01  0.8464742E+02 -0.3113416E+01  0.1819869E+01 -0.1570796E+01
  0.1119048E+00  0.2761434E+03 -0.1570795E+01  0.1616628E+03 -0.3112304E+01  0.2528928E+01 -0.1570796E+01
  0.1428571E+00  0.3565385E+03 -0.1570794E+01  0.2633997E+03 -0.3110780E+01  0.3266569E+01 -0.1570795E+01
  0.1738095E+00  0.4427307E+03 -0.1570793E+01  0.3902196E+03 -0.3108788E+01  0.4060034E+01 -0.1570793E+01
  0.2047619E+00  0.5312767E+03 -0.1570791E+01  0.5427046E+03 -0.3106257E+01  0.4892122E+01 -0.1570792E+01
  0.2357143E+00  0.6271782E+03 -0.1570788E+01  0.7212675E+03 -0.3103017E+01  0.5744028E+01 -0.1570788E+01
  0.2666667E+00  0.7313893E+03 -0.1570784E+01  0.9268019E+03 -0.3099024E+01  0.6775225E+01 -0.1570782E+01
  0.2976190E+00  0.8413011E+03 -0.1570777E+01  0.1159676E+04 -0.3093962E+01  0.7819623E+01 -0.1570774E+01
  0.3285715E+00  0.9646033E+03 -0.1570768E+01  0.1421259E+04 -0.3087829E+01  0.8956062E+01 -0.1570761E+01
  0.3595238E+00  0.1101767E+04 -0.1570754E+01  0.1710554E+04 -0.3080284E+01  0.1031497E+02 -0.1570744E+01
  0.3904762E+00  0.1251317E+04 -0.1570732E+01  0.2029569E+04 -0.3071245E+01  0.1182965E+02 -0.1570717E+01
  0.4214286E+00  0.1415369E+04 -0.1570700E+01  0.2375652E+04 -0.3060977E+01  0.1335732E+02 -0.1570677E+01
  0.4523810E+00  0.1601591E+04 -0.1570653E+01  0.2750400E+04 -0.3048991E+01  0.1522433E+02 -0.1570617E+01
  0.4833333E+00  0.1806743E+04 -0.1570588E+01  0.3149267E+04 -0.3036551E+01  0.1740466E+02 -0.1570535E+01
  0.5142857E+00  0.2022741E+04 -0.1570495E+01  0.3573019E+04 -0.3022954E+01  0.1975606E+02 -0.1570419E+01
  0.5452381E+00  0.2257208E+04 -0.1570371E+01  0.4021932E+04 -0.3009140E+01  0.2208582E+02 -0.1570261E+01
  0.5761905E+00  0.2513042E+04 -0.1570207E+01  0.4491349E+04 -0.2995193E+01  0.2497347E+02 -0.1570059E+01
  0.6071429E+00  0.2786365E+04 -0.1569995E+01  0.4982673E+04 -0.2980712E+01  0.2837317E+02 -0.1569806E+01
  0.6380953E+00  0.3063912E+04 -0.1569724E+01  0.5497067E+04 -0.2966667E+01  0.3103175E+02 -0.1569456E+01
  0.6690477E+00  0.3348787E+04 -0.1569380E+01  0.6030684E+04 -0.2952423E+01  0.3399407E+02 -0.1569021E+01
  0.7000000E+00  0.3658448E+04 -0.1568956E+01  0.6583701E+04 -0.2937901E+01  0.3785569E+02 -0.1568508E+01
  0.7309524E+00  0.3985368E+04 -0.1568438E+01  0.7155859E+04 -0.2923516E+01  0.4177794E+02 -0.1567877E+01
  0.7619048E+00  0.4322326E+04 -0.1567807E+01  0.7743313E+04 -0.2908985E+01  0.4609396E+02 -0.1567119E+01
  0.7928572E+00  0.4663744E+04 -0.1567041E+01  0.8346911E+04 -0.2894378E+01  0.5030421E+02 -0.1566187E+01
  0.8238096E+00  0.5008578E+04 -0.1566120E+01  0.8966288E+04 -0.2879778E+01  0.5408539E+02 -0.1565024E+01
  0.8547620E+00  0.5370863E+04 -0.1565031E+01  0.9599043E+04 -0.2865188E+01  0.5837881E+02 -0.1563672E+01
  0.8857143E+00  0.5750654E+04 -0.1563755E+01  0.1024132E+05 -0.2850534E+01  0.6359048E+02 -0.1562146E+01
  0.9166667E+00  0.6148599E+04 -0.1562271E+01  0.1089468E+05 -0.2835954E+01  0.6949546E+02 -0.1560419E+01
  0.9476191E+00  0.6558265E+04 -0.1560548E+01  0.1155552E+05 -0.2821407E+01  0.7543680E+02 -0.1558396E+01
  0.9785714E+00  0.6971211E+04 -0.1558553E+01  0.1222279E+05 -0.2806923E+01  0.8102392E+02 -0.1555990E+01
  0.1009524E+01  0.7380704E+04 -0.1556245E+01  0.1289436E+05 -0.2792494E+01  0.8621134E+02 -0.1553136E+01
  0.1040476E+01  0.7794062E+04 -0.1553603E+01  0.1357135E+05 -0.2778226E+01  0.9201641E+02 -0.1549936E+01
  0.1071429E+01  0.8229273E+04 -0.1550628E+01  0.1425281E+05 -0.2764156E+01  0.9882163E+02 -0.1546451E+01
  0.1102381E+01  0.8680752E+04 -0.1547288E+01  0.1493440E+05 -0.2750190E+01  0.1058363E+03 -0.1542529E+01
  0.1133333E+01  0.9145335E+04 -0.1543551E+01  0.1561410E+05 -0.2736334E+01  0.1130415E+03 -0.1538114E+01
  0.1164286E+01  0.9616396E+04 -0.1539373E+01  0.1629020E+05 -0.2722580E+01  0.1209876E+03 -0.1533294E+01
  0.1195238E+01  0.1009306E+05 -0.1534724E+01  0.1696314E+05 -0.2709018E+01  0.1295646E+03 -0.1528026E+01
  0.1226190E+01  0.1057413E+05 -0.1529568E+01  0.1763323E+05 -0.2695722E+01  0.1385366E+03 -0.1522227E+01
  0.1257143E+01  0.1103659E+05 -0.1523811E+01  0.1829993E+05 -0.2682256E+01  0.1457870E+03 -0.1515304E+01
  0.1288095E+01  0.1151540E+05 -0.1517517E+01  0.1895562E+05 -0.2669787E+01  0.1534029E+03 -0.1507721E+01
  0.1319048E+01  0.1198700E+05 -0.1510606E+01  0.1960601E+05 -0.2657154E+01  0.1615016E+03 -0.1499540E+01
  0.1350000E+01  0.1246623E+05 -0.1503111E+01  0.2024539E+05 -0.2644651E+01  0.1707281E+03 -0.1490962E+01
  0.1380952E+01  0.1295350E+05 -0.1495022E+01  0.2087653E+05 -0.2632487E+01  0.1808389E+03 -0.1481948E+01
  0.1411905E+01  0.1337451E+05 -0.1486363E+01  0.2148363E+05 -0.2620392E+01  0.1874112E+03 -0.1471202E+01
  0.1442857E+01  0.1386259E+05 -0.1477013E+01  0.2208941E+05 -0.2608626E+01  0.1976443E+03 -0.1460574E+01
  0.1473810E+01  0.1434398E+05 -0.1466971E+01  0.2268066E+05 -0.2597053E+01  0.2082150E+03 -0.1449266E+01
  0.1504762E+01  0.1481371E+05 -0.1456199E+01  0.2325718E+05 -0.2585708E+01  0.2184613E+03 -0.1436977E+01
  0.1535714E+01  0.1526911E+05 -0.1444676E+01  0.2381821E+05 -0.2574583E+01  0.2288468E+03 -0.1423849E+01
  0.1566667E+01  0.1569550E+05 -0.1432305E+01  0.2436246E+05 -0.2563652E+01  0.2389242E+03 -0.1409650E+01
  0.1597619E+01  0.1610046E+05 -0.1419130E+01  0.2489239E+05 -0.2553066E+01  0.2487655E+03 -0.1394421E+01
  0.1628572E+01  0.1648306E+05 -0.1405161E+01  0.2540679E+05 -0.2542818E+01  0.2589429E+03 -0.1378544E+01
  0.1659524E+01  0.1684693E+05 -0.1390507E+01  0.2590485E+05 -0.2532871E+01  0.2688169E+03 -0.1361902E+01
  0.1690476E+01  0.1719305E+05 -0.1375228E+01  0.2638429E+05 -0.2523127E+01  0.2787035E+03 -0.1344628E+01
  0.1721429E+01  0.1751029E+05 -0.1359260E+01  0.2684432E+05 -0.2513584E+01  0.2878315E+03 -0.1326426E+01
  0.1752381E+01  0.1780052E+05 -0.1342668E+01  0.2728407E+05 -0.2504251E+01  0.2970981E+03 -0.1307638E+01
  0.1783333E+01  0.1805511E+05 -0.1325404E+01  0.2770248E+05 -0.2495053E+01  0.3064121E+03 -0.1288207E+01
  0.1814286E+01  0.1826733E+05 -0.1307437E+01  0.2810009E+05 -0.2486086E+01  0.3155233E+03 -0.1268160E+01
  0.1845238E+01  0.1843907E+05 -0.1288839E+01  0.2847772E+05 -0.2477404E+01  0.3244126E+03 -0.1247669E+01
  0.1876190E+01  0.1856719E+05 -0.1269635E+01  0.2883478E+05 -0.2469026E+01  0.3330280E+03 -0.1226804E+01
  0.1907143E+01  0.1864869E+05 -0.1249931E+01  0.2917064E+05 -0.2460926E+01  0.3406771E+03 -0.1205454E+01
  0.1938095E+01  0.1868344E+05 -0.1229829E+01  0.2948440E+05 -0.2453019E+01  0.3468302E+03 -0.1182972E+01
  0.1969048E+01  0.1866236E+05 -0.1209260E+01  0.2977544E+05 -0.2445314E+01  0.3515286E+03 -0.1159698E+01
  0.2000000E+01  0.1858810E+05 -0.1188323E+01  0.3004364E+05 -0.2437808E+01  0.3548684E+03 -0.1135661E+01
