VARIABLES="w (rad/s)"
"A   1   1" "B   1   1"
"A   1   2" "B   1   2"
"A   1   3" "B   1   3"
Zone t="Motion of body    1 in DoF   1",I=    64,F=POINT
  0.5000000E-01  0.4370182E+05  0.1568541E-02 -0.9346008E-03 -0.5240945E-06 -0.1087159E+06 -0.3961253E-02
  0.8095238E-01  0.4412712E+05  0.6693422E-02 -0.1354778E-02 -0.7373685E-05 -0.1097598E+06 -0.1699215E-01
  0.1119048E+00  0.4431865E+05  0.1880886E-01 -0.3298090E-02 -0.2066309E-04 -0.1100769E+06 -0.4751483E-01
  0.1428571E+00  0.4439873E+05  0.4215225E-01 -0.2109528E-02 -0.2510601E-04 -0.1102381E+06 -0.1063472E+00
  0.1738095E+00  0.4445556E+05  0.8392882E-01 -0.2962922E-03 -0.4633330E-07 -0.1103173E+06 -0.2115879E+00
  0.2047619E+00  0.4450157E+05  0.1550630E+00 -0.1471763E-02 -0.1264707E-04 -0.1104038E+06 -0.3907434E+00
  0.2357143E+00  0.4452597E+05  0.2723977E+00 -0.1861110E-03  0.7829862E-05 -0.1104642E+06 -0.6857858E+00
  0.2666667E+00  0.4460223E+05  0.4634425E+00 -0.8296966E-03 -0.1394842E-04 -0.1105330E+06 -0.1164751E+01
  0.2976190E+00  0.4463551E+05  0.7755092E+00 -0.1384277E-02  0.1240522E-05 -0.1106479E+06 -0.1947257E+01
  0.3285715E+00  0.4469856E+05  0.1279926E+01 -0.5224476E-03  0.1220964E-04 -0.1107741E+06 -0.3209040E+01
  0.3595238E+00  0.4478151E+05  0.2096348E+01 -0.1464237E-02 -0.9392202E-04 -0.1108785E+06 -0.5245491E+01
  0.3904762E+00  0.4487257E+05  0.3406852E+01 -0.8597024E-03 -0.4162081E-04 -0.1110426E+06 -0.8507527E+01
  0.4214286E+00  0.4495285E+05  0.5463037E+01 -0.2661236E-02 -0.1872424E-03 -0.1112424E+06 -0.1361742E+02
  0.4523810E+00  0.4508670E+05  0.8687615E+01 -0.2951371E-03 -0.2165884E-04 -0.1114436E+06 -0.2160273E+02
  0.4833333E+00  0.4517732E+05  0.1346133E+02 -0.2028367E-02 -0.1795143E-03 -0.1116049E+06 -0.3339256E+02
  0.5142857E+00  0.4531261E+05  0.2052638E+02 -0.5488926E-03  0.1035556E-03 -0.1118527E+06 -0.5078913E+02
  0.5452381E+00  0.4545416E+05  0.3054721E+02 -0.2868519E-02 -0.3485829E-03 -0.1121655E+06 -0.7539747E+02
  0.5761905E+00  0.4559836E+05  0.4437843E+02 -0.2714425E-02 -0.5472153E-03 -0.1124312E+06 -0.1092214E+03
  0.6071429E+00  0.4580780E+05  0.6332927E+02 -0.4021139E-03 -0.6765127E-05 -0.1127825E+06 -0.1553528E+03
  0.6380953E+00  0.4595288E+05  0.8829494E+02 -0.2104346E-02 -0.3547370E-03 -0.1130674E+06 -0.2159301E+03
  0.6690477E+00  0.4614470E+05  0.1210229E+03 -0.1357000E-02 -0.1104474E-03 -0.1134919E+06 -0.2950611E+03
  0.7000000E+00  0.4639495E+05  0.1634706E+03 -0.2049037E-02 -0.1704693E-04 -0.1139554E+06 -0.3971017E+03
  0.7309524E+00  0.4659462E+05  0.2172380E+03 -0.3225221E-02 -0.1115799E-02 -0.1143132E+06 -0.5257391E+03
  0.7619048E+00  0.4684523E+05  0.2850099E+03 -0.2323150E-02 -0.8264780E-03 -0.1148028E+06 -0.6871174E+03
  0.7928572E+00  0.4709554E+05  0.3693643E+03 -0.2328683E-02 -0.1138210E-02 -0.1152531E+06 -0.8867921E+03
  0.8238096E+00  0.4740003E+05  0.4734978E+03 -0.1917051E-02 -0.4160404E-03 -0.1158549E+06 -0.1132092E+04
  0.8547620E+00  0.4764473E+05  0.6000697E+03 -0.1981517E-02 -0.5121231E-03 -0.1163434E+06 -0.1428760E+04
  0.8857143E+00  0.4794695E+05  0.7534076E+03 -0.1636628E-03 -0.8773804E-04 -0.1169182E+06 -0.1785745E+04
  0.9166667E+00  0.4826811E+05  0.9373547E+03 -0.2788197E-02 -0.9503365E-03 -0.1174650E+06 -0.2210579E+04
  0.9476191E+00  0.4862241E+05  0.1156494E+04 -0.1384793E-02 -0.7724762E-04 -0.1180990E+06 -0.2713519E+04
  0.9785714E+00  0.4892031E+05  0.1414345E+04 -0.1769797E-02 -0.8769035E-03 -0.1186108E+06 -0.3301302E+04
  0.1009524E+01  0.4928442E+05  0.1717703E+04 -0.1171400E-02 -0.5912781E-03 -0.1192976E+06 -0.3988654E+04
  0.1040476E+01  0.4961311E+05  0.2070069E+04 -0.1759824E-03 -0.5378723E-03 -0.1198691E+06 -0.4780447E+04
  0.1071429E+01  0.5000442E+05  0.2479082E+04 -0.4557292E-03 -0.6952286E-03 -0.1205530E+06 -0.5692189E+04
  0.1102381E+01  0.5037243E+05  0.2948271E+04 -0.3460416E-03  0.1535416E-03 -0.1211994E+06 -0.6730178E+04
  0.1133333E+01  0.5068740E+05  0.3482010E+04 -0.2113791E-02 -0.5340576E-03 -0.1216640E+06 -0.7898693E+04
  0.1164286E+01  0.5106273E+05  0.4090980E+04 -0.1546473E-02  0.8583069E-05 -0.1222693E+06 -0.9221328E+04
  0.1195238E+01  0.5138361E+05  0.4776107E+04 -0.1059604E-02 -0.2555847E-03 -0.1227166E+06 -0.1069364E+05
  0.1226190E+01  0.5173537E+05  0.5547749E+04 -0.1443511E-02 -0.1260757E-02 -0.1232012E+06 -0.1233488E+05
  0.1257143E+01  0.5203045E+05  0.6404163E+04 -0.4855069E-03 -0.8335114E-03 -0.1236056E+06 -0.1414173E+05
  0.1288095E+01  0.5235685E+05  0.7364111E+04  0.7107606E-04 -0.3509521E-03 -0.1240181E+06 -0.1614261E+05
  0.1319048E+01  0.5260515E+05  0.8417109E+04 -0.2660648E-03  0.4024506E-03 -0.1242975E+06 -0.1831780E+05
  0.1350000E+01  0.5287092E+05  0.9578531E+04 -0.1672815E-02 -0.3528595E-03 -0.1246234E+06 -0.2069464E+05
  0.1380952E+01  0.5304570E+05  0.1083503E+05 -0.2309339E-02 -0.1228333E-02 -0.1246692E+06 -0.2322269E+05
  0.1411905E+01  0.5312427E+05  0.1217915E+05 -0.1188796E-02 -0.7400513E-03 -0.1245991E+06 -0.2590638E+05
  0.1442857E+01  0.5326958E+05  0.1365171E+05 -0.1766092E-02  0.1831055E-03 -0.1245347E+06 -0.2879124E+05
  0.1473810E+01  0.5332421E+05  0.1522485E+05 -0.1107803E-02 -0.1842499E-02 -0.1243069E+06 -0.3183423E+05
  0.1504762E+01  0.5326902E+05  0.1688733E+05 -0.3447714E-03  0.1335144E-03 -0.1238202E+06 -0.3499309E+05
  0.1535714E+01  0.5320312E+05  0.1866251E+05 -0.1142635E-02  0.1300812E-02 -0.1233533E+06 -0.3833003E+05
  0.1566667E+01  0.5306996E+05  0.2052921E+05 -0.1636262E-02  0.2479553E-03 -0.1227383E+06 -0.4178043E+05
  0.1597619E+01  0.5283389E+05  0.2246872E+05 -0.1432643E-02 -0.5149841E-03 -0.1218901E+06 -0.4528806E+05
  0.1628572E+01  0.5255686E+05  0.2449265E+05 -0.5809048E-03  0.4577637E-04 -0.1209749E+06 -0.4888909E+05
  0.1659524E+01  0.5222346E+05  0.2658465E+05 -0.2022829E-02 -0.1270294E-02 -0.1199550E+06 -0.5253746E+05
  0.1690476E+01  0.5177791E+05  0.2871797E+05 -0.2067029E-02 -0.1049042E-02 -0.1187911E+06 -0.5620579E+05
  0.1721429E+01  0.5120370E+05  0.3083816E+05 -0.6470740E-03 -0.1144409E-04 -0.1173215E+06 -0.5971551E+05
  0.1752381E+01  0.5056842E+05  0.3297062E+05 -0.1567343E-02  0.1678467E-03 -0.1157652E+06 -0.6316612E+05
  0.1783333E+01  0.4989342E+05  0.3511882E+05 -0.8042951E-03 -0.1480103E-02 -0.1141865E+06 -0.6657191E+05
  0.1814286E+01  0.4912471E+05  0.3721711E+05 -0.4541592E-03 -0.2288818E-04 -0.1124272E+06 -0.6976912E+05
  0.1845238E+01  0.4827308E+05  0.3925322E+05 -0.1000583E-02  0.6866455E-04 -0.1105247E+06 -0.7273075E+05
  0.1876190E+01  0.4738621E+05  0.4124329E+05 -0.8946143E-03 -0.8773804E-03 -0.1086062E+06 -0.7553119E+05
  0.1907143E+01  0.4646900E+05  0.4316406E+05 -0.1384149E-02 -0.4959106E-03 -0.1066547E+06 -0.7809730E+05
  0.1938095E+01  0.4547210E+05  0.4497210E+05 -0.8581663E-03 -0.3128052E-03 -0.1046551E+06 -0.8041941E+05
  0.1969048E+01  0.4443057E+05  0.4664670E+05 -0.1115903E-02 -0.3051758E-04 -0.1026044E+06 -0.8240326E+05
  0.2000000E+01  0.4331657E+05  0.4811687E+05 -0.1144409E-02  0.9155273E-04 -0.1004277E+06 -0.8388633E+05
Zone t="Motion of body    1 in DoF   2",I=    64,F=POINT
  0.5000000E-01  0.6771088E-03  0.2741814E-05  0.1163411E+05  0.1121212E+02 -0.1525879E-03 -0.1096725E-04
  0.8095238E-01  0.8187574E-03  0.2622604E-05  0.1156164E+05  0.1856275E+02 -0.2733118E-02 -0.1966953E-04
  0.1119048E+00  0.1926016E-02  0.8344650E-06  0.1153543E+05  0.2652011E+02 -0.8283574E-02 -0.7033348E-05
  0.1428571E+00  0.2670288E-02  0.2610683E-04  0.1151472E+05  0.3537944E+02 -0.3524780E-02 -0.8213520E-04
  0.1738095E+00  0.3489664E-02  0.7629395E-05  0.1150583E+05  0.4546146E+02 -0.1005199E-01 -0.5173683E-04
  0.2047619E+00  0.3725983E-04 -0.1668930E-04  0.1151742E+05  0.5724545E+02 -0.7675526E-02  0.1018047E-03
  0.2357143E+00  0.1351328E-02 -0.3814697E-05  0.1150540E+05  0.7132503E+02 -0.6732362E-02 -0.3027916E-04
  0.2666667E+00  0.3232956E-02  0.2622604E-04  0.1152037E+05  0.8814581E+02 -0.1579285E-01 -0.4768372E-05
  0.2976190E+00  0.2422485E-02  0.9536743E-05  0.1152071E+05  0.1089504E+03 -0.1045898E-01 -0.6437302E-04
  0.3285715E+00  0.4179581E-03  0.1192093E-04  0.1154049E+05  0.1341461E+03 -0.6501570E-02 -0.2384186E-05
  0.3595238E+00  0.1029210E-02 -0.2384186E-04  0.1153617E+05  0.1651616E+03 -0.5729625E-02 -0.4291534E-05
  0.3904762E+00  0.2159026E-02  0.1201630E-03  0.1156150E+05  0.2027365E+03 -0.7971786E-02  0.1049042E-03
  0.4214286E+00  0.7331977E-03 -0.8392334E-04  0.1153582E+05  0.2463081E+03 -0.6770764E-02 -0.1821518E-03
  0.4523810E+00  0.1104656E-02 -0.5054474E-04  0.1154060E+05  0.2982371E+03 -0.1753957E-02  0.1583099E-03
  0.4833333E+00  0.3630539E-02 -0.3051758E-04  0.1150158E+05  0.3530320E+03 -0.8176606E-02 -0.2861023E-03
  0.5142857E+00  0.3189511E-03 -0.1354218E-03  0.1146605E+05  0.4139247E+03 -0.4806519E-02  0.3051758E-04
  0.5452381E+00  0.1833054E-02  0.4005432E-04  0.1143139E+05  0.4766118E+03 -0.7891926E-02 -0.7228851E-03
  0.5761905E+00  0.1516106E-02  0.3967285E-03  0.1136254E+05  0.5396182E+03 -0.5614225E-02 -0.7629395E-04
  0.6071429E+00  0.5968878E-03  0.2593994E-03  0.1131423E+05  0.6049548E+03 -0.7388843E-02 -0.7896423E-03
  0.6380953E+00  0.2749998E-02  0.1373291E-03  0.1124716E+05  0.6669173E+03 -0.7269560E-02 -0.3585815E-03
  0.6690477E+00  0.1111828E-02 -0.3471375E-03  0.1116656E+05  0.7279955E+03 -0.3375396E-02 -0.1945496E-03
  0.7000000E+00  0.1618521E-02 -0.1068115E-03  0.1110572E+05  0.7880656E+03 -0.7890973E-02  0.1716614E-03
  0.7309524E+00  0.4696923E-03  0.6484985E-04  0.1103277E+05  0.8439361E+03 -0.8642339E-02  0.5912781E-03
  0.7619048E+00  0.2748728E-02 -0.4196167E-04  0.1094247E+05  0.8966620E+03 -0.8371352E-02  0.3280640E-03
  0.7928572E+00  0.2035192E-02 -0.1029968E-03  0.1086765E+05  0.9457311E+03 -0.2925288E-02 -0.7934570E-03
  0.8238096E+00  0.2949665E-02  0.1197815E-02  0.1081793E+05  0.9905280E+03 -0.1085403E-01 -0.1071930E-02
  0.8547620E+00  0.1307623E-02  0.6332397E-03  0.1071840E+05  0.1028781E+04 -0.6355137E-02 -0.9765625E-03
  0.8857143E+00  0.2648754E-02 -0.1274109E-02  0.1063140E+05  0.1062197E+04 -0.1019878E-01  0.1029968E-03
  0.9166667E+00  0.2405340E-02 -0.4348755E-03  0.1056462E+05  0.1090267E+04 -0.6758256E-02  0.1926422E-02
  0.9476191E+00  0.2169777E-02 -0.4119873E-03  0.1051875E+05  0.1113249E+04 -0.5603579E-02  0.6256104E-03
  0.9785714E+00  0.3375868E-02 -0.2288818E-04  0.1043410E+05  0.1126666E+04 -0.1178825E-01 -0.1441956E-02
  0.1009524E+01  0.2826475E-02  0.7629395E-05  0.1035573E+05  0.1134706E+04 -0.1221279E-01  0.1274109E-02
  0.1040476E+01  0.2372096E-02  0.2822876E-03  0.1029239E+05  0.1137485E+04 -0.4428890E-02  0.1056671E-02
  0.1071429E+01  0.2196757E-02 -0.2212524E-03  0.1024759E+05  0.1135807E+04 -0.7832846E-02 -0.6103516E-04
  0.1102381E+01  0.2034725E-02  0.3051758E-04  0.1022194E+05  0.1130943E+04 -0.7280716E-02  0.1251221E-02
  0.1133333E+01  0.2793705E-02  0.2975464E-03  0.1014847E+05  0.1109898E+04 -0.1039393E-01  0.3890991E-03
  0.1164286E+01  0.2440938E-02  0.4348755E-03  0.1009234E+05  0.1087024E+04 -0.7863425E-02  0.1735687E-02
  0.1195238E+01  0.1517596E-02 -0.7629395E-04  0.1005031E+05  0.1061391E+04 -0.2936253E-02 -0.6637573E-03
  0.1226190E+01  0.2810802E-02  0.8392334E-04  0.1002454E+05  0.1034937E+04 -0.8287745E-02 -0.1480103E-02
  0.1257143E+01  0.1321489E-02  0.6866455E-03  0.1001623E+05  0.1009790E+04 -0.5146373E-02 -0.1735687E-02
  0.1288095E+01  0.1768017E-02 -0.4806519E-03  0.9989103E+04  0.9701343E+03 -0.7297142E-02  0.4310608E-03
  0.1319048E+01  0.1513424E-02  0.8163452E-03  0.9953114E+04  0.9219840E+03 -0.5275024E-02 -0.4898071E-02
  0.1350000E+01  0.2507280E-02 -0.5264282E-03  0.9926959E+04  0.8749197E+03 -0.8997034E-02  0.1399994E-02
  0.1380952E+01  0.1525517E-02 -0.2059937E-03  0.9912309E+04  0.8300425E+03 -0.3889413E-02 -0.1167297E-02
  0.1411905E+01  0.1892617E-02  0.5264282E-03  0.9909781E+04  0.7903986E+03 -0.7737981E-02 -0.7591248E-03
  0.1442857E+01  0.7482094E-03 -0.6103516E-04  0.9920011E+04  0.7572685E+03 -0.3891747E-02 -0.1346588E-02
  0.1473810E+01  0.1335575E-02 -0.4196167E-03  0.9934052E+04  0.7248266E+03 -0.4638277E-02 -0.5035400E-03
  0.1504762E+01  0.2044545E-02  0.1182556E-02  0.9915979E+04  0.6563298E+03 -0.7179357E-02 -0.1384735E-02
  0.1535714E+01  0.2034387E-02  0.1831055E-03  0.9908899E+04  0.5987024E+03 -0.8425690E-02 -0.1333237E-02
  0.1566667E+01  0.1655741E-02  0.3890991E-03  0.9909352E+04  0.5474396E+03 -0.6622964E-02 -0.1667023E-02
  0.1597619E+01  0.2122700E-02  0.2670288E-03  0.9915322E+04  0.5027403E+03 -0.7640765E-02  0.3261566E-03
  0.1628572E+01  0.1829381E-02  0.1113892E-02  0.9929315E+04  0.4689275E+03 -0.7607978E-02 -0.1184464E-02
  0.1659524E+01  0.2452681E-02  0.9078979E-03  0.9949346E+04  0.4453293E+03 -0.9488909E-02 -0.3210068E-02
  0.1690476E+01  0.2261095E-02 -0.7629395E-05  0.9976762E+04  0.4387317E+03 -0.1036222E-01 -0.1653671E-02
  0.1721429E+01  0.1575581E-02  0.5950928E-03  0.9979521E+04  0.3734642E+03 -0.6523924E-02 -0.9899139E-03
  0.1752381E+01  0.2115913E-02  0.1304626E-02  0.9988275E+04  0.3222077E+03 -0.6060394E-02 -0.2099037E-02
  0.1783333E+01  0.2109136E-02  0.1571655E-02  0.9996644E+04  0.2743607E+03 -0.9001260E-02 -0.3018379E-02
  0.1814286E+01  0.1618994E-02  0.1602173E-03  0.1000953E+05  0.2384908E+03 -0.7266548E-02 -0.2005577E-02
  0.1845238E+01  0.1294142E-02  0.2441406E-03  0.1002311E+05  0.2091145E+03 -0.3373866E-02 -0.3919601E-03
  0.1876190E+01  0.2069812E-02  0.3204346E-03  0.1003974E+05  0.1925011E+03 -0.8165388E-02 -0.7600784E-03
  0.1907143E+01  0.1344145E-02  0.3509521E-03  0.1005771E+05  0.1852546E+03 -0.5184560E-02 -0.1290321E-02
  0.1938095E+01  0.1842302E-02  0.2822876E-03  0.1007633E+05  0.1926931E+03 -0.8849348E-02 -0.1357079E-02
  0.1969048E+01  0.1933457E-02  0.8392334E-03  0.1009283E+05  0.1824092E+03 -0.8400268E-02 -0.1149178E-02
  0.2000000E+01  0.1651764E-02  0.1075745E-02  0.1010519E+05  0.1326871E+03 -0.7446289E-02 -0.1066685E-02
Zone t="Motion of body    1 in DoF   3",I=    64,F=POINT
  0.5000000E-01 -0.1087544E+06 -0.3950221E-02  0.1337051E-01  0.1538812E-04  0.3335691E+06  0.1003703E-01
  0.8095238E-01 -0.1097877E+06 -0.1697257E-01  0.1255821E-01  0.5502499E-04  0.3356302E+06  0.4309021E-01
  0.1119048E+00 -0.1101158E+06 -0.4749668E-01  0.1767503E-01  0.1016579E-03  0.3360847E+06  0.1199266E+00
  0.1428571E+00 -0.1102798E+06 -0.1063708E+00  0.1097488E-01  0.8917670E-04  0.3363791E+06  0.2683290E+00
  0.1738095E+00 -0.1103609E+06 -0.2116122E+00  0.8998505E-02  0.6643368E-04  0.3364950E+06  0.5334856E+00
  0.2047619E+00 -0.1104478E+06 -0.3908367E+00  0.1255656E-01  0.1463552E-03  0.3366632E+06  0.9851276E+00
  0.2357143E+00 -0.1105065E+06 -0.6858369E+00  0.1119903E-01  0.1139021E-03  0.3367975E+06  0.1726754E+01
  0.2666667E+00 -0.1105804E+06 -0.1165229E+01  0.7181167E-02  0.1602899E-04  0.3368836E+06  0.2928705E+01
  0.2976190E+00 -0.1106932E+06 -0.1947329E+01  0.1153564E-01  0.2538692E-03  0.3371589E+06  0.4889857E+01
  0.3285715E+00 -0.1108130E+06 -0.3209129E+01  0.1082047E-01  0.2446119E-03  0.3373676E+06  0.8046018E+01
  0.3595238E+00 -0.1109281E+06 -0.5246693E+01  0.1474848E-01  0.5888902E-03  0.3375810E+06  0.1312780E+02
  0.3904762E+00 -0.1110935E+06 -0.8510487E+01  0.6975313E-02  0.3676638E-03  0.3378921E+06  0.2125081E+02
  0.4214286E+00 -0.1112874E+06 -0.1361820E+02  0.1828468E-01  0.9188429E-03  0.3383065E+06  0.3394369E+02
  0.4523810E+00 -0.1114940E+06 -0.2161040E+02 -0.1517848E-03 -0.7665902E-04  0.3386561E+06  0.5373684E+02
  0.4833333E+00 -0.1116550E+06 -0.3340322E+02  0.1472736E-01  0.1209483E-02  0.3389983E+06  0.8286136E+02
  0.5142857E+00 -0.1119068E+06 -0.5080811E+02  0.9642707E-02  0.6441772E-03  0.3395083E+06  0.1257165E+03
  0.5452381E+00 -0.1122102E+06 -0.7541154E+02  0.9599045E-02  0.1062989E-02  0.3401051E+06  0.1861342E+03
  0.5761905E+00 -0.1124805E+06 -0.1092429E+03  0.1943793E-01  0.2277851E-02  0.3406483E+06  0.2688639E+03
  0.6071429E+00 -0.1128373E+06 -0.1554331E+03  0.2613741E-02  0.5120039E-03  0.3412938E+06  0.3813061E+03
  0.6380953E+00 -0.1131159E+06 -0.2160149E+03  0.8943472E-02  0.1182079E-02  0.3419073E+06  0.5282769E+03
  0.6690477E+00 -0.1135411E+06 -0.2950987E+03  0.1222441E-01  0.1953483E-02  0.3427814E+06  0.7194683E+03
  0.7000000E+00 -0.1140047E+06 -0.3972166E+03  0.3204345E-02  0.4892349E-03  0.3436430E+06  0.9649279E+03
  0.7309524E+00 -0.1143597E+06 -0.5259057E+03  0.1002010E-01  0.1368523E-02  0.3443555E+06  0.1272747E+04
  0.7619048E+00 -0.1148532E+06 -0.6872946E+03  0.1133537E-01  0.1905680E-02  0.3453352E+06  0.1656966E+04
  0.7928572E+00 -0.1153082E+06 -0.8871110E+03  0.1210530E-01  0.2285004E-02  0.3462488E+06  0.2129827E+04
  0.8238096E+00 -0.1159077E+06 -0.1132430E+04  0.1194684E-01  0.3452301E-02  0.3474077E+06  0.2707526E+04
  0.8547620E+00 -0.1163856E+06 -0.1428882E+04  0.6194473E-02  0.3123283E-02  0.3483557E+06  0.3402135E+04
  0.8857143E+00 -0.1169619E+06 -0.1785744E+04 -0.1808905E-02  0.9346008E-04  0.3494436E+06  0.4232590E+04
  0.9166667E+00 -0.1175157E+06 -0.2211072E+04  0.9421608E-02  0.3959656E-02  0.3504725E+06  0.5214389E+04
  0.9476191E+00 -0.1181509E+06 -0.2714355E+04  0.3188243E-02  0.1215935E-02  0.3516108E+06  0.6368698E+04
  0.9785714E+00 -0.1186559E+06 -0.3302292E+04  0.8248656E-02  0.2647400E-02  0.3525226E+06  0.7707950E+04
  0.1009524E+01 -0.1193446E+06 -0.3989140E+04  0.1330106E-02  0.3147125E-03  0.3537784E+06  0.9262960E+04
  0.1040476E+01 -0.1199179E+06 -0.4780901E+04  0.1237743E-01  0.6258011E-02  0.3548151E+06  0.1104044E+05
  0.1071429E+01 -0.1205991E+06 -0.5692958E+04  0.7120768E-03 -0.2286911E-02  0.3559532E+06  0.1307128E+05
  0.1102381E+01 -0.1212433E+06 -0.6730112E+04 -0.3377366E-02 -0.3530502E-02  0.3570675E+06  0.1536269E+05
  0.1133333E+01 -0.1217006E+06 -0.7898948E+04  0.2046473E-02 -0.1848221E-02  0.3577272E+06  0.1791761E+05
  0.1164286E+01 -0.1223108E+06 -0.9221008E+04  0.7863425E-02  0.2876282E-02  0.3586519E+06  0.2078379E+05
  0.1195238E+01 -0.1227620E+06 -0.1069408E+05  0.2195806E-02 -0.3585815E-03  0.3592564E+06  0.2394290E+05
  0.1226190E+01 -0.1232499E+06 -0.1233721E+05  0.5823821E-02  0.2929688E-02  0.3598769E+06  0.2742966E+05
  0.1257143E+01 -0.1236504E+06 -0.1414283E+05 -0.6068836E-03 -0.3486633E-02  0.3602916E+06  0.3122823E+05
  0.1288095E+01 -0.1240588E+06 -0.1614352E+05  0.1824285E-02 -0.1022339E-02  0.3606769E+06  0.3538417E+05
  0.1319048E+01 -0.1243320E+06 -0.1831629E+05  0.3262186E-02 -0.5302429E-03  0.3608316E+06  0.3985764E+05
  0.1350000E+01 -0.1246550E+06 -0.2068690E+05  0.7527669E-02  0.4936218E-02  0.3609935E+06  0.4468980E+05
  0.1380952E+01 -0.1247034E+06 -0.2321521E+05  0.5944614E-02  0.3440857E-02  0.3605878E+06  0.4975186E+05
  0.1411905E+01 -0.1246293E+06 -0.2589152E+05  0.9748127E-02  0.5363464E-02  0.3599927E+06  0.5506976E+05
  0.1442857E+01 -0.1245625E+06 -0.2877603E+05  0.6620199E-02 -0.1152039E-02  0.3591963E+06  0.6067830E+05
  0.1473810E+01 -0.1243350E+06 -0.3181649E+05  0.3747894E-02  0.2738953E-02  0.3581942E+06  0.6651339E+05
  0.1504762E+01 -0.1238401E+06 -0.3497389E+05  0.7301041E-02  0.4196167E-03  0.3565958E+06  0.7245497E+05
  0.1535714E+01 -0.1233752E+06 -0.3830478E+05  0.6041061E-02  0.1144409E-03  0.3551086E+06  0.7865293E+05
  0.1566667E+01 -0.1227579E+06 -0.4174611E+05  0.1636262E-02 -0.2288818E-04  0.3532752E+06  0.8493975E+05
  0.1597619E+01 -0.1219148E+06 -0.4525443E+05  0.8404841E-02  0.2128601E-02  0.3510267E+06  0.9118897E+05
  0.1628572E+01 -0.1210015E+06 -0.4885535E+05  0.4216244E-02  0.1113892E-02  0.3486794E+06  0.9749850E+05
  0.1659524E+01 -0.1199749E+06 -0.5249478E+05  0.9801527E-02  0.5599976E-02  0.3460142E+06  0.1037005E+06
  0.1690476E+01 -0.1188131E+06 -0.5614956E+05  0.7997325E-02  0.1174927E-02  0.3432962E+06  0.1098457E+06
  0.1721429E+01 -0.1173370E+06 -0.5964948E+05  0.3634251E-02  0.4577637E-04  0.3398834E+06  0.1154340E+06
  0.1752381E+01 -0.1157778E+06 -0.6309332E+05  0.3239176E-02  0.1419067E-02  0.3364575E+06  0.1208099E+06
  0.1783333E+01 -0.1142038E+06 -0.6648102E+05  0.6537037E-02  0.1525879E-02  0.3330065E+06  0.1259273E+06
  0.1814286E+01 -0.1124465E+06 -0.6966799E+05  0.3179115E-02  0.6027222E-03  0.3292942E+06  0.1305111E+06
  0.1845238E+01 -0.1105505E+06 -0.7263310E+05  0.5424647E-02  0.8087158E-03  0.3253932E+06  0.1344688E+06
  0.1876190E+01 -0.1086354E+06 -0.7543334E+05  0.6766537E-02  0.1289368E-02  0.3215672E+06  0.1380522E+06
  0.1907143E+01 -0.1066787E+06 -0.7798468E+05  0.8576926E-02  0.1029968E-02  0.3176152E+06  0.1409534E+06
  0.1938095E+01 -0.1046845E+06 -0.8028879E+05  0.8691886E-02  0.9307861E-03  0.3138042E+06  0.1433896E+06
  0.1969048E+01 -0.1026371E+06 -0.8225823E+05  0.8276279E-02  0.2525330E-02  0.3099887E+06  0.1451009E+06
  0.2000000E+01 -0.1004543E+06 -0.8372866E+05  0.5722046E-02  0.2044678E-02  0.3059624E+06  0.1457095E+06
