VARIABLES="w (rad/s)"
"A   1   1" "B   1   1"
"A   1   2" "B   1   2"
"A   1   3" "B   1   3"
Zone t="Motion of body    1 in DoF   1",I=    64,F=POINT
  0.5000000E-01  0.3992200E+05  0.2874449E-02  0.1937866E-01  0.2093572E-04  0.7988521E+05  0.6844240E-02
  0.8095238E-01  0.4004312E+05  0.1264279E-01  0.4429536E-02 -0.3641154E-04  0.7991612E+05  0.3003046E-01
  0.1119048E+00  0.4005481E+05  0.3548492E-01 -0.1718075E-01 -0.1193289E-03  0.7977681E+05  0.8423048E-01
  0.1428571E+00  0.4012085E+05  0.7980793E-01 -0.2830505E-02 -0.2122670E-04  0.7998964E+05  0.1896396E+00
  0.1738095E+00  0.4014254E+05  0.1588179E+00  0.1755806E-03 -0.4471047E-04  0.8000776E+05  0.3776305E+00
  0.2047619E+00  0.4021607E+05  0.2928308E+00 -0.1169959E-01 -0.1616850E-03  0.8027757E+05  0.6968551E+00
  0.2357143E+00  0.4026525E+05  0.5152957E+00 -0.1281738E-01 -0.2035135E-03  0.8033882E+05  0.1227091E+01
  0.2666667E+00  0.4032032E+05  0.8785272E+00  0.7495880E-02  0.1284257E-03  0.8051933E+05  0.2094311E+01
  0.2976190E+00  0.4042821E+05  0.1472357E+01 -0.9228516E-03 -0.2443045E-03  0.8086611E+05  0.3514195E+01
  0.3285715E+00  0.4050197E+05  0.2433728E+01  0.1142419E-01  0.1647398E-03  0.8099530E+05  0.5814470E+01
  0.3595238E+00  0.4057557E+05  0.3991091E+01  0.1137437E-01  0.2169833E-03  0.8118404E+05  0.9546973E+01
  0.3904762E+00  0.4072120E+05  0.6501464E+01  0.1641250E-01  0.7908791E-03  0.8169965E+05  0.1558012E+02
  0.4214286E+00  0.4084221E+05  0.1043964E+02  0.5503508E-02  0.1246631E-03  0.8196310E+05  0.2505219E+02
  0.4523810E+00  0.4095920E+05  0.1661805E+02  0.1052374E-01  0.3216565E-03  0.8220226E+05  0.3993431E+02
  0.4833333E+00  0.4109411E+05  0.2579587E+02  0.1262796E-01  0.8528233E-03  0.8261548E+05  0.6210846E+02
  0.5142857E+00  0.4130661E+05  0.3938564E+02 -0.8900961E-02 -0.1883626E-02  0.8329541E+05  0.9503384E+02
  0.5452381E+00  0.4148741E+05  0.5868274E+02  0.1007480E-02  0.9799004E-04  0.8372650E+05  0.1418528E+03
  0.5761905E+00  0.4167989E+05  0.8537414E+02 -0.4766795E-03 -0.3709793E-03  0.8421991E+05  0.2067881E+03
  0.6071429E+00  0.4188121E+05  0.1218538E+03  0.2070887E-01  0.3759623E-02  0.8478779E+05  0.2957819E+03
  0.6380953E+00  0.4210817E+05  0.1700268E+03  0.3921736E-02  0.5536079E-03  0.8543379E+05  0.4136684E+03
  0.6690477E+00  0.4237322E+05  0.2331328E+03  0.2463127E-01  0.2902031E-02  0.8615127E+05  0.5685424E+03
  0.7000000E+00  0.4264329E+05  0.3147618E+03  0.4621233E-02  0.2385139E-02  0.8683790E+05  0.7693998E+03
  0.7309524E+00  0.4290489E+05  0.4181414E+03 -0.1252513E-02 -0.3056526E-02  0.8751455E+05  0.1024558E+04
  0.7619048E+00  0.4318323E+05  0.5478092E+03  0.1882553E-01  0.4579544E-02  0.8828791E+05  0.1345730E+04
  0.7928572E+00  0.4350511E+05  0.7086106E+03 -0.5003782E-02 -0.2626419E-02  0.8922002E+05  0.1745531E+04
  0.8238096E+00  0.4382920E+05  0.9056333E+03  0.6742091E-02  0.1054764E-02  0.9009713E+05  0.2236882E+04
  0.8547620E+00  0.4416403E+05  0.1144491E+04  0.2284993E-02  0.2956390E-02  0.9098919E+05  0.2834771E+04
  0.8857143E+00  0.4450280E+05  0.1431092E+04 -0.3721176E-02 -0.2906799E-02  0.9190220E+05  0.3554890E+04
  0.9166667E+00  0.4484156E+05  0.1771168E+04  0.8522728E-02 -0.6828308E-03  0.9283477E+05  0.4412486E+04
  0.9476191E+00  0.4516540E+05  0.2170339E+04 -0.4701854E-02 -0.2067566E-02  0.9373320E+05  0.5422609E+04
  0.9785714E+00  0.4548625E+05  0.2634449E+04  0.6112426E-02 -0.4936218E-02  0.9467417E+05  0.6602089E+04
  0.1009524E+01  0.4580834E+05  0.3168946E+04  0.9915334E-02  0.3227234E-02  0.9561781E+05  0.7966098E+04
  0.1040476E+01  0.4612377E+05  0.3779120E+04 -0.7039295E-03  0.5851746E-02  0.9655091E+05  0.9530433E+04
  0.1071429E+01  0.4641212E+05  0.4469666E+04  0.5240886E-02  0.8544922E-03  0.9739180E+05  0.1130929E+05
  0.1102381E+01  0.4666173E+05  0.5244415E+04 -0.3322000E-03 -0.5523682E-02  0.9811823E+05  0.1331442E+05
  0.1133333E+01  0.4687322E+05  0.6104842E+04 -0.2046473E-02 -0.8331299E-02  0.9876209E+05  0.1555186E+05
  0.1164286E+01  0.4703301E+05  0.7050737E+04  0.1205725E-01 -0.2059937E-02  0.9928552E+05  0.1802298E+05
  0.1195238E+01  0.4714264E+05  0.8080493E+04  0.1531958E-01  0.8438110E-02  0.9970468E+05  0.2072657E+05
  0.1226190E+01  0.4719567E+05  0.9191295E+04 -0.9955249E-03  0.1434326E-02  0.9998511E+05  0.2365858E+05
  0.1257143E+01  0.4719181E+05  0.1039249E+05 -0.2136230E-02  0.2380371E-02  0.1000953E+06  0.2684541E+05
  0.1288095E+01  0.4711454E+05  0.1163814E+05  0.8623895E-02  0.5859375E-02  0.1000391E+06  0.3017249E+05
  0.1319048E+01  0.4699125E+05  0.1295796E+05 -0.6570644E-02 -0.8117676E-02  0.9985090E+05  0.3371602E+05
  0.1350000E+01  0.4680966E+05  0.1432800E+05  0.4159433E-02 -0.1388550E-01  0.9952767E+05  0.3741655E+05
  0.1380952E+01  0.4657383E+05  0.1573678E+05  0.4419787E-03 -0.4638672E-02  0.9906893E+05  0.4124544E+05
  0.1411905E+01  0.4565055E+05  0.1688533E+05 -0.1737804E-01 -0.1013184E-01  0.9660054E+05  0.4443805E+05
  0.1442857E+01  0.4531591E+05  0.1834356E+05  0.1522857E-02 -0.5493164E-03  0.9587023E+05  0.4845841E+05
  0.1473810E+01  0.4491479E+05  0.1981243E+05  0.7951332E-02  0.3662109E-02  0.9495852E+05  0.5253725E+05
  0.1504762E+01  0.4445837E+05  0.2127865E+05  0.4461747E-02  0.9704590E-02  0.9389031E+05  0.5663941E+05
  0.1535714E+01  0.4395134E+05  0.2272997E+05 -0.1589753E-03  0.2441406E-01  0.9267645E+05  0.6073400E+05
  0.1566667E+01  0.4339754E+05  0.2415625E+05 -0.1480427E-02  0.1354980E-01  0.9133476E+05  0.6479215E+05
  0.1597619E+01  0.4280339E+05  0.2554709E+05  0.3438344E-02 -0.1135254E-01  0.8986684E+05  0.6878676E+05
  0.1628572E+01  0.4217423E+05  0.2689438E+05  0.7270679E-02 -0.1013184E-01  0.8829609E+05  0.7269747E+05
  0.1659524E+01  0.4151978E+05  0.2818836E+05  0.9047564E-02 -0.8483887E-02  0.8664453E+05  0.7649425E+05
  0.1690476E+01  0.4084678E+05  0.2942325E+05 -0.8015377E-02 -0.0000000E+00  0.8492714E+05  0.8015491E+05
  0.1721429E+01  0.4015453E+05  0.3059739E+05 -0.6382100E-03  0.6103516E-02  0.8315864E+05  0.8367715E+05
  0.1752381E+01  0.3946027E+05  0.3169996E+05  0.8359163E-03  0.4516602E-02  0.8135722E+05  0.8702489E+05
  0.1783333E+01  0.3875991E+05  0.3273102E+05 -0.2806476E-02  0.7812500E-02  0.7953454E+05  0.9020102E+05
  0.1814286E+01  0.3805681E+05  0.3369694E+05  0.9419599E-03  0.8544922E-03  0.7769256E+05  0.9321872E+05
  0.1845238E+01  0.3735941E+05  0.3459030E+05  0.2580015E-02  0.2600098E-01  0.7584190E+05  0.9605515E+05
  0.1876190E+01  0.3666713E+05  0.3541430E+05 -0.2472389E-02 -0.9277344E-02  0.7399688E+05  0.9872662E+05
  0.1907143E+01  0.3598604E+05  0.3616878E+05 -0.1728187E-02 -0.1086426E-01  0.7216758E+05  0.1012237E+06
  0.1938095E+01  0.3532247E+05  0.3685870E+05  0.4282958E-02  0.5859375E-02  0.7035532E+05  0.1035455E+06
  0.1969048E+01  0.3466586E+05  0.3748193E+05 -0.5579514E-02  0.6347656E-02  0.6858296E+05  0.1057060E+06
  0.2000000E+01  0.3403170E+05  0.3804711E+05  0.2685547E-02  0.6347656E-02  0.6684128E+05  0.1077105E+06
Zone t="Motion of body    1 in DoF   2",I=    64,F=POINT
  0.5000000E-01  0.1708984E-01 -0.2336502E-04  0.1951865E+06  0.5407252E+03 -0.1525879E-01  0.4386902E-04
  0.8095238E-01 -0.1507927E-02  0.9536743E-06  0.1928099E+06  0.8968429E+03  0.1055549E-01  0.1907349E-04
  0.1119048E+00 -0.1090841E-01  0.6389618E-04  0.1915736E+06  0.1284950E+04  0.2181682E-02  0.1792908E-03
  0.1428571E+00  0.4379272E-02  0.9155273E-04  0.1908422E+06  0.1719471E+04  0.1538086E-01 -0.1525879E-04
  0.1738095E+00  0.2545919E-01  0.1277924E-03  0.1908468E+06  0.2219879E+04  0.5197185E-01 -0.2212524E-03
  0.2047619E+00 -0.1341354E-02  0.7629395E-04  0.1910801E+06  0.2808833E+04  0.7153888E-02  0.6103516E-04
  0.2357143E+00 -0.7768110E-03 -0.1754761E-03  0.1916661E+06  0.3519391E+04 -0.2848307E-01  0.3051758E-04
  0.2666667E+00  0.8926392E-02 -0.9918213E-04  0.1925959E+06  0.4380403E+04  0.1464844E-01 -0.1525879E-04
  0.2976190E+00  0.8818359E-02 -0.1945496E-03  0.1935267E+06  0.5451984E+04 -0.1476562E-01 -0.9765625E-03
  0.3285715E+00  0.5387015E-02  0.7629395E-05  0.1946869E+06  0.6769544E+04  0.2229110E-01 -0.1525879E-03
  0.3595238E+00  0.2291850E-01  0.1373291E-03  0.1958456E+06  0.8404497E+04  0.3666960E-01 -0.2441406E-03
  0.3904762E+00  0.8440714E-02  0.3585815E-03  0.1969933E+06  0.1041770E+05  0.3313762E-01  0.4577637E-03
  0.4214286E+00 -0.6372483E-02  0.2670288E-03  0.1974086E+06  0.1278500E+05  0.2027608E-01  0.2197266E-02
  0.4523810E+00 -0.1173802E-01  0.6103516E-04  0.1978502E+06  0.1562555E+05  0.1457134E-01 -0.9155273E-03
  0.4833333E+00 -0.7829337E-02  0.4577637E-04  0.1976270E+06  0.1871731E+05  0.6061422E-02 -0.3540039E-02
  0.5142857E+00  0.1424154E-02 -0.4425049E-03  0.1967698E+06  0.2219912E+05 -0.2658420E-01  0.1831055E-02
  0.5452381E+00 -0.1880629E-01  0.3967285E-03  0.1954676E+06  0.2588996E+05 -0.6268764E-02  0.7324219E-03
  0.5761905E+00 -0.2330433E-02 -0.1342773E-02  0.1939029E+06  0.2972199E+05 -0.4067665E-01 -0.1342773E-02
  0.6071429E+00  0.1146025E-01 -0.4272461E-03  0.1918638E+06  0.3378225E+05  0.4825367E-02 -0.4882812E-02
  0.6380953E+00  0.7652169E-03  0.7324219E-03  0.1895619E+06  0.3785709E+05 -0.1377390E-01 -0.3906250E-02
  0.6690477E+00 -0.2371900E-02  0.1556396E-02  0.1869500E+06  0.4203016E+05  0.7298153E-03  0.2197266E-02
  0.7000000E+00  0.1743862E-03 -0.5798340E-03  0.1841582E+06  0.4630510E+05 -0.1325335E-01 -0.2441406E-02
  0.7309524E+00 -0.5344055E-02 -0.1159668E-02  0.1813378E+06  0.5056229E+05 -0.1870419E-01  0.4394531E-02
  0.7619048E+00  0.1297760E-01 -0.9765625E-03  0.1783273E+06  0.5483635E+05 -0.3845214E-02 -0.1147461E-01
  0.7928572E+00  0.1324078E-01  0.4272461E-03  0.1751083E+06  0.5912208E+05 -0.9853602E-02  0.8544922E-02
  0.8238096E+00  0.4445335E-02 -0.2197266E-02  0.1717161E+06  0.6339179E+05 -0.2963557E-02  0.2929688E-02
  0.8547620E+00 -0.4855610E-02  0.6469727E-02  0.1683233E+06  0.6759574E+05  0.5712482E-02  0.1708984E-02
  0.8857143E+00 -0.1047442E-01  0.5554199E-02  0.1649379E+06  0.7170521E+05 -0.1433342E-01  0.6347656E-02
  0.9166667E+00 -0.5193537E-02  0.2990723E-02  0.1615514E+06  0.7570989E+05  0.1118608E-01  0.4882812E-02
  0.9476191E+00  0.5152716E-02  0.3417969E-02  0.1580859E+06  0.7962170E+05 -0.1854978E-01  0.2441406E-03
  0.9785714E+00 -0.5862939E-02  0.3295898E-02  0.1545907E+06  0.8342293E+05 -0.1995894E-02  0.2929688E-02
  0.1009524E+01 -0.2902049E-02 -0.5737305E-02  0.1510780E+06  0.8710741E+05  0.1644495E-01 -0.1562500E-01
  0.1040476E+01 -0.3167683E-02 -0.3173828E-02  0.1475960E+06  0.9064819E+05 -0.8447153E-02 -0.5371094E-02
  0.1071429E+01 -0.3304037E-02 -0.2441406E-02  0.1441666E+06  0.9402738E+05  0.6835938E-02 -0.1513672E-01
  0.1102381E+01  0.2214666E-02 -0.4394531E-02  0.1408180E+06  0.9723049E+05 -0.2347546E-01 -0.1464844E-01
  0.1133333E+01 -0.2477309E-02  0.6713867E-02  0.1375438E+06  0.1002528E+06 -0.1120175E-01 -0.5371094E-02
  0.1164286E+01  0.8387653E-02  0.4028320E-02  0.1343555E+06  0.1031000E+06 -0.6710122E-02 -0.1025391E-01
  0.1195238E+01 -0.2451133E-02  0.1708984E-02  0.1312394E+06  0.1057772E+06 -0.2859655E-02  0.3417969E-02
  0.1226190E+01 -0.4977624E-02  0.3662109E-02  0.1282048E+06  0.1082901E+06 -0.7565989E-02  0.6835938E-02
  0.1257143E+01  0.6991299E-02 -0.4638672E-02  0.1252815E+06  0.1107188E+06  0.7379705E-02  0.5371094E-02
  0.1288095E+01  0.5970389E-02  0.6469727E-02  0.1223514E+06  0.1128673E+06  0.4927940E-02  0.1269531E-01
  0.1319048E+01  0.1388164E-02  0.7568359E-02  0.1195578E+06  0.1149095E+06 -0.2591240E-02 -0.3906250E-02
  0.1350000E+01 -0.9313513E-02 -0.1831055E-02  0.1168623E+06  0.1167798E+06 -0.1808449E-01  0.1806641E-01
  0.1380952E+01 -0.1679519E-02 -0.3295898E-02  0.1142691E+06  0.1184575E+06 -0.7071660E-03 -0.2148438E-01
  0.1411905E+01  0.8645789E-04  0.8300781E-02  0.1102950E+06  0.1202136E+06 -0.1037495E-01  0.1513672E-01
  0.1442857E+01 -0.4145556E-02 -0.2319336E-02  0.1078952E+06  0.1217061E+06 -0.2571937E-01 -0.1806641E-01
  0.1473810E+01  0.5797847E-02 -0.4638672E-02  0.1055792E+06  0.1230770E+06 -0.6294805E-02  0.1464844E-01
  0.1504762E+01 -0.1135717E-02  0.3051758E-02  0.1033553E+06  0.1243094E+06  0.1882046E-01  0.2783203E-01
  0.1535714E+01 -0.3179506E-03  0.1245117E-01  0.1012175E+06  0.1254134E+06  0.9220567E-02 -0.1025391E-01
  0.1566667E+01  0.7869639E-02 -0.4882812E-03  0.9916617E+05  0.1263966E+06 -0.1246675E-02  0.1367188E-01
  0.1597619E+01  0.4737274E-02 -0.1562500E-01  0.9720079E+05  0.1272716E+06 -0.7946395E-02 -0.4980469E-01
  0.1628572E+01 -0.1439145E-01 -0.2929688E-02  0.9531792E+05  0.1280355E+06 -0.1289234E-01  0.1708984E-01
  0.1659524E+01 -0.1324034E-02  0.1464844E-01  0.9351687E+05  0.1286869E+06  0.1147496E-01  0.3515625E-01
  0.1690476E+01  0.2166318E-03 -0.8789062E-02  0.9179385E+05  0.1292222E+06  0.8665273E-03 -0.1367188E-01
  0.1721429E+01  0.1141687E-01  0.1782227E-01  0.9014247E+05  0.1296600E+06  0.1503339E-01  0.2539062E-01
  0.1752381E+01 -0.4667200E-02 -0.4882812E-03  0.8856697E+05  0.1299752E+06 -0.4736859E-02 -0.1953125E-01
  0.1783333E+01  0.5202249E-02  0.1953125E-02  0.8706066E+05  0.1301981E+06  0.1642815E-01  0.5859375E-02
  0.1814286E+01  0.6459154E-02  0.2563477E-02  0.8562415E+05  0.1303511E+06 -0.6459154E-02  0.6347656E-02
  0.1845238E+01 -0.4167717E-02  0.1147461E-01  0.8425641E+05  0.1304220E+06 -0.5821573E-02  0.3466797E-01
  0.1876190E+01 -0.5205029E-03  0.2807617E-02  0.8295057E+05  0.1304262E+06 -0.2342263E-02 -0.8300781E-02
  0.1907143E+01  0.8960967E-03 -0.6835938E-02  0.8170816E+05  0.1303627E+06 -0.1484960E-01 -0.1611328E-01
  0.1938095E+01 -0.8376963E-02 -0.4272461E-02  0.8052480E+05  0.1302185E+06 -0.1284888E-01 -0.6347656E-02
  0.1969048E+01  0.5827492E-02 -0.1220703E-02  0.7938815E+05  0.1300283E+06  0.4959568E-03  0.2929688E-01
  0.2000000E+01 -0.4211426E-02  0.5981445E-02  0.7831012E+05  0.1297795E+06 -0.5859375E-02  0.1367188E-01
Zone t="Motion of body    1 in DoF   3",I=    64,F=POINT
  0.5000000E-01  0.7730569E+05  0.6549154E-02  0.3311157E-01  0.6589502E-04  0.2339244E+06  0.1563609E-01
  0.8095238E-01  0.7737484E+05  0.2870403E-01  0.3317440E-01  0.5739322E-04  0.2343563E+06  0.6819503E-01
  0.1119048E+00  0.7718952E+05  0.8054946E-01  0.4636074E-02 -0.1015193E-03  0.2332968E+06  0.1912658E+00
  0.1428571E+00  0.7740552E+05  0.1813274E+00  0.9399414E-02 -0.1380001E-03  0.2340412E+06  0.4307714E+00
  0.1738095E+00  0.7742987E+05  0.3610982E+00  0.9656932E-02  0.1834985E-04  0.2340374E+06  0.8583687E+00
  0.2047619E+00  0.7771608E+05  0.6663057E+00 -0.5663495E-02 -0.5949046E-03  0.2351018E+06  0.1585669E+01
  0.2357143E+00  0.7772738E+05  0.1173489E+01 -0.6991299E-02 -0.5031526E-03  0.2347420E+06  0.2794623E+01
  0.2666667E+00  0.7793441E+05  0.2002784E+01 -0.3227234E-01 -0.1253843E-02  0.2355436E+06  0.4774385E+01
  0.2976190E+00  0.7827674E+05  0.3359813E+01 -0.1086914E-01 -0.8272901E-03  0.2366432E+06  0.8018650E+01
  0.3285715E+00  0.7834337E+05  0.5560662E+01  0.2210534E-01  0.2719909E-03  0.2363818E+06  0.1328420E+02
  0.3595238E+00  0.7853309E+05  0.9130425E+01  0.3106730E-01  0.3539324E-03  0.2369364E+06  0.2183967E+02
  0.3904762E+00  0.7909202E+05  0.1489427E+02  0.4142202E-01  0.1845896E-02  0.2390193E+06  0.3569245E+02
  0.4214286E+00  0.7926619E+05  0.2395420E+02  0.9558725E-02 -0.2402067E-04  0.2389901E+06  0.5748241E+02
  0.4523810E+00  0.7946294E+05  0.3819395E+02  0.1592054E-01  0.7855892E-03  0.2392046E+06  0.9178034E+02
  0.4833333E+00  0.7989891E+05  0.5939040E+02  0.1641635E-01  0.5327463E-03  0.2407084E+06  0.1429901E+03
  0.5142857E+00  0.8059242E+05  0.9083253E+02 -0.6883410E-02 -0.2388716E-02  0.2430225E+06  0.2191682E+03
  0.5452381E+00  0.8094388E+05  0.1356124E+03 -0.2664225E-01 -0.3400564E-02  0.2435637E+06  0.3278159E+03
  0.5761905E+00  0.8142081E+05  0.1977061E+03 -0.3410906E-01 -0.9460926E-02  0.2448232E+06  0.4788708E+03
  0.6071429E+00  0.8200194E+05  0.2827452E+03  0.3458180E-01  0.5846977E-02  0.2466531E+06  0.6863279E+03
  0.6380953E+00  0.8262205E+05  0.3953694E+03  0.7843473E-02 -0.6380081E-03  0.2484610E+06  0.9618981E+03
  0.6690477E+00  0.8327953E+05  0.5434026E+03  0.8027969E-02  0.7619858E-03  0.2501191E+06  0.1325211E+04
  0.7000000E+00  0.8391191E+05  0.7355242E+03  0.2267020E-01  0.1766205E-02  0.2515960E+06  0.1797986E+04
  0.7309524E+00  0.8455587E+05  0.9795203E+03 -0.2087521E-01 -0.1281357E-01  0.2532964E+06  0.2400108E+04
  0.7619048E+00  0.8532203E+05  0.1286367E+04  0.1217651E-01 -0.3875732E-02  0.2555807E+06  0.3159937E+04
  0.7928572E+00  0.8623827E+05  0.1668041E+04  0.2463401E-01  0.9292603E-02  0.2583489E+06  0.4108689E+04
  0.8238096E+00  0.8704910E+05  0.2137724E+04 -0.6223469E-02 -0.3589630E-02  0.2604466E+06  0.5279968E+04
  0.8547620E+00  0.8786264E+05  0.2709672E+04  0.1456683E-01  0.6980896E-02  0.2624551E+06  0.6711834E+04
  0.8857143E+00  0.8872411E+05  0.3398445E+04  0.5788495E-02 -0.8827209E-02  0.2647228E+06  0.8442522E+04
  0.9166667E+00  0.8962695E+05  0.4218058E+04 -0.4527699E-02 -0.1983643E-01  0.2672805E+06  0.1050863E+05
  0.9476191E+00  0.9049745E+05  0.5183189E+04  0.6440896E-02 -0.6942749E-02  0.2697967E+06  0.1294937E+05
  0.9785714E+00  0.9140452E+05  0.6309027E+04 -0.2045792E-01 -0.1243591E-01  0.2725234E+06  0.1580876E+05
  0.1009524E+01  0.9230495E+05  0.7611621E+04 -0.9431659E-02 -0.2325439E-01  0.2751681E+06  0.1913163E+05
  0.1040476E+01  0.9318444E+05  0.9106243E+04  0.1454788E-01  0.2227783E-02  0.2777141E+06  0.2296355E+05
  0.1071429E+01  0.9396012E+05  0.1080842E+05  0.2620443E-01 -0.1553345E-01  0.2798248E+06  0.2735054E+05
  0.1102381E+01  0.9463046E+05  0.1272822E+05  0.1262360E-01 -0.1040649E-01  0.2816777E+06  0.3232159E+05
  0.1133333E+01  0.9523518E+05  0.1486880E+05  0.4954618E-02 -0.3936768E-02  0.2834822E+06  0.3788784E+05
  0.1164286E+01  0.9573923E+05  0.1723100E+05  0.2935679E-01  0.1818848E-01  0.2851259E+06  0.4405569E+05
  0.1195238E+01  0.9615146E+05  0.1981283E+05  0.7149138E-02  0.1080322E-01  0.2866467E+06  0.5082926E+05
  0.1226190E+01  0.9642623E+05  0.2261345E+05  0.6769569E-02 -0.9155273E-02  0.2877929E+06  0.5821705E+05
  0.1257143E+01  0.9652598E+05  0.2566258E+05  0.1553622E-01  0.2020264E-01  0.2883853E+06  0.6630159E+05
  0.1288095E+01  0.9645472E+05  0.2884330E+05  0.2501877E-01  0.3735352E-01  0.2885193E+06  0.7478830E+05
  0.1319048E+01  0.9626151E+05  0.3223356E+05  0.2221063E-02 -0.1208496E-01  0.2883335E+06  0.8387589E+05
  0.1350000E+01  0.9594407E+05  0.3576999E+05  0.1699942E-01 -0.1586914E-02  0.2878954E+06  0.9341058E+05
  0.1380952E+01  0.9550577E+05  0.3942659E+05 -0.3535830E-03 -0.4150391E-02  0.2872021E+06  0.1033319E+06
  0.1411905E+01  0.9056355E+05  0.4085660E+05  0.8991621E-02 -0.1831055E-02  0.2732028E+06  0.1075171E+06
  0.1442857E+01  0.8988371E+05  0.4455198E+05 -0.6429842E-02 -0.1367188E-01  0.2718105E+06  0.1176812E+06
  0.1473810E+01  0.8903205E+05  0.4829922E+05  0.4969583E-02  0.3991699E-01  0.2699457E+06  0.1280571E+06
  0.1504762E+01  0.8803691E+05  0.5206848E+05  0.1427759E-01 -0.5371094E-02  0.2677005E+06  0.1385717E+06
  0.1535714E+01  0.8691559E+05  0.5583412E+05  0.2193859E-01  0.3869629E-01  0.2650839E+06  0.1491604E+06
  0.1566667E+01  0.8567566E+05  0.5955915E+05 -0.1620678E-01 -0.2062988E-01  0.2621728E+06  0.1597205E+06
  0.1597619E+01  0.8431598E+05  0.6322754E+05  0.3056306E-03 -0.7812500E-02  0.2588812E+06  0.1702100E+06
  0.1628572E+01  0.8285277E+05  0.6681531E+05  0.8694832E-02 -0.2221680E-01  0.2552668E+06  0.1805682E+06
  0.1659524E+01  0.8131484E+05  0.7030016E+05  0.2412684E-01  0.2734375E-01  0.2514094E+06  0.1907233E+06
  0.1690476E+01  0.7971945E+05  0.7365596E+05  0.8665273E-03  0.7568359E-02  0.2473927E+06  0.2005956E+06
  0.1721429E+01  0.7807259E+05  0.7687329E+05 -0.5105680E-02  0.5395508E-01  0.2432365E+06  0.2101669E+06
  0.1752381E+01  0.7640780E+05  0.7993703E+05 -0.1114555E-02 -0.4638672E-02  0.2389906E+06  0.2193731E+06
  0.1783333E+01  0.7472579E+05  0.8283898E+05  0.1779717E-01  0.1635742E-01  0.2346727E+06  0.2282014E+06
  0.1814286E+01  0.7301880E+05  0.8558468E+05 -0.7266548E-02 -0.1220703E-01  0.2302692E+06  0.2366662E+06
  0.1845238E+01  0.7131191E+05  0.8816923E+05 -0.6350806E-02  0.4174805E-01  0.2258128E+06  0.2447395E+06
  0.1876190E+01  0.6960194E+05  0.9059321E+05  0.2602514E-03 -0.4394531E-02  0.2213072E+06  0.2524394E+06
  0.1907143E+01  0.6790916E+05  0.9286249E+05  0.8192885E-02 -0.1171875E-01  0.2167922E+06  0.2597468E+06
  0.1938095E+01  0.6623372E+05  0.9497834E+05  0.5038775E-03 -0.1538086E-01  0.2122935E+06  0.2666725E+06
  0.1969048E+01  0.6458638E+05  0.9691932E+05 -0.1388679E-01  0.9765625E-02  0.2078723E+06  0.2731573E+06
  0.2000000E+01  0.6296401E+05  0.9872830E+05  0.2197266E-02  0.1123047E-01  0.2034614E+06  0.2793202E+06
