VARIABLES="w (rad/s)"
"abs(F   1   1)" "angle(F   1   1)"
"abs(F   1   2)" "angle(F   1   2)"
"abs(F   1   3)" "angle(F   1   3)"
Zone t="Diffraction force - beta =   0.000 deg",I=    64,F=POINT
  0.5000000E-01  0.1407570E+04 -0.1570812E+01  0.8652431E+05 -0.5876735E-05  0.3572965E+04  0.1570806E+01
  0.8095238E-01  0.2302730E+04 -0.1570808E+01  0.8629452E+05 -0.1579671E-04  0.5842672E+04  0.1570793E+01
  0.1119048E+00  0.3217851E+04 -0.1570784E+01  0.8595649E+05 -0.3132527E-04  0.8155431E+04  0.1570791E+01
  0.1428571E+00  0.4159984E+04 -0.1570802E+01  0.8551076E+05 -0.5363844E-04  0.1053518E+05  0.1570792E+01
  0.1738095E+00  0.5140246E+04 -0.1570801E+01  0.8495784E+05 -0.8442815E-04  0.1300601E+05  0.1570797E+01
  0.2047619E+00  0.6169944E+04 -0.1570791E+01  0.8429791E+05 -0.1262749E-03  0.1559610E+05  0.1570796E+01
  0.2357143E+00  0.7260453E+04 -0.1570781E+01  0.8353362E+05 -0.1828617E-03  0.1833613E+05  0.1570806E+01
  0.2666667E+00  0.8432410E+04 -0.1570779E+01  0.8266434E+05 -0.2585147E-03  0.2126145E+05  0.1570813E+01
  0.2976190E+00  0.9694535E+04 -0.1570769E+01  0.8169406E+05 -0.3611241E-03  0.2441613E+05  0.1570826E+01
  0.3285715E+00  0.1107228E+05 -0.1570757E+01  0.8062317E+05 -0.4978798E-03  0.2784551E+05  0.1570836E+01
  0.3595238E+00  0.1258504E+05 -0.1570737E+01  0.7945862E+05 -0.6813807E-03  0.3158839E+05  0.1570851E+01
  0.3904762E+00  0.1425040E+05 -0.1570707E+01  0.7819944E+05 -0.9244194E-03  0.3569912E+05  0.1570881E+01
  0.4214286E+00  0.1608073E+05 -0.1570667E+01  0.7686041E+05 -0.1235564E-02  0.4021193E+05  0.1570925E+01
  0.4523810E+00  0.1809652E+05 -0.1570604E+01  0.7543696E+05 -0.1639808E-02  0.4514281E+05  0.1570988E+01
  0.4833333E+00  0.2028069E+05 -0.1570518E+01  0.7394723E+05 -0.2121769E-02  0.5047135E+05  0.1571075E+01
  0.5142857E+00  0.2264284E+05 -0.1570398E+01  0.7238977E+05 -0.2712975E-02  0.5620143E+05  0.1571193E+01
  0.5452381E+00  0.2516118E+05 -0.1570239E+01  0.7077081E+05 -0.3401244E-02  0.6229726E+05  0.1571354E+01
  0.5761905E+00  0.2781902E+05 -0.1570030E+01  0.6910429E+05 -0.4187506E-02  0.6868509E+05  0.1571562E+01
  0.6071429E+00  0.3062186E+05 -0.1569761E+01  0.6738298E+05 -0.5100047E-02  0.7535074E+05  0.1571830E+01
  0.6380953E+00  0.3351140E+05 -0.1569425E+01  0.6562198E+05 -0.6107366E-02  0.8220481E+05  0.1572168E+01
  0.6690477E+00  0.3651250E+05 -0.1569006E+01  0.6382628E+05 -0.7239231E-02  0.8928473E+05  0.1572586E+01
  0.7000000E+00  0.3962494E+05 -0.1568490E+01  0.6199116E+05 -0.8510722E-02  0.9654855E+05  0.1573102E+01
  0.7309524E+00  0.4279285E+05 -0.1567866E+01  0.6013193E+05 -0.9904796E-02  0.1038785E+06  0.1573726E+01
  0.7619048E+00  0.4605349E+05 -0.1567115E+01  0.5825701E+05 -0.1144178E-01  0.1113613E+06  0.1574477E+01
  0.7928572E+00  0.4937893E+05 -0.1566221E+01  0.5636059E+05 -0.1313244E-01  0.1188998E+06  0.1575372E+01
  0.8238096E+00  0.5278688E+05 -0.1565164E+01  0.5444295E+05 -0.1498440E-01  0.1265712E+06  0.1576427E+01
  0.8547620E+00  0.5620820E+05 -0.1563928E+01  0.5254035E+05 -0.1698207E-01  0.1342084E+06  0.1577665E+01
  0.8857143E+00  0.5970320E+05 -0.1562491E+01  0.5063346E+05 -0.1915525E-01  0.1419196E+06  0.1579102E+01
  0.9166667E+00  0.6324995E+05 -0.1560833E+01  0.4872335E+05 -0.2151122E-01  0.1495960E+06  0.1580760E+01
  0.9476191E+00  0.6684791E+05 -0.1558931E+01  0.4681371E+05 -0.2406419E-01  0.1572955E+06  0.1582661E+01
  0.9785714E+00  0.7042798E+05 -0.1556766E+01  0.4493715E+05 -0.2676896E-01  0.1648539E+06  0.1584826E+01
  0.1009524E+01  0.7406825E+05 -0.1554312E+01  0.4307860E+05 -0.2967984E-01  0.1724709E+06  0.1587280E+01
  0.1040476E+01  0.7769233E+05 -0.1551549E+01  0.4123715E+05 -0.3281192E-01  0.1799001E+06  0.1590042E+01
  0.1071429E+01  0.8137388E+05 -0.1548455E+01  0.3941389E+05 -0.3618285E-01  0.1873297E+06  0.1593136E+01
  0.1102381E+01  0.8502398E+05 -0.1545007E+01  0.3761360E+05 -0.3981494E-01  0.1946209E+06  0.1596583E+01
  0.1133333E+01  0.8862614E+05 -0.1541193E+01  0.3587105E+05 -0.4354865E-01  0.2015960E+06  0.1600396E+01
  0.1164286E+01  0.9226705E+05 -0.1536980E+01  0.3416017E+05 -0.4755846E-01  0.2085512E+06  0.1604609E+01
  0.1195238E+01  0.9583759E+05 -0.1532356E+01  0.3248328E+05 -0.5185232E-01  0.2151611E+06  0.1609231E+01
  0.1226190E+01  0.9941895E+05 -0.1527299E+01  0.3084121E+05 -0.5645823E-01  0.2216407E+06  0.1614287E+01
  0.1257143E+01  0.1029007E+06 -0.1521809E+01  0.2923575E+05 -0.6145026E-01  0.2278319E+06  0.1619774E+01
  0.1288095E+01  0.1063846E+06 -0.1515814E+01  0.2768704E+05 -0.6651923E-01  0.2338181E+06  0.1625766E+01
  0.1319048E+01  0.1097403E+06 -0.1509358E+01  0.2619277E+05 -0.7182306E-01  0.2394348E+06  0.1632221E+01
  0.1350000E+01  0.1130624E+06 -0.1502402E+01  0.2474542E+05 -0.7746444E-01  0.2448816E+06  0.1639174E+01
  0.1380952E+01  0.1162400E+06 -0.1494976E+01  0.2334367E+05 -0.8348685E-01  0.2497943E+06  0.1646595E+01
  0.1411905E+01  0.1192251E+06 -0.1487138E+01  0.2198857E+05 -0.8989864E-01  0.2542831E+06  0.1654427E+01
  0.1442857E+01  0.1222527E+06 -0.1478762E+01  0.2067795E+05 -0.9683175E-01  0.2585551E+06  0.1662793E+01
  0.1473810E+01  0.1251031E+06 -0.1469909E+01  0.1942040E+05 -0.1041050E+00  0.2623137E+06  0.1671638E+01
  0.1504762E+01  0.1277471E+06 -0.1460609E+01  0.1822740E+05 -0.1111946E+00  0.2654649E+06  0.1680923E+01
  0.1535714E+01  0.1302945E+06 -0.1450805E+01  0.1708721E+05 -0.1186956E+00  0.2683597E+06  0.1690721E+01
  0.1566667E+01  0.1326744E+06 -0.1440567E+01  0.1599462E+05 -0.1266663E+00  0.2707662E+06  0.1700949E+01
  0.1597619E+01  0.1348344E+06 -0.1429936E+01  0.1495253E+05 -0.1350887E+00  0.2725442E+06  0.1711561E+01
  0.1628572E+01  0.1368516E+06 -0.1418905E+01  0.1395668E+05 -0.1440686E+00  0.2739259E+06  0.1722576E+01
  0.1659524E+01  0.1386956E+06 -0.1407510E+01  0.1300565E+05 -0.1537640E+00  0.2748909E+06  0.1733944E+01
  0.1690476E+01  0.1402504E+06 -0.1395789E+01  0.1210426E+05 -0.1640481E+00  0.2752601E+06  0.1745660E+01
  0.1721429E+01  0.1415102E+06 -0.1383912E+01  0.1125690E+05 -0.1737339E+00  0.2748859E+06  0.1757481E+01
  0.1752381E+01  0.1425632E+06 -0.1371874E+01  0.1045496E+05 -0.1839155E+00  0.2740283E+06  0.1769489E+01
  0.1783333E+01  0.1434269E+06 -0.1359682E+01  0.9702412E+04 -0.1942872E+00  0.2727878E+06  0.1781665E+01
  0.1814286E+01  0.1440085E+06 -0.1347491E+01  0.8990079E+04 -0.2053419E+00  0.2708946E+06  0.1793818E+01
  0.1845238E+01  0.1443345E+06 -0.1335371E+01  0.8320748E+04 -0.2167493E+00  0.2683984E+06  0.1805878E+01
  0.1876190E+01  0.1444504E+06 -0.1323286E+01  0.7689226E+04 -0.2288503E+00  0.2655020E+06  0.1817906E+01
  0.1907143E+01  0.1443675E+06 -0.1311319E+01  0.7092785E+04 -0.2420586E+00  0.2622508E+06  0.1829797E+01
  0.1938095E+01  0.1439558E+06 -0.1299555E+01  0.6538279E+04 -0.2554142E+00  0.2584710E+06  0.1841530E+01
  0.1969048E+01  0.1432921E+06 -0.1288148E+01  0.6017754E+04 -0.2690645E+00  0.2542029E+06  0.1852864E+01
  0.2000000E+01  0.1423272E+06 -0.1277305E+01  0.5528815E+04 -0.2830364E+00  0.2493494E+06  0.1863548E+01
