VARIABLES="w (rad/s)"
"abs(F   1   1)" "angle(F   1   1)"
"abs(F   1   2)" "angle(F   1   2)"
"abs(F   1   3)" "angle(F   1   3)"
Zone t="Diffraction force - beta =   0.000 deg",I=    64,F=POINT
  0.5000000E-01  0.2156976E+04 -0.1570845E+01  0.3836995E+06 -0.2626220E-04  0.4640554E+02 -0.1570797E+01
  0.8095238E-01  0.3518464E+04 -0.1570815E+01  0.3830127E+06 -0.7064789E-04  0.7561256E+02 -0.1570777E+01
  0.1119048E+00  0.4915509E+04 -0.1570812E+01  0.3820046E+06 -0.1402862E-03  0.1059204E+03 -0.1570804E+01
  0.1428571E+00  0.6359049E+04 -0.1570787E+01  0.3806738E+06 -0.2405305E-03  0.1370090E+03 -0.1570787E+01
  0.1738095E+00  0.7861297E+04 -0.1570789E+01  0.3790184E+06 -0.3794653E-03  0.1704269E+03 -0.1570779E+01
  0.2047619E+00  0.9446062E+04 -0.1570778E+01  0.3770340E+06 -0.5687293E-03  0.2051787E+03 -0.1570780E+01
  0.2357143E+00  0.1113843E+05 -0.1570777E+01  0.3747203E+06 -0.8256124E-03  0.2435554E+03 -0.1570773E+01
  0.2666667E+00  0.1294593E+05 -0.1570770E+01  0.3720698E+06 -0.1171056E-02  0.2844791E+03 -0.1570771E+01
  0.2976190E+00  0.1491204E+05 -0.1570757E+01  0.3690832E+06 -0.1640661E-02  0.3295662E+03 -0.1570754E+01
  0.3285715E+00  0.1707592E+05 -0.1570737E+01  0.3657566E+06 -0.2270598E-02  0.3804645E+03 -0.1570739E+01
  0.3595238E+00  0.1943817E+05 -0.1570708E+01  0.3620993E+06 -0.3118238E-02  0.4370379E+03 -0.1570709E+01
  0.3904762E+00  0.2204761E+05 -0.1570661E+01  0.3581016E+06 -0.4247930E-02  0.4991613E+03 -0.1570661E+01
  0.4214286E+00  0.2496269E+05 -0.1570597E+01  0.3538123E+06 -0.5700987E-02  0.5719252E+03 -0.1570596E+01
  0.4523810E+00  0.2816866E+05 -0.1570500E+01  0.3492162E+06 -0.7588684E-02  0.6530062E+03 -0.1570498E+01
  0.4833333E+00  0.3162412E+05 -0.1570367E+01  0.3443671E+06 -0.9861489E-02  0.7372589E+03 -0.1570365E+01
  0.5142857E+00  0.3540978E+05 -0.1570179E+01  0.3392736E+06 -0.1265002E-01  0.8365726E+03 -0.1570178E+01
  0.5452381E+00  0.3949981E+05 -0.1569930E+01  0.3339584E+06 -0.1591376E-01  0.9448870E+03 -0.1569929E+01
  0.5761905E+00  0.4381412E+05 -0.1569603E+01  0.3284542E+06 -0.1966234E-01  0.1062257E+04 -0.1569603E+01
  0.6071429E+00  0.4831503E+05 -0.1569181E+01  0.3227673E+06 -0.2400453E-01  0.1182634E+04 -0.1569183E+01
  0.6380953E+00  0.5305174E+05 -0.1568652E+01  0.3168903E+06 -0.2883613E-01  0.1313655E+04 -0.1568653E+01
  0.6690477E+00  0.5802599E+05 -0.1567994E+01  0.3108801E+06 -0.3426772E-01  0.1460188E+04 -0.1567995E+01
  0.7000000E+00  0.6320364E+05 -0.1567183E+01  0.3047525E+06 -0.4035925E-01  0.1616680E+04 -0.1567184E+01
  0.7309524E+00  0.6851046E+05 -0.1566200E+01  0.2984955E+06 -0.4706072E-01  0.1774409E+04 -0.1566199E+01
  0.7619048E+00  0.7390191E+05 -0.1565016E+01  0.2921528E+06 -0.5444025E-01  0.1938038E+04 -0.1565015E+01
  0.7928572E+00  0.7949320E+05 -0.1563609E+01  0.2857301E+06 -0.6253051E-01  0.2118711E+04 -0.1563609E+01
  0.8238096E+00  0.8527138E+05 -0.1561953E+01  0.2792598E+06 -0.7134932E-01  0.2308729E+04 -0.1561958E+01
  0.8547620E+00  0.9118809E+05 -0.1560020E+01  0.2727579E+06 -0.8090720E-01  0.2509350E+04 -0.1560026E+01
  0.8857143E+00  0.9720801E+05 -0.1557783E+01  0.2662405E+06 -0.9121794E-01  0.2724708E+04 -0.1557789E+01
  0.9166667E+00  0.1033009E+06 -0.1555211E+01  0.2597069E+06 -0.1022896E+00  0.2945478E+04 -0.1555213E+01
  0.9476191E+00  0.1094024E+06 -0.1552279E+01  0.2531928E+06 -0.1141413E+00  0.3162723E+04 -0.1552271E+01
  0.9785714E+00  0.1155634E+06 -0.1548970E+01  0.2467027E+06 -0.1267827E+00  0.3392261E+04 -0.1548966E+01
  0.1009524E+01  0.1217984E+06 -0.1545275E+01  0.2402614E+06 -0.1402344E+00  0.3642472E+04 -0.1545292E+01
  0.1040476E+01  0.1281124E+06 -0.1541180E+01  0.2338671E+06 -0.1544893E+00  0.3907934E+04 -0.1541211E+01
  0.1071429E+01  0.1344295E+06 -0.1536672E+01  0.2275379E+06 -0.1695475E+00  0.4176698E+04 -0.1536707E+01
  0.1102381E+01  0.1406964E+06 -0.1531739E+01  0.2212841E+06 -0.1854132E+00  0.4451654E+04 -0.1531780E+01
  0.1133333E+01  0.1468725E+06 -0.1526381E+01  0.2151211E+06 -0.2020880E+00  0.4732108E+04 -0.1526414E+01
  0.1164286E+01  0.1528639E+06 -0.1520601E+01  0.2090434E+06 -0.2195769E+00  0.5015011E+04 -0.1520596E+01
  0.1195238E+01  0.1586847E+06 -0.1514422E+01  0.2030440E+06 -0.2378732E+00  0.5301641E+04 -0.1514360E+01
  0.1226190E+01  0.1643330E+06 -0.1507913E+01  0.1971256E+06 -0.2569839E+00  0.5593418E+04 -0.1507851E+01
  0.1257143E+01  0.1697628E+06 -0.1501099E+01  0.1913180E+06 -0.2771111E+00  0.5884104E+04 -0.1501070E+01
  0.1288095E+01  0.1750169E+06 -0.1494159E+01  0.1856292E+06 -0.2977104E+00  0.6179578E+04 -0.1494197E+01
  0.1319048E+01  0.1799396E+06 -0.1487025E+01  0.1800672E+06 -0.3193181E+00  0.6476553E+04 -0.1487034E+01
  0.1350000E+01  0.1845065E+06 -0.1479813E+01  0.1746209E+06 -0.3417355E+00  0.6773995E+04 -0.1479777E+01
  0.1380952E+01  0.1887068E+06 -0.1472616E+01  0.1692702E+06 -0.3649257E+00  0.7070606E+04 -0.1472528E+01
  0.1411905E+01  0.1921336E+06 -0.1466044E+01  0.1641003E+06 -0.3886120E+00  0.7319422E+04 -0.1465988E+01
  0.1442857E+01  0.1954876E+06 -0.1459342E+01  0.1589948E+06 -0.4134355E+00  0.7593283E+04 -0.1459296E+01
  0.1473810E+01  0.1983651E+06 -0.1453055E+01  0.1540157E+06 -0.4390810E+00  0.7849029E+04 -0.1453102E+01
  0.1504762E+01  0.2007769E+06 -0.1447313E+01  0.1491587E+06 -0.4655300E+00  0.8097125E+04 -0.1447341E+01
  0.1535714E+01  0.2026758E+06 -0.1442226E+01  0.1444397E+06 -0.4927983E+00  0.8339489E+04 -0.1442136E+01
  0.1566667E+01  0.2040835E+06 -0.1437950E+01  0.1398285E+06 -0.5208868E+00  0.8571073E+04 -0.1437865E+01
  0.1597619E+01  0.2050125E+06 -0.1434659E+01  0.1353304E+06 -0.5497866E+00  0.8791434E+04 -0.1434541E+01
  0.1628572E+01  0.2054603E+06 -0.1432463E+01  0.1309458E+06 -0.5794825E+00  0.8991909E+04 -0.1432375E+01
  0.1659524E+01  0.2054422E+06 -0.1431472E+01  0.1266813E+06 -0.6099704E+00  0.9171437E+04 -0.1431433E+01
  0.1690476E+01  0.2049568E+06 -0.1431781E+01  0.1225385E+06 -0.6412946E+00  0.9327155E+04 -0.1431726E+01
  0.1721429E+01  0.2040489E+06 -0.1433514E+01  0.1185092E+06 -0.6734415E+00  0.9469822E+04 -0.1433494E+01
  0.1752381E+01  0.2027536E+06 -0.1436767E+01  0.1146077E+06 -0.7063908E+00  0.9600144E+04 -0.1436752E+01
  0.1783333E+01  0.2010906E+06 -0.1441601E+01  0.1108175E+06 -0.7401583E+00  0.9717529E+04 -0.1441635E+01
  0.1814286E+01  0.1990956E+06 -0.1448079E+01  0.1071326E+06 -0.7747937E+00  0.9819445E+04 -0.1448077E+01
  0.1845238E+01  0.1968105E+06 -0.1456258E+01  0.1035471E+06 -0.8102354E+00  0.9906562E+04 -0.1456136E+01
  0.1876190E+01  0.1942769E+06 -0.1466165E+01  0.1000548E+06 -0.8464687E+00  0.9977243E+04 -0.1465899E+01
  0.1907143E+01  0.1915229E+06 -0.1477821E+01  0.9666471E+05 -0.8834872E+00  0.1003011E+05 -0.1477541E+01
  0.1938095E+01  0.1885707E+06 -0.1491235E+01  0.9337822E+05 -0.9213673E+00  0.1006699E+05 -0.1491154E+01
  0.1969048E+01  0.1854563E+06 -0.1506424E+01  0.9019324E+05 -0.9601322E+00  0.1009095E+05 -0.1506612E+01
  0.2000000E+01  0.1822123E+06 -0.1523378E+01  0.8710006E+05 -0.9997625E+00  0.1010647E+05 -0.1523776E+01
