VARIABLES="w (rad/s)"
"abs(F   1   1)" "angle(F   1   1)"
"abs(F   1   2)" "angle(F   1   2)"
"abs(F   1   3)" "angle(F   1   3)"
Zone t="Diffraction force - beta =   0.000 deg",I=    64,F=POINT
  0.5000000E-01  0.1669652E+04 -0.1570818E+01  0.1718953E+06 -0.1156119E-04  0.2389090E+04  0.1570786E+01
  0.8095238E-01  0.2727106E+04 -0.1570792E+01  0.1715270E+06 -0.3108936E-04  0.3902899E+04  0.1570804E+01
  0.1119048E+00  0.3811582E+04 -0.1570790E+01  0.1709864E+06 -0.6169700E-04  0.5455227E+04  0.1570795E+01
  0.1428571E+00  0.4930944E+04 -0.1570793E+01  0.1702724E+06 -0.1057364E-03  0.7054422E+04  0.1570799E+01
  0.1738095E+00  0.6098213E+04 -0.1570794E+01  0.1693860E+06 -0.1666583E-03  0.8726277E+04  0.1570799E+01
  0.2047619E+00  0.7334348E+04 -0.1570787E+01  0.1683289E+06 -0.2495838E-03  0.1048871E+05  0.1570804E+01
  0.2357143E+00  0.8637360E+04 -0.1570785E+01  0.1670972E+06 -0.3619600E-03  0.1235111E+05  0.1570808E+01
  0.2666667E+00  0.1004701E+05 -0.1570776E+01  0.1656986E+06 -0.5127573E-03  0.1436622E+05  0.1570815E+01
  0.2976190E+00  0.1157717E+05 -0.1570765E+01  0.1641263E+06 -0.7175973E-03  0.1653832E+05  0.1570828E+01
  0.3285715E+00  0.1325372E+05 -0.1570749E+01  0.1623929E+06 -0.9917722E-03  0.1893196E+05  0.1570843E+01
  0.3595238E+00  0.1508625E+05 -0.1570726E+01  0.1604875E+06 -0.1360288E-02  0.2154057E+05  0.1570865E+01
  0.3904762E+00  0.1713505E+05 -0.1570690E+01  0.1584374E+06 -0.1850473E-02  0.2445179E+05  0.1570902E+01
  0.4214286E+00  0.1938354E+05 -0.1570637E+01  0.1562190E+06 -0.2479977E-02  0.2764303E+05  0.1570955E+01
  0.4523810E+00  0.2187315E+05 -0.1570561E+01  0.1538868E+06 -0.3298943E-02  0.3118592E+05  0.1571032E+01
  0.4833333E+00  0.2458428E+05 -0.1570452E+01  0.1514063E+06 -0.4281029E-02  0.3502572E+05  0.1571141E+01
  0.5142857E+00  0.2754062E+05 -0.1570303E+01  0.1488153E+06 -0.5486779E-02  0.3919019E+05  0.1571290E+01
  0.5452381E+00  0.3072259E+05 -0.1570101E+01  0.1461163E+06 -0.6897517E-02  0.4370503E+05  0.1571491E+01
  0.5761905E+00  0.3405180E+05 -0.1569836E+01  0.1432815E+06 -0.8511694E-02  0.4842314E+05  0.1571757E+01
  0.6071429E+00  0.3763246E+05 -0.1569491E+01  0.1404099E+06 -0.1038993E-01  0.5345690E+05  0.1572102E+01
  0.6380953E+00  0.4136636E+05 -0.1569057E+01  0.1374210E+06 -0.1247200E-01  0.5870160E+05  0.1572536E+01
  0.6690477E+00  0.4523921E+05 -0.1568512E+01  0.1343232E+06 -0.1481062E-01  0.6413277E+05  0.1573081E+01
  0.7000000E+00  0.4930430E+05 -0.1567835E+01  0.1312220E+06 -0.1744239E-01  0.6982220E+05  0.1573758E+01
  0.7309524E+00  0.5347205E+05 -0.1567010E+01  0.1280266E+06 -0.2033619E-01  0.7569837E+05  0.1574584E+01
  0.7619048E+00  0.5777843E+05 -0.1566008E+01  0.1247372E+06 -0.2352154E-01  0.8169030E+05  0.1575584E+01
  0.7928572E+00  0.6226565E+05 -0.1564806E+01  0.1214688E+06 -0.2702016E-01  0.8787391E+05  0.1576787E+01
  0.8238096E+00  0.6692030E+05 -0.1563373E+01  0.1181545E+06 -0.3085031E-01  0.9435682E+05  0.1578220E+01
  0.8547620E+00  0.7161429E+05 -0.1561679E+01  0.1147891E+06 -0.3499819E-01  0.1008341E+06  0.1579913E+01
  0.8857143E+00  0.7641683E+05 -0.1559694E+01  0.1113584E+06 -0.3947842E-01  0.1074706E+06  0.1581899E+01
  0.9166667E+00  0.8134234E+05 -0.1557384E+01  0.1080141E+06 -0.4430314E-01  0.1142266E+06  0.1584208E+01
  0.9476191E+00  0.8646531E+05 -0.1554718E+01  0.1046401E+06 -0.4950978E-01  0.1212780E+06  0.1586875E+01
  0.9785714E+00  0.9161784E+05 -0.1551655E+01  0.1012527E+06 -0.5507352E-01  0.1282751E+06  0.1589937E+01
  0.1009524E+01  0.9684979E+05 -0.1548157E+01  0.9783488E+05 -0.6101394E-01  0.1353412E+06  0.1593435E+01
  0.1040476E+01  0.1021700E+06 -0.1544186E+01  0.9447128E+05 -0.6731717E-01  0.1424900E+06  0.1597405E+01
  0.1071429E+01  0.1076095E+06 -0.1539706E+01  0.9117980E+05 -0.7399878E-01  0.1497699E+06  0.1601885E+01
  0.1102381E+01  0.1131001E+06 -0.1534675E+01  0.8788992E+05 -0.8112566E-01  0.1571787E+06  0.1606919E+01
  0.1133333E+01  0.1185243E+06 -0.1529060E+01  0.8461588E+05 -0.8864415E-01  0.1644091E+06  0.1612534E+01
  0.1164286E+01  0.1239606E+06 -0.1522839E+01  0.8133973E+05 -0.9662032E-01  0.1716243E+06  0.1618757E+01
  0.1195238E+01  0.1294580E+06 -0.1516001E+01  0.7813531E+05 -0.1049845E+00  0.1787961E+06  0.1625588E+01
  0.1226190E+01  0.1350069E+06 -0.1508504E+01  0.7505688E+05 -0.1136829E+00  0.1859379E+06  0.1633078E+01
  0.1257143E+01  0.1405254E+06 -0.1500330E+01  0.7200449E+05 -0.1229898E+00  0.1931272E+06  0.1641253E+01
  0.1288095E+01  0.1460060E+06 -0.1491419E+01  0.6899189E+05 -0.1326383E+00  0.2001508E+06  0.1650165E+01
  0.1319048E+01  0.1512612E+06 -0.1481823E+01  0.6601734E+05 -0.1428369E+00  0.2067494E+06  0.1659760E+01
  0.1350000E+01  0.1563892E+06 -0.1471503E+01  0.6306873E+05 -0.1536238E+00  0.2131738E+06  0.1670084E+01
  0.1380952E+01  0.1613807E+06 -0.1460484E+01  0.6023239E+05 -0.1647217E+00  0.2193305E+06  0.1681107E+01
  0.1411905E+01  0.1658793E+06 -0.1448971E+01  0.5753768E+05 -0.1759954E+00  0.2248816E+06  0.1692618E+01
  0.1442857E+01  0.1705285E+06 -0.1436662E+01  0.5488216E+05 -0.1880292E+00  0.2306292E+06  0.1704948E+01
  0.1473810E+01  0.1747962E+06 -0.1423854E+01  0.5229075E+05 -0.2006488E+00  0.2357309E+06  0.1717760E+01
  0.1504762E+01  0.1787480E+06 -0.1410650E+01  0.4975661E+05 -0.2138447E+00  0.2402137E+06  0.1730940E+01
  0.1535714E+01  0.1823448E+06 -0.1397043E+01  0.4727420E+05 -0.2277724E+00  0.2441509E+06  0.1744536E+01
  0.1566667E+01  0.1855760E+06 -0.1383108E+01  0.4483921E+05 -0.2424969E+00  0.2475851E+06  0.1758479E+01
  0.1597619E+01  0.1884085E+06 -0.1368989E+01  0.4255653E+05 -0.2571048E+00  0.2503873E+06  0.1772582E+01
  0.1628572E+01  0.1908463E+06 -0.1354800E+01  0.4038791E+05 -0.2717885E+00  0.2525884E+06  0.1786743E+01
  0.1659524E+01  0.1929057E+06 -0.1340583E+01  0.3827535E+05 -0.2873892E+00  0.2544193E+06  0.1800990E+01
  0.1690476E+01  0.1944326E+06 -0.1326609E+01  0.3623768E+05 -0.3036814E+00  0.2554999E+06  0.1814999E+01
  0.1721429E+01  0.1954413E+06 -0.1313116E+01  0.3426465E+05 -0.3206870E+00  0.2557462E+06  0.1828480E+01
  0.1752381E+01  0.1959118E+06 -0.1300215E+01  0.3235215E+05 -0.3385651E+00  0.2551547E+06  0.1841330E+01
  0.1783333E+01  0.1959405E+06 -0.1287907E+01  0.3050199E+05 -0.3574475E+00  0.2540163E+06  0.1853642E+01
  0.1814286E+01  0.1955031E+06 -0.1276343E+01  0.2870744E+05 -0.3774762E+00  0.2522730E+06  0.1865234E+01
  0.1845238E+01  0.1946236E+06 -0.1265723E+01  0.2705546E+05 -0.3963225E+00  0.2498722E+06  0.1875798E+01
  0.1876190E+01  0.1933595E+06 -0.1256141E+01  0.2548683E+05 -0.4152354E+00  0.2469383E+06  0.1885285E+01
  0.1907143E+01  0.1917844E+06 -0.1247620E+01  0.2397603E+05 -0.4352163E+00  0.2437323E+06  0.1893828E+01
  0.1938095E+01  0.1898986E+06 -0.1240306E+01  0.2254008E+05 -0.4557359E+00  0.2401908E+06  0.1901230E+01
  0.1969048E+01  0.1875263E+06 -0.1234469E+01  0.2116354E+05 -0.4772466E+00  0.2359276E+06  0.1907074E+01
  0.2000000E+01  0.1848650E+06 -0.1230082E+01  0.1984357E+05 -0.4997809E+00  0.2312784E+06  0.1911439E+01
