VARIABLES="w (rad/s)"
"abs(F   1   1)" "angle(F   1   1)"
"abs(F   1   2)" "angle(F   1   2)"
"abs(F   1   3)" "angle(F   1   3)"
Zone t="Diffraction force - beta =   0.000 deg",I=    64,F=POINT
  0.5000000E-01  0.1607369E+04 -0.1570793E+01  0.4425566E+03 -0.3078803E+01  0.3517260E+02 -0.1570793E+01
  0.8095238E-01  0.2623918E+04 -0.1570789E+01  0.1142382E+04 -0.3076337E+01  0.5690271E+02 -0.1570786E+01
  0.1119048E+00  0.3660750E+04 -0.1570781E+01  0.2164953E+04 -0.3073499E+01  0.7879585E+02 -0.1570776E+01
  0.1428571E+00  0.4726601E+04 -0.1570769E+01  0.3511376E+04 -0.3069995E+01  0.1029700E+03 -0.1570760E+01
  0.1738095E+00  0.5852739E+04 -0.1570751E+01  0.5188481E+04 -0.3065670E+01  0.1275816E+03 -0.1570738E+01
  0.2047619E+00  0.7029918E+04 -0.1570725E+01  0.7204720E+04 -0.3060309E+01  0.1553494E+03 -0.1570706E+01
  0.2357143E+00  0.8267892E+04 -0.1570688E+01  0.9566290E+04 -0.3053565E+01  0.1828772E+03 -0.1570658E+01
  0.2666667E+00  0.9627374E+04 -0.1570634E+01  0.1228740E+05 -0.3045457E+01  0.2156391E+03 -0.1570589E+01
  0.2976190E+00  0.1107609E+05 -0.1570553E+01  0.1537053E+05 -0.3035245E+01  0.2514890E+03 -0.1570487E+01
  0.3285715E+00  0.1265240E+05 -0.1570433E+01  0.1883716E+05 -0.3023174E+01  0.2900039E+03 -0.1570334E+01
  0.3595238E+00  0.1442422E+05 -0.1570253E+01  0.2265911E+05 -0.3008451E+01  0.3374976E+03 -0.1570114E+01
  0.3904762E+00  0.1637314E+05 -0.1569986E+01  0.2687092E+05 -0.2991210E+01  0.3905966E+03 -0.1569785E+01
  0.4214286E+00  0.1846008E+05 -0.1569593E+01  0.3136946E+05 -0.2971830E+01  0.4402007E+03 -0.1569282E+01
  0.4523810E+00  0.2082800E+05 -0.1569020E+01  0.3621552E+05 -0.2949565E+01  0.5090705E+03 -0.1568584E+01
  0.4833333E+00  0.2345258E+05 -0.1568232E+01  0.4126255E+05 -0.2927048E+01  0.5853385E+03 -0.1567624E+01
  0.5142857E+00  0.2623298E+05 -0.1567135E+01  0.4651611E+05 -0.2902612E+01  0.6683074E+03 -0.1566293E+01
  0.5452381E+00  0.2914763E+05 -0.1565670E+01  0.5196382E+05 -0.2878475E+01  0.7452853E+03 -0.1564449E+01
  0.5761905E+00  0.3232894E+05 -0.1563783E+01  0.5751524E+05 -0.2854712E+01  0.8463797E+03 -0.1562179E+01
  0.6071429E+00  0.3575509E+05 -0.1561373E+01  0.6316535E+05 -0.2830290E+01  0.9655588E+03 -0.1559359E+01
  0.6380953E+00  0.3929138E+05 -0.1558373E+01  0.6893498E+05 -0.2807584E+01  0.1081243E+04 -0.1555763E+01
  0.6690477E+00  0.4280942E+05 -0.1554629E+01  0.7473623E+05 -0.2785037E+01  0.1189448E+04 -0.1551149E+01
  0.7000000E+00  0.4653014E+05 -0.1550078E+01  0.8057194E+05 -0.2762493E+01  0.1325068E+04 -0.1545791E+01
  0.7309524E+00  0.5047179E+05 -0.1544671E+01  0.8643951E+05 -0.2740988E+01  0.1470496E+04 -0.1539432E+01
  0.7619048E+00  0.5453261E+05 -0.1538255E+01  0.9226045E+05 -0.2719782E+01  0.1631714E+04 -0.1532015E+01
  0.7928572E+00  0.5866647E+05 -0.1530698E+01  0.9802473E+05 -0.2698923E+01  0.1812714E+04 -0.1523520E+01
  0.8238096E+00  0.6275398E+05 -0.1521835E+01  0.1037315E+06 -0.2678655E+01  0.1970926E+04 -0.1513002E+01
  0.8547620E+00  0.6678714E+05 -0.1511555E+01  0.1093661E+06 -0.2659090E+01  0.2126779E+04 -0.1500674E+01
  0.8857143E+00  0.7092198E+05 -0.1499897E+01  0.1148711E+06 -0.2639949E+01  0.2315985E+04 -0.1487353E+01
  0.9166667E+00  0.7516328E+05 -0.1486827E+01  0.1202489E+06 -0.2621453E+01  0.2535382E+04 -0.1472996E+01
  0.9476191E+00  0.7938570E+05 -0.1472212E+01  0.1254421E+06 -0.2603380E+01  0.2750640E+04 -0.1456630E+01
  0.9785714E+00  0.8348295E+05 -0.1455909E+01  0.1304406E+06 -0.2585814E+01  0.2964162E+04 -0.1438250E+01
  0.1009524E+01  0.8735495E+05 -0.1437787E+01  0.1352316E+06 -0.2568736E+01  0.3178390E+04 -0.1417789E+01
  0.1040476E+01  0.9089790E+05 -0.1417717E+01  0.1398202E+06 -0.2552337E+01  0.3381958E+04 -0.1394805E+01
  0.1071429E+01  0.9415407E+05 -0.1395816E+01  0.1442028E+06 -0.2536727E+01  0.3592045E+04 -0.1370250E+01
  0.1102381E+01  0.9716563E+05 -0.1372379E+01  0.1483579E+06 -0.2521726E+01  0.3793152E+04 -0.1343848E+01
  0.1133333E+01  0.9981434E+05 -0.1347369E+01  0.1522416E+06 -0.2507124E+01  0.3981097E+04 -0.1315632E+01
  0.1164286E+01  0.1020239E+06 -0.1320807E+01  0.1558610E+06 -0.2493039E+01  0.4172963E+04 -0.1285962E+01
  0.1195238E+01  0.1036860E+06 -0.1292647E+01  0.1592026E+06 -0.2479481E+01  0.4357583E+04 -0.1254954E+01
  0.1226190E+01  0.1047732E+06 -0.1263050E+01  0.1622774E+06 -0.2466671E+01  0.4533410E+04 -0.1223071E+01
  0.1257143E+01  0.1052200E+06 -0.1232054E+01  0.1651008E+06 -0.2454238E+01  0.4666003E+04 -0.1188757E+01
  0.1288095E+01  0.1049986E+06 -0.1200644E+01  0.1675510E+06 -0.2442594E+01  0.4761310E+04 -0.1153573E+01
  0.1319048E+01  0.1040451E+06 -0.1168107E+01  0.1697335E+06 -0.2431268E+01  0.4820677E+04 -0.1116491E+01
  0.1350000E+01  0.1023223E+06 -0.1134759E+01  0.1716035E+06 -0.2420319E+01  0.4860062E+04 -0.1079017E+01
  0.1380952E+01  0.9984322E+05 -0.1100864E+01  0.1731734E+06 -0.2410156E+01  0.4871031E+04 -0.1042104E+01
  0.1411905E+01  0.9604255E+05 -0.1066846E+01  0.1742722E+06 -0.2400019E+01  0.4771149E+04 -0.1000959E+01
  0.1442857E+01  0.9208127E+05 -0.1032568E+01  0.1752235E+06 -0.2390894E+01  0.4691696E+04 -0.9630503E+00
  0.1473810E+01  0.8737829E+05 -0.9980798E+00  0.1758586E+06 -0.2382248E+01  0.4558318E+04 -0.9236585E+00
  0.1504762E+01  0.8195904E+05 -0.9633390E+00  0.1761867E+06 -0.2374069E+01  0.4368918E+04 -0.8825791E+00
  0.1535714E+01  0.7589667E+05 -0.9286308E+00  0.1762015E+06 -0.2366365E+01  0.4141163E+04 -0.8421814E+00
  0.1566667E+01  0.6921023E+05 -0.8935385E+00  0.1759049E+06 -0.2359025E+01  0.3875875E+04 -0.8031032E+00
  0.1597619E+01  0.6196936E+05 -0.8578057E+00  0.1753133E+06 -0.2352276E+01  0.3562475E+04 -0.7629256E+00
  0.1628572E+01  0.5423830E+05 -0.8209231E+00  0.1744145E+06 -0.2346119E+01  0.3202538E+04 -0.7207473E+00
  0.1659524E+01  0.4609106E+05 -0.7818335E+00  0.1732058E+06 -0.2340608E+01  0.2789995E+04 -0.6732660E+00
  0.1690476E+01  0.3758201E+05 -0.7379774E+00  0.1716905E+06 -0.2335622E+01  0.2324916E+04 -0.6173612E+00
  0.1721429E+01  0.2877189E+05 -0.6834994E+00  0.1698936E+06 -0.2331083E+01  0.1804909E+04 -0.5398697E+00
  0.1752381E+01  0.1975518E+05 -0.6022856E+00  0.1678141E+06 -0.2327090E+01  0.1257460E+04 -0.4191935E+00
  0.1783333E+01  0.1073001E+05 -0.4235334E+00  0.1654511E+06 -0.2323449E+01  0.7095089E+03 -0.1472205E+00
  0.1814286E+01  0.3601185E+04  0.6416320E+00  0.1628160E+06 -0.2320395E+01  0.3611268E+03  0.9632440E+00
  0.1845238E+01  0.9523923E+04  0.2044962E+01  0.1599178E+06 -0.2318019E+01  0.7632921E+03  0.2025375E+01
  0.1876190E+01  0.1873712E+05  0.2255268E+01  0.1567512E+06 -0.2316444E+01  0.1410647E+04  0.2281525E+01
  0.1907143E+01  0.2815492E+05  0.2337882E+01  0.1533208E+06 -0.2315626E+01  0.2121998E+04  0.2389164E+01
  0.1938095E+01  0.3756158E+05  0.2387134E+01  0.1496335E+06 -0.2315550E+01  0.2874141E+04  0.2453566E+01
  0.1969048E+01  0.4687501E+05  0.2422630E+01  0.1457020E+06 -0.2316285E+01  0.3660955E+04  0.2498792E+01
  0.2000000E+01  0.5604248E+05  0.2450945E+01  0.1415455E+06 -0.2317803E+01  0.4473597E+04  0.2533832E+01
