VARIABLES="w (rad/s)"
"abs(F   1   1)" "angle(F   1   1)"
"abs(F   1   2)" "angle(F   1   2)"
"abs(F   1   3)" "angle(F   1   3)"
Zone t="Diffraction force - beta =   0.000 deg",I=    64,F=POINT
  0.5000000E-01  0.1112112E+04 -0.1570795E+01  0.1914313E+03 -0.3083869E+01  0.9920279E+03  0.1570797E+01
  0.8095238E-01  0.1820311E+04 -0.1570793E+01  0.4954921E+03 -0.3081698E+01  0.1627286E+04  0.1570799E+01
  0.1119048E+00  0.2544819E+04 -0.1570789E+01  0.9401987E+03 -0.3079069E+01  0.2267895E+04  0.1570802E+01
  0.1428571E+00  0.3287697E+04 -0.1570783E+01  0.1528044E+04 -0.3075849E+01  0.2923940E+04  0.1570807E+01
  0.1738095E+00  0.4064690E+04 -0.1570774E+01  0.2260905E+04 -0.3071779E+01  0.3604971E+04  0.1570813E+01
  0.2047619E+00  0.4874894E+04 -0.1570762E+01  0.3146234E+04 -0.3066770E+01  0.4314329E+04  0.1570822E+01
  0.2357143E+00  0.5739619E+04 -0.1570743E+01  0.4182264E+04 -0.3060346E+01  0.5060102E+04  0.1570836E+01
  0.2666667E+00  0.6667181E+04 -0.1570717E+01  0.5385901E+04 -0.3052695E+01  0.5848793E+04  0.1570856E+01
  0.2976190E+00  0.7656241E+04 -0.1570677E+01  0.6754163E+04 -0.3043011E+01  0.6699887E+04  0.1570885E+01
  0.3285715E+00  0.8749824E+04 -0.1570618E+01  0.8292278E+04 -0.3031381E+01  0.7616631E+04  0.1570929E+01
  0.3595238E+00  0.9946323E+04 -0.1570531E+01  0.1000792E+05 -0.3017322E+01  0.8608604E+04  0.1570994E+01
  0.3904762E+00  0.1125174E+05 -0.1570399E+01  0.1191632E+05 -0.3000823E+01  0.9689551E+04  0.1571091E+01
  0.4214286E+00  0.1270474E+05 -0.1570207E+01  0.1396457E+05 -0.2982090E+01  0.1085608E+05  0.1571233E+01
  0.4523810E+00  0.1431208E+05 -0.1569926E+01  0.1618403E+05 -0.2960468E+01  0.1211950E+05  0.1571440E+01
  0.4833333E+00  0.1602056E+05 -0.1569534E+01  0.1853999E+05 -0.2938576E+01  0.1350749E+05  0.1571723E+01
  0.5142857E+00  0.1787082E+05 -0.1568992E+01  0.2102959E+05 -0.2914883E+01  0.1494925E+05  0.1572116E+01
  0.5452381E+00  0.1987713E+05 -0.1568273E+01  0.2362179E+05 -0.2891021E+01  0.1646583E+05  0.1572636E+01
  0.5761905E+00  0.2199422E+05 -0.1567339E+01  0.2630514E+05 -0.2867388E+01  0.1805357E+05  0.1573306E+01
  0.6071429E+00  0.2418900E+05 -0.1566133E+01  0.2909772E+05 -0.2843355E+01  0.1969035E+05  0.1574165E+01
  0.6380953E+00  0.2643837E+05 -0.1564627E+01  0.3199782E+05 -0.2820694E+01  0.2135493E+05  0.1575225E+01
  0.6690477E+00  0.2880858E+05 -0.1562769E+01  0.3495840E+05 -0.2798007E+01  0.2301320E+05  0.1576530E+01
  0.7000000E+00  0.3128048E+05 -0.1560498E+01  0.3796436E+05 -0.2774960E+01  0.2466235E+05  0.1578120E+01
  0.7309524E+00  0.3379153E+05 -0.1557762E+01  0.4104435E+05 -0.2752785E+01  0.2635341E+05  0.1580008E+01
  0.7619048E+00  0.3632371E+05 -0.1554483E+01  0.4419084E+05 -0.2731181E+01  0.2805768E+05  0.1582236E+01
  0.7928572E+00  0.3887793E+05 -0.1550601E+01  0.4738232E+05 -0.2709906E+01  0.2968221E+05  0.1584852E+01
  0.8238096E+00  0.4150121E+05 -0.1546073E+01  0.5059119E+05 -0.2688826E+01  0.3127261E+05  0.1587877E+01
  0.8547620E+00  0.4414756E+05 -0.1540828E+01  0.5380505E+05 -0.2667973E+01  0.3279843E+05  0.1591346E+01
  0.8857143E+00  0.4684566E+05 -0.1534818E+01  0.5701988E+05 -0.2647528E+01  0.3431288E+05  0.1595267E+01
  0.9166667E+00  0.4952569E+05 -0.1527959E+01  0.6024061E+05 -0.2627705E+01  0.3572768E+05  0.1599676E+01
  0.9476191E+00  0.5216527E+05 -0.1520186E+01  0.6345200E+05 -0.2608462E+01  0.3713272E+05  0.1604549E+01
  0.9785714E+00  0.5470812E+05 -0.1511415E+01  0.6664646E+05 -0.2589779E+01  0.3843847E+05  0.1609916E+01
  0.1009524E+01  0.5721924E+05 -0.1501674E+01  0.6981434E+05 -0.2571634E+01  0.3962885E+05  0.1615772E+01
  0.1040476E+01  0.5967439E+05 -0.1490941E+01  0.7293266E+05 -0.2553822E+01  0.4065475E+05  0.1622116E+01
  0.1071429E+01  0.6207763E+05 -0.1479221E+01  0.7599434E+05 -0.2536425E+01  0.4156198E+05  0.1628890E+01
  0.1102381E+01  0.6436702E+05 -0.1466463E+01  0.7898809E+05 -0.2519402E+01  0.4240485E+05  0.1636014E+01
  0.1133333E+01  0.6646968E+05 -0.1452604E+01  0.8190552E+05 -0.2502786E+01  0.4308357E+05  0.1643452E+01
  0.1164286E+01  0.6840712E+05 -0.1437702E+01  0.8476915E+05 -0.2487099E+01  0.4367059E+05  0.1651065E+01
  0.1195238E+01  0.7010185E+05 -0.1421713E+01  0.8755897E+05 -0.2472095E+01  0.4409407E+05  0.1658754E+01
  0.1226190E+01  0.7155198E+05 -0.1404736E+01  0.9027841E+05 -0.2457917E+01  0.4434844E+05  0.1666403E+01
  0.1257143E+01  0.7272298E+05 -0.1386737E+01  0.9294290E+05 -0.2444021E+01  0.4446000E+05  0.1673926E+01
  0.1288095E+01  0.7362888E+05 -0.1368219E+01  0.9543804E+05 -0.2430911E+01  0.4440195E+05  0.1681018E+01
  0.1319048E+01  0.7418859E+05 -0.1348817E+01  0.9785780E+05 -0.2417899E+01  0.4414141E+05  0.1687704E+01
  0.1350000E+01  0.7445705E+05 -0.1328912E+01  0.1001721E+06 -0.2405494E+01  0.4380808E+05  0.1693637E+01
  0.1380952E+01  0.7435017E+05 -0.1308494E+01  0.1023658E+06 -0.2393644E+01  0.4330289E+05  0.1698626E+01
  0.1411905E+01  0.7318980E+05 -0.1289517E+01  0.1037032E+06 -0.2380264E+01  0.4279316E+05  0.1700777E+01
  0.1442857E+01  0.7235831E+05 -0.1268822E+01  0.1056412E+06 -0.2369428E+01  0.4205574E+05  0.1703228E+01
  0.1473810E+01  0.7112616E+05 -0.1248080E+01  0.1074614E+06 -0.2359068E+01  0.4125607E+05  0.1704266E+01
  0.1504762E+01  0.6947279E+05 -0.1227504E+01  0.1091496E+06 -0.2349047E+01  0.4030441E+05  0.1703561E+01
  0.1535714E+01  0.6744012E+05 -0.1207369E+01  0.1107100E+06 -0.2339620E+01  0.3931927E+05  0.1701090E+01
  0.1566667E+01  0.6504067E+05 -0.1187992E+01  0.1121342E+06 -0.2330801E+01  0.3832032E+05  0.1696699E+01
  0.1597619E+01  0.6222562E+05 -0.1169351E+01  0.1134162E+06 -0.2322272E+01  0.3725068E+05  0.1690300E+01
  0.1628572E+01  0.5906179E+05 -0.1151991E+01  0.1145581E+06 -0.2314385E+01  0.3620707E+05  0.1682052E+01
  0.1659524E+01  0.5555579E+05 -0.1136294E+01  0.1155505E+06 -0.2306949E+01  0.3517563E+05  0.1671947E+01
  0.1690476E+01  0.5172956E+05 -0.1122496E+01  0.1164071E+06 -0.2299874E+01  0.3421714E+05  0.1660489E+01
  0.1721429E+01  0.4759595E+05 -0.1111169E+01  0.1171177E+06 -0.2293123E+01  0.3330207E+05  0.1647813E+01
  0.1752381E+01  0.4318034E+05 -0.1103072E+01  0.1176753E+06 -0.2286653E+01  0.3242409E+05  0.1634208E+01
  0.1783333E+01  0.3855070E+05 -0.1099653E+01  0.1180845E+06 -0.2280859E+01  0.3166148E+05  0.1620736E+01
  0.1814286E+01  0.3372008E+05 -0.1102803E+01  0.1183303E+06 -0.2275629E+01  0.3096298E+05  0.1607448E+01
  0.1845238E+01  0.2870218E+05 -0.1115318E+01  0.1184102E+06 -0.2270704E+01  0.3032949E+05  0.1595084E+01
  0.1876190E+01  0.2357516E+05 -0.1143603E+01  0.1183215E+06 -0.2266549E+01  0.2980439E+05  0.1584599E+01
  0.1907143E+01  0.1839213E+05 -0.1200746E+01  0.1180680E+06 -0.2262839E+01  0.2934227E+05  0.1576146E+01
  0.1938095E+01  0.1329683E+05 -0.1319225E+01  0.1176682E+06 -0.2259597E+01  0.2896481E+05  0.1570633E+01
  0.1969048E+01  0.8663237E+04 -0.1596885E+01  0.1171293E+06 -0.2256612E+01  0.2868058E+05  0.1568867E+01
  0.2000000E+01  0.5982313E+04 -0.2289894E+01  0.1164255E+06 -0.2253856E+01  0.2844054E+05  0.1570441E+01
