VARIABLES="w (rad/s)"
"A   1   1" "B   1   1"
"A   1   2" "B   1   2"
"A   1   3" "B   1   3"
Zone t="Motion of body    1 in DoF   1",I=    64,F=POINT
  0.5000000E-01  0.5930262E+05  0.2523472E-02  0.2746582E-02  0.6930539E-05 -0.4711157E+05 -0.1643196E-02
  0.8095238E-01  0.5945617E+05  0.1102334E-01  0.3392837E-02  0.1941996E-04 -0.4718621E+05 -0.7241824E-02
  0.1119048E+00  0.5978618E+05  0.3100637E-01  0.3562278E-02  0.1851236E-04 -0.4748266E+05 -0.2031228E-01
  0.1428571E+00  0.6006282E+05  0.7006019E-01 -0.1336479E-01 -0.1040396E-03 -0.4768870E+05 -0.4591557E-01
  0.1738095E+00  0.6003740E+05  0.1397852E+00  0.5245470E-02  0.4068529E-04 -0.4762268E+05 -0.9164636E-01
  0.2047619E+00  0.6020018E+05  0.2589031E+00  0.3744613E-02  0.5549879E-04 -0.4780029E+05 -0.1701025E+00
  0.2357143E+00  0.6038789E+05  0.4576157E+00 -0.1116666E-02  0.5797273E-04 -0.4789180E+05 -0.3005998E+00
  0.2666667E+00  0.6051441E+05  0.7836145E+00  0.4863739E-02  0.1938688E-03 -0.4798534E+05 -0.5150102E+00
  0.2976190E+00  0.6068917E+05  0.1320174E+01 -0.8587646E-03 -0.6186776E-05 -0.4813797E+05 -0.8684585E+00
  0.3285715E+00  0.6089707E+05  0.2195925E+01 -0.2577408E-02  0.4975311E-04 -0.4825872E+05 -0.1445452E+01
  0.3595238E+00  0.6118890E+05  0.3628089E+01  0.5623520E-03  0.1121107E-03 -0.4842442E+05 -0.2388985E+01
  0.3904762E+00  0.6130864E+05  0.5943617E+01 -0.1738944E-02  0.6116927E-05 -0.4858211E+05 -0.3920971E+01
  0.4214286E+00  0.6176469E+05  0.9644302E+01  0.1303463E-02  0.3295168E-03 -0.4880838E+05 -0.6362195E+01
  0.4523810E+00  0.6212309E+05  0.1549925E+02 -0.5126953E-02 -0.2637506E-03 -0.4913045E+05 -0.1024524E+02
  0.4833333E+00  0.6231056E+05  0.2427449E+02 -0.8571230E-02 -0.6611049E-03 -0.4922744E+05 -0.1605733E+02
  0.5142857E+00  0.6278397E+05  0.3748696E+02 -0.8070204E-02 -0.6409883E-03 -0.4961472E+05 -0.2484464E+02
  0.5452381E+00  0.6327187E+05  0.5655558E+02 -0.3414237E-02  0.4264712E-04 -0.4988434E+05 -0.3750076E+02
  0.5761905E+00  0.6370978E+05  0.8330136E+02 -0.3561855E-02  0.4100800E-04 -0.5015524E+05 -0.5528812E+02
  0.6071429E+00  0.6418120E+05  0.1205109E+03 -0.5780388E-02 -0.1290143E-02 -0.5058784E+05 -0.8019357E+02
  0.6380953E+00  0.6457557E+05  0.1704384E+03 -0.7233690E-02 -0.6783009E-03 -0.5083154E+05 -0.1135387E+03
  0.6690477E+00  0.6530345E+05  0.2376703E+03 -0.1585068E-02  0.5242825E-03 -0.5127205E+05 -0.1584428E+03
  0.7000000E+00  0.6602044E+05  0.3265603E+03 -0.3683907E-02 -0.4227161E-03 -0.5183764E+05 -0.2182091E+03
  0.7309524E+00  0.6661616E+05  0.4414609E+03 -0.2880780E-02 -0.1410484E-02 -0.5221346E+05 -0.2953132E+03
  0.7619048E+00  0.6728990E+05  0.5894910E+03 -0.7450103E-02 -0.2653599E-02 -0.5267557E+05 -0.3949478E+03
  0.7928572E+00  0.6812539E+05  0.7788073E+03 -0.3464157E-03  0.5612373E-03 -0.5333532E+05 -0.5231094E+03
  0.8238096E+00  0.6895770E+05  0.1017793E+04  0.1278034E-02  0.8249283E-03 -0.5392605E+05 -0.6848387E+03
  0.8547620E+00  0.6990591E+05  0.1317819E+04 -0.6176621E-02 -0.5364418E-03 -0.5449365E+05 -0.8873269E+03
  0.8857143E+00  0.7090222E+05  0.1690900E+04 -0.2360190E-02 -0.2001762E-02 -0.5516324E+05 -0.1140175E+04
  0.9166667E+00  0.7201995E+05  0.2151980E+04  0.6658381E-03  0.1614571E-02 -0.5601840E+05 -0.1454840E+04
  0.9476191E+00  0.7302193E+05  0.2713561E+04 -0.2817892E-02 -0.1373291E-03 -0.5675273E+05 -0.1838374E+04
  0.9785714E+00  0.7405226E+05  0.3395223E+04 -0.8466957E-02 -0.4962921E-02 -0.5744739E+05 -0.2303686E+04
  0.1009524E+01  0.7519250E+05  0.4219684E+04  0.1964929E-03  0.2847672E-02 -0.5824514E+05 -0.2868179E+04
  0.1040476E+01  0.7658253E+05  0.5217729E+04 -0.8491149E-02 -0.4617691E-02 -0.5920559E+05 -0.3552079E+04
  0.1071429E+01  0.7802370E+05  0.6412594E+04 -0.8260091E-03  0.3585815E-02 -0.6025355E+05 -0.4374908E+04
  0.1102381E+01  0.7934558E+05  0.7825170E+04 -0.1937833E-02 -0.3719330E-02 -0.6117940E+05 -0.5348038E+04
  0.1133333E+01  0.8065891E+05  0.9488756E+04  0.1642564E-02  0.4104614E-02 -0.6206711E+05 -0.6494154E+04
  0.1164286E+01  0.8198932E+05  0.1143931E+05 -0.6448008E-02 -0.3456116E-02 -0.6300698E+05 -0.7843265E+04
  0.1195238E+01  0.8339886E+05  0.1371691E+05 -0.6357626E-02 -0.6202698E-02 -0.6399276E+05 -0.9419481E+04
  0.1226190E+01  0.8476532E+05  0.1635498E+05 -0.7267332E-02 -0.7537842E-02 -0.6508482E+05 -0.1126526E+05
  0.1257143E+01  0.8580359E+05  0.1933776E+05  0.2913041E-03  0.4219055E-02 -0.6587491E+05 -0.1334819E+05
  0.1288095E+01  0.8709295E+05  0.2281155E+05 -0.6159925E-02 -0.6286621E-02 -0.6676757E+05 -0.1576783E+05
  0.1319048E+01  0.8819641E+05  0.2672752E+05 -0.1203076E-02 -0.2967834E-02 -0.6750543E+05 -0.1849520E+05
  0.1350000E+01  0.8921848E+05  0.3114600E+05 -0.4295066E-02 -0.3555298E-02 -0.6819091E+05 -0.2157459E+05
  0.1380952E+01  0.9005698E+05  0.3607305E+05  0.8839575E-04  0.1325989E-01 -0.6878195E+05 -0.2502200E+05
  0.1411905E+01  0.9034941E+05  0.4144438E+05 -0.5706221E-02 -0.8071899E-02 -0.6916653E+05 -0.2883861E+05
  0.1442857E+01  0.9051932E+05  0.4731998E+05 -0.3701389E-02 -0.3707886E-02 -0.6935658E+05 -0.3299242E+05
  0.1473810E+01  0.9027798E+05  0.5362065E+05 -0.5155942E-02 -0.2700806E-02 -0.6921014E+05 -0.3744470E+05
  0.1504762E+01  0.8964899E+05  0.6029575E+05 -0.2879855E-02 -0.8499146E-02 -0.6876284E+05 -0.4215549E+05
  0.1535714E+01  0.8862691E+05  0.6728489E+05 -0.5305800E-02 -0.7293701E-02 -0.6808427E+05 -0.4712710E+05
  0.1566667E+01  0.8725584E+05  0.7451629E+05  0.6428171E-03  0.4577637E-03 -0.6713340E+05 -0.5225090E+05
  0.1597619E+01  0.8547326E+05  0.8188763E+05 -0.7640765E-03 -0.2655029E-02 -0.6589998E+05 -0.5749171E+05
  0.1628572E+01  0.8333911E+05  0.8931708E+05 -0.7308156E-03  0.4272461E-02 -0.6450178E+05 -0.6284892E+05
  0.1659524E+01  0.8074915E+05  0.9662343E+05 -0.7539637E-03 -0.4547119E-02 -0.6268805E+05 -0.6806866E+05
  0.1690476E+01  0.7775030E+05  0.1036439E+06 -0.4603426E-02 -0.8270264E-02 -0.6054613E+05 -0.7307091E+05
  0.1721429E+01  0.7441134E+05  0.1102889E+06  0.6559380E-03 -0.1953125E-02 -0.5814410E+05 -0.7781223E+05
  0.1752381E+01  0.7078005E+05  0.1164090E+06 -0.1105848E-02 -0.8117676E-02 -0.5555248E+05 -0.8220603E+05
  0.1783333E+01  0.6699373E+05  0.1220126E+06 -0.3294187E-02 -0.9155273E-02 -0.5285601E+05 -0.8624518E+05
  0.1814286E+01  0.6310509E+05  0.1270093E+06 -0.2985677E-02  0.3723145E-02 -0.5007632E+05 -0.8982776E+05
  0.1845238E+01  0.5918089E+05  0.1313605E+06  0.1157699E-03 -0.9490967E-02 -0.4727840E+05 -0.9296153E+05
  0.1876190E+01  0.5526041E+05  0.1351070E+06 -0.1756697E-02 -0.2624512E-02 -0.4455055E+05 -0.9579816E+05
  0.1907143E+01  0.5131686E+05  0.1380506E+06 -0.4244458E-02 -0.9490967E-02 -0.4174168E+05 -0.9796753E+05
  0.1938095E+01  0.4747891E+05  0.1403393E+06 -0.2086368E-03 -0.9765625E-03 -0.3899678E+05 -0.9965934E+05
  0.1969048E+01  0.4374643E+05  0.1419216E+06 -0.1336758E-02  0.7537842E-02 -0.3628205E+05 -0.1008107E+06
  0.2000000E+01  0.4017387E+05  0.1428926E+06 -0.2685547E-02 -0.6958008E-02 -0.3367532E+05 -0.1015044E+06
Zone t="Motion of body    1 in DoF   2",I=    64,F=POINT
  0.5000000E-01  0.2784729E-02  0.8702278E-05  0.6866177E+05  0.1180368E+03 -0.7247925E-02 -0.6437302E-05
  0.8095238E-01 -0.3015855E-02 -0.1621246E-04  0.6813545E+05  0.1957733E+03 -0.5560482E-02 -0.7152557E-05
  0.1119048E+00 -0.6476869E-03 -0.4005432E-04  0.6785812E+05  0.2804726E+03 -0.6408691E-02 -0.3147125E-04
  0.1428571E+00 -0.2403259E-03 -0.4482269E-04  0.6771869E+05  0.3754004E+03 -0.1174927E-02 -0.5531311E-04
  0.1738095E+00  0.1141274E-02 -0.1859665E-04  0.6773209E+05  0.4846438E+03 -0.5706369E-02 -0.7247925E-04
  0.2047619E+00  0.2384629E-02  0.1907349E-05  0.6775647E+05  0.6133619E+03 -0.7153888E-02 -0.1354218E-03
  0.2357143E+00  0.5858450E-02  0.1239777E-04  0.6786076E+05  0.7687639E+03 -0.5372943E-02 -0.1907349E-03
  0.2666667E+00  0.3433227E-03  0.5626678E-04  0.6807609E+05  0.9570538E+03 -0.7438659E-02 -0.1049042E-03
  0.2976190E+00 -0.3229981E-02  0.1640320E-03  0.6825161E+05  0.1191859E+04 -0.7587891E-02 -0.2422333E-03
  0.3285715E+00 -0.2507749E-02  0.1907349E-05  0.6853152E+05  0.1480726E+04  0.3715183E-03 -0.4768372E-04
  0.3595238E+00  0.1230808E-02 -0.1010895E-03  0.6873048E+05  0.1840098E+04 -0.9422049E-02 -0.1487732E-03
  0.3904762E+00  0.4689286E-03  0.1220703E-03  0.6897378E+05  0.2282736E+04 -0.5627143E-02 -0.2937317E-03
  0.4214286E+00  0.6662142E-02  0.1792908E-03  0.6910585E+05  0.2804997E+04 -0.5720752E-02 -0.1831055E-03
  0.4523810E+00  0.3878945E-02  0.1296997E-03  0.6912172E+05  0.3433879E+04 -0.5801552E-02 -0.5340576E-03
  0.4833333E+00  0.5335314E-02  0.8392334E-04  0.6913675E+05  0.4117629E+04 -0.8713295E-02 -0.9155273E-03
  0.5142857E+00 -0.6942749E-02 -0.3814697E-03  0.6882771E+05  0.4891612E+04 -0.1103719E-01  0.2441406E-03
  0.5452381E+00  0.4029919E-02 -0.6484985E-03  0.6857650E+05  0.5712005E+04 -0.9515088E-02 -0.3585815E-03
  0.5761905E+00  0.2542291E-02  0.5035400E-03  0.6814952E+05  0.6566235E+04 -0.2966006E-02 -0.5035400E-03
  0.6071429E+00  0.1256606E-02 -0.7934570E-03  0.6758833E+05  0.7475753E+04 -0.4322725E-02 -0.7476807E-03
  0.6380953E+00  0.5021736E-02  0.5187988E-03  0.6713714E+05  0.8380047E+04 -0.1176521E-01 -0.1068115E-03
  0.6690477E+00 -0.1140337E-02  0.9307861E-03  0.6644979E+05  0.9311776E+04 -0.5473615E-02 -0.3234863E-02
  0.7000000E+00  0.3531320E-02  0.4882812E-03  0.6570987E+05  0.1026912E+05 -0.8196149E-02  0.2136230E-03
  0.7309524E+00 -0.1628267E-02 -0.9155273E-04  0.6505547E+05  0.1121363E+05 -0.7097573E-02 -0.1678467E-03
  0.7619048E+00 -0.2403259E-03  0.2746582E-03  0.6428857E+05  0.1216147E+05 -0.8411407E-02 -0.2166748E-02
  0.7928572E+00  0.3887554E-02  0.1525879E-03  0.6340790E+05  0.1310958E+05 -0.8390958E-02 -0.2105713E-02
  0.8238096E+00 -0.1037245E-02 -0.2471924E-02  0.6257605E+05  0.1404041E+05 -0.5927113E-02 -0.1586914E-02
  0.8547620E+00  0.1570933E-02  0.1129150E-02  0.6180813E+05  0.1493989E+05 -0.6069513E-02 -0.2624512E-02
  0.8857143E+00 -0.1171481E-02  0.7019043E-03  0.6084720E+05  0.1582669E+05 -0.6408691E-02 -0.4913330E-02
  0.9166667E+00 -0.5659624E-02  0.2075195E-02  0.5991286E+05  0.1667934E+05 -0.2330433E-02 -0.5737305E-02
  0.9476191E+00  0.1642428E-02  0.2136230E-03  0.5901081E+05  0.1748808E+05 -0.5023899E-02 -0.3784180E-02
  0.9785714E+00  0.1871151E-03 -0.3051758E-04  0.5816323E+05  0.1823873E+05 -0.5738196E-02  0.2441406E-02
  0.1009524E+01  0.3446183E-02  0.2838135E-02  0.5725368E+05  0.1894955E+05 -0.8887526E-02 -0.4699707E-02
  0.1040476E+01  0.3900943E-02  0.5187988E-03  0.5626874E+05  0.1962122E+05 -0.4340898E-02 -0.3723145E-02
  0.1071429E+01  0.6095378E-02 -0.5493164E-03  0.5535777E+05  0.2023587E+05 -0.5525716E-02 -0.1098633E-02
  0.1102381E+01  0.2768333E-04 -0.4577637E-03  0.5449866E+05  0.2078004E+05 -0.5038366E-02 -0.6744385E-02
  0.1133333E+01  0.1077091E-03 -0.3997803E-02  0.5370729E+05  0.2124907E+05 -0.6139419E-02 -0.1251221E-02
  0.1164286E+01  0.3119158E-02  0.1464844E-02  0.5286340E+05  0.2166942E+05 -0.2254182E-02 -0.4943848E-02
  0.1195238E+01 -0.2655394E-02  0.2319336E-02  0.5196069E+05  0.2203798E+05 -0.1940480E-02 -0.6469727E-02
  0.1226190E+01  0.8337521E-03 -0.5310059E-02  0.5114748E+05  0.2234425E+05 -0.2638141E-02 -0.3356934E-03
  0.1257143E+01  0.3592751E-02 -0.2258301E-02  0.5039696E+05  0.2259366E+05 -0.9952892E-02 -0.2288818E-02
  0.1288095E+01 -0.4098719E-02 -0.1770020E-02  0.4970357E+05  0.2273361E+05  0.1563673E-02  0.1159668E-02
  0.1319048E+01  0.3516682E-02  0.5676270E-02  0.4909827E+05  0.2282097E+05 -0.8282713E-02 -0.8789062E-02
  0.1350000E+01 -0.1672815E-02  0.4272461E-03  0.4838034E+05  0.2287831E+05 -0.4611545E-02 -0.5493164E-03
  0.1380952E+01  0.1414332E-02  0.1342773E-02  0.4767250E+05  0.2286679E+05 -0.1458530E-02 -0.4028320E-02
  0.1411905E+01  0.2172254E-02 -0.2441406E-02  0.4705289E+05  0.2279972E+05 -0.5403618E-02 -0.1647949E-02
  0.1442857E+01  0.7878672E-03  0.2807617E-02  0.4649825E+05  0.2268346E+05 -0.6641350E-02 -0.3723145E-02
  0.1473810E+01 -0.4296618E-03  0.3417969E-02  0.4600962E+05  0.2249622E+05 -0.3644361E-02 -0.5950928E-02
  0.1504762E+01  0.8517881E-03  0.1647949E-02  0.4559160E+05  0.2224738E+05 -0.4137256E-02 -0.3173828E-02
  0.1535714E+01  0.1366194E-02  0.2685547E-02  0.4519712E+05  0.2195741E+05 -0.6120548E-02 -0.6469727E-02
  0.1566667E+01  0.5259412E-03  0.2746582E-02  0.4471168E+05  0.2163527E+05 -0.4558157E-02 -0.6561279E-02
  0.1597619E+01 -0.1458013E-02  0.9033203E-02  0.4425909E+05  0.2126142E+05 -0.1910191E-02 -0.4577637E-02
  0.1628572E+01  0.3583808E-03  0.5004883E-02  0.4389596E+05  0.2088076E+05 -0.1349198E-02 -0.1077271E-01
  0.1659524E+01 -0.5057073E-03 -0.3479004E-02  0.4358954E+05  0.2046481E+05 -0.2979076E-02 -0.2807617E-02
  0.1690476E+01  0.2121186E-02 -0.5493164E-03  0.4333625E+05  0.2000429E+05 -0.4802005E-02 -0.1211548E-01
  0.1721429E+01  0.1874742E-02  0.4455566E-02  0.4313447E+05  0.1949975E+05 -0.6027538E-02 -0.4272461E-02
  0.1752381E+01 -0.1097140E-02  0.8422852E-02  0.4299473E+05  0.1898093E+05 -0.3866113E-02 -0.1028442E-01
  0.1783333E+01  0.1326231E-02 -0.2441406E-03  0.4279899E+05  0.1842815E+05 -0.3935912E-02 -0.4394531E-02
  0.1814286E+01  0.1682071E-04  0.6652832E-02  0.4256816E+05  0.1782643E+05 -0.3700557E-02 -0.1028442E-01
  0.1845238E+01  0.1157699E-02  0.7263184E-02  0.4236811E+05  0.1719247E+05 -0.2513861E-02 -0.1065063E-01
  0.1876190E+01  0.1724166E-02 -0.5920410E-02  0.4223588E+05  0.1659903E+05 -0.1756697E-02  0.7690430E-02
  0.1907143E+01  0.3200346E-04  0.3479004E-02  0.4214739E+05  0.1599263E+05 -0.2272245E-02 -0.5889893E-02
  0.1938095E+01  0.8266740E-03  0.4882812E-02  0.4210087E+05  0.1537339E+05 -0.4156989E-02 -0.9033203E-02
  0.1969048E+01  0.3099730E-04  0.1831055E-03  0.4209125E+05  0.1472305E+05 -0.2758760E-02  0.1251221E-02
  0.2000000E+01  0.1022339E-02  0.8239746E-02  0.4212163E+05  0.1406641E+05 -0.1770020E-02 -0.1025391E-01
Zone t="Motion of body    1 in DoF   3",I=    64,F=POINT
  0.5000000E-01 -0.4643577E+05 -0.1593063E-02  0.1220703E-02 -0.1244141E-05  0.6146128E+05  0.1037138E-02
  0.8095238E-01 -0.4653236E+05 -0.7013162E-02 -0.4841860E-02 -0.3010615E-04  0.6145346E+05  0.4603374E-02
  0.1119048E+00 -0.4687927E+05 -0.1969369E-01 -0.7618843E-02 -0.3350212E-04  0.6177663E+05  0.1291946E-01
  0.1428571E+00 -0.4709538E+05 -0.4455121E-01  0.1726341E-01  0.1456974E-03  0.6189711E+05  0.2921049E-01
  0.1738095E+00 -0.4699252E+05 -0.8881956E-01 -0.5772212E-02 -0.5689810E-04  0.6188466E+05  0.5817218E-01
  0.2047619E+00 -0.4718177E+05 -0.1647838E+00 -0.2664078E-02 -0.2761907E-04  0.6204291E+05  0.1082441E+00
  0.2357143E+00 -0.4728895E+05 -0.2914881E+00  0.6036469E-02  0.8995063E-05  0.6202186E+05  0.1915388E+00
  0.2666667E+00 -0.4735306E+05 -0.4992237E+00  0.3747940E-02  0.1214398E-03  0.6216878E+05  0.3280262E+00
  0.2976190E+00 -0.4753009E+05 -0.8416421E+00  0.1449646E-01  0.3719614E-03  0.6221112E+05  0.5537159E+00
  0.3285715E+00 -0.4762225E+05 -0.1401600E+01  0.6408690E-02  0.3930302E-03  0.6234848E+05  0.9225546E+00
  0.3595238E+00 -0.4781727E+05 -0.2317290E+01 -0.3055800E-02 -0.8069444E-04  0.6236197E+05  0.1525553E+01
  0.3904762E+00 -0.4794799E+05 -0.3800061E+01 -0.1237776E-01 -0.7220600E-03  0.6259540E+05  0.2506722E+01
  0.4214286E+00 -0.4818525E+05 -0.6173570E+01  0.1021046E-01  0.5133189E-03  0.6264240E+05  0.4073255E+01
  0.4523810E+00 -0.4851498E+05 -0.9933343E+01 -0.3069426E-02 -0.2655163E-03  0.6295381E+05  0.6567106E+01
  0.4833333E+00 -0.4855489E+05 -0.1557715E+02  0.2318810E-01  0.1943894E-02  0.6301392E+05  0.1030571E+02
  0.5142857E+00 -0.4899008E+05 -0.2408622E+02  0.3456540E-02  0.7396787E-03  0.6324618E+05  0.1596468E+02
  0.5452381E+00 -0.4922681E+05 -0.3639259E+02  0.1343307E-02  0.3232807E-03  0.6345971E+05  0.2413020E+02
  0.5761905E+00 -0.4950672E+05 -0.5368080E+02  0.1055315E-01  0.1145482E-02  0.6354232E+05  0.3562835E+02
  0.6071429E+00 -0.4993438E+05 -0.7776932E+02  0.1280482E-01  0.1694947E-02  0.6394773E+05  0.5175156E+02
  0.6380953E+00 -0.5011810E+05 -0.1101668E+03  0.7018473E-02  0.1074851E-02  0.6413622E+05  0.7338740E+02
  0.6690477E+00 -0.5060472E+05 -0.1538728E+03  0.1079899E-01  0.1624286E-02  0.6427991E+05  0.1025779E+03
  0.7000000E+00 -0.5116756E+05 -0.2117722E+03 -0.1029968E-01 -0.2201438E-02  0.6477474E+05  0.1415086E+03
  0.7309524E+00 -0.5149111E+05 -0.2868120E+03  0.5323180E-02  0.2372861E-02  0.6505263E+05  0.1918646E+03
  0.7619048E+00 -0.5194081E+05 -0.3836278E+03  0.1727342E-01  0.5858660E-02  0.6530480E+05  0.2570256E+03
  0.7928572E+00 -0.5261687E+05 -0.5076420E+03 -0.1125851E-02 -0.2975464E-02  0.6576709E+05  0.3409705E+03
  0.8238096E+00 -0.5317943E+05 -0.6646860E+03 -0.4158240E-02 -0.3065109E-02  0.6624070E+05  0.4472454E+03
  0.8547620E+00 -0.5371280E+05 -0.8624909E+03  0.1249606E-03  0.2355576E-03  0.6659837E+05  0.5807271E+03
  0.8857143E+00 -0.5439429E+05 -0.1108664E+04  0.1886429E-02  0.2865314E-02  0.6695938E+05  0.7475778E+03
  0.9166667E+00 -0.5525389E+05 -0.1413507E+04 -0.7374156E-02 -0.2928734E-02  0.6758034E+05  0.9556043E+03
  0.9476191E+00 -0.5594606E+05 -0.1785854E+04  0.4444218E-02  0.3247261E-02  0.6816427E+05  0.1209888E+04
  0.9785714E+00 -0.5658128E+05 -0.2239161E+04  0.4147718E-02  0.3476143E-02  0.6865135E+05  0.1519350E+04
  0.1009524E+01 -0.5735747E+05 -0.2788114E+04 -0.1511484E-02 -0.4034996E-02  0.6915066E+05  0.1895141E+04
  0.1040476E+01 -0.5835167E+05 -0.3453821E+04  0.1849281E-01  0.1268768E-01  0.6971016E+05  0.2351185E+04
  0.1071429E+01 -0.5939207E+05 -0.4253691E+04  0.3652954E-02  0.1073837E-02  0.7051381E+05  0.2901862E+04
  0.1102381E+01 -0.6027632E+05 -0.5202002E+04  0.4650800E-02  0.4598618E-02  0.7120694E+05  0.3555405E+04
  0.1133333E+01 -0.6111898E+05 -0.6322386E+04 -0.3285127E-02 -0.1998901E-02  0.7182190E+05  0.4327182E+04
  0.1164286E+01 -0.6203304E+05 -0.7636707E+04  0.6028626E-03 -0.3852844E-03  0.7242982E+05  0.5236331E+04
  0.1195238E+01 -0.6303338E+05 -0.9172088E+04  0.6051234E-02  0.7644653E-02  0.7299374E+05  0.6298208E+04
  0.1226190E+01 -0.6408388E+05 -0.1095671E+05  0.8213081E-03  0.3196716E-02  0.7387305E+05  0.7547232E+04
  0.1257143E+01 -0.6483424E+05 -0.1297950E+05 -0.1529347E-02 -0.2857208E-02  0.7450882E+05  0.8959755E+04
  0.1288095E+01 -0.6569098E+05 -0.1534333E+05  0.6396846E-03  0.1220703E-03  0.7513990E+05  0.1060635E+05
  0.1319048E+01 -0.6641766E+05 -0.1801816E+05 -0.1827749E-02  0.7537842E-02  0.7565359E+05  0.1246883E+05
  0.1350000E+01 -0.6713371E+05 -0.2103471E+05  0.5651403E-04  0.2593994E-02  0.7605012E+05  0.1456935E+05
  0.1380952E+01 -0.6775077E+05 -0.2440182E+05  0.1060749E-02 -0.2136230E-02  0.7636914E+05  0.1692430E+05
  0.1411905E+01 -0.6808614E+05 -0.2810162E+05  0.2291134E-02  0.5798340E-03  0.7677783E+05  0.1955353E+05
  0.1442857E+01 -0.6826124E+05 -0.3214546E+05  0.2802480E-02  0.2044678E-02  0.7701527E+05  0.2241361E+05
  0.1473810E+01 -0.6809745E+05 -0.3649442E+05  0.3830720E-03  0.3845215E-02  0.7696322E+05  0.2548823E+05
  0.1504762E+01 -0.6764148E+05 -0.4111366E+05  0.5283114E-02  0.1556396E-01  0.7668112E+05  0.2874844E+05
  0.1535714E+01 -0.6694845E+05 -0.4595348E+05 -0.3507392E-02 -0.1083374E-02  0.7623145E+05  0.3219254E+05
  0.1566667E+01 -0.6604116E+05 -0.5094678E+05 -0.1012924E-02  0.4470825E-02  0.7550488E+05  0.3572307E+05
  0.1597619E+01 -0.6486284E+05 -0.5604703E+05 -0.3180468E-02 -0.4272461E-02  0.7457960E+05  0.3934275E+05
  0.1628572E+01 -0.6351330E+05 -0.6123004E+05  0.6464908E-03 -0.6240845E-02  0.7374627E+05  0.4308181E+05
  0.1659524E+01 -0.6176457E+05 -0.6634654E+05  0.1287255E-02  0.8743286E-02  0.7257228E+05  0.4673846E+05
  0.1690476E+01 -0.5967904E+05 -0.7127592E+05  0.4729794E-02  0.7507324E-02  0.7112784E+05  0.5025386E+05
  0.1721429E+01 -0.5731882E+05 -0.7596251E+05  0.2996041E-02  0.1000977E-01  0.6947429E+05  0.5360339E+05
  0.1752381E+01 -0.5475901E+05 -0.8028580E+05  0.6965969E-03  0.5493164E-02  0.6768798E+05  0.5671151E+05
  0.1783333E+01 -0.5212473E+05 -0.8423578E+05  0.4842883E-02  0.6408691E-03  0.6577505E+05  0.5955364E+05
  0.1814286E+01 -0.4943234E+05 -0.8773889E+05 -0.4709800E-03 -0.2136230E-02  0.6374931E+05  0.6204140E+05
  0.1845238E+01 -0.4673045E+05 -0.9079792E+05 -0.1968089E-02  0.5798340E-03  0.6171392E+05  0.6421658E+05
  0.1876190E+01 -0.4409403E+05 -0.9350603E+05  0.3415800E-02  0.4913330E-02  0.5993167E+05  0.6627988E+05
  0.1907143E+01 -0.4135516E+05 -0.9563840E+05  0.1280138E-02  0.1879883E-01  0.5803618E+05  0.6786417E+05
  0.1938095E+01 -0.3867359E+05 -0.9732082E+05  0.0000000E+00  0.5371094E-02  0.5618380E+05  0.6912482E+05
  0.1969048E+01 -0.3599389E+05 -0.9848355E+05  0.2975741E-02 -0.1010132E-01  0.5427204E+05  0.6998922E+05
  0.2000000E+01 -0.3340863E+05 -0.9922396E+05  0.6286621E-02  0.1296997E-01  0.5243381E+05  0.7053634E+05
