VARIABLES="w (rad/s)"
"abs(F   1   1)" "angle(F   1   1)"
"abs(F   1   2)" "angle(F   1   2)"
"abs(F   1   3)" "angle(F   1   3)"
Zone t="Diffraction force - beta =   0.000 deg",I=    64,F=POINT
  0.5000000E-01  0.2248294E+04 -0.1570794E+01  0.7672679E+03 -0.3077766E+01  0.1530555E+04 -0.1570792E+01
  0.8095238E-01  0.3673836E+04 -0.1570789E+01  0.1980283E+04 -0.3075250E+01  0.2481082E+04 -0.1570783E+01
  0.1119048E+00  0.5122248E+04 -0.1570782E+01  0.3754336E+04 -0.3072390E+01  0.3455006E+04 -0.1570770E+01
  0.1428571E+00  0.6616426E+04 -0.1570770E+01  0.6090905E+04 -0.3068857E+01  0.4476011E+04 -0.1570750E+01
  0.1738095E+00  0.8160950E+04 -0.1570754E+01  0.9002713E+04 -0.3064485E+01  0.5518710E+04 -0.1570720E+01
  0.2047619E+00  0.9785975E+04 -0.1570730E+01  0.1250452E+05 -0.3059074E+01  0.6637226E+04 -0.1570678E+01
  0.2357143E+00  0.1149976E+05 -0.1570696E+01  0.1661556E+05 -0.3052311E+01  0.7805968E+04 -0.1570615E+01
  0.2666667E+00  0.1332935E+05 -0.1570646E+01  0.2135115E+05 -0.3044142E+01  0.9072297E+04 -0.1570524E+01
  0.2976190E+00  0.1530576E+05 -0.1570571E+01  0.2673030E+05 -0.3033919E+01  0.1046105E+05 -0.1570390E+01
  0.3285715E+00  0.1744368E+05 -0.1570460E+01  0.3278591E+05 -0.3021842E+01  0.1194107E+05 -0.1570188E+01
  0.3595238E+00  0.1977686E+05 -0.1570294E+01  0.3948107E+05 -0.3007184E+01  0.1358978E+05 -0.1569889E+01
  0.3904762E+00  0.2233648E+05 -0.1570047E+01  0.4685866E+05 -0.2989991E+01  0.1540828E+05 -0.1569443E+01
  0.4214286E+00  0.2515713E+05 -0.1569689E+01  0.5478751E+05 -0.2970871E+01  0.1745037E+05 -0.1568797E+01
  0.4523810E+00  0.2820542E+05 -0.1569163E+01  0.6333183E+05 -0.2948955E+01  0.1961034E+05 -0.1567842E+01
  0.4833333E+00  0.3152473E+05 -0.1568440E+01  0.7227716E+05 -0.2926947E+01  0.2206346E+05 -0.1566539E+01
  0.5142857E+00  0.3508313E+05 -0.1567441E+01  0.8161311E+05 -0.2903189E+01  0.2467554E+05 -0.1564734E+01
  0.5452381E+00  0.3883282E+05 -0.1566118E+01  0.9133162E+05 -0.2879923E+01  0.2741206E+05 -0.1562332E+01
  0.5761905E+00  0.4274170E+05 -0.1564410E+01  0.1013173E+06 -0.2857349E+01  0.3028213E+05 -0.1559221E+01
  0.6071429E+00  0.4680617E+05 -0.1562225E+01  0.1115045E+06 -0.2834280E+01  0.3336557E+05 -0.1555264E+01
  0.6380953E+00  0.5098622E+05 -0.1559531E+01  0.1219494E+06 -0.2813043E+01  0.3654415E+05 -0.1550367E+01
  0.6690477E+00  0.5524023E+05 -0.1556225E+01  0.1325570E+06 -0.2792377E+01  0.3978684E+05 -0.1544334E+01
  0.7000000E+00  0.5951444E+05 -0.1552207E+01  0.1432651E+06 -0.2771892E+01  0.4297875E+05 -0.1536920E+01
  0.7309524E+00  0.6380518E+05 -0.1547434E+01  0.1541120E+06 -0.2752710E+01  0.4624855E+05 -0.1528100E+01
  0.7619048E+00  0.6808413E+05 -0.1541815E+01  0.1649922E+06 -0.2734216E+01  0.4961984E+05 -0.1517733E+01
  0.7928572E+00  0.7230877E+05 -0.1535272E+01  0.1758201E+06 -0.2716163E+01  0.5289878E+05 -0.1505529E+01
  0.8238096E+00  0.7641252E+05 -0.1527733E+01  0.1866200E+06 -0.2698882E+01  0.5607341E+05 -0.1491331E+01
  0.8547620E+00  0.8037359E+05 -0.1519161E+01  0.1974167E+06 -0.2682740E+01  0.5907095E+05 -0.1474937E+01
  0.8857143E+00  0.8411770E+05 -0.1509508E+01  0.2081132E+06 -0.2667505E+01  0.6183184E+05 -0.1456139E+01
  0.9166667E+00  0.8759911E+05 -0.1498764E+01  0.2186496E+06 -0.2653026E+01  0.6432006E+05 -0.1434785E+01
  0.9476191E+00  0.9073788E+05 -0.1486925E+01  0.2289739E+06 -0.2639243E+01  0.6655712E+05 -0.1410845E+01
  0.9785714E+00  0.9351909E+05 -0.1474052E+01  0.2390755E+06 -0.2626286E+01  0.6832932E+05 -0.1383883E+01
  0.1009524E+01  0.9583304E+05 -0.1460180E+01  0.2489340E+06 -0.2614201E+01  0.6960362E+05 -0.1353702E+01
  0.1040476E+01  0.9761612E+05 -0.1445416E+01  0.2585510E+06 -0.2603104E+01  0.7026783E+05 -0.1319937E+01
  0.1071429E+01  0.9880631E+05 -0.1429879E+01  0.2678892E+06 -0.2593052E+01  0.7018058E+05 -0.1281897E+01
  0.1102381E+01  0.9930956E+05 -0.1413720E+01  0.2769340E+06 -0.2583956E+01  0.6929782E+05 -0.1239018E+01
  0.1133333E+01  0.9909932E+05 -0.1397216E+01  0.2856371E+06 -0.2575700E+01  0.6755707E+05 -0.1190470E+01
  0.1164286E+01  0.9810393E+05 -0.1380614E+01  0.2940189E+06 -0.2568443E+01  0.6490875E+05 -0.1134884E+01
  0.1195238E+01  0.9627498E+05 -0.1364301E+01  0.3020434E+06 -0.2562051E+01  0.6134946E+05 -0.1070474E+01
  0.1226190E+01  0.9362617E+05 -0.1348734E+01  0.3097207E+06 -0.2556604E+01  0.5678206E+05 -0.9931354E+00
  0.1257143E+01  0.9008174E+05 -0.1334068E+01  0.3170822E+06 -0.2551663E+01  0.5139346E+05 -0.8973073E+00
  0.1288095E+01  0.8565628E+05 -0.1321847E+01  0.3239135E+06 -0.2548130E+01  0.4513709E+05 -0.7730879E+00
  0.1319048E+01  0.8035616E+05 -0.1312095E+01  0.3304529E+06 -0.2545202E+01  0.3847713E+05 -0.6000305E+00
  0.1350000E+01  0.7421720E+05 -0.1306338E+01  0.3366200E+06 -0.2543179E+01  0.3209938E+05 -0.3425027E+00
  0.1380952E+01  0.6725620E+05 -0.1306450E+01  0.3424014E+06 -0.2542026E+01  0.2766936E+05  0.4148444E-01
  0.1411905E+01  0.6037125E+05 -0.1310710E+01  0.3463222E+06 -0.2542684E+01  0.2766246E+05  0.4705594E+00
  0.1442857E+01  0.5210872E+05 -0.1330618E+01  0.3514103E+06 -0.2542829E+01  0.3275674E+05  0.9189623E+00
  0.1473810E+01  0.4330742E+05 -0.1371934E+01  0.3562027E+06 -0.2543620E+01  0.4261121E+05  0.1239780E+01
  0.1504762E+01  0.3415779E+05 -0.1453161E+01  0.3606476E+06 -0.2545041E+01  0.5556965E+05  0.1452474E+01
  0.1535714E+01  0.2513501E+05 -0.1619036E+01  0.3647857E+06 -0.2546824E+01  0.7057045E+05  0.1598830E+01
  0.1566667E+01  0.1757297E+05 -0.1985883E+01  0.3685979E+06 -0.2548995E+01  0.8705748E+05  0.1706255E+01
  0.1597619E+01  0.1522400E+05 -0.2671887E+01  0.3720279E+06 -0.2551114E+01  0.1046712E+06  0.1789655E+01
  0.1628572E+01  0.2075299E+05  0.3027287E+01  0.3750770E+06 -0.2553217E+01  0.1232343E+06  0.1857379E+01
  0.1659524E+01  0.3047372E+05  0.2748508E+01  0.3776673E+06 -0.2554996E+01  0.1425924E+06  0.1914077E+01
  0.1690476E+01  0.4175484E+05  0.2615751E+01  0.3796627E+06 -0.2556314E+01  0.1626092E+06  0.1962748E+01
  0.1721429E+01  0.5373644E+05  0.2545021E+01  0.3810276E+06 -0.2557273E+01  0.1831450E+06  0.2005516E+01
  0.1752381E+01  0.6607077E+05  0.2503907E+01  0.3816545E+06 -0.2557710E+01  0.2040971E+06  0.2043444E+01
  0.1783333E+01  0.7856644E+05  0.2478848E+01  0.3813422E+06 -0.2557611E+01  0.2253639E+06  0.2077325E+01
  0.1814286E+01  0.9113416E+05  0.2463105E+01  0.3800077E+06 -0.2557175E+01  0.2467899E+06  0.2108176E+01
  0.1845238E+01  0.1036979E+06  0.2453052E+01  0.3776134E+06 -0.2556511E+01  0.2682214E+06  0.2136426E+01
  0.1876190E+01  0.1161404E+06  0.2446786E+01  0.3739694E+06 -0.2555727E+01  0.2895546E+06  0.2162440E+01
  0.1907143E+01  0.1283880E+06  0.2442816E+01  0.3690224E+06 -0.2555266E+01  0.3106721E+06  0.2186316E+01
  0.1938095E+01  0.1403720E+06  0.2440420E+01  0.3628501E+06 -0.2555271E+01  0.3314331E+06  0.2208347E+01
  0.1969048E+01  0.1521021E+06  0.2439001E+01  0.3554385E+06 -0.2556330E+01  0.3518097E+06  0.2229044E+01
  0.2000000E+01  0.1635072E+06  0.2438000E+01  0.3468402E+06 -0.2558793E+01  0.3715907E+06  0.2248283E+01
