VARIABLES="w (rad/s)"
"abs(F   1   1)" "angle(F   1   1)"
"abs(F   1   2)" "angle(F   1   2)"
"abs(F   1   3)" "angle(F   1   3)"
Zone t="Diffraction force - beta =   0.000 deg",I=    64,F=POINT
  0.5000000E-01  0.2633662E+04 -0.1570789E+01  0.6844173E+06 -0.4545091E-04  0.5150194E+04 -0.1570814E+01
  0.8095238E-01  0.4294078E+04 -0.1570795E+01  0.6831154E+06 -0.1222585E-03  0.8390125E+04 -0.1570805E+01
  0.1119048E+00  0.5992218E+04 -0.1570786E+01  0.6812029E+06 -0.2427349E-03  0.1171219E+05 -0.1570794E+01
  0.1428571E+00  0.7744487E+04 -0.1570792E+01  0.6786849E+06 -0.4160410E-03  0.1514401E+05 -0.1570789E+01
  0.1738095E+00  0.9570133E+04 -0.1570787E+01  0.6755400E+06 -0.6561802E-03  0.1873387E+05 -0.1570795E+01
  0.2047619E+00  0.1149003E+05 -0.1570781E+01  0.6717762E+06 -0.9830032E-03  0.2251269E+05 -0.1570787E+01
  0.2357143E+00  0.1352812E+05 -0.1570773E+01  0.6673612E+06 -0.1426171E-02  0.2653314E+05 -0.1570776E+01
  0.2666667E+00  0.1571683E+05 -0.1570766E+01  0.6622904E+06 -0.2021748E-02  0.3087865E+05 -0.1570767E+01
  0.2976190E+00  0.1808331E+05 -0.1570748E+01  0.6565731E+06 -0.2830156E-02  0.3557751E+05 -0.1570752E+01
  0.3285715E+00  0.2066325E+05 -0.1570728E+01  0.6501581E+06 -0.3913199E-02  0.4071305E+05 -0.1570728E+01
  0.3595238E+00  0.2350092E+05 -0.1570697E+01  0.6430745E+06 -0.5367725E-02  0.4640951E+05 -0.1570698E+01
  0.3904762E+00  0.2662160E+05 -0.1570645E+01  0.6353513E+06 -0.7304176E-02  0.5267419E+05 -0.1570644E+01
  0.4214286E+00  0.3006458E+05 -0.1570572E+01  0.6270519E+06 -0.9787071E-02  0.5959902E+05 -0.1570572E+01
  0.4523810E+00  0.3383812E+05 -0.1570467E+01  0.6181129E+06 -0.1300397E-01  0.6723633E+05 -0.1570467E+01
  0.4833333E+00  0.3795964E+05 -0.1570323E+01  0.6087254E+06 -0.1686897E-01  0.7564768E+05 -0.1570323E+01
  0.5142857E+00  0.4239944E+05 -0.1570122E+01  0.5989688E+06 -0.2159628E-01  0.8471255E+05 -0.1570123E+01
  0.5452381E+00  0.4714019E+05 -0.1569861E+01  0.5887629E+06 -0.2710777E-01  0.9443593E+05 -0.1569860E+01
  0.5761905E+00  0.5212743E+05 -0.1569523E+01  0.5782152E+06 -0.3341650E-01  0.1047101E+06 -0.1569523E+01
  0.6071429E+00  0.5735479E+05 -0.1569095E+01  0.5674418E+06 -0.4069754E-01  0.1155730E+06 -0.1569095E+01
  0.6380953E+00  0.6279905E+05 -0.1568569E+01  0.5563858E+06 -0.4877453E-01  0.1269604E+06 -0.1568569E+01
  0.6690477E+00  0.6841631E+05 -0.1567928E+01  0.5451338E+06 -0.5780965E-01  0.1387452E+06 -0.1567930E+01
  0.7000000E+00  0.7417773E+05 -0.1567157E+01  0.5336951E+06 -0.6789487E-01  0.1509067E+06 -0.1567158E+01
  0.7309524E+00  0.8006435E+05 -0.1566249E+01  0.5220504E+06 -0.7894445E-01  0.1634508E+06 -0.1566250E+01
  0.7619048E+00  0.8606664E+05 -0.1565190E+01  0.5103707E+06 -0.9106465E-01  0.1763452E+06 -0.1565191E+01
  0.7928572E+00  0.9215484E+05 -0.1563972E+01  0.4987250E+06 -0.1043069E+00  0.1895337E+06 -0.1563974E+01
  0.8238096E+00  0.9831457E+05 -0.1562588E+01  0.4870618E+06 -0.1186670E+00  0.2029698E+06 -0.1562591E+01
  0.8547620E+00  0.1045041E+06 -0.1561038E+01  0.4753473E+06 -0.1341428E+00  0.2165664E+06 -0.1561040E+01
  0.8857143E+00  0.1106896E+06 -0.1559324E+01  0.4636562E+06 -0.1507507E+00  0.2302653E+06 -0.1559325E+01
  0.9166667E+00  0.1168369E+06 -0.1557459E+01  0.4520514E+06 -0.1685264E+00  0.2440288E+06 -0.1557462E+01
  0.9476191E+00  0.1229357E+06 -0.1555462E+01  0.4406064E+06 -0.1874907E+00  0.2578462E+06 -0.1555467E+01
  0.9785714E+00  0.1289626E+06 -0.1553362E+01  0.4293328E+06 -0.2076397E+00  0.2716578E+06 -0.1553370E+01
  0.1009524E+01  0.1348615E+06 -0.1551190E+01  0.4182833E+06 -0.2289864E+00  0.2853046E+06 -0.1551199E+01
  0.1040476E+01  0.1405968E+06 -0.1548986E+01  0.4073896E+06 -0.2514906E+00  0.2987338E+06 -0.1548997E+01
  0.1071429E+01  0.1461362E+06 -0.1546807E+01  0.3966394E+06 -0.2751251E+00  0.3118519E+06 -0.1546815E+01
  0.1102381E+01  0.1514310E+06 -0.1544715E+01  0.3860265E+06 -0.2998911E+00  0.3245850E+06 -0.1544721E+01
  0.1133333E+01  0.1564488E+06 -0.1542794E+01  0.3756190E+06 -0.3258020E+00  0.3368462E+06 -0.1542797E+01
  0.1164286E+01  0.1611519E+06 -0.1541135E+01  0.3654423E+06 -0.3528935E+00  0.3485479E+06 -0.1541138E+01
  0.1195238E+01  0.1655108E+06 -0.1539834E+01  0.3555182E+06 -0.3811601E+00  0.3596324E+06 -0.1539835E+01
  0.1226190E+01  0.1695082E+06 -0.1539003E+01  0.3458216E+06 -0.4105721E+00  0.3700329E+06 -0.1539001E+01
  0.1257143E+01  0.1731112E+06 -0.1538714E+01  0.3363908E+06 -0.4414109E+00  0.3796786E+06 -0.1538710E+01
  0.1288095E+01  0.1762990E+06 -0.1539206E+01  0.3272045E+06 -0.4728058E+00  0.3885118E+06 -0.1539200E+01
  0.1319048E+01  0.1790575E+06 -0.1540489E+01  0.3182372E+06 -0.5055716E+00  0.3964882E+06 -0.1540480E+01
  0.1350000E+01  0.1813779E+06 -0.1542724E+01  0.3095047E+06 -0.5394437E+00  0.4035569E+06 -0.1542714E+01
  0.1380952E+01  0.1832452E+06 -0.1546029E+01  0.3009717E+06 -0.5743286E+00  0.4096925E+06 -0.1546017E+01
  0.1411905E+01  0.1851605E+06 -0.1549304E+01  0.2952038E+06 -0.5994895E+00  0.4161586E+06 -0.1549292E+01
  0.1442857E+01  0.1862623E+06 -0.1554699E+01  0.2871674E+06 -0.6359307E+00  0.4207153E+06 -0.1554685E+01
  0.1473810E+01  0.1869337E+06 -0.1561448E+01  0.2793534E+06 -0.6734115E+00  0.4243308E+06 -0.1561433E+01
  0.1504762E+01  0.1871932E+06 -0.1569656E+01  0.2717594E+06 -0.7119329E+00  0.4270272E+06 -0.1569642E+01
  0.1535714E+01  0.1870602E+06 -0.1579416E+01  0.2644093E+06 -0.7515100E+00  0.4288625E+06 -0.1579404E+01
  0.1566667E+01  0.1865699E+06 -0.1590806E+01  0.2573017E+06 -0.7921781E+00  0.4298837E+06 -0.1590797E+01
  0.1597619E+01  0.1857347E+06 -0.1603878E+01  0.2504284E+06 -0.8338714E+00  0.4301224E+06 -0.1603872E+01
  0.1628572E+01  0.1845844E+06 -0.1618691E+01  0.2437248E+06 -0.8765236E+00  0.4296060E+06 -0.1618690E+01
  0.1659524E+01  0.1831381E+06 -0.1635279E+01  0.2371875E+06 -0.9200857E+00  0.4283776E+06 -0.1635277E+01
  0.1690476E+01  0.1814310E+06 -0.1653657E+01  0.2308353E+06 -0.9645970E+00  0.4264848E+06 -0.1653663E+01
  0.1721429E+01  0.1794823E+06 -0.1673849E+01  0.2246299E+06 -0.1010034E+01  0.4239702E+06 -0.1673864E+01
  0.1752381E+01  0.1773343E+06 -0.1695894E+01  0.2186172E+06 -0.1056473E+01  0.4209557E+06 -0.1695924E+01
  0.1783333E+01  0.1750178E+06 -0.1719821E+01  0.2128044E+06 -0.1103976E+01  0.4175142E+06 -0.1719860E+01
  0.1814286E+01  0.1725616E+06 -0.1745616E+01  0.2071909E+06 -0.1152558E+01  0.4136918E+06 -0.1745674E+01
  0.1845238E+01  0.1699816E+06 -0.1773234E+01  0.2017659E+06 -0.1202080E+01  0.4095016E+06 -0.1773327E+01
  0.1876190E+01  0.1672940E+06 -0.1802677E+01  0.1964796E+06 -0.1252566E+01  0.4049850E+06 -0.1802797E+01
  0.1907143E+01  0.1645149E+06 -0.1833925E+01  0.1913210E+06 -0.1303913E+01  0.4001939E+06 -0.1834063E+01
  0.1938095E+01  0.1616649E+06 -0.1866898E+01  0.1862978E+06 -0.1356130E+01  0.3951267E+06 -0.1867083E+01
  0.1969048E+01  0.1587764E+06 -0.1901633E+01  0.1814418E+06 -0.1409305E+01  0.3899171E+06 -0.1901873E+01
  0.2000000E+01  0.1558487E+06 -0.1938050E+01  0.1766996E+06 -0.1463314E+01  0.3845327E+06 -0.1938357E+01
