VARIABLES="w (rad/s)"
"abs(F   1   1)" "angle(F   1   1)"
"abs(F   1   2)" "angle(F   1   2)"
"abs(F   1   3)" "angle(F   1   3)"
Zone t="Diffraction force - beta =   0.000 deg",I=    64,F=POINT
  0.5000000E-01  0.8191526E+03 -0.1570789E+01  0.2006890E+06 -0.1378995E-04  0.9537922E+01 -0.1570499E+01
  0.8095238E-01  0.1335915E+04 -0.1570783E+01  0.2004290E+06 -0.3711463E-04  0.1555023E+02 -0.1570580E+01
  0.1119048E+00  0.1863910E+04 -0.1570783E+01  0.2000466E+06 -0.7375134E-04  0.2176542E+02 -0.1570652E+01
  0.1428571E+00  0.2414038E+04 -0.1570793E+01  0.1995417E+06 -0.1265737E-03  0.2829083E+02 -0.1570710E+01
  0.1738095E+00  0.2984028E+04 -0.1570797E+01  0.1989130E+06 -0.1999401E-03  0.3498934E+02 -0.1570712E+01
  0.2047619E+00  0.3590975E+04 -0.1570792E+01  0.1981598E+06 -0.3000890E-03  0.4235830E+02 -0.1570731E+01
  0.2357143E+00  0.4231049E+04 -0.1570795E+01  0.1972808E+06 -0.4363616E-03  0.5019050E+02 -0.1570720E+01
  0.2666667E+00  0.4923792E+04 -0.1570784E+01  0.1962740E+06 -0.6202350E-03  0.5857741E+02 -0.1570740E+01
  0.2976190E+00  0.5678813E+04 -0.1570783E+01  0.1951395E+06 -0.8708404E-03  0.6811993E+02 -0.1570732E+01
  0.3285715E+00  0.6501703E+04 -0.1570773E+01  0.1938742E+06 -0.1208378E-02  0.7868010E+02 -0.1570736E+01
  0.3595238E+00  0.7405925E+04 -0.1570759E+01  0.1924809E+06 -0.1664112E-02  0.8998257E+02 -0.1570732E+01
  0.3904762E+00  0.8415718E+04 -0.1570742E+01  0.1909572E+06 -0.2274099E-02  0.1031696E+03 -0.1570715E+01
  0.4214286E+00  0.9533398E+04 -0.1570722E+01  0.1893145E+06 -0.3062450E-02  0.1181974E+03 -0.1570698E+01
  0.4523810E+00  0.1075428E+05 -0.1570682E+01  0.1875471E+06 -0.4090463E-02  0.1345927E+03 -0.1570658E+01
  0.4833333E+00  0.1210365E+05 -0.1570629E+01  0.1856710E+06 -0.5336770E-02  0.1530312E+03 -0.1570610E+01
  0.5142857E+00  0.1357641E+05 -0.1570553E+01  0.1836913E+06 -0.6872558E-02  0.1746951E+03 -0.1570535E+01
  0.5452381E+00  0.1515043E+05 -0.1570454E+01  0.1816079E+06 -0.8681544E-02  0.1968542E+03 -0.1570442E+01
  0.5761905E+00  0.1680309E+05 -0.1570323E+01  0.1794320E+06 -0.1077382E-01  0.2198173E+03 -0.1570311E+01
  0.6071429E+00  0.1857456E+05 -0.1570153E+01  0.1771665E+06 -0.1321138E-01  0.2468446E+03 -0.1570142E+01
  0.6380953E+00  0.2044494E+05 -0.1569941E+01  0.1748107E+06 -0.1594483E-01  0.2754643E+03 -0.1569928E+01
  0.6690477E+00  0.2239125E+05 -0.1569671E+01  0.1723805E+06 -0.1903849E-01  0.3066921E+03 -0.1569662E+01
  0.7000000E+00  0.2439605E+05 -0.1569337E+01  0.1698762E+06 -0.2253070E-01  0.3379711E+03 -0.1569328E+01
  0.7309524E+00  0.2646776E+05 -0.1568929E+01  0.1672960E+06 -0.2640333E-01  0.3706073E+03 -0.1568921E+01
  0.7619048E+00  0.2863244E+05 -0.1568435E+01  0.1646574E+06 -0.3069996E-01  0.4072100E+03 -0.1568429E+01
  0.7928572E+00  0.3088161E+05 -0.1567842E+01  0.1619658E+06 -0.3544453E-01  0.4474681E+03 -0.1567837E+01
  0.8238096E+00  0.3320208E+05 -0.1567136E+01  0.1592248E+06 -0.4065042E-01  0.4897142E+03 -0.1567132E+01
  0.8547620E+00  0.3556932E+05 -0.1566302E+01  0.1564410E+06 -0.4633133E-01  0.5323604E+03 -0.1566298E+01
  0.8857143E+00  0.3796404E+05 -0.1565325E+01  0.1536232E+06 -0.5250539E-01  0.5753727E+03 -0.1565320E+01
  0.9166667E+00  0.4042098E+05 -0.1564191E+01  0.1507691E+06 -0.5918658E-01  0.6230742E+03 -0.1564186E+01
  0.9476191E+00  0.4295900E+05 -0.1562883E+01  0.1478936E+06 -0.6638841E-01  0.6738204E+03 -0.1562883E+01
  0.9785714E+00  0.4556084E+05 -0.1561386E+01  0.1450043E+06 -0.7412258E-01  0.7267780E+03 -0.1561388E+01
  0.1009524E+01  0.4820969E+05 -0.1559681E+01  0.1421094E+06 -0.8240013E-01  0.7833251E+03 -0.1559686E+01
  0.1040476E+01  0.5089794E+05 -0.1557751E+01  0.1392083E+06 -0.9122673E-01  0.8437610E+03 -0.1557755E+01
  0.1071429E+01  0.5361661E+05 -0.1555578E+01  0.1363030E+06 -0.1006047E+00  0.9063012E+03 -0.1555580E+01
  0.1102381E+01  0.5633979E+05 -0.1553146E+01  0.1333998E+06 -0.1105453E+00  0.9670138E+03 -0.1553138E+01
  0.1133333E+01  0.5906704E+05 -0.1550441E+01  0.1305055E+06 -0.1210562E+00  0.1029298E+04 -0.1550432E+01
  0.1164286E+01  0.6183005E+05 -0.1547459E+01  0.1276244E+06 -0.1321509E+00  0.1096912E+04 -0.1547457E+01
  0.1195238E+01  0.6462272E+05 -0.1544192E+01  0.1247616E+06 -0.1438287E+00  0.1169437E+04 -0.1544219E+01
  0.1226190E+01  0.6744223E+05 -0.1540632E+01  0.1219170E+06 -0.1560884E+00  0.1246310E+04 -0.1540669E+01
  0.1257143E+01  0.7023438E+05 -0.1536760E+01  0.1190991E+06 -0.1690758E+00  0.1322656E+04 -0.1536799E+01
  0.1288095E+01  0.7305958E+05 -0.1532599E+01  0.1163119E+06 -0.1823628E+00  0.1403284E+04 -0.1532647E+01
  0.1319048E+01  0.7582958E+05 -0.1528118E+01  0.1135548E+06 -0.1963788E+00  0.1484845E+04 -0.1528162E+01
  0.1350000E+01  0.7854126E+05 -0.1523327E+01  0.1108356E+06 -0.2109824E+00  0.1567682E+04 -0.1523347E+01
  0.1380952E+01  0.8118695E+05 -0.1518235E+01  0.1081406E+06 -0.2261492E+00  0.1650856E+04 -0.1518205E+01
  0.1411905E+01  0.8358955E+05 -0.1513121E+01  0.1055099E+06 -0.2416941E+00  0.1723342E+04 -0.1513040E+01
  0.1442857E+01  0.8609235E+05 -0.1507546E+01  0.1028826E+06 -0.2580435E+00  0.1809190E+04 -0.1507469E+01
  0.1473810E+01  0.8852827E+05 -0.1501785E+01  0.1002972E+06 -0.2749930E+00  0.1896484E+04 -0.1501734E+01
  0.1504762E+01  0.9087088E+05 -0.1495865E+01  0.9775480E+05 -0.2925411E+00  0.1983341E+04 -0.1495896E+01
  0.1535714E+01  0.9311402E+05 -0.1489825E+01  0.9525696E+05 -0.3106843E+00  0.2071911E+04 -0.1489859E+01
  0.1566667E+01  0.9522074E+05 -0.1483701E+01  0.9281018E+05 -0.3294300E+00  0.2162007E+04 -0.1483679E+01
  0.1597619E+01  0.9719395E+05 -0.1477550E+01  0.9040311E+05 -0.3487598E+00  0.2252313E+04 -0.1477498E+01
  0.1628572E+01  0.9902224E+05 -0.1471433E+01  0.8803638E+05 -0.3686741E+00  0.2343150E+04 -0.1471333E+01
  0.1659524E+01  0.1006954E+06 -0.1465450E+01  0.8571078E+05 -0.3891718E+00  0.2432157E+04 -0.1465379E+01
  0.1690476E+01  0.1022067E+06 -0.1459685E+01  0.8343341E+05 -0.4102588E+00  0.2517818E+04 -0.1459622E+01
  0.1721429E+01  0.1035347E+06 -0.1454207E+01  0.8120325E+05 -0.4319406E+00  0.2598639E+04 -0.1454228E+01
  0.1752381E+01  0.1046852E+06 -0.1449095E+01  0.7901994E+05 -0.4542106E+00  0.2677754E+04 -0.1449142E+01
  0.1783333E+01  0.1056489E+06 -0.1444422E+01  0.7688839E+05 -0.4770800E+00  0.2755368E+04 -0.1444403E+01
  0.1814286E+01  0.1064179E+06 -0.1440261E+01  0.7480336E+05 -0.5005370E+00  0.2831425E+04 -0.1440138E+01
  0.1845238E+01  0.1070033E+06 -0.1436726E+01  0.7275927E+05 -0.5245867E+00  0.2905695E+04 -0.1436633E+01
  0.1876190E+01  0.1074080E+06 -0.1433915E+01  0.7075799E+05 -0.5492132E+00  0.2977123E+04 -0.1433778E+01
  0.1907143E+01  0.1076300E+06 -0.1431895E+01  0.6879788E+05 -0.5744236E+00  0.3044029E+04 -0.1431764E+01
  0.1938095E+01  0.1076743E+06 -0.1430734E+01  0.6688516E+05 -0.6002132E+00  0.3105074E+04 -0.1430694E+01
  0.1969048E+01  0.1075391E+06 -0.1430492E+01  0.6501780E+05 -0.6265891E+00  0.3161552E+04 -0.1430446E+01
  0.2000000E+01  0.1072347E+06 -0.1431236E+01  0.6319486E+05 -0.6535747E+00  0.3212735E+04 -0.1431182E+01
