VARIABLES="w (rad/s)"
"A   1   1" "B   1   1"
"A   1   2" "B   1   2"
"A   1   3" "B   1   3"
Zone t="Motion of body    1 in DoF   1",I=    64,F=POINT
  0.5000000E-01  0.1819785E+05  0.4765114E-03 -0.1406670E-02 -0.1371197E-06  0.1571080E+03  0.5405047E-05
  0.8095238E-01  0.1824225E+05  0.2036669E-02 -0.3887625E-02 -0.1323095E-04  0.1566497E+03  0.2437572E-04
  0.1119048E+00  0.1822808E+05  0.5737150E-02 -0.1261285E-02 -0.6547406E-05  0.1572457E+03  0.6719867E-04
  0.1428571E+00  0.1831327E+05  0.1293262E-01  0.4132271E-02  0.2209689E-04  0.1588909E+03  0.1520093E-03
  0.1738095E+00  0.1829562E+05  0.2577528E-01 -0.1360749E-02 -0.1694568E-04  0.1570812E+03  0.3041908E-03
  0.2047619E+00  0.1837329E+05  0.4769595E-01 -0.2980787E-02 -0.1106443E-04  0.1593616E+03  0.5619980E-03
  0.2357143E+00  0.1835759E+05  0.8405606E-01 -0.3398548E-02 -0.4278886E-04  0.1599637E+03  0.9952271E-03
  0.2666667E+00  0.1839526E+05  0.1437391E+00  0.4044771E-02  0.4812379E-04  0.1591519E+03  0.1710951E-02
  0.2976190E+00  0.1845724E+05  0.2417577E+00 -0.1531677E-02 -0.1291512E-04  0.1615999E+03  0.2903903E-02
  0.3285715E+00  0.1848385E+05  0.4009960E+00  0.5340576E-03  0.3122177E-04  0.1636333E+03  0.4855930E-02
  0.3595238E+00  0.1849323E+05  0.6599604E+00 -0.8170020E-03 -0.1048530E-04  0.1620671E+03  0.8020362E-02
  0.3904762E+00  0.1856678E+05  0.1079920E+01 -0.2925919E-02 -0.1368034E-03  0.1640884E+03  0.1323582E-01
  0.4214286E+00  0.1863863E+05  0.1744116E+01  0.4747681E-02  0.6855279E-04  0.1673049E+03  0.2161464E-01
  0.4523810E+00  0.1865223E+05  0.2789017E+01 -0.4089757E-03 -0.8345861E-04  0.1681876E+03  0.3489547E-01
  0.4833333E+00  0.1872748E+05  0.4356360E+01  0.2565055E-03  0.2012029E-04  0.1701556E+03  0.5507410E-01
  0.5142857E+00  0.1883728E+05  0.6697286E+01  0.1780192E-02  0.2659243E-03  0.1771283E+03  0.8618543E-01
  0.5452381E+00  0.1891686E+05  0.1004867E+02 -0.9200250E-03  0.3975816E-04  0.1783574E+03  0.1305830E+00
  0.5761905E+00  0.1892806E+05  0.1470687E+02 -0.5488435E-02 -0.6499849E-03  0.1763010E+03  0.1924402E+00
  0.6071429E+00  0.1902779E+05  0.2116296E+02 -0.1294304E-02 -0.1971722E-03  0.1811578E+03  0.2812061E+00
  0.6380953E+00  0.1916115E+05  0.2980422E+02 -0.1049184E-02  0.8025765E-04  0.1851131E+03  0.4015705E+00
  0.6690477E+00  0.1927908E+05  0.4125381E+02 -0.4561346E-03  0.1881272E-04  0.1905004E+03  0.5650609E+00
  0.7000000E+00  0.1935870E+05  0.5621571E+02  0.5667550E-03  0.2869964E-03  0.1914526E+03  0.7788458E+00
  0.7309524E+00  0.1943310E+05  0.7541853E+02  0.1565641E-03 -0.1232773E-03  0.1916819E+03  0.1056080E+01
  0.7619048E+00  0.1955996E+05  0.9994913E+02 -0.6258487E-03 -0.5763769E-04  0.1959626E+03  0.1421171E+01
  0.7928572E+00  0.1972164E+05  0.1309515E+03 -0.1068115E-02 -0.6543398E-03  0.2028143E+03  0.1896974E+01
  0.8238096E+00  0.1989609E+05  0.1696989E+03 -0.3343262E-02 -0.8627176E-03  0.2093147E+03  0.2502294E+01
  0.8547620E+00  0.2004944E+05  0.2175461E+03 -0.3146328E-02 -0.1274407E-02  0.2131218E+03  0.3255619E+01
  0.8857143E+00  0.2016318E+05  0.2760268E+03 -0.3312019E-02 -0.9371042E-03  0.2143122E+03  0.4184213E+01
  0.9166667E+00  0.2029571E+05  0.3471206E+03 -0.1377453E-02 -0.1132548E-02  0.2189155E+03  0.5351416E+01
  0.9476191E+00  0.2047450E+05  0.4330350E+03  0.2012780E-03 -0.1522303E-03  0.2247279E+03  0.6789664E+01
  0.9785714E+00  0.2067746E+05  0.5360385E+03 -0.5652435E-02 -0.2860069E-02  0.2306694E+03  0.8546129E+01
  0.1009524E+01  0.2088693E+05  0.6585834E+03  0.2841590E-02  0.1010537E-02  0.2379274E+03  0.1069430E+02
  0.1040476E+01  0.2109950E+05  0.8034012E+03 -0.4296903E-02 -0.1357675E-02  0.2465303E+03  0.1331088E+02
  0.1071429E+01  0.2131091E+05  0.9733897E+03 -0.4240417E-02 -0.2126455E-02  0.2547310E+03  0.1644887E+02
  0.1102381E+01  0.2150082E+05  0.1171313E+04 -0.1757891E-02 -0.1218319E-03  0.2590304E+03  0.2010921E+02
  0.1133333E+01  0.2167599E+05  0.1400372E+04 -0.2107059E-02 -0.2054214E-02  0.2628519E+03  0.2440983E+02
  0.1164286E+01  0.2186977E+05  0.1664206E+04 -0.1195896E-02 -0.9555817E-03  0.2694442E+03  0.2952465E+02
  0.1195238E+01  0.2208285E+05  0.1966331E+04 -0.1729836E-02 -0.1593590E-02  0.2780638E+03  0.3555088E+02
  0.1226190E+01  0.2231582E+05  0.2310627E+04 -0.8835283E-03 -0.2161980E-02  0.2884048E+03  0.4265036E+02
  0.1257143E+01  0.2252620E+05  0.2700069E+04 -0.8799813E-03 -0.1074314E-02  0.2965321E+03  0.5078881E+02
  0.1288095E+01  0.2277143E+05  0.3138911E+04  0.7403756E-03 -0.1021862E-02  0.3067821E+03  0.6021476E+02
  0.1319048E+01  0.2298259E+05  0.3629954E+04 -0.1937646E-02 -0.2963066E-02  0.3159996E+03  0.7100186E+02
  0.1350000E+01  0.2316404E+05  0.4175980E+04  0.2034505E-03 -0.5817413E-03  0.3243972E+03  0.8330719E+02
  0.1380952E+01  0.2331941E+05  0.4779659E+04  0.2707120E-03  0.9384155E-03  0.3315333E+03  0.9722161E+02
  0.1411905E+01  0.2333638E+05  0.5411491E+04 -0.2226291E-02 -0.2616882E-02  0.3305856E+03  0.1116893E+03
  0.1442857E+01  0.2344911E+05  0.6130735E+04 -0.2358314E-02 -0.2269745E-02  0.3375414E+03  0.1289765E+03
  0.1473810E+01  0.2355004E+05  0.6910229E+04  0.1356282E-02 -0.3814697E-04  0.3448113E+03  0.1481432E+03
  0.1504762E+01  0.2362780E+05  0.7749552E+04 -0.2235944E-02 -0.3690720E-03  0.3511280E+03  0.1691155E+03
  0.1535714E+01  0.2368308E+05  0.8648338E+04 -0.7750045E-03 -0.8106232E-03  0.3577349E+03  0.1923967E+03
  0.1566667E+01  0.2369624E+05  0.9603806E+04  0.4528938E-03  0.1134872E-02  0.3642932E+03  0.2181092E+03
  0.1597619E+01  0.2367622E+05  0.1061374E+05 -0.3739199E-02 -0.2159119E-02  0.3702161E+03  0.2460722E+03
  0.1628572E+01  0.2361967E+05  0.1167431E+05  0.2623441E-03  0.1186371E-02  0.3762836E+03  0.2764926E+03
  0.1659524E+01  0.2352466E+05  0.1277721E+05 -0.1084972E-02 -0.1432419E-02  0.3810232E+03  0.3088181E+03
  0.1690476E+01  0.2339141E+05  0.1391511E+05 -0.9928958E-04 -0.1085281E-02  0.3840305E+03  0.3430033E+03
  0.1721429E+01  0.2321107E+05  0.1507967E+05 -0.1028227E-02 -0.4634857E-03  0.3849264E+03  0.3785721E+03
  0.1752381E+01  0.2299320E+05  0.1626474E+05 -0.8794536E-03 -0.6238937E-02  0.3849195E+03  0.4160522E+03
  0.1783333E+01  0.2273179E+05  0.1746233E+05 -0.2224646E-03 -0.4535675E-02  0.3840963E+03  0.4555863E+03
  0.1814286E+01  0.2242688E+05  0.1866330E+05  0.5634939E-03  0.2536774E-03  0.3826128E+03  0.4970178E+03
  0.1845238E+01  0.2208856E+05  0.1985774E+05 -0.3018287E-03  0.4844666E-03  0.3804113E+03  0.5396599E+03
  0.1876190E+01  0.2171968E+05  0.2103507E+05 -0.4513736E-03 -0.2246857E-02  0.3775291E+03  0.5836479E+03
  0.1907143E+01  0.2132023E+05  0.2218623E+05 -0.3280354E-03 -0.3280640E-02  0.3731499E+03  0.6280728E+03
  0.1938095E+01  0.2089362E+05  0.2330402E+05  0.4566390E-03 -0.5683899E-03  0.3668156E+03  0.6724122E+03
  0.1969048E+01  0.2043862E+05  0.2438040E+05 -0.1681603E-02 -0.1567841E-02  0.3593876E+03  0.7172505E+03
  0.2000000E+01  0.1996074E+05  0.2541021E+05 -0.1121521E-02 -0.1544952E-02  0.3504301E+03  0.7619835E+03
Zone t="Motion of body    1 in DoF   2",I=    64,F=POINT
  0.5000000E-01 -0.9441376E-03 -0.2689660E-05  0.3085871E+05  0.5534938E+02  0.4005432E-03  0.6631017E-06
  0.8095238E-01 -0.1236972E-03  0.2197921E-05  0.3064983E+05  0.9189220E+02  0.4241046E-03  0.1594424E-05
  0.1119048E+00  0.2560920E-02  0.9432435E-05  0.3055330E+05  0.1318418E+03  0.6562091E-03  0.1758337E-05
  0.1428571E+00  0.2930641E-02 -0.3248453E-05  0.3050611E+05  0.1767928E+03  0.3805160E-03  0.3099442E-05
  0.1738095E+00  0.8285209E-03  0.7629395E-05  0.3051946E+05  0.2288084E+03  0.9876407E-04  0.4112720E-05
  0.2047619E+00 -0.2570929E-02 -0.2783537E-04  0.3057735E+05  0.2903970E+03  0.3912282E-03  0.8225441E-05
  0.2357143E+00 -0.1310869E-02 -0.3847480E-04  0.3066447E+05  0.3651831E+03  0.5340576E-03  0.1668930E-05
  0.2666667E+00 -0.5900859E-03  0.2461672E-04  0.3079640E+05  0.4564586E+03  0.3719330E-03  0.1502037E-04
  0.2976190E+00  0.1486816E-02  0.9834766E-05  0.3093857E+05  0.5708987E+03  0.4678345E-03  0.1245737E-04
  0.3285715E+00 -0.1718272E-02 -0.2223253E-04  0.3111319E+05  0.7128659E+03  0.3134686E-03  0.9179115E-05
  0.3595238E+00  0.2111473E-02 -0.3647804E-04  0.3128061E+05  0.8906973E+03  0.5676572E-03  0.9894371E-05
  0.3904762E+00 -0.4303397E-02 -0.2634525E-04  0.3146008E+05  0.1111739E+04  0.7327009E-03  0.3576279E-05
  0.4214286E+00 -0.5340576E-03  0.5555153E-04  0.3157997E+05  0.1375112E+04  0.4978503E-04  0.3886223E-04
  0.4523810E+00  0.3592240E-02 -0.7867813E-04  0.3169195E+05  0.1694873E+04  0.4637869E-04  0.1263618E-04
  0.4833333E+00  0.2924163E-02  0.9536743E-04  0.3173363E+05  0.2048647E+04  0.5524734E-03  0.2217293E-04
  0.5142857E+00  0.2981822E-02 -0.2377033E-03  0.3171342E+05  0.2452526E+04  0.2076891E-03  0.3004074E-04
  0.5452381E+00  0.1049458E-04  0.4291534E-03  0.3165331E+05  0.2888422E+04  0.4337761E-03  0.3957748E-04
  0.5761905E+00  0.1671688E-02  0.7724762E-04  0.3153604E+05  0.3350435E+04  0.5826083E-03  0.8153915E-04
  0.6071429E+00  0.1658720E-02  0.8821487E-04  0.3137797E+05  0.3848617E+04  0.4146800E-03  0.5388260E-04
  0.6380953E+00  0.4065215E-03 -0.1530647E-03  0.3119613E+05  0.4359186E+04  0.4961953E-03  0.1096725E-03
  0.6690477E+00 -0.1599322E-02  0.2560616E-03  0.3096678E+05  0.4893101E+04  0.3421009E-03  0.7534027E-04
  0.7000000E+00 -0.1019069E-02 -0.5102158E-03  0.3070702E+05  0.5451600E+04  0.5994524E-03  0.4673004E-04
  0.7309524E+00  0.1346451E-02 -0.6055832E-04  0.3043279E+05  0.6021853E+04  0.3548786E-03  0.8106232E-04
  0.7619048E+00  0.1682281E-02 -0.1692772E-03  0.3012521E+05  0.6607274E+04  0.4606246E-03  0.9155273E-04
  0.7928572E+00  0.5388689E-03 -0.4510880E-03  0.2979056E+05  0.7205692E+04  0.3319817E-03  0.1525879E-03
  0.8238096E+00 -0.2361584E-03  0.3890991E-03  0.2943407E+05  0.7812768E+04  0.6158641E-03  0.1010895E-03
  0.8547620E+00 -0.4596763E-03 -0.5970001E-03  0.2905693E+05  0.8424746E+04  0.4105847E-03  0.2317429E-03
  0.8857143E+00 -0.5598991E-04  0.1611710E-03  0.2865692E+05  0.9039151E+04  0.6460375E-03  0.2222061E-03
  0.9166667E+00 -0.1294223E-02  0.1640320E-03  0.2824822E+05  0.9652006E+04  0.6325461E-03  0.9536743E-06
  0.9476191E+00  0.8735465E-03 -0.1457214E-02  0.2782350E+05  0.1026082E+05  0.4347605E-03 -0.1144409E-04
  0.9785714E+00 -0.6081240E-03 -0.1907349E-04  0.2738293E+05  0.1086283E+05  0.3391461E-03  0.1926422E-03
  0.1009524E+01  0.2044282E-02 -0.7467270E-03  0.2692633E+05  0.1145555E+05  0.5063471E-03  0.2861023E-04
  0.1040476E+01 -0.1668166E-02  0.1142502E-02  0.2646265E+05  0.1203540E+05  0.4802852E-03  0.7629395E-04
  0.1071429E+01  0.3069051E-02  0.2193451E-03  0.2599632E+05  0.1259876E+05  0.5767823E-03  0.1010895E-03
  0.1102381E+01  0.1650619E-02 -0.3213882E-03  0.2552642E+05  0.1314438E+05  0.2906750E-03  0.1487732E-03
  0.1133333E+01 -0.5722046E-04 -0.6618500E-03  0.2505206E+05  0.1367027E+05  0.2356137E-03  0.1735687E-03
  0.1164286E+01  0.1985515E-02 -0.2078056E-02  0.2457684E+05  0.1417510E+05  0.3276427E-03  0.4558563E-03
  0.1195238E+01  0.3782022E-02  0.5569458E-03  0.2410386E+05  0.1465692E+05  0.3351158E-03  0.3833771E-03
  0.1226190E+01  0.1387513E-02 -0.3623962E-03  0.2363710E+05  0.1511336E+05  0.3764328E-03  0.1659393E-03
  0.1257143E+01 -0.2567118E-02 -0.8258820E-03  0.2317618E+05  0.1555632E+05  0.2700632E-03  0.1564026E-03
  0.1288095E+01  0.2253703E-02  0.1613617E-02  0.2271426E+05  0.1594731E+05  0.2546892E-03  0.3051758E-04
  0.1319048E+01  0.1584821E-02 -0.4081726E-03  0.2226025E+05  0.1632262E+05  0.1417084E-03  0.3223419E-03
  0.1350000E+01  0.2661811E-02  0.1396179E-02  0.2181050E+05  0.1667038E+05  0.3927725E-03  0.2784729E-03
  0.1380952E+01  0.1955756E-02 -0.1253128E-02  0.2137560E+05  0.1698575E+05  0.2265141E-03  0.3204346E-03
  0.1411905E+01 -0.1526522E-02  0.5441666E-02  0.2094961E+05  0.1728202E+05  0.2404610E-03  0.3623962E-03
  0.1442857E+01  0.7032640E-03 -0.9536743E-03  0.2053888E+05  0.1753904E+05  0.3093304E-03  0.3185272E-03
  0.1473810E+01  0.7402608E-03  0.7057190E-03  0.2013862E+05  0.1776739E+05  0.1190629E-03  0.2536774E-03
  0.1504762E+01 -0.8822091E-03  0.3969193E-02  0.1975050E+05  0.1796688E+05  0.2889995E-03  0.3643036E-03
  0.1535714E+01  0.1699048E-02  0.8430481E-03  0.1937347E+05  0.1813830E+05  0.1490393E-03  0.4577637E-03
  0.1566667E+01  0.2761191E-02  0.1670837E-02  0.1900673E+05  0.1828335E+05  0.4431542E-03  0.3356934E-03
  0.1597619E+01  0.3498038E-02  0.2708435E-03  0.1865618E+05  0.1839944E+05 -0.1432643E-04  0.5989075E-03
  0.1628572E+01  0.3134075E-02  0.2683640E-02  0.1832043E+05  0.1848719E+05  0.0000000E+00  0.6179810E-03
  0.1659524E+01  0.5263954E-03  0.2746582E-03  0.1800015E+05  0.1854579E+05  0.2528537E-03  0.6122589E-03
  0.1690476E+01  0.1060593E-03 -0.7953644E-03  0.1769178E+05  0.1857995E+05  0.1624739E-03  0.1449585E-03
  0.1721429E+01  0.6426420E-03 -0.9784698E-03  0.1739841E+05  0.1858840E+05  0.2526248E-03  0.3948212E-03
  0.1752381E+01  0.1939587E-02  0.3108978E-03  0.1711811E+05  0.1857304E+05  0.3047612E-03  0.3223419E-03
  0.1783333E+01  0.1088793E-02 -0.1468658E-03  0.1684894E+05  0.1853643E+05  0.1582921E-03  0.2136230E-03
  0.1814286E+01  0.7506243E-03 -0.1234055E-02  0.1659332E+05  0.1847665E+05  0.2943625E-04  0.4997253E-03
  0.1845238E+01  0.3741849E-03 -0.6542206E-03  0.1635399E+05  0.1839562E+05  0.5375031E-04  0.3261566E-03
  0.1876190E+01 -0.4879714E-04  0.2080917E-02  0.1612920E+05  0.1829369E+05  0.1667236E-03  0.6504059E-03
  0.1907143E+01  0.1164126E-02  0.8773804E-04  0.1591883E+05  0.1817011E+05  0.3600389E-04  0.5092621E-03
  0.1938095E+01  0.6239420E-03  0.2157211E-02  0.1571990E+05  0.1803070E+05  0.9447702E-04  0.3490448E-03
  0.1969048E+01 -0.4300875E-03 -0.3166199E-03  0.1553287E+05  0.1787282E+05  0.2053571E-03  0.5283356E-03
  0.2000000E+01  0.9002686E-03  0.1541138E-02  0.1535872E+05  0.1769876E+05  0.1831055E-03  0.3414154E-03
Zone t="Motion of body    1 in DoF   3",I=    64,F=POINT
  0.5000000E-01  0.1531473E+03  0.5173952E-05 -0.8350611E-03 -0.1096809E-05  0.2707332E+03  0.1269416E-06
  0.8095238E-01  0.1528016E+03  0.2428947E-04  0.6148043E-03  0.3018314E-05  0.2730664E+03  0.2442831E-06
  0.1119048E+00  0.1535216E+03  0.6730486E-04  0.1606967E-02  0.8643668E-05  0.2700732E+03  0.4849683E-06
  0.1428571E+00  0.1554144E+03  0.1517498E-03  0.1122355E-03  0.2211114E-05  0.2733182E+03  0.1639006E-05
  0.1738095E+00  0.1533432E+03  0.3044931E-03 -0.9752953E-03 -0.5788233E-05  0.2723333E+03  0.4407475E-05
  0.2047619E+00  0.1554843E+03  0.5641579E-03  0.9198521E-04  0.4426561E-05  0.2721197E+03  0.6441217E-05
  0.2357143E+00  0.1566054E+03  0.9981504E-03  0.3944743E-04  0.4638879E-05  0.2737277E+03  0.1151309E-04
  0.2666667E+00  0.1551969E+03  0.1721019E-02 -0.7568299E-03 -0.7793272E-05  0.2724224E+03  0.2259221E-04
  0.2976190E+00  0.1576621E+03  0.2915768E-02 -0.5391312E-03 -0.4241271E-05  0.2722034E+03  0.3760690E-04
  0.3285715E+00  0.1601290E+03  0.4872108E-02 -0.4658491E-03 -0.5497776E-05  0.2728802E+03  0.5984479E-04
  0.3595238E+00  0.1581423E+03  0.8080374E-02 -0.9662110E-03 -0.2564258E-04  0.2723935E+03  0.9932760E-04
  0.3904762E+00  0.1598570E+03  0.1333313E-01  0.3254413E-03  0.2312091E-04  0.2714396E+03  0.1620245E-03
  0.4214286E+00  0.1634438E+03  0.2172704E-01 -0.1321566E-02 -0.4284669E-04  0.2726203E+03  0.2619976E-03
  0.4523810E+00  0.1643562E+03  0.3509467E-01 -0.1312306E-02 -0.6026879E-04  0.2720260E+03  0.4316625E-03
  0.4833333E+00  0.1663949E+03  0.5542143E-01 -0.1040820E-03  0.5851063E-05  0.2729677E+03  0.7008027E-03
  0.5142857E+00  0.1738547E+03  0.8611170E-01  0.1726879E-02  0.1714582E-03  0.2731515E+03  0.1111539E-02
  0.5452381E+00  0.1749032E+03  0.1307466E+00 -0.1875907E-03 -0.5253067E-05  0.2730655E+03  0.1692939E-02
  0.5761905E+00  0.1726099E+03  0.1937975E+00 -0.4075775E-03 -0.3636486E-04  0.2734411E+03  0.2528670E-02
  0.6071429E+00  0.1774846E+03  0.2822203E+00 -0.1441170E-03  0.2366665E-04  0.2725374E+03  0.3750614E-02
  0.6380953E+00  0.1815485E+03  0.4027897E+00  0.4932062E-04  0.4352583E-04  0.2736908E+03  0.5421598E-02
  0.6690477E+00  0.1872828E+03  0.5650667E+00 -0.1995589E-03  0.1418556E-04  0.2744080E+03  0.7724450E-02
  0.7000000E+00  0.1877949E+03  0.7811756E+00  0.1242501E-02  0.3166241E-03  0.2729323E+03  0.1081934E-01
  0.7309524E+00  0.1880004E+03  0.1064328E+01 -0.5049193E-03 -0.8753850E-04  0.2735138E+03  0.1492117E-01
  0.7619048E+00  0.1924184E+03  0.1431277E+01  0.1393139E-02  0.4839811E-03  0.2742285E+03  0.2038028E-01
  0.7928572E+00  0.1992579E+03  0.1903021E+01 -0.4354253E-03  0.3208406E-06  0.2738405E+03  0.2759426E-01
  0.8238096E+00  0.2058950E+03  0.2504839E+01 -0.7814065E-03 -0.1429953E-03  0.2739352E+03  0.3694152E-01
  0.8547620E+00  0.2098533E+03  0.3265354E+01  0.3291371E-04  0.1268173E-03  0.2750311E+03  0.4887480E-01
  0.8857143E+00  0.2108272E+03  0.4216110E+01  0.3876225E-03  0.2883067E-03  0.2749840E+03  0.6397643E-01
  0.9166667E+00  0.2153892E+03  0.5391468E+01 -0.1474207E-02 -0.5227821E-03  0.2743179E+03  0.8316396E-01
  0.9476191E+00  0.2211738E+03  0.6838155E+01 -0.1177476E-03  0.1022927E-03  0.2740770E+03  0.1069916E+00
  0.9785714E+00  0.2272694E+03  0.8613769E+01  0.1239637E-02  0.7061344E-03  0.2750978E+03  0.1371550E+00
  0.1009524E+01  0.2345424E+03  0.1076616E+02  0.3150499E-03  0.3489163E-03  0.2759031E+03  0.1751124E+00
  0.1040476E+01  0.2432973E+03  0.1336365E+02 -0.1549012E-03  0.9063631E-05  0.2763888E+03  0.2215917E+00
  0.1071429E+01  0.2513412E+03  0.1648401E+02 -0.1815351E-02 -0.9993277E-03  0.2757048E+03  0.2784646E+00
  0.1102381E+01  0.2556033E+03  0.2023582E+02 -0.4394729E-03 -0.4994124E-04  0.2755447E+03  0.3478246E+00
  0.1133333E+01  0.2598170E+03  0.2468360E+02  0.3643597E-03  0.4618913E-03  0.2766494E+03  0.4308330E+00
  0.1164286E+01  0.2664130E+03  0.2987850E+02 -0.5832040E-03 -0.1814812E-03  0.2770978E+03  0.5290786E+00
  0.1195238E+01  0.2751008E+03  0.3592203E+02  0.2357779E-03  0.4038587E-03  0.2774156E+03  0.6491222E+00
  0.1226190E+01  0.2852056E+03  0.4297453E+02  0.1816055E-03  0.8028969E-03  0.2769383E+03  0.7906649E+00
  0.1257143E+01  0.2931097E+03  0.5119559E+02 -0.1245629E-02 -0.1036383E-02  0.2768596E+03  0.9593369E+00
  0.1288095E+01  0.3037802E+03  0.6067297E+02  0.1014315E-02  0.1674637E-02  0.2778947E+03  0.1164253E+01
  0.1319048E+01  0.3132667E+03  0.7154432E+02 -0.1401178E-02 -0.1352251E-02  0.2793265E+03  0.1402606E+01
  0.1350000E+01  0.3215970E+03  0.8396719E+02 -0.3955982E-03 -0.2320707E-03  0.2796823E+03  0.1680721E+01
  0.1380952E+01  0.3285750E+03  0.9811408E+02 -0.5138002E-03 -0.1483411E-03  0.2797809E+03  0.2005675E+01
  0.1411905E+01  0.3088087E+03  0.1081484E+03 -0.5667044E-03 -0.5377084E-03  0.2773388E+03  0.2230730E+01
  0.1442857E+01  0.3154659E+03  0.1250854E+03  0.5181945E-03  0.1131684E-02  0.2770837E+03  0.2635200E+01
  0.1473810E+01  0.3230510E+03  0.1439829E+03 -0.6082562E-04  0.1002192E-02  0.2775583E+03  0.3066926E+01
  0.1504762E+01  0.3299516E+03  0.1648826E+03 -0.8999547E-04  0.6827712E-04  0.2787019E+03  0.3596724E+01
  0.1535714E+01  0.3365658E+03  0.1878805E+03 -0.4334560E-03 -0.4212558E-03  0.2796377E+03  0.4187754E+01
  0.1566667E+01  0.3427383E+03  0.2130003E+03  0.7304739E-05  0.1952946E-03  0.2801068E+03  0.4845404E+01
  0.1597619E+01  0.3485939E+03  0.2403825E+03 -0.1981823E-03  0.2130270E-03  0.2805364E+03  0.5606059E+01
  0.1628572E+01  0.3547467E+03  0.2700549E+03  0.8608165E-04  0.5165339E-03  0.2803052E+03  0.6371138E+01
  0.1659524E+01  0.3593634E+03  0.3015544E+03 -0.3470991E-03  0.4379153E-03  0.2802243E+03  0.7242896E+01
  0.1690476E+01  0.3626545E+03  0.3354296E+03 -0.1636021E-04 -0.2998114E-04  0.2804875E+03  0.8176665E+01
  0.1721429E+01  0.3643546E+03  0.3714728E+03 -0.2465307E-03 -0.7241964E-03  0.2812516E+03  0.9246653E+01
  0.1752381E+01  0.3644253E+03  0.4090135E+03  0.4887063E-03  0.1046956E-02  0.2824113E+03  0.1053306E+02
  0.1783333E+01  0.3635349E+03  0.4484705E+03 -0.2064215E-03 -0.1697540E-03  0.2828346E+03  0.1180953E+02
  0.1814286E+01  0.3617514E+03  0.4891900E+03 -0.2754392E-03 -0.6824732E-04  0.2833020E+03  0.1317143E+02
  0.1845238E+01  0.3594128E+03  0.5308579E+03 -0.2325735E-04 -0.2814531E-03  0.2832975E+03  0.1456476E+02
  0.1876190E+01  0.3563093E+03  0.5737487E+03 -0.3420883E-03 -0.1098394E-02  0.2824348E+03  0.1586062E+02
  0.1907143E+01  0.3516591E+03  0.6170932E+03 -0.2395258E-03  0.8656979E-03  0.2819030E+03  0.1715590E+02
  0.1938095E+01  0.3455717E+03  0.6615017E+03 -0.1860016E-03  0.2022982E-03  0.2819160E+03  0.1873314E+02
  0.1969048E+01  0.3387124E+03  0.7068468E+03 -0.5899174E-03 -0.7040501E-03  0.2822801E+03  0.2052652E+02
  0.2000000E+01  0.3303289E+03  0.7526528E+03 -0.2593994E-03 -0.2340078E-03  0.2832153E+03  0.2244641E+02
