VARIABLES="w (rad/s)"
"abs(F   1   1)" "angle(F   1   1)"
"abs(F   1   2)" "angle(F   1   2)"
"abs(F   1   3)" "angle(F   1   3)"
Zone t="Diffraction force - beta =   0.000 deg",I=    64,F=POINT
  0.5000000E-01  0.1939817E+04 -0.1570787E+01  0.8063798E+05 -0.5610061E-05  0.7209475E+04  0.1570811E+01
  0.8095238E-01  0.3169398E+04 -0.1570800E+01  0.8035293E+05 -0.1506721E-04  0.1176219E+05  0.1570799E+01
  0.1119048E+00  0.4421842E+04 -0.1570802E+01  0.7993380E+05 -0.2984222E-04  0.1639066E+05  0.1570814E+01
  0.1428571E+00  0.5709572E+04 -0.1570792E+01  0.7938156E+05 -0.5101913E-04  0.2114232E+05  0.1570793E+01
  0.1738095E+00  0.7047774E+04 -0.1570784E+01  0.7869722E+05 -0.8012643E-04  0.2606112E+05  0.1570809E+01
  0.2047619E+00  0.8449057E+04 -0.1570788E+01  0.7788193E+05 -0.1195684E-03  0.3119539E+05  0.1570808E+01
  0.2357143E+00  0.9926836E+04 -0.1570779E+01  0.7693778E+05 -0.1726808E-03  0.3659888E+05  0.1570808E+01
  0.2666667E+00  0.1150608E+05 -0.1570778E+01  0.7586790E+05 -0.2432817E-03  0.4234059E+05  0.1570820E+01
  0.2976190E+00  0.1320204E+05 -0.1570759E+01  0.7467486E+05 -0.3386691E-03  0.4847996E+05  0.1570833E+01
  0.3285715E+00  0.1504966E+05 -0.1570745E+01  0.7336488E+05 -0.4649661E-03  0.5512869E+05  0.1570850E+01
  0.3595238E+00  0.1705656E+05 -0.1570721E+01  0.7194269E+05 -0.6336199E-03  0.6232293E+05  0.1570877E+01
  0.3904762E+00  0.1926190E+05 -0.1570681E+01  0.7041710E+05 -0.8556191E-03  0.7016806E+05  0.1570912E+01
  0.4214286E+00  0.2167150E+05 -0.1570627E+01  0.6879738E+05 -0.1137559E-02  0.7871391E+05  0.1570966E+01
  0.4523810E+00  0.2430537E+05 -0.1570541E+01  0.6709214E+05 -0.1503014E-02  0.8797828E+05  0.1571047E+01
  0.4833333E+00  0.2715323E+05 -0.1570433E+01  0.6531564E+05 -0.1934116E-02  0.9792782E+05  0.1571160E+01
  0.5142857E+00  0.3020164E+05 -0.1570277E+01  0.6347113E+05 -0.2461296E-02  0.1085095E+06  0.1571313E+01
  0.5452381E+00  0.3345461E+05 -0.1570078E+01  0.6157855E+05 -0.3070236E-02  0.1196894E+06  0.1571516E+01
  0.5761905E+00  0.3683527E+05 -0.1569816E+01  0.5963634E+05 -0.3760928E-02  0.1312347E+06  0.1571776E+01
  0.6071429E+00  0.4036280E+05 -0.1569481E+01  0.5765515E+05 -0.4560618E-02  0.1431161E+06  0.1572111E+01
  0.6380953E+00  0.4401648E+05 -0.1569067E+01  0.5564593E+05 -0.5436314E-02  0.1552920E+06  0.1572527E+01
  0.6690477E+00  0.4773762E+05 -0.1568556E+01  0.5360933E+05 -0.6417261E-02  0.1675850E+06  0.1573037E+01
  0.7000000E+00  0.5154471E+05 -0.1567933E+01  0.5155658E+05 -0.7516173E-02  0.1799783E+06  0.1573659E+01
  0.7309524E+00  0.5544180E+05 -0.1567188E+01  0.4949850E+05 -0.8714697E-02  0.1924692E+06  0.1574404E+01
  0.7619048E+00  0.5934441E+05 -0.1566301E+01  0.4743530E+05 -0.1003699E-01  0.2047944E+06  0.1575292E+01
  0.7928572E+00  0.6329968E+05 -0.1565255E+01  0.4537143E+05 -0.1149726E-01  0.2170846E+06  0.1576337E+01
  0.8238096E+00  0.6732840E+05 -0.1564033E+01  0.4332971E+05 -0.1307149E-01  0.2293287E+06  0.1577559E+01
  0.8547620E+00  0.7133170E+05 -0.1562619E+01  0.4130426E+05 -0.1479051E-01  0.2413570E+06  0.1578974E+01
  0.8857143E+00  0.7533010E+05 -0.1560992E+01  0.3929958E+05 -0.1667031E-01  0.2531362E+06  0.1580600E+01
  0.9166667E+00  0.7932909E+05 -0.1559137E+01  0.3731770E+05 -0.1873111E-01  0.2646065E+06  0.1582455E+01
  0.9476191E+00  0.8336745E+05 -0.1557034E+01  0.3538443E+05 -0.2089492E-01  0.2758458E+06  0.1584557E+01
  0.9785714E+00  0.8735603E+05 -0.1554664E+01  0.3348998E+05 -0.2324610E-01  0.2867519E+06  0.1586927E+01
  0.1009524E+01  0.9126001E+05 -0.1552011E+01  0.3163684E+05 -0.2580330E-01  0.2970914E+06  0.1589579E+01
  0.1040476E+01  0.9515449E+05 -0.1549053E+01  0.2982759E+05 -0.2859661E-01  0.3071533E+06  0.1592536E+01
  0.1071429E+01  0.9899230E+05 -0.1545776E+01  0.2807167E+05 -0.3158647E-01  0.3166845E+06  0.1595810E+01
  0.1102381E+01  0.1028256E+06 -0.1542163E+01  0.2637827E+05 -0.3468564E-01  0.3258850E+06  0.1599422E+01
  0.1133333E+01  0.1065326E+06 -0.1538200E+01  0.2474234E+05 -0.3804176E-01  0.3344657E+06  0.1603383E+01
  0.1164286E+01  0.1101086E+06 -0.1533879E+01  0.2316299E+05 -0.4168203E-01  0.3422876E+06  0.1607700E+01
  0.1195238E+01  0.1136485E+06 -0.1529173E+01  0.2164189E+05 -0.4564723E-01  0.3497296E+06  0.1612402E+01
  0.1226190E+01  0.1170444E+06 -0.1524084E+01  0.2017931E+05 -0.5000861E-01  0.3563569E+06  0.1617485E+01
  0.1257143E+01  0.1203512E+06 -0.1518607E+01  0.1879368E+05 -0.5425026E-01  0.3624362E+06  0.1622955E+01
  0.1288095E+01  0.1236379E+06 -0.1512665E+01  0.1746958E+05 -0.5880502E-01  0.3681397E+06  0.1628890E+01
  0.1319048E+01  0.1266785E+06 -0.1506334E+01  0.1620961E+05 -0.6373391E-01  0.3728944E+06  0.1635212E+01
  0.1350000E+01  0.1295690E+06 -0.1499571E+01  0.1501256E+05 -0.6902988E-01  0.3769491E+06  0.1641965E+01
  0.1380952E+01  0.1323652E+06 -0.1492356E+01  0.1387561E+05 -0.7479650E-01  0.3805360E+06  0.1649167E+01
  0.1411905E+01  0.1347809E+06 -0.1484729E+01  0.1280024E+05 -0.8111326E-01  0.3829918E+06  0.1656772E+01
  0.1442857E+01  0.1372567E+06 -0.1476718E+01  0.1179252E+05 -0.8709137E-01  0.3849789E+06  0.1664765E+01
  0.1473810E+01  0.1396045E+06 -0.1468284E+01  0.1084293E+05 -0.9352733E-01  0.3863956E+06  0.1673170E+01
  0.1504762E+01  0.1416938E+06 -0.1459436E+01  0.9956224E+04 -0.1001464E+00  0.3869708E+06  0.1682011E+01
  0.1535714E+01  0.1435107E+06 -0.1450272E+01  0.9123171E+04 -0.1073575E+00  0.3864739E+06  0.1691120E+01
  0.1566667E+01  0.1451818E+06 -0.1440660E+01  0.8346334E+04 -0.1148708E+00  0.3855149E+06  0.1700708E+01
  0.1597619E+01  0.1466789E+06 -0.1430672E+01  0.7619058E+04 -0.1231224E+00  0.3839561E+06  0.1710654E+01
  0.1628572E+01  0.1478968E+06 -0.1420423E+01  0.6942959E+04 -0.1319627E+00  0.3813948E+06  0.1720836E+01
  0.1659524E+01  0.1489809E+06 -0.1409810E+01  0.6316769E+04 -0.1403131E+00  0.3783855E+06  0.1731392E+01
  0.1690476E+01  0.1499178E+06 -0.1398889E+01  0.5733557E+04 -0.1495220E+00  0.3749139E+06  0.1742231E+01
  0.1721429E+01  0.1505113E+06 -0.1387711E+01  0.5201476E+04 -0.1581393E+00  0.3707049E+06  0.1753382E+01
  0.1752381E+01  0.1508421E+06 -0.1376439E+01  0.4709717E+04 -0.1673658E+00  0.3657010E+06  0.1764562E+01
  0.1783333E+01  0.1508959E+06 -0.1365178E+01  0.4256172E+04 -0.1771411E+00  0.3598897E+06  0.1775685E+01
  0.1814286E+01  0.1507752E+06 -0.1353740E+01  0.3840054E+04 -0.1871939E+00  0.3537852E+06  0.1787067E+01
  0.1845238E+01  0.1504565E+06 -0.1342261E+01  0.3456355E+04 -0.1985394E+00  0.3472502E+06  0.1798454E+01
  0.1876190E+01  0.1498393E+06 -0.1331042E+01  0.3105858E+04 -0.2101730E+00  0.3398536E+06  0.1809464E+01
  0.1907143E+01  0.1490817E+06 -0.1319782E+01  0.2785276E+04 -0.2215490E+00  0.3322745E+06  0.1820584E+01
  0.1938095E+01  0.1481646E+06 -0.1308631E+01  0.2490270E+04 -0.2346031E+00  0.3244475E+06  0.1831514E+01
  0.1969048E+01  0.1470293E+06 -0.1297595E+01  0.2224961E+04 -0.2467232E+00  0.3164183E+06  0.1842474E+01
  0.2000000E+01  0.1456148E+06 -0.1286910E+01  0.1986791E+04 -0.2563553E+00  0.3079367E+06  0.1853186E+01
