VARIABLES="w (rad/s)"
"abs(F   1   1)" "angle(F   1   1)"
"abs(F   1   2)" "angle(F   1   2)"
"abs(F   1   3)" "angle(F   1   3)"
Zone t="Diffraction force - beta =   0.000 deg",I=    64,F=POINT
  0.5000000E-01  0.9936952E+03 -0.1570795E+01  0.2031346E+03 -0.3092820E+01  0.2059932E+03  0.1570794E+01
  0.8095238E-01  0.1626042E+04 -0.1570793E+01  0.5267085E+03 -0.3091079E+01  0.3418264E+03  0.1570791E+01
  0.1119048E+00  0.2270073E+04 -0.1570789E+01  0.1000998E+04 -0.3088950E+01  0.4745422E+03  0.1570786E+01
  0.1428571E+00  0.2932599E+04 -0.1570783E+01  0.1626249E+04 -0.3086221E+01  0.6072731E+03  0.1570778E+01
  0.1738095E+00  0.3619636E+04 -0.1570776E+01  0.2407685E+04 -0.3082838E+01  0.7482194E+03  0.1570765E+01
  0.2047619E+00  0.4340162E+04 -0.1570764E+01  0.3346344E+04 -0.3078554E+01  0.8892024E+03  0.1570748E+01
  0.2357143E+00  0.5105562E+04 -0.1570746E+01  0.4447421E+04 -0.3073144E+01  0.1034126E+04  0.1570722E+01
  0.2666667E+00  0.5917298E+04 -0.1570721E+01  0.5720273E+04 -0.3066621E+01  0.1193801E+04  0.1570682E+01
  0.2976190E+00  0.6796393E+04 -0.1570684E+01  0.7160779E+04 -0.3058327E+01  0.1352128E+04  0.1570619E+01
  0.3285715E+00  0.7754898E+04 -0.1570629E+01  0.8781772E+04 -0.3048432E+01  0.1516316E+04  0.1570525E+01
  0.3595238E+00  0.8795075E+04 -0.1570546E+01  0.1058502E+05 -0.3036454E+01  0.1706752E+04  0.1570382E+01
  0.3904762E+00  0.9933577E+04 -0.1570422E+01  0.1257005E+05 -0.3022228E+01  0.1903342E+04  0.1570159E+01
  0.4214286E+00  0.1119712E+05 -0.1570241E+01  0.1470417E+05 -0.3006161E+01  0.2090897E+04  0.1569811E+01
  0.4523810E+00  0.1257338E+05 -0.1569976E+01  0.1702381E+05 -0.2987745E+01  0.2301850E+04  0.1569287E+01
  0.4833333E+00  0.1405237E+05 -0.1569609E+01  0.1948007E+05 -0.2969097E+01  0.2544418E+04  0.1568553E+01
  0.5142857E+00  0.1564648E+05 -0.1569101E+01  0.2205103E+05 -0.2948714E+01  0.2756946E+04  0.1567441E+01
  0.5452381E+00  0.1735024E+05 -0.1568426E+01  0.2473976E+05 -0.2928365E+01  0.2958405E+04  0.1565851E+01
  0.5761905E+00  0.1912185E+05 -0.1567549E+01  0.2753809E+05 -0.2908447E+01  0.3202045E+04  0.1563771E+01
  0.6071429E+00  0.2095165E+05 -0.1566418E+01  0.3043653E+05 -0.2888094E+01  0.3453855E+04  0.1561001E+01
  0.6380953E+00  0.2285101E+05 -0.1565015E+01  0.3342734E+05 -0.2868853E+01  0.3650672E+04  0.1557168E+01
  0.6690477E+00  0.2480531E+05 -0.1563284E+01  0.3647125E+05 -0.2849606E+01  0.3826928E+04  0.1552061E+01
  0.7000000E+00  0.2679695E+05 -0.1561165E+01  0.3957745E+05 -0.2830351E+01  0.3998994E+04  0.1545437E+01
  0.7309524E+00  0.2879927E+05 -0.1558620E+01  0.4277570E+05 -0.2812154E+01  0.4187539E+04  0.1537202E+01
  0.7619048E+00  0.3079754E+05 -0.1555585E+01  0.4601558E+05 -0.2794286E+01  0.4385343E+04  0.1527052E+01
  0.7928572E+00  0.3281021E+05 -0.1552014E+01  0.4927113E+05 -0.2776574E+01  0.4527641E+04  0.1513828E+01
  0.8238096E+00  0.3482568E+05 -0.1547860E+01  0.5253310E+05 -0.2759138E+01  0.4618196E+04  0.1496706E+01
  0.8547620E+00  0.3682307E+05 -0.1543073E+01  0.5580660E+05 -0.2742249E+01  0.4703428E+04  0.1475627E+01
  0.8857143E+00  0.3877125E+05 -0.1537591E+01  0.5907954E+05 -0.2725966E+01  0.4818727E+04  0.1450913E+01
  0.9166667E+00  0.4066109E+05 -0.1531377E+01  0.6235971E+05 -0.2710519E+01  0.4959816E+04  0.1422373E+01
  0.9476191E+00  0.4246065E+05 -0.1524388E+01  0.6560891E+05 -0.2695564E+01  0.5122851E+04  0.1389894E+01
  0.9785714E+00  0.4416973E+05 -0.1516617E+01  0.6881503E+05 -0.2681142E+01  0.5279424E+04  0.1352259E+01
  0.1009524E+01  0.4577793E+05 -0.1508061E+01  0.7195114E+05 -0.2667094E+01  0.5455176E+04  0.1310391E+01
  0.1040476E+01  0.4725973E+05 -0.1498717E+01  0.7501724E+05 -0.2653571E+01  0.5662657E+04  0.1265185E+01
  0.1071429E+01  0.4859273E+05 -0.1488597E+01  0.7801443E+05 -0.2640769E+01  0.5928720E+04  0.1218966E+01
  0.1102381E+01  0.4974338E+05 -0.1477711E+01  0.8093768E+05 -0.2628809E+01  0.6288203E+04  0.1175417E+01
  0.1133333E+01  0.5068123E+05 -0.1466094E+01  0.8378091E+05 -0.2617814E+01  0.6755459E+04  0.1137221E+01
  0.1164286E+01  0.5138241E+05 -0.1453800E+01  0.8654078E+05 -0.2607667E+01  0.7362125E+04  0.1108156E+01
  0.1195238E+01  0.5181904E+05 -0.1440920E+01  0.8919605E+05 -0.2598217E+01  0.8082156E+04  0.1087055E+01
  0.1226190E+01  0.5198729E+05 -0.1427627E+01  0.9174711E+05 -0.2589621E+01  0.8907324E+04  0.1073677E+01
  0.1257143E+01  0.5184832E+05 -0.1413879E+01  0.9417903E+05 -0.2581250E+01  0.9866800E+04  0.1069305E+01
  0.1288095E+01  0.5141722E+05 -0.1400322E+01  0.9645963E+05 -0.2574424E+01  0.1093202E+05  0.1072975E+01
  0.1319048E+01  0.5065527E+05 -0.1386739E+01  0.9862131E+05 -0.2568061E+01  0.1214371E+05  0.1084965E+01
  0.1350000E+01  0.4954964E+05 -0.1373489E+01  0.1006440E+06 -0.2562513E+01  0.1351030E+05  0.1104793E+01
  0.1380952E+01  0.4809879E+05 -0.1360908E+01  0.1025347E+06 -0.2558025E+01  0.1503116E+05  0.1131135E+01
  0.1411905E+01  0.4630698E+05 -0.1349326E+01  0.1040123E+06 -0.2555300E+01  0.1669339E+05  0.1162212E+01
  0.1442857E+01  0.4417204E+05 -0.1339120E+01  0.1056156E+06 -0.2552755E+01  0.1850833E+05  0.1197229E+01
  0.1473810E+01  0.4169658E+05 -0.1331046E+01  0.1071002E+06 -0.2551124E+01  0.2049827E+05  0.1236202E+01
  0.1504762E+01  0.3887624E+05 -0.1325884E+01  0.1084472E+06 -0.2550439E+01  0.2265062E+05  0.1277740E+01
  0.1535714E+01  0.3574221E+05 -0.1324813E+01  0.1096661E+06 -0.2550730E+01  0.2500195E+05  0.1321666E+01
  0.1566667E+01  0.3229208E+05 -0.1329447E+01  0.1107389E+06 -0.2551780E+01  0.2752261E+05  0.1366668E+01
  0.1597619E+01  0.2857558E+05 -0.1342663E+01  0.1117016E+06 -0.2553994E+01  0.3024463E+05  0.1412597E+01
  0.1628572E+01  0.2462026E+05 -0.1369170E+01  0.1125566E+06 -0.2557392E+01  0.3314319E+05  0.1458641E+01
  0.1659524E+01  0.2048568E+05 -0.1417478E+01  0.1133020E+06 -0.2561709E+01  0.3623983E+05  0.1504441E+01
  0.1690476E+01  0.1627443E+05 -0.1505690E+01  0.1139810E+06 -0.2566854E+01  0.3951853E+05  0.1549617E+01
  0.1721429E+01  0.1219547E+05 -0.1675009E+01  0.1145838E+06 -0.2572833E+01  0.4297739E+05  0.1593939E+01
  0.1752381E+01  0.8823309E+04 -0.2021212E+01  0.1151104E+06 -0.2579500E+01  0.4659292E+05  0.1637121E+01
  0.1783333E+01  0.7607126E+04 -0.2631187E+01  0.1155773E+06 -0.2586713E+01  0.5038548E+05  0.1679011E+01
  0.1814286E+01  0.9653047E+04  0.3085412E+01  0.1159574E+06 -0.2594074E+01  0.5432572E+05  0.1719470E+01
  0.1845238E+01  0.1369226E+05  0.2783887E+01  0.1162930E+06 -0.2601790E+01  0.5839890E+05  0.1758554E+01
  0.1876190E+01  0.1852922E+05  0.2632287E+01  0.1165697E+06 -0.2609410E+01  0.6258536E+05  0.1796107E+01
  0.1907143E+01  0.2369785E+05  0.2549244E+01  0.1167535E+06 -0.2616508E+01  0.6689770E+05  0.1832095E+01
  0.1938095E+01  0.2902937E+05  0.2499830E+01  0.1168198E+06 -0.2623074E+01  0.7129080E+05  0.1866487E+01
  0.1969048E+01  0.3442982E+05  0.2468956E+01  0.1167603E+06 -0.2628961E+01  0.7576362E+05  0.1899421E+01
  0.2000000E+01  0.3985389E+05  0.2448821E+01  0.1165301E+06 -0.2634101E+01  0.8028000E+05  0.1930862E+01
