VARIABLES="w (rad/s)"
"A   1   1" "B   1   1"
"A   1   2" "B   1   2"
"A   1   3" "B   1   3"
Zone t="Motion of body    1 in DoF   1",I=    64,F=POINT
  0.5000000E-01  0.5539588E+05  0.4810796E-02 -0.4272461E-02 -0.4367212E-04  0.7888227E+05  0.8569008E-02
  0.8095238E-01  0.5560129E+05  0.2117130E-01 -0.3110100E-01 -0.1521064E-03  0.7884316E+05  0.3757536E-01
  0.1119048E+00  0.5568812E+05  0.5944699E-01 -0.1118112E-01 -0.1030223E-03  0.7895205E+05  0.1055246E+00
  0.1428571E+00  0.5575586E+05  0.1336816E+00 -0.1121521E-01 -0.2328453E-03  0.7902290E+05  0.2375606E+00
  0.1738095E+00  0.5581276E+05  0.2659532E+00  0.4916256E-02  0.6171037E-04  0.7920965E+05  0.4732169E+00
  0.2047619E+00  0.5589303E+05  0.4901919E+00 -0.5812534E-02 -0.1862990E-03  0.7935934E+05  0.8729690E+00
  0.2357143E+00  0.5596761E+05  0.8622188E+00 -0.8480188E-02 -0.1479480E-03  0.7947647E+05  0.1537421E+01
  0.2666667E+00  0.5607972E+05  0.1469720E+01 -0.2815246E-01 -0.5574748E-03  0.7981744E+05  0.2625602E+01
  0.2976190E+00  0.5619698E+05  0.2461664E+01 -0.1445801E-01 -0.4808828E-03  0.8001712E+05  0.4404028E+01
  0.3285715E+00  0.5631911E+05  0.4067139E+01 -0.3018586E-01 -0.9827390E-03  0.8023382E+05  0.7289068E+01
  0.3595238E+00  0.5647320E+05  0.6667228E+01  0.5602299E-02 -0.8867681E-04  0.8066997E+05  0.1197734E+02
  0.3904762E+00  0.5662075E+05  0.1085069E+02 -0.1641250E-02 -0.1862049E-03  0.8097046E+05  0.1953492E+02
  0.4214286E+00  0.5681397E+05  0.1741424E+02 -0.2201403E-01 -0.1573801E-02  0.8130133E+05  0.3142183E+02
  0.4523810E+00  0.5702230E+05  0.2770751E+02 -0.8837247E-02 -0.6933212E-03  0.8178162E+05  0.5012624E+02
  0.4833333E+00  0.5727077E+05  0.4298758E+02  0.1767915E-02  0.3466606E-03  0.8241041E+05  0.7801257E+02
  0.5142857E+00  0.5754036E+05  0.6557898E+02 -0.5340577E-02 -0.2906322E-03  0.8299669E+05  0.1193577E+03
  0.5452381E+00  0.5784141E+05  0.9765427E+02 -0.1410472E-01 -0.8666515E-03  0.8360302E+05  0.1782679E+03
  0.5761905E+00  0.5808772E+05  0.1419303E+03 -0.1620710E-01 -0.3964663E-02  0.8407982E+05  0.2598789E+03
  0.6071429E+00  0.5839986E+05  0.2024148E+03 -0.6534352E-02 -0.6065369E-03  0.8480217E+05  0.3718898E+03
  0.6380953E+00  0.5878783E+05  0.2822492E+03 -0.8895646E-02  0.1688004E-03  0.8568426E+05  0.5204557E+03
  0.6690477E+00  0.5917459E+05  0.3866796E+03 -0.1258931E-01 -0.3577232E-02  0.8645227E+05  0.7155098E+03
  0.7000000E+00  0.5956225E+05  0.5215807E+03  0.2040318E-01  0.2732277E-02  0.8721025E+05  0.9685435E+03
  0.7309524E+00  0.5996470E+05  0.6921810E+03 -0.1336014E-01 -0.2426147E-02  0.8808254E+05  0.1290257E+04
  0.7619048E+00  0.6039409E+05  0.9058536E+03 -0.1129532E-01 -0.6885529E-02  0.8904004E+05  0.1695265E+04
  0.7928572E+00  0.6087695E+05  0.1170471E+04 -0.3086949E-01 -0.7034302E-02  0.9012028E+05  0.2199520E+04
  0.8238096E+00  0.6139123E+05  0.1494366E+04 -0.3178414E-01 -0.1031876E-01  0.9124498E+05  0.2820046E+04
  0.8547620E+00  0.6189163E+05  0.1886245E+04  0.9139972E-02  0.6759644E-02  0.9229203E+05  0.3574718E+04
  0.8857143E+00  0.6237089E+05  0.2355228E+04 -0.1364431E-01 -0.9746552E-02  0.9330551E+05  0.4482726E+04
  0.9166667E+00  0.6284586E+05  0.2910113E+04 -0.1930930E-01 -0.1621246E-01  0.9434855E+05  0.5563010E+04
  0.9476191E+00  0.6332266E+05  0.3559678E+04  0.9146072E-02 -0.1983643E-03  0.9547903E+05  0.6835623E+04
  0.9785714E+00  0.6381535E+05  0.4312612E+04  0.6985629E-02  0.1701355E-02  0.9667380E+05  0.8320021E+04
  0.1009524E+01  0.6427575E+05  0.5177182E+04  0.9431659E-02  0.3433228E-02  0.9774612E+05  0.1003434E+05
  0.1040476E+01  0.6470250E+05  0.6161041E+04 -0.9385726E-03 -0.2395630E-02  0.9876776E+05  0.1199909E+05
  0.1071429E+01  0.6508514E+05  0.7270287E+04 -0.1629232E-01 -0.1173401E-01  0.9967632E+05  0.1422965E+05
  0.1102381E+01  0.6540497E+05  0.8507892E+04 -0.2214666E-02 -0.7781982E-02  0.1004952E+06  0.1673644E+05
  0.1133333E+01  0.6564008E+05  0.9873650E+04 -0.2412684E-01 -0.2044678E-01  0.1011511E+06  0.1952189E+05
  0.1164286E+01  0.6579023E+05  0.1136557E+05 -0.5871357E-02  0.7629395E-03  0.1016287E+06  0.2258479E+05
  0.1195238E+01  0.6584807E+05  0.1297893E+05 -0.6944877E-02 -0.2777100E-02  0.1019747E+06  0.2592391E+05
  0.1226190E+01  0.6583781E+05  0.1470566E+05  0.4181204E-02  0.6225586E-02  0.1021782E+06  0.2952581E+05
  0.1257143E+01  0.6572190E+05  0.1655725E+05 -0.2233332E-02 -0.1287842E-01  0.1021681E+06  0.3341907E+05
  0.1288095E+01  0.6551932E+05  0.1845821E+05 -0.4264564E-02 -0.9826660E-02  0.1019886E+06  0.3745325E+05
  0.1319048E+01  0.6521897E+05  0.2045264E+05 -0.1212330E-01 -0.1953125E-01  0.1016077E+06  0.4172181E+05
  0.1350000E+01  0.6482171E+05  0.2250404E+05  0.6329571E-03 -0.6286621E-02  0.1010177E+06  0.4615064E+05
  0.1380952E+01  0.6433140E+05  0.2459088E+05 -0.1856311E-02  0.3356934E-02  0.1002539E+06  0.5070093E+05
  0.1411905E+01  0.6299288E+05  0.2627968E+05 -0.2377592E-01 -0.3723145E-02  0.9744806E+05  0.5449352E+05
  0.1442857E+01  0.6234671E+05  0.2839099E+05 -0.5583810E-02  0.2197266E-02  0.9634495E+05  0.5919395E+05
  0.1473810E+01  0.6162161E+05  0.3048542E+05  0.1739354E-02 -0.9338379E-02  0.9505616E+05  0.6390694E+05
  0.1504762E+01  0.6081193E+05  0.3254628E+05 -0.4623992E-02 -0.2563477E-02  0.9357883E+05  0.6860498E+05
  0.1535714E+01  0.5994032E+05  0.3455912E+05 -0.1724882E-01  0.3662109E-03  0.9192756E+05  0.7324696E+05
  0.1566667E+01  0.5899910E+05  0.3650976E+05 -0.9739652E-02  0.3906250E-02  0.9013150E+05  0.7781304E+05
  0.1597619E+01  0.5801593E+05  0.3838289E+05 -0.9550956E-02 -0.2441406E-03  0.8821327E+05  0.8225940E+05
  0.1628572E+01  0.5700331E+05  0.4016135E+05 -0.9744208E-02 -0.1843262E-01  0.8621302E+05  0.8654932E+05
  0.1659524E+01  0.5596168E+05  0.4184131E+05 -0.9856696E-02 -0.8178711E-02  0.8414200E+05  0.9066917E+05
  0.1690476E+01  0.5490908E+05  0.4341369E+05 -0.1588633E-02  0.1025391E-01  0.8201662E+05  0.9458709E+05
  0.1721429E+01  0.5384662E+05  0.4487289E+05 -0.1063683E-01 -0.1831055E-02  0.7985665E+05  0.9829997E+05
  0.1752381E+01  0.5278697E+05  0.4621852E+05 -0.8707462E-02 -0.8789062E-02  0.7767638E+05  0.1018034E+06
  0.1783333E+01  0.5173951E+05  0.4746377E+05 -0.6023657E-02 -0.6713867E-02  0.7546217E+05  0.1051051E+06
  0.1814286E+01  0.5068527E+05  0.4860295E+05 -0.1372570E-01 -0.6103516E-03  0.7326076E+05  0.1082279E+06
  0.1845238E+01  0.4965992E+05  0.4963289E+05 -0.1065083E-01 -0.6469727E-02  0.7106798E+05  0.1111216E+06
  0.1876190E+01  0.4865962E+05  0.5055262E+05 -0.6506286E-02 -0.2441406E-02  0.6890706E+05  0.1137953E+06
  0.1907143E+01  0.4768232E+05  0.5137057E+05 -0.8768947E-02 -0.2441406E-03  0.6677930E+05  0.1162580E+06
  0.1938095E+01  0.4673221E+05  0.5208585E+05 -0.7999055E-02 -0.1062012E-01  0.6470410E+05  0.1185039E+06
  0.1969048E+01  0.4581730E+05  0.5270816E+05 -0.7873314E-02  0.5981445E-02  0.6266988E+05  0.1205466E+06
  0.2000000E+01  0.4493381E+05  0.5323978E+05  0.1159668E-02  0.6713867E-02  0.6070231E+05  0.1224256E+06
Zone t="Motion of body    1 in DoF   2",I=    64,F=POINT
  0.5000000E-01 -0.1647949E-01 -0.0000000E+00  0.2043058E+06  0.6036354E+03 -0.5493164E-01 -0.4959106E-04
  0.8095238E-01 -0.1602173E-01  0.2861023E-04  0.2015869E+06  0.1000984E+04 -0.3694422E-01  0.1144409E-04
  0.1119048E+00 -0.7363177E-02  0.6580353E-04  0.2003271E+06  0.1433693E+04 -0.2618019E-01 -0.8392334E-04
  0.1428571E+00 -0.3631592E-02 -0.2613068E-03  0.1994287E+06  0.1917844E+04 -0.1623535E-01 -0.2975464E-03
  0.1738095E+00 -0.9305771E-02 -0.2079010E-03  0.1994191E+06  0.2474734E+04  0.3511612E-02 -0.3051758E-03
  0.2047619E+00 -0.6110613E-02  0.3738403E-03  0.1995479E+06  0.3129558E+04 -0.7750046E-02 -0.2288818E-03
  0.2357143E+00 -0.1022801E-01  0.3395081E-03  0.2002255E+06  0.3918594E+04 -0.2019709E-01 -0.1373291E-03
  0.2666667E+00  0.4577636E-02 -0.5111694E-03  0.2011539E+06  0.4873348E+04 -0.5035400E-01 -0.1373291E-03
  0.2976190E+00  0.8818359E-02 -0.3814697E-04  0.2020510E+06  0.6060416E+04 -0.2707031E-01  0.3051758E-03
  0.3285715E+00 -0.2061927E-01 -0.1678467E-03  0.2033492E+06  0.7517047E+04 -0.1040251E-01 -0.4577637E-03
  0.3595238E+00 -0.3904633E-02 -0.8392334E-04  0.2045692E+06  0.9322334E+04 -0.3055800E-01  0.8544922E-03
  0.3904762E+00 -0.1563095E-03  0.8850098E-03  0.2055679E+06  0.1154170E+05 -0.1375524E-01 -0.1495361E-02
  0.4214286E+00 -0.1303462E-01 -0.4882812E-03  0.2060151E+06  0.1414544E+05 -0.4286943E-01 -0.2136230E-02
  0.4523810E+00  0.1349198E-03  0.1586914E-02  0.2064601E+06  0.1726394E+05 -0.1241262E-01  0.6103516E-03
  0.4833333E+00 -0.5808863E-02  0.1983643E-03  0.2060610E+06  0.2064910E+05  0.6566541E-02 -0.2380371E-02
  0.5142857E+00  0.1875136E-01  0.6713867E-03  0.2048923E+06  0.2445513E+05 -0.2278646E-01  0.1220703E-02
  0.5452381E+00  0.6044880E-02 -0.6103516E-03  0.2034406E+06  0.2847177E+05 -0.1432860E-01 -0.6103516E-03
  0.5761905E+00  0.4660866E-02 -0.3356934E-03  0.2015496E+06  0.3263164E+05 -0.2288062E-01 -0.2075195E-02
  0.6071429E+00  0.5227481E-02 -0.1739502E-02  0.1991202E+06  0.3702928E+05 -0.2412684E-01 -0.5615234E-02
  0.6380953E+00  0.4017388E-02  0.1403809E-02  0.1964582E+06  0.4142290E+05 -0.2525216E-01 -0.2319336E-02
  0.6690477E+00  0.1459631E-02 -0.1831055E-02  0.1934848E+06  0.4590273E+05 -0.1970501E-01 -0.0000000E+00
  0.7000000E+00  0.1238142E-01  0.4882812E-02  0.1903345E+06  0.5047392E+05  0.1255580E-01  0.2441406E-03
  0.7309524E+00 -0.2137622E-01 -0.3662109E-02  0.1871354E+06  0.5500930E+05 -0.1068811E-01 -0.0000000E+00
  0.7619048E+00 -0.1842499E-01 -0.3967285E-02  0.1836925E+06  0.5955012E+05 -0.2627563E-01 -0.7324219E-02
  0.7928572E+00 -0.3849064E-02 -0.1831055E-03  0.1800156E+06  0.6408786E+05 -0.1108530E-01 -0.1953125E-02
  0.8238096E+00 -0.7557069E-02  0.3845215E-02  0.1762596E+06  0.6857183E+05 -0.3556268E-01 -0.6103516E-02
  0.8547620E+00 -0.9996844E-03 -0.6958008E-02  0.1725136E+06  0.7296061E+05 -0.5712482E-03  0.6103516E-02
  0.8857143E+00 -0.1061224E-01  0.4272461E-03  0.1687583E+06  0.7723547E+05  0.6615423E-02 -0.3417969E-02
  0.9166667E+00 -0.6658381E-03  0.2502441E-02  0.1649877E+06  0.8138842E+05 -0.3196023E-01  0.2441406E-03
  0.9476191E+00 -0.1391234E-01  0.8911133E-02  0.1611640E+06  0.8542162E+05 -0.1958032E-01 -0.9765625E-03
  0.9785714E+00 -0.9355754E-02  0.6225586E-02  0.1573192E+06  0.8931709E+05 -0.6985629E-02  0.5859375E-02
  0.1009524E+01 -0.2176537E-02 -0.2319336E-02  0.1534599E+06  0.9307327E+05  0.1451025E-02 -0.4882812E-02
  0.1040476E+01 -0.2933040E-02  0.4638672E-02  0.1496623E+06  0.9665026E+05 -0.8447153E-02 -0.1171875E-01
  0.1071429E+01 -0.1458333E-01  0.9765625E-02  0.1459511E+06  0.1000263E+06 -0.2460938E-01 -0.8789062E-02
  0.1102381E+01 -0.1373093E-01 -0.2807617E-02  0.1423496E+06  0.1031901E+06 -0.1771733E-01  0.5859375E-02
  0.1133333E+01 -0.6570255E-02  0.5249023E-02  0.1388210E+06  0.1061643E+06 -0.2541935E-01 -0.1464844E-02
  0.1164286E+01 -0.1258148E-01  0.4516602E-02  0.1353882E+06  0.1089499E+06 -0.1132333E-01 -0.1074219E-01
  0.1195238E+01 -0.2042611E-02 -0.5126953E-02  0.1320374E+06  0.1115579E+06 -0.2491985E-01  0.2929688E-02
  0.1226190E+01  0.4977625E-03  0.7324219E-02  0.1287892E+06  0.1139727E+06 -0.4778520E-02 -0.1025391E-01
  0.1257143E+01 -0.4952170E-02 -0.9765625E-03  0.1256622E+06  0.1162833E+06 -0.1592463E-01 -0.1171875E-01
  0.1288095E+01 -0.1070879E-01 -0.1708984E-01  0.1225722E+06  0.1182671E+06 -0.2160712E-01 -0.2978516E-01
  0.1319048E+01 -0.7496086E-02  0.7080078E-02  0.1196222E+06  0.1201359E+06 -0.9624605E-02 -0.7812500E-02
  0.1350000E+01 -0.2486617E-01 -0.1342773E-02  0.1167852E+06  0.1218237E+06 -0.2350984E-01 -0.1464844E-02
  0.1380952E+01  0.2033102E-02 -0.3784180E-02  0.1140640E+06  0.1233098E+06 -0.2050781E-01 -0.1953125E-02
  0.1411905E+01  0.8645789E-03  0.1354980E-01  0.1101330E+06  0.1250051E+06 -0.3112484E-02  0.1123047E-01
  0.1442857E+01 -0.2538096E-03  0.1245117E-01  0.1076261E+06  0.1262887E+06 -0.1996635E-01  0.2636719E-01
  0.1473810E+01 -0.9110902E-03  0.4638672E-02  0.1052227E+06  0.1274074E+06  0.3313055E-03  0.1513672E-01
  0.1504762E+01 -0.6976550E-02  0.2929688E-02  0.1029201E+06  0.1283955E+06 -0.2563477E-01  0.1269531E-01
  0.1535714E+01 -0.9220567E-02  0.5981445E-02  0.1007210E+06  0.1292486E+06 -0.2861555E-01  0.7324219E-02
  0.1566667E+01  0.6856715E-02  0.6713867E-02  0.9861718E+05  0.1299931E+06 -0.6545046E-02  0.1123047E-01
  0.1597619E+01 -0.2208181E-01  0.9765625E-02  0.9661488E+05  0.1306071E+06 -0.2934054E-01  0.9765625E-03
  0.1628572E+01 -0.1259252E-01 -0.3051758E-02  0.9470409E+05  0.1310874E+06 -0.2878289E-01 -0.1220703E-01
  0.1659524E+01  0.0000000E+00 -0.1953125E-02  0.9288036E+05  0.1314405E+06 -0.1912493E-01  0.1416016E-01
  0.1690476E+01 -0.5343585E-02 -0.3173828E-02  0.9113899E+05  0.1316609E+06 -0.1906360E-01 -0.2441406E-02
  0.1721429E+01 -0.1396971E-01 -0.1049805E-01  0.8948184E+05  0.1317744E+06 -0.1985542E-01 -0.1855469E-01
  0.1752381E+01 -0.7662566E-02  0.2368164E-01  0.8790675E+05  0.1317830E+06 -0.2507749E-02  0.2539062E-01
  0.1783333E+01 -0.1437464E-01 -0.7324219E-02  0.8642422E+05  0.1317119E+06 -0.2491603E-01  0.4882812E-02
  0.1814286E+01 -0.1298559E-01 -0.7080078E-02  0.8501176E+05  0.1316055E+06 -0.1130352E-01  0.3906250E-02
  0.1845238E+01 -0.1018775E-01  0.9765625E-02  0.8367538E+05  0.1313912E+06 -0.9261593E-02  0.1367188E-01
  0.1876190E+01 -0.2862766E-02  0.2929688E-02  0.8240603E+05  0.1310922E+06 -0.9108800E-02  0.9765625E-03
  0.1907143E+01 -0.9857064E-02  0.8544922E-02  0.8119625E+05  0.1307169E+06 -0.1945810E-01 -0.1269531E-01
  0.1938095E+01 -0.1631303E-01 -0.5615234E-02  0.8003806E+05  0.1302620E+06 -0.2947683E-01  0.7812500E-02
  0.1969048E+01 -0.5083557E-02  0.2441406E-01  0.7893454E+05  0.1297312E+06 -0.1835040E-01  0.9375000E-01
  0.2000000E+01 -0.4394531E-02  0.6591797E-02  0.7789267E+05  0.1291614E+06 -0.1708984E-01 -0.9765625E-03
Zone t="Motion of body    1 in DoF   3",I=    64,F=POINT
  0.5000000E-01  0.7629141E+05  0.8200910E-02 -0.5340576E-01 -0.1871739E-03  0.2268723E+06  0.1470424E-01
  0.8095238E-01  0.7625657E+05  0.3603826E-01 -0.3901762E-01 -0.2556656E-03  0.2268214E+06  0.6402468E-01
  0.1119048E+00  0.7641116E+05  0.1011579E+00 -0.4472448E-01 -0.3262563E-03  0.2272892E+06  0.1796441E+00
  0.1428571E+00  0.7640567E+05  0.2277680E+00 -0.5191040E-01 -0.5867966E-03  0.2267886E+06  0.4045024E+00
  0.1738095E+00  0.7666822E+05  0.4536851E+00  0.2861963E-01  0.1027407E-03  0.2278879E+06  0.8069178E+00
  0.2047619E+00  0.7675544E+05  0.8370888E+00 -0.7064465E-01 -0.1194142E-02  0.2277630E+06  0.1490993E+01
  0.2357143E+00  0.7687157E+05  0.1474657E+01 -0.1268791E-01 -0.6794930E-03  0.2279308E+06  0.2629857E+01
  0.2666667E+00  0.7725573E+05  0.2517399E+01 -0.2700805E-01 -0.8224323E-03  0.2292225E+06  0.4497235E+01
  0.2976190E+00  0.7737602E+05  0.4223384E+01 -0.2686523E-01 -0.8111671E-03  0.2290506E+06  0.7554906E+01
  0.3285715E+00  0.7757061E+05  0.6991539E+01 -0.3622304E-01 -0.1622021E-02  0.2292916E+06  0.1252947E+02
  0.3595238E+00  0.7806603E+05  0.1148405E+02 -0.2835103E-01 -0.1894057E-02  0.2309473E+06  0.2063013E+02
  0.3904762E+00  0.7830657E+05  0.1873439E+02  0.9378572E-03 -0.8762479E-03  0.2312076E+06  0.3372784E+02
  0.4214286E+00  0.7854900E+05  0.3014223E+02 -0.8400092E-01 -0.6566048E-02  0.2311777E+06  0.5438457E+02
  0.4523810E+00  0.7906836E+05  0.4807684E+02 -0.4020610E-01 -0.4597068E-02  0.2326508E+06  0.8697520E+02
  0.4833333E+00  0.7973242E+05  0.7479437E+02  0.2070986E-01 -0.1031160E-03  0.2345848E+06  0.1357315E+03
  0.5142857E+00  0.8024977E+05  0.1144258E+03 -0.4035102E-02 -0.1087427E-02  0.2354975E+06  0.2082570E+03
  0.5452381E+00  0.8080914E+05  0.1709281E+03 -0.1208976E-01 -0.1657963E-02  0.2364912E+06  0.3120337E+03
  0.5761905E+00  0.8127755E+05  0.2492289E+03 -0.4639680E-01 -0.8407116E-02  0.2374752E+06  0.4563400E+03
  0.6071429E+00  0.8200920E+05  0.3565562E+03 -0.7841222E-02 -0.1860619E-02  0.2393921E+06  0.6551083E+03
  0.6380953E+00  0.8285365E+05  0.4988925E+03 -0.1186086E-01 -0.4400253E-02  0.2412918E+06  0.9199134E+03
  0.6690477E+00  0.8352778E+05  0.6860908E+03 -0.2463127E-01 -0.9550095E-02  0.2423391E+06  0.1269577E+04
  0.7000000E+00  0.8424573E+05  0.9290298E+03  0.7847377E-02 -0.5111694E-03  0.2436968E+06  0.1725287E+04
  0.7309524E+00  0.8512131E+05  0.1237482E+04 -0.6646668E-01 -0.2787209E-01  0.2458078E+06  0.2306694E+04
  0.7619048E+00  0.8605905E+05  0.1625646E+04 -0.3941345E-01 -0.1842880E-01  0.2480395E+06  0.3042073E+04
  0.7928572E+00  0.8708891E+05  0.2108965E+04 -0.3541138E-01 -0.1341629E-01  0.2503438E+06  0.3962764E+04
  0.8238096E+00  0.8814066E+05  0.2704196E+04 -0.3467361E-01 -0.2664185E-01  0.2525395E+06  0.5103101E+04
  0.8547620E+00  0.8911495E+05  0.3429213E+04  0.5712482E-03 -0.8392334E-04  0.2543867E+06  0.6499630E+04
  0.8857143E+00  0.9007905E+05  0.4301207E+04 -0.4961567E-01 -0.3126526E-01  0.2564110E+06  0.8187369E+04
  0.9166667E+00  0.9109859E+05  0.5337690E+04 -0.2397017E-01 -0.2851868E-01  0.2587827E+06  0.1020328E+05
  0.9476191E+00  0.9221052E+05  0.6556662E+04 -0.6775822E-01 -0.4408264E-01  0.2615790E+06  0.1258852E+05
  0.9785714E+00  0.9337513E+05  0.7978289E+04 -0.9231010E-02 -0.1058960E-01  0.2644546E+06  0.1538834E+05
  0.1009524E+01  0.9437797E+05  0.9623962E+04  0.1088268E-01 -0.4028320E-02  0.2666821E+06  0.1864979E+05
  0.1040476E+01  0.9531787E+05  0.1151155E+05 -0.1548645E-01 -0.1828003E-01  0.2687394E+06  0.2242010E+05
  0.1071429E+01  0.9616702E+05  0.1365799E+05 -0.3235677E-01 -0.3436279E-01  0.2705995E+06  0.2673951E+05
  0.1102381E+01  0.9695917E+05  0.1606642E+05 -0.2303253E-01 -0.3091431E-01  0.2725923E+06  0.3161852E+05
  0.1133333E+01  0.9759369E+05  0.1874151E+05 -0.3015855E-02 -0.1043701E-01  0.2742798E+06  0.3706979E+05
  0.1164286E+01  0.9805823E+05  0.2168370E+05  0.4613209E-02  0.1678467E-01  0.2756704E+06  0.4310104E+05
  0.1195238E+01  0.9838758E+05  0.2488774E+05 -0.4146500E-01 -0.3857422E-01  0.2768713E+06  0.4972183E+05
  0.1226190E+01  0.9859401E+05  0.2834987E+05  0.1433556E-01  0.3308105E-01  0.2778002E+06  0.5693332E+05
  0.1257143E+01  0.9857115E+05  0.3209395E+05 -0.1825506E-01 -0.3320312E-01  0.2782013E+06  0.6479176E+05
  0.1288095E+01  0.9839727E+05  0.3596981E+05 -0.5307013E-02 -0.3570557E-01  0.2783408E+06  0.7299534E+05
  0.1319048E+01  0.9801976E+05  0.4007533E+05 -0.2221063E-02 -0.2160645E-01  0.2779813E+06  0.8175077E+05
  0.1350000E+01  0.9744164E+05  0.4433397E+05 -0.2350984E-01 -0.2697754E-01  0.2772679E+06  0.9091072E+05
  0.1380952E+01  0.9669530E+05  0.4870202E+05  0.4950162E-02 -0.1904297E-01  0.2762810E+06  0.1004005E+06
  0.1411905E+01  0.9090726E+05  0.5015651E+05 -0.1763741E-01 -0.3698730E-01  0.2630774E+06  0.1039839E+06
  0.1442857E+01  0.8988603E+05  0.5448268E+05 -0.1658222E-01 -0.1391602E-01  0.2614975E+06  0.1135633E+06
  0.1473810E+01  0.8870534E+05  0.5882255E+05 -0.8282638E-02 -0.3784180E-01  0.2595901E+06  0.1232720E+06
  0.1504762E+01  0.8733841E+05  0.6315217E+05 -0.1168166E-01  0.1354980E-01  0.2571964E+06  0.1330721E+06
  0.1535714E+01  0.8581283E+05  0.6744081E+05 -0.1208212E-01  0.1464844E-01  0.2544143E+06  0.1428887E+06
  0.1566667E+01  0.8413672E+05  0.7164925E+05 -0.2212849E-01 -0.1025391E-01  0.2512802E+06  0.1526486E+06
  0.1597619E+01  0.8234162E+05  0.7574791E+05 -0.1589279E-01 -0.2416992E-01  0.2478527E+06  0.1622729E+06
  0.1628572E+01  0.8048221E+05  0.7970929E+05 -0.7195723E-02 -0.4614258E-01  0.2442294E+06  0.1716912E+06
  0.1659524E+01  0.7855731E+05  0.8349372E+05 -0.7944203E-02 -0.1367188E-01  0.2405040E+06  0.1808273E+06
  0.1690476E+01  0.7659790E+05  0.8709159E+05 -0.1097601E-01 -0.8056641E-02  0.2366845E+06  0.1896353E+06
  0.1721429E+01  0.7460249E+05  0.9049234E+05 -0.1418244E-01 -0.4907227E-01  0.2327564E+06  0.1981077E+06
  0.1752381E+01  0.7258914E+05  0.9371249E+05 -0.8080524E-02 -0.1928711E-01  0.2286805E+06  0.2062543E+06
  0.1783333E+01  0.7053855E+05  0.9675762E+05 -0.1642815E-02 -0.7080078E-02  0.2244800E+06  0.2141028E+06
  0.1814286E+01  0.6847775E+05  0.9960677E+05 -0.9419600E-02  0.3417969E-02  0.2202026E+06  0.2216123E+06
  0.1845238E+01  0.6643520E+05  0.1022561E+06  0.5292339E-03 -0.7324219E-03  0.2159302E+06  0.2287327E+06
  0.1876190E+01  0.6443250E+05  0.1047132E+06 -0.8848549E-02 -0.4394531E-02  0.2116666E+06  0.2354588E+06
  0.1907143E+01  0.6246009E+05  0.1069585E+06 -0.1766591E-01 -0.2343750E-01  0.2074768E+06  0.2417763E+06
  0.1938095E+01  0.6053904E+05  0.1089916E+06 -0.2368224E-01 -0.5151367E-01  0.2033658E+06  0.2476523E+06
  0.1969048E+01  0.5865913E+05  0.1108427E+06 -0.1785444E-01 -0.2343750E-01  0.1992997E+06  0.2531707E+06
  0.2000000E+01  0.5682194E+05  0.1125368E+06 -0.1538086E-01  0.1464844E-01  0.1952500E+06  0.2583909E+06
