VARIABLES="w (rad/s)"
"A   1   1" "B   1   1"
"A   1   2" "B   1   2"
"A   1   3" "B   1   3"
Zone t="Motion of body    1 in DoF   1",I=    64,F=POINT
  0.5000000E-01  0.2288086E+06  0.2258005E-01  0.4501343E-02  0.3573797E-04 -0.5104434E+06 -0.5114430E-01
  0.8095238E-01  0.2308088E+06  0.9911430E-01  0.9424546E-04  0.3872905E-04 -0.5155201E+06 -0.2250251E+00
  0.1119048E+00  0.2313944E+06  0.2784905E+00  0.7840420E-03  0.4912727E-05 -0.5166198E+06 -0.6313330E+00
  0.1428571E+00  0.2321787E+06  0.6284437E+00  0.4592896E-02  0.1030555E-03 -0.5181160E+06 -0.1423142E+01
  0.1738095E+00  0.2326856E+06  0.1251141E+01  0.7154908E-02  0.1511704E-03 -0.5188232E+06 -0.2830174E+01
  0.2047619E+00  0.2331766E+06  0.2311018E+01  0.1169959E-01  0.1228005E-03 -0.5198668E+06 -0.5224379E+01
  0.2357143E+00  0.2338875E+06  0.4074069E+01  0.5243475E-02  0.2481379E-03 -0.5209537E+06 -0.9198405E+01
  0.2666667E+00  0.2344999E+06  0.6956791E+01 -0.1519203E-01 -0.3068987E-03 -0.5223397E+06 -0.1569410E+02
  0.2976190E+00  0.2352190E+06  0.1168677E+02 -0.2332764E-02 -0.1282468E-03 -0.5238254E+06 -0.2634181E+02
  0.3285715E+00  0.2363792E+06  0.1938377E+02  0.8939659E-02  0.6126463E-03 -0.5256534E+06 -0.4360867E+02
  0.3595238E+00  0.2372097E+06  0.3188030E+02  0.6578458E-02  0.7942691E-03 -0.5272114E+06 -0.7162245E+02
  0.3904762E+00  0.2382704E+06  0.5206041E+02  0.8597024E-03  0.1207739E-03 -0.5291937E+06 -0.1167649E+03
  0.4214286E+00  0.2396448E+06  0.8404433E+02  0.1564155E-01  0.9644628E-03 -0.5319451E+06 -0.1881917E+03
  0.4523810E+00  0.2411190E+06  0.1345075E+03  0.3912674E-02  0.5921423E-03 -0.5344380E+06 -0.3005136E+03
  0.4833333E+00  0.2428847E+06  0.2101026E+03  0.9944521E-02  0.5403757E-03 -0.5379580E+06 -0.4685018E+03
  0.5142857E+00  0.2445797E+06  0.3228512E+03  0.6468032E-02  0.4965067E-03 -0.5414292E+06 -0.7186045E+03
  0.5452381E+00  0.2468207E+06  0.4850623E+03  0.1651148E-01  0.3077745E-02 -0.5457084E+06 -0.1077070E+04
  0.5761905E+00  0.2487935E+06  0.7110996E+03 -0.2807112E-02 -0.5471706E-03 -0.5491078E+06 -0.1574484E+04
  0.6071429E+00  0.2511997E+06  0.1024864E+04  0.6207634E-02  0.1247644E-02 -0.5538765E+06 -0.2263818E+04
  0.6380953E+00  0.2540650E+06  0.1446318E+04  0.4304345E-02  0.1874447E-02 -0.5595340E+06 -0.3186423E+04
  0.6690477E+00  0.2567315E+06  0.2005301E+04  0.7936742E-02  0.4246712E-02 -0.5647684E+06 -0.4406194E+04
  0.7000000E+00  0.2598157E+06  0.2742519E+04  0.4446847E-02 -0.7438660E-03 -0.5707266E+06 -0.6008362E+04
  0.7309524E+00  0.2635525E+06  0.3700248E+04  0.9560849E-02  0.1859665E-02 -0.5775394E+06 -0.8076691E+04
  0.7619048E+00  0.2669829E+06  0.4923325E+04  0.6889343E-02  0.4483223E-02 -0.5841311E+06 -0.1071213E+05
  0.7928572E+00  0.2709340E+06  0.6482235E+04  0.1077738E-01  0.4026413E-02 -0.5919688E+06 -0.1406038E+05
  0.8238096E+00  0.2750767E+06  0.8443582E+04  0.6519824E-02  0.2674103E-02 -0.5997546E+06 -0.1824738E+05
  0.8547620E+00  0.2797045E+06  0.1089763E+05  0.5069828E-02  0.4137039E-02 -0.6087716E+06 -0.2346908E+05
  0.8857143E+00  0.2841820E+06  0.1392695E+05 -0.1219719E-01 -0.7526398E-02 -0.6169111E+06 -0.2986813E+05
  0.9166667E+00  0.2892019E+06  0.1766590E+05 -0.4660866E-03  0.4692078E-03 -0.6261903E+06 -0.3772725E+05
  0.9476191E+00  0.2942605E+06  0.2221651E+05 -0.9983388E-03 -0.1869202E-02 -0.6353578E+06 -0.4723519E+05
  0.9785714E+00  0.2998031E+06  0.2775396E+05 -0.2775540E-02 -0.5470276E-02 -0.6456531E+06 -0.5875606E+05
  0.1009524E+01  0.3048684E+06  0.3436145E+05  0.1490323E-01  0.1028442E-01 -0.6547877E+06 -0.7241981E+05
  0.1040476E+01  0.3100705E+06  0.4225788E+05 -0.4692863E-03 -0.4577637E-04 -0.6642538E+06 -0.8867058E+05
  0.1071429E+01  0.3151576E+06  0.5159744E+05  0.1652018E-02  0.7431030E-02 -0.6731541E+06 -0.1077512E+06
  0.1102381E+01  0.3201507E+06  0.6259633E+05  0.4484700E-02 -0.1495361E-02 -0.6813528E+06 -0.1300222E+06
  0.1133333E+01  0.3248820E+06  0.7542306E+05  0.5816292E-02  0.2136230E-03 -0.6888359E+06 -0.1557984E+06
  0.1164286E+01  0.3284738E+06  0.9009127E+05  0.3669598E-03 -0.4272461E-03 -0.6938734E+06 -0.1850439E+06
  0.1195238E+01  0.3312443E+06  0.1067783E+06  0.1072371E-02 -0.2441406E-03 -0.6974943E+06 -0.2181445E+06
  0.1226190E+01  0.3330635E+06  0.1255880E+06 -0.3982100E-03 -0.7293701E-02 -0.6990336E+06 -0.2551451E+06
  0.1257143E+01  0.3326506E+06  0.1458886E+06 -0.2184781E-02  0.1342773E-02 -0.6958710E+06 -0.2946442E+06
  0.1288095E+01  0.3322964E+06  0.1690468E+06 -0.2843042E-03  0.1281738E-02 -0.6925285E+06 -0.3392740E+06
  0.1319048E+01  0.3290811E+06  0.1932432E+06  0.4766030E-02  0.2175903E-01 -0.6839064E+06 -0.3855275E+06
  0.1350000E+01  0.3235089E+06  0.2183781E+06  0.1808449E-02 -0.3143311E-02 -0.6703331E+06 -0.4328328E+06
  0.1380952E+01  0.3160996E+06  0.2444628E+06  0.2651872E-02  0.9368896E-02 -0.6533036E+06 -0.4813340E+06
  0.1411905E+01  0.3060225E+06  0.2704560E+06  0.2377592E-02  0.1242065E-01 -0.6318000E+06 -0.5293191E+06
  0.1442857E+01  0.2942047E+06  0.2957278E+06  0.4166707E-02  0.4028320E-02 -0.6059700E+06 -0.5742370E+06
  0.1473810E+01  0.2808137E+06  0.3199723E+06 -0.6833176E-03  0.2319336E-02 -0.5777319E+06 -0.6166431E+06
  0.1504762E+01  0.2659216E+06  0.3423173E+06  0.1216840E-02  0.2197266E-02 -0.5474409E+06 -0.6551109E+06
  0.1535714E+01  0.2496370E+06  0.3617231E+06  0.1053211E-02 -0.1647949E-02 -0.5146585E+06 -0.6869989E+06
  0.1566667E+01  0.2324168E+06  0.3776179E+06  0.2805020E-02 -0.3784180E-02 -0.4803723E+06 -0.7113381E+06
  0.1597619E+01  0.2151516E+06  0.3906505E+06  0.1069707E-02 -0.7202148E-02 -0.4469054E+06 -0.7303494E+06
  0.1628572E+01  0.1981398E+06  0.4005616E+06 -0.3466690E-02  0.2319336E-02 -0.4143817E+06 -0.7431145E+06
  0.1659524E+01  0.1815254E+06  0.4068161E+06  0.1360812E-02 -0.6622314E-02 -0.3827102E+06 -0.7480180E+06
  0.1690476E+01  0.1658510E+06  0.4103745E+06 -0.2581529E-02 -0.4669189E-02 -0.3534180E+06 -0.7480221E+06
  0.1721429E+01  0.1512721E+06  0.4116627E+06 -0.1329604E-03  0.7293701E-02 -0.3266474E+06 -0.7439006E+06
  0.1752381E+01  0.1375616E+06  0.4100708E+06 -0.1332242E-02  0.3051758E-02 -0.3019612E+06 -0.7344825E+06
  0.1783333E+01  0.1249876E+06  0.4061922E+06  0.4226827E-02  0.1037598E-02 -0.2795532E+06 -0.7204859E+06
  0.1814286E+01  0.1136464E+06  0.4002159E+06  0.4179947E-02  0.5310059E-02 -0.2597065E+06 -0.7026688E+06
  0.1845238E+01  0.1036129E+06  0.3932261E+06 -0.7938508E-03 -0.4852295E-02 -0.2427367E+06 -0.6839137E+06
  0.1876190E+01  0.9473744E+05  0.3854207E+06 -0.3415800E-03  0.1434326E-02 -0.2281516E+06 -0.6641182E+06
  0.1907143E+01  0.8684375E+05  0.3762323E+06  0.2112228E-02  0.3448486E-02 -0.2153884E+06 -0.6413338E+06
  0.1938095E+01  0.8007122E+05  0.3667202E+06 -0.5904814E-03 -0.2868652E-02 -0.2048754E+06 -0.6185604E+06
  0.1969048E+01  0.7426162E+05  0.3569077E+06 -0.1875337E-02  0.1174927E-02 -0.1961903E+06 -0.5956978E+06
  0.2000000E+01  0.6924566E+05  0.3469008E+06  0.1754761E-03  0.1922607E-02 -0.1891282E+06 -0.5731695E+06
Zone t="Motion of body    1 in DoF   2",I=    64,F=POINT
  0.5000000E-01  0.2555847E-02  0.1502037E-04  0.5688235E+05  0.1005510E+03  0.1937866E-01 -0.3981590E-04
  0.8095238E-01 -0.5419114E-02 -0.3099442E-04  0.5640020E+05  0.1664212E+03 -0.8482091E-02  0.4768372E-06
  0.1119048E+00 -0.2658925E-02 -0.1287460E-04  0.5609483E+05  0.2376636E+03  0.1349916E-01 -0.2098083E-04
  0.1428571E+00  0.6942749E-02  0.3051758E-04  0.5594122E+05  0.3168691E+03 -0.5511474E-01  0.7915497E-04
  0.1738095E+00  0.3950563E-03 -0.3719330E-04  0.5590071E+05  0.4068726E+03  0.1755806E-03 -0.9155273E-04
  0.2047619E+00 -0.3688724E-02  0.2479553E-04  0.5583511E+05  0.5118924E+03 -0.1982223E-01 -0.1373291E-03
  0.2357143E+00 -0.7282604E-02 -0.1888275E-03  0.5584055E+05  0.6371015E+03  0.2835360E-01 -0.3814697E-04
  0.2666667E+00  0.2145767E-02 -0.1125336E-03  0.5592665E+05  0.7863740E+03 -0.1602173E-02 -0.2059937E-03
  0.2976190E+00  0.6408691E-02  0.5722046E-05  0.5594370E+05  0.9705332E+03 -0.2071289E-01 -0.2822876E-03
  0.3285715E+00  0.4365340E-02 -0.3509521E-03  0.5605828E+05  0.1192961E+04  0.8452041E-02  0.5607605E-03
  0.3595238E+00 -0.1230808E-02 -0.2212524E-03  0.5607221E+05  0.1465886E+04  0.3734866E-02  0.7553101E-03
  0.3904762E+00 -0.5158214E-02 -0.2861023E-03  0.5610488E+05  0.1795584E+04 -0.4220357E-02  0.2136230E-03
  0.4214286E+00 -0.2208645E-02 -0.7629395E-04  0.5605861E+05  0.2175860E+04 -0.9269067E-02  0.1182556E-02
  0.4523810E+00  0.2327367E-02  0.7629395E-03  0.5587985E+05  0.2628079E+04 -0.2833316E-02  0.5416870E-03
  0.4833333E+00 -0.2178324E-02 -0.1113892E-02  0.5577025E+05  0.3101251E+04  0.8208176E-02  0.1869202E-02
  0.5142857E+00 -0.4242791E-02  0.2746582E-03  0.5528554E+05  0.3626031E+04  0.4082574E-01 -0.1541138E-02
  0.5452381E+00 -0.6380706E-02 -0.6103516E-03  0.5495032E+05  0.4162046E+04 -0.3358266E-03  0.1922607E-02
  0.5761905E+00 -0.6779442E-02 -0.1068115E-03  0.5443978E+05  0.4695924E+04 -0.3071934E-02  0.3860474E-02
  0.6071429E+00  0.6333294E-02 -0.3204346E-03  0.5381373E+05  0.5248556E+04 -0.1708984E-02  0.2197266E-02
  0.6380953E+00 -0.9086950E-03 -0.5035400E-03  0.5338138E+05  0.5764533E+04 -0.2199998E-01  0.5828857E-02
  0.6690477E+00 -0.1505244E-02  0.1678467E-03  0.5268159E+05  0.6268789E+04 -0.1076478E-01 -0.1052856E-02
  0.7000000E+00 -0.7411411E-03  0.4882812E-03  0.5196877E+05  0.6763150E+04 -0.4272460E-02 -0.3326416E-02
  0.7309524E+00  0.1670017E-03 -0.4882812E-03  0.5142408E+05  0.7215670E+04  0.1386114E-01 -0.5142212E-02
  0.7619048E+00  0.5126953E-02 -0.7934570E-03  0.5074896E+05  0.7633950E+04  0.3524780E-02  0.3784180E-02
  0.7928572E+00  0.2694344E-02  0.1068115E-02  0.4999530E+05  0.8022243E+04 -0.5465670E-02 -0.4089355E-02
  0.8238096E+00  0.7631158E-02  0.6103516E-04  0.4934745E+05  0.8366478E+04 -0.2148579E-01  0.7049561E-02
  0.8547620E+00 -0.3784519E-02 -0.2868652E-02  0.4885974E+05  0.8662854E+04 -0.8283099E-02 -0.2258301E-02
  0.8857143E+00 -0.6374236E-03 -0.1678467E-02  0.4810541E+05  0.8905871E+04  0.5237210E-02  0.7965088E-02
  0.9166667E+00  0.9571422E-02  0.3051758E-03  0.4743484E+05  0.9104379E+04 -0.2410334E-01 -0.6805420E-02
  0.9476191E+00 -0.8373164E-03  0.1586914E-02  0.4685994E+05  0.9250753E+04  0.4250991E-02  0.1379395E-01
  0.9785714E+00 -0.1652850E-02 -0.3967285E-03  0.4642339E+05  0.9350315E+04  0.2744355E-02 -0.1135254E-01
  0.1009524E+01 -0.1964929E-03 -0.6835938E-02  0.4588744E+05  0.9380645E+04 -0.1051993E-01  0.1199341E-01
  0.1040476E+01  0.5264806E-02  0.4058838E-02  0.4529869E+05  0.9363947E+04  0.4575542E-02  0.4241943E-02
  0.1071429E+01  0.1224772E-02 -0.2197266E-02  0.4479929E+05  0.9300794E+04 -0.6722006E-02  0.4730225E-02
  0.1102381E+01  0.1314958E-03 -0.2136230E-02  0.4442629E+05  0.9202533E+04 -0.5425933E-02 -0.4333496E-02
  0.1133333E+01 -0.3971773E-03  0.4028320E-02  0.4418581E+05  0.9078912E+04 -0.7001092E-02 -0.4852295E-02
  0.1164286E+01  0.1218831E-02 -0.2502441E-02  0.4383305E+05  0.8869479E+04 -0.1887222E-02  0.2136230E-02
  0.1195238E+01  0.2537305E-02  0.1098633E-02  0.4343528E+05  0.8615994E+04 -0.3778830E-02  0.3112793E-02
  0.1226190E+01  0.6082035E-03 -0.1647949E-02  0.4311752E+05  0.8339266E+04  0.8063751E-02  0.1052856E-01
  0.1257143E+01  0.4468335E-02  0.4760742E-02  0.4291048E+05  0.8057102E+04 -0.7962313E-02  0.1708984E-01
  0.1288095E+01  0.6796648E-03  0.4882812E-03  0.4280186E+05  0.7778693E+04 -0.7486678E-02  0.6103516E-02
  0.1319048E+01  0.2302039E-02 -0.1403809E-02  0.4281691E+05  0.7530005E+04  0.1850885E-02  0.4913330E-02
  0.1350000E+01  0.3260860E-02 -0.3601074E-02  0.4259315E+05  0.7091623E+04 -0.1012731E-01 -0.8087158E-02
  0.1380952E+01 -0.1999954E-02  0.1098633E-02  0.4244138E+05  0.6689584E+04 -0.1502728E-02  0.7797241E-02
  0.1411905E+01  0.2107411E-02  0.5004883E-02  0.4232913E+05  0.6287573E+04 -0.5014558E-02 -0.6729126E-02
  0.1442857E+01  0.3934048E-02  0.6713867E-03  0.4230366E+05  0.5916348E+04 -0.1184445E-02 -0.2120972E-02
  0.1473810E+01  0.1646174E-02 -0.2990723E-02  0.4233932E+05  0.5589847E+04 -0.1987833E-02 -0.7537842E-02
  0.1504762E+01 -0.4563151E-03  0.5493164E-02  0.4244433E+05  0.5328764E+04 -0.1054595E-02  0.4348755E-02
  0.1535714E+01 -0.2682708E-03 -0.2319336E-02  0.4255778E+05  0.5050333E+04 -0.1081032E-01  0.1005554E-01
  0.1566667E+01  0.1947930E-03  0.2502441E-02  0.4251442E+05  0.4519866E+04 -0.4129612E-02  0.1113892E-02
  0.1597619E+01  0.3915892E-03 -0.1647949E-02  0.4254103E+05  0.4119104E+04 -0.4966497E-02  0.8773804E-02
  0.1628572E+01 -0.1068115E-02 -0.5706787E-02  0.4258570E+05  0.3729419E+04  0.6071392E-02  0.1177216E-01
  0.1659524E+01  0.8642998E-03 -0.6225586E-02  0.4267625E+05  0.3403571E+04 -0.3972101E-02 -0.1800537E-02
  0.1690476E+01  0.5054742E-03  0.6042480E-02  0.4279155E+05  0.3141095E+04 -0.7076639E-02 -0.8453369E-02
  0.1721429E+01 -0.4254733E-03  0.4302979E-02  0.4292494E+05  0.2946687E+04 -0.5885714E-02 -0.2731323E-02
  0.1752381E+01 -0.2159450E-02 -0.3631592E-02  0.4308477E+05  0.2844133E+04  0.1107589E-01  0.1686859E-01
  0.1783333E+01 -0.1197886E-03  0.5432129E-02  0.4320369E+05  0.2549194E+04 -0.4996897E-02 -0.6072998E-02
  0.1814286E+01  0.1312016E-02 -0.1220703E-02  0.4329653E+05  0.2140833E+04 -0.6391871E-02 -0.9613037E-03
  0.1845238E+01  0.1868857E-02  0.8239746E-03  0.4339981E+05  0.1865285E+04 -0.5953881E-02 -0.2017975E-02
  0.1876190E+01 -0.1854291E-02 -0.3479004E-02  0.4350472E+05  0.1603121E+04  0.6311097E-02 -0.5722046E-04
  0.1907143E+01 -0.1328143E-02 -0.1678467E-02  0.4362415E+05  0.1402058E+04  0.3200345E-03  0.1533508E-02
  0.1938095E+01  0.1558871E-02 -0.1037598E-02  0.4374849E+05  0.1260695E+04 -0.1259694E-03 -0.3204346E-03
  0.1969048E+01 -0.1193396E-02 -0.1251221E-02  0.4386049E+05  0.1155470E+04 -0.2355795E-02 -0.4051208E-02
  0.2000000E+01  0.1571655E-02  0.5676270E-02  0.4396956E+05  0.1100287E+04  0.1342773E-02 -0.5498886E-02
Zone t="Motion of body    1 in DoF   3",I=    64,F=POINT
  0.5000000E-01 -0.5106423E+06 -0.5101888E-01 -0.6980896E-02 -0.4949021E-04  0.1324130E+07  0.1158636E+00
  0.8095238E-01 -0.5153664E+06 -0.2248363E+00  0.2417396E-01  0.1812574E-03  0.1334665E+07  0.5101716E+00
  0.1119048E+00 -0.5165168E+06 -0.6309324E+00 -0.3947481E-01 -0.3573168E-03  0.1336673E+07  0.1429781E+01
  0.1428571E+00 -0.5180242E+06 -0.1422697E+01 -0.4074860E-01 -0.4660804E-03  0.1339407E+07  0.3221161E+01
  0.1738095E+00 -0.5187880E+06 -0.2830986E+01 -0.2765394E-01 -0.5994532E-03  0.1340546E+07  0.6403971E+01
  0.2047619E+00 -0.5198196E+06 -0.5225047E+01  0.3725983E-02 -0.1728833E-03  0.1342594E+07  0.1181042E+02
  0.2357143E+00 -0.5210066E+06 -0.9202355E+01  0.0000000E+00 -0.1327954E-03  0.1344664E+07  0.2077638E+02
  0.2666667E+00 -0.5223108E+06 -0.1570017E+02  0.2775192E-01  0.3555417E-04  0.1347384E+07  0.3542089E+02
  0.2976190E+00 -0.5237540E+06 -0.2634182E+02  0.1333008E-02 -0.2861023E-04  0.1350298E+07  0.5937654E+02
  0.3285715E+00 -0.5257321E+06 -0.4363409E+02 -0.3626947E-01 -0.1005560E-02  0.1353648E+07  0.9816594E+02
  0.3595238E+00 -0.5272758E+06 -0.7166235E+02 -0.3132195E-01 -0.1783192E-02  0.1356734E+07  0.1609897E+03
  0.3904762E+00 -0.5292959E+06 -0.1168476E+03 -0.1129336E-01  0.2855361E-03  0.1360517E+07  0.2620732E+03
  0.4214286E+00 -0.5319600E+06 -0.1882746E+03 -0.2606925E-02  0.1854300E-03  0.1365737E+07  0.4215802E+03
  0.4523810E+00 -0.5346054E+06 -0.3007736E+03 -0.1011899E-02 -0.1514614E-02  0.1370749E+07  0.6719940E+03
  0.4833333E+00 -0.5380674E+06 -0.4688425E+03 -0.4798626E-02 -0.1955152E-02  0.1377496E+07  0.1045459E+04
  0.5142857E+00 -0.5414904E+06 -0.7189027E+03 -0.2254910E-01 -0.1848221E-02  0.1384350E+07  0.1600136E+04
  0.5452381E+00 -0.5457834E+06 -0.1077653E+04 -0.5457183E-01 -0.9746552E-02  0.1392568E+07  0.2392898E+04
  0.5761905E+00 -0.5492879E+06 -0.1575940E+04 -0.1535967E-02  0.1926422E-02  0.1399062E+07  0.3489381E+04
  0.6071429E+00 -0.5540360E+06 -0.2265514E+04 -0.9550205E-02 -0.5106926E-02  0.1408616E+07  0.5004367E+04
  0.6380953E+00 -0.5596559E+06 -0.3188460E+04 -0.2266955E-01 -0.6536484E-02  0.1419576E+07  0.7024574E+04
  0.6690477E+00 -0.5648149E+06 -0.4408157E+04 -0.5656069E-02 -0.5201340E-02  0.1429667E+07  0.9685898E+04
  0.7000000E+00 -0.5707987E+06 -0.6010815E+04 -0.2397810E-01 -0.4669189E-02  0.1441434E+07  0.1316868E+05
  0.7309524E+00 -0.5777621E+06 -0.8083980E+04 -0.2229473E-01 -0.1458168E-01  0.1454431E+07  0.1764529E+05
  0.7619048E+00 -0.5842662E+06 -0.1072002E+05 -0.2723694E-02 -0.6484985E-04  0.1467001E+07  0.2332448E+05
  0.7928572E+00 -0.5920475E+06 -0.1406575E+05 -0.4472612E-01 -0.1380157E-01  0.1482374E+07  0.3050946E+05
  0.8238096E+00 -0.5998488E+06 -0.1825557E+05 -0.2889468E-02 -0.9773254E-02  0.1497207E+07  0.3945202E+05
  0.8547620E+00 -0.6087719E+06 -0.2347361E+05 -0.2920507E-01 -0.2853394E-02  0.1514443E+07  0.5055252E+05
  0.8857143E+00 -0.6169578E+06 -0.2987947E+05  0.5354358E-01  0.2098846E-01  0.1529496E+07  0.6408011E+05
  0.9166667E+00 -0.6263312E+06 -0.3774516E+05 -0.1571378E-01 -0.1142883E-01  0.1547066E+07  0.8060805E+05
  0.9476191E+00 -0.6355311E+06 -0.4726394E+05  0.3542493E-02  0.1689148E-01  0.1563983E+07  0.1004892E+06
  0.9785714E+00 -0.6457681E+06 -0.5878239E+05  0.4178904E-02  0.3387451E-02  0.1582798E+07  0.1244437E+06
  0.1009524E+01 -0.6548086E+06 -0.7244129E+05 -0.2031434E-01 -0.1582336E-01  0.1598987E+07  0.1526753E+06
  0.1040476E+01 -0.6642095E+06 -0.8867106E+05 -0.9913674E-02 -0.3570557E-02  0.1615950E+07  0.1860593E+06
  0.1071429E+01 -0.6730765E+06 -0.1077389E+06 -0.1925456E-01 -0.1736450E-01  0.1631229E+07  0.2249899E+06
  0.1102381E+01 -0.6813555E+06 -0.1300349E+06 -0.2364156E-01 -0.2145386E-01  0.1644622E+07  0.2701014E+06
  0.1133333E+01 -0.6889342E+06 -0.1558472E+06 -0.1771815E-01 -0.2990723E-02  0.1656247E+07  0.3219235E+06
  0.1164286E+01 -0.6939582E+06 -0.1851150E+06 -0.1677531E-02 -0.9399414E-02  0.1662486E+07  0.3802121E+06
  0.1195238E+01 -0.6974991E+06 -0.2181703E+06 -0.9191749E-03  0.4098511E-01  0.1666026E+07  0.4457088E+06
  0.1226190E+01 -0.6989612E+06 -0.2551063E+06 -0.1119966E-01 -0.1190186E-01  0.1664972E+07  0.5182646E+06
  0.1257143E+01 -0.6958000E+06 -0.2946045E+06  0.4855069E-03  0.7812500E-02  0.1654694E+07  0.5949967E+06
  0.1288095E+01 -0.6924173E+06 -0.3392020E+06 -0.2748274E-02 -0.1068115E-01  0.1642868E+07  0.6807581E+06
  0.1319048E+01 -0.6836618E+06 -0.3853163E+06  0.3748043E-02 -0.1110840E-01  0.1621547E+07  0.7687036E+06
  0.1350000E+01 -0.6699897E+06 -0.4325346E+06 -0.1279478E-01 -0.2740479E-01  0.1589854E+07  0.8572598E+06
  0.1380952E+01 -0.6530076E+06 -0.4809809E+06 -0.2033102E-02 -0.1867676E-01  0.1552295E+07  0.9469964E+06
  0.1411905E+01 -0.6311914E+06 -0.5283553E+06  0.1469784E-02 -0.6469727E-02  0.1506310E+07  0.1034008E+07
  0.1442857E+01 -0.6055327E+06 -0.5734639E+06  0.1480556E-02  0.5920410E-02  0.1452138E+07  0.1113510E+07
  0.1473810E+01 -0.5773378E+06 -0.6158302E+06 -0.4845343E-02 -0.2239990E-01  0.1393758E+07  0.1186762E+07
  0.1504762E+01 -0.5469712E+06 -0.6539253E+06 -0.1387198E-01 -0.1831055E-01  0.1332629E+07  0.1251365E+07
  0.1535714E+01 -0.5141591E+06 -0.6855698E+06  0.1430777E-02  0.1831055E-03  0.1267475E+07  0.1301961E+07
  0.1566667E+01 -0.4798909E+06 -0.7097970E+06 -0.5765874E-02  0.5676270E-02  0.1200066E+07  0.1336903E+07
  0.1597619E+01 -0.4465109E+06 -0.7285436E+06 -0.2330433E-02  0.1708984E-02  0.1136100E+07  0.1361920E+07
  0.1628572E+01 -0.4140776E+06 -0.7410030E+06 -0.1619038E-01 -0.5065918E-02  0.1074542E+07  0.1374458E+07
  0.1659524E+01 -0.3824905E+06 -0.7459922E+06 -0.2133165E-02  0.1379395E-01  0.1015392E+07  0.1371491E+07
  0.1690476E+01 -0.3532728E+06 -0.7459343E+06  0.1263686E-02  0.6225586E-02  0.9615344E+06  0.1359492E+07
  0.1721429E+01 -0.3265902E+06 -0.7416814E+06 -0.1282625E-01 -0.1098633E-01  0.9129551E+06  0.1339917E+07
  0.1752381E+01 -0.3019933E+06 -0.7321494E+06  0.1279997E-02 -0.8422852E-02  0.8695876E+06  0.1311014E+07
  0.1783333E+01 -0.2796240E+06 -0.7181498E+06 -0.6999078E-02 -0.8911133E-02  0.8305428E+06  0.1273315E+07
  0.1814286E+01 -0.2598113E+06 -0.7004776E+06 -0.1892330E-01 -0.1556396E-01  0.7967218E+06  0.1229138E+07
  0.1845238E+01 -0.2429622E+06 -0.6818311E+06  0.5920804E-02  0.1074219E-01  0.7692169E+06  0.1185249E+07
  0.1876190E+01 -0.2284969E+06 -0.6619553E+06  0.7392767E-02  0.1281738E-02  0.7461324E+06  0.1139751E+07
  0.1907143E+01 -0.2157609E+06 -0.6392117E+06 -0.6736727E-02 -0.2258301E-02  0.7265680E+06  0.1088784E+07
  0.1938095E+01 -0.2052851E+06 -0.6164352E+06  0.2235956E-02 -0.1159668E-02  0.7115066E+06  0.1039186E+07
  0.1969048E+01 -0.1966823E+06 -0.5934842E+06  0.3828167E-02  0.2319336E-02  0.6993244E+06  0.9895034E+06
  0.2000000E+01 -0.1897258E+06 -0.5708678E+06  0.3555298E-02  0.6164551E-02  0.6906202E+06  0.9419325E+06
