VARIABLES="w (rad/s)"
"A   1   1" "B   1   1"
"A   1   2" "B   1   2"
"A   1   3" "B   1   3"
Zone t="Motion of body    1 in DoF   1",I=    64,F=POINT
  0.5000000E-01  0.1128331E+06  0.1775761E-01  0.2262115E-01  0.7860258E-04  0.1822324E+04  0.3793325E-03
  0.8095238E-01  0.1131585E+06  0.7816712E-01 -0.1083823E-01 -0.1040796E-03  0.1801700E+04  0.1667397E-02
  0.1119048E+00  0.1133676E+06  0.2192455E+00  0.2699832E-01  0.2962919E-03  0.1778433E+04  0.4703794E-02
  0.1428571E+00  0.1133070E+06  0.4932372E+00  0.9853363E-02 -0.9108800E-05  0.1795974E+04  0.1065084E-01
  0.1738095E+00  0.1137641E+06  0.9822839E+00  0.1637289E-01  0.1904105E-03  0.1807078E+04  0.2134006E-01
  0.2047619E+00  0.1139649E+06  0.1811062E+01  0.2207645E-01  0.1837006E-03  0.1836628E+04  0.3977636E-01
  0.2357143E+00  0.1141495E+06  0.3187433E+01  0.2217148E-01  0.5576983E-03  0.1830043E+04  0.7039279E-01
  0.2666667E+00  0.1147174E+06  0.5439770E+01  0.2268791E-01  0.1905328E-03  0.1865631E+04  0.1216309E+00
  0.2976190E+00  0.1149456E+06  0.9114524E+01  0.2578857E-01  0.6393157E-03  0.1896445E+04  0.2064700E+00
  0.3285715E+00  0.1153506E+06  0.1507064E+02  0.1780966E-01  0.3995448E-03  0.1907248E+04  0.3453271E+00
  0.3595238E+00  0.1160727E+06  0.2474742E+02  0.2041444E-01  0.6792024E-03  0.1974449E+04  0.5777566E+00
  0.3904762E+00  0.1166427E+06  0.4032589E+02  0.1596311E-01  0.1260296E-02  0.1996689E+04  0.9545619E+00
  0.4214286E+00  0.1169766E+06  0.6476560E+02  0.1553293E-01  0.6404370E-03  0.2000536E+04  0.1553272E+01
  0.4523810E+00  0.1178964E+06  0.1032765E+03  0.1511102E-01  0.1722664E-02  0.2066737E+04  0.2525314E+01
  0.4833333E+00  0.1189101E+06  0.1606266E+03  0.2847606E-01  0.2068520E-02  0.2136256E+04  0.4009715E+01
  0.5142857E+00  0.1196577E+06  0.2455003E+03  0.2029419E-01  0.2026498E-02  0.2168500E+04  0.6234620E+01
  0.5452381E+00  0.1203927E+06  0.3661611E+03  0.1953392E-01  0.3499031E-02  0.2186272E+04  0.9446044E+01
  0.5761905E+00  0.1215648E+06  0.5337502E+03  0.2272172E-01  0.6726742E-02  0.2266646E+04  0.1408598E+02
  0.6071429E+00  0.1230182E+06  0.7640853E+03  0.1636101E-01  0.2436638E-03  0.2372990E+04  0.2066437E+02
  0.6380953E+00  0.1242634E+06  0.1068826E+04  0.6432604E-02  0.1167297E-02  0.2422318E+04  0.2947479E+02
  0.6690477E+00  0.1252272E+06  0.1467891E+04  0.5428002E-02  0.2610207E-02  0.2464677E+04  0.4130411E+02
  0.7000000E+00  0.1266668E+06  0.1986768E+04 -0.5078997E-02 -0.1528740E-02  0.2552993E+04  0.5720558E+02
  0.7309524E+00  0.1283956E+06  0.2647705E+04  0.2897480E-01  0.9822845E-02  0.2648094E+04  0.7800841E+02
  0.7619048E+00  0.1301594E+06  0.3480927E+04  0.8711814E-02 -0.2433777E-02  0.2772850E+04  0.1053014E+03
  0.7928572E+00  0.1319315E+06  0.4519039E+04  0.1451097E-01  0.6148338E-02  0.2897318E+04  0.1403874E+03
  0.8238096E+00  0.1334705E+06  0.5793961E+04  0.1885563E-01  0.8584976E-02  0.2955412E+04  0.1837657E+03
  0.8547620E+00  0.1350281E+06  0.7342783E+04  0.1713745E-01  0.1040268E-01  0.3040350E+04  0.2382085E+03
  0.8857143E+00  0.1368093E+06  0.9206828E+04  0.1643519E-01  0.4880905E-02  0.3173806E+04  0.3064889E+03
  0.9166667E+00  0.1387673E+06  0.1142799E+05  0.1711204E-01 -0.1029968E-02  0.3327839E+04  0.3911166E+03
  0.9476191E+00  0.1406673E+06  0.1404448E+05  0.6183260E-02 -0.8621216E-03  0.3469685E+04  0.4933088E+03
  0.9785714E+00  0.1424337E+06  0.1709662E+05  0.1110216E-01  0.4520416E-02  0.3608320E+04  0.6164150E+03
  0.1009524E+01  0.1438417E+06  0.2061281E+05  0.2738809E-01  0.9864807E-02  0.3731452E+04  0.7633004E+03
  0.1040476E+01  0.1449720E+06  0.2462315E+05  0.2894910E-01  0.9216309E-02  0.3840529E+04  0.9365195E+03
  0.1071429E+01  0.1459079E+06  0.2913756E+05 -0.1310221E-02 -0.6713867E-02  0.3946436E+04  0.1136996E+04
  0.1102381E+01  0.1466595E+06  0.3415783E+05  0.1882466E-01  0.4959106E-03  0.4053714E+04  0.1366166E+04
  0.1133333E+01  0.1471582E+06  0.3968054E+05  0.2819286E-01  0.1660156E-01  0.4154046E+04  0.1627873E+04
  0.1164286E+01  0.1472141E+06  0.4568107E+05  0.3564752E-02  0.2067566E-02  0.4253963E+04  0.1926886E+04
  0.1195238E+01  0.1468798E+06  0.5212984E+05  0.1245993E-01  0.3120422E-02  0.4343162E+04  0.2261794E+04
  0.1226190E+01  0.1461069E+06  0.5895664E+05  0.8611291E-02 -0.1005554E-01  0.4419193E+04  0.2629469E+04
  0.1257143E+01  0.1448393E+06  0.6611286E+05 -0.2476085E-02 -0.5661011E-02  0.4450878E+04  0.3025591E+04
  0.1288095E+01  0.1431546E+06  0.7338452E+05  0.1530505E-01  0.1125336E-01  0.4456730E+04  0.3442844E+04
  0.1319048E+01  0.1409598E+06  0.8081865E+05  0.1265543E-01  0.7019043E-03  0.4445127E+04  0.3893882E+04
  0.1350000E+01  0.1382904E+06  0.8826647E+05  0.1085069E-01  0.5813599E-02  0.4417696E+04  0.4371493E+04
  0.1380952E+01  0.1352790E+06  0.9561416E+05 -0.3204346E-02 -0.4776001E-02  0.4374262E+04  0.4868155E+04
  0.1411905E+01  0.1313926E+06  0.1022543E+06  0.1303353E-01  0.2090454E-02  0.4224481E+04  0.5332974E+04
  0.1442857E+01  0.1277351E+06  0.1090775E+06  0.7487382E-02  0.1840210E-01  0.4122787E+04  0.5839016E+04
  0.1473810E+01  0.1237746E+06  0.1155307E+06  0.9090195E-02  0.5386353E-02  0.3989626E+04  0.6346927E+04
  0.1504762E+01  0.1196451E+06  0.1215469E+06  0.6570937E-02  0.3060913E-01  0.3844947E+04  0.6853809E+04
  0.1535714E+01  0.1153475E+06  0.1270697E+06  0.1285713E-01 -0.7644653E-02  0.3692658E+04  0.7360456E+04
  0.1566667E+01  0.1109912E+06  0.1320608E+06  0.6252857E-02 -0.1026917E-01  0.3522695E+04  0.7857586E+04
  0.1597619E+01  0.1066214E+06  0.1364919E+06  0.9780179E-02  0.4882812E-03  0.3338277E+04  0.8343388E+04
  0.1628572E+01  0.1022987E+06  0.1403628E+06  0.8113927E-02  0.2369690E-01  0.3140452E+04  0.8813109E+04
  0.1659524E+01  0.9805650E+05  0.1436738E+06 -0.3512367E-02  0.1513672E-01  0.2926941E+04  0.9256166E+04
  0.1690476E+01  0.9389285E+05  0.1464438E+06  0.9297115E-02  0.2041626E-01  0.2706731E+04  0.9670692E+04
  0.1721429E+01  0.8988672E+05  0.1487064E+06  0.3226506E-02  0.3723145E-02  0.2484618E+04  0.1006072E+05
  0.1752381E+01  0.8602555E+05  0.1504831E+06  0.1363588E-01 -0.5172729E-02  0.2261452E+04  0.1043943E+05
  0.1783333E+01  0.8232046E+05  0.1518019E+06  0.1625703E-02  0.4074097E-02  0.2042625E+04  0.1080385E+05
  0.1814286E+01  0.7881960E+05  0.1526948E+06  0.2270796E-02  0.6317139E-02  0.1825104E+04  0.1115030E+05
  0.1845238E+01  0.7552842E+05  0.1531984E+06  0.1399162E-01  0.3387451E-02  0.1616614E+04  0.1148621E+05
  0.1876190E+01  0.7243334E+05  0.1533503E+06  0.1041006E-01  0.1344299E-01  0.1407782E+04  0.1179802E+05
  0.1907143E+01  0.6953766E+05  0.1531676E+06  0.6368687E-02 -0.1190186E-02  0.1197671E+04  0.1207802E+05
  0.1938095E+01  0.6682411E+05  0.1526936E+06 -0.7243239E-03 -0.6408691E-03  0.9981980E+03  0.1233556E+05
  0.1969048E+01  0.6429873E+05  0.1519809E+06  0.1095755E-01  0.7324219E-02  0.7960899E+03  0.1257031E+05
  0.2000000E+01  0.6196043E+05  0.1510569E+06  0.7827759E-02  0.5752563E-02  0.6037753E+03  0.1278784E+05
Zone t="Motion of body    1 in DoF   2",I=    64,F=POINT
  0.5000000E-01  0.5302429E-02  0.3391504E-04  0.1954578E+06  0.6276479E+03 -0.1525879E-02 -0.3814697E-04
  0.8095238E-01  0.2374986E-01 -0.1635551E-03  0.1923771E+06  0.1039764E+04 -0.7256900E-02 -0.6651878E-04
  0.1119048E+00  0.3170257E-02 -0.1126528E-03  0.1907193E+06  0.1486990E+04 -0.1009028E-01 -0.7247925E-04
  0.1428571E+00  0.2453995E-01 -0.2155304E-03  0.1897626E+06  0.1985657E+04 -0.6782531E-02 -0.8201599E-04
  0.1738095E+00 -0.8120602E-03  0.1866817E-03  0.1893499E+06  0.2555877E+04 -0.7286594E-02 -0.8010864E-04
  0.2047619E+00  0.5235007E-02 -0.2379417E-03  0.1894061E+06  0.3223299E+04 -0.1117795E-01 -0.1449585E-03
  0.2357143E+00  0.3981157E-02 -0.1316071E-03  0.1897120E+06  0.4023244E+04 -0.7509173E-02 -0.1049042E-03
  0.2666667E+00  0.1075745E-01  0.5197525E-04  0.1902984E+06  0.4983808E+04 -0.8068085E-02 -0.7629395E-04
  0.2976190E+00  0.6767578E-02 -0.2241135E-03  0.1909909E+06  0.6172388E+04 -0.8869629E-02 -0.8773804E-04
  0.3285715E+00 -0.1235298E-01 -0.8487701E-04  0.1918632E+06  0.7619036E+04 -0.7616125E-02 -0.4386902E-04
  0.3595238E+00  0.1111972E-01  0.1460075E-02  0.1925084E+06  0.9401749E+04 -0.1196855E-01 -0.1964569E-03
  0.3904762E+00  0.4572054E-02  0.9155273E-03  0.1931919E+06  0.1157153E+05 -0.1086351E-01 -0.1678467E-03
  0.4214286E+00 -0.1287169E-01 -0.2326965E-03  0.1931637E+06  0.1409614E+05 -0.9993212E-02 -0.1564026E-03
  0.4523810E+00  0.1005153E-01  0.1348495E-02  0.1929204E+06  0.1710137E+05 -0.6948370E-02 -0.5455017E-03
  0.4833333E+00  0.1707932E-01 -0.2365112E-03  0.1918537E+06  0.2031073E+05 -0.7134799E-02 -0.5645752E-03
  0.5142857E+00 -0.9880067E-02  0.9632111E-03  0.1902267E+06  0.2388316E+05 -0.1002842E-01 -0.1388550E-02
  0.5452381E+00  0.1651148E-02 -0.1373291E-03  0.1881544E+06  0.2759891E+05 -0.4701573E-02 -0.8392334E-03
  0.5761905E+00  0.2007350E-01  0.2788544E-02  0.1855358E+06  0.3138299E+05 -0.9533590E-02 -0.2136230E-03
  0.6071429E+00 -0.3417968E-02  0.4692078E-03  0.1824998E+06  0.3532928E+05 -0.4372989E-02 -0.9689331E-03
  0.6380953E+00 -0.4495649E-02 -0.2487183E-02  0.1793450E+06  0.3916955E+05 -0.5499996E-02 -0.6484985E-03
  0.6690477E+00 -0.1106126E-01  0.1426697E-02  0.1758803E+06  0.4301162E+05 -0.6203431E-02 -0.6942749E-03
  0.7000000E+00 -0.1349313E-01  0.1049042E-02  0.1722009E+06  0.4686323E+05 -0.8283342E-02 -0.1052856E-02
  0.7309524E+00  0.8329211E-02 -0.1716614E-03  0.1684792E+06  0.5058554E+05 -0.1098036E-01 -0.1571655E-02
  0.7619048E+00  0.3108215E-01  0.9803772E-03  0.1645890E+06  0.5421223E+05 -0.5407333E-02 -0.9155273E-03
  0.7928572E+00 -0.7505674E-03 -0.3089905E-02  0.1606315E+06  0.5771732E+05 -0.2771326E-02 -0.1358032E-02
  0.8238096E+00  0.8149780E-02 -0.5111694E-02  0.1566427E+06  0.6107291E+05 -0.5149180E-02 -0.2777100E-02
  0.8547620E+00  0.1990443E-01  0.2151489E-02  0.1526637E+06  0.6424751E+05 -0.6140918E-02 -0.1983643E-02
  0.8857143E+00  0.2449774E-01 -0.7057190E-02  0.1487007E+06  0.6723180E+05 -0.6959977E-02 -0.5020142E-02
  0.9166667E+00 -0.4993785E-03 -0.9155273E-03  0.1448180E+06  0.6999634E+05 -0.6891424E-02 -0.4882812E-03
  0.9476191E+00  0.1272077E-02 -0.8659363E-02  0.1409470E+06  0.7254735E+05 -0.4927285E-02 -0.2319336E-02
  0.9785714E+00 -0.3991788E-02  0.2761841E-02  0.1371357E+06  0.7485982E+05 -0.3679930E-02 -0.1663208E-02
  0.1009524E+01  0.2131192E-01 -0.2220154E-02  0.1333967E+06  0.7693891E+05 -0.6045936E-02  0.1068115E-03
  0.1040476E+01  0.1796487E-01  0.2487183E-02  0.1298112E+06  0.7876381E+05 -0.8271172E-02  0.8239746E-03
  0.1071429E+01 -0.5981445E-02  0.5638123E-02  0.1263688E+06  0.8033155E+05 -0.4956055E-02  0.3509521E-03
  0.1102381E+01  0.1047814E-01  0.1205444E-02  0.1230629E+06  0.8165443E+05 -0.3266633E-02 -0.1281738E-02
  0.1133333E+01  0.1381369E-01 -0.8773804E-02  0.1198708E+06  0.8274420E+05 -0.3769818E-02 -0.3082275E-02
  0.1164286E+01  0.1271254E-01  0.6652832E-02  0.1168250E+06  0.8360148E+05 -0.4141404E-02  0.2441406E-03
  0.1195238E+01 -0.1653238E-01  0.3723145E-02  0.1139499E+06  0.8422303E+05 -0.4391613E-02 -0.5798340E-03
  0.1226190E+01  0.9283270E-02  0.5920410E-02  0.1112548E+06  0.8459843E+05 -0.4828296E-02 -0.9613037E-03
  0.1257143E+01 -0.6408691E-02 -0.1815796E-02  0.1087118E+06  0.8480843E+05 -0.4952170E-02 -0.3311157E-02
  0.1288095E+01  0.1551827E-02  0.2571106E-02  0.1063041E+06  0.8472561E+05 -0.4927940E-02  0.8697510E-03
  0.1319048E+01  0.1514256E-01  0.1339722E-01  0.1040383E+06  0.8450314E+05 -0.5136207E-02 -0.3356934E-03
  0.1350000E+01  0.7652000E-02 -0.9689331E-02  0.1019379E+06  0.8408641E+05 -0.3888165E-02  0.2212524E-02
  0.1380952E+01  0.1325936E-02  0.1548767E-02  0.1000164E+06  0.8348053E+05 -0.5966713E-02  0.3875732E-02
  0.1411905E+01  0.6095281E-02 -0.2330017E-01  0.9823027E+05  0.8283831E+05 -0.3977063E-02  0.1022339E-02
  0.1442857E+01  0.7297025E-02  0.2925110E-01  0.9659466E+05  0.8193266E+05 -0.4018651E-02 -0.1144409E-02
  0.1473810E+01  0.1451532E-01  0.1246643E-01  0.9510803E+05  0.8088536E+05 -0.5715020E-02  0.2059937E-02
  0.1504762E+01  0.2088909E-01  0.1443481E-01  0.9375204E+05  0.7971037E+05 -0.4786238E-02  0.4898071E-02
  0.1535714E+01 -0.1748728E-02 -0.1930237E-02  0.9249425E+05  0.7842632E+05 -0.6517986E-02  0.4714966E-02
  0.1566667E+01  0.3525754E-02  0.2529144E-02  0.9138823E+05  0.7703295E+05 -0.4947743E-02  0.3402710E-02
  0.1597619E+01  0.1050605E-01  0.1216888E-01  0.9041645E+05  0.7555151E+05 -0.5806981E-02  0.3875732E-02
  0.1628572E+01  0.1637777E-01 -0.4573822E-02  0.8956216E+05  0.7397545E+05 -0.3635339E-02  0.3845215E-02
  0.1659524E+01  0.4946737E-02  0.3814697E-03  0.8879841E+05  0.7233733E+05 -0.3604314E-02  0.2899170E-02
  0.1690476E+01  0.8899957E-02  0.4230499E-02  0.8814034E+05  0.7062733E+05 -0.6715586E-02  0.1663208E-02
  0.1721429E+01 -0.6133907E-02 -0.2067566E-01  0.8756959E+05  0.6886470E+05 -0.3935628E-02  0.1480103E-02
  0.1752381E+01  0.5189647E-02  0.6984711E-02  0.8707032E+05  0.6706667E+05 -0.5607605E-02  0.5432129E-02
  0.1783333E+01  0.1745491E-02  0.2723694E-02  0.8665423E+05  0.6522073E+05 -0.6263234E-02  0.2044678E-02
  0.1814286E+01 -0.3532350E-03 -0.7366180E-02  0.8632488E+05  0.6336035E+05 -0.3801481E-02  0.1686096E-02
  0.1845238E+01 -0.2331937E-02 -0.2625656E-01  0.8606688E+05  0.6146895E+05 -0.6450038E-02  0.5256653E-02
  0.1876190E+01  0.4164023E-02  0.2742767E-02  0.8587175E+05  0.5953093E+05 -0.5530343E-02  0.4287720E-02
  0.1907143E+01  0.5696615E-02 -0.7694244E-02  0.8571932E+05  0.5757646E+05 -0.6464698E-02  0.2418518E-02
  0.1938095E+01  0.7715624E-03 -0.5565643E-02  0.8561329E+05  0.5558608E+05 -0.5070267E-02  0.6027222E-02
  0.1969048E+01  0.3022237E-02 -0.5302429E-02  0.8555058E+05  0.5357984E+05 -0.6323449E-02  0.2296448E-02
  0.2000000E+01  0.3890991E-02 -0.1702690E-01  0.8552195E+05  0.5154852E+05 -0.5096436E-02  0.4943848E-02
Zone t="Motion of body    1 in DoF   3",I=    64,F=POINT
  0.5000000E-01  0.1787424E+04  0.3804954E-03 -0.1855850E-01 -0.4986775E-04  0.5712036E+04  0.7338322E-05
  0.8095238E-01  0.1762267E+04  0.1675673E-02  0.5908012E-02  0.5420205E-04  0.5687367E+04  0.3673294E-04
  0.1119048E+00  0.1730109E+04  0.4722127E-02 -0.8794907E-02 -0.4432338E-04  0.5651240E+04  0.1051161E-03
  0.1428571E+00  0.1754819E+04  0.1067367E-01 -0.9566307E-02 -0.6608192E-04  0.5690188E+04  0.2313830E-03
  0.1738095E+00  0.1761835E+04  0.2142501E-01 -0.1766780E-02  0.2184970E-04  0.5678486E+04  0.5078409E-03
  0.2047619E+00  0.1796622E+04  0.3986663E-01 -0.7456624E-02 -0.1129656E-03  0.5689506E+04  0.8967937E-03
  0.2357143E+00  0.1784517E+04  0.7080633E-01 -0.1664479E-01 -0.2916814E-03  0.5667198E+04  0.1583254E-02
  0.2666667E+00  0.1821241E+04  0.1221591E+00 -0.2109289E-01 -0.5545036E-03  0.5680545E+04  0.2655256E-02
  0.2976190E+00  0.1856277E+04  0.2070729E+00 -0.1008087E-01 -0.1843121E-03  0.5683838E+04  0.4597787E-02
  0.3285715E+00  0.1865383E+04  0.3472036E+00 -0.2252330E-02  0.1027794E-03  0.5689688E+04  0.7943262E-02
  0.3595238E+00  0.1935973E+04  0.5782770E+00 -0.1655225E-02  0.1520532E-03  0.5692993E+04  0.1355071E-01
  0.3904762E+00  0.1957885E+04  0.9579743E+00 -0.1786813E-01 -0.8860346E-03  0.5693425E+04  0.2258430E-01
  0.4214286E+00  0.1959548E+04  0.1563816E+01 -0.1624802E-01 -0.9235300E-03  0.5698643E+04  0.3733401E-01
  0.4523810E+00  0.2025554E+04  0.2535064E+01 -0.2079452E-01 -0.1715894E-02  0.5684446E+04  0.6195156E-01
  0.4833333E+00  0.2099179E+04  0.4017183E+01 -0.5635228E-02 -0.1693526E-03  0.5717215E+04  0.1000227E+00
  0.5142857E+00  0.2127346E+04  0.6256166E+01  0.8062787E-02  0.2011955E-02  0.5689397E+04  0.1586105E+00
  0.5452381E+00  0.2145429E+04  0.9522497E+01 -0.3827024E-02 -0.2256520E-03  0.5710469E+04  0.2457423E+00
  0.5761905E+00  0.2226271E+04  0.1416401E+02 -0.5733395E-02  0.1922064E-03  0.5712735E+04  0.3738263E+00
  0.6071429E+00  0.2334092E+04  0.2068825E+02 -0.6496653E-02 -0.4093908E-03  0.5708637E+04  0.5598624E+00
  0.6380953E+00  0.2384001E+04  0.2962084E+02 -0.7532604E-02 -0.6085262E-03  0.5730016E+04  0.8171736E+00
  0.6690477E+00  0.2425433E+04  0.4163443E+02 -0.7526221E-02 -0.5645901E-03  0.5723551E+04  0.1172971E+01
  0.7000000E+00  0.2512784E+04  0.5761554E+02 -0.4959106E-03  0.1120478E-02  0.5712137E+04  0.1657679E+01
  0.7309524E+00  0.2609359E+04  0.7861309E+02  0.3293065E-02  0.3375471E-02  0.5742224E+04  0.2312682E+01
  0.7619048E+00  0.2736088E+04  0.1057969E+03 -0.8321284E-02 -0.1039177E-02  0.5761526E+04  0.3203311E+01
  0.7928572E+00  0.2858397E+04  0.1407251E+03 -0.9483130E-02 -0.1675189E-02  0.5744674E+04  0.4370100E+01
  0.8238096E+00  0.2918700E+04  0.1855031E+03 -0.1405374E-01 -0.4522264E-02  0.5748801E+04  0.5891499E+01
  0.8547620E+00  0.3005713E+04  0.2411507E+03 -0.1486584E-01 -0.6456196E-02  0.5772063E+04  0.7830507E+01
  0.8857143E+00  0.3140018E+04  0.3096078E+03  0.6675720E-03  0.4815459E-02  0.5780097E+04  0.1031392E+02
  0.9166667E+00  0.3288076E+04  0.3938235E+03  0.3745339E-03  0.4277885E-02  0.5766399E+04  0.1340225E+02
  0.9476191E+00  0.3434449E+04  0.4969348E+03  0.2681023E-02  0.6113172E-02  0.5788597E+04  0.1746495E+02
  0.9785714E+00  0.3577685E+04  0.6213270E+03 -0.3157567E-02  0.1229048E-02  0.5824937E+04  0.2245576E+02
  0.1009524E+01  0.3698564E+04  0.7697122E+03 -0.6249986E-02 -0.2303958E-02  0.5832772E+04  0.2863577E+02
  0.1040476E+01  0.3807070E+04  0.9462769E+03  0.9239074E-03  0.8780360E-02  0.5820100E+04  0.3600214E+02
  0.1071429E+01  0.3911771E+04  0.1150628E+04 -0.2634684E-02  0.6783009E-03  0.5815546E+04  0.4491697E+02
  0.1102381E+01  0.4031082E+04  0.1386407E+04 -0.2498421E-02  0.6303310E-02  0.5838678E+04  0.5507141E+02
  0.1133333E+01  0.4134367E+04  0.1654440E+04 -0.6725087E-02 -0.4107237E-02  0.5869039E+04  0.6799415E+02
  0.1164286E+01  0.4230057E+04  0.1956642E+04 -0.3826867E-02  0.1223326E-02  0.5884181E+04  0.8278307E+02
  0.1195238E+01  0.4320327E+04  0.2296070E+04 -0.3210729E-02  0.1363277E-02  0.5882042E+04  0.9972923E+02
  0.1226190E+01  0.4395154E+04  0.2666041E+04 -0.1823055E-02  0.8310795E-02  0.5882419E+04  0.1181918E+03
  0.1257143E+01  0.4433918E+04  0.3075693E+04 -0.6960955E-02 -0.3646851E-02  0.5893478E+04  0.1393538E+03
  0.1288095E+01  0.4443990E+04  0.3507806E+04 -0.8511358E-02 -0.6320477E-02  0.5923191E+04  0.1653673E+03
  0.1319048E+01  0.4428457E+04  0.3970701E+04 -0.3615011E-02  0.9958744E-02  0.5937183E+04  0.1930717E+03
  0.1350000E+01  0.4393068E+04  0.4452188E+04 -0.9217438E-02  0.5087852E-02  0.5948320E+04  0.2222978E+03
  0.1380952E+01  0.4343211E+04  0.4951694E+04 -0.6690453E-02  0.4110336E-03  0.5929008E+04  0.2519959E+03
  0.1411905E+01  0.3980503E+04  0.5240643E+04 -0.5063190E-02  0.2767563E-02  0.5873850E+04  0.2680982E+03
  0.1442857E+01  0.3884591E+04  0.5748110E+04 -0.1432966E-02  0.1548958E-01  0.5876564E+04  0.3031860E+03
  0.1473810E+01  0.3761312E+04  0.6268759E+04 -0.4793577E-02  0.3667831E-02  0.5899723E+04  0.3421831E+03
  0.1504762E+01  0.3618240E+04  0.6776031E+04 -0.5131009E-02 -0.3361702E-02  0.5930884E+04  0.3870992E+03
  0.1535714E+01  0.3468638E+04  0.7271680E+04 -0.4565571E-02 -0.3026009E-02  0.5941104E+04  0.4284781E+03
  0.1566667E+01  0.3301102E+04  0.7754771E+04 -0.6359993E-02  0.4961967E-02  0.5942077E+04  0.4685787E+03
  0.1597619E+01  0.3116253E+04  0.8230959E+04 -0.6360936E-02  0.9952545E-02  0.5908436E+04  0.4976630E+03
  0.1628572E+01  0.2910369E+04  0.8687421E+04 -0.3522906E-02 -0.6891251E-02  0.5878529E+04  0.5295172E+03
  0.1659524E+01  0.2694962E+04  0.9135231E+04 -0.3015855E-02 -0.4095078E-02  0.5867477E+04  0.5683407E+03
  0.1690476E+01  0.2480162E+04  0.9573643E+04 -0.6259757E-02  0.2603531E-02  0.5876434E+04  0.6178845E+03
  0.1721429E+01  0.2256336E+04  0.9974323E+04 -0.3044793E-02  0.4957199E-02  0.5900991E+04  0.6808843E+03
  0.1752381E+01  0.2027057E+04  0.1035194E+05 -0.4532234E-02  0.1497269E-03  0.5904209E+04  0.7392109E+03
  0.1783333E+01  0.1805758E+04  0.1069708E+05 -0.6605487E-02  0.6287575E-02  0.5905696E+04  0.7895453E+03
  0.1814286E+01  0.1588339E+04  0.1102778E+05 -0.5647555E-02  0.7077217E-02  0.5891914E+04  0.8268809E+03
  0.1845238E+01  0.1382195E+04  0.1134880E+05 -0.4585315E-02 -0.1505852E-02  0.5852154E+04  0.8346429E+03
  0.1876190E+01  0.1171281E+04  0.1164138E+05 -0.5278225E-02 -0.2234459E-02  0.5824007E+04  0.8451155E+03
  0.1907143E+01  0.9601012E+03  0.1192623E+05 -0.6552707E-02  0.3898621E-02  0.5814246E+04  0.8772283E+03
  0.1938095E+01  0.7638296E+03  0.1220124E+05 -0.6766917E-02  0.5215645E-02  0.5812498E+04  0.9315065E+03
  0.1969048E+01  0.5599521E+03  0.1245679E+05 -0.4262129E-02 -0.4539490E-03  0.5827861E+04  0.1008033E+04
  0.2000000E+01  0.3573409E+03  0.1266952E+05 -0.6843567E-02 -0.1153946E-02  0.5845574E+04  0.1106894E+04
