VARIABLES="w (rad/s)"
"abs(F   1   1)" "angle(F   1   1)"
"abs(F   1   2)" "angle(F   1   2)"
"abs(F   1   3)" "angle(F   1   3)"
Zone t="Diffraction force - beta =   0.000 deg",I=    64,F=POINT
  0.5000000E-01  0.3787941E+04 -0.1570808E+01  0.6364669E+06 -0.4307626E-04  0.1114630E+04 -0.1570885E+01
  0.8095238E-01  0.6179645E+04 -0.1570786E+01  0.6351894E+06 -0.1158578E-03  0.1813890E+04 -0.1570825E+01
  0.1119048E+00  0.8616358E+04 -0.1570796E+01  0.6333136E+06 -0.2299882E-03  0.2531005E+04 -0.1570816E+01
  0.1428571E+00  0.1114036E+05 -0.1570786E+01  0.6308419E+06 -0.3941449E-03  0.3297813E+04 -0.1570807E+01
  0.1738095E+00  0.1375778E+05 -0.1570791E+01  0.6277619E+06 -0.6214747E-03  0.4103149E+04 -0.1570800E+01
  0.2047619E+00  0.1652288E+05 -0.1570782E+01  0.6240719E+06 -0.9308023E-03  0.4986012E+04 -0.1570788E+01
  0.2357143E+00  0.1944112E+05 -0.1570772E+01  0.6197558E+06 -0.1350095E-02  0.5912994E+04 -0.1570776E+01
  0.2666667E+00  0.2257892E+05 -0.1570752E+01  0.6148072E+06 -0.1913164E-02  0.6969025E+04 -0.1570760E+01
  0.2976190E+00  0.2597937E+05 -0.1570725E+01  0.6092276E+06 -0.2677379E-02  0.8137939E+04 -0.1570734E+01
  0.3285715E+00  0.2966203E+05 -0.1570694E+01  0.6029906E+06 -0.3700401E-02  0.9402711E+04 -0.1570698E+01
  0.3595238E+00  0.3370921E+05 -0.1570643E+01  0.5961248E+06 -0.5074307E-02  0.1086630E+05 -0.1570650E+01
  0.3904762E+00  0.3819556E+05 -0.1570569E+01  0.5886264E+06 -0.6901449E-02  0.1257685E+05 -0.1570574E+01
  0.4214286E+00  0.4311347E+05 -0.1570461E+01  0.5805904E+06 -0.9244172E-02  0.1443598E+05 -0.1570465E+01
  0.4523810E+00  0.4849149E+05 -0.1570306E+01  0.5719632E+06 -0.1227918E-01  0.1654622E+05 -0.1570308E+01
  0.4833333E+00  0.5436262E+05 -0.1570089E+01  0.5629236E+06 -0.1592380E-01  0.1894993E+05 -0.1570092E+01
  0.5142857E+00  0.6071061E+05 -0.1569790E+01  0.5535081E+06 -0.2038124E-01  0.2162655E+05 -0.1569792E+01
  0.5452381E+00  0.6746017E+05 -0.1569394E+01  0.5436864E+06 -0.2557562E-01  0.2452428E+05 -0.1569396E+01
  0.5761905E+00  0.7454018E+05 -0.1568884E+01  0.5335441E+06 -0.3151980E-01  0.2766795E+05 -0.1568885E+01
  0.6071429E+00  0.8199109E+05 -0.1568232E+01  0.5231818E+06 -0.3838025E-01  0.3117114E+05 -0.1568234E+01
  0.6380953E+00  0.8976118E+05 -0.1567429E+01  0.5125586E+06 -0.4599104E-01  0.3495157E+05 -0.1567431E+01
  0.6690477E+00  0.9775280E+05 -0.1566442E+01  0.5017464E+06 -0.5450092E-01  0.3893745E+05 -0.1566445E+01
  0.7000000E+00  0.1059279E+06 -0.1565247E+01  0.4907638E+06 -0.6400107E-01  0.4316014E+05 -0.1565248E+01
  0.7309524E+00  0.1142861E+06 -0.1563827E+01  0.4796043E+06 -0.7441609E-01  0.4769123E+05 -0.1563830E+01
  0.7619048E+00  0.1228069E+06 -0.1562155E+01  0.4684091E+06 -0.8584301E-01  0.5253948E+05 -0.1562160E+01
  0.7928572E+00  0.1314940E+06 -0.1560212E+01  0.4572248E+06 -0.9832452E-01  0.5767973E+05 -0.1560222E+01
  0.8238096E+00  0.1402680E+06 -0.1557976E+01  0.4460278E+06 -0.1118595E+00  0.6308356E+05 -0.1557989E+01
  0.8547620E+00  0.1490547E+06 -0.1555434E+01  0.4348026E+06 -0.1264521E+00  0.6862476E+05 -0.1555444E+01
  0.8857143E+00  0.1577919E+06 -0.1552573E+01  0.4236043E+06 -0.1421254E+00  0.7441558E+05 -0.1552580E+01
  0.9166667E+00  0.1665030E+06 -0.1549403E+01  0.4124777E+06 -0.1589114E+00  0.8046170E+05 -0.1549413E+01
  0.9476191E+00  0.1751595E+06 -0.1545933E+01  0.4014991E+06 -0.1768273E+00  0.8682208E+05 -0.1545956E+01
  0.9785714E+00  0.1837008E+06 -0.1542179E+01  0.3907114E+06 -0.1958819E+00  0.9334938E+05 -0.1542221E+01
  0.1009524E+01  0.1920366E+06 -0.1538163E+01  0.3801120E+06 -0.2160703E+00  0.1000171E+06 -0.1538222E+01
  0.1040476E+01  0.2001392E+06 -0.1533924E+01  0.3696528E+06 -0.2373488E+00  0.1067670E+06 -0.1533990E+01
  0.1071429E+01  0.2079002E+06 -0.1529507E+01  0.3593419E+06 -0.2597189E+00  0.1135800E+06 -0.1529558E+01
  0.1102381E+01  0.2152792E+06 -0.1524988E+01  0.3491705E+06 -0.2831851E+00  0.1204193E+06 -0.1525013E+01
  0.1133333E+01  0.2222169E+06 -0.1520457E+01  0.3392114E+06 -0.3077787E+00  0.1272263E+06 -0.1520458E+01
  0.1164286E+01  0.2286437E+06 -0.1516015E+01  0.3294742E+06 -0.3335327E+00  0.1340101E+06 -0.1515999E+01
  0.1195238E+01  0.2345667E+06 -0.1511783E+01  0.3199618E+06 -0.3604101E+00  0.1406969E+06 -0.1511760E+01
  0.1226190E+01  0.2399068E+06 -0.1507878E+01  0.3106930E+06 -0.3884218E+00  0.1472477E+06 -0.1507839E+01
  0.1257143E+01  0.2446316E+06 -0.1504369E+01  0.3016536E+06 -0.4177463E+00  0.1535860E+06 -0.1504308E+01
  0.1288095E+01  0.2487048E+06 -0.1501608E+01  0.2928593E+06 -0.4476931E+00  0.1596845E+06 -0.1501521E+01
  0.1319048E+01  0.2521022E+06 -0.1499531E+01  0.2842886E+06 -0.4789714E+00  0.1654382E+06 -0.1499436E+01
  0.1350000E+01  0.2547794E+06 -0.1498368E+01  0.2759666E+06 -0.5113506E+00  0.1709147E+06 -0.1498252E+01
  0.1380952E+01  0.2567880E+06 -0.1498272E+01  0.2678185E+06 -0.5447295E+00  0.1759889E+06 -0.1498150E+01
  0.1411905E+01  0.2578466E+06 -0.1499854E+01  0.2612580E+06 -0.5720508E+00  0.1803996E+06 -0.1499718E+01
  0.1442857E+01  0.2585737E+06 -0.1502108E+01  0.2535851E+06 -0.6071387E+00  0.1847614E+06 -0.1501960E+01
  0.1473810E+01  0.2586474E+06 -0.1505813E+01  0.2461393E+06 -0.6432421E+00  0.1887031E+06 -0.1505646E+01
  0.1504762E+01  0.2581114E+06 -0.1511072E+01  0.2389196E+06 -0.6804250E+00  0.1921935E+06 -0.1510899E+01
  0.1535714E+01  0.2569910E+06 -0.1517981E+01  0.2319411E+06 -0.7186959E+00  0.1952342E+06 -0.1517806E+01
  0.1566667E+01  0.2553301E+06 -0.1526633E+01  0.2251895E+06 -0.7580004E+00  0.1978461E+06 -0.1526450E+01
  0.1597619E+01  0.2531974E+06 -0.1537120E+01  0.2186299E+06 -0.7983292E+00  0.2000320E+06 -0.1536940E+01
  0.1628572E+01  0.2506190E+06 -0.1549485E+01  0.2122620E+06 -0.8396158E+00  0.2018117E+06 -0.1549307E+01
  0.1659524E+01  0.2476461E+06 -0.1563761E+01  0.2060700E+06 -0.8818450E+00  0.2031772E+06 -0.1563594E+01
  0.1690476E+01  0.2443289E+06 -0.1579993E+01  0.2000285E+06 -0.9249969E+00  0.2041559E+06 -0.1579845E+01
  0.1721429E+01  0.2407193E+06 -0.1598224E+01  0.1941699E+06 -0.9691687E+00  0.2048105E+06 -0.1598076E+01
  0.1752381E+01  0.2368709E+06 -0.1618412E+01  0.1885069E+06 -0.1014495E+01  0.2051118E+06 -0.1618317E+01
  0.1783333E+01  0.2328098E+06 -0.1640578E+01  0.1830563E+06 -0.1060823E+01  0.2051124E+06 -0.1640541E+01
  0.1814286E+01  0.2285944E+06 -0.1664718E+01  0.1777917E+06 -0.1108254E+01  0.2048344E+06 -0.1664778E+01
  0.1845238E+01  0.2242524E+06 -0.1690835E+01  0.1726782E+06 -0.1156704E+01  0.2043305E+06 -0.1690963E+01
  0.1876190E+01  0.2198053E+06 -0.1718870E+01  0.1677046E+06 -0.1206043E+01  0.2035798E+06 -0.1719078E+01
  0.1907143E+01  0.2152890E+06 -0.1748749E+01  0.1628912E+06 -0.1256345E+01  0.2025751E+06 -0.1749133E+01
  0.1938095E+01  0.2107153E+06 -0.1780479E+01  0.1581648E+06 -0.1307548E+01  0.2013620E+06 -0.1781054E+01
  0.1969048E+01  0.2061242E+06 -0.1814113E+01  0.1535747E+06 -0.1359808E+01  0.2000344E+06 -0.1814871E+01
  0.2000000E+01  0.2015515E+06 -0.1849582E+01  0.1491449E+06 -0.1413193E+01  0.1986133E+06 -0.1850456E+01
