VARIABLES="w (rad/s)"
"abs(F   1   1)" "angle(F   1   1)"
"abs(F   1   2)" "angle(F   1   2)"
"abs(F   1   3)" "angle(F   1   3)"
Zone t="Diffraction force - beta =   0.000 deg",I=    64,F=POINT
  0.5000000E-01  0.9104868E+03 -0.1570795E+01  0.4673599E+03 -0.3090043E+01  0.1239281E+04 -0.1570794E+01
  0.8095238E-01  0.1484027E+04 -0.1570793E+01  0.1211170E+04 -0.3088183E+01  0.2011709E+04 -0.1570791E+01
  0.1119048E+00  0.2071229E+04 -0.1570789E+01  0.2300214E+04 -0.3085903E+01  0.2806217E+04 -0.1570786E+01
  0.1428571E+00  0.2673826E+04 -0.1570783E+01  0.3736504E+04 -0.3083041E+01  0.3620224E+04 -0.1570778E+01
  0.1738095E+00  0.3301611E+04 -0.1570774E+01  0.5529255E+04 -0.3079461E+01  0.4473058E+04 -0.1570766E+01
  0.2047619E+00  0.3956431E+04 -0.1570762E+01  0.7684804E+04 -0.3074976E+01  0.5356686E+04 -0.1570750E+01
  0.2357143E+00  0.4652357E+04 -0.1570745E+01  0.1021286E+05 -0.3069316E+01  0.6304365E+04 -0.1570725E+01
  0.2666667E+00  0.5395807E+04 -0.1570719E+01  0.1313268E+05 -0.3062480E+01  0.7315142E+04 -0.1570689E+01
  0.2976190E+00  0.6192348E+04 -0.1570680E+01  0.1644221E+05 -0.3053851E+01  0.8392678E+04 -0.1570634E+01
  0.3285715E+00  0.7061846E+04 -0.1570622E+01  0.2016259E+05 -0.3043546E+01  0.9580012E+04 -0.1570554E+01
  0.3595238E+00  0.8012807E+04 -0.1570536E+01  0.2429450E+05 -0.3031086E+01  0.1087880E+05 -0.1570434E+01
  0.3904762E+00  0.9047902E+04 -0.1570407E+01  0.2884825E+05 -0.3016337E+01  0.1227920E+05 -0.1570253E+01
  0.4214286E+00  0.1018908E+05 -0.1570219E+01  0.3374319E+05 -0.2999786E+01  0.1383970E+05 -0.1569991E+01
  0.4523810E+00  0.1143454E+05 -0.1569943E+01  0.3903602E+05 -0.2980758E+01  0.1554395E+05 -0.1569604E+01
  0.4833333E+00  0.1278056E+05 -0.1569560E+01  0.4463399E+05 -0.2961574E+01  0.1738769E+05 -0.1569067E+01
  0.5142857E+00  0.1421641E+05 -0.1569030E+01  0.5050198E+05 -0.2940780E+01  0.1934180E+05 -0.1568320E+01
  0.5452381E+00  0.1574647E+05 -0.1568325E+01  0.5663295E+05 -0.2920138E+01  0.2145702E+05 -0.1567330E+01
  0.5761905E+00  0.1734158E+05 -0.1567410E+01  0.6297634E+05 -0.2899897E+01  0.2362841E+05 -0.1566034E+01
  0.6071429E+00  0.1898720E+05 -0.1566231E+01  0.6951763E+05 -0.2879256E+01  0.2586020E+05 -0.1564359E+01
  0.6380953E+00  0.2068208E+05 -0.1564768E+01  0.7628617E+05 -0.2860047E+01  0.2817671E+05 -0.1562275E+01
  0.6690477E+00  0.2240704E+05 -0.1562958E+01  0.8318284E+05 -0.2841010E+01  0.3052527E+05 -0.1559688E+01
  0.7000000E+00  0.2415582E+05 -0.1560748E+01  0.9019216E+05 -0.2821957E+01  0.3292570E+05 -0.1556521E+01
  0.7309524E+00  0.2591747E+05 -0.1558101E+01  0.9736357E+05 -0.2803949E+01  0.3531509E+05 -0.1552701E+01
  0.7619048E+00  0.2766847E+05 -0.1554951E+01  0.1046270E+06 -0.2786450E+01  0.3766172E+05 -0.1548122E+01
  0.7928572E+00  0.2940248E+05 -0.1551246E+01  0.1119372E+06 -0.2769300E+01  0.3998489E+05 -0.1542707E+01
  0.8238096E+00  0.3111104E+05 -0.1546940E+01  0.1192777E+06 -0.2752618E+01  0.4225618E+05 -0.1536366E+01
  0.8547620E+00  0.3277304E+05 -0.1541985E+01  0.1266578E+06 -0.2736631E+01  0.4446000E+05 -0.1529021E+01
  0.8857143E+00  0.3437986E+05 -0.1536346E+01  0.1340243E+06 -0.2721243E+01  0.4654784E+05 -0.1520573E+01
  0.9166667E+00  0.3589769E+05 -0.1529977E+01  0.1413608E+06 -0.2706494E+01  0.4846353E+05 -0.1510903E+01
  0.9476191E+00  0.3732190E+05 -0.1522870E+01  0.1486442E+06 -0.2692408E+01  0.5018770E+05 -0.1499945E+01
  0.9785714E+00  0.3862297E+05 -0.1515009E+01  0.1558621E+06 -0.2679069E+01  0.5170658E+05 -0.1487639E+01
  0.1009524E+01  0.3977766E+05 -0.1506395E+01  0.1629698E+06 -0.2666291E+01  0.5293939E+05 -0.1473855E+01
  0.1040476E+01  0.4075905E+05 -0.1497040E+01  0.1699548E+06 -0.2654123E+01  0.5385476E+05 -0.1458510E+01
  0.1071429E+01  0.4155225E+05 -0.1487002E+01  0.1768112E+06 -0.2642682E+01  0.5442128E+05 -0.1441548E+01
  0.1102381E+01  0.4212626E+05 -0.1476345E+01  0.1835247E+06 -0.2631999E+01  0.5460152E+05 -0.1422909E+01
  0.1133333E+01  0.4246173E+05 -0.1465164E+01  0.1900685E+06 -0.2622060E+01  0.5430401E+05 -0.1402384E+01
  0.1164286E+01  0.4252684E+05 -0.1453588E+01  0.1964475E+06 -0.2612962E+01  0.5349708E+05 -0.1379861E+01
  0.1195238E+01  0.4229538E+05 -0.1441740E+01  0.2026319E+06 -0.2604605E+01  0.5210390E+05 -0.1354975E+01
  0.1226190E+01  0.4174393E+05 -0.1429846E+01  0.2086066E+06 -0.2597016E+01  0.5011889E+05 -0.1327534E+01
  0.1257143E+01  0.4086912E+05 -0.1418041E+01  0.2144374E+06 -0.2589891E+01  0.4748898E+05 -0.1296672E+01
  0.1288095E+01  0.3962447E+05 -0.1407121E+01  0.2198844E+06 -0.2583924E+01  0.4415663E+05 -0.1262360E+01
  0.1319048E+01  0.3801784E+05 -0.1397058E+01  0.2251777E+06 -0.2578478E+01  0.4012267E+05 -0.1222268E+01
  0.1350000E+01  0.3604155E+05 -0.1388717E+01  0.2302201E+06 -0.2573832E+01  0.3537867E+05 -0.1174186E+01
  0.1380952E+01  0.3368111E+05 -0.1382849E+01  0.2350130E+06 -0.2570087E+01  0.2990860E+05 -0.1112279E+01
  0.1411905E+01  0.3132415E+05 -0.1377997E+01  0.2381223E+06 -0.2567433E+01  0.2472565E+05 -0.1031950E+01
  0.1442857E+01  0.2829399E+05 -0.1380443E+01  0.2423821E+06 -0.2565018E+01  0.1817962E+05 -0.8952306E+00
  0.1473810E+01  0.2489677E+05 -0.1391169E+01  0.2463877E+06 -0.2563299E+01  0.1149688E+05 -0.5995929E+00
  0.1504762E+01  0.2117295E+05 -0.1415811E+01  0.2501357E+06 -0.2562331E+01  0.7244097E+04  0.2568292E+00
  0.1535714E+01  0.1715846E+05 -0.1465743E+01  0.2536184E+06 -0.2562006E+01  0.1140852E+05  0.1224064E+01
  0.1566667E+01  0.1297232E+05 -0.1568348E+01  0.2568351E+06 -0.2562363E+01  0.2013233E+05  0.1567222E+01
  0.1597619E+01  0.8896568E+04 -0.1801627E+01  0.2598010E+06 -0.2563261E+01  0.3032337E+05  0.1717066E+01
  0.1628572E+01  0.6057447E+04 -0.2384377E+01  0.2625202E+06 -0.2564654E+01  0.4139714E+05  0.1805195E+01
  0.1659524E+01  0.7081028E+04  0.3070987E+01  0.2649844E+06 -0.2566710E+01  0.5319812E+05  0.1866448E+01
  0.1690476E+01  0.1132504E+05  0.2654221E+01  0.2671989E+06 -0.2569284E+01  0.6562597E+05  0.1913604E+01
  0.1721429E+01  0.1670204E+05  0.2483630E+01  0.2691608E+06 -0.2572405E+01  0.7862178E+05  0.1952266E+01
  0.1752381E+01  0.2257138E+05  0.2402378E+01  0.2708505E+06 -0.2575716E+01  0.9207975E+05  0.1985697E+01
  0.1783333E+01  0.2873647E+05  0.2359471E+01  0.2722683E+06 -0.2579301E+01  0.1059364E+06  0.2015537E+01
  0.1814286E+01  0.3509825E+05  0.2335799E+01  0.2734138E+06 -0.2582961E+01  0.1201362E+06  0.2042545E+01
  0.1845238E+01  0.4161132E+05  0.2322480E+01  0.2742333E+06 -0.2586577E+01  0.1346333E+06  0.2067259E+01
  0.1876190E+01  0.4823205E+05  0.2315415E+01  0.2746643E+06 -0.2589973E+01  0.1493587E+06  0.2090046E+01
  0.1907143E+01  0.5492796E+05  0.2312178E+01  0.2747059E+06 -0.2593451E+01  0.1642632E+06  0.2111108E+01
  0.1938095E+01  0.6167266E+05  0.2311242E+01  0.2743087E+06 -0.2596849E+01  0.1792721E+06  0.2130665E+01
  0.1969048E+01  0.6841225E+05  0.2312007E+01  0.2733669E+06 -0.2599930E+01  0.1943277E+06  0.2148910E+01
  0.2000000E+01  0.7513437E+05  0.2313666E+01  0.2718522E+06 -0.2602993E+01  0.2093551E+06  0.2165910E+01
