VARIABLES="w (rad/s)"
"abs(F   1   1)" "angle(F   1   1)"
"abs(F   1   2)" "angle(F   1   2)"
"abs(F   1   3)" "angle(F   1   3)"
Zone t="Diffraction force - beta =   0.000 deg",I=    64,F=POINT
  0.5000000E-01  0.1314137E+04 -0.1570794E+01  0.3608355E+03 -0.3082680E+01  0.2636313E+02 -0.1570794E+01
  0.8095238E-01  0.2146801E+04 -0.1570790E+01  0.9328749E+03 -0.3080444E+01  0.4327124E+02 -0.1570790E+01
  0.1119048E+00  0.2989427E+04 -0.1570783E+01  0.1768924E+04 -0.3077793E+01  0.6017647E+02 -0.1570782E+01
  0.1428571E+00  0.3871641E+04 -0.1570774E+01  0.2870459E+04 -0.3074506E+01  0.7889893E+02 -0.1570770E+01
  0.1738095E+00  0.4784638E+04 -0.1570759E+01  0.4243545E+04 -0.3070436E+01  0.9741687E+02 -0.1570753E+01
  0.2047619E+00  0.5755009E+04 -0.1570738E+01  0.5893324E+04 -0.3065356E+01  0.1187112E+03 -0.1570726E+01
  0.2357143E+00  0.6767808E+04 -0.1570708E+01  0.7827194E+04 -0.3058971E+01  0.1399185E+03 -0.1570688E+01
  0.2666667E+00  0.7873692E+04 -0.1570663E+01  0.1005566E+05 -0.3051270E+01  0.1640697E+03 -0.1570631E+01
  0.2976190E+00  0.9076064E+04 -0.1570597E+01  0.1258088E+05 -0.3041561E+01  0.1918797E+03 -0.1570548E+01
  0.3285715E+00  0.1036153E+05 -0.1570498E+01  0.1541950E+05 -0.3030046E+01  0.2213264E+03 -0.1570423E+01
  0.3595238E+00  0.1180325E+05 -0.1570350E+01  0.1855581E+05 -0.3016025E+01  0.2553155E+03 -0.1570238E+01
  0.3904762E+00  0.1341136E+05 -0.1570130E+01  0.2200824E+05 -0.2999523E+01  0.2983281E+03 -0.1569971E+01
  0.4214286E+00  0.1515663E+05 -0.1569807E+01  0.2570653E+05 -0.2980988E+01  0.3375186E+03 -0.1569561E+01
  0.4523810E+00  0.1705173E+05 -0.1569332E+01  0.2968724E+05 -0.2959613E+01  0.3851171E+03 -0.1568970E+01
  0.4833333E+00  0.1920211E+05 -0.1568679E+01  0.3385649E+05 -0.2938020E+01  0.4430023E+03 -0.1568174E+01
  0.5142857E+00  0.2152632E+05 -0.1567774E+01  0.3819511E+05 -0.2914492E+01  0.5087835E+03 -0.1567083E+01
  0.5452381E+00  0.2394201E+05 -0.1566561E+01  0.4270442E+05 -0.2891181E+01  0.5699827E+03 -0.1565570E+01
  0.5761905E+00  0.2651135E+05 -0.1564987E+01  0.4732950E+05 -0.2868288E+01  0.6379849E+03 -0.1563617E+01
  0.6071429E+00  0.2929519E+05 -0.1562971E+01  0.5203483E+05 -0.2844607E+01  0.7248412E+03 -0.1561226E+01
  0.6380953E+00  0.3225019E+05 -0.1560476E+01  0.5686408E+05 -0.2822563E+01  0.8217173E+03 -0.1558315E+01
  0.6690477E+00  0.3524854E+05 -0.1557370E+01  0.6173570E+05 -0.2800628E+01  0.9084407E+03 -0.1554519E+01
  0.7000000E+00  0.3824210E+05 -0.1553528E+01  0.6663387E+05 -0.2778526E+01  0.9996496E+03 -0.1549851E+01
  0.7309524E+00  0.4144483E+05 -0.1548955E+01  0.7160300E+05 -0.2757554E+01  0.1109331E+04 -0.1544474E+01
  0.7619048E+00  0.4481131E+05 -0.1543540E+01  0.7655730E+05 -0.2736860E+01  0.1225997E+04 -0.1538103E+01
  0.7928572E+00  0.4825424E+05 -0.1537149E+01  0.8146084E+05 -0.2716277E+01  0.1356945E+04 -0.1530770E+01
  0.8238096E+00  0.5175475E+05 -0.1529677E+01  0.8633598E+05 -0.2696218E+01  0.1500360E+04 -0.1522358E+01
  0.8547620E+00  0.5519745E+05 -0.1520962E+01  0.9117013E+05 -0.2676824E+01  0.1622689E+04 -0.1511943E+01
  0.8857143E+00  0.5861719E+05 -0.1510924E+01  0.9592981E+05 -0.2657971E+01  0.1747214E+04 -0.1499927E+01
  0.9166667E+00  0.6211700E+05 -0.1499595E+01  0.1005881E+06 -0.2639536E+01  0.1898429E+04 -0.1487024E+01
  0.9476191E+00  0.6570377E+05 -0.1486946E+01  0.1051219E+06 -0.2621539E+01  0.2072056E+04 -0.1473129E+01
  0.9785714E+00  0.6927816E+05 -0.1472851E+01  0.1095167E+06 -0.2604054E+01  0.2242171E+04 -0.1457341E+01
  0.1009524E+01  0.7275116E+05 -0.1457183E+01  0.1137549E+06 -0.2587031E+01  0.2411497E+04 -0.1439696E+01
  0.1040476E+01  0.7605245E+05 -0.1439830E+01  0.1178259E+06 -0.2570491E+01  0.2581457E+04 -0.1420121E+01
  0.1071429E+01  0.7907877E+05 -0.1420649E+01  0.1217266E+06 -0.2554531E+01  0.2742441E+04 -0.1398150E+01
  0.1102381E+01  0.8186633E+05 -0.1399724E+01  0.1254672E+06 -0.2539360E+01  0.2908483E+04 -0.1374621E+01
  0.1133333E+01  0.8446037E+05 -0.1377342E+01  0.1290131E+06 -0.2524704E+01  0.3068271E+04 -0.1349382E+01
  0.1164286E+01  0.8677074E+05 -0.1353485E+01  0.1323571E+06 -0.2510554E+01  0.3219167E+04 -0.1322526E+01
  0.1195238E+01  0.8875469E+05 -0.1328210E+01  0.1354760E+06 -0.2496815E+01  0.3370436E+04 -0.1294174E+01
  0.1226190E+01  0.9029023E+05 -0.1301397E+01  0.1383716E+06 -0.2483569E+01  0.3519401E+04 -0.1264571E+01
  0.1257143E+01  0.9134501E+05 -0.1272917E+01  0.1410786E+06 -0.2470727E+01  0.3656692E+04 -0.1233354E+01
  0.1288095E+01  0.9195530E+05 -0.1243857E+01  0.1434879E+06 -0.2458856E+01  0.3782780E+04 -0.1202149E+01
  0.1319048E+01  0.9199229E+05 -0.1213568E+01  0.1456868E+06 -0.2447216E+01  0.3870609E+04 -0.1168362E+01
  0.1350000E+01  0.9143809E+05 -0.1182412E+01  0.1476412E+06 -0.2436059E+01  0.3923756E+04 -0.1132834E+01
  0.1380952E+01  0.9029575E+05 -0.1150587E+01  0.1493402E+06 -0.2425465E+01  0.3962677E+04 -0.1096712E+01
  0.1411905E+01  0.8797669E+05 -0.1118070E+01  0.1506529E+06 -0.2414823E+01  0.3916168E+04 -0.1056120E+01
  0.1442857E+01  0.8558434E+05 -0.1085138E+01  0.1518583E+06 -0.2405139E+01  0.3915482E+04 -0.1020608E+01
  0.1473810E+01  0.8258076E+05 -0.1052062E+01  0.1528104E+06 -0.2396022E+01  0.3880851E+04 -0.9847949E+00
  0.1504762E+01  0.7897434E+05 -0.1018875E+01  0.1535030E+06 -0.2387398E+01  0.3799812E+04 -0.9477196E+00
  0.1535714E+01  0.7475741E+05 -0.9853925E+00  0.1539410E+06 -0.2379202E+01  0.3674971E+04 -0.9084831E+00
  0.1566667E+01  0.6997755E+05 -0.9517870E+00  0.1541269E+06 -0.2371482E+01  0.3515168E+04 -0.8691212E+00
  0.1597619E+01  0.6467919E+05 -0.9181437E+00  0.1540546E+06 -0.2364093E+01  0.3326630E+04 -0.8305320E+00
  0.1628572E+01  0.5888887E+05 -0.8841009E+00  0.1537324E+06 -0.2357182E+01  0.3105561E+04 -0.7925898E+00
  0.1659524E+01  0.5265236E+05 -0.8492903E+00  0.1531682E+06 -0.2350770E+01  0.2848314E+04 -0.7531641E+00
  0.1690476E+01  0.4603382E+05 -0.8133088E+00  0.1523514E+06 -0.2344960E+01  0.2555137E+04 -0.7118012E+00
  0.1721429E+01  0.3908374E+05 -0.7749324E+00  0.1512803E+06 -0.2339728E+01  0.2220383E+04 -0.6644208E+00
  0.1752381E+01  0.3184384E+05 -0.7314308E+00  0.1499609E+06 -0.2334978E+01  0.1846335E+04 -0.6084533E+00
  0.1783333E+01  0.2436638E+05 -0.6768994E+00  0.1484146E+06 -0.2330651E+01  0.1431608E+04 -0.5303287E+00
  0.1814286E+01  0.1673058E+05 -0.5946844E+00  0.1466344E+06 -0.2326838E+01  0.9969643E+03 -0.4074153E+00
  0.1845238E+01  0.9105756E+04 -0.4120270E+00  0.1446235E+06 -0.2323324E+01  0.5649349E+03 -0.1300842E+00
  0.1876190E+01  0.3144843E+04  0.6496474E+00  0.1423902E+06 -0.2320387E+01  0.2954298E+03  0.9687752E+00
  0.1907143E+01  0.8098222E+04  0.2032905E+01  0.1399422E+06 -0.2318080E+01  0.6098599E+03  0.2011917E+01
  0.1938095E+01  0.1587254E+05  0.2247803E+01  0.1372740E+06 -0.2316521E+01  0.1118408E+04  0.2271995E+01
  0.1969048E+01  0.2383405E+05  0.2331943E+01  0.1343904E+06 -0.2315677E+01  0.1678262E+04  0.2381348E+01
  0.2000000E+01  0.3179512E+05  0.2381800E+01  0.1312961E+06 -0.2315509E+01  0.2270371E+04  0.2446599E+01
