VARIABLES="w (rad/s)"
"A   1   1" "B   1   1"
"A   1   2" "B   1   2"
"A   1   3" "B   1   3"
Zone t="Motion of body    1 in DoF   1",I=    64,F=POINT
  0.5000000E-01  0.5485530E+04  0.3472606E-04  0.2861023E-04  0.2258959E-06 -0.2216448E+04 -0.1108073E-04
  0.8095238E-01  0.5505660E+04  0.1324852E-03 -0.7598540E-03 -0.1165666E-05 -0.2225802E+04 -0.4142641E-04
  0.1119048E+00  0.5527831E+04  0.3665256E-03 -0.9757914E-03 -0.2172337E-05 -0.2237372E+04 -0.1118730E-03
  0.1428571E+00  0.5538817E+04  0.8311204E-03 -0.1181602E-02 -0.4349011E-05 -0.2244575E+04 -0.2626134E-03
  0.1738095E+00  0.5549199E+04  0.1648245E-02  0.2194757E-04 -0.5060610E-06 -0.2249079E+04 -0.5142206E-03
  0.2047619E+00  0.5553047E+04  0.3068394E-02  0.1257519E-02  0.3160560E-05 -0.2249147E+04 -0.9573058E-03
  0.2357143E+00  0.5560191E+04  0.5418062E-02  0.8617747E-03  0.8595249E-05 -0.2250042E+04 -0.1678394E-02
  0.2666667E+00  0.5558875E+04  0.9267329E-02  0.1477003E-02  0.1799264E-04 -0.2250478E+04 -0.2870288E-02
  0.2976190E+00  0.5565638E+04  0.1558648E-01  0.2819824E-03 -0.9010546E-06 -0.2249612E+04 -0.4819106E-02
  0.3285715E+00  0.5573820E+04  0.2586643E-01 -0.5166426E-03 -0.1217102E-04 -0.2250209E+04 -0.7975274E-02
  0.3595238E+00  0.5576701E+04  0.4259803E-01  0.6896770E-03  0.9177020E-05 -0.2250412E+04 -0.1309771E-01
  0.3904762E+00  0.5577966E+04  0.6965698E-01  0.5275446E-03  0.4510744E-05 -0.2250543E+04 -0.2134858E-01
  0.4214286E+00  0.5588111E+04  0.1125136E+00  0.5883685E-03  0.3312249E-04 -0.2250891E+04 -0.3434636E-01
  0.4523810E+00  0.5602445E+04  0.1802133E+00  0.6788153E-03  0.2809148E-04 -0.2250480E+04 -0.5474139E-01
  0.4833333E+00  0.5602940E+04  0.2814771E+00  0.5879895E-03  0.4479103E-04 -0.2251431E+04 -0.8520657E-01
  0.5142857E+00  0.5608119E+04  0.4326067E+00  0.1646678E-02  0.4346343E-04 -0.2251659E+04 -0.1304387E+00
  0.5452381E+00  0.5621901E+04  0.6496408E+00  0.5177328E-03  0.3300514E-04 -0.2252663E+04 -0.1949059E+00
  0.5761905E+00  0.5636084E+04  0.9528019E+00  0.2495947E-02  0.1836102E-03 -0.2253061E+04 -0.2842384E+00
  0.6071429E+00  0.5645025E+04  0.1371380E+01  0.6722842E-03  0.1073219E-03 -0.2254018E+04 -0.4069576E+00
  0.6380953E+00  0.5651375E+04  0.1930516E+01  0.4603258E-03  0.8903816E-04 -0.2253823E+04 -0.5696719E+00
  0.6690477E+00  0.5668898E+04  0.2673982E+01  0.3421009E-03 -0.9156764E-05 -0.2253669E+04 -0.7839164E+00
  0.7000000E+00  0.5690312E+04  0.3650003E+01 -0.8937290E-03 -0.1707189E-03 -0.2254820E+04 -0.1062795E+01
  0.7309524E+00  0.5699951E+04  0.4902551E+01 -0.4801299E-03 -0.8878857E-04 -0.2257985E+04 -0.1419294E+01
  0.7619048E+00  0.5709208E+04  0.6499788E+01 -0.3755092E-03 -0.8389354E-05 -0.2261771E+04 -0.1870625E+01
  0.7928572E+00  0.5722615E+04  0.8517659E+01 -0.5533029E-03 -0.8099526E-04 -0.2261305E+04 -0.2432961E+01
  0.8238096E+00  0.5743930E+04  0.1104489E+02  0.4121196E-03  0.9538233E-04 -0.2263171E+04 -0.3130564E+01
  0.8547620E+00  0.5763400E+04  0.1417293E+02 -0.1535230E-02 -0.4981011E-03 -0.2263850E+04 -0.3984621E+01
  0.8857143E+00  0.5785417E+04  0.1801737E+02 -0.6201959E-03 -0.2558678E-03 -0.2266455E+04 -0.5024537E+01
  0.9166667E+00  0.5805682E+04  0.2269859E+02 -0.7906827E-03 -0.2832413E-03 -0.2269106E+04 -0.6277789E+01
  0.9476191E+00  0.5822825E+04  0.2835122E+02 -0.1135208E-02 -0.3325641E-03 -0.2274462E+04 -0.7781507E+01
  0.9785714E+00  0.5838228E+04  0.3512930E+02  0.4950753E-03  0.1201332E-03 -0.2275691E+04 -0.9556619E+01
  0.1009524E+01  0.5862376E+04  0.4322938E+02 -0.8237587E-03 -0.2910495E-03 -0.2278229E+04 -0.1165021E+02
  0.1040476E+01  0.5888525E+04  0.5283463E+02 -0.1143885E-02 -0.1587868E-03 -0.2278625E+04 -0.1409187E+02
  0.1071429E+01  0.5919572E+04  0.6416882E+02 -0.1424154E-04 -0.7176399E-04 -0.2280382E+04 -0.1693447E+02
  0.1102381E+01  0.5948715E+04  0.7744363E+02  0.3322000E-03  0.1164675E-03 -0.2284452E+04 -0.2023165E+02
  0.1133333E+01  0.5974703E+04  0.9289897E+02 -0.2221500E-03 -0.1302958E-03 -0.2287119E+04 -0.2401279E+02
  0.1164286E+01  0.6002424E+04  0.1108260E+03 -0.2686670E-03 -0.7426739E-04 -0.2292680E+04 -0.2835394E+02
  0.1195238E+01  0.6026630E+04  0.1314740E+03 -0.7851285E-03 -0.7276535E-03 -0.2295227E+04 -0.3326176E+02
  0.1226190E+01  0.6055448E+04  0.1551984E+03  0.3359897E-03  0.9608269E-04 -0.2297195E+04 -0.3879733E+02
  0.1257143E+01  0.6081974E+04  0.1822501E+03  0.1881339E-03  0.3738403E-03 -0.2299855E+04 -0.4502472E+02
  0.1288095E+01  0.6117903E+04  0.2131741E+03 -0.2665352E-03 -0.1039505E-03 -0.2301273E+04 -0.5198061E+02
  0.1319048E+01  0.6152517E+04  0.2481777E+03 -0.5205615E-03 -0.6659031E-03 -0.2303333E+04 -0.5973046E+02
  0.1350000E+01  0.6189865E+04  0.2877235E+03  0.2204047E-03  0.7200241E-04 -0.2305991E+04 -0.6832804E+02
  0.1380952E+01  0.6225757E+04  0.3321676E+03  0.2430883E-03 -0.9584427E-04 -0.2307248E+04 -0.7778047E+02
  0.1411905E+01  0.6208350E+04  0.3761574E+03  0.2053375E-03  0.6442070E-03 -0.2311231E+04 -0.8722932E+02
  0.1442857E+01  0.6243592E+04  0.4308180E+03 -0.7402779E-04 -0.4577637E-03 -0.2314429E+04 -0.9849394E+02
  0.1473810E+01  0.6275049E+04  0.4914876E+03 -0.2847157E-03 -0.3433228E-04 -0.2317420E+04 -0.1107510E+03
  0.1504762E+01  0.6303698E+04  0.5585558E+03  0.5323676E-03  0.7076263E-03 -0.2318314E+04 -0.1239541E+03
  0.1535714E+01  0.6335521E+04  0.6325650E+03  0.1589753E-02  0.7400513E-03 -0.2319703E+04 -0.1382010E+03
  0.1566667E+01  0.6366768E+04  0.7137968E+03  0.1168758E-03  0.2565384E-03 -0.2319304E+04 -0.1534140E+03
  0.1597619E+01  0.6398933E+04  0.8027154E+03  0.1193869E-03  0.2450943E-03 -0.2317261E+04 -0.1695772E+03
  0.1628572E+01  0.6432158E+04  0.8997139E+03  0.5621659E-04 -0.5407333E-03 -0.2314878E+04 -0.1867301E+03
  0.1659524E+01  0.6465559E+04  0.1005152E+04 -0.1011415E-03 -0.6780624E-03 -0.2313379E+04 -0.2049382E+03
  0.1690476E+01  0.6496053E+04  0.1119326E+04  0.5506058E-03  0.4520416E-03 -0.2312173E+04 -0.2241681E+03
  0.1721429E+01  0.6521864E+04  0.1242327E+04  0.0000000E+00  0.3242493E-03 -0.2308079E+04 -0.2440893E+03
  0.1752381E+01  0.6547443E+04  0.1374691E+04  0.3482985E-03 -0.9536743E-05 -0.2304828E+04 -0.2649176E+03
  0.1783333E+01  0.6571185E+04  0.1516515E+04  0.4791545E-03  0.8449554E-03 -0.2301952E+04 -0.2865389E+03
  0.1814286E+01  0.6589149E+04  0.1667691E+04  0.6055456E-03  0.1501083E-02 -0.2297083E+04 -0.3086162E+03
  0.1845238E+01  0.6603552E+04  0.1828386E+04  0.2480784E-04 -0.3623962E-03 -0.2291778E+04 -0.3311595E+03
  0.1876190E+01  0.6614409E+04  0.1998330E+04 -0.8132857E-05 -0.6790161E-03 -0.2285385E+04 -0.3539559E+03
  0.1907143E+01  0.6622233E+04  0.2177267E+04  0.3040328E-03  0.1525879E-04 -0.2278294E+04 -0.3768974E+03
  0.1938095E+01  0.6624773E+04  0.2365166E+04 -0.2834311E-03 -0.1079559E-02 -0.2271136E+04 -0.4000280E+03
  0.1969048E+01  0.6622545E+04  0.2561252E+04 -0.4339622E-03 -0.7896423E-03 -0.2261870E+04 -0.4227997E+03
  0.2000000E+01  0.6615400E+04  0.2765266E+04 -0.9918213E-04 -0.1792908E-03 -0.2251000E+04 -0.4450878E+03
Zone t="Motion of body    1 in DoF   2",I=    64,F=POINT
  0.5000000E-01  0.2861023E-03  0.7450581E-07  0.5563436E+04  0.7055460E+01 -0.2098083E-03 -0.7748604E-06
  0.8095238E-01  0.3062977E-03 -0.1221895E-05  0.5540294E+04  0.1172631E+02 -0.4653370E-03  0.1490116E-07
  0.1119048E+00 -0.6306425E-03  0.1341105E-05  0.5534257E+04  0.1685108E+02  0.0000000E+00 -0.1534820E-05
  0.1428571E+00 -0.2536774E-03  0.1460314E-05  0.5534642E+04  0.2264625E+02 -0.4673004E-03 -0.6258488E-06
  0.1738095E+00 -0.1053483E-02 -0.1013279E-05  0.5544742E+04  0.2939109E+02  0.7132961E-04 -0.7748604E-06
  0.2047619E+00  0.9967005E-03 -0.4172325E-05  0.5558491E+04  0.3742255E+02 -0.5123227E-04 -0.5215406E-05
  0.2357143E+00 -0.1618356E-04 -0.6139278E-05  0.5575351E+04  0.4723871E+02 -0.5016904E-03 -0.4112720E-05
  0.2666667E+00  0.5006790E-03 -0.1180172E-04  0.5603229E+04  0.5931369E+02 -0.3433227E-03  0.2384186E-06
  0.2976190E+00  0.6921387E-03  0.2503395E-05  0.5631602E+04  0.7455115E+02  0.1986694E-03  0.4112720E-05
  0.3285715E+00  0.2089790E-03  0.2026558E-05  0.5662000E+04  0.9362872E+02 -0.4005432E-03 -0.7510185E-05
  0.3595238E+00 -0.5411312E-03  0.1955032E-04  0.5699475E+04  0.1177135E+03 -0.9231062E-03 -0.9298325E-05
  0.3904762E+00 -0.1660789E-03  0.4529953E-05  0.5735952E+04  0.1479377E+03 -0.5470834E-03  0.1311302E-05
  0.4214286E+00  0.3982802E-03  0.1096725E-04  0.5764706E+04  0.1843886E+03 -0.4887984E-03  0.1025200E-04
  0.4523810E+00 -0.4806518E-03 -0.1001358E-04  0.5796033E+04  0.2290856E+03 -0.2782721E-03 -0.3480911E-04
  0.4833333E+00  0.9786672E-03  0.4100800E-04  0.5822343E+04  0.2793632E+03 -0.5524734E-03 -0.3147125E-04
  0.5142857E+00  0.8900961E-03  0.5483627E-04  0.5837839E+04  0.3375107E+03 -0.4673004E-03 -0.2336502E-04
  0.5452381E+00 -0.6996388E-04  0.5435944E-04  0.5845175E+04  0.4014392E+03 -0.4897472E-04 -0.4291534E-05
  0.5761905E+00  0.3839918E-03  0.9536743E-06  0.5850966E+04  0.4705067E+03 -0.2846836E-03 -0.3290176E-04
  0.6071429E+00  0.1005285E-03  0.3814697E-04  0.5854604E+04  0.5462479E+03  0.1884909E-04 -0.5435944E-04
  0.6380953E+00 -0.2032607E-03  0.9536743E-05  0.5852031E+04  0.6258726E+03 -0.8847820E-03 -0.2336502E-04
  0.6690477E+00 -0.1482437E-03 -0.5435944E-04  0.5842015E+04  0.7109785E+03 -0.1014899E-02 -0.2479553E-04
  0.7000000E+00 -0.5231585E-03  0.5722046E-05  0.5826894E+04  0.8019700E+03 -0.6811959E-03 -0.7629395E-05
  0.7309524E+00  0.1252513E-03 -0.1907349E-05  0.5811311E+04  0.8973829E+03  0.1461265E-03 -0.2288818E-04
  0.7619048E+00  0.1702309E-03 -0.1087189E-03  0.5794202E+04  0.9977900E+03 -0.5607604E-03 -0.9536743E-06
  0.7928572E+00 -0.6350955E-03  0.1544952E-03  0.5771613E+04  0.1103202E+04 -0.1034436E-02 -0.1258850E-03
  0.8238096E+00  0.7316280E-03 -0.1602173E-03  0.5743021E+04  0.1213266E+04 -0.2917251E-03 -0.0000000E+00
  0.8547620E+00 -0.7943921E-03  0.1144409E-04  0.5708287E+04  0.1327637E+04 -0.1338863E-03 -0.7057190E-04
  0.8857143E+00 -0.9561354E-03  0.8392334E-04  0.5671349E+04  0.1445894E+04  0.3402464E-03 -0.7820129E-04
  0.9166667E+00  0.6075772E-03  0.9155273E-04  0.5633127E+04  0.1567665E+04 -0.2330433E-03 -0.3623962E-04
  0.9476191E+00  0.5957828E-03  0.1335144E-03  0.5591823E+04  0.1692653E+04 -0.9017254E-03 -0.8583069E-04
  0.9785714E+00 -0.1793186E-03  0.1678467E-03  0.5546082E+04  0.1820637E+04 -0.2806726E-03  0.9155273E-04
  0.1009524E+01  0.5592490E-03 -0.2670288E-04  0.5496710E+04  0.1951127E+04  0.1360336E-03 -0.1449585E-03
  0.1040476E+01 -0.6745991E-03  0.2403259E-03  0.5442898E+04  0.2083843E+04 -0.2053128E-03 -0.1373291E-03
  0.1071429E+01  0.3346761E-03 -0.1525879E-03  0.5385375E+04  0.2218258E+04 -0.5055746E-03 -0.1525879E-03
  0.1102381E+01  0.1107333E-03 -0.9536743E-04  0.5325311E+04  0.2353890E+04 -0.1314958E-03 -0.2231598E-03
  0.1133333E+01 -0.4443000E-03 -0.3814697E-05  0.5263053E+04  0.2490344E+04 -0.5452773E-03 -0.7629395E-04
  0.1164286E+01  0.2227970E-03  0.3509521E-03  0.5200293E+04  0.2626969E+04 -0.9829281E-04 -0.1907349E-03
  0.1195238E+01  0.1659621E-03 -0.3814697E-04  0.5135485E+04  0.2763735E+04 -0.4212885E-03  0.9536743E-04
  0.1226190E+01 -0.3111015E-03 -0.1449585E-03  0.5069280E+04  0.2900107E+04 -0.4293201E-03  0.7629395E-04
  0.1257143E+01 -0.2791665E-03 -0.5340576E-04  0.4998872E+04  0.3038715E+04  0.1517209E-03 -0.2021790E-03
  0.1288095E+01 -0.5567624E-03  0.4959106E-03  0.4928683E+04  0.3171171E+04 -0.7462986E-03 -0.1258850E-03
  0.1319048E+01 -0.1110531E-02  0.8850098E-03  0.4855391E+04  0.3305046E+04 -0.1735205E-03  0.1373291E-03
  0.1350000E+01 -0.5764432E-03 -0.1068115E-03  0.4780770E+04  0.3437111E+04 -0.1299823E-03 -0.1564026E-03
  0.1380952E+01 -0.1546925E-03  0.1449585E-03  0.4705923E+04  0.3566871E+04 -0.4751271E-03 -0.1754761E-03
  0.1411905E+01  0.1513013E-03  0.5111694E-03  0.4609718E+04  0.3681917E+04 -0.3134099E-03 -0.9918213E-04
  0.1442857E+01  0.1057540E-03  0.2593994E-03  0.4534792E+04  0.3806494E+04 -0.2273711E-03 -0.5340576E-04
  0.1473810E+01  0.1656528E-03  0.2288818E-03  0.4459921E+04  0.3928215E+04 -0.1294162E-03 -0.6217957E-03
  0.1504762E+01 -0.1318243E-03 -0.2288818E-03  0.4384730E+04  0.4047099E+04 -0.4563150E-04  0.6484985E-04
  0.1535714E+01  0.4073741E-03  0.2899170E-03  0.4310236E+04  0.4162477E+04 -0.5365416E-03 -0.1640320E-03
  0.1566667E+01  0.3506275E-03  0.7171631E-03  0.4235224E+04  0.4274911E+04 -0.2094025E-03 -0.2670288E-04
  0.1597619E+01 -0.9550956E-04  0.5874634E-03  0.4160354E+04  0.4383865E+04 -0.3151815E-03  0.2288818E-04
  0.1628572E+01  0.1873886E-04 -0.2441406E-03  0.4085721E+04  0.4489214E+04 -0.4684716E-05 -0.6866455E-04
  0.1659524E+01 -0.1314839E-02 -0.2899170E-03  0.4011158E+04  0.4590835E+04 -0.1563095E-03 -0.2441406E-03
  0.1690476E+01  0.5415795E-04  0.5416870E-03  0.3937351E+04  0.4688660E+04 -0.1083159E-03 -0.1525879E-03
  0.1721429E+01  0.4077452E-03  0.6103516E-03  0.3863364E+04  0.4782938E+04 -0.2792169E-03 -0.2899170E-03
  0.1752381E+01  0.1306119E-03  0.9613037E-03  0.3791242E+04  0.4872366E+04 -0.1785030E-03 -0.3814697E-03
  0.1783333E+01  0.5219362E-03  0.8392334E-03  0.3720459E+04  0.4956999E+04 -0.5133798E-04 -0.1296997E-03
  0.1814286E+01 -0.1345657E-03  0.1022339E-02  0.3650768E+04  0.5037599E+04 -0.4247230E-03 -0.1144409E-03
  0.1845238E+01  0.7276966E-03  0.6103516E-03  0.3582729E+04  0.5113394E+04 -0.1447124E-03 -0.6256104E-03
  0.1876190E+01 -0.4391743E-03  0.6103516E-03  0.3516137E+04  0.5184718E+04 -0.1504579E-03  0.3128052E-03
  0.1907143E+01 -0.2640285E-03 -0.1373291E-03  0.3450801E+04  0.5251593E+04 -0.2360255E-03 -0.4730225E-03
  0.1938095E+01 -0.4408928E-03  0.6713867E-03  0.3387079E+04  0.5314489E+04 -0.3109869E-03  0.2212524E-03
  0.1969048E+01 -0.7904311E-03  0.4425049E-03  0.3324242E+04  0.5373840E+04 -0.7361858E-04 -0.3967285E-03
  0.2000000E+01 -0.5798340E-03  0.1556396E-02  0.3262515E+04  0.5429384E+04 -0.2593994E-03  0.8392334E-04
Zone t="Motion of body    1 in DoF   3",I=    64,F=POINT
  0.5000000E-01 -0.2218053E+04 -0.1140051E-04 -0.4798174E-03 -0.4012747E-06  0.3139400E+04  0.2895638E-05
  0.8095238E-01 -0.2228138E+04 -0.4187672E-04 -0.7142039E-04  0.2221686E-06  0.3145745E+04  0.1324051E-04
  0.1119048E+00 -0.2240411E+04 -0.1116172E-03 -0.3488774E-03 -0.3436761E-06  0.3154615E+04  0.3307888E-04
  0.1428571E+00 -0.2248307E+04 -0.2626600E-03 -0.4589557E-04  0.2996696E-06  0.3156990E+04  0.8438169E-04
  0.1738095E+00 -0.2253066E+04 -0.5122998E-03 -0.6563696E-03 -0.2001947E-05  0.3157545E+04  0.1627846E-03
  0.2047619E+00 -0.2253388E+04 -0.9561655E-03 -0.1398408E-02 -0.8139477E-05  0.3157178E+04  0.3024412E-03
  0.2357143E+00 -0.2254760E+04 -0.1677976E-02 -0.2953500E-03  0.1006401E-05  0.3156247E+04  0.5148804E-03
  0.2666667E+00 -0.2254615E+04 -0.2867342E-02 -0.1037121E-03  0.4149224E-06  0.3157030E+04  0.8830143E-03
  0.2976190E+00 -0.2254006E+04 -0.4814496E-02 -0.1084671E-02 -0.9289415E-05  0.3156809E+04  0.1486953E-02
  0.3285715E+00 -0.2255148E+04 -0.7971580E-02 -0.7669821E-03 -0.1065039E-04  0.3155353E+04  0.2457928E-02
  0.3595238E+00 -0.2254743E+04 -0.1308739E-01 -0.1025231E-02 -0.1912436E-04  0.3156843E+04  0.4025245E-02
  0.3904762E+00 -0.2254818E+04 -0.2133181E-01 -0.1070964E-02 -0.2304278E-04  0.3156742E+04  0.6542633E-02
  0.4214286E+00 -0.2255725E+04 -0.3431873E-01 -0.1589161E-02 -0.3924200E-04  0.3155407E+04  0.1048603E-01
  0.4523810E+00 -0.2255560E+04 -0.5475407E-01 -0.6998965E-03 -0.2064981E-04  0.3155497E+04  0.1663482E-01
  0.4833333E+00 -0.2255703E+04 -0.8516889E-01 -0.1378224E-02 -0.5004334E-04  0.3157078E+04  0.2577896E-01
  0.5142857E+00 -0.2256053E+04 -0.1303955E+00 -0.2306369E-02 -0.1121180E-03  0.3156586E+04  0.3933305E-01
  0.5452381E+00 -0.2257725E+04 -0.1949133E+00 -0.4455825E-03  0.1315959E-05  0.3155249E+04  0.5850223E-01
  0.5761905E+00 -0.2258153E+04 -0.2843915E+00 -0.1118873E-02 -0.8177431E-04  0.3155985E+04  0.8482485E-01
  0.6071429E+00 -0.2258436E+04 -0.4071333E+00 -0.1183566E-02 -0.8832430E-04  0.3157613E+04  0.1207853E+00
  0.6380953E+00 -0.2257650E+04 -0.5700037E+00 -0.1093274E-02 -0.1111161E-03  0.3159314E+04  0.1681672E+00
  0.6690477E+00 -0.2257639E+04 -0.7849944E+00 -0.1309249E-02 -0.1430614E-03  0.3159745E+04  0.2301333E+00
  0.7000000E+00 -0.2259413E+04 -0.1064977E+01 -0.9945460E-03 -0.1068013E-03  0.3159052E+04  0.3101713E+00
  0.7309524E+00 -0.2262869E+04 -0.1421014E+01 -0.5264468E-03 -0.3006123E-04  0.3158357E+04  0.4114689E+00
  0.7619048E+00 -0.2266221E+04 -0.1871028E+01 -0.8010864E-03 -0.9267963E-04  0.3159480E+04  0.5385675E+00
  0.7928572E+00 -0.2265039E+04 -0.2434787E+01 -0.6705790E-03 -0.6802008E-04  0.3161741E+04  0.6955404E+00
  0.8238096E+00 -0.2267176E+04 -0.3134030E+01 -0.7715666E-03 -0.1146197E-03  0.3162186E+04  0.8883902E+00
  0.8547620E+00 -0.2268120E+04 -0.3991044E+01 -0.9639814E-03 -0.2014823E-03  0.3161978E+04  0.1122092E+01
  0.8857143E+00 -0.2271136E+04 -0.5032903E+01 -0.1068654E-02 -0.2724230E-03  0.3161635E+04  0.1403600E+01
  0.9166667E+00 -0.2273963E+04 -0.6287232E+01 -0.1405022E-02 -0.2997667E-03  0.3161757E+04  0.1739007E+01
  0.9476191E+00 -0.2279217E+04 -0.7783444E+01 -0.7225880E-03 -0.2272353E-03  0.3162094E+04  0.2136618E+01
  0.9785714E+00 -0.2279897E+04 -0.9558536E+01 -0.8035228E-03 -0.1239330E-03  0.3163373E+04  0.2600569E+01
  0.1009524E+01 -0.2282215E+04 -0.1165411E+02 -0.8114779E-03 -0.1817644E-03  0.3164801E+04  0.3140672E+01
  0.1040476E+01 -0.2282604E+04 -0.1410916E+02 -0.1158551E-02 -0.2992302E-03  0.3166065E+04  0.3762532E+01
  0.1071429E+01 -0.2284792E+04 -0.1696589E+02 -0.1113065E-02 -0.5064607E-03  0.3165507E+04  0.4476286E+01
  0.1102381E+01 -0.2289245E+04 -0.2026322E+02 -0.4321195E-03 -0.3492832E-04  0.3165573E+04  0.5292460E+01
  0.1133333E+01 -0.2292166E+04 -0.2404641E+02  0.3365909E-05  0.1614988E-03  0.3165334E+04  0.6215104E+01
  0.1164286E+01 -0.2297798E+04 -0.2836041E+02 -0.4771297E-03 -0.2828240E-04  0.3165130E+04  0.7257020E+01
  0.1195238E+01 -0.2299923E+04 -0.3326072E+02 -0.2074526E-04  0.4142523E-05  0.3166443E+04  0.8417551E+01
  0.1226190E+01 -0.2301518E+04 -0.3880490E+02 -0.2309929E-03  0.4303455E-04  0.3167701E+04  0.9703293E+01
  0.1257143E+01 -0.2304012E+04 -0.4502037E+02 -0.7089159E-03 -0.3952384E-03  0.3168601E+04  0.1112200E+02
  0.1288095E+01 -0.2305485E+04 -0.5201536E+02 -0.2191512E-03 -0.2127886E-04  0.3169063E+04  0.1267845E+02
  0.1319048E+01 -0.2307738E+04 -0.5978671E+02 -0.6420259E-03 -0.2613664E-03  0.3169496E+04  0.1437905E+02
  0.1350000E+01 -0.2310616E+04 -0.6839360E+02 -0.1169840E-02 -0.5714893E-03  0.3169200E+04  0.1622748E+02
  0.1380952E+01 -0.2312110E+04 -0.7788981E+02  0.1381183E-04  0.2293587E-03  0.3169384E+04  0.1822307E+02
  0.1411905E+01 -0.2348691E+04 -0.9075067E+02  0.1394809E-03  0.3342628E-03  0.3167661E+04  0.2103312E+02
  0.1442857E+01 -0.2352375E+04 -0.1024459E+03 -0.8711484E-03 -0.8312464E-03  0.3166640E+04  0.2341868E+02
  0.1473810E+01 -0.2355573E+04 -0.1151462E+03 -0.4248087E-03 -0.2473593E-03  0.3166407E+04  0.2596058E+02
  0.1504762E+01 -0.2356535E+04 -0.1289126E+03 -0.3859665E-03  0.3695488E-05  0.3166424E+04  0.2863338E+02
  0.1535714E+01 -0.2357847E+04 -0.1437772E+03 -0.6613620E-04  0.1885891E-03  0.3167109E+04  0.3143360E+02
  0.1566667E+01 -0.2357545E+04 -0.1597464E+03 -0.3932385E-03 -0.2346039E-03  0.3167344E+04  0.3433617E+02
  0.1597619E+01 -0.2355776E+04 -0.1768669E+03 -0.1189094E-02 -0.1043081E-02  0.3167867E+04  0.3733249E+02
  0.1628572E+01 -0.2353923E+04 -0.1950435E+03 -0.4022999E-03 -0.1907349E-04  0.3167208E+04  0.4040854E+02
  0.1659524E+01 -0.2352898E+04 -0.2142126E+03 -0.4896167E-03 -0.5064011E-03  0.3165563E+04  0.4355709E+02
  0.1690476E+01 -0.2352064E+04 -0.2344172E+03 -0.8682196E-03 -0.9162426E-03  0.3165035E+04  0.4680224E+02
  0.1721429E+01 -0.2348601E+04 -0.2555459E+03 -0.6875161E-03 -0.8108616E-03  0.3163113E+04  0.5004350E+02
  0.1752381E+01 -0.2345854E+04 -0.2775592E+03 -0.4696587E-03 -0.3938675E-03  0.3161896E+04  0.5333202E+02
  0.1783333E+01 -0.2343218E+04 -0.3002374E+03 -0.4909195E-03 -0.7095337E-03  0.3160162E+04  0.5660472E+02
  0.1814286E+01 -0.2338650E+04 -0.3235788E+03 -0.3647992E-03 -0.1006126E-03  0.3158586E+04  0.5983463E+02
  0.1845238E+01 -0.2333462E+04 -0.3474297E+03 -0.5282002E-03 -0.2336502E-03  0.3157422E+04  0.6300723E+02
  0.1876190E+01 -0.2327081E+04 -0.3716605E+03 -0.4203671E-03 -0.2560616E-03  0.3156037E+04  0.6602827E+02
  0.1907143E+01 -0.2319829E+04 -0.3960551E+03 -0.9626039E-03 -0.1466751E-02  0.3153977E+04  0.6879651E+02
  0.1938095E+01 -0.2312454E+04 -0.4206633E+03 -0.4413849E-03 -0.4477501E-03  0.3152946E+04  0.7141049E+02
  0.1969048E+01 -0.2303153E+04 -0.4452075E+03 -0.7298896E-03 -0.1085758E-02  0.3151346E+04  0.7370972E+02
  0.2000000E+01 -0.2292441E+04 -0.4695854E+03 -0.1416206E-03 -0.3671646E-04  0.3149552E+04  0.7571201E+02
