VARIABLES="w (rad/s)"
"A   1   1" "B   1   1"
"A   1   2" "B   1   2"
"A   1   3" "B   1   3"
Zone t="Motion of body    1 in DoF   1",I=    64,F=POINT
  0.5000000E-01  0.1038162E+06  0.8081094E-02 -0.2098083E-02 -0.3996101E-06 -0.4811352E+06 -0.3838442E-01
  0.8095238E-01  0.1044791E+06  0.3431443E-01 -0.1566831E-02  0.2207191E-05 -0.4829466E+06 -0.1617660E+00
  0.1119048E+00  0.1047624E+06  0.9575760E-01 -0.2011238E-02  0.6804097E-05 -0.4835188E+06 -0.4508772E+00
  0.1428571E+00  0.1049094E+06  0.2145351E+00 -0.1201630E-02  0.1921633E-04 -0.4839167E+06 -0.1009400E+01
  0.1738095E+00  0.1050667E+06  0.4256589E+00  0.1426592E-02  0.5526689E-04 -0.4842177E+06 -0.1999073E+01
  0.2047619E+00  0.1050741E+06  0.7811130E+00 -0.3316125E-02 -0.1448253E-04 -0.4844125E+06 -0.3662561E+01
  0.2357143E+00  0.1051699E+06  0.1364541E+01 -0.1812559E-02 -0.1040008E-04 -0.4846705E+06 -0.6385217E+01
  0.2666667E+00  0.1053518E+06  0.2307092E+01 -0.2102852E-02  0.2249237E-04 -0.4850878E+06 -0.1076689E+02
  0.2976190E+00  0.1054315E+06  0.3832416E+01 -0.4447632E-02  0.2162438E-04 -0.4854719E+06 -0.1784129E+02
  0.3285715E+00  0.1056088E+06  0.6271928E+01 -0.2751557E-02  0.4595704E-04 -0.4858906E+06 -0.2910260E+02
  0.3595238E+00  0.1057279E+06  0.1017686E+02  0.5729625E-03  0.1792870E-03 -0.4863025E+06 -0.4707190E+02
  0.3904762E+00  0.1058868E+06  0.1637230E+02 -0.2774494E-02  0.1936257E-03 -0.4868706E+06 -0.7545804E+02
  0.4214286E+00  0.1061280E+06  0.2597574E+02 -0.7784568E-03  0.2670884E-03 -0.4876029E+06 -0.1192156E+03
  0.4523810E+00  0.1063160E+06  0.4082493E+02 -0.1821417E-02  0.2212375E-03 -0.4881981E+06 -0.1865984E+03
  0.4833333E+00  0.1066790E+06  0.6254171E+02 -0.3125421E-02  0.5778670E-04 -0.4893438E+06 -0.2844456E+03
  0.5142857E+00  0.1069245E+06  0.9415426E+02 -0.2788968E-02  0.2631247E-03 -0.4902611E+06 -0.4262173E+03
  0.5452381E+00  0.1072815E+06  0.1382865E+03 -0.1595177E-02  0.4539788E-03 -0.4912219E+06 -0.6225131E+03
  0.5761905E+00  0.1075849E+06  0.1980680E+03 -0.1416797E-02  0.2384186E-03 -0.4922036E+06 -0.8866208E+03
  0.6071429E+00  0.1079265E+06  0.2784118E+03 -0.2751967E-02  0.2973080E-03 -0.4933641E+06 -0.1239129E+04
  0.6380953E+00  0.1084518E+06  0.3827521E+03 -0.8130429E-03  0.7082224E-03 -0.4949814E+06 -0.1692397E+04
  0.6690477E+00  0.1088211E+06  0.5162752E+03 -0.2828035E-02  0.1354218E-03 -0.4961919E+06 -0.2267941E+04
  0.7000000E+00  0.1092420E+06  0.6857139E+03 -0.6713867E-02 -0.1065016E-02 -0.4975170E+06 -0.2991575E+04
  0.7309524E+00  0.1098339E+06  0.8968414E+03 -0.1356889E-02  0.3347397E-03 -0.4991455E+06 -0.3882428E+04
  0.7619048E+00  0.1103110E+06  0.1156015E+04 -0.1141548E-02  0.1230717E-02 -0.5006426E+06 -0.4966401E+04
  0.7928572E+00  0.1108199E+06  0.1471519E+04 -0.3695101E-02  0.4839897E-03 -0.5022537E+06 -0.6271960E+04
  0.8238096E+00  0.1113441E+06  0.1851033E+04 -0.3296957E-02  0.3490448E-03 -0.5037433E+06 -0.7823008E+04
  0.8547620E+00  0.1119879E+06  0.2303702E+04 -0.5516116E-02 -0.1492500E-02 -0.5054696E+06 -0.9648001E+04
  0.8857143E+00  0.1124913E+06  0.2835422E+04 -0.2704743E-02  0.4420280E-03 -0.5067458E+06 -0.1176535E+05
  0.9166667E+00  0.1130573E+06  0.3457643E+04 -0.2180620E-02  0.1508713E-02 -0.5082605E+06 -0.1421042E+05
  0.9476191E+00  0.1135818E+06  0.4177278E+04 -0.3107732E-02 -0.4987717E-03 -0.5094380E+06 -0.1699464E+05
  0.9785714E+00  0.1142497E+06  0.5008157E+04 -0.2448089E-02 -0.7629395E-05 -0.5109386E+06 -0.2015731E+05
  0.1009524E+01  0.1147848E+06  0.5952227E+04 -0.1964929E-02  0.9803772E-03 -0.5121756E+06 -0.2370336E+05
  0.1040476E+01  0.1152299E+06  0.7016386E+04 -0.3607639E-02  0.4272461E-03 -0.5129639E+06 -0.2763125E+05
  0.1071429E+01  0.1156904E+06  0.8211262E+04 -0.2278646E-02  0.2975464E-03 -0.5136908E+06 -0.3196190E+05
  0.1102381E+01  0.1161294E+06  0.9543336E+04 -0.4083291E-02 -0.9155273E-04 -0.5140857E+06 -0.3668868E+05
  0.1133333E+01  0.1166355E+06  0.1102595E+05 -0.3096637E-02  0.8182526E-03 -0.5146056E+06 -0.4184710E+05
  0.1164286E+01  0.1169668E+06  0.1264982E+05 -0.1022245E-02  0.6923676E-03 -0.5146557E+06 -0.4739668E+05
  0.1195238E+01  0.1171560E+06  0.1441524E+05 -0.1927714E-02  0.4596710E-03 -0.5140929E+06 -0.5328968E+05
  0.1226190E+01  0.1173888E+06  0.1634566E+05 -0.1804389E-02  0.8258820E-03 -0.5137352E+06 -0.5960486E+05
  0.1257143E+01  0.1173749E+06  0.1839940E+05 -0.2172643E-02 -0.1089096E-02 -0.5124330E+06 -0.6614475E+05
  0.1288095E+01  0.1175535E+06  0.2065000E+05 -0.2819350E-02  0.3223419E-03 -0.5115182E+06 -0.7312955E+05
  0.1319048E+01  0.1175568E+06  0.2302499E+05 -0.2140086E-02  0.3890991E-03 -0.5101368E+06 -0.8031577E+05
  0.1350000E+01  0.1173483E+06  0.2551149E+05  0.1921477E-02  0.9040833E-03 -0.5080491E+06 -0.8761427E+05
  0.1380952E+01  0.1170010E+06  0.2811287E+05  0.1436431E-03  0.1972198E-02 -0.5054478E+06 -0.9499868E+05
  0.1411905E+01  0.1164597E+06  0.3083134E+05  0.8861934E-03  0.5340576E-04 -0.5027921E+06 -0.1026005E+06
  0.1442857E+01  0.1158653E+06  0.3362731E+05 -0.1882421E-02  0.4005432E-03 -0.4994069E+06 -0.1099887E+06
  0.1473810E+01  0.1152571E+06  0.3654108E+05 -0.7454374E-03 -0.8277893E-03 -0.4960255E+06 -0.1174413E+06
  0.1504762E+01  0.1146169E+06  0.3954810E+05 -0.2839294E-03  0.4043579E-03 -0.4925671E+06 -0.1248286E+06
  0.1535714E+01  0.1137631E+06  0.4259503E+05 -0.1391034E-03 -0.2059937E-03 -0.4888118E+06 -0.1321341E+06
  0.1566667E+01  0.1126750E+06  0.4557158E+05 -0.2356996E-02  0.9155273E-04 -0.4842289E+06 -0.1386971E+06
  0.1597619E+01  0.1115060E+06  0.4857409E+05 -0.2578758E-02 -0.2861023E-03 -0.4796427E+06 -0.1450916E+06
  0.1628572E+01  0.1103083E+06  0.5159329E+05 -0.3372995E-03 -0.4348755E-03 -0.4752122E+06 -0.1512475E+06
  0.1659524E+01  0.1088980E+06  0.5442994E+05 -0.5884594E-03  0.3814697E-03 -0.4701146E+06 -0.1563802E+06
  0.1690476E+01  0.1074712E+06  0.5722425E+05 -0.1516423E-02  0.5416870E-03 -0.4651441E+06 -0.1611138E+06
  0.1721429E+01  0.1060228E+06  0.5992659E+05 -0.2003270E-02  0.1258850E-03 -0.4602162E+06 -0.1652253E+06
  0.1752381E+01  0.1045073E+06  0.6252270E+05 -0.1062310E-02  0.1525879E-03 -0.4554297E+06 -0.1688900E+06
  0.1783333E+01  0.1028750E+06  0.6493607E+05 -0.8556330E-04 -0.1335144E-04 -0.4505984E+06 -0.1719719E+06
  0.1814286E+01  0.1010766E+06  0.6694349E+05 -0.7401114E-03  0.4005432E-04 -0.4452932E+06 -0.1732539E+06
  0.1845238E+01  0.9931217E+05  0.6886666E+05 -0.2398091E-02 -0.1945496E-03 -0.4404300E+06 -0.1744486E+06
  0.1876190E+01  0.9759012E+05  0.7066091E+05 -0.1041006E-02  0.2555847E-03 -0.4359799E+06 -0.1752636E+06
  0.1907143E+01  0.9581878E+05  0.7208468E+05 -0.4800518E-04  0.1506805E-03 -0.4314658E+06 -0.1747959E+06
  0.1938095E+01  0.9407619E+05  0.7325370E+05 -0.7873085E-04 -0.2689362E-03 -0.4271738E+06 -0.1735107E+06
  0.1969048E+01  0.9241543E+05  0.7427741E+05  0.9454176E-03 -0.6866455E-04 -0.4232893E+06 -0.1719484E+06
  0.2000000E+01  0.9086884E+05  0.7516285E+05 -0.4882812E-03 -0.1659393E-03 -0.4198478E+06 -0.1699707E+06
Zone t="Motion of body    1 in DoF   2",I=    64,F=POINT
  0.5000000E-01 -0.1716614E-03 -0.1263618E-04  0.1558768E+05  0.1686730E+02 -0.5340576E-02  0.3802776E-04
  0.8095238E-01 -0.3769818E-03 -0.1835823E-04  0.1547669E+05  0.2782962E+02  0.5843218E-02  0.3623962E-04
  0.1119048E+00  0.9289194E-03  0.1716614E-04  0.1542814E+05  0.3956111E+02 -0.1022664E-02 -0.2026558E-04
  0.1428571E+00  0.1829147E-02 -0.2765656E-04  0.1538813E+05  0.5242528E+02 -0.2339172E-01  0.2918243E-03
  0.1738095E+00 -0.3950563E-03  0.1335144E-04  0.1536075E+05  0.6676852E+02  0.4828466E-02  0.8058548E-04
  0.2047619E+00  0.2934212E-02  0.8010864E-04  0.1535221E+05  0.8324586E+02 -0.1684145E-01  0.2961159E-03
  0.2357143E+00 -0.3398548E-03 -0.8249283E-04  0.1533419E+05  0.1024935E+03 -0.1158743E-01 -0.1454353E-03
  0.2666667E+00  0.9012222E-03  0.1239777E-04  0.1532931E+05  0.1248565E+03 -0.1258850E-02  0.5826950E-03
  0.2976190E+00  0.2986450E-02 -0.2479553E-04  0.1531926E+05  0.1519425E+03 -0.1302246E-01  0.3013611E-03
  0.3285715E+00  0.2554188E-03 -0.8106232E-04  0.1531545E+05  0.1836882E+03 -0.6315811E-02 -0.3805161E-03
  0.3595238E+00 -0.8170020E-03  0.9346008E-04  0.1529595E+05  0.2216176E+03 -0.1697666E-02 -0.1102448E-02
  0.3904762E+00 -0.1250476E-02  0.5722046E-05  0.1528771E+05  0.2663166E+03  0.4064048E-02  0.3814697E-03
  0.4214286E+00  0.3168138E-02  0.1926422E-03  0.1524274E+05  0.3156273E+03 -0.2404164E-01  0.3166199E-03
  0.4523810E+00  0.2259907E-02  0.2593994E-03  0.1522279E+05  0.3731002E+03 -0.5126953E-02 -0.6599426E-03
  0.4833333E+00  0.2020474E-02  0.2250671E-03  0.1514265E+05  0.4291997E+03 -0.7513638E-02  0.2307892E-03
  0.5142857E+00  0.4598830E-03  0.2403259E-03  0.1507763E+05  0.4891483E+03 -0.9019640E-02 -0.1024246E-02
  0.5452381E+00  0.1091437E-02 -0.6980896E-03  0.1499937E+05  0.5462125E+03  0.1007480E-02  0.9422302E-03
  0.5761905E+00  0.2092093E-02 -0.4959106E-03  0.1490386E+05  0.5982982E+03 -0.1022213E-01 -0.2082825E-02
  0.6071429E+00 -0.8921903E-03 -0.0000000E+00  0.1483099E+05  0.6494216E+03 -0.3317440E-02 -0.1731873E-02
  0.6380953E+00  0.1554347E-02  0.1525879E-04  0.1472566E+05  0.6899485E+03 -0.1052173E-01  0.2136230E-02
  0.6690477E+00 -0.1482437E-03 -0.9918213E-04  0.1463129E+05  0.7251180E+03  0.2919261E-02  0.4272461E-03
  0.7000000E+00 -0.8337838E-03  0.3051758E-03  0.1456046E+05  0.7560979E+03 -0.1124791E-01  0.1762390E-02
  0.7309524E+00 -0.9915727E-03  0.1441956E-02  0.1446413E+05  0.7758979E+03  0.2839029E-02 -0.2937317E-02
  0.7619048E+00  0.1787424E-02  0.1983643E-03  0.1437474E+05  0.7889124E+03 -0.9532928E-02 -0.7514954E-03
  0.7928572E+00 -0.7457560E-03  0.1235962E-02  0.1430816E+05  0.7966072E+03 -0.6543408E-02 -0.2109528E-02
  0.8238096E+00  0.1120595E-02 -0.1449585E-03  0.1425429E+05  0.7975341E+03 -0.1118743E-01 -0.4184723E-02
  0.8547620E+00  0.1352252E-02 -0.9536743E-03  0.1417128E+05  0.7858579E+03 -0.1028247E-01 -0.4817963E-02
  0.8857143E+00  0.3747017E-03 -0.9460449E-03  0.1410928E+05  0.7704909E+03 -0.7580172E-03 -0.4196167E-02
  0.9166667E+00  0.1581365E-03  0.1068115E-03  0.1407455E+05  0.7528306E+03  0.7856889E-02  0.8354187E-03
  0.9476191E+00  0.9802238E-03  0.2288818E-03  0.1405450E+05  0.7325505E+03 -0.1416997E-02 -0.1960754E-02
  0.9785714E+00  0.2533850E-03  0.1220703E-03  0.1399669E+05  0.6930292E+03 -0.5301594E-02 -0.2159119E-02
  0.1009524E+01  0.1517152E-02  0.3204346E-03  0.1396065E+05  0.6551909E+03 -0.1517530E-01  0.3143311E-02
  0.1040476E+01  0.3839715E-03 -0.2746582E-03  0.1394213E+05  0.6192731E+03 -0.1038296E-01  0.8316040E-03
  0.1071429E+01  0.4895528E-05 -0.4730225E-03  0.1394395E+05  0.5892690E+03 -0.1105143E-01 -0.1068115E-03
  0.1102381E+01  0.1237099E-02  0.4577637E-04  0.1393788E+05  0.5482433E+03  0.1218067E-02 -0.2975464E-03
  0.1133333E+01  0.1603856E-02 -0.1983643E-03  0.1391907E+05  0.4938740E+03 -0.1023236E-01 -0.6389618E-03
  0.1164286E+01 -0.8600621E-03  0.4730225E-03  0.1391321E+05  0.4462398E+03  0.7548888E-02 -0.5245209E-03
  0.1195238E+01  0.9447075E-03  0.1174927E-02  0.1391800E+05  0.4058268E+03 -0.7455529E-02 -0.3080368E-02
  0.1226190E+01  0.1340848E-02 -0.3662109E-03  0.1393494E+05  0.3769433E+03 -0.3633666E-02 -0.9670258E-03
  0.1257143E+01 -0.6645376E-03  0.1022339E-02  0.1396450E+05  0.3647275E+03  0.3884055E-03 -0.5302429E-03
  0.1288095E+01  0.7729522E-03 -0.5722046E-03  0.1396219E+05  0.3004962E+03 -0.1023495E-01  0.9269714E-03
  0.1319048E+01  0.2128518E-02 -0.4501343E-03  0.1396931E+05  0.2513293E+03 -0.1323383E-01  0.3759384E-02
  0.1350000E+01  0.1206575E-02 -0.4043579E-03  0.1398229E+05  0.2129540E+03 -0.5334925E-02  0.1321793E-02
  0.1380952E+01 -0.6021960E-03 -0.7629395E-03  0.1399961E+05  0.1853845E+03  0.9723532E-03  0.6475449E-03
  0.1411905E+01 -0.4214822E-03 -0.6713867E-03  0.1401962E+05  0.1714249E+03  0.8991621E-02  0.2211571E-02
  0.1442857E+01  0.3701389E-03 -0.7629395E-05  0.1404455E+05  0.1750627E+03 -0.4737779E-02  0.1101494E-02
  0.1473810E+01  0.1242396E-03  0.3280640E-03  0.1406011E+05  0.1361872E+03 -0.1905007E-02 -0.1842499E-02
  0.1504762E+01 -0.4056134E-04 -0.5340576E-04  0.1407618E+05  0.1004641E+03  0.4056134E-03  0.5779266E-03
  0.1535714E+01  0.2434309E-03  0.8392334E-04  0.1409146E+05  0.7238192E+02 -0.3815407E-02 -0.1506805E-03
  0.1566667E+01  0.1139539E-02 -0.2975464E-03  0.1410701E+05  0.5236134E+02 -0.1122008E-01  0.2288818E-03
  0.1597619E+01  0.3772628E-03 -0.3509521E-03  0.1412214E+05  0.4318954E+02  0.3820382E-03  0.1537561E-02
  0.1628572E+01  0.1452262E-02  0.3509521E-03  0.1413617E+05  0.4394275E+02 -0.1266747E-01 -0.5259514E-03
  0.1659524E+01  0.2160750E-03  0.4158020E-03  0.1414893E+05  0.5740860E+02 -0.1838936E-02  0.1101494E-03
  0.1690476E+01  0.1669870E-02  0.3814697E-03  0.1416259E+05  0.5334578E+02 -0.1003727E-01 -0.8478165E-03
  0.1721429E+01  0.2614888E-03 -0.1678467E-03  0.1417846E+05  0.2767028E+02  0.4892943E-02  0.4577637E-04
  0.1752381E+01  0.5050328E-03 -0.1144409E-04  0.1419186E+05  0.9980797E+01 -0.2159450E-02 -0.3725290E-03
  0.1783333E+01 -0.3850349E-04  0.1640320E-03  0.1420314E+05  0.1452982E+01 -0.6571262E-02 -0.8717328E-03
  0.1814286E+01  0.5676991E-03 -0.2441406E-03  0.1421319E+05 -0.4610987E+01 -0.9419599E-03  0.3537536E-03
  0.1845238E+01 -0.3514444E-03 -0.9918213E-04  0.1422121E+05 -0.4303274E+01  0.8136971E-02 -0.4103780E-04
  0.1876190E+01  0.7807543E-03 -0.1106262E-03  0.1422728E+05  0.2301645E-01 -0.2732640E-02  0.1167012E-03
  0.1907143E+01 -0.9761053E-03 -0.1831055E-03  0.1423130E+05  0.1055524E+02  0.1286539E-01  0.3889799E-03
  0.1938095E+01  0.5865449E-03  0.4959106E-04  0.1423336E+05  0.2341943E+02 -0.6046529E-02 -0.3194809E-03
  0.1969048E+01 -0.6974392E-04 -0.2155304E-03  0.1424701E+05  0.7204911E+01 -0.5641508E-02  0.2920330E-03
  0.2000000E+01  0.8506775E-03 -0.7438660E-04  0.1425596E+05  0.2752377E+01 -0.5493164E-03  0.9416044E-04
Zone t="Motion of body    1 in DoF   3",I=    64,F=POINT
  0.5000000E-01 -0.4808079E+06 -0.3820476E-01  0.3555298E-01  0.6492591E-04  0.2807282E+07  0.1811867E+00
  0.8095238E-01 -0.4827097E+06 -0.1612938E+00  0.1809513E-01 -0.6156735E-04  0.2811674E+07  0.7595262E+00
  0.1119048E+00 -0.4833385E+06 -0.4501547E+00 -0.1704439E-02 -0.5669298E-04  0.2813016E+07  0.2119707E+01
  0.1428571E+00 -0.4837492E+06 -0.1008192E+01 -0.9826660E-02 -0.2938244E-03  0.2814090E+07  0.4745905E+01
  0.1738095E+00 -0.4840778E+06 -0.1996778E+01 -0.4828466E-02 -0.3413772E-03  0.2814930E+07  0.9376637E+01
  0.2047619E+00 -0.4842438E+06 -0.3657423E+01  0.4538248E-01  0.4888559E-03  0.2815755E+07  0.1714906E+02
  0.2357143E+00 -0.4845071E+06 -0.6375375E+01  0.1094009E-01 -0.5024076E-03  0.2816651E+07  0.2983067E+02
  0.2666667E+00 -0.4849413E+06 -0.1075338E+02  0.3318787E-01  0.3945306E-03  0.2817829E+07  0.5017831E+02
  0.2976190E+00 -0.4853101E+06 -0.1781552E+02  0.4388672E-01  0.7838607E-03  0.2819316E+07  0.8292805E+02
  0.3285715E+00 -0.4857387E+06 -0.2906493E+02  0.3752335E-01  0.6410852E-03  0.2820586E+07  0.1348639E+03
  0.3595238E+00 -0.4861477E+06 -0.4700453E+02  0.4413933E-02 -0.1314878E-02  0.2822204E+07  0.2174094E+03
  0.3904762E+00 -0.4867064E+06 -0.7534370E+02 -0.5470834E-03 -0.1136482E-02  0.2824214E+07  0.3472500E+03
  0.4214286E+00 -0.4874393E+06 -0.1190379E+03  0.1585879E-01 -0.6583631E-03  0.2826528E+07  0.5462996E+03
  0.4523810E+00 -0.4880275E+06 -0.1863036E+03  0.3379741E-01  0.1220703E-03  0.2828824E+07  0.8516224E+03
  0.4833333E+00 -0.4891848E+06 -0.2840328E+03  0.4230367E-02 -0.1079917E-02  0.2832575E+07  0.1291785E+04
  0.5142857E+00 -0.4900786E+06 -0.4255026E+03  0.3334893E-01  0.1035810E-02  0.2835788E+07  0.1926102E+04
  0.5452381E+00 -0.4910524E+06 -0.6216107E+03  0.3940366E-01  0.3501654E-02  0.2838905E+07  0.2798212E+04
  0.5761905E+00 -0.4920337E+06 -0.8852551E+03  0.1716046E-01 -0.1522064E-02  0.2842424E+07  0.3962562E+04
  0.6071429E+00 -0.4931752E+06 -0.1237018E+04 -0.9148092E-02 -0.4608154E-02  0.2846542E+07  0.5505928E+04
  0.6380953E+00 -0.4948003E+06 -0.1689834E+04 -0.1530434E-01 -0.9757996E-02  0.2851518E+07  0.7471722E+04
  0.6690477E+00 -0.4960028E+06 -0.2264134E+04  0.3320660E-01  0.2799034E-02  0.2855740E+07  0.9945870E+04
  0.7000000E+00 -0.4973097E+06 -0.2986153E+04  0.2144950E-01  0.2546310E-02  0.2860121E+07  0.1302783E+05
  0.7309524E+00 -0.4989580E+06 -0.3876634E+04  0.1795268E-01  0.1121521E-02  0.2864914E+07  0.1678157E+05
  0.7619048E+00 -0.5004449E+06 -0.4958103E+04  0.2323150E-01 -0.3115654E-02  0.2869640E+07  0.2130017E+05
  0.7928572E+00 -0.5020331E+06 -0.6260158E+04  0.2840609E-01 -0.1270294E-02  0.2874628E+07  0.2668128E+05
  0.8238096E+00 -0.5035176E+06 -0.7808069E+04 -0.3630357E-02 -0.4903793E-02  0.2878928E+07  0.3299759E+05
  0.8547620E+00 -0.5052478E+06 -0.9630896E+04  0.2570617E-01  0.5359650E-02  0.2883348E+07  0.4033257E+05
  0.8857143E+00 -0.5065193E+06 -0.1174347E+05  0.3790086E-02 -0.4684448E-02  0.2886650E+07  0.4872617E+05
  0.9166667E+00 -0.5080137E+06 -0.1418160E+05  0.2170632E-01 -0.2456665E-02  0.2890456E+07  0.5827984E+05
  0.9476191E+00 -0.5091887E+06 -0.1696005E+05  0.2563477E-01  0.3147125E-02  0.2892882E+07  0.6899159E+05
  0.9785714E+00 -0.5106942E+06 -0.2011999E+05  0.1234960E-01 -0.8354187E-03  0.2895513E+07  0.8097150E+05
  0.1009524E+01 -0.5119201E+06 -0.2365471E+05  0.2128169E-01 -0.9078979E-03  0.2897628E+07  0.9418756E+05
  0.1040476E+01 -0.5126956E+06 -0.2757043E+05  0.3472719E-01 -0.2101898E-02  0.2898094E+07  0.1085596E+06
  0.1071429E+01 -0.5133927E+06 -0.3188485E+05 -0.1287435E-01 -0.1062775E-01  0.2897834E+07  0.1240859E+06
  0.1102381E+01 -0.5137988E+06 -0.3660402E+05  0.2701893E-01  0.2830505E-02  0.2896194E+07  0.1406824E+06
  0.1133333E+01 -0.5143178E+06 -0.4175468E+05  0.1723346E-01 -0.1022339E-02  0.2894252E+07  0.1584234E+06
  0.1164286E+01 -0.5143638E+06 -0.4728488E+05  0.2054975E-01 -0.1991272E-02  0.2891266E+07  0.1771109E+06
  0.1195238E+01 -0.5137950E+06 -0.5315920E+05  0.7047007E-02 -0.4249573E-02  0.2886142E+07  0.1964533E+06
  0.1226190E+01 -0.5134027E+06 -0.5943982E+05  0.5574939E-02 -0.3356934E-02  0.2881230E+07  0.2166416E+06
  0.1257143E+01 -0.5120987E+06 -0.6595493E+05  0.2650868E-01  0.5287170E-02  0.2873422E+07  0.2369523E+06
  0.1288095E+01 -0.5111955E+06 -0.7293149E+05  0.3231591E-01 -0.1350403E-02  0.2866296E+07  0.2581097E+06
  0.1319048E+01 -0.5098073E+06 -0.8008750E+05  0.2128518E-02 -0.3128052E-02  0.2857668E+07  0.2791288E+06
  0.1350000E+01 -0.5077188E+06 -0.8735098E+05  0.2622251E-02 -0.1533508E-02  0.2847269E+07  0.2997238E+06
  0.1380952E+01 -0.5051216E+06 -0.9470866E+05 -0.1432011E-01 -0.7804871E-02  0.2835508E+07  0.3197589E+06
  0.1411905E+01 -0.5023141E+06 -0.1021087E+06  0.3631231E-02  0.3829956E-02  0.2823606E+07  0.3393706E+06
  0.1442857E+01 -0.4989362E+06 -0.1094529E+06 -0.5668413E-02 -0.1258850E-02  0.2809612E+07  0.3574706E+06
  0.1473810E+01 -0.4955716E+06 -0.1168712E+06 -0.2592466E-01 -0.3852844E-02  0.2795926E+07  0.3749904E+06
  0.1504762E+01 -0.4921092E+06 -0.1242035E+06 -0.5110729E-02 -0.9613037E-03  0.2781732E+07  0.3912558E+06
  0.1535714E+01 -0.4883731E+06 -0.1314416E+06  0.9538517E-03  0.4577637E-03  0.2767982E+07  0.4068805E+06
  0.1566667E+01 -0.4838069E+06 -0.1379470E+06  0.1394718E-01  0.3356934E-03  0.2751701E+07  0.4188017E+06
  0.1597619E+01 -0.4792486E+06 -0.1442970E+06  0.8328433E-02 -0.1045227E-02  0.2736420E+07  0.4299500E+06
  0.1628572E+01 -0.4748254E+06 -0.1503491E+06 -0.3822728E-02  0.2593994E-03  0.2721757E+07  0.4393042E+06
  0.1659524E+01 -0.4697497E+06 -0.1554268E+06 -0.1456437E-01  0.4653931E-03  0.2705822E+07  0.4449118E+06
  0.1690476E+01 -0.4648130E+06 -0.1601301E+06  0.0000000E+00  0.5111694E-03  0.2690916E+07  0.4489124E+06
  0.1721429E+01 -0.4598986E+06 -0.1641743E+06  0.7516695E-02 -0.6866455E-04  0.2676243E+07  0.4505584E+06
  0.1752381E+01 -0.4551349E+06 -0.1677474E+06 -0.8359163E-03 -0.5569458E-03  0.2662610E+07  0.4504141E+06
  0.1783333E+01 -0.4503497E+06 -0.1707884E+06 -0.1232112E-02  0.4196167E-03  0.2650115E+07  0.4496265E+06
  0.1814286E+01 -0.4450776E+06 -0.1720334E+06 -0.1211091E-02 -0.0000000E+00  0.2636342E+07  0.4420700E+06
  0.1845238E+01 -0.4402558E+06 -0.1732146E+06  0.1448778E-01  0.7591248E-03  0.2624822E+07  0.4356312E+06
  0.1876190E+01 -0.4358429E+06 -0.1739356E+06  0.1158119E-01 -0.4425049E-03  0.2614698E+07  0.4275782E+06
  0.1907143E+01 -0.4313620E+06 -0.1734205E+06  0.5376580E-02  0.5226135E-03  0.2604888E+07  0.4164720E+06
  0.1938095E+01 -0.4271060E+06 -0.1721501E+06 -0.9573672E-02  0.6484985E-04  0.2596137E+07  0.4031419E+06
  0.1969048E+01 -0.4232538E+06 -0.1705687E+06 -0.8059298E-03  0.2555847E-03  0.2588712E+07  0.3902213E+06
  0.2000000E+01 -0.4198443E+06 -0.1684871E+06 -0.1599121E-01  0.7247925E-03  0.2582291E+07  0.3753960E+06
