VARIABLES="w (rad/s)"
"A   1   1" "B   1   1"
"A   1   2" "B   1   2"
"A   1   3" "B   1   3"
Zone t="Motion of body    1 in DoF   1",I=    64,F=POINT
  0.5000000E-01  0.1187526E+06  0.7804921E-02 -0.2250671E-02 -0.7546587E-05 -0.1635740E+06 -0.8417276E-02
  0.8095238E-01  0.1194595E+06  0.3434132E-01 -0.7963741E-02  0.9662763E-06 -0.1646249E+06 -0.3693758E-01
  0.1119048E+00  0.1196433E+06  0.9641860E-01 -0.1145383E-01 -0.5623777E-04 -0.1647608E+06 -0.1036722E+00
  0.1428571E+00  0.1198187E+06  0.2167649E+00 -0.8811951E-02 -0.3156572E-04 -0.1649285E+06 -0.2317681E+00
  0.1738095E+00  0.1199695E+06  0.4312618E+00 -0.1681184E-01 -0.9652774E-04 -0.1649466E+06 -0.4601280E+00
  0.2047619E+00  0.1201454E+06  0.7955964E+00 -0.8532502E-02 -0.6030011E-04 -0.1650737E+06 -0.8480734E+00
  0.2357143E+00  0.1202769E+06  0.1400311E+01  0.7638642E-02  0.1754169E-03 -0.1652015E+06 -0.1490049E+01
  0.2666667E+00  0.1204820E+06  0.2386704E+01  0.6122589E-02  0.2773441E-03 -0.1652765E+06 -0.2532072E+01
  0.2976190E+00  0.1207699E+06  0.4001568E+01 -0.1502197E-01  0.8445978E-04 -0.1654295E+06 -0.4232070E+01
  0.3285715E+00  0.1209344E+06  0.6612158E+01  0.7825105E-02 -0.1681969E-04 -0.1656042E+06 -0.6971451E+01
  0.3595238E+00  0.1212710E+06  0.1085112E+02  0.1336912E-02 -0.5591772E-03 -0.1657748E+06 -0.1139681E+02
  0.3904762E+00  0.1216015E+06  0.1767402E+02 -0.2657262E-02 -0.1503676E-03 -0.1659616E+06 -0.1848480E+02
  0.4214286E+00  0.1219681E+06  0.2840586E+02 -0.8943201E-02 -0.1327693E-04 -0.1662137E+06 -0.2957636E+02
  0.4523810E+00  0.1223426E+06  0.4525090E+02 -0.2587087E-01 -0.1384005E-02 -0.1664625E+06 -0.4690143E+02
  0.4833333E+00  0.1228711E+06  0.7034087E+02  0.6503401E-02 -0.1006424E-03 -0.1666969E+06 -0.7248271E+02
  0.5142857E+00  0.1234027E+06  0.1075451E+03 -0.2038320E-01 -0.2955586E-02 -0.1670741E+06 -0.1102335E+03
  0.5452381E+00  0.1238906E+06  0.1604597E+03 -0.9655016E-02 -0.8187294E-03 -0.1675137E+06 -0.1636326E+03
  0.5761905E+00  0.1245163E+06  0.2338547E+03 -0.9877858E-02 -0.4197359E-03 -0.1678790E+06 -0.2369454E+03
  0.6071429E+00  0.1252077E+06  0.3346321E+03 -0.8544921E-03 -0.1059890E-02 -0.1682881E+06 -0.3367955E+03
  0.6380953E+00  0.1259765E+06  0.4683632E+03  0.1628477E-01  0.1107931E-02 -0.1687972E+06 -0.4681343E+03
  0.6690477E+00  0.1267477E+06  0.6441856E+03 -0.5268354E-02 -0.9741783E-03 -0.1694062E+06 -0.6395563E+03
  0.7000000E+00  0.1274971E+06  0.8724700E+03 -0.1307896E-03 -0.4684925E-03 -0.1699583E+06 -0.8600506E+03
  0.7309524E+00  0.1284145E+06  0.1163883E+04 -0.6596568E-02 -0.3319740E-02 -0.1705391E+06 -0.1138101E+04
  0.7619048E+00  0.1294499E+06  0.1532627E+04 -0.4806518E-03 -0.2131462E-02 -0.1711183E+06 -0.1485462E+04
  0.7928572E+00  0.1304969E+06  0.1993630E+04  0.6697371E-02  0.3224373E-02 -0.1718045E+06 -0.1915703E+04
  0.8238096E+00  0.1315610E+06  0.2563649E+04  0.1270625E-01  0.1666069E-02 -0.1725637E+06 -0.2442375E+04
  0.8547620E+00  0.1326085E+06  0.3260392E+04  0.1292449E-01  0.5011559E-02 -0.1732930E+06 -0.3078550E+04
  0.8857143E+00  0.1337630E+06  0.4105637E+04  0.1226610E-01  0.1506805E-03 -0.1739658E+06 -0.3838370E+04
  0.9166667E+00  0.1349324E+06  0.5120796E+04 -0.7757013E-02  0.6755829E-02 -0.1746407E+06 -0.4738768E+04
  0.9476191E+00  0.1361678E+06  0.6330728E+04  0.2383131E-02 -0.2098083E-03 -0.1753116E+06 -0.5795764E+04
  0.9785714E+00  0.1374062E+06  0.7759487E+04  0.2338938E-02 -0.3337860E-02 -0.1759297E+06 -0.7024459E+04
  0.1009524E+01  0.1386443E+06  0.9432291E+04 -0.7255123E-03 -0.4550934E-02 -0.1765378E+06 -0.8441141E+04
  0.1040476E+01  0.1398409E+06  0.1137379E+05 -0.1941672E-01 -0.1035309E-01 -0.1771942E+06 -0.1006405E+05
  0.1071429E+01  0.1408719E+06  0.1360221E+05 -0.2933757E-02  0.2967834E-02 -0.1776493E+06 -0.1189377E+05
  0.1102381E+01  0.1419173E+06  0.1614536E+05 -0.2823700E-02 -0.3402710E-02 -0.1780544E+06 -0.1394269E+05
  0.1133333E+01  0.1428250E+06  0.1901596E+05 -0.1007080E-01 -0.4310608E-02 -0.1782498E+06 -0.1620656E+05
  0.1164286E+01  0.1436568E+06  0.2223168E+05 -0.5609243E-02 -0.8102417E-02 -0.1783028E+06 -0.1868656E+05
  0.1195238E+01  0.1443638E+06  0.2580322E+05  0.1072371E-02 -0.4608154E-02 -0.1782482E+06 -0.2138368E+05
  0.1226190E+01  0.1448271E+06  0.2972612E+05  0.9805921E-02  0.7003784E-02 -0.1779770E+06 -0.2427807E+05
  0.1257143E+01  0.1450293E+06  0.3400279E+05  0.5243475E-02 -0.1173401E-01 -0.1775747E+06 -0.2736994E+05
  0.1288095E+01  0.1451308E+06  0.3860336E+05 -0.8055287E-03 -0.1182556E-01 -0.1770005E+06 -0.3059601E+05
  0.1319048E+01  0.1448464E+06  0.4350544E+05 -0.9393244E-02 -0.1754761E-01 -0.1761906E+06 -0.3394651E+05
  0.1350000E+01  0.1442715E+06  0.4865960E+05 -0.2983941E-02 -0.6210327E-02 -0.1751081E+06 -0.3734891E+05
  0.1380952E+01  0.1434329E+06  0.5403179E+05  0.3933611E-02 -0.6713867E-02 -0.1738666E+06 -0.4078366E+05
  0.1411905E+01  0.1417355E+06  0.5912576E+05 -0.1988532E-02  0.6561279E-02 -0.1722713E+06 -0.4393484E+05
  0.1442857E+01  0.1402784E+06  0.6469971E+05  0.1818969E-02  0.1296997E-01 -0.1705697E+06 -0.4721973E+05
  0.1473810E+01  0.1386002E+06  0.7030703E+05  0.1159569E-02 -0.4272461E-02 -0.1687281E+06 -0.5036825E+05
  0.1504762E+01  0.1365789E+06  0.7585989E+05  0.7584970E-02  0.4180908E-02 -0.1666474E+06 -0.5330072E+05
  0.1535714E+01  0.1343543E+06  0.8131765E+05  0.2980787E-02 -0.1190186E-02 -0.1645037E+06 -0.5601616E+05
  0.1566667E+01  0.1319080E+06  0.8658427E+05  0.7129426E-02 -0.6652832E-02 -0.1622232E+06 -0.5841737E+05
  0.1597619E+01  0.1292881E+06  0.9164311E+05 -0.6303631E-02  0.3662109E-03 -0.1599775E+06 -0.6056488E+05
  0.1628572E+01  0.1264616E+06  0.9639251E+05 -0.6258780E-02 -0.7080078E-02 -0.1576207E+06 -0.6233267E+05
  0.1659524E+01  0.1235183E+06  0.1008176E+06  0.1986051E-02  0.1269531E-01 -0.1552834E+06 -0.6376224E+05
  0.1690476E+01  0.1205477E+06  0.1048934E+06  0.1155370E-02  0.5737305E-02 -0.1530219E+06 -0.6484594E+05
  0.1721429E+01  0.1174941E+06  0.1085611E+06  0.9289500E-02  0.8728027E-02 -0.1507614E+06 -0.6553549E+05
  0.1752381E+01  0.1144306E+06  0.1118323E+06  0.1246908E-01  0.9948730E-02 -0.1485840E+06 -0.6587741E+05
  0.1783333E+01  0.1114034E+06  0.1146896E+06 -0.3970137E-02 -0.9765625E-03 -0.1465205E+06 -0.6588497E+05
  0.1814286E+01  0.1084297E+06  0.1171193E+06  0.4474310E-02 -0.4882812E-03 -0.1445363E+06 -0.6551429E+05
  0.1845238E+01  0.1055338E+06  0.1192101E+06  0.2447707E-02  0.1953125E-01 -0.1427755E+06 -0.6497445E+05
  0.1876190E+01  0.1026829E+06  0.1208767E+06  0.5237560E-02  0.3662109E-02 -0.1410615E+06 -0.6407266E+05
  0.1907143E+01  0.9992050E+05  0.1221788E+06  0.1104119E-02 -0.5737305E-02 -0.1394704E+06 -0.6292568E+05
  0.1938095E+01  0.9733156E+05  0.1232017E+06  0.4881313E-03 -0.1263428E-01 -0.1381235E+06 -0.6168513E+05
  0.1969048E+01  0.9486576E+05  0.1238643E+06  0.1069407E-02  0.2001953E-01 -0.1368587E+06 -0.6015066E+05
  0.2000000E+01  0.9246416E+05  0.1242081E+06 -0.8468628E-02  0.5432129E-02 -0.1356736E+06 -0.5843049E+05
Zone t="Motion of body    1 in DoF   2",I=    64,F=POINT
  0.5000000E-01  0.3242493E-02  0.1502037E-04  0.6660019E+05  0.1717928E+03  0.2357483E-01 -0.2622604E-04
  0.8095238E-01 -0.2450382E-02 -0.2884865E-04  0.6585698E+05  0.2849434E+03  0.2280740E-01  0.7629395E-04
  0.1119048E+00  0.4636074E-02 -0.4291534E-05  0.6547746E+05  0.4082513E+03 -0.1908972E-02  0.4434586E-04
  0.1428571E+00 -0.3417969E-02 -0.8153915E-04  0.6529587E+05  0.5464367E+03 -0.8171082E-02 -0.1525879E-03
  0.1738095E+00  0.1272959E-02 -0.8869171E-04  0.6525510E+05  0.7055145E+03  0.1400255E-01 -0.2918243E-03
  0.2047619E+00  0.7973604E-02  0.1354218E-03  0.6535719E+05  0.8929467E+03 -0.1609625E-01 -0.4863739E-04
  0.2357143E+00  0.1844926E-01  0.3433228E-04  0.6556148E+05  0.1119264E+04  0.9062795E-03  0.3194809E-03
  0.2666667E+00  0.7781982E-02 -0.1296997E-03  0.6581457E+05  0.1393559E+04  0.2683639E-01  0.3776550E-03
  0.2976190E+00  0.4716797E-02  0.1144409E-04  0.6616820E+05  0.1735537E+04 -0.1891846E-01  0.6694794E-03
  0.3285715E+00 -0.3250785E-03 -0.1106262E-03  0.6656001E+05  0.2156320E+04  0.4551099E-02  0.1220703E-03
  0.3595238E+00  0.1994758E-02 -0.4081726E-03  0.6690809E+05  0.2679809E+04 -0.3819750E-03 -0.3051758E-03
  0.3904762E+00  0.1641250E-02  0.3204346E-03  0.6727134E+05  0.3324726E+04 -0.6877619E-02  0.3547668E-03
  0.4214286E+00 -0.1810365E-03  0.8010864E-04  0.6749659E+05  0.4085228E+04 -0.1448292E-02 -0.5035400E-03
  0.4523810E+00 -0.4115054E-02 -0.2136230E-03  0.6763241E+05  0.5001043E+04  0.1753957E-02 -0.1510620E-02
  0.4833333E+00  0.8081896E-02  0.8773804E-04  0.6753716E+05  0.5999465E+04 -0.7576778E-03 -0.4959106E-03
  0.5142857E+00 -0.8010865E-02 -0.2197266E-02  0.6728810E+05  0.7126936E+04 -0.3679064E-02 -0.2113342E-02
  0.5452381E+00  0.1231364E-02 -0.1075745E-02  0.6691906E+05  0.8324698E+04  0.1242559E-01  0.4043579E-03
  0.5761905E+00 -0.8421337E-02  0.2014160E-02  0.6638966E+05  0.9573021E+04 -0.1207588E-01  0.2899170E-03
  0.6071429E+00 -0.1005285E-01  0.3051758E-03  0.6568630E+05  0.1089985E+05  0.6835937E-02  0.2975464E-02
  0.6380953E+00 -0.1865216E-02  0.3051758E-03  0.6495284E+05  0.1223261E+05  0.2649563E-01 -0.7629395E-04
  0.6690477E+00  0.1030864E-01 -0.4577637E-03  0.6413671E+05  0.1359866E+05 -0.1947695E-01 -0.3097534E-02
  0.7000000E+00 -0.3226144E-02  0.9155273E-04  0.6321755E+05  0.1500302E+05 -0.5536760E-02  0.6103516E-03
  0.7309524E+00 -0.1477965E-01  0.9918213E-03  0.6224796E+05  0.1640728E+05  0.1586516E-02 -0.1983643E-03
  0.7619048E+00 -0.2803802E-02  0.2548218E-02  0.6121485E+05  0.1781682E+05  0.4405975E-02  0.2761841E-02
  0.7928572E+00 -0.7698127E-04  0.1693726E-02  0.6012033E+05  0.1922658E+05 -0.1662795E-01  0.2471924E-02
  0.8238096E+00  0.2963557E-03  0.1708984E-02  0.5899878E+05  0.2062415E+05 -0.1244694E-01  0.1159668E-02
  0.8547620E+00 -0.7212009E-02  0.2899170E-02  0.5786071E+05  0.2199820E+05 -0.1806572E-01  0.2319336E-02
  0.8857143E+00 -0.1447124E-02 -0.2166748E-02  0.5670118E+05  0.2334223E+05 -0.1901934E-01  0.3967285E-03
  0.9166667E+00  0.7324219E-03 -0.4272461E-03  0.5550832E+05  0.2465160E+05 -0.9055397E-02  0.1525879E-03
  0.9476191E+00  0.6537509E-02  0.1190186E-02  0.5428671E+05  0.2591877E+05 -0.6956168E-02 -0.5310059E-02
  0.9785714E+00  0.2494868E-02  0.6622314E-02  0.5305775E+05  0.2713510E+05 -0.1029133E-01 -0.1159668E-01
  0.1009524E+01  0.5259964E-02  0.3051758E-03  0.5184825E+05  0.2829328E+05  0.2055618E-02 -0.5310059E-02
  0.1040476E+01  0.4927506E-02 -0.2410889E-02  0.5065361E+05  0.2938879E+05  0.5572775E-02 -0.2075195E-02
  0.1071429E+01  0.3531901E-02 -0.6103516E-03  0.4946350E+05  0.3042335E+05  0.3816732E-02  0.4302979E-02
  0.1102381E+01 -0.5038366E-02  0.1220703E-03  0.4830456E+05  0.3138595E+05  0.3377366E-02 -0.2288818E-02
  0.1133333E+01  0.6866455E-02 -0.2716064E-02  0.4715650E+05  0.3228421E+05 -0.1238655E-02 -0.8117676E-02
  0.1164286E+01 -0.1150681E-01  0.2746582E-03  0.4604162E+05  0.3310954E+05 -0.1032730E-01 -0.2929688E-02
  0.1195238E+01  0.2195806E-02 -0.2624512E-02  0.4495050E+05  0.3386247E+05  0.9089618E-02 -0.1123047E-01
  0.1226190E+01 -0.9706368E-03 -0.3509521E-02  0.4389025E+05  0.3454443E+05 -0.7516213E-02  0.7934570E-03
  0.1257143E+01 -0.4952170E-02 -0.1892090E-02  0.4287578E+05  0.3517183E+05  0.1165217E-01  0.1544189E-01
  0.1288095E+01  0.8055286E-02  0.2777100E-02  0.4190524E+05  0.3568323E+05  0.1141955E-01  0.8850098E-02
  0.1319048E+01 -0.5899698E-02 -0.2075195E-02  0.4097731E+05  0.3614436E+05  0.1573253E-02 -0.2380371E-02
  0.1350000E+01 -0.1401548E-01  0.4943848E-02  0.4009728E+05  0.3653515E+05  0.1283999E-01 -0.1281738E-02
  0.1380952E+01 -0.2828664E-02  0.1745605E-01  0.3926786E+05  0.3685221E+05 -0.1909348E-01 -0.6774902E-02
  0.1411905E+01 -0.9272609E-02  0.2807617E-02  0.3849996E+05  0.3716330E+05  0.1685929E-02  0.2807617E-02
  0.1442857E+01  0.1184445E-02 -0.2868652E-02  0.3775668E+05  0.3737626E+05 -0.9813970E-02  0.5310059E-02
  0.1473810E+01  0.1097450E-02  0.9155273E-03  0.3705536E+05  0.3753253E+05 -0.2381258E-02 -0.5615234E-02
  0.1504762E+01  0.8659845E-02 -0.6896973E-02  0.3639613E+05  0.3764333E+05 -0.1176279E-01 -0.1361084E-01
  0.1535714E+01  0.4809002E-02  0.1037598E-02  0.3579232E+05  0.3770096E+05  0.1470521E-02 -0.4943848E-02
  0.1566667E+01 -0.5668478E-02 -0.1770020E-02  0.3523183E+05  0.3770951E+05 -0.6486608E-02 -0.2441406E-03
  0.1597619E+01  0.7144115E-02  0.7751465E-02  0.3472152E+05  0.3768402E+05 -0.2169977E-01 -0.2563477E-02
  0.1628572E+01 -0.6989596E-02 -0.5249023E-02  0.3424954E+05  0.3763882E+05  0.1587182E-01 -0.1831055E-02
  0.1659524E+01 -0.3880155E-02  0.3234863E-02  0.3382220E+05  0.3757512E+05 -0.1342423E-02  0.6103516E-02
  0.1690476E+01  0.1931634E-02  0.9826660E-02  0.3343463E+05  0.3748008E+05  0.1779991E-01  0.7934570E-03
  0.1721429E+01 -0.1914630E-02 -0.2746582E-02  0.3308746E+05  0.3738262E+05 -0.1391652E-01  0.4638672E-02
  0.1752381E+01 -0.2768973E-02 -0.9338379E-02  0.3277477E+05  0.3727595E+05 -0.6286787E-02 -0.4882812E-03
  0.1783333E+01 -0.1281738E-01  0.4943848E-02  0.3250184E+05  0.3717965E+05  0.7803374E-02 -0.9155273E-03
  0.1814286E+01 -0.2640852E-02 -0.1525879E-02  0.3225726E+05  0.3708300E+05 -0.1209409E-01 -0.3356934E-02
  0.1845238E+01 -0.1637317E-02 -0.3662109E-03  0.3204136E+05  0.3701984E+05  0.1306546E-02 -0.1770020E-02
  0.1876190E+01 -0.5432749E-02  0.4272461E-03  0.3184055E+05  0.3698462E+05  0.8458172E-03 -0.2441406E-02
  0.1907143E+01  0.7680829E-03  0.2624512E-02  0.3165652E+05  0.3698756E+05  0.4160449E-03 -0.2563477E-02
  0.1938095E+01  0.1464394E-02  0.4394531E-02  0.3148996E+05  0.3702457E+05 -0.9447702E-02 -0.9460449E-02
  0.1969048E+01 -0.3828167E-02  0.6591797E-02  0.3133090E+05  0.3708819E+05 -0.3006738E-02  0.1831055E-02
  0.2000000E+01  0.1602173E-02  0.7934570E-03  0.3116023E+05  0.3721406E+05  0.7156372E-02  0.6713867E-03
Zone t="Motion of body    1 in DoF   3",I=    64,F=POINT
  0.5000000E-01 -0.1621196E+06 -0.8175928E-02 -0.1749039E-01 -0.6809429E-04  0.4263162E+06  0.9055325E-02
  0.8095238E-01 -0.1633676E+06 -0.3564779E-01  0.5232096E-01  0.1697191E-03  0.4275733E+06  0.3880868E-01
  0.1119048E+00 -0.1635346E+06 -0.9990764E-01  0.2151855E-01  0.5236827E-04  0.4276533E+06  0.1076168E+00
  0.1428571E+00 -0.1637189E+06 -0.2236028E+00  0.3405619E-01  0.2516556E-03  0.4277279E+06  0.2389516E+00
  0.1738095E+00 -0.1637320E+06 -0.4443949E+00 -0.1827410E-01  0.2016407E-04  0.4277922E+06  0.4738934E+00
  0.2047619E+00 -0.1638645E+06 -0.8186518E+00  0.2535066E-01  0.1667349E-03  0.4278641E+06  0.8727894E+00
  0.2357143E+00 -0.1639740E+06 -0.1437203E+01  0.6704041E-02 -0.2072630E-03  0.4279751E+06  0.1529770E+01
  0.2666667E+00 -0.1640451E+06 -0.2442899E+01  0.2789497E-03  0.3264081E-03  0.4280037E+06  0.2591334E+01
  0.2976190E+00 -0.1642020E+06 -0.4083746E+01 -0.1634216E-02  0.1095328E-03  0.4281362E+06  0.4319515E+01
  0.3285715E+00 -0.1643423E+06 -0.6723341E+01 -0.3214794E-01 -0.6584357E-03  0.4282220E+06  0.7089939E+01
  0.3595238E+00 -0.1645156E+06 -0.1099485E+02  0.5554553E-02 -0.2278052E-03  0.4283445E+06  0.1154846E+02
  0.3904762E+00 -0.1647074E+06 -0.1783128E+02  0.2515607E-02  0.9430349E-03  0.4284342E+06  0.1864710E+02
  0.4214286E+00 -0.1649320E+06 -0.2852617E+02 -0.2563024E-01 -0.5520210E-03  0.4285975E+06  0.2969892E+02
  0.4523810E+00 -0.1651415E+06 -0.4523217E+02 -0.3004495E-01 -0.3140643E-02  0.4288979E+06  0.4688187E+02
  0.4833333E+00 -0.1653758E+06 -0.6994368E+02  0.3274589E-01  0.2666652E-02  0.4291273E+06  0.7206644E+02
  0.5142857E+00 -0.1657573E+06 -0.1063577E+03 -0.2561622E-01 -0.1318276E-02  0.4292676E+06  0.1090155E+03
  0.5452381E+00 -0.1661569E+06 -0.1577579E+03  0.2889159E-01  0.5572140E-02  0.4295530E+06  0.1608789E+03
  0.5761905E+00 -0.1664994E+06 -0.2284899E+03  0.1177134E-01  0.6307960E-03  0.4299068E+06  0.2315141E+03
  0.6071429E+00 -0.1668931E+06 -0.3248657E+03  0.2394463E-01  0.5900025E-02  0.4302613E+06  0.3270212E+03
  0.6380953E+00 -0.1673966E+06 -0.4515096E+03  0.8327711E-02  0.9375811E-03  0.4305858E+06  0.4512774E+03
  0.6690477E+00 -0.1679807E+06 -0.6163915E+03  0.7109998E-02  0.2228260E-02  0.4309069E+06  0.6119494E+03
  0.7000000E+00 -0.1684755E+06 -0.8285101E+03  0.1867022E-01  0.1257181E-02  0.4313624E+06  0.8167732E+03
  0.7309524E+00 -0.1690273E+06 -0.1096466E+04  0.4026829E-01  0.1002550E-01  0.4318429E+06  0.1072163E+04
  0.7619048E+00 -0.1696006E+06 -0.1431793E+04  0.4321360E-01  0.1912642E-01  0.4322552E+06  0.1387676E+04
  0.7928572E+00 -0.1702666E+06 -0.1845953E+04 -0.1977456E-01 -0.1069736E-01  0.4326741E+06  0.1773718E+04
  0.8238096E+00 -0.1709872E+06 -0.2351607E+04  0.1105777E-01  0.3118515E-02  0.4331100E+06  0.2240284E+04
  0.8547620E+00 -0.1716596E+06 -0.2961875E+04  0.6087364E-02 -0.2099037E-02  0.4335710E+06  0.2796678E+04
  0.8857143E+00 -0.1722937E+06 -0.3692781E+04  0.4358599E-02  0.5479813E-02  0.4339836E+06  0.3452298E+04
  0.9166667E+00 -0.1729308E+06 -0.4558844E+04 -0.2680830E-01 -0.1160049E-01  0.4344540E+06  0.4218557E+04
  0.9476191E+00 -0.1735777E+06 -0.5575773E+04 -0.4299298E-01 -0.2908325E-01  0.4348576E+06  0.5104051E+04
  0.9785714E+00 -0.1741722E+06 -0.6757812E+04  0.3046077E-01  0.1073074E-01  0.4351492E+06  0.6116744E+04
  0.1009524E+01 -0.1747564E+06 -0.8118600E+04  0.3706159E-01  0.2079773E-01  0.4353786E+06  0.7264368E+04
  0.1040476E+01 -0.1753636E+06 -0.9669046E+04 -0.2036263E-01 -0.1853561E-01  0.4355758E+06  0.8554553E+04
  0.1071429E+01 -0.1757667E+06 -0.1141799E+05  0.7206218E-02  0.2330780E-02  0.4356267E+06  0.9983473E+04
  0.1102381E+01 -0.1761305E+06 -0.1337791E+05  0.4609275E-02 -0.1747131E-02  0.4356778E+06  0.1155121E+05
  0.1133333E+01 -0.1763037E+06 -0.1555156E+05  0.5964391E-02 -0.5737305E-02  0.4356514E+06  0.1325199E+05
  0.1164286E+01 -0.1763555E+06 -0.1793483E+05  0.1389205E-02 -0.6042480E-02  0.4354430E+06  0.1507121E+05
  0.1195238E+01 -0.1762966E+06 -0.2051788E+05 -0.2597946E-01 -0.1915741E-01  0.4350422E+06  0.1699702E+05
  0.1226190E+01 -0.1760236E+06 -0.2328842E+05 -0.2351928E-02 -0.1396179E-02  0.4345001E+06  0.1901235E+05
  0.1257143E+01 -0.1756038E+06 -0.2622141E+05 -0.1389764E-01 -0.4196167E-02  0.4338572E+06  0.2109862E+05
  0.1288095E+01 -0.1750332E+06 -0.2929597E+05 -0.1196447E-02 -0.3051758E-01  0.4329985E+06  0.2321287E+05
  0.1319048E+01 -0.1742163E+06 -0.3247247E+05  0.9670877E-02  0.1745605E-01  0.4320784E+06  0.2533644E+05
  0.1350000E+01 -0.1731505E+06 -0.3569638E+05 -0.1980252E-01 -0.3421021E-01  0.4308767E+06  0.2740209E+05
  0.1380952E+01 -0.1719256E+06 -0.3894377E+05 -0.2110448E-02  0.1457214E-01  0.4296370E+06  0.2939417E+05
  0.1411905E+01 -0.1713039E+06 -0.4253457E+05 -0.1357389E-01 -0.9719849E-02  0.4285008E+06  0.3160268E+05
  0.1442857E+01 -0.1696549E+06 -0.4571537E+05 -0.9676489E-02 -0.5874634E-02  0.4270866E+06  0.3336143E+05
  0.1473810E+01 -0.1678603E+06 -0.4873600E+05  0.8282638E-03 -0.1379395E-01  0.4254772E+06  0.3489637E+05
  0.1504762E+01 -0.1658528E+06 -0.5158180E+05  0.1855681E-02 -0.2377319E-01  0.4238536E+06  0.3621653E+05
  0.1535714E+01 -0.1637758E+06 -0.5419661E+05 -0.2504854E-01  0.1159668E-02  0.4222433E+06  0.3730711E+05
  0.1566667E+01 -0.1615633E+06 -0.5649524E+05 -0.5215584E-02 -0.2755737E-01  0.4204417E+06  0.3807112E+05
  0.1597619E+01 -0.1593823E+06 -0.5852466E+05 -0.5668493E-02 -0.8209229E-02  0.4188146E+06  0.3860639E+05
  0.1628572E+01 -0.1571082E+06 -0.6021878E+05 -0.6462565E-02  0.4272461E-02  0.4171915E+06  0.3885475E+05
  0.1659524E+01 -0.1548534E+06 -0.6159369E+05 -0.5378887E-02 -0.3079224E-01  0.4157118E+06  0.3886491E+05
  0.1690476E+01 -0.1526635E+06 -0.6259251E+05 -0.2092246E-01 -0.2301025E-01  0.4142413E+06  0.3854749E+05
  0.1721429E+01 -0.1504796E+06 -0.6324755E+05 -0.8775387E-03 -0.1141357E-01  0.4128877E+06  0.3799829E+05
  0.1752381E+01 -0.1483799E+06 -0.6358877E+05 -0.1944594E-01 -0.1174927E-01  0.4116829E+06  0.3723321E+05
  0.1783333E+01 -0.1463891E+06 -0.6358869E+05 -0.5878199E-02  0.1770020E-02  0.4106198E+06  0.3629239E+05
  0.1814286E+01 -0.1444628E+06 -0.6318455E+05  0.3507119E-02  0.1800537E-02  0.4094597E+06  0.3500359E+05
  0.1845238E+01 -0.1427575E+06 -0.6259241E+05 -0.1030766E-01  0.5432129E-02  0.4086504E+06  0.3372984E+05
  0.1876190E+01 -0.1411071E+06 -0.6170102E+05  0.5046438E-02  0.5096436E-02  0.4078830E+06  0.3227156E+05
  0.1907143E+01 -0.1395796E+06 -0.6059784E+05 -0.8880959E-03 -0.8758545E-02  0.4072549E+06  0.3074595E+05
  0.1938095E+01 -0.1382774E+06 -0.5932652E+05  0.2771326E-02  0.1110840E-01  0.4068362E+06  0.2920583E+05
  0.1969048E+01 -0.1370496E+06 -0.5774194E+05  0.1413477E-01  0.1586914E-01  0.4063190E+06  0.2736607E+05
  0.2000000E+01 -0.1359160E+06 -0.5611095E+05  0.2021790E-02 -0.5279541E-02  0.4060488E+06  0.2568575E+05
