VARIABLES="w (rad/s)"
"A   1   1" "B   1   1"
"A   1   2" "B   1   2"
"A   1   3" "B   1   3"
Zone t="Motion of body    1 in DoF   1",I=    64,F=POINT
  0.5000000E-01  0.2636965E+05  0.5658332E-03 -0.2546310E-02 -0.3474463E-05 -0.5144295E+05 -0.1057087E-02
  0.8095238E-01  0.2660922E+05  0.2325941E-02 -0.3239688E-02 -0.7761679E-05 -0.5187815E+05 -0.4343882E-02
  0.1119048E+00  0.2669779E+05  0.6599335E-02 -0.5454206E-03 -0.4916721E-05 -0.5200320E+05 -0.1218467E-01
  0.1428571E+00  0.2675073E+05  0.1465748E-01 -0.1108170E-02 -0.8505747E-05 -0.5207013E+05 -0.2685519E-01
  0.1738095E+00  0.2678089E+05  0.2916981E-01  0.1536330E-03  0.8391216E-05 -0.5207726E+05 -0.5343189E-01
  0.2047619E+00  0.2679373E+05  0.5399373E-01 -0.9873856E-03 -0.2386561E-04 -0.5210357E+05 -0.9883492E-01
  0.2357143E+00  0.2683435E+05  0.9505880E-01 -0.5178740E-03 -0.1859205E-04 -0.5213673E+05 -0.1737017E+00
  0.2666667E+00  0.2685609E+05  0.1620013E+00 -0.1587868E-02 -0.2991693E-04 -0.5215225E+05 -0.2954494E+00
  0.2976190E+00  0.2687373E+05  0.2713218E+00  0.1691894E-02  0.1416414E-04 -0.5219255E+05 -0.4937734E+00
  0.3285715E+00  0.2688421E+05  0.4480559E+00 -0.3076636E-02 -0.7031625E-04 -0.5220233E+05 -0.8133612E+00
  0.3595238E+00  0.2697116E+05  0.7353390E+00  0.9549374E-04  0.1266599E-05 -0.5226517E+05 -0.1330232E+01
  0.3904762E+00  0.2697907E+05  0.1196140E+01 -0.1162552E-02 -0.9467080E-04 -0.5227832E+05 -0.2156895E+01
  0.4214286E+00  0.2702412E+05  0.1921356E+01  0.8599232E-03  0.4821364E-04 -0.5232957E+05 -0.3451605E+01
  0.4523810E+00  0.2707142E+05  0.3058558E+01 -0.1669633E-02 -0.1685973E-03 -0.5237137E+05 -0.5473262E+01
  0.4833333E+00  0.2713441E+05  0.4749851E+01  0.6313982E-03 -0.1328941E-03 -0.5243092E+05 -0.8463391E+01
  0.5142857E+00  0.2720388E+05  0.7256139E+01 -0.1335144E-02 -0.1249500E-03 -0.5252146E+05 -0.1287454E+02
  0.5452381E+00  0.2722072E+05  0.1080828E+02  0.2644635E-02  0.3444329E-03 -0.5256703E+05 -0.1909935E+02
  0.5761905E+00  0.2734063E+05  0.1574611E+02 -0.4501973E-03 -0.8877367E-04 -0.5267591E+05 -0.2767122E+02
  0.6071429E+00  0.2741116E+05  0.2249873E+02  0.2136230E-03 -0.2825260E-04 -0.5275261E+05 -0.3933597E+02
  0.6380953E+00  0.2747805E+05  0.3143554E+02  0.1614129E-02  0.1415461E-03 -0.5283591E+05 -0.5467354E+02
  0.6690477E+00  0.2757707E+05  0.4318554E+02 -0.2189446E-02 -0.3903210E-03 -0.5296754E+05 -0.7469247E+02
  0.7000000E+00  0.2764308E+05  0.5839802E+02 -0.1961844E-03  0.8702278E-05 -0.5304754E+05 -0.1004277E+03
  0.7309524E+00  0.2775688E+05  0.7781502E+02  0.9602599E-03  0.9411573E-04 -0.5317650E+05 -0.1329801E+03
  0.7619048E+00  0.2789844E+05  0.1023694E+03 -0.5006790E-04  0.2527237E-04 -0.5331787E+05 -0.1737413E+03
  0.7928572E+00  0.2802401E+05  0.1330064E+03  0.1924532E-03 -0.1854300E-03 -0.5347567E+05 -0.2242517E+03
  0.8238096E+00  0.2810858E+05  0.1707397E+03 -0.2037445E-03  0.1132488E-04 -0.5357875E+05 -0.2859507E+03
  0.8547620E+00  0.2820536E+05  0.2168866E+03  0.1874408E-02  0.3181696E-03 -0.5370604E+05 -0.3607523E+03
  0.8857143E+00  0.2838083E+05  0.2731697E+03 -0.8613832E-04  0.5831718E-03 -0.5389233E+05 -0.4508240E+03
  0.9166667E+00  0.2853817E+05  0.3408215E+03  0.3162731E-03 -0.8869171E-04 -0.5406910E+05 -0.5581051E+03
  0.9476191E+00  0.2867812E+05  0.4214634E+03  0.2318722E-02  0.1086950E-02 -0.5421186E+05 -0.6846139E+03
  0.9785714E+00  0.2882994E+05  0.5170982E+03  0.6393099E-03  0.2012253E-03 -0.5437940E+05 -0.8331111E+03
  0.1009524E+01  0.2900246E+05  0.6298101E+03  0.1738206E-02  0.7610321E-03 -0.5454831E+05 -0.1005864E+04
  0.1040476E+01  0.2917432E+05  0.7615361E+03  0.0000000E+00  0.3104210E-03 -0.5474882E+05 -0.1205900E+04
  0.1071429E+01  0.2930820E+05  0.9139016E+03 -0.2463786E-02 -0.1033783E-02 -0.5489357E+05 -0.1434613E+04
  0.1102381E+01  0.2946852E+05  0.1090141E+04 -0.6228749E-03 -0.7295609E-04 -0.5505738E+05 -0.1695690E+04
  0.1133333E+01  0.2964838E+05  0.1292806E+04 -0.2019546E-02 -0.7686615E-03 -0.5522245E+05 -0.1991656E+04
  0.1164286E+01  0.2985642E+05  0.1524912E+04 -0.9305052E-03 -0.8344650E-03 -0.5539997E+05 -0.2325568E+04
  0.1195238E+01  0.3006865E+05  0.1788747E+04 -0.7532127E-03 -0.1108170E-02 -0.5560461E+05 -0.2700825E+04
  0.1226190E+01  0.3024148E+05  0.2085634E+04 -0.1493287E-02 -0.6942749E-03 -0.5575215E+05 -0.3117281E+04
  0.1257143E+01  0.3037532E+05  0.2417160E+04 -0.3483512E-02 -0.2843857E-02 -0.5584218E+05 -0.3575561E+04
  0.1288095E+01  0.3056412E+05  0.2791572E+04 -0.1338599E-02 -0.2208710E-02 -0.5600933E+05 -0.4086080E+04
  0.1319048E+01  0.3070103E+05  0.3204697E+04 -0.1584821E-02 -0.2351761E-02 -0.5608369E+05 -0.4639426E+04
  0.1350000E+01  0.3086168E+05  0.3663226E+04 -0.2181442E-02 -0.1777649E-02 -0.5618392E+05 -0.5243954E+04
  0.1380952E+01  0.3102788E+05  0.4169041E+04  0.5524734E-03 -0.1014709E-02 -0.5629167E+05 -0.5900768E+04
  0.1411905E+01  0.3101137E+05  0.4688907E+04  0.1794001E-02  0.9078979E-03 -0.5626017E+05 -0.6572086E+04
  0.1442857E+01  0.3112214E+05  0.5285485E+04 -0.9729366E-03 -0.2548218E-02 -0.5625573E+05 -0.7319206E+04
  0.1473810E+01  0.3123402E+05  0.5934826E+04  0.1594408E-02  0.1434326E-02 -0.5627407E+05 -0.8121708E+04
  0.1504762E+01  0.3131741E+05  0.6633588E+04 -0.4258940E-03 -0.2964020E-02 -0.5623943E+05 -0.8967407E+04
  0.1535714E+01  0.3138525E+05  0.7383610E+04  0.1609625E-02  0.1499176E-02 -0.5616909E+05 -0.9855968E+04
  0.1566667E+01  0.3144798E+05  0.8186083E+04 -0.1889493E-02 -0.4676819E-02 -0.5609176E+05 -0.1078755E+05
  0.1597619E+01  0.3147080E+05  0.9036963E+04  0.1833784E-02  0.2166748E-02 -0.5598459E+05 -0.1175853E+05
  0.1628572E+01  0.3144486E+05  0.9931195E+04  0.4122550E-03 -0.1556396E-02 -0.5581379E+05 -0.1275506E+05
  0.1659524E+01  0.3136155E+05  0.1086235E+05  0.3861765E-03  0.4196167E-03 -0.5555752E+05 -0.1376193E+05
  0.1690476E+01  0.3126300E+05  0.1183761E+05 -0.5957375E-03 -0.2258301E-02 -0.5530594E+05 -0.1479859E+05
  0.1721429E+01  0.3114615E+05  0.1285057E+05  0.5672977E-03  0.2136230E-03 -0.5503418E+05 -0.1584846E+05
  0.1752381E+01  0.3098560E+05  0.1388733E+05  0.5572775E-03  0.1518250E-02 -0.5467690E+05 -0.1688155E+05
  0.1783333E+01  0.3081805E+05  0.1495575E+05  0.5647178E-03 -0.3158569E-02 -0.5432120E+05 -0.1792139E+05
  0.1814286E+01  0.3063635E+05  0.1604841E+05 -0.1412940E-02 -0.4272461E-03 -0.5396364E+05 -0.1895696E+05
  0.1845238E+01  0.3040097E+05  0.1715000E+05  0.0000000E+00 -0.4974365E-02 -0.5356951E+05 -0.1997583E+05
  0.1876190E+01  0.3011848E+05  0.1824932E+05  0.3903772E-03 -0.2044678E-02 -0.5312852E+05 -0.2095478E+05
  0.1907143E+01  0.2978069E+05  0.1932922E+05  0.8000864E-03 -0.1037598E-02 -0.5261022E+05 -0.2185656E+05
  0.1938095E+01  0.2942243E+05  0.2040294E+05  0.3621619E-03  0.4119873E-03 -0.5209634E+05 -0.2272731E+05
  0.1969048E+01  0.2904837E+05  0.2146577E+05  0.1394878E-02  0.1327515E-02 -0.5159586E+05 -0.2356464E+05
  0.2000000E+01  0.2864284E+05  0.2248944E+05  0.6408691E-03 -0.1068115E-02 -0.5104976E+05 -0.2430871E+05
Zone t="Motion of body    1 in DoF   2",I=    64,F=POINT
  0.5000000E-01  0.9155273E-03  0.3755093E-05  0.6723794E+04  0.1495049E+02 -0.3575683E-02  0.8344650E-05
  0.8095238E-01 -0.3864064E-02 -0.1037121E-04  0.6677622E+04  0.2481697E+02 -0.4673986E-02 -0.1119636E-04
  0.1119048E+00  0.1533995E-02 -0.4887581E-05  0.6649141E+04  0.3559634E+02 -0.5267783E-02 -0.1193956E-04
  0.1428571E+00  0.4539489E-03 -0.6437302E-05  0.6641226E+04  0.4772492E+02 -0.5360603E-02  0.3647432E-04
  0.1738095E+00  0.3138503E-02  0.9775162E-05  0.6641389E+04  0.6174153E+02  0.7530761E-03  0.3426522E-04
  0.2047619E+00 -0.8197163E-03  0.7152557E-06  0.6658140E+04  0.7833475E+02 -0.2102852E-02 -0.3772974E-04
  0.2357143E+00 -0.1262318E-02 -0.3862381E-04  0.6683785E+04  0.9847392E+02  0.1416062E-03 -0.1884252E-04
  0.2666667E+00 -0.1516342E-02 -0.1573563E-04  0.6715222E+04  0.1230215E+03  0.1409054E-02  0.5200505E-05
  0.2976190E+00  0.5639648E-03  0.8010864E-04  0.6756350E+04  0.1538101E+03  0.1946640E-03  0.8578598E-04
  0.3285715E+00  0.2321989E-03 -0.7057190E-04  0.6802546E+04  0.1919607E+03 -0.1075371E-02 -0.3848970E-04
  0.3595238E+00  0.4880791E-03 -0.1010895E-03  0.6847503E+04  0.2397636E+03 -0.1762655E-02 -0.8791685E-05
  0.3904762E+00 -0.8987798E-03 -0.3814697E-04  0.6893511E+04  0.2991004E+03 -0.9191733E-02  0.1275539E-04
  0.4214286E+00  0.5793167E-03 -0.6675720E-04  0.6930610E+04  0.3698503E+03  0.2212039E-02 -0.7238984E-04
  0.4523810E+00 -0.1214278E-02  0.2536774E-03  0.6957825E+04  0.4557697E+03  0.5633956E-02  0.5781651E-05
  0.4833333E+00 -0.2367743E-02  0.1277924E-03  0.6967284E+04  0.5508040E+03  0.2969544E-03  0.3060102E-03
  0.5142857E+00  0.2610948E-02  0.1907349E-03  0.6965536E+04  0.6593270E+03 -0.1678202E-02  0.3681183E-03
  0.5452381E+00  0.2574671E-02  0.5722046E-04  0.6950949E+04  0.7764519E+03 -0.2921867E-02 -0.3530383E-03
  0.5761905E+00  0.8209480E-03 -0.1907349E-04  0.6920950E+04  0.9005597E+03 -0.2332916E-02  0.9666681E-03
  0.6071429E+00 -0.1809513E-02 -0.2365112E-03  0.6875147E+04  0.1034372E+04 -0.9526644E-03  0.3153086E-03
  0.6380953E+00 -0.2558694E-02  0.5722046E-04  0.6827311E+04  0.1171833E+04  0.2937566E-02  0.5191565E-03
  0.6690477E+00  0.6613951E-03  0.1754761E-03  0.6772322E+04  0.1315397E+04  0.1152453E-02  0.2435446E-03
  0.7000000E+00  0.1373291E-02  0.3738403E-03  0.6702485E+04  0.1465813E+04  0.2981595E-02 -0.9547472E-03
  0.7309524E+00  0.2567651E-02 -0.5264282E-03  0.6628412E+04  0.1619698E+04 -0.5153568E-04  0.3204346E-03
  0.7619048E+00 -0.9613036E-03 -0.2975464E-03  0.6546690E+04  0.1777590E+04  0.3339529E-02 -0.1188040E-02
  0.7928572E+00  0.1501135E-02  0.6713867E-03  0.6458683E+04  0.1939023E+04  0.5412746E-03  0.1821518E-02
  0.8238096E+00  0.2074490E-02  0.9689331E-03  0.6364002E+04  0.2103151E+04 -0.3364100E-02 -0.1149178E-03
  0.8547620E+00 -0.1249605E-02 -0.4882812E-03  0.6264917E+04  0.2268747E+04  0.4206819E-02  0.1957417E-03
  0.8857143E+00  0.1137026E-02 -0.5950928E-03  0.6161525E+04  0.2435010E+04  0.3860612E-02  0.9057522E-03
  0.9166667E+00  0.5992543E-03 -0.2593994E-03  0.6051679E+04  0.2601271E+04  0.4416379E-03 -0.1311302E-03
  0.9476191E+00  0.9339299E-03  0.6713867E-03  0.5935199E+04  0.2766730E+04 -0.6586822E-03 -0.4160404E-03
  0.9785714E+00 -0.1247434E-02 -0.4425049E-03  0.5816250E+04  0.2930180E+04  0.3228222E-02  0.1096725E-04
  0.1009524E+01  0.1662632E-02  0.1190186E-02  0.5695915E+04  0.3090886E+04 -0.4529728E-03 -0.1873970E-03
  0.1040476E+01 -0.6745991E-03 -0.1678467E-03  0.5574686E+04  0.3248035E+04 -0.1343699E-02 -0.1164913E-02
  0.1071429E+01 -0.6551107E-03  0.1525879E-03  0.5449393E+04  0.3401610E+04 -0.4872386E-02  0.9808540E-03
  0.1102381E+01  0.8304999E-04  0.1403809E-02  0.5324196E+04  0.3550518E+04  0.3196127E-02 -0.2146244E-02
  0.1133333E+01  0.6193273E-03 -0.6256104E-03  0.5196129E+04  0.3694243E+04  0.5004266E-02  0.1996040E-02
  0.1164286E+01  0.2175547E-02  0.1525879E-02  0.5069044E+04  0.3831875E+04  0.7863424E-04  0.2384186E-03
  0.1195238E+01  0.1123436E-02 -0.1983643E-03  0.4942692E+04  0.3962717E+04 -0.4964502E-02  0.1783371E-03
  0.1226190E+01  0.2737693E-03 -0.1052856E-02  0.4816103E+04  0.4087318E+04  0.3523225E-02 -0.2751350E-03
  0.1257143E+01 -0.1432245E-02 -0.4882812E-03  0.4689711E+04  0.4207672E+04  0.5553744E-02  0.1566410E-02
  0.1288095E+01 -0.2084898E-02  0.1098633E-02  0.4569409E+04  0.4314631E+04  0.1140919E-02 -0.1786709E-02
  0.1319048E+01  0.1179939E-02  0.6103516E-04  0.4447627E+04  0.4417471E+04 -0.4041582E-03 -0.1456738E-02
  0.1350000E+01  0.5199291E-03  0.5187988E-03  0.4330215E+04  0.4511885E+04  0.1017253E-03  0.4987717E-03
  0.1380952E+01  0.7071660E-03 -0.8544922E-03  0.4216404E+04  0.4598006E+04  0.2983357E-03 -0.9264946E-03
  0.1411905E+01  0.2593737E-03 -0.3662109E-03  0.4094317E+04  0.4673407E+04  0.2931801E-02 -0.7057190E-04
  0.1442857E+01  0.6345239E-04 -0.1708984E-02  0.3982686E+04  0.4745600E+04 -0.1156684E-03 -0.5006790E-03
  0.1473810E+01  0.6419044E-03  0.8850098E-03  0.3876737E+04  0.4809346E+04  0.1650057E-04 -0.1475334E-02
  0.1504762E+01  0.1419647E-02 -0.7324219E-03  0.3772743E+04  0.4865374E+04  0.1596469E-02  0.1515388E-02
  0.1535714E+01  0.5762854E-03 -0.3356934E-03  0.3673051E+04  0.4913701E+04 -0.1178342E-02  0.5331039E-03
  0.1566667E+01  0.6428171E-03 -0.1007080E-02  0.3577588E+04  0.4953277E+04 -0.9493117E-03  0.2513885E-02
  0.1597619E+01  0.2674268E-03 -0.9460449E-03  0.3487169E+04  0.4985772E+04  0.9204734E-03 -0.3799438E-02
  0.1628572E+01 -0.7495545E-03 -0.1007080E-02  0.3400005E+04  0.5011951E+04  0.2667360E-03  0.2239227E-02
  0.1659524E+01 -0.5516808E-04  0.9155273E-04  0.3314562E+04  0.5031711E+04 -0.1528615E-02  0.2372742E-02
  0.1690476E+01  0.5415795E-03 -0.8544922E-03  0.3235821E+04  0.5045274E+04 -0.1691026E-02  0.8840561E-03
  0.1721429E+01  0.9041307E-03 -0.2746582E-03  0.3160759E+04  0.5051874E+04 -0.2484421E-02 -0.4854202E-03
  0.1752381E+01  0.1445439E-02 -0.9155273E-03  0.3087047E+04  0.5053248E+04  0.1346119E-02  0.1538277E-02
  0.1783333E+01 -0.2738026E-03 -0.6713867E-03  0.3018603E+04  0.5048534E+04  0.4436992E-02 -0.2198219E-02
  0.1814286E+01  0.7653424E-03 -0.1464844E-02  0.2954301E+04  0.5036910E+04  0.8691578E-03 -0.6713867E-03
  0.1845238E+01 -0.6615423E-03  0.8850098E-03  0.2893868E+04  0.5021646E+04 -0.4129471E-03  0.3480911E-03
  0.1876190E+01  0.6994258E-03  0.1007080E-02  0.2836497E+04  0.5002408E+04 -0.5814993E-03 -0.3353119E-02
  0.1907143E+01  0.1136123E-02 -0.3662109E-03  0.2779963E+04  0.4977688E+04 -0.3716901E-02  0.6351471E-03
  0.1938095E+01  0.1574617E-04  0.1770020E-02  0.2729005E+04  0.4949950E+04 -0.4955123E-03  0.1935959E-03
  0.1969048E+01  0.6199460E-03 -0.7629395E-03  0.2682679E+04  0.4918106E+04 -0.4572344E-02 -0.7534027E-03
  0.2000000E+01  0.1037598E-02  0.7934570E-03  0.2638038E+04  0.4882055E+04 -0.3330469E-02 -0.3559113E-02
Zone t="Motion of body    1 in DoF   3",I=    64,F=POINT
  0.5000000E-01 -0.5134375E+05 -0.1051986E-02  0.5340576E-03  0.3480088E-05  0.1597829E+06  0.1984600E-02
  0.8095238E-01 -0.5180116E+05 -0.4322475E-02  0.2921609E-02  0.5719627E-05  0.1603978E+06  0.8188375E-02
  0.1119048E+00 -0.5193495E+05 -0.1214496E-01 -0.3340701E-02 -0.1420746E-04  0.1605167E+06  0.2225494E-01
  0.1428571E+00 -0.5200726E+05 -0.2673263E-01  0.9546279E-03  0.3279929E-05  0.1605694E+06  0.4882032E-01
  0.1738095E+00 -0.5201493E+05 -0.5320227E-01 -0.5541762E-03 -0.4952250E-05  0.1605777E+06  0.9741578E-01
  0.2047619E+00 -0.5204117E+05 -0.9836910E-01 -0.8476612E-03 -0.1713913E-04  0.1606113E+06  0.1800515E+00
  0.2357143E+00 -0.5207603E+05 -0.1729668E+00  0.3641302E-03  0.5587121E-05  0.1606418E+06  0.3159209E+00
  0.2666667E+00 -0.5209082E+05 -0.2941752E+00  0.9298324E-04  0.6204238E-05  0.1606663E+06  0.5363719E+00
  0.2976190E+00 -0.5213005E+05 -0.4915313E+00  0.2627563E-03  0.4023453E-04  0.1607099E+06  0.8943352E+00
  0.3285715E+00 -0.5213684E+05 -0.8094728E+00  0.1068115E-02  0.9302050E-05  0.1607329E+06  0.1469711E+01
  0.3595238E+00 -0.5220482E+05 -0.1324736E+01  0.7162030E-02  0.1757490E-03  0.1607876E+06  0.2396978E+01
  0.3904762E+00 -0.5221480E+05 -0.2147511E+01 -0.1651019E-02 -0.4394352E-04  0.1608225E+06  0.3872387E+01
  0.4214286E+00 -0.5226530E+05 -0.3436192E+01 -0.2262956E-03 -0.1443364E-04  0.1608699E+06  0.6172222E+01
  0.4523810E+00 -0.5230653E+05 -0.5449604E+01  0.6821883E-02  0.5054288E-03  0.1609257E+06  0.9752827E+01
  0.4833333E+00 -0.5236641E+05 -0.8427974E+01  0.2888646E-02  0.3179386E-03  0.1610040E+06  0.1501784E+02
  0.5142857E+00 -0.5245717E+05 -0.1281973E+02  0.7417467E-02  0.6793365E-03  0.1611081E+06  0.2274634E+02
  0.5452381E+00 -0.5249664E+05 -0.1900636E+02  0.2000967E-02  0.2422482E-03  0.1611901E+06  0.3358583E+02
  0.5761905E+00 -0.5261142E+05 -0.2755390E+02  0.9328352E-02  0.9946823E-03  0.1612927E+06  0.4842033E+02
  0.6071429E+00 -0.5268676E+05 -0.3916842E+02  0.6421257E-02  0.8347183E-03  0.1613949E+06  0.6848692E+02
  0.6380953E+00 -0.5276714E+05 -0.5442932E+02  0.3240215E-02  0.7620454E-03  0.1615182E+06  0.9466558E+02
  0.6690477E+00 -0.5289902E+05 -0.7434538E+02  0.2428917E-02  0.7640421E-03  0.1616660E+06  0.1285855E+03
  0.7000000E+00 -0.5297567E+05 -0.9994022E+02  0.4523141E-02  0.1959801E-03  0.1617754E+06  0.1718741E+03
  0.7309524E+00 -0.5310471E+05 -0.1323431E+03  0.3767976E-02  0.1195431E-02  0.1619450E+06  0.2261645E+03
  0.7619048E+00 -0.5324926E+05 -0.1729731E+03  0.8211135E-02  0.2156734E-02  0.1620968E+06  0.2935652E+03
  0.7928572E+00 -0.5340586E+05 -0.2232203E+03  0.2877175E-02  0.1980662E-02  0.1622929E+06  0.3763445E+03
  0.8238096E+00 -0.5350389E+05 -0.2845354E+03  0.3352523E-02  0.1340270E-02  0.1624346E+06  0.4765253E+03
  0.8547620E+00 -0.5362669E+05 -0.3588079E+03  0.3579227E-02  0.5218983E-03  0.1625930E+06  0.5968106E+03
  0.8857143E+00 -0.5381651E+05 -0.4485306E+03  0.2549694E-02  0.1260281E-02  0.1627852E+06  0.7402216E+03
  0.9166667E+00 -0.5399295E+05 -0.5552579E+03  0.2987948E-02  0.1743793E-02  0.1629927E+06  0.9092228E+03
  0.9476191E+00 -0.5413434E+05 -0.6811240E+03 -0.3743771E-02 -0.1334190E-02  0.1631581E+06  0.1106340E+04
  0.9785714E+00 -0.5429946E+05 -0.8287266E+03  0.2346735E-02  0.1922131E-02  0.1633499E+06  0.1335091E+04
  0.1009524E+01 -0.5446871E+05 -0.1000715E+04 -0.5290194E-04  0.3728867E-03  0.1635225E+06  0.1598128E+04
  0.1040476E+01 -0.5466609E+05 -0.1199286E+04  0.6599339E-03 -0.2965927E-03  0.1637306E+06  0.1898969E+04
  0.1071429E+01 -0.5480580E+05 -0.1426136E+04  0.4122925E-02  0.3409386E-02  0.1638745E+06  0.2238622E+04
  0.1102381E+01 -0.5496703E+05 -0.1685383E+04  0.3737250E-02  0.1271248E-02  0.1640476E+06  0.2621455E+04
  0.1133333E+01 -0.5513185E+05 -0.1979641E+04  0.6826064E-02  0.4285812E-02  0.1641944E+06  0.3049497E+04
  0.1164286E+01 -0.5531204E+05 -0.2312250E+04  0.6631488E-02  0.7678986E-02  0.1643363E+06  0.3525816E+04
  0.1195238E+01 -0.5551580E+05 -0.2684999E+04  0.4876733E-02  0.2506256E-02  0.1645001E+06  0.4053218E+04
  0.1226190E+01 -0.5566031E+05 -0.3098392E+04  0.4604303E-03  0.3602982E-02  0.1646075E+06  0.4629901E+04
  0.1257143E+01 -0.5574826E+05 -0.3553244E+04  0.8326444E-02  0.6502151E-02  0.1646465E+06  0.5254872E+04
  0.1288095E+01 -0.5590986E+05 -0.4059079E+04  0.6231001E-02  0.6570816E-02  0.1647682E+06  0.5939875E+04
  0.1319048E+01 -0.5598207E+05 -0.4608071E+04  0.7056501E-02  0.6622314E-02  0.1647561E+06  0.6669754E+04
  0.1350000E+01 -0.5608124E+05 -0.5207775E+04  0.3221300E-02  0.3841400E-02  0.1647541E+06  0.7453805E+04
  0.1380952E+01 -0.5618685E+05 -0.5858706E+04  0.2077300E-02  0.2315521E-02  0.1647561E+06  0.8290274E+04
  0.1411905E+01 -0.5620955E+05 -0.6536598E+04  0.6614028E-02  0.6198883E-02  0.1646859E+06  0.9158977E+04
  0.1442857E+01 -0.5620728E+05 -0.7281014E+04  0.3637937E-02  0.1888275E-02  0.1645448E+06  0.1007816E+05
  0.1473810E+01 -0.5622409E+05 -0.8077517E+04 -0.7661440E-03 -0.2670288E-03  0.1644400E+06  0.1104731E+05
  0.1504762E+01 -0.5618897E+05 -0.8917502E+04  0.8112267E-04 -0.9460449E-03  0.1642539E+06  0.1204618E+05
  0.1535714E+01 -0.5612037E+05 -0.9801958E+04  0.8544921E-03  0.3219604E-02  0.1640240E+06  0.1307414E+05
  0.1566667E+01 -0.5604300E+05 -0.1072728E+05  0.1879753E-02  0.4554749E-02  0.1637557E+06  0.1412437E+05
  0.1597619E+01 -0.5593279E+05 -0.1168830E+05  0.1117462E-02 -0.4653931E-03  0.1634774E+06  0.1519434E+05
  0.1628572E+01 -0.5575971E+05 -0.1267438E+05  0.1349198E-02  0.2273560E-02  0.1631319E+06  0.1626440E+05
  0.1659524E+01 -0.5550515E+05 -0.1367385E+05  0.2436590E-02  0.2166748E-02  0.1626814E+06  0.1730977E+05
  0.1690476E+01 -0.5525364E+05 -0.1469948E+05  0.2707898E-04  0.3311157E-02  0.1622636E+06  0.1836315E+05
  0.1721429E+01 -0.5498185E+05 -0.1573693E+05  0.1187780E-02 -0.9307861E-03  0.1618131E+06  0.1939086E+05
  0.1752381E+01 -0.5462995E+05 -0.1676564E+05 -0.1724077E-02  0.4577637E-03  0.1612565E+06  0.2035978E+05
  0.1783333E+01 -0.5427856E+05 -0.1779936E+05 -0.2130526E-02  0.5950928E-03  0.1607112E+06  0.2130421E+05
  0.1814286E+01 -0.5392207E+05 -0.1882193E+05 -0.2111000E-02  0.4577637E-02  0.1601494E+06  0.2219709E+05
  0.1845238E+01 -0.5352816E+05 -0.1982380E+05  0.1480201E-02  0.1815796E-02  0.1595921E+06  0.2304430E+05
  0.1876190E+01 -0.5308907E+05 -0.2078632E+05 -0.5936986E-03  0.1525879E-03  0.1590040E+06  0.2381809E+05
  0.1907143E+01 -0.5257752E+05 -0.2168195E+05  0.1616174E-02  0.5950928E-03  0.1583265E+06  0.2445610E+05
  0.1938095E+01 -0.5206984E+05 -0.2254489E+05  0.8581663E-03  0.1251221E-02  0.1576959E+06  0.2505088E+05
  0.1969048E+01 -0.5157334E+05 -0.2336681E+05  0.4029649E-03 -0.2899170E-03  0.1571014E+06  0.2557757E+05
  0.2000000E+01 -0.5103397E+05 -0.2410506E+05  0.9384155E-03  0.1724243E-02  0.1564596E+06  0.2597074E+05
