VARIABLES="w (rad/s)"
"A   1   1" "B   1   1"
"A   1   2" "B   1   2"
"A   1   3" "B   1   3"
Zone t="Motion of body    1 in DoF   1",I=    64,F=POINT
  0.5000000E-01  0.6654710E+05  0.6268455E-02  0.5760193E-02  0.1530658E-05  0.1252097E+04  0.1517172E-03
  0.8095238E-01  0.6687146E+05  0.2755703E-01 -0.7692785E-02 -0.6678456E-05  0.1244120E+04  0.6615771E-03
  0.1119048E+00  0.6686605E+05  0.7738332E-01 -0.1516951E-02  0.2697826E-04  0.1246752E+04  0.1862260E-02
  0.1428571E+00  0.6719666E+05  0.1744170E+00 -0.1228333E-02 -0.4308773E-04  0.1262905E+04  0.4214258E-02
  0.1738095E+00  0.6713821E+05  0.3470741E+00 -0.5541762E-02 -0.1723773E-04  0.1259265E+04  0.8406309E-02
  0.2047619E+00  0.6739562E+05  0.6408192E+00  0.2384629E-02  0.5732162E-04  0.1268764E+04  0.1560630E-01
  0.2357143E+00  0.6751466E+05  0.1128780E+01  0.1666907E-02  0.3341073E-04  0.1283548E+04  0.2768352E-01
  0.2666667E+00  0.6759715E+05  0.1926173E+01 -0.1881122E-01 -0.4305523E-03  0.1279090E+04  0.4743236E-01
  0.2976190E+00  0.6792124E+05  0.3234274E+01  0.1794434E-03  0.1397794E-03  0.1295994E+04  0.8026420E-01
  0.3285715E+00  0.6809742E+05  0.5353720E+01  0.1037929E-01  0.4918445E-03  0.1310314E+04  0.1340358E+00
  0.3595238E+00  0.6825623E+05  0.8792420E+01  0.2334291E-02 -0.1711473E-03  0.1318684E+04  0.2219570E+00
  0.3904762E+00  0.6860876E+05  0.1435040E+02  0.3048036E-02 -0.3759414E-03  0.1341907E+04  0.3662488E+00
  0.4214286E+00  0.6907062E+05  0.2311979E+02 -0.1520706E-02  0.1533255E-03  0.1378514E+04  0.5982548E+00
  0.4523810E+00  0.6920209E+05  0.3686309E+02 -0.9242007E-02 -0.5420819E-03  0.1366776E+04  0.9594771E+00
  0.4833333E+00  0.6958157E+05  0.5738801E+02  0.1289631E-01  0.1143396E-02  0.1395931E+04  0.1514271E+01
  0.5142857E+00  0.7017809E+05  0.8795323E+02  0.1229816E-01  0.7900596E-03  0.1428120E+04  0.2350919E+01
  0.5452381E+00  0.7066976E+05  0.1315332E+03  0.1399278E-01  0.1654267E-02  0.1460418E+04  0.3566191E+01
  0.5761905E+00  0.7098555E+05  0.1919050E+03  0.3694266E-02 -0.3916025E-04  0.1464453E+04  0.5256547E+01
  0.6071429E+00  0.7149712E+05  0.2750086E+03  0.6999296E-02 -0.1788735E-03  0.1486782E+04  0.7626715E+01
  0.6380953E+00  0.7221603E+05  0.3856935E+03  0.1171738E-01  0.1606643E-02  0.1537548E+04  0.1088730E+02
  0.6690477E+00  0.7299429E+05  0.5317473E+03 -0.1939712E-01 -0.3686070E-02  0.1583912E+04  0.1525862E+02
  0.7000000E+00  0.7361652E+05  0.7215546E+03  0.2288818E-02  0.1593947E-02  0.1602356E+04  0.2096531E+02
  0.7309524E+00  0.7416084E+05  0.9634034E+03 -0.8141334E-03 -0.7874966E-03  0.1627615E+04  0.2840928E+02
  0.7619048E+00  0.7495940E+05  0.1270159E+04 -0.6208419E-03 -0.7224083E-03  0.1673637E+04  0.3808479E+02
  0.7928572E+00  0.7589373E+05  0.1654635E+04  0.2809816E-02 -0.2651215E-03  0.1721633E+04  0.5043120E+02
  0.8238096E+00  0.7685012E+05  0.2130821E+04  0.5352924E-02  0.1301765E-03  0.1781141E+04  0.6615970E+02
  0.8547620E+00  0.7781911E+05  0.2714376E+04 -0.4123698E-02 -0.1922607E-02  0.1846432E+04  0.8596555E+02
  0.8857143E+00  0.7869397E+05  0.3421376E+04  0.7097798E-02 -0.1374245E-02  0.1883763E+04  0.1100940E+03
  0.9166667E+00  0.7951303E+05  0.4269712E+04  0.4527699E-02  0.2662659E-02  0.1918486E+04  0.1395229E+03
  0.9476191E+00  0.8042425E+05  0.5279234E+04 -0.7986710E-02  0.3318787E-03  0.1973836E+04  0.1756303E+03
  0.9785714E+00  0.8145330E+05  0.6470851E+04  0.8654073E-02  0.3482819E-02  0.2047840E+04  0.2196428E+03
  0.1009524E+01  0.8251777E+05  0.7864609E+04  0.4610026E-02 -0.1926422E-03  0.2118512E+04  0.2722579E+03
  0.1040476E+01  0.8353392E+05  0.9479906E+04  0.2551744E-02 -0.4829407E-02  0.2188462E+04  0.3345772E+03
  0.1071429E+01  0.8446613E+05  0.1133627E+05  0.8146159E-02  0.8628845E-02  0.2253612E+04  0.4079364E+03
  0.1102381E+01  0.8520664E+05  0.1344669E+05  0.3861825E-02  0.2128601E-02  0.2310582E+04  0.4935989E+03
  0.1133333E+01  0.8582396E+05  0.1582726E+05  0.1979155E-02  0.5359650E-02  0.2363785E+04  0.5928707E+03
  0.1164286E+01  0.8634977E+05  0.1848199E+05 -0.2817727E-02 -0.9536743E-04  0.2414658E+04  0.7059014E+03
  0.1195238E+01  0.8678474E+05  0.2141200E+05 -0.3919260E-02  0.1823425E-02  0.2466667E+04  0.8334514E+03
  0.1226190E+01  0.8709508E+05  0.2461563E+05 -0.2264819E-02 -0.3494263E-02  0.2513736E+04  0.9765309E+03
  0.1257143E+01  0.8716693E+05  0.2809943E+05  0.2864491E-02 -0.6141663E-03  0.2554848E+04  0.1138000E+04
  0.1288095E+01  0.8711462E+05  0.3180456E+05  0.1303061E-02  0.1332474E-01  0.2599657E+04  0.1316385E+04
  0.1319048E+01  0.8680917E+05  0.3575198E+05 -0.3678635E-02  0.7781982E-03  0.2637057E+04  0.1512454E+04
  0.1350000E+01  0.8629202E+05  0.3988123E+05 -0.3639504E-02  0.8789062E-02  0.2656866E+04  0.1722190E+04
  0.1380952E+01  0.8553188E+05  0.4414865E+05  0.3093851E-02 -0.5470276E-02  0.2662149E+04  0.1943989E+04
  0.1411905E+01  0.8419598E+05  0.4827111E+05  0.1383326E-02 -0.1204681E-01  0.2610848E+04  0.2160695E+04
  0.1442857E+01  0.8297069E+05  0.5267264E+05  0.1008893E-01  0.1129150E-02  0.2597198E+04  0.2408452E+04
  0.1473810E+01  0.8151945E+05  0.5707739E+05  0.1279668E-01  0.9399414E-02  0.2576133E+04  0.2667231E+04
  0.1504762E+01  0.7988763E+05  0.6142590E+05  0.9633318E-02  0.2288818E-02  0.2548158E+04  0.2934738E+04
  0.1535714E+01  0.7807752E+05  0.6566377E+05 -0.3179506E-02 -0.9742737E-02  0.2507649E+04  0.3205526E+04
  0.1566667E+01  0.7611562E+05  0.6974797E+05  0.2941375E-02  0.8392334E-02  0.2451898E+04  0.3476068E+04
  0.1597619E+01  0.7399517E+05  0.7363825E+05 -0.5520452E-02  0.3616333E-02  0.2382045E+04  0.3746679E+04
  0.1628572E+01  0.7177504E+05  0.7730145E+05 -0.3729034E-02  0.1012421E-01  0.2305976E+04  0.4015771E+04
  0.1659524E+01  0.6946917E+05  0.8070741E+05  0.3861765E-02 -0.1554871E-01  0.2223891E+04  0.4282936E+04
  0.1690476E+01  0.6710935E+05  0.8383128E+05  0.1769160E-02 -0.2250671E-02  0.2137372E+04  0.4545567E+04
  0.1721429E+01  0.6472670E+05  0.8666030E+05  0.1010499E-02 -0.2098083E-02  0.2041464E+04  0.4801221E+04
  0.1752381E+01  0.6235359E+05  0.8918300E+05  0.9316984E-02  0.2891541E-02  0.1943924E+04  0.5050679E+04
  0.1783333E+01  0.6001443E+05  0.9139995E+05 -0.3114504E-02 -0.8666992E-02  0.1838241E+04  0.5289448E+04
  0.1814286E+01  0.5772018E+05  0.9331232E+05  0.1177450E-02 -0.6614685E-02  0.1729793E+04  0.5513622E+04
  0.1845238E+01  0.5546281E+05  0.9493389E+05 -0.5788495E-04  0.7896423E-02  0.1616629E+04  0.5721611E+04
  0.1876190E+01  0.5328433E+05  0.9627968E+05 -0.2464256E-02  0.6767273E-02  0.1504811E+04  0.5919081E+04
  0.1907143E+01  0.5117527E+05  0.9736002E+05  0.4488484E-02 -0.6271362E-02  0.1392412E+04  0.6110412E+04
  0.1938095E+01  0.4913843E+05  0.9819001E+05 -0.3157107E-02 -0.6866455E-02  0.1282788E+04  0.6294505E+04
  0.1969048E+01  0.4720496E+05  0.9878382E+05  0.4207883E-02 -0.8598328E-02  0.1174554E+04  0.6468754E+04
  0.2000000E+01  0.4537714E+05  0.9916238E+05 -0.1617432E-02  0.5584717E-02  0.1069361E+04  0.6634820E+04
Zone t="Motion of body    1 in DoF   2",I=    64,F=POINT
  0.5000000E-01  0.1068115E-02  0.1445413E-04  0.1153324E+06  0.3148301E+03 -0.3433228E-03 -0.6437302E-05
  0.8095238E-01 -0.8352504E-02  0.9119511E-05  0.1139291E+06  0.5219464E+03  0.1060261E-02 -0.8463860E-05
  0.1119048E+00 -0.4942873E-03 -0.4088879E-04  0.1131386E+06  0.7472942E+03 -0.1363551E-02 -0.1192093E-05
  0.1428571E+00 -0.4138946E-03 -0.7426739E-04  0.1127105E+06  0.9993524E+03 -0.1335144E-03  0.3337860E-05
  0.1738095E+00 -0.2414233E-02 -0.2110004E-04  0.1125864E+06  0.1288784E+04 -0.1733858E-02  0.1716614E-04
  0.2047619E+00  0.1274286E-01 -0.1049042E-04  0.1126818E+06  0.1628961E+04 -0.9314959E-03 -0.1525879E-04
  0.2357143E+00 -0.4272460E-02 -0.3337860E-04  0.1129449E+06  0.2038524E+04 -0.7444439E-03 -0.3814697E-05
  0.2666667E+00 -0.7796287E-02  0.3390312E-03  0.1133568E+06  0.2533215E+04 -0.1459122E-02 -0.2670288E-04
  0.2976190E+00 -0.1333008E-02 -0.1170635E-03  0.1138574E+06  0.3148176E+04 -0.1409912E-02 -0.4768372E-04
  0.3285715E+00  0.1688086E-01 -0.4386902E-03  0.1144163E+06  0.3901811E+04 -0.1695052E-02 -0.5531311E-04
  0.3595238E+00  0.2266385E-01 -0.4324913E-03  0.1149535E+06  0.4835718E+04 -0.1824991E-02 -0.5245209E-04
  0.3904762E+00 -0.2325104E-02  0.7553101E-03  0.1154666E+06  0.5981385E+04 -0.2813572E-02 -0.1220703E-03
  0.4214286E+00  0.5612130E-02  0.3032684E-03  0.1156576E+06  0.7325319E+04 -0.7241459E-03 -0.9536743E-05
  0.4523810E+00 -0.2811391E-01 -0.9059906E-03  0.1157089E+06  0.8936304E+04 -0.2765856E-02 -0.1296997E-03
  0.4833333E+00 -0.3204346E-02  0.6875992E-03  0.1154054E+06  0.1067826E+05  0.1420646E-02 -0.2841949E-03
  0.5142857E+00  0.2863142E-02  0.8640289E-03  0.1147695E+06  0.1263485E+05 -0.2343920E-02 -0.2555847E-03
  0.5452381E+00  0.7164301E-02  0.9803772E-03  0.1138534E+06  0.1469741E+05 -0.1875032E-02 -0.2441406E-03
  0.5761905E+00 -0.5495055E-02 -0.1491547E-02  0.1127103E+06  0.1682552E+05 -0.1138734E-02 -0.4882812E-03
  0.6071429E+00  0.2073400E-02 -0.3633499E-02  0.1113007E+06  0.1907223E+05 -0.4775103E-03 -0.2708435E-03
  0.6380953E+00 -0.8560863E-02  0.1701355E-02  0.1098188E+06  0.2130033E+05 -0.1578260E-02 -0.6103516E-04
  0.6690477E+00  0.3899951E-02  0.1653671E-02  0.1081605E+06  0.2356274E+05 -0.1049110E-02 -0.5874634E-03
  0.7000000E+00 -0.3934587E-02  0.3011703E-02  0.1063115E+06  0.2586709E+05  0.4359654E-04 -0.4043579E-03
  0.7309524E+00  0.2567651E-02 -0.1605988E-02  0.1044374E+06  0.2813756E+05 -0.5427556E-03 -0.7858276E-03
  0.7619048E+00  0.1181602E-02 -0.8850098E-03  0.1024969E+06  0.3038768E+05 -0.2082824E-02 -0.6027222E-03
  0.7928572E+00 -0.1450135E-01  0.1983643E-02  0.1004482E+06  0.3261164E+05 -0.2675099E-02 -0.3967285E-03
  0.8238096E+00 -0.4630557E-03 -0.3284454E-02  0.9832232E+05  0.3479011E+05 -0.6112335E-03 -0.5722046E-03
  0.8547620E+00 -0.1454898E-02  0.3929138E-03  0.9619414E+05  0.3689754E+05 -0.1749448E-02 -0.7934570E-03
  0.8857143E+00  0.9096207E-02  0.4116058E-02  0.9404671E+05  0.3892350E+05 -0.2067320E-02 -0.9918213E-03
  0.9166667E+00 -0.7257635E-02  0.3055573E-02  0.9188843E+05  0.4085717E+05 -0.1997514E-03 -0.9155273E-03
  0.9476191E+00 -0.2441099E-01 -0.4661560E-02  0.8970294E+05  0.4269733E+05 -0.2898403E-03 -0.7858276E-03
  0.9785714E+00  0.4833806E-03 -0.6725311E-02  0.8754552E+05  0.4442639E+05 -0.1372177E-02 -0.7324219E-03
  0.1009524E+01  0.1201630E-01  0.3776550E-02  0.8541734E+05  0.4603602E+05  0.6650529E-03 -0.1853943E-02
  0.1040476E+01 -0.1217211E-02  0.6622314E-02  0.8331060E+05  0.4752227E+05 -0.1055894E-02 -0.1373291E-02
  0.1071429E+01 -0.6052653E-02 -0.1258850E-02  0.8123191E+05  0.4888127E+05 -0.8829753E-03 -0.1976013E-02
  0.1102381E+01 -0.3391208E-02  0.6397247E-02  0.7920380E+05  0.5010875E+05 -0.2020883E-02 -0.1502991E-02
  0.1133333E+01  0.3110100E-02 -0.5653381E-02  0.7724064E+05  0.5119895E+05 -0.1723346E-02 -0.2799988E-02
  0.1164286E+01 -0.1952750E-02 -0.5252838E-02  0.7535899E+05  0.5214546E+05 -0.1467839E-02 -0.2204895E-02
  0.1195238E+01 -0.4404380E-02  0.4997253E-02  0.7353836E+05  0.5296042E+05 -0.7404464E-03 -0.1510620E-02
  0.1226190E+01  0.3733218E-03  0.1708984E-02  0.7178925E+05  0.5364208E+05 -0.9706368E-03 -0.1289368E-02
  0.1257143E+01  0.4612315E-02 -0.5363464E-02  0.7010283E+05  0.5423604E+05 -0.3641302E-03 -0.2052307E-02
  0.1288095E+01 -0.6752226E-02 -0.6256104E-02  0.6848353E+05  0.5463493E+05 -0.2843042E-02 -0.2227783E-02
  0.1319048E+01 -0.3667067E-02  0.1300812E-02  0.6695834E+05  0.5493502E+05 -0.6478099E-03 -0.1914978E-02
  0.1350000E+01 -0.2147533E-02 -0.4119873E-03  0.6551549E+05  0.5511105E+05 -0.6781684E-04 -0.1731873E-02
  0.1380952E+01  0.9579889E-02  0.4287720E-02  0.6415553E+05  0.5516171E+05 -0.1988904E-03 -0.1083374E-02
  0.1411905E+01 -0.2669387E-02 -0.4081726E-03  0.6286933E+05  0.5518819E+05  0.5619763E-03 -0.1182556E-02
  0.1442857E+01 -0.2590973E-02 -0.6431580E-02  0.6164453E+05  0.5504205E+05  0.2115080E-04 -0.1800537E-02
  0.1473810E+01  0.3033516E-02 -0.0000000E+00  0.6050628E+05  0.5478962E+05 -0.1283809E-02 -0.1777649E-02
  0.1504762E+01 -0.5709008E-02 -0.1022339E-02  0.5945655E+05  0.5444392E+05 -0.8517881E-03 -0.3662109E-02
  0.1535714E+01 -0.1420842E-02  0.7396698E-02  0.5848795E+05  0.5400109E+05  0.6160292E-03 -0.1808167E-02
  0.1566667E+01  0.7051508E-02 -0.7606506E-02  0.5758550E+05  0.5347858E+05  0.4480240E-03 -0.1472473E-02
  0.1597619E+01  0.6781179E-02 -0.7682800E-02  0.5675564E+05  0.5287625E+05  0.9359937E-03 -0.1998901E-02
  0.1628572E+01  0.3344887E-02 -0.2326202E-01  0.5599340E+05  0.5220426E+05  0.4684716E-03 -0.1556396E-02
  0.1659524E+01  0.3493978E-02 -0.5470276E-02  0.5528343E+05  0.5147138E+05  0.1838936E-03 -0.9841919E-03
  0.1690476E+01  0.4242373E-03 -0.6893158E-02  0.5464177E+05  0.5067314E+05  0.4874216E-03 -0.1670837E-02
  0.1721429E+01 -0.7977624E-02 -0.1363373E-01  0.5407351E+05  0.4983342E+05 -0.4432014E-03 -0.2670288E-02
  0.1752381E+01 -0.1236460E-02 -0.4329681E-02  0.5356917E+05  0.4893920E+05 -0.2263940E-03 -0.2441406E-02
  0.1783333E+01 -0.4500630E-02 -0.2147675E-02  0.5311776E+05  0.4799684E+05 -0.2224646E-03 -0.2731323E-02
  0.1814286E+01  0.4205178E-03 -0.1065063E-01  0.5271046E+05  0.4701588E+05  0.1513864E-03 -0.3311157E-02
  0.1845238E+01 -0.1000583E-02 -0.8769989E-02  0.5235831E+05  0.4600121E+05 -0.1819241E-03 -0.2159119E-02
  0.1876190E+01  0.4773987E-02 -0.9433746E-02  0.5205055E+05  0.4496108E+05  0.4879714E-03 -0.2853394E-02
  0.1907143E+01 -0.8880959E-03 -0.1210594E-01  0.5177838E+05  0.4390236E+05  0.1920207E-03 -0.2079010E-02
  0.1938095E+01 -0.4881313E-02 -0.6464005E-02  0.5154818E+05  0.4281951E+05  0.3149234E-03 -0.3913879E-02
  0.1969048E+01 -0.1108153E-02 -0.1135635E-01  0.5136354E+05  0.4172293E+05  0.7904311E-03 -0.3662109E-02
  0.2000000E+01 -0.8392334E-03 -0.5603790E-02  0.5121572E+05  0.4061895E+05  0.9002686E-03 -0.2681732E-02
Zone t="Motion of body    1 in DoF   3",I=    64,F=POINT
  0.5000000E-01  0.1277919E+04  0.1581393E-03  0.3495216E-02  0.6812435E-05  0.2465488E+04  0.4059497E-05
  0.8095238E-01  0.1268891E+04  0.6841874E-03 -0.1684638E-02 -0.1582479E-04  0.2481829E+04  0.1535210E-04
  0.1119048E+00  0.1274355E+04  0.1929207E-02 -0.1376335E-02 -0.1208062E-04  0.2491500E+04  0.5239179E-04
  0.1428571E+00  0.1289837E+04  0.4361704E-02  0.2994060E-02  0.2386780E-04  0.2493968E+04  0.1016546E-03
  0.1738095E+00  0.1286098E+04  0.8706604E-02 -0.1281190E-02 -0.2423665E-04  0.2494114E+04  0.2124166E-03
  0.2047619E+00  0.1294767E+04  0.1616944E-01 -0.6287597E-04 -0.1769353E-04  0.2491508E+04  0.4147974E-03
  0.2357143E+00  0.1312215E+04  0.2864410E-01 -0.3746495E-02 -0.8279349E-04  0.2496035E+04  0.7112490E-03
  0.2666667E+00  0.1305340E+04  0.4918937E-01 -0.7832050E-03 -0.1714811E-04  0.2489148E+04  0.1224945E-02
  0.2976190E+00  0.1321935E+04  0.8317187E-01 -0.3970184E-02 -0.1514487E-03  0.2489481E+04  0.2034836E-02
  0.3285715E+00  0.1338243E+04  0.1388164E+00 -0.3503301E-02 -0.1669759E-03  0.2493670E+04  0.3433503E-02
  0.3595238E+00  0.1346828E+04  0.2299909E+00 -0.2626078E-03  0.1276308E-04  0.2493292E+04  0.5767731E-02
  0.3904762E+00  0.1371388E+04  0.3790434E+00 -0.2635281E-02 -0.2049819E-03  0.2499915E+04  0.9671883E-02
  0.4214286E+00  0.1409435E+04  0.6167703E+00 -0.3100249E-02 -0.2652677E-03  0.2496767E+04  0.1590167E-01
  0.4523810E+00  0.1396377E+04  0.9941570E+00 -0.5375711E-02 -0.5198366E-03  0.2501472E+04  0.2580098E-01
  0.4833333E+00  0.1425785E+04  0.1565412E+01  0.2075722E-02  0.1770114E-03  0.2494357E+04  0.4129181E-01
  0.5142857E+00  0.1459179E+04  0.2426946E+01 -0.2840890E-02 -0.6632018E-03  0.2505710E+04  0.6483984E-01
  0.5452381E+00  0.1492630E+04  0.3674467E+01  0.4302779E-03 -0.2820045E-05  0.2506083E+04  0.9953946E-01
  0.5761905E+00  0.1495412E+04  0.5435678E+01  0.2985867E-02  0.5020788E-03  0.2498897E+04  0.1489588E+00
  0.6071429E+00  0.1518695E+04  0.7893221E+01 -0.4347857E-02 -0.1076650E-02  0.2509022E+04  0.2190967E+00
  0.6380953E+00  0.1570115E+04  0.1122251E+02  0.1975814E-02  0.1088995E-03  0.2506987E+04  0.3168900E+00
  0.6690477E+00  0.1617908E+04  0.1570107E+02  0.4187886E-02  0.7746033E-03  0.2510107E+04  0.4504564E+00
  0.7000000E+00  0.1636587E+04  0.2164366E+02  0.4931858E-02  0.1403734E-02  0.2516785E+04  0.6295109E+00
  0.7309524E+00  0.1661969E+04  0.2936402E+02 -0.4268982E-02 -0.1555927E-02  0.2512931E+04  0.8666234E+00
  0.7619048E+00  0.1708389E+04  0.3932077E+02  0.8436441E-03  0.3239512E-04  0.2510471E+04  0.1177798E+01
  0.7928572E+00  0.1757927E+04  0.5206854E+02 -0.2557222E-02 -0.1397163E-02  0.2521945E+04  0.1586020E+01
  0.8238096E+00  0.1818641E+04  0.6815126E+02 -0.4646764E-02 -0.3067121E-02  0.2530433E+04  0.2118626E+01
  0.8547620E+00  0.1884823E+04  0.8830200E+02  0.2363093E-02  0.9516031E-03  0.2527606E+04  0.2796006E+01
  0.8857143E+00  0.1922189E+04  0.1134133E+03  0.6891066E-04 -0.6496906E-04  0.2524851E+04  0.3652366E+01
  0.9166667E+00  0.1960028E+04  0.1442615E+03  0.2725774E-02  0.4619062E-03  0.2535862E+04  0.4725690E+01
  0.9476191E+00  0.2016432E+04  0.1815291E+03 -0.3490160E-02 -0.2387345E-02  0.2541977E+04  0.6027854E+01
  0.9785714E+00  0.2090700E+04  0.2263683E+03 -0.2183009E-02 -0.2354980E-02  0.2539647E+04  0.7667137E+01
  0.1009524E+01  0.2159655E+04  0.2801440E+03  0.1545492E-02  0.6502271E-03  0.2539128E+04  0.9669626E+01
  0.1040476E+01  0.2233659E+04  0.3443252E+03  0.2009132E-02  0.1638532E-02  0.2549937E+04  0.1215629E+02
  0.1071429E+01  0.2300777E+04  0.4198823E+03  0.4201253E-03  0.1621485E-02  0.2562037E+04  0.1514044E+02
  0.1102381E+01  0.2357522E+04  0.5081205E+03 -0.5021064E-02 -0.6161213E-02  0.2566508E+04  0.1871127E+02
  0.1133333E+01  0.2411101E+04  0.6108856E+03 -0.4072750E-03  0.3212690E-03  0.2561661E+04  0.2289432E+02
  0.1164286E+01  0.2461604E+04  0.7278494E+03 -0.3672875E-02 -0.5936503E-02  0.2560190E+04  0.2781684E+02
  0.1195238E+01  0.2519101E+04  0.8606755E+03  0.2039419E-02 -0.2851486E-03  0.2568630E+04  0.3333997E+02
  0.1226190E+01  0.2568813E+04  0.1009488E+04 -0.2862134E-02 -0.7318497E-02  0.2582080E+04  0.4012384E+02
  0.1257143E+01  0.2609697E+04  0.1176918E+04 -0.5097822E-03  0.4837513E-03  0.2587154E+04  0.4775905E+02
  0.1288095E+01  0.2652893E+04  0.1359017E+04 -0.6106618E-02 -0.1397967E-01  0.2591846E+04  0.5644739E+02
  0.1319048E+01  0.2690242E+04  0.1559332E+04 -0.1616633E-02 -0.3396273E-02  0.2590083E+04  0.6563509E+02
  0.1350000E+01  0.2709681E+04  0.1776054E+04  0.1412851E-02  0.1285076E-02  0.2590531E+04  0.7627769E+02
  0.1380952E+01  0.2719153E+04  0.2008893E+04  0.3314840E-03 -0.1677513E-02  0.2597490E+04  0.8783967E+02
  0.1411905E+01  0.2561092E+04  0.2170427E+04 -0.2831496E-02 -0.8913994E-02  0.2591882E+04  0.9774560E+02
  0.1442857E+01  0.2545105E+04  0.2420263E+04 -0.2017257E-02 -0.2515793E-02  0.2595501E+04  0.1116322E+03
  0.1473810E+01  0.2521338E+04  0.2677912E+04 -0.2474438E-02 -0.4909992E-02  0.2598961E+04  0.1259430E+03
  0.1504762E+01  0.2491127E+04  0.2943488E+04  0.1014033E-03 -0.4144669E-02  0.2591230E+04  0.1405704E+03
  0.1535714E+01  0.2447603E+04  0.3211867E+04  0.1497845E-02  0.4453659E-02  0.2585003E+04  0.1546077E+03
  0.1566667E+01  0.2392331E+04  0.3486053E+04  0.9106575E-03  0.4936695E-02  0.2583488E+04  0.1712873E+03
  0.1597619E+01  0.2325728E+04  0.3766152E+04  0.2545330E-02  0.5569935E-02  0.2589957E+04  0.1898672E+03
  0.1628572E+01  0.2248363E+04  0.4038291E+04 -0.7964017E-04  0.5063534E-02  0.2602422E+04  0.2113058E+03
  0.1659524E+01  0.2165368E+04  0.4306659E+04  0.2300968E-02 -0.3992081E-02  0.2606139E+04  0.2315867E+03
  0.1690476E+01  0.2078050E+04  0.4565044E+04 -0.6814876E-03  0.3394127E-02  0.2609013E+04  0.2513701E+03
  0.1721429E+01  0.1981009E+04  0.4819025E+04 -0.6071859E-03 -0.5506516E-02  0.2600886E+04  0.2689359E+03
  0.1752381E+01  0.1880680E+04  0.5064215E+04  0.8315626E-03 -0.6037712E-02  0.2588076E+04  0.2829232E+03
  0.1783333E+01  0.1769192E+04  0.5300325E+04  0.3037497E-03 -0.1425266E-02  0.2576192E+04  0.2987202E+03
  0.1814286E+01  0.1659268E+04  0.5529192E+04 -0.1745149E-03 -0.2703667E-03  0.2571297E+04  0.3171773E+03
  0.1845238E+01  0.1546761E+04  0.5753152E+04 -0.1397508E-02 -0.4059792E-02  0.2574655E+04  0.3409426E+03
  0.1876190E+01  0.1431972E+04  0.5954931E+04  0.3009157E-03 -0.3043175E-02  0.2584093E+04  0.3699174E+03
  0.1907143E+01  0.1315365E+04  0.6147437E+04  0.5280570E-03 -0.4481316E-02  0.2584111E+04  0.3959861E+03
  0.1938095E+01  0.1203274E+04  0.6323140E+04  0.5707987E-03 -0.2308846E-02  0.2583155E+04  0.4171896E+03
  0.1969048E+01  0.1093470E+04  0.6488890E+04 -0.3409703E-03 -0.2972126E-02  0.2578322E+04  0.4359520E+03
  0.2000000E+01  0.9876915E+03  0.6649745E+04 -0.2326965E-03 -0.2475739E-02  0.2562562E+04  0.4431358E+03
