VARIABLES="w (rad/s)"
"A   1   1" "B   1   1"
"A   1   2" "B   1   2"
"A   1   3" "B   1   3"
Zone t="Motion of body    1 in DoF   1",I=    64,F=POINT
  0.5000000E-01  0.1208817E+05  0.2173176E-03 -0.3106594E-02 -0.6825810E-05  0.1293833E+03  0.2836725E-05
  0.8095238E-01  0.1211349E+05  0.9072116E-03  0.2385588E-03 -0.1416571E-05  0.1294248E+03  0.1260940E-04
  0.1119048E+00  0.1215579E+05  0.2565734E-02 -0.1536126E-02 -0.8121870E-05  0.1302590E+03  0.3514374E-04
  0.1428571E+00  0.1218875E+05  0.5779617E-02  0.1782417E-02  0.5001568E-05  0.1286799E+03  0.7820116E-04
  0.1738095E+00  0.1219474E+05  0.1153177E-01  0.4663859E-04  0.1418968E-05  0.1305073E+03  0.1583626E-03
  0.2047619E+00  0.1220419E+05  0.2133321E-01  0.6404034E-03 -0.1821194E-05  0.1291227E+03  0.2929368E-03
  0.2357143E+00  0.1224617E+05  0.3766193E-01  0.2722885E-02  0.1553371E-04  0.1307742E+03  0.5187289E-03
  0.2666667E+00  0.1223091E+05  0.6435853E-01  0.6294250E-03 -0.2497080E-05  0.1306115E+03  0.8870801E-03
  0.2976190E+00  0.1226424E+05  0.1082812E+00 -0.6504822E-03 -0.2085711E-04  0.1305976E+03  0.1498483E-02
  0.3285715E+00  0.1230296E+05  0.1798065E+00  0.2411966E-02  0.6382866E-04  0.1321767E+03  0.2504325E-02
  0.3595238E+00  0.1231805E+05  0.2961436E+00 -0.1700319E-02 -0.1713313E-04  0.1333046E+03  0.4146118E-02
  0.3904762E+00  0.1231806E+05  0.4842274E+00  0.7327009E-05 -0.2225209E-04  0.1322078E+03  0.6796563E-02
  0.4214286E+00  0.1237723E+05  0.7829135E+00 -0.1545599E-02 -0.9544753E-04  0.1339196E+03  0.1106081E-01
  0.4523810E+00  0.1241928E+05  0.1254133E+01 -0.3240183E-02 -0.1898173E-03  0.1355088E+03  0.1784419E-01
  0.4833333E+00  0.1242644E+05  0.1958440E+01 -0.1637689E-02 -0.1141168E-03  0.1363687E+03  0.2806880E-01
  0.5142857E+00  0.1247185E+05  0.3011180E+01  0.2596114E-02  0.1425296E-03  0.1373671E+03  0.4343982E-01
  0.5452381E+00  0.1253929E+05  0.4524040E+01 -0.1735104E-02 -0.1306813E-03  0.1409146E+03  0.6602740E-01
  0.5761905E+00  0.1259548E+05  0.6636955E+01  0.3608199E-03  0.1292303E-04  0.1428846E+03  0.9773789E-01
  0.6071429E+00  0.1260519E+05  0.9546843E+01 -0.1322578E-02 -0.2355762E-03  0.1412988E+03  0.1410557E+00
  0.6380953E+00  0.1264965E+05  0.1344476E+02 -0.1144836E-02 -0.5243346E-04  0.1436482E+03  0.2007535E+00
  0.6690477E+00  0.1273066E+05  0.1863201E+02 -0.3306976E-03 -0.1628995E-03  0.1460744E+03  0.2809169E+00
  0.7000000E+00  0.1281051E+05  0.2543844E+02 -0.1839229E-02 -0.5455762E-03  0.1488685E+03  0.3876002E+00
  0.7309524E+00  0.1287174E+05  0.3418634E+02 -0.3548786E-03 -0.2837926E-04  0.1509680E+03  0.5262844E+00
  0.7619048E+00  0.1291378E+05  0.4532602E+02 -0.2628565E-03 -0.8372962E-04  0.1509976E+03  0.7028006E+00
  0.7928572E+00  0.1297616E+05  0.5940797E+02 -0.2237268E-02 -0.6679147E-03  0.1521533E+03  0.9291294E+00
  0.8238096E+00  0.1306105E+05  0.7704408E+02  0.2262027E-02  0.3138632E-03  0.1553206E+03  0.1219487E+01
  0.8547620E+00  0.1316560E+05  0.9892635E+02  0.8122436E-03  0.2954900E-04  0.1595203E+03  0.1587180E+01
  0.8857143E+00  0.1327261E+05  0.1258189E+03  0.2368804E-04 -0.1031756E-03  0.1630755E+03  0.2043521E+01
  0.9166667E+00  0.1336518E+05  0.1585375E+03 -0.1864347E-02 -0.6585419E-03  0.1648855E+03  0.2600348E+01
  0.9476191E+00  0.1343439E+05  0.1979775E+03 -0.5353995E-03 -0.8392334E-04  0.1658506E+03  0.3278055E+01
  0.9785714E+00  0.1351887E+05  0.2453380E+03 -0.1461837E-02 -0.4455447E-03  0.1686890E+03  0.4112629E+01
  0.1009524E+01  0.1362932E+05  0.3018899E+03 -0.1772215E-02 -0.1512945E-02  0.1722132E+03  0.5123741E+01
  0.1040476E+01  0.1375479E+05  0.3689463E+03 -0.4986167E-03 -0.4252195E-03  0.1759629E+03  0.6339561E+01
  0.1071429E+01  0.1388654E+05  0.4479389E+03 -0.1036072E-02 -0.9442568E-03  0.1800042E+03  0.7796893E+01
  0.1102381E+01  0.1401746E+05  0.5403921E+03 -0.2474198E-02 -0.7315874E-03  0.1849380E+03  0.9544319E+01
  0.1133333E+01  0.1415135E+05  0.6480478E+03 -0.2399893E-02 -0.1573324E-02  0.1901095E+03  0.1161936E+02
  0.1164286E+01  0.1427327E+05  0.7724473E+03 -0.1290912E-02 -0.5134344E-03  0.1930729E+03  0.1401738E+02
  0.1195238E+01  0.1438423E+05  0.9154165E+03  0.1423444E-02  0.1214027E-02  0.1954179E+03  0.1680059E+02
  0.1226190E+01  0.1450171E+05  0.1079018E+04 -0.1763946E-02 -0.2602339E-02  0.1985832E+03  0.2004487E+02
  0.1257143E+01  0.1461187E+05  0.1264931E+04 -0.2127127E-02 -0.2449512E-02  0.2027033E+03  0.2381961E+02
  0.1288095E+01  0.1476483E+05  0.1476222E+04 -0.2526162E-02 -0.2623796E-02  0.2087009E+03  0.2822016E+02
  0.1319048E+01  0.1491125E+05  0.1714205E+04 -0.1946322E-02 -0.8096695E-03  0.2147446E+03  0.3328745E+02
  0.1350000E+01  0.1505667E+05  0.1981103E+04 -0.7459852E-03 -0.1793385E-02  0.2201352E+03  0.3903304E+02
  0.1380952E+01  0.1519599E+05  0.2279019E+04 -0.2085587E-02 -0.1898289E-02  0.2254855E+03  0.4555389E+02
  0.1411905E+01  0.1525635E+05  0.2595913E+04  0.1145567E-02  0.5149841E-04  0.2257612E+03  0.5240057E+02
  0.1442857E+01  0.1536699E+05  0.2959070E+04  0.3833582E-03 -0.1379967E-02  0.2303898E+03  0.6063170E+02
  0.1473810E+01  0.1546235E+05  0.3357907E+04  0.2609031E-02  0.1968861E-02  0.2344721E+03  0.6984161E+02
  0.1504762E+01  0.1554499E+05  0.3793936E+04  0.5678587E-03  0.1659393E-03  0.2386732E+03  0.8013989E+02
  0.1535714E+01  0.1561818E+05  0.4267278E+04 -0.1140151E-02 -0.1840591E-02  0.2428521E+03  0.9149807E+02
  0.1566667E+01  0.1568496E+05  0.4778258E+04 -0.5064619E-03 -0.1511574E-02  0.2469375E+03  0.1039708E+03
  0.1597619E+01  0.1573729E+05  0.5326583E+04  0.7043830E-03  0.8583069E-05  0.2505511E+03  0.1175121E+03
  0.1628572E+01  0.1577832E+05  0.5912225E+04  0.5691930E-03  0.1777649E-02  0.2542466E+03  0.1323499E+03
  0.1659524E+01  0.1579795E+05  0.6534153E+04  0.5149020E-03 -0.2938271E-02  0.2578381E+03  0.1485947E+03
  0.1690476E+01  0.1579631E+05  0.7190774E+04 -0.1083159E-03 -0.2792358E-02  0.2612022E+03  0.1661913E+03
  0.1721429E+01  0.1577426E+05  0.7880573E+04 -0.1675301E-02 -0.8153915E-03  0.2642535E+03  0.1851782E+03
  0.1752381E+01  0.1572960E+05  0.8600213E+04 -0.1005712E-02 -0.4434586E-02  0.2671250E+03  0.2054374E+03
  0.1783333E+01  0.1566349E+05  0.9344729E+04 -0.1078098E-02  0.3929138E-03  0.2688167E+03  0.2267408E+03
  0.1814286E+01  0.1557271E+05  0.1010949E+05  0.5214421E-03 -0.1123428E-02  0.2698745E+03  0.2490845E+03
  0.1845238E+01  0.1545570E+05  0.1089038E+05  0.7401005E-03  0.5207062E-03  0.2696687E+03  0.2721889E+03
  0.1876190E+01  0.1531775E+05  0.1168335E+05 -0.3212479E-03 -0.6408691E-03  0.2692003E+03  0.2964372E+03
  0.1907143E+01  0.1515385E+05  0.1248382E+05  0.1680181E-02  0.4005432E-03  0.2681610E+03  0.3218160E+03
  0.1938095E+01  0.1496487E+05  0.1328647E+05  0.6416565E-03  0.2538681E-02  0.2667106E+03  0.3481964E+03
  0.1969048E+01  0.1475589E+05  0.1408546E+05 -0.7361858E-04 -0.1073837E-02  0.2648575E+03  0.3751962E+03
  0.2000000E+01  0.1452862E+05  0.1487444E+05  0.1029968E-02  0.2868652E-02  0.2626651E+03  0.4029332E+03
Zone t="Motion of body    1 in DoF   2",I=    64,F=POINT
  0.5000000E-01 -0.1907349E-02 -0.2350658E-05  0.2060209E+05  0.3249517E+02  0.3838539E-03  0.1937151E-05
  0.8095238E-01 -0.3681463E-03  0.3643334E-05  0.2046991E+05  0.5396659E+02  0.3975980E-03  0.1482666E-05
  0.1119048E+00 -0.1293243E-02  0.1683831E-05  0.2042332E+05  0.7746494E+02  0.1789661E-03  0.3285706E-05
  0.1428571E+00 -0.2136230E-03  0.7078052E-05  0.2040740E+05  0.1039434E+03  0.3571510E-03  0.2041459E-05
  0.1738095E+00 -0.8888767E-03 -0.1132488E-05  0.2041776E+05  0.1346364E+03  0.2661143E-03  0.3412366E-05
  0.2047619E+00  0.4657479E-05 -0.1117587E-05  0.2045855E+05  0.1710396E+03  0.6660195E-03  0.5513430E-05
  0.2357143E+00 -0.8820042E-03 -0.1192093E-06  0.2052078E+05  0.2153282E+03  0.4895528E-03  0.6973743E-05
  0.2666667E+00  0.1037121E-02  0.3695488E-05  0.2060308E+05  0.2695117E+03  0.3933906E-03  0.6616116E-05
  0.2976190E+00 -0.3909302E-02 -0.2554059E-04  0.2070426E+05  0.3375731E+03  0.3813171E-03  0.6616116E-05
  0.3285715E+00 -0.1233557E-02  0.2419949E-04  0.2081396E+05  0.4222487E+03  0.5601799E-03  0.1251698E-04
  0.3595238E+00  0.7957811E-05 -0.1251698E-05  0.2092901E+05  0.5285558E+03  0.5941833E-03  0.1484156E-04
  0.3904762E+00 -0.2877072E-02 -0.5853176E-04  0.2104691E+05  0.6610875E+03  0.5348717E-03  0.1281500E-04
  0.4214286E+00  0.4209098E-03  0.3516674E-04  0.2114102E+05  0.8195601E+03  0.5136909E-03  0.2884865E-04
  0.4523810E+00 -0.1454604E-03 -0.2884865E-04  0.2121770E+05  0.1012568E+04  0.5228143E-03  0.2503395E-04
  0.4833333E+00 -0.1495624E-02  0.1558065E-03  0.2126269E+05  0.1227144E+04  0.3078066E-03  0.3564358E-04
  0.5142857E+00 -0.6824070E-03 -0.7808208E-04  0.2127591E+05  0.1473031E+04  0.3337860E-03  0.7605553E-04
  0.5452381E+00 -0.2403259E-02  0.6914139E-05  0.2125538E+05  0.1739986E+04  0.5702056E-03  0.5936623E-04
  0.5761905E+00  0.9930823E-04 -0.2813339E-04  0.2120912E+05  0.2024480E+04  0.3210966E-03  0.4935265E-04
  0.6071429E+00  0.2293306E-03  0.6675720E-05  0.2113034E+05  0.2332892E+04  0.3989724E-03  0.7939339E-04
  0.6380953E+00 -0.1536412E-02 -0.2231598E-03  0.2104505E+05  0.2651262E+04  0.2570650E-03  0.8606911E-04
  0.6690477E+00 -0.2463127E-02  0.5342960E-03  0.2093591E+05  0.2986313E+04  0.3478026E-03  0.6294250E-04
  0.7000000E+00 -0.7847377E-03  0.1969337E-03  0.2079592E+05  0.3339347E+04  0.3841945E-03  0.1258850E-03
  0.7309524E+00 -0.1260341E-02 -0.3652573E-03  0.2064793E+05  0.3702631E+04  0.4148949E-03  0.8678436E-04
  0.7619048E+00 -0.3867745E-02  0.3638268E-03  0.2048649E+05  0.4078049E+04  0.6183385E-03  0.1382828E-03
  0.7928572E+00 -0.1472267E-02 -0.3433228E-03  0.2030607E+05  0.4464857E+04  0.2718401E-03  0.1516342E-03
  0.8238096E+00 -0.2157840E-02  0.3829002E-03  0.2010578E+05  0.4861050E+04  0.1319709E-03  0.1358986E-03
  0.8547620E+00 -0.2530451E-02 -0.2393723E-03  0.1989569E+05  0.5263829E+04  0.3882703E-03  0.1149178E-03
  0.8857143E+00 -0.2032864E-02 -0.1745224E-03  0.1967194E+05  0.5671579E+04  0.4673004E-03  0.2140999E-03
  0.9166667E+00 -0.4161488E-04  0.1635551E-03  0.1943550E+05  0.6082399E+04  0.4536022E-03  0.1773834E-03
  0.9476191E+00 -0.2616614E-04  0.1826286E-03  0.1918261E+05  0.6494950E+04  0.3381470E-03  0.2193451E-03
  0.9785714E+00 -0.7016815E-03  0.2098083E-04  0.1892464E+05  0.6906515E+04  0.3274514E-03  0.2269745E-03
  0.1009524E+01 -0.3820276E-02 -0.7772446E-03  0.1865934E+05  0.7315519E+04  0.2758458E-03  0.2212524E-03
  0.1040476E+01 -0.1737826E-02 -0.7705688E-03  0.1838451E+05  0.7720507E+04  0.3666299E-03  0.1821518E-03
  0.1071429E+01 -0.1922607E-03 -0.3499985E-03  0.1810029E+05  0.8119938E+04  0.3097534E-03  0.1773834E-03
  0.1102381E+01  0.1150589E-02 -0.1525879E-04  0.1781042E+05  0.8511833E+04  0.3114375E-03  0.2937317E-03
  0.1133333E+01  0.9407717E-03  0.1678467E-03  0.1751821E+05  0.8894141E+04  0.3870796E-03  0.1831055E-03
  0.1164286E+01  0.6110536E-03 -0.9164810E-03  0.1722510E+05  0.9265408E+04  0.3931712E-03  0.2746582E-03
  0.1195238E+01  0.6941685E-03 -0.8354187E-03  0.1692878E+05  0.9624840E+04  0.1914948E-03  0.2145767E-03
  0.1226190E+01 -0.1875942E-02  0.9593964E-03  0.1663188E+05  0.9971146E+04  0.3048795E-03  0.3652573E-03
  0.1257143E+01 -0.2315261E-02  0.3232956E-03  0.1633305E+05  0.1031319E+05  0.2913041E-03  0.3604889E-03
  0.1288095E+01 -0.3109578E-03  0.6523132E-03  0.1603697E+05  0.1062285E+05  0.2161897E-03  0.3747940E-03
  0.1319048E+01 -0.3036609E-02 -0.4053116E-03  0.1574451E+05  0.1092474E+05  0.1590605E-03  0.2775192E-03
  0.1350000E+01 -0.2373589E-02 -0.8773804E-04  0.1545401E+05  0.1121018E+05  0.1921477E-03  0.4034042E-03
  0.1380952E+01 -0.1284501E-02 -0.2071381E-02  0.1516780E+05  0.1147704E+05  0.1933657E-03  0.4434586E-03
  0.1411905E+01 -0.1831827E-02 -0.2002716E-02  0.1488470E+05  0.1173500E+05  0.3269189E-03  0.3194809E-03
  0.1442857E+01 -0.4785368E-03 -0.1907349E-02  0.1460291E+05  0.1196916E+05  0.1665625E-03  0.2689362E-03
  0.1473810E+01 -0.6186095E-03 -0.1812935E-02  0.1432867E+05  0.1218431E+05  0.2743624E-03  0.3528595E-03
  0.1504762E+01  0.8340425E-03 -0.9927750E-03  0.1406182E+05  0.1238033E+05  0.3346310E-03  0.2803802E-03
  0.1535714E+01 -0.2039355E-02 -0.3147125E-04  0.1380256E+05  0.1255652E+05  0.3104986E-03  0.5378723E-03
  0.1566667E+01 -0.1821315E-02 -0.6017685E-03  0.1354958E+05  0.1271504E+05  0.1168758E-03  0.3471375E-03
  0.1597619E+01 -0.1150890E-02 -0.7352829E-03  0.1330421E+05  0.1285529E+05  0.1814682E-03  0.4377365E-03
  0.1628572E+01 -0.3033353E-02 -0.2101898E-02  0.1306508E+05  0.1297758E+05  0.1452262E-03  0.4224777E-03
  0.1659524E+01 -0.6941982E-03 -0.1907349E-02  0.1283138E+05  0.1308371E+05  0.1517122E-03  0.4215240E-03
  0.1690476E+01 -0.2058002E-02 -0.4065514E-02  0.1260664E+05  0.1317128E+05  0.3610530E-04  0.2622604E-03
  0.1721429E+01 -0.3878012E-03 -0.7572174E-03  0.1239060E+05  0.1324178E+05  0.1839286E-03  0.3576279E-03
  0.1752381E+01 -0.5420395E-03 -0.5941391E-03  0.1218376E+05  0.1329349E+05  0.1044895E-03  0.2536774E-03
  0.1783333E+01 -0.7208709E-03 -0.6017685E-03  0.1198513E+05  0.1332864E+05  0.1390404E-03  0.5207062E-03
  0.1814286E+01 -0.1696789E-02 -0.1465797E-02  0.1179400E+05  0.1334788E+05  0.2544133E-03  0.4739761E-03
  0.1845238E+01 -0.1620779E-02 -0.1182556E-03  0.1161176E+05  0.1335145E+05  0.1199046E-03  0.3671646E-03
  0.1876190E+01 -0.1160965E-02 -0.9298325E-03  0.1143669E+05  0.1333993E+05  0.3456464E-04  0.4701614E-03
  0.1907143E+01 -0.9601036E-03 -0.1675606E-02  0.1126770E+05  0.1331550E+05  0.8200885E-04  0.3423691E-03
  0.1938095E+01 -0.3503523E-03 -0.2924919E-02  0.1110706E+05  0.1327610E+05  0.6298468E-04  0.3042221E-03
  0.1969048E+01 -0.4920822E-03  0.4100800E-03  0.1095631E+05  0.1322352E+05  0.1084905E-03  0.4177094E-03
  0.2000000E+01 -0.1239777E-02 -0.7295609E-03  0.1081426E+05  0.1315800E+05  0.1296997E-03  0.2431870E-03
Zone t="Motion of body    1 in DoF   3",I=    64,F=POINT
  0.5000000E-01  0.1322551E+03  0.2872118E-05 -0.3266335E-03 -0.5264071E-06  0.1437879E+03  0.2366031E-07
  0.8095238E-01  0.1322756E+03  0.1316457E-04 -0.1115483E-03 -0.4398368E-06  0.1441261E+03  0.2628390E-06
  0.1119048E+00  0.1334803E+03  0.3611749E-04  0.2655197E-03  0.8687667E-06  0.1458710E+03  0.4117680E-06
  0.1428571E+00  0.1313592E+03  0.8144107E-04 -0.8094311E-04 -0.6868924E-06  0.1458528E+03  0.1080962E-05
  0.1738095E+00  0.1335286E+03  0.1639812E-03 -0.1714654E-03 -0.1142642E-05  0.1454123E+03  0.2364648E-05
  0.2047619E+00  0.1317740E+03  0.3028768E-03 -0.3408692E-03 -0.2775568E-05  0.1452168E+03  0.4693478E-05
  0.2357143E+00  0.1335655E+03  0.5358074E-03 -0.2713276E-03 -0.2332861E-05  0.1457089E+03  0.6988707E-05
  0.2666667E+00  0.1335569E+03  0.9188115E-03 -0.6593764E-04 -0.2125071E-05  0.1460228E+03  0.1212175E-04
  0.2976190E+00  0.1332633E+03  0.1553780E-02  0.3124237E-04 -0.4149661E-06  0.1455796E+03  0.2279810E-04
  0.3285715E+00  0.1348704E+03  0.2594997E-02 -0.3326975E-03 -0.6590409E-05  0.1453914E+03  0.3775317E-04
  0.3595238E+00  0.1362880E+03  0.4292327E-02 -0.1511984E-03 -0.2844762E-05  0.1458299E+03  0.6027640E-04
  0.3904762E+00  0.1349390E+03  0.7055543E-02  0.2747629E-03  0.1017385E-04  0.1456068E+03  0.1005758E-03
  0.4214286E+00  0.1364708E+03  0.1147335E-01 -0.8599232E-04  0.2326778E-06  0.1450186E+03  0.1611426E-03
  0.4523810E+00  0.1382674E+03  0.1849003E-01 -0.2640423E-03 -0.1291404E-04  0.1456630E+03  0.2593002E-03
  0.4833333E+00  0.1392449E+03  0.2906773E-01  0.3793322E-03  0.2524015E-04  0.1454261E+03  0.4126474E-03
  0.5142857E+00  0.1402730E+03  0.4500532E-01 -0.5226997E-03 -0.3937525E-04  0.1459304E+03  0.6479386E-03
  0.5452381E+00  0.1440105E+03  0.6811044E-01 -0.1128168E-03 -0.3376641E-05  0.1459624E+03  0.9932340E-03
  0.5761905E+00  0.1460474E+03  0.1007231E+00 -0.3566821E-03 -0.2524685E-04  0.1458935E+03  0.1476361E-02
  0.6071429E+00  0.1443219E+03  0.1461021E+00 -0.2850925E-03 -0.3636250E-04  0.1461649E+03  0.2151021E-02
  0.6380953E+00  0.1467607E+03  0.2074730E+00  0.3684101E-03  0.7282075E-04  0.1459057E+03  0.3096733E-02
  0.6690477E+00  0.1491531E+03  0.2900576E+00 -0.9008658E-03 -0.1436219E-03  0.1458977E+03  0.4373002E-02
  0.7000000E+00  0.1521324E+03  0.3995985E+00 -0.3164155E-03 -0.4203315E-04  0.1465620E+03  0.6087211E-02
  0.7309524E+00  0.1542698E+03  0.5421835E+00 -0.1154660E-03 -0.2537551E-04  0.1462931E+03  0.8342931E-02
  0.7619048E+00  0.1541544E+03  0.7263384E+00 -0.5372911E-03 -0.1013887E-03  0.1459635E+03  0.1126894E-01
  0.7928572E+00  0.1554045E+03  0.9619615E+00 -0.3704723E-03 -0.8754921E-04  0.1465479E+03  0.1505314E-01
  0.8238096E+00  0.1586594E+03  0.1260108E+01 -0.7686725E-03 -0.2033224E-03  0.1467308E+03  0.1995975E-01
  0.8547620E+00  0.1628770E+03  0.1634707E+01 -0.2549418E-03 -0.5922001E-04  0.1464372E+03  0.2625003E-01
  0.8857143E+00  0.1665526E+03  0.2102366E+01  0.1714691E-03  0.6984640E-04  0.1466109E+03  0.3415249E-01
  0.9166667E+00  0.1684556E+03  0.2680762E+01 -0.1703609E-03 -0.4047155E-04  0.1470912E+03  0.4396857E-01
  0.9476191E+00  0.1693724E+03  0.3388805E+01  0.1761182E-03  0.5491450E-04  0.1470968E+03  0.5615022E-01
  0.9785714E+00  0.1722238E+03  0.4249366E+01  0.2044135E-03  0.1172749E-03  0.1467588E+03  0.7125492E-01
  0.1009524E+01  0.1757754E+03  0.5290349E+01  0.4723387E-05  0.2390426E-04  0.1467000E+03  0.8964935E-01
  0.1040476E+01  0.1796970E+03  0.6546074E+01 -0.5781296E-03 -0.2323026E-03  0.1470981E+03  0.1123416E+00
  0.1071429E+01  0.1837831E+03  0.8045575E+01 -0.4793167E-03 -0.2252050E-03  0.1475660E+03  0.1400826E+00
  0.1102381E+01  0.1888322E+03  0.9825904E+01  0.8478020E-04  0.1089685E-03  0.1478922E+03  0.1736633E+00
  0.1133333E+01  0.1940722E+03  0.1193548E+02 -0.2873645E-03 -0.1423843E-03  0.1477072E+03  0.2139820E+00
  0.1164286E+01  0.1969533E+03  0.1442546E+02  0.2326263E-03  0.1157708E-03  0.1474900E+03  0.2617880E+00
  0.1195238E+01  0.1995639E+03  0.1735549E+02 -0.1045242E-03 -0.7896498E-04  0.1477267E+03  0.3187054E+00
  0.1226190E+01  0.2028532E+03  0.2074049E+02 -0.1419401E-03 -0.1050532E-03  0.1482185E+03  0.3864055E+00
  0.1257143E+01  0.2071161E+03  0.2463807E+02 -0.2086163E-04  0.6857887E-04  0.1484834E+03  0.4631936E+00
  0.1288095E+01  0.2131285E+03  0.2911775E+02 -0.3868463E-03 -0.2931505E-03  0.1484734E+03  0.5564845E+00
  0.1319048E+01  0.2190280E+03  0.3425935E+02 -0.2443747E-03 -0.5444884E-04  0.1482743E+03  0.6637019E+00
  0.1350000E+01  0.2244239E+03  0.4015110E+02 -0.3178914E-03 -0.3431886E-03  0.1484144E+03  0.7897952E+00
  0.1380952E+01  0.2301374E+03  0.4688089E+02  0.4385257E-04  0.1579225E-03  0.1489622E+03  0.9374330E+00
  0.1411905E+01  0.2201982E+03  0.5207844E+02  0.7193567E-04  0.2397671E-03  0.1486550E+03  0.1052926E+01
  0.1442857E+01  0.2247525E+03  0.6029280E+02  0.2425732E-03  0.3481209E-03  0.1488449E+03  0.1237830E+01
  0.1473810E+01  0.2287200E+03  0.6952052E+02 -0.4244852E-03 -0.4332215E-03  0.1489465E+03  0.1451270E+01
  0.1504762E+01  0.2328795E+03  0.7985120E+02 -0.8872792E-04 -0.1240224E-03  0.1486722E+03  0.1687875E+01
  0.1535714E+01  0.2369321E+03  0.9119716E+02  0.7793515E-04  0.2467930E-03  0.1485503E+03  0.1957231E+01
  0.1566667E+01  0.2411414E+03  0.1037527E+03 -0.2517091E-03 -0.2545863E-03  0.1487512E+03  0.2246175E+01
  0.1597619E+01  0.2451785E+03  0.1175310E+03  0.2229551E-03  0.5825311E-03  0.1492620E+03  0.2583921E+01
  0.1628572E+01  0.2489230E+03  0.1324825E+03 -0.2942587E-03 -0.5246699E-03  0.1498488E+03  0.2971752E+01
  0.1659524E+01  0.2523878E+03  0.1487608E+03  0.1376329E-03  0.4536808E-03  0.1500626E+03  0.3391339E+01
  0.1690476E+01  0.2556273E+03  0.1662987E+03 -0.1692436E-04  0.2574623E-03  0.1504031E+03  0.3854089E+01
  0.1721429E+01  0.2586279E+03  0.1852614E+03  0.9999731E-04  0.2764165E-03  0.1503436E+03  0.4364751E+01
  0.1752381E+01  0.2615035E+03  0.2053636E+03 -0.1673465E-03  0.3662705E-04  0.1503068E+03  0.4879990E+01
  0.1783333E+01  0.2631411E+03  0.2267480E+03  0.5107060E-04  0.3841221E-03  0.1503047E+03  0.5475314E+01
  0.1814286E+01  0.2644079E+03  0.2493453E+03 -0.1316746E-03 -0.1558065E-03  0.1504964E+03  0.6087884E+01
  0.1845238E+01  0.2645898E+03  0.2731658E+03  0.4858202E-04  0.3331304E-03  0.1509153E+03  0.6799394E+01
  0.1876190E+01  0.2640646E+03  0.2977756E+03 -0.2035756E-03 -0.5032420E-03  0.1514501E+03  0.7601919E+01
  0.1907143E+01  0.2628752E+03  0.3234495E+03 -0.1752689E-03  0.2217293E-04  0.1516040E+03  0.8399773E+01
  0.1938095E+01  0.2611738E+03  0.3498025E+03  0.4699248E-04  0.4546046E-03  0.1518090E+03  0.9248816E+01
  0.1969048E+01  0.2591748E+03  0.3766335E+03 -0.4061130E-03 -0.2048612E-03  0.1518252E+03  0.1009964E+02
  0.2000000E+01  0.2567759E+03  0.4041173E+03 -0.1695156E-03 -0.1066923E-04  0.1514006E+03  0.1093892E+02
