VARIABLES="w (rad/s)"
"abs(F   1   1)" "angle(F   1   1)"
"abs(F   1   2)" "angle(F   1   2)"
"abs(F   1   3)" "angle(F   1   3)"
Zone t="Diffraction force - beta =   0.000 deg",I=    64,F=POINT
  0.5000000E-01  0.2855808E+03 -0.1570796E+01  0.7679583E+02 -0.3105627E+01  0.2465978E+01 -0.1570794E+01
  0.8095238E-01  0.4663638E+03 -0.1570795E+01  0.1999308E+03 -0.3104459E+01  0.4009023E+01 -0.1570792E+01
  0.1119048E+00  0.6501100E+03 -0.1570794E+01  0.3808327E+03 -0.3102927E+01  0.5622882E+01 -0.1570789E+01
  0.1428571E+00  0.8441183E+03 -0.1570791E+01  0.6196649E+03 -0.3100912E+01  0.7356955E+01 -0.1570786E+01
  0.1738095E+00  0.1042095E+04 -0.1570788E+01  0.9176678E+03 -0.3098335E+01  0.9010696E+01 -0.1570780E+01
  0.2047619E+00  0.1256559E+04 -0.1570784E+01  0.1275998E+04 -0.3095074E+01  0.1100629E+02 -0.1570773E+01
  0.2357143E+00  0.1478397E+04 -0.1570777E+01  0.1695763E+04 -0.3090916E+01  0.1305473E+02 -0.1570764E+01
  0.2666667E+00  0.1720955E+04 -0.1570767E+01  0.2179768E+04 -0.3085837E+01  0.1514611E+02 -0.1570750E+01
  0.2976190E+00  0.1986918E+04 -0.1570752E+01  0.2727908E+04 -0.3079392E+01  0.1776529E+02 -0.1570728E+01
  0.3285715E+00  0.2274059E+04 -0.1570730E+01  0.3344143E+04 -0.3071632E+01  0.2064995E+02 -0.1570700E+01
  0.3595238E+00  0.2587462E+04 -0.1570697E+01  0.4026620E+04 -0.3062132E+01  0.2338487E+02 -0.1570654E+01
  0.3904762E+00  0.2943280E+04 -0.1570647E+01  0.4779151E+04 -0.3050798E+01  0.2696254E+02 -0.1570587E+01
  0.4214286E+00  0.3336964E+04 -0.1570575E+01  0.5591688E+04 -0.3037945E+01  0.3120689E+02 -0.1570494E+01
  0.4523810E+00  0.3759111E+04 -0.1570466E+01  0.6472357E+04 -0.3023039E+01  0.3553986E+02 -0.1570348E+01
  0.4833333E+00  0.4233515E+04 -0.1570316E+01  0.7406435E+04 -0.3007689E+01  0.4056148E+02 -0.1570153E+01
  0.5142857E+00  0.4756721E+04 -0.1570106E+01  0.8392178E+04 -0.2990911E+01  0.4742575E+02 -0.1569896E+01
  0.5452381E+00  0.5310748E+04 -0.1569823E+01  0.9430507E+04 -0.2973975E+01  0.5343084E+02 -0.1569529E+01
  0.5761905E+00  0.5877757E+04 -0.1569449E+01  0.1051253E+05 -0.2957040E+01  0.5885961E+02 -0.1569028E+01
  0.6071429E+00  0.6502864E+04 -0.1568966E+01  0.1163900E+05 -0.2939540E+01  0.6700827E+02 -0.1568428E+01
  0.6380953E+00  0.7170771E+04 -0.1568361E+01  0.1280978E+05 -0.2922710E+01  0.7540964E+02 -0.1567668E+01
  0.6690477E+00  0.7862161E+04 -0.1567600E+01  0.1401354E+05 -0.2905708E+01  0.8508782E+02 -0.1566746E+01
  0.7000000E+00  0.8562420E+04 -0.1566650E+01  0.1525288E+05 -0.2888494E+01  0.9347696E+02 -0.1565528E+01
  0.7309524E+00  0.9282020E+04 -0.1565488E+01  0.1653033E+05 -0.2871676E+01  0.1018041E+03 -0.1564014E+01
  0.7619048E+00  0.1004943E+05 -0.1564090E+01  0.1783254E+05 -0.2854815E+01  0.1126823E+03 -0.1562288E+01
  0.7928572E+00  0.1085817E+05 -0.1562420E+01  0.1915680E+05 -0.2837925E+01  0.1257696E+03 -0.1560320E+01
  0.8238096E+00  0.1169710E+05 -0.1560439E+01  0.2050159E+05 -0.2821128E+01  0.1393857E+03 -0.1557981E+01
  0.8547620E+00  0.1254366E+05 -0.1558093E+01  0.2186301E+05 -0.2804478E+01  0.1519069E+03 -0.1555100E+01
  0.8857143E+00  0.1338061E+05 -0.1555322E+01  0.2323496E+05 -0.2787939E+01  0.1632285E+03 -0.1551572E+01
  0.9166667E+00  0.1424411E+05 -0.1552109E+01  0.2462123E+05 -0.2771682E+01  0.1776335E+03 -0.1547702E+01
  0.9476191E+00  0.1515578E+05 -0.1548435E+01  0.2601002E+05 -0.2755578E+01  0.1935152E+03 -0.1543347E+01
  0.9785714E+00  0.1610060E+05 -0.1544246E+01  0.2739617E+05 -0.2739623E+01  0.2099716E+03 -0.1538354E+01
  0.1009524E+01  0.1706415E+05 -0.1539485E+01  0.2877361E+05 -0.2723789E+01  0.2283282E+03 -0.1532816E+01
  0.1040476E+01  0.1804109E+05 -0.1534096E+01  0.3014414E+05 -0.2708213E+01  0.2488990E+03 -0.1526744E+01
  0.1071429E+01  0.1902534E+05 -0.1528027E+01  0.3150636E+05 -0.2692978E+01  0.2699295E+03 -0.1519877E+01
  0.1102381E+01  0.1999358E+05 -0.1521191E+01  0.3285612E+05 -0.2678058E+01  0.2874205E+03 -0.1511574E+01
  0.1133333E+01  0.2094781E+05 -0.1513542E+01  0.3418825E+05 -0.2663417E+01  0.3047111E+03 -0.1502212E+01
  0.1164286E+01  0.2192272E+05 -0.1505130E+01  0.3550023E+05 -0.2649042E+01  0.3255988E+03 -0.1492388E+01
  0.1195238E+01  0.2291557E+05 -0.1495930E+01  0.3678783E+05 -0.2634938E+01  0.3497061E+03 -0.1482140E+01
  0.1226190E+01  0.2392692E+05 -0.1485930E+01  0.3805087E+05 -0.2621186E+01  0.3764442E+03 -0.1471265E+01
  0.1257143E+01  0.2490602E+05 -0.1474961E+01  0.3929360E+05 -0.2607377E+01  0.4009796E+03 -0.1458849E+01
  0.1288095E+01  0.2591652E+05 -0.1463240E+01  0.4048007E+05 -0.2594494E+01  0.4281382E+03 -0.1445910E+01
  0.1319048E+01  0.2687451E+05 -0.1450456E+01  0.4164316E+05 -0.2581602E+01  0.4545988E+03 -0.1431632E+01
  0.1350000E+01  0.2778109E+05 -0.1436610E+01  0.4276634E+05 -0.2568950E+01  0.4807993E+03 -0.1416070E+01
  0.1380952E+01  0.2863209E+05 -0.1421680E+01  0.4385646E+05 -0.2556834E+01  0.5058249E+03 -0.1398988E+01
  0.1411905E+01  0.2925369E+05 -0.1405777E+01  0.4487118E+05 -0.2544912E+01  0.5187579E+03 -0.1378514E+01
  0.1442857E+01  0.2999495E+05 -0.1388849E+01  0.4588439E+05 -0.2533525E+01  0.5436852E+03 -0.1359345E+01
  0.1473810E+01  0.3069242E+05 -0.1371084E+01  0.4685321E+05 -0.2522413E+01  0.5686994E+03 -0.1339378E+01
  0.1504762E+01  0.3132374E+05 -0.1352432E+01  0.4777631E+05 -0.2511583E+01  0.5920659E+03 -0.1318274E+01
  0.1535714E+01  0.3188723E+05 -0.1332950E+01  0.4865176E+05 -0.2501033E+01  0.6160503E+03 -0.1296338E+01
  0.1566667E+01  0.3235049E+05 -0.1312510E+01  0.4947584E+05 -0.2490653E+01  0.6405907E+03 -0.1273738E+01
  0.1597619E+01  0.3271990E+05 -0.1291223E+01  0.5025325E+05 -0.2480673E+01  0.6644227E+03 -0.1250530E+01
  0.1628572E+01  0.3298788E+05 -0.1269132E+01  0.5098243E+05 -0.2471082E+01  0.6879885E+03 -0.1226906E+01
  0.1659524E+01  0.3314662E+05 -0.1246386E+01  0.5166221E+05 -0.2461879E+01  0.7090800E+03 -0.1202704E+01
  0.1690476E+01  0.3319216E+05 -0.1223104E+01  0.5228870E+05 -0.2452937E+01  0.7262787E+03 -0.1177203E+01
  0.1721429E+01  0.3310500E+05 -0.1199222E+01  0.5286233E+05 -0.2444272E+01  0.7382575E+03 -0.1150263E+01
  0.1752381E+01  0.3289268E+05 -0.1174889E+01  0.5338233E+05 -0.2435894E+01  0.7481138E+03 -0.1122772E+01
  0.1783333E+01  0.3254725E+05 -0.1150105E+01  0.5384719E+05 -0.2427714E+01  0.7561899E+03 -0.1094936E+01
  0.1814286E+01  0.3206136E+05 -0.1124845E+01  0.5425786E+05 -0.2419815E+01  0.7624628E+03 -0.1067182E+01
  0.1845238E+01  0.3144439E+05 -0.1099371E+01  0.5461602E+05 -0.2412293E+01  0.7664182E+03 -0.1040386E+01
  0.1876190E+01  0.3069738E+05 -0.1073837E+01  0.5491942E+05 -0.2405116E+01  0.7673242E+03 -0.1013707E+01
  0.1907143E+01  0.2981715E+05 -0.1048214E+01  0.5516827E+05 -0.2398302E+01  0.7634879E+03 -0.9868355E+00
  0.1938095E+01  0.2880667E+05 -0.1022539E+01  0.5536048E+05 -0.2391737E+01  0.7535502E+03 -0.9591279E+00
  0.1969048E+01  0.2766248E+05 -0.9966868E+00  0.5549678E+05 -0.2385439E+01  0.7390287E+03 -0.9306577E+00
  0.2000000E+01  0.2639177E+05 -0.9706976E+00  0.5557895E+05 -0.2379416E+01  0.7190186E+03 -0.9011464E+00
