VARIABLES="w (rad/s)"
"abs(F   1   1)" "angle(F   1   1)"
"abs(F   1   2)" "angle(F   1   2)"
"abs(F   1   3)" "angle(F   1   3)"
Zone t="Diffraction force - beta =   0.000 deg",I=    64,F=POINT
  0.5000000E-01  0.4844723E+04 -0.1570792E+01  0.4404532E+06 -0.2945430E-04  0.6159549E+04  0.1570801E+01
  0.8095238E-01  0.7907055E+04 -0.1570795E+01  0.4392070E+06 -0.7915697E-04  0.1005736E+05  0.1570800E+01
  0.1119048E+00  0.1103348E+05 -0.1570792E+01  0.4373750E+06 -0.1569335E-03  0.1404271E+05  0.1570804E+01
  0.1428571E+00  0.1427426E+05 -0.1570786E+01  0.4349624E+06 -0.2686041E-03  0.1817574E+05  0.1570807E+01
  0.1738095E+00  0.1764865E+05 -0.1570779E+01  0.4319687E+06 -0.4226293E-03  0.2248709E+05  0.1570812E+01
  0.2047619E+00  0.2120773E+05 -0.1570769E+01  0.4283870E+06 -0.6316918E-03  0.2704552E+05  0.1570819E+01
  0.2357143E+00  0.2497562E+05 -0.1570757E+01  0.4242333E+06 -0.9140903E-03  0.3189344E+05  0.1570836E+01
  0.2666667E+00  0.2904980E+05 -0.1570738E+01  0.4194980E+06 -0.1291218E-02  0.3714055E+05  0.1570854E+01
  0.2976190E+00  0.3345679E+05 -0.1570708E+01  0.4141947E+06 -0.1801758E-02  0.4283523E+05  0.1570884E+01
  0.3285715E+00  0.3826510E+05 -0.1570664E+01  0.4083276E+06 -0.2481083E-02  0.4905427E+05  0.1570928E+01
  0.3595238E+00  0.4357841E+05 -0.1570599E+01  0.4019313E+06 -0.3390499E-02  0.5596314E+05  0.1570993E+01
  0.3904762E+00  0.4945833E+05 -0.1570502E+01  0.3949898E+06 -0.4592249E-02  0.6359921E+05  0.1571092E+01
  0.4214286E+00  0.5591373E+05 -0.1570357E+01  0.3876271E+06 -0.6126109E-02  0.7204060E+05  0.1571235E+01
  0.4523810E+00  0.6300384E+05 -0.1570147E+01  0.3797416E+06 -0.8110381E-02  0.8136017E+05  0.1571446E+01
  0.4833333E+00  0.7087710E+05 -0.1569853E+01  0.3715968E+06 -0.1046948E-01  0.9169200E+05  0.1571739E+01
  0.5142857E+00  0.7933099E+05 -0.1569445E+01  0.3630254E+06 -0.1334911E-01  0.1028675E+06  0.1572148E+01
  0.5452381E+00  0.8837495E+05 -0.1568899E+01  0.3542109E+06 -0.1668591E-01  0.1148309E+06  0.1572694E+01
  0.5761905E+00  0.9790405E+05 -0.1568187E+01  0.3451596E+06 -0.2047858E-01  0.1275171E+06  0.1573406E+01
  0.6071429E+00  0.1081258E+06 -0.1567266E+01  0.3357599E+06 -0.2484884E-01  0.1411343E+06  0.1574327E+01
  0.6380953E+00  0.1188114E+06 -0.1566113E+01  0.3263482E+06 -0.2964967E-01  0.1554261E+06  0.1575481E+01
  0.6690477E+00  0.1297890E+06 -0.1564676E+01  0.3167136E+06 -0.3500471E-01  0.1701782E+06  0.1576920E+01
  0.7000000E+00  0.1411163E+06 -0.1562904E+01  0.3068239E+06 -0.4096309E-01  0.1854959E+06  0.1578694E+01
  0.7309524E+00  0.1529432E+06 -0.1560763E+01  0.2970517E+06 -0.4746143E-01  0.2015432E+06  0.1580836E+01
  0.7619048E+00  0.1651898E+06 -0.1558192E+01  0.2871721E+06 -0.5455790E-01  0.2180736E+06  0.1583408E+01
  0.7928572E+00  0.1777208E+06 -0.1555128E+01  0.2771392E+06 -0.6228447E-01  0.2352541E+06  0.1586475E+01
  0.8238096E+00  0.1904860E+06 -0.1551513E+01  0.2671456E+06 -0.7062880E-01  0.2526417E+06  0.1590098E+01
  0.8547620E+00  0.2034458E+06 -0.1547294E+01  0.2573224E+06 -0.7963447E-01  0.2705094E+06  0.1594328E+01
  0.8857143E+00  0.2164515E+06 -0.1542417E+01  0.2474970E+06 -0.8928557E-01  0.2883944E+06  0.1599216E+01
  0.9166667E+00  0.2296967E+06 -0.1536840E+01  0.2375815E+06 -0.9960878E-01  0.3068793E+06  0.1604800E+01
  0.9476191E+00  0.2432611E+06 -0.1530533E+01  0.2278410E+06 -0.1105374E+00  0.3254712E+06  0.1611103E+01
  0.9785714E+00  0.2568546E+06 -0.1523409E+01  0.2184197E+06 -0.1221566E+00  0.3443522E+06  0.1618244E+01
  0.1009524E+01  0.2701922E+06 -0.1515435E+01  0.2090740E+06 -0.1344436E+00  0.3627759E+06  0.1626243E+01
  0.1040476E+01  0.2833732E+06 -0.1506571E+01  0.1997737E+06 -0.1475220E+00  0.3813745E+06  0.1635158E+01
  0.1071429E+01  0.2961608E+06 -0.1496836E+01  0.1905311E+06 -0.1612826E+00  0.3992877E+06  0.1644951E+01
  0.1102381E+01  0.3086065E+06 -0.1486263E+01  0.1817145E+06 -0.1755853E+00  0.4166066E+06  0.1655579E+01
  0.1133333E+01  0.3205109E+06 -0.1474894E+01  0.1731656E+06 -0.1906225E+00  0.4334718E+06  0.1667018E+01
  0.1164286E+01  0.3317946E+06 -0.1462900E+01  0.1647734E+06 -0.2062943E+00  0.4491274E+06  0.1679027E+01
  0.1195238E+01  0.3424775E+06 -0.1450282E+01  0.1565262E+06 -0.2227809E+00  0.4641858E+06  0.1691690E+01
  0.1226190E+01  0.3521703E+06 -0.1437092E+01  0.1483822E+06 -0.2400789E+00  0.4778889E+06  0.1704984E+01
  0.1257143E+01  0.3606796E+06 -0.1423483E+01  0.1405148E+06 -0.2580366E+00  0.4897201E+06  0.1718690E+01
  0.1288095E+01  0.3683893E+06 -0.1409738E+01  0.1331535E+06 -0.2761144E+00  0.5004719E+06  0.1732554E+01
  0.1319048E+01  0.3745860E+06 -0.1395998E+01  0.1259780E+06 -0.2951410E+00  0.5092078E+06  0.1746449E+01
  0.1350000E+01  0.3793932E+06 -0.1382716E+01  0.1190183E+06 -0.3146609E+00  0.5155528E+06  0.1759786E+01
  0.1380952E+01  0.3829642E+06 -0.1369898E+01  0.1122234E+06 -0.3351799E+00  0.5205461E+06  0.1772762E+01
  0.1411905E+01  0.3847420E+06 -0.1357808E+01  0.1055838E+06 -0.3566136E+00  0.5231475E+06  0.1785089E+01
  0.1442857E+01  0.3852903E+06 -0.1346710E+01  0.9912514E+05 -0.3790091E+00  0.5236364E+06  0.1796393E+01
  0.1473810E+01  0.3845572E+06 -0.1336908E+01  0.9323635E+05 -0.4002606E+00  0.5221071E+06  0.1806308E+01
  0.1504762E+01  0.3824733E+06 -0.1328669E+01  0.8753454E+05 -0.4224833E+00  0.5189113E+06  0.1814754E+01
  0.1535714E+01  0.3790070E+06 -0.1322266E+01  0.8201951E+05 -0.4452705E+00  0.5135192E+06  0.1821318E+01
  0.1566667E+01  0.3742546E+06 -0.1317794E+01  0.7669820E+05 -0.4689691E+00  0.5061994E+06  0.1826004E+01
  0.1597619E+01  0.3685291E+06 -0.1315318E+01  0.7156873E+05 -0.4938666E+00  0.4978523E+06  0.1828898E+01
  0.1628572E+01  0.3617892E+06 -0.1315201E+01  0.6659167E+05 -0.5202043E+00  0.4878792E+06  0.1829348E+01
  0.1659524E+01  0.3542256E+06 -0.1317552E+01  0.6177732E+05 -0.5480250E+00  0.4765688E+06  0.1827217E+01
  0.1690476E+01  0.3459840E+06 -0.1322419E+01  0.5733542E+05 -0.5736237E+00  0.4640620E+06  0.1822394E+01
  0.1721429E+01  0.3371615E+06 -0.1329877E+01  0.5311184E+05 -0.5998283E+00  0.4508412E+06  0.1815118E+01
  0.1752381E+01  0.3277309E+06 -0.1340123E+01  0.4904159E+05 -0.6279650E+00  0.4367638E+06  0.1805084E+01
  0.1783333E+01  0.3178828E+06 -0.1353293E+01  0.4511986E+05 -0.6580942E+00  0.4219136E+06  0.1791819E+01
  0.1814286E+01  0.3077734E+06 -0.1369184E+01  0.4143209E+05 -0.6909462E+00  0.4068049E+06  0.1775943E+01
  0.1845238E+01  0.2974867E+06 -0.1387821E+01  0.3795975E+05 -0.7269957E+00  0.3916438E+06  0.1757632E+01
  0.1876190E+01  0.2870388E+06 -0.1409622E+01  0.3468437E+05 -0.7664166E+00  0.3761812E+06  0.1735957E+01
  0.1907143E+01  0.2765262E+06 -0.1434676E+01  0.3158372E+05 -0.8097764E+00  0.3605911E+06  0.1710759E+01
  0.1938095E+01  0.2660451E+06 -0.1463003E+01  0.2871583E+05 -0.8546200E+00  0.3449674E+06  0.1681882E+01
  0.1969048E+01  0.2556835E+06 -0.1494813E+01  0.2612095E+05 -0.8998314E+00  0.3294148E+06  0.1648926E+01
  0.2000000E+01  0.2454642E+06 -0.1530102E+01  0.2375019E+05 -0.9503750E+00  0.3142368E+06  0.1612806E+01
