VARIABLES="w (rad/s)"
"abs(F   1   1)" "angle(F   1   1)"
"abs(F   1   2)" "angle(F   1   2)"
"abs(F   1   3)" "angle(F   1   3)"
Zone t="Diffraction force - beta =   0.000 deg",I=    64,F=POINT
  0.5000000E-01  0.1068113E+04 -0.1570794E+01  0.2932899E+03 -0.3086389E+01  0.2022336E+02 -0.1570793E+01
  0.8095238E-01  0.1747500E+04 -0.1570791E+01  0.7593216E+03 -0.3084358E+01  0.3277815E+02 -0.1570789E+01
  0.1119048E+00  0.2435564E+04 -0.1570786E+01  0.1440807E+04 -0.3081892E+01  0.4583636E+02 -0.1570781E+01
  0.1428571E+00  0.3160397E+04 -0.1570778E+01  0.2339114E+04 -0.3078813E+01  0.6010503E+02 -0.1570771E+01
  0.1738095E+00  0.3898275E+04 -0.1570766E+01  0.3458807E+04 -0.3074973E+01  0.7421713E+02 -0.1570756E+01
  0.2047619E+00  0.4692447E+04 -0.1570749E+01  0.4804641E+04 -0.3070175E+01  0.8992256E+02 -0.1570734E+01
  0.2357143E+00  0.5525919E+04 -0.1570724E+01  0.6382677E+04 -0.3064138E+01  0.1071856E+03 -0.1570702E+01
  0.2666667E+00  0.6417577E+04 -0.1570687E+01  0.8200611E+04 -0.3056829E+01  0.1245341E+03 -0.1570655E+01
  0.2976190E+00  0.7405417E+04 -0.1570633E+01  0.1026320E+05 -0.3047630E+01  0.1454653E+03 -0.1570586E+01
  0.3285715E+00  0.8465062E+04 -0.1570552E+01  0.1257727E+05 -0.3036646E+01  0.1685095E+03 -0.1570485E+01
  0.3595238E+00  0.9627184E+04 -0.1570431E+01  0.1514150E+05 -0.3023320E+01  0.1933148E+03 -0.1570331E+01
  0.3904762E+00  0.1093619E+05 -0.1570250E+01  0.1796124E+05 -0.3007559E+01  0.2236610E+03 -0.1570107E+01
  0.4214286E+00  0.1239527E+05 -0.1569986E+01  0.2098781E+05 -0.2989847E+01  0.2595685E+03 -0.1569785E+01
  0.4523810E+00  0.1393367E+05 -0.1569594E+01  0.2424704E+05 -0.2969390E+01  0.2906399E+03 -0.1569283E+01
  0.4833333E+00  0.1566601E+05 -0.1569054E+01  0.2767226E+05 -0.2948688E+01  0.3342772E+03 -0.1568624E+01
  0.5142857E+00  0.1758428E+05 -0.1568309E+01  0.3124988E+05 -0.2926161E+01  0.3825840E+03 -0.1567716E+01
  0.5452381E+00  0.1960372E+05 -0.1567311E+01  0.3495951E+05 -0.2903637E+01  0.4357478E+03 -0.1566510E+01
  0.5761905E+00  0.2168467E+05 -0.1566005E+01  0.3878655E+05 -0.2881557E+01  0.4840102E+03 -0.1564871E+01
  0.6071429E+00  0.2393154E+05 -0.1564327E+01  0.4269747E+05 -0.2858749E+01  0.5426982E+03 -0.1562820E+01
  0.6380953E+00  0.2634407E+05 -0.1562250E+01  0.4671467E+05 -0.2837348E+01  0.6158972E+03 -0.1560388E+01
  0.6690477E+00  0.2886213E+05 -0.1559677E+01  0.5078594E+05 -0.2816060E+01  0.6908121E+03 -0.1557355E+01
  0.7000000E+00  0.3138364E+05 -0.1556489E+01  0.5488587E+05 -0.2794530E+01  0.7573900E+03 -0.1553431E+01
  0.7309524E+00  0.3394311E+05 -0.1552632E+01  0.5905279E+05 -0.2773975E+01  0.8327956E+03 -0.1548782E+01
  0.7619048E+00  0.3667955E+05 -0.1548066E+01  0.6324095E+05 -0.2753792E+01  0.9216021E+03 -0.1543441E+01
  0.7928572E+00  0.3953279E+05 -0.1542688E+01  0.6740836E+05 -0.2733726E+01  0.1013814E+04 -0.1537103E+01
  0.8238096E+00  0.4244254E+05 -0.1536385E+01  0.7154328E+05 -0.2713897E+01  0.1118888E+04 -0.1529906E+01
  0.8547620E+00  0.4539157E+05 -0.1529061E+01  0.7566380E+05 -0.2694696E+01  0.1231086E+04 -0.1521632E+01
  0.8857143E+00  0.4829444E+05 -0.1520564E+01  0.7973805E+05 -0.2676002E+01  0.1326726E+04 -0.1511450E+01
  0.9166667E+00  0.5118033E+05 -0.1510831E+01  0.8375684E+05 -0.2657848E+01  0.1425303E+04 -0.1499809E+01
  0.9476191E+00  0.5413075E+05 -0.1499892E+01  0.8767553E+05 -0.2639921E+01  0.1544298E+04 -0.1487347E+01
  0.9785714E+00  0.5715487E+05 -0.1487721E+01  0.9150325E+05 -0.2622513E+01  0.1680609E+04 -0.1473969E+01
  0.1009524E+01  0.6017280E+05 -0.1474207E+01  0.9522042E+05 -0.2605576E+01  0.1814623E+04 -0.1458835E+01
  0.1040476E+01  0.6311457E+05 -0.1459234E+01  0.9881148E+05 -0.2589085E+01  0.1948636E+04 -0.1442004E+01
  0.1071429E+01  0.6593069E+05 -0.1442710E+01  0.1022658E+06 -0.2573032E+01  0.2082560E+04 -0.1423361E+01
  0.1102381E+01  0.6851780E+05 -0.1424473E+01  0.1055838E+06 -0.2557519E+01  0.2210768E+04 -0.1402537E+01
  0.1133333E+01  0.7091135E+05 -0.1404584E+01  0.1087622E+06 -0.2542646E+01  0.2340669E+04 -0.1380037E+01
  0.1164286E+01  0.7313690E+05 -0.1383273E+01  0.1118018E+06 -0.2528444E+01  0.2465576E+04 -0.1355899E+01
  0.1195238E+01  0.7516025E+05 -0.1360612E+01  0.1146697E+06 -0.2514634E+01  0.2588438E+04 -0.1330506E+01
  0.1226190E+01  0.7693239E+05 -0.1336626E+01  0.1173644E+06 -0.2501308E+01  0.2707006E+04 -0.1303541E+01
  0.1257143E+01  0.7832373E+05 -0.1310941E+01  0.1198983E+06 -0.2488036E+01  0.2821973E+04 -0.1274803E+01
  0.1288095E+01  0.7941655E+05 -0.1284441E+01  0.1221904E+06 -0.2475749E+01  0.2939603E+04 -0.1246019E+01
  0.1319048E+01  0.8008057E+05 -0.1256470E+01  0.1243300E+06 -0.2463852E+01  0.3045015E+04 -0.1215955E+01
  0.1350000E+01  0.8033301E+05 -0.1227637E+01  0.1262776E+06 -0.2452448E+01  0.3126483E+04 -0.1184140E+01
  0.1380952E+01  0.8010676E+05 -0.1197915E+01  0.1280238E+06 -0.2441593E+01  0.3179052E+04 -0.1150458E+01
  0.1411905E+01  0.7893238E+05 -0.1167613E+01  0.1294560E+06 -0.2430737E+01  0.3160102E+04 -0.1111848E+01
  0.1442857E+01  0.7771595E+05 -0.1136436E+01  0.1307892E+06 -0.2420498E+01  0.3185796E+04 -0.1076583E+01
  0.1473810E+01  0.7599059E+05 -0.1104710E+01  0.1319251E+06 -0.2410821E+01  0.3194666E+04 -0.1041667E+01
  0.1504762E+01  0.7377409E+05 -0.1072835E+01  0.1328595E+06 -0.2401682E+01  0.3185610E+04 -0.1007338E+01
  0.1535714E+01  0.7105737E+05 -0.1040815E+01  0.1335852E+06 -0.2393053E+01  0.3145282E+04 -0.9723561E+00
  0.1566667E+01  0.6785080E+05 -0.1008680E+01  0.1340987E+06 -0.2384860E+01  0.3071824E+04 -0.9361762E+00
  0.1597619E+01  0.6415079E+05 -0.9762504E+00  0.1344076E+06 -0.2377060E+01  0.2962500E+04 -0.8976231E+00
  0.1628572E+01  0.6000522E+05 -0.9437774E+00  0.1345096E+06 -0.2369720E+01  0.2830802E+04 -0.8597702E+00
  0.1659524E+01  0.5543879E+05 -0.9111793E+00  0.1344001E+06 -0.2362622E+01  0.2677542E+04 -0.8227583E+00
  0.1690476E+01  0.5048285E+05 -0.8781850E+00  0.1340900E+06 -0.2356057E+01  0.2497847E+04 -0.7859478E+00
  0.1721429E+01  0.4516792E+05 -0.8443928E+00  0.1335812E+06 -0.2349929E+01  0.2290823E+04 -0.7475381E+00
  0.1752381E+01  0.3954948E+05 -0.8094221E+00  0.1328665E+06 -0.2344387E+01  0.2056040E+04 -0.7071931E+00
  0.1783333E+01  0.3366469E+05 -0.7720524E+00  0.1319440E+06 -0.2339372E+01  0.1789193E+04 -0.6606927E+00
  0.1814286E+01  0.2754535E+05 -0.7296172E+00  0.1308202E+06 -0.2334802E+01  0.1492826E+04 -0.6059362E+00
  0.1845238E+01  0.2123466E+05 -0.6766150E+00  0.1295118E+06 -0.2330632E+01  0.1165563E+04 -0.5299009E+00
  0.1876190E+01  0.1479477E+05 -0.5978218E+00  0.1280127E+06 -0.2326941E+01  0.8231935E+03 -0.4122165E+00
  0.1907143E+01  0.8355030E+04 -0.4309838E+00  0.1263252E+06 -0.2323533E+01  0.4816548E+03 -0.1583536E+00
  0.1938095E+01  0.2942573E+04  0.4210809E+00  0.1244566E+06 -0.2320635E+01  0.2421253E+03  0.8013148E+00
  0.1969048E+01  0.6233616E+04  0.1974404E+01  0.1224121E+06 -0.2318343E+01  0.4490930E+03  0.1948436E+01
  0.2000000E+01  0.1272756E+05  0.2227118E+01  0.1201879E+06 -0.2316731E+01  0.8401541E+03  0.2245566E+01
