VARIABLES="w (rad/s)"
"abs(F   1   1)" "angle(F   1   1)"
"abs(F   1   2)" "angle(F   1   2)"
"abs(F   1   3)" "angle(F   1   3)"
Zone t="Diffraction force - beta =   0.000 deg",I=    64,F=POINT
  0.5000000E-01  0.1420015E+04 -0.1570811E+01  0.1492564E+06 -0.1056478E-04  0.1950210E+04  0.1570788E+01
  0.8095238E-01  0.2321586E+04 -0.1570800E+01  0.1490562E+06 -0.2843113E-04  0.3189345E+04  0.1570793E+01
  0.1119048E+00  0.3246585E+04 -0.1570794E+01  0.1487616E+06 -0.5649702E-04  0.4454902E+04  0.1570809E+01
  0.1428571E+00  0.4198748E+04 -0.1570797E+01  0.1483728E+06 -0.9696593E-04  0.5757360E+04  0.1570799E+01
  0.1738095E+00  0.5193875E+04 -0.1570786E+01  0.1478893E+06 -0.1531745E-03  0.7111950E+04  0.1570794E+01
  0.2047619E+00  0.6237658E+04 -0.1570784E+01  0.1473103E+06 -0.2299179E-03  0.8533320E+04  0.1570801E+01
  0.2357143E+00  0.7348043E+04 -0.1570780E+01  0.1466356E+06 -0.3343646E-03  0.1004002E+05  0.1570804E+01
  0.2666667E+00  0.8544178E+04 -0.1570781E+01  0.1458643E+06 -0.4752898E-03  0.1165362E+05  0.1570814E+01
  0.2976190E+00  0.9836456E+04 -0.1570768E+01  0.1449961E+06 -0.6674649E-03  0.1339622E+05  0.1570825E+01
  0.3285715E+00  0.1124788E+05 -0.1570756E+01  0.1440307E+06 -0.9263535E-03  0.1529341E+05  0.1570837E+01
  0.3595238E+00  0.1280990E+05 -0.1570735E+01  0.1429697E+06 -0.1276106E-02  0.1737083E+05  0.1570857E+01
  0.3904762E+00  0.1452256E+05 -0.1570704E+01  0.1418124E+06 -0.1744322E-02  0.1965607E+05  0.1570889E+01
  0.4214286E+00  0.1641947E+05 -0.1570659E+01  0.1405636E+06 -0.2350100E-02  0.2217701E+05  0.1570935E+01
  0.4523810E+00  0.1851029E+05 -0.1570590E+01  0.1392258E+06 -0.3140929E-02  0.2492886E+05  0.1571003E+01
  0.4833333E+00  0.2080496E+05 -0.1570498E+01  0.1378056E+06 -0.4100419E-02  0.2792607E+05  0.1571096E+01
  0.5142857E+00  0.2327266E+05 -0.1570367E+01  0.1363049E+06 -0.5284478E-02  0.3115521E+05  0.1571226E+01
  0.5452381E+00  0.2591542E+05 -0.1570191E+01  0.1347268E+06 -0.6681327E-02  0.3459234E+05  0.1571403E+01
  0.5761905E+00  0.2873616E+05 -0.1569961E+01  0.1330795E+06 -0.8299490E-02  0.3821788E+05  0.1571632E+01
  0.6071429E+00  0.3171031E+05 -0.1569663E+01  0.1313663E+06 -0.1018759E-01  0.4201712E+05  0.1571928E+01
  0.6380953E+00  0.3481017E+05 -0.1569289E+01  0.1295810E+06 -0.1231087E-01  0.4595041E+05  0.1572304E+01
  0.6690477E+00  0.3802836E+05 -0.1568820E+01  0.1277349E+06 -0.1471852E-01  0.5002443E+05  0.1572771E+01
  0.7000000E+00  0.4137280E+05 -0.1568239E+01  0.1258341E+06 -0.1744367E-01  0.5421255E+05  0.1573354E+01
  0.7309524E+00  0.4484136E+05 -0.1567531E+01  0.1238783E+06 -0.2047554E-01  0.5848576E+05  0.1574062E+01
  0.7619048E+00  0.4843796E+05 -0.1566676E+01  0.1218730E+06 -0.2384713E-01  0.6288149E+05  0.1574917E+01
  0.7928572E+00  0.5209947E+05 -0.1565649E+01  0.1198245E+06 -0.2758293E-01  0.6732750E+05  0.1575943E+01
  0.8238096E+00  0.5586121E+05 -0.1564430E+01  0.1177323E+06 -0.3169692E-01  0.7185502E+05  0.1577162E+01
  0.8547620E+00  0.5971720E+05 -0.1562993E+01  0.1156008E+06 -0.3620415E-01  0.7643980E+05  0.1578599E+01
  0.8857143E+00  0.6366951E+05 -0.1561313E+01  0.1134410E+06 -0.4112385E-01  0.8108031E+05  0.1580276E+01
  0.9166667E+00  0.6770322E+05 -0.1559363E+01  0.1112573E+06 -0.4647208E-01  0.8573801E+05  0.1582226E+01
  0.9476191E+00  0.7182808E+05 -0.1557115E+01  0.1090531E+06 -0.5226218E-01  0.9043518E+05  0.1584473E+01
  0.9785714E+00  0.7602031E+05 -0.1554538E+01  0.1068257E+06 -0.5850989E-01  0.9514699E+05  0.1587049E+01
  0.1009524E+01  0.8027598E+05 -0.1551604E+01  0.1045820E+06 -0.6523000E-01  0.9987419E+05  0.1589980E+01
  0.1040476E+01  0.8454132E+05 -0.1548282E+01  0.1023290E+06 -0.7244110E-01  0.1045589E+06  0.1593300E+01
  0.1071429E+01  0.8887528E+05 -0.1544544E+01  0.1000663E+06 -0.8015431E-01  0.1092544E+06  0.1597035E+01
  0.1102381E+01  0.9323262E+05 -0.1540364E+01  0.9780234E+05 -0.8839267E-01  0.1138667E+06  0.1601211E+01
  0.1133333E+01  0.9765626E+05 -0.1535714E+01  0.9553921E+05 -0.9716441E-01  0.1184294E+06  0.1605854E+01
  0.1164286E+01  0.1021172E+06 -0.1530566E+01  0.9328098E+05 -0.1064810E+00  0.1229501E+06  0.1610997E+01
  0.1195238E+01  0.1065424E+06 -0.1524891E+01  0.9103423E+05 -0.1163601E+00  0.1273515E+06  0.1616664E+01
  0.1226190E+01  0.1109729E+06 -0.1518668E+01  0.8878868E+05 -0.1268193E+00  0.1316827E+06  0.1622877E+01
  0.1257143E+01  0.1152910E+06 -0.1511907E+01  0.8655849E+05 -0.1379871E+00  0.1358038E+06  0.1629626E+01
  0.1288095E+01  0.1197023E+06 -0.1504535E+01  0.8432952E+05 -0.1495558E+00  0.1398910E+06  0.1636984E+01
  0.1319048E+01  0.1239822E+06 -0.1496612E+01  0.8211780E+05 -0.1618760E+00  0.1437459E+06  0.1644887E+01
  0.1350000E+01  0.1281787E+06 -0.1488105E+01  0.7992459E+05 -0.1748561E+00  0.1474518E+06  0.1653373E+01
  0.1380952E+01  0.1322339E+06 -0.1479040E+01  0.7775677E+05 -0.1885234E+00  0.1508547E+06  0.1662409E+01
  0.1411905E+01  0.1358170E+06 -0.1469942E+01  0.7561645E+05 -0.2030287E+00  0.1538433E+06  0.1671477E+01
  0.1442857E+01  0.1396522E+06 -0.1459868E+01  0.7349782E+05 -0.2181574E+00  0.1567827E+06  0.1681515E+01
  0.1473810E+01  0.1432901E+06 -0.1449299E+01  0.7140621E+05 -0.2340492E+00  0.1594009E+06  0.1692041E+01
  0.1504762E+01  0.1467582E+06 -0.1438275E+01  0.6933745E+05 -0.2507288E+00  0.1617518E+06  0.1703017E+01
  0.1535714E+01  0.1500150E+06 -0.1426863E+01  0.6729137E+05 -0.2682637E+00  0.1637834E+06  0.1714368E+01
  0.1566667E+01  0.1530062E+06 -0.1415092E+01  0.6527346E+05 -0.2866985E+00  0.1654993E+06  0.1726074E+01
  0.1597619E+01  0.1556547E+06 -0.1403094E+01  0.6329186E+05 -0.3060600E+00  0.1667300E+06  0.1737979E+01
  0.1628572E+01  0.1580655E+06 -0.1390899E+01  0.6133019E+05 -0.3264410E+00  0.1676849E+06  0.1750077E+01
  0.1659524E+01  0.1601831E+06 -0.1378657E+01  0.5939957E+05 -0.3478816E+00  0.1682578E+06  0.1762199E+01
  0.1690476E+01  0.1619054E+06 -0.1366474E+01  0.5750867E+05 -0.3704758E+00  0.1683456E+06  0.1774241E+01
  0.1721429E+01  0.1633382E+06 -0.1354463E+01  0.5564667E+05 -0.3943261E+00  0.1680806E+06  0.1786104E+01
  0.1752381E+01  0.1644390E+06 -0.1342769E+01  0.5382402E+05 -0.4195050E+00  0.1673980E+06  0.1797625E+01
  0.1783333E+01  0.1652169E+06 -0.1331438E+01  0.5204718E+05 -0.4461061E+00  0.1663698E+06  0.1808771E+01
  0.1814286E+01  0.1656491E+06 -0.1320588E+01  0.5031455E+05 -0.4742050E+00  0.1649841E+06  0.1819433E+01
  0.1845238E+01  0.1656860E+06 -0.1310388E+01  0.4863808E+05 -0.5038236E+00  0.1631462E+06  0.1829388E+01
  0.1876190E+01  0.1654487E+06 -0.1300822E+01  0.4699838E+05 -0.5352598E+00  0.1610820E+06  0.1838727E+01
  0.1907143E+01  0.1649144E+06 -0.1292086E+01  0.4540952E+05 -0.5685275E+00  0.1587283E+06  0.1847200E+01
  0.1938095E+01  0.1640256E+06 -0.1284304E+01  0.4387695E+05 -0.6038257E+00  0.1560319E+06  0.1854687E+01
  0.1969048E+01  0.1628592E+06 -0.1277554E+01  0.4240025E+05 -0.6413751E+00  0.1530919E+06  0.1861125E+01
  0.2000000E+01  0.1614412E+06 -0.1271930E+01  0.4098701E+05 -0.6813666E+00  0.1499401E+06  0.1866424E+01
