VARIABLES="w (rad/s)"
"abs(F   1   1)" "angle(F   1   1)"
"abs(F   1   2)" "angle(F   1   2)"
"abs(F   1   3)" "angle(F   1   3)"
Zone t="Diffraction force - beta =   0.000 deg",I=    64,F=POINT
  0.5000000E-01  0.2595661E+04 -0.1570794E+01  0.2667086E+03 -0.3083107E+01  0.3762658E+04  0.1570798E+01
  0.8095238E-01  0.4248094E+04 -0.1570791E+01  0.6896099E+03 -0.3080878E+01  0.6151610E+04  0.1570800E+01
  0.1119048E+00  0.5930090E+04 -0.1570785E+01  0.1308093E+04 -0.3078250E+01  0.8574296E+04  0.1570804E+01
  0.1428571E+00  0.7663603E+04 -0.1570777E+01  0.2124177E+04 -0.3075005E+01  0.1105923E+05  0.1570811E+01
  0.1738095E+00  0.9464839E+04 -0.1570764E+01  0.3141776E+04 -0.3070963E+01  0.1364264E+05  0.1570819E+01
  0.2047619E+00  0.1135618E+05 -0.1570746E+01  0.4367591E+04 -0.3065948E+01  0.1633510E+05  0.1570833E+01
  0.2357143E+00  0.1336339E+05 -0.1570720E+01  0.5803345E+04 -0.3059583E+01  0.1917673E+05  0.1570852E+01
  0.2666667E+00  0.1550875E+05 -0.1570682E+01  0.7465332E+04 -0.3051978E+01  0.2220639E+05  0.1570879E+01
  0.2976190E+00  0.1781996E+05 -0.1570625E+01  0.9350496E+04 -0.3042350E+01  0.2544887E+05  0.1570921E+01
  0.3285715E+00  0.2035442E+05 -0.1570541E+01  0.1147160E+05 -0.3030900E+01  0.2896273E+05  0.1570981E+01
  0.3595238E+00  0.2311185E+05 -0.1570414E+01  0.1382623E+05 -0.3017011E+01  0.3279339E+05  0.1571072E+01
  0.3904762E+00  0.2614396E+05 -0.1570226E+01  0.1643361E+05 -0.3000727E+01  0.3695733E+05  0.1571207E+01
  0.4214286E+00  0.2950901E+05 -0.1569952E+01  0.1922898E+05 -0.2982351E+01  0.4150279E+05  0.1571404E+01
  0.4523810E+00  0.3319143E+05 -0.1569549E+01  0.2225600E+05 -0.2961240E+01  0.4644418E+05  0.1571692E+01
  0.4833333E+00  0.3715546E+05 -0.1568992E+01  0.2544869E+05 -0.2939962E+01  0.5182685E+05  0.1572088E+01
  0.5142857E+00  0.4145955E+05 -0.1568221E+01  0.2880321E+05 -0.2916920E+01  0.5751870E+05  0.1572635E+01
  0.5452381E+00  0.4609262E+05 -0.1567199E+01  0.3229554E+05 -0.2893999E+01  0.6352060E+05  0.1573359E+01
  0.5761905E+00  0.5094208E+05 -0.1565872E+01  0.3589915E+05 -0.2871513E+01  0.6979868E+05  0.1574294E+01
  0.6071429E+00  0.5598591E+05 -0.1564162E+01  0.3962215E+05 -0.2848634E+01  0.7632355E+05  0.1575493E+01
  0.6380953E+00  0.6124620E+05 -0.1562041E+01  0.4346998E+05 -0.2827301E+01  0.8297168E+05  0.1576974E+01
  0.6690477E+00  0.6672415E+05 -0.1559424E+01  0.4737589E+05 -0.2806086E+01  0.8971985E+05  0.1578794E+01
  0.7000000E+00  0.7234982E+05 -0.1556221E+01  0.5134104E+05 -0.2784853E+01  0.9651142E+05  0.1581012E+01
  0.7309524E+00  0.7811770E+05 -0.1552379E+01  0.5539116E+05 -0.2764740E+01  0.1034367E+06  0.1583654E+01
  0.7619048E+00  0.8392118E+05 -0.1547792E+01  0.5948730E+05 -0.2745163E+01  0.1103984E+06  0.1586783E+01
  0.7928572E+00  0.8982405E+05 -0.1542389E+01  0.6361543E+05 -0.2726026E+01  0.1172519E+06  0.1590447E+01
  0.8238096E+00  0.9586162E+05 -0.1536106E+01  0.6775402E+05 -0.2707373E+01  0.1239727E+06  0.1594687E+01
  0.8547620E+00  0.1019051E+06 -0.1528845E+01  0.7188116E+05 -0.2689235E+01  0.1305905E+06  0.1599542E+01
  0.8857143E+00  0.1079806E+06 -0.1520539E+01  0.7600094E+05 -0.2671834E+01  0.1371119E+06  0.1605050E+01
  0.9166667E+00  0.1139764E+06 -0.1511101E+01  0.8010346E+05 -0.2655204E+01  0.1434174E+06  0.1611237E+01
  0.9476191E+00  0.1198717E+06 -0.1500484E+01  0.8417365E+05 -0.2639341E+01  0.1495246E+06  0.1618113E+01
  0.9785714E+00  0.1256082E+06 -0.1488635E+01  0.8819893E+05 -0.2624173E+01  0.1553652E+06  0.1625679E+01
  0.1009524E+01  0.1311444E+06 -0.1475547E+01  0.9215862E+05 -0.2609613E+01  0.1607206E+06  0.1633920E+01
  0.1040476E+01  0.1364860E+06 -0.1461236E+01  0.9604198E+05 -0.2595713E+01  0.1656567E+06  0.1642790E+01
  0.1071429E+01  0.1415164E+06 -0.1445679E+01  0.9983779E+05 -0.2582525E+01  0.1700975E+06  0.1652242E+01
  0.1102381E+01  0.1461955E+06 -0.1428920E+01  0.1035521E+06 -0.2570224E+01  0.1740553E+06  0.1662189E+01
  0.1133333E+01  0.1503689E+06 -0.1410933E+01  0.1071609E+06 -0.2558662E+01  0.1775129E+06  0.1672551E+01
  0.1164286E+01  0.1539836E+06 -0.1391815E+01  0.1106820E+06 -0.2548067E+01  0.1803938E+06  0.1683190E+01
  0.1195238E+01  0.1570069E+06 -0.1371712E+01  0.1141077E+06 -0.2538461E+01  0.1827047E+06  0.1693933E+01
  0.1226190E+01  0.1593068E+06 -0.1350729E+01  0.1174517E+06 -0.2529800E+01  0.1842614E+06  0.1704601E+01
  0.1257143E+01  0.1608322E+06 -0.1328961E+01  0.1207047E+06 -0.2521624E+01  0.1850344E+06  0.1715034E+01
  0.1288095E+01  0.1616979E+06 -0.1307116E+01  0.1238111E+06 -0.2514782E+01  0.1851955E+06  0.1724794E+01
  0.1319048E+01  0.1616232E+06 -0.1284778E+01  0.1267907E+06 -0.2508105E+01  0.1845328E+06  0.1733899E+01
  0.1350000E+01  0.1607525E+06 -0.1262466E+01  0.1296638E+06 -0.2502358E+01  0.1833195E+06  0.1742019E+01
  0.1380952E+01  0.1590216E+06 -0.1240430E+01  0.1324253E+06 -0.2497692E+01  0.1814399E+06  0.1748871E+01
  0.1411905E+01  0.1558499E+06 -0.1219701E+01  0.1348378E+06 -0.2494351E+01  0.1789904E+06  0.1753482E+01
  0.1442857E+01  0.1523703E+06 -0.1198935E+01  0.1374166E+06 -0.2491412E+01  0.1759675E+06  0.1757121E+01
  0.1473810E+01  0.1480690E+06 -0.1179291E+01  0.1399136E+06 -0.2489257E+01  0.1725415E+06  0.1758853E+01
  0.1504762E+01  0.1429365E+06 -0.1160954E+01  0.1423278E+06 -0.2487648E+01  0.1687887E+06  0.1758560E+01
  0.1535714E+01  0.1369835E+06 -0.1144309E+01  0.1446418E+06 -0.2486549E+01  0.1646127E+06  0.1755948E+01
  0.1566667E+01  0.1303881E+06 -0.1129917E+01  0.1469217E+06 -0.2486220E+01  0.1603508E+06  0.1751080E+01
  0.1597619E+01  0.1231198E+06 -0.1118150E+01  0.1491487E+06 -0.2486302E+01  0.1558873E+06  0.1743765E+01
  0.1628572E+01  0.1152585E+06 -0.1109506E+01  0.1513293E+06 -0.2486747E+01  0.1513643E+06  0.1734071E+01
  0.1659524E+01  0.1069044E+06 -0.1104853E+01  0.1534865E+06 -0.2487480E+01  0.1468667E+06  0.1722110E+01
  0.1690476E+01  0.9811863E+05 -0.1105205E+01  0.1556128E+06 -0.2488459E+01  0.1423875E+06  0.1707826E+01
  0.1721429E+01  0.8901760E+05 -0.1111582E+01  0.1577203E+06 -0.2488915E+01  0.1381634E+06  0.1691970E+01
  0.1752381E+01  0.7959441E+05 -0.1126065E+01  0.1597545E+06 -0.2488786E+01  0.1339565E+06  0.1674084E+01
  0.1783333E+01  0.7004677E+05 -0.1151628E+01  0.1617530E+06 -0.2488108E+01  0.1300196E+06  0.1655081E+01
  0.1814286E+01  0.6049046E+05 -0.1193304E+01  0.1637002E+06 -0.2486758E+01  0.1262994E+06  0.1635049E+01
  0.1845238E+01  0.5104441E+05 -0.1258990E+01  0.1655022E+06 -0.2484279E+01  0.1227687E+06  0.1614393E+01
  0.1876190E+01  0.4198376E+05 -0.1362718E+01  0.1670890E+06 -0.2480368E+01  0.1194793E+06  0.1593634E+01
  0.1907143E+01  0.3378596E+05 -0.1529701E+01  0.1684510E+06 -0.2475282E+01  0.1164068E+06  0.1573232E+01
  0.1938095E+01  0.2731302E+05 -0.1798383E+01  0.1695237E+06 -0.2469079E+01  0.1134386E+06  0.1553038E+01
  0.1969048E+01  0.2408614E+05 -0.2184851E+01  0.1701943E+06 -0.2461266E+01  0.1106776E+06  0.1534123E+01
  0.2000000E+01  0.2529281E+05 -0.2602731E+01  0.1703486E+06 -0.2452272E+01  0.1081065E+06  0.1516971E+01
