VARIABLES="w (rad/s)"
"abs(F   1   1)" "angle(F   1   1)"
"abs(F   1   2)" "angle(F   1   2)"
"abs(F   1   3)" "angle(F   1   3)"
Zone t="Diffraction force - beta =   0.000 deg",I=    64,F=POINT
  0.5000000E-01  0.6317575E+03 -0.1570795E+01  0.1906661E+03 -0.3091840E+01  0.2217239E+02 -0.1570789E+01
  0.8095238E-01  0.1033602E+04 -0.1570794E+01  0.4949028E+03 -0.3090092E+01  0.3174597E+02 -0.1570774E+01
  0.1119048E+00  0.1444380E+04 -0.1570791E+01  0.9404464E+03 -0.3087871E+01  0.4707970E+02 -0.1570755E+01
  0.1428571E+00  0.1864864E+04 -0.1570787E+01  0.1530033E+04 -0.3085121E+01  0.5914194E+02 -0.1570722E+01
  0.1738095E+00  0.2307116E+04 -0.1570781E+01  0.2264137E+04 -0.3081567E+01  0.8003953E+02 -0.1570683E+01
  0.2047619E+00  0.2766254E+04 -0.1570773E+01  0.3151438E+04 -0.3077198E+01  0.9483286E+02 -0.1570614E+01
  0.2357143E+00  0.3258621E+04 -0.1570760E+01  0.4191439E+04 -0.3071611E+01  0.1226782E+03 -0.1570541E+01
  0.2666667E+00  0.3784646E+04 -0.1570742E+01  0.5391779E+04 -0.3064803E+01  0.1471328E+03 -0.1570419E+01
  0.2976190E+00  0.4346092E+04 -0.1570714E+01  0.6761782E+04 -0.3056295E+01  0.1698254E+03 -0.1570229E+01
  0.3285715E+00  0.4968057E+04 -0.1570674E+01  0.8303249E+04 -0.3046055E+01  0.2155675E+03 -0.1570024E+01
  0.3595238E+00  0.5651828E+04 -0.1570613E+01  0.1001203E+05 -0.3033538E+01  0.2634560E+03 -0.1569708E+01
  0.3904762E+00  0.6387958E+04 -0.1570522E+01  0.1191055E+05 -0.3018785E+01  0.2973494E+03 -0.1569144E+01
  0.4214286E+00  0.7204932E+04 -0.1570388E+01  0.1396294E+05 -0.3002162E+01  0.3558723E+03 -0.1568450E+01
  0.4523810E+00  0.8121792E+04 -0.1570192E+01  0.1618336E+05 -0.2982883E+01  0.4552947E+03 -0.1567685E+01
  0.4833333E+00  0.9104175E+04 -0.1569920E+01  0.1853357E+05 -0.2963161E+01  0.5308287E+03 -0.1566398E+01
  0.5142857E+00  0.1015143E+05 -0.1569540E+01  0.2103359E+05 -0.2941940E+01  0.6137475E+03 -0.1564640E+01
  0.5452381E+00  0.1127878E+05 -0.1569033E+01  0.2365460E+05 -0.2920610E+01  0.7340166E+03 -0.1562635E+01
  0.5761905E+00  0.1247510E+05 -0.1568375E+01  0.2636173E+05 -0.2899248E+01  0.8685490E+03 -0.1560144E+01
  0.6071429E+00  0.1372962E+05 -0.1567524E+01  0.2917621E+05 -0.2877380E+01  0.1012060E+04 -0.1556979E+01
  0.6380953E+00  0.1501325E+05 -0.1566457E+01  0.3212288E+05 -0.2856852E+01  0.1142677E+04 -0.1552785E+01
  0.6690477E+00  0.1632987E+05 -0.1565129E+01  0.3514774E+05 -0.2836307E+01  0.1306219E+04 -0.1548030E+01
  0.7000000E+00  0.1770565E+05 -0.1563501E+01  0.3823369E+05 -0.2815429E+01  0.1517050E+04 -0.1542920E+01
  0.7309524E+00  0.1912595E+05 -0.1561541E+01  0.4138907E+05 -0.2795075E+01  0.1742234E+04 -0.1536914E+01
  0.7619048E+00  0.2055830E+05 -0.1559183E+01  0.4461288E+05 -0.2775062E+01  0.1961765E+04 -0.1529489E+01
  0.7928572E+00  0.2199796E+05 -0.1556378E+01  0.4790230E+05 -0.2755421E+01  0.2179093E+04 -0.1520523E+01
  0.8238096E+00  0.2344990E+05 -0.1553081E+01  0.5124581E+05 -0.2736186E+01  0.2435311E+04 -0.1510760E+01
  0.8547620E+00  0.2491566E+05 -0.1549248E+01  0.5461305E+05 -0.2717175E+01  0.2711700E+04 -0.1499790E+01
  0.8857143E+00  0.2639315E+05 -0.1544832E+01  0.5798362E+05 -0.2698304E+01  0.3028823E+04 -0.1488034E+01
  0.9166667E+00  0.2787936E+05 -0.1539788E+01  0.6135921E+05 -0.2679753E+01  0.3363052E+04 -0.1474889E+01
  0.9476191E+00  0.2935302E+05 -0.1534061E+01  0.6473991E+05 -0.2661697E+01  0.3705146E+04 -0.1460035E+01
  0.9785714E+00  0.3078646E+05 -0.1527585E+01  0.6812273E+05 -0.2644235E+01  0.4018492E+04 -0.1442344E+01
  0.1009524E+01  0.3215936E+05 -0.1520306E+01  0.7149672E+05 -0.2627306E+01  0.4343088E+04 -0.1422806E+01
  0.1040476E+01  0.3349945E+05 -0.1512242E+01  0.7484957E+05 -0.2610866E+01  0.4682936E+04 -0.1401640E+01
  0.1071429E+01  0.3478339E+05 -0.1503362E+01  0.7816116E+05 -0.2594763E+01  0.5058329E+04 -0.1379599E+01
  0.1102381E+01  0.3601739E+05 -0.1493683E+01  0.8142362E+05 -0.2579013E+01  0.5449764E+04 -0.1356194E+01
  0.1133333E+01  0.3717659E+05 -0.1483176E+01  0.8461939E+05 -0.2563528E+01  0.5815003E+04 -0.1329961E+01
  0.1164286E+01  0.3822025E+05 -0.1471790E+01  0.8775223E+05 -0.2548463E+01  0.6171388E+04 -0.1301441E+01
  0.1195238E+01  0.3916176E+05 -0.1459584E+01  0.9082866E+05 -0.2534119E+01  0.6490648E+04 -0.1269540E+01
  0.1226190E+01  0.3995516E+05 -0.1446506E+01  0.9384316E+05 -0.2520479E+01  0.6778784E+04 -0.1234332E+01
  0.1257143E+01  0.4058423E+05 -0.1432490E+01  0.9682880E+05 -0.2507277E+01  0.7019791E+04 -0.1194831E+01
  0.1288095E+01  0.4107018E+05 -0.1418029E+01  0.9965006E+05 -0.2495080E+01  0.7242356E+04 -0.1153474E+01
  0.1319048E+01  0.4135554E+05 -0.1402740E+01  0.1024203E+06 -0.2483009E+01  0.7398546E+04 -0.1106801E+01
  0.1350000E+01  0.4144584E+05 -0.1386889E+01  0.1050892E+06 -0.2471320E+01  0.7521545E+04 -0.1056872E+01
  0.1380952E+01  0.4135068E+05 -0.1370665E+01  0.1076551E+06 -0.2460229E+01  0.7581922E+04 -0.1001670E+01
  0.1411905E+01  0.4060564E+05 -0.1355632E+01  0.1089835E+06 -0.2446844E+01  0.7255906E+04 -0.9223874E+00
  0.1442857E+01  0.4009229E+05 -0.1338861E+01  0.1112993E+06 -0.2436379E+01  0.7211324E+04 -0.8524279E+00
  0.1473810E+01  0.3934693E+05 -0.1322055E+01  0.1134946E+06 -0.2426377E+01  0.7103462E+04 -0.7734402E+00
  0.1504762E+01  0.3836695E+05 -0.1305363E+01  0.1155705E+06 -0.2416834E+01  0.6923875E+04 -0.6814105E+00
  0.1535714E+01  0.3713713E+05 -0.1288948E+01  0.1175210E+06 -0.2407701E+01  0.6699835E+04 -0.5755892E+00
  0.1566667E+01  0.3566698E+05 -0.1273098E+01  0.1193430E+06 -0.2399072E+01  0.6436689E+04 -0.4501646E+00
  0.1597619E+01  0.3396040E+05 -0.1258177E+01  0.1210302E+06 -0.2390949E+01  0.6165320E+04 -0.3004443E+00
  0.1628572E+01  0.3200645E+05 -0.1244373E+01  0.1225787E+06 -0.2383174E+01  0.5933450E+04 -0.1218111E+00
  0.1659524E+01  0.2982146E+05 -0.1232263E+01  0.1239850E+06 -0.2375893E+01  0.5805302E+04  0.8880547E-01
  0.1690476E+01  0.2740902E+05 -0.1222521E+01  0.1252426E+06 -0.2368979E+01  0.5861092E+04  0.3235207E+00
  0.1721429E+01  0.2478740E+05 -0.1216147E+01  0.1263544E+06 -0.2362442E+01  0.6174710E+04  0.5690584E+00
  0.1752381E+01  0.2196842E+05 -0.1214503E+01  0.1273220E+06 -0.2356241E+01  0.6799762E+04  0.8060710E+00
  0.1783333E+01  0.1895922E+05 -0.1220008E+01  0.1281340E+06 -0.2350285E+01  0.7728940E+04  0.1015856E+01
  0.1814286E+01  0.1579936E+05 -0.1237629E+01  0.1287905E+06 -0.2344815E+01  0.8948211E+04  0.1194974E+01
  0.1845238E+01  0.1251457E+05 -0.1277267E+01  0.1292837E+06 -0.2339809E+01  0.1041351E+05  0.1343819E+01
  0.1876190E+01  0.9159397E+04 -0.1363299E+01  0.1296105E+06 -0.2335170E+01  0.1210187E+05  0.1467557E+01
  0.1907143E+01  0.5902480E+04 -0.1575195E+01  0.1297610E+06 -0.2331060E+01  0.1398950E+05  0.1571032E+01
  0.1938095E+01  0.3515366E+04 -0.2213889E+01  0.1297364E+06 -0.2327433E+01  0.1605025E+05  0.1658548E+01
  0.1969048E+01  0.4360116E+04  0.3075577E+01  0.1295435E+06 -0.2324179E+01  0.1824733E+05  0.1733734E+01
  0.2000000E+01  0.7534519E+04  0.2676409E+01  0.1291963E+06 -0.2321247E+01  0.2058229E+05  0.1799119E+01
