VARIABLES="w (rad/s)"
"abs(F   1   1)" "angle(F   1   1)"
"abs(F   1   2)" "angle(F   1   2)"
"abs(F   1   3)" "angle(F   1   3)"
Zone t="Diffraction force - beta =   0.000 deg",I=    64,F=POINT
  0.5000000E-01  0.4189355E+04 -0.1570786E+01  0.5027944E+06 -0.3663404E-04  0.1067990E+04  0.1570799E+01
  0.8095238E-01  0.6838820E+04 -0.1570799E+01  0.5017250E+06 -0.9853116E-04  0.1745204E+04  0.1570850E+01
  0.1119048E+00  0.9538402E+04 -0.1570784E+01  0.5001553E+06 -0.1955898E-03  0.2429605E+04  0.1570790E+01
  0.1428571E+00  0.1232956E+05 -0.1570792E+01  0.4980855E+06 -0.3352196E-03  0.3104677E+04  0.1570772E+01
  0.1738095E+00  0.1522496E+05 -0.1570783E+01  0.4955082E+06 -0.5285441E-03  0.3809700E+04  0.1570801E+01
  0.2047619E+00  0.1827688E+05 -0.1570771E+01  0.4924219E+06 -0.7916860E-03  0.4502763E+04  0.1570814E+01
  0.2357143E+00  0.2150412E+05 -0.1570760E+01  0.4888186E+06 -0.1148439E-02  0.5239098E+04  0.1570821E+01
  0.2666667E+00  0.2496070E+05 -0.1570741E+01  0.4846924E+06 -0.1627497E-02  0.5986231E+04  0.1570850E+01
  0.2976190E+00  0.2871027E+05 -0.1570714E+01  0.4800432E+06 -0.2278067E-02  0.6733754E+04  0.1570867E+01
  0.3285715E+00  0.3277976E+05 -0.1570673E+01  0.4748592E+06 -0.3149140E-02  0.7548044E+04  0.1570926E+01
  0.3595238E+00  0.3723240E+05 -0.1570615E+01  0.4691582E+06 -0.4319839E-02  0.8393613E+04  0.1570975E+01
  0.3904762E+00  0.4215681E+05 -0.1570522E+01  0.4629379E+06 -0.5877293E-02  0.9219889E+04  0.1571073E+01
  0.4214286E+00  0.4758015E+05 -0.1570390E+01  0.4562613E+06 -0.7876721E-02  0.1008693E+05  0.1571192E+01
  0.4523810E+00  0.5349004E+05 -0.1570201E+01  0.4491071E+06 -0.1047102E-01  0.1102238E+05  0.1571380E+01
  0.4833333E+00  0.5993366E+05 -0.1569939E+01  0.4415775E+06 -0.1358777E-01  0.1191824E+05  0.1571648E+01
  0.5142857E+00  0.6689387E+05 -0.1569574E+01  0.4337041E+06 -0.1740820E-01  0.1275078E+05  0.1572010E+01
  0.5452381E+00  0.7430700E+05 -0.1569094E+01  0.4254807E+06 -0.2186915E-01  0.1355368E+05  0.1572498E+01
  0.5761905E+00  0.8207858E+05 -0.1568472E+01  0.4169634E+06 -0.2698279E-01  0.1435565E+05  0.1573112E+01
  0.6071429E+00  0.9021972E+05 -0.1567676E+01  0.4082130E+06 -0.3290171E-01  0.1500410E+05  0.1573910E+01
  0.6380953E+00  0.9870364E+05 -0.1566696E+01  0.3991940E+06 -0.3948227E-01  0.1544011E+05  0.1574879E+01
  0.6690477E+00  0.1074521E+06 -0.1565489E+01  0.3899752E+06 -0.4686575E-01  0.1574350E+05  0.1576076E+01
  0.7000000E+00  0.1164030E+06 -0.1564024E+01  0.3805801E+06 -0.5513765E-01  0.1595852E+05  0.1577529E+01
  0.7309524E+00  0.1255125E+06 -0.1562279E+01  0.3709868E+06 -0.6423540E-01  0.1598135E+05  0.1579242E+01
  0.7619048E+00  0.1348004E+06 -0.1560221E+01  0.3612892E+06 -0.7425421E-01  0.1574806E+05  0.1581259E+01
  0.7928572E+00  0.1442248E+06 -0.1557820E+01  0.3515326E+06 -0.8524648E-01  0.1522469E+05  0.1583604E+01
  0.8238096E+00  0.1537491E+06 -0.1555052E+01  0.3416937E+06 -0.9723460E-01  0.1440558E+05  0.1586278E+01
  0.8547620E+00  0.1633011E+06 -0.1551895E+01  0.3317712E+06 -0.1102285E+00  0.1336925E+05  0.1589267E+01
  0.8857143E+00  0.1727924E+06 -0.1548328E+01  0.3218168E+06 -0.1242676E+00  0.1216118E+05  0.1592539E+01
  0.9166667E+00  0.1822056E+06 -0.1544350E+01  0.3118439E+06 -0.1393933E+00  0.1068913E+05  0.1596043E+01
  0.9476191E+00  0.1914961E+06 -0.1539971E+01  0.3019168E+06 -0.1556589E+00  0.8841399E+04  0.1599653E+01
  0.9785714E+00  0.2006447E+06 -0.1535206E+01  0.2920363E+06 -0.1730821E+00  0.6640037E+04  0.1602911E+01
  0.1009524E+01  0.2095730E+06 -0.1530080E+01  0.2822138E+06 -0.1917129E+00  0.4168275E+04  0.1604257E+01
  0.1040476E+01  0.2181503E+06 -0.1524627E+01  0.2724488E+06 -0.2115852E+00  0.1352323E+04  0.1586867E+01
  0.1071429E+01  0.2263795E+06 -0.1518907E+01  0.2627273E+06 -0.2327155E+00  0.1665697E+04 -0.1485827E+01
  0.1102381E+01  0.2341102E+06 -0.1512982E+01  0.2530605E+06 -0.2551727E+00  0.4903765E+04 -0.1497694E+01
  0.1133333E+01  0.2412992E+06 -0.1506959E+01  0.2434632E+06 -0.2790319E+00  0.8379842E+04 -0.1494943E+01
  0.1164286E+01  0.2479136E+06 -0.1500947E+01  0.2339556E+06 -0.3044155E+00  0.1199625E+05 -0.1490086E+01
  0.1195238E+01  0.2538152E+06 -0.1495086E+01  0.2245830E+06 -0.3314355E+00  0.1591194E+05 -0.1484656E+01
  0.1226190E+01  0.2590702E+06 -0.1489531E+01  0.2153005E+06 -0.3601597E+00  0.1994681E+05 -0.1479265E+01
  0.1257143E+01  0.2635317E+06 -0.1484360E+01  0.2061675E+06 -0.3909769E+00  0.2412649E+05 -0.1474008E+01
  0.1288095E+01  0.2672392E+06 -0.1479957E+01  0.1970728E+06 -0.4234707E+00  0.2839980E+05 -0.1469420E+01
  0.1319048E+01  0.2701222E+06 -0.1476302E+01  0.1881231E+06 -0.4584224E+00  0.3273441E+05 -0.1465453E+01
  0.1350000E+01  0.2721832E+06 -0.1473614E+01  0.1793152E+06 -0.4959625E+00  0.3697314E+05 -0.1462512E+01
  0.1380952E+01  0.2733820E+06 -0.1472095E+01  0.1706603E+06 -0.5363466E+00  0.4121430E+05 -0.1460713E+01
  0.1411905E+01  0.2737619E+06 -0.1471990E+01  0.1621524E+06 -0.5773126E+00  0.4526720E+05 -0.1460532E+01
  0.1442857E+01  0.2734208E+06 -0.1473251E+01  0.1537908E+06 -0.6245673E+00  0.4929600E+05 -0.1461693E+01
  0.1473810E+01  0.2723393E+06 -0.1476174E+01  0.1456572E+06 -0.6763169E+00  0.5313014E+05 -0.1464672E+01
  0.1504762E+01  0.2705369E+06 -0.1480941E+01  0.1377740E+06 -0.7331755E+00  0.5680093E+05 -0.1469575E+01
  0.1535714E+01  0.2681063E+06 -0.1487655E+01  0.1302330E+06 -0.7959623E+00  0.6020754E+05 -0.1476735E+01
  0.1566667E+01  0.2650785E+06 -0.1496437E+01  0.1231091E+06 -0.8654819E+00  0.6335399E+05 -0.1486260E+01
  0.1597619E+01  0.2615167E+06 -0.1507394E+01  0.1165071E+06 -0.9424426E+00  0.6623574E+05 -0.1498308E+01
  0.1628572E+01  0.2575196E+06 -0.1520635E+01  0.1105147E+06 -0.1028114E+01  0.6882591E+05 -0.1513008E+01
  0.1659524E+01  0.2531172E+06 -0.1536226E+01  0.1053264E+06 -0.1122611E+01  0.7113956E+05 -0.1530510E+01
  0.1690476E+01  0.2483943E+06 -0.1554213E+01  0.1011153E+06 -0.1225292E+01  0.7316339E+05 -0.1550992E+01
  0.1721429E+01  0.2434167E+06 -0.1574674E+01  0.9800528E+05 -0.1335495E+01  0.7490774E+05 -0.1574720E+01
  0.1752381E+01  0.2382280E+06 -0.1597685E+01  0.9613059E+05 -0.1450531E+01  0.7645207E+05 -0.1601387E+01
  0.1783333E+01  0.2329280E+06 -0.1623162E+01  0.9565062E+05 -0.1566475E+01  0.7770124E+05 -0.1631679E+01
  0.1814286E+01  0.2275283E+06 -0.1651162E+01  0.9647375E+05 -0.1679164E+01  0.7873624E+05 -0.1665365E+01
  0.1845238E+01  0.2221011E+06 -0.1681650E+01  0.9846795E+05 -0.1785376E+01  0.7955056E+05 -0.1702807E+01
  0.1876190E+01  0.2166885E+06 -0.1714673E+01  0.1014402E+06 -0.1883052E+01  0.8020099E+05 -0.1743683E+01
  0.1907143E+01  0.2113090E+06 -0.1750215E+01  0.1051280E+06 -0.1970368E+01  0.8073354E+05 -0.1788035E+01
  0.1938095E+01  0.2060245E+06 -0.1788061E+01  0.1091972E+06 -0.2045832E+01  0.8109045E+05 -0.1836637E+01
  0.1969048E+01  0.2008536E+06 -0.1828299E+01  0.1134144E+06 -0.2111735E+01  0.8137341E+05 -0.1888872E+01
  0.2000000E+01  0.1958161E+06 -0.1870943E+01  0.1175589E+06 -0.2169137E+01  0.8164727E+05 -0.1944695E+01
