VARIABLES="w (rad/s)"
"A   1   1" "B   1   1"
"A   1   2" "B   1   2"
"A   1   3" "B   1   3"
Zone t="Motion of body    1 in DoF   1",I=    64,F=POINT
  0.5000000E-01  0.6581101E+05  0.7189099E-02 -0.3852844E-02 -0.4610883E-05 -0.2859943E+05  0.4000959E-02
  0.8095238E-01  0.6572955E+05  0.3153132E-01  0.2450382E-02  0.2060342E-04 -0.2889832E+05  0.1760601E-01
  0.1119048E+00  0.6586991E+05  0.8852878E-01 -0.5113318E-02 -0.6906723E-04 -0.2890722E+05  0.4912996E-01
  0.1428571E+00  0.6580270E+05  0.1994398E+00  0.1415253E-02  0.2110261E-04 -0.2883618E+05  0.1104191E+00
  0.1738095E+00  0.6628053E+05  0.3983030E+00 -0.2545918E-02 -0.2520671E-04 -0.2914310E+05  0.2181067E+00
  0.2047619E+00  0.6624582E+05  0.7354462E+00  0.4396660E-02  0.1635738E-03 -0.2894347E+05  0.4002707E+00
  0.2357143E+00  0.6652648E+05  0.1298026E+01 -0.3884055E-03 -0.1375582E-03 -0.2917063E+05  0.6992228E+00
  0.2666667E+00  0.6681702E+05  0.2220256E+01 -0.6294250E-03 -0.1117587E-03 -0.2914381E+05  0.1183266E+01
  0.2976190E+00  0.6679480E+05  0.3728436E+01  0.2922363E-02  0.2001338E-03 -0.2897719E+05  0.1968738E+01
  0.3285715E+00  0.6728350E+05  0.6193176E+01  0.2182670E-02  0.7431209E-04 -0.2920586E+05  0.3215883E+01
  0.3595238E+00  0.6768981E+05  0.1020445E+02 -0.1061042E-02 -0.1054555E-03 -0.2925376E+05  0.5214549E+01
  0.3904762E+00  0.6796522E+05  0.1668855E+02  0.4376667E-02  0.4622191E-03 -0.2907675E+05  0.8403145E+01
  0.4214286E+00  0.6808124E+05  0.2690806E+02  0.1194841E-02 -0.4631281E-04 -0.2902240E+05  0.1332831E+02
  0.4523810E+00  0.6883258E+05  0.4313636E+02  0.5599172E-02  0.3803968E-03 -0.2922615E+05  0.2088665E+02
  0.4833333E+00  0.6943177E+05  0.6742062E+02  0.5240605E-02  0.7916689E-03 -0.2932475E+05  0.3187911E+02
  0.5142857E+00  0.6966702E+05  0.1034595E+03 -0.2788968E-02 -0.1040459E-02 -0.2907453E+05  0.4798017E+02
  0.5452381E+00  0.7019240E+05  0.1551857E+03  0.1623162E-02 -0.4529953E-05 -0.2917703E+05  0.7020009E+02
  0.5761905E+00  0.7104669E+05  0.2276219E+03 -0.1247311E-01 -0.2494335E-02 -0.2941929E+05  0.9989637E+02
  0.6071429E+00  0.7186175E+05  0.3276831E+03 -0.6534351E-03  0.6814003E-03 -0.2936795E+05  0.1397169E+03
  0.6380953E+00  0.7251059E+05  0.4610100E+03 -0.5308692E-02 -0.2363682E-02 -0.2933837E+05  0.1907312E+03
  0.6690477E+00  0.7295956E+05  0.6367893E+03 -0.1550858E-02 -0.7686615E-03 -0.2918762E+05  0.2557234E+03
  0.7000000E+00  0.7399198E+05  0.8679545E+03 -0.3008161E-02 -0.1656532E-02 -0.2944405E+05  0.3361747E+03
  0.7309524E+00  0.7520359E+05  0.1165507E+04 -0.5218803E-02 -0.1815796E-02 -0.2973799E+05  0.4332335E+03
  0.7619048E+00  0.7625076E+05  0.1543556E+04  0.7610320E-02  0.6530762E-02 -0.2981856E+05  0.5499829E+03
  0.7928572E+00  0.7715112E+05  0.2018237E+04  0.2694344E-02  0.3322601E-02 -0.2975816E+05  0.6889623E+03
  0.8238096E+00  0.7813294E+05  0.2608798E+04 -0.2222667E-02  0.2025604E-02 -0.2968375E+05  0.8528932E+03
  0.8547620E+00  0.7911269E+05  0.3333608E+04  0.1135356E-01  0.7572174E-02 -0.2992505E+05  0.1037529E+04
  0.8857143E+00  0.8049389E+05  0.4217544E+04  0.2274052E-02  0.4943848E-02 -0.3035946E+05  0.1245241E+04
  0.9166667E+00  0.8184409E+05  0.5285327E+04  0.5792791E-02  0.7247925E-02 -0.3068752E+05  0.1469823E+04
  0.9476191E+00  0.8325419E+05  0.6566011E+04  0.6440896E-04  0.3105164E-02 -0.3090653E+05  0.1715038E+04
  0.9785714E+00  0.8453053E+05  0.8085227E+04 -0.3368072E-02 -0.6645203E-02 -0.3134519E+05  0.1961903E+04
  0.1009524E+01  0.8560140E+05  0.9865127E+04  0.6952826E-02  0.7637024E-02 -0.3165383E+05  0.2215686E+04
  0.1040476E+01  0.8653335E+05  0.1193160E+05  0.1877145E-02  0.8544922E-03 -0.3200103E+05  0.2463619E+04
  0.1071429E+01  0.8747216E+05  0.1430714E+05 -0.1139323E-03 -0.8941650E-02 -0.3236304E+05  0.2714994E+04
  0.1102381E+01  0.8866061E+05  0.1700926E+05  0.1494900E-02  0.1220703E-02 -0.3307107E+05  0.2955640E+04
  0.1133333E+01  0.8963523E+05  0.2006140E+05 -0.3177418E-02 -0.7781982E-02 -0.3388821E+05  0.3113939E+04
  0.1164286E+01  0.9035662E+05  0.2347341E+05 -0.3984135E-02 -0.2929688E-02 -0.3462528E+05  0.3206535E+04
  0.1195238E+01  0.9081591E+05  0.2724804E+05  0.1889415E-02  0.9765625E-03 -0.3536921E+05  0.3186351E+04
  0.1226190E+01  0.9105423E+05  0.3137231E+05  0.1095077E-02  0.5645752E-02 -0.3608458E+05  0.3084627E+04
  0.1257143E+01  0.9108944E+05  0.3581305E+05  0.2815940E-02  0.3936768E-02 -0.3674941E+05  0.2935778E+04
  0.1288095E+01  0.9111131E+05  0.4054310E+05 -0.2274434E-02 -0.4028320E-02 -0.3789077E+05  0.2561610E+04
  0.1319048E+01  0.9061748E+05  0.4553490E+05 -0.1017987E-02 -0.7049561E-02 -0.3884221E+05  0.1998632E+04
  0.1350000E+01  0.8979409E+05  0.5074004E+05 -0.3571687E-02 -0.6347656E-02 -0.3970962E+05  0.1251153E+04
  0.1380952E+01  0.8863931E+05  0.5609727E+05  0.1060749E-02 -0.6713867E-03 -0.4055912E+05  0.2485327E+03
  0.1411905E+01  0.8702745E+05  0.6147668E+05  0.5014558E-02  0.6286621E-02 -0.4120703E+05 -0.7922454E+03
  0.1442857E+01  0.8544759E+05  0.6690102E+05  0.4230159E-04  0.1220703E-03 -0.4185517E+05 -0.1970553E+04
  0.1473810E+01  0.8362102E+05  0.7231659E+05  0.4555451E-03 -0.1721191E-01 -0.4263256E+05 -0.3531300E+04
  0.1504762E+01  0.8145583E+05  0.7760348E+05  0.4421186E-02 -0.1898193E-01 -0.4331408E+05 -0.5313408E+04
  0.1535714E+01  0.7906285E+05  0.8269342E+05 -0.8743641E-03 -0.6774902E-02 -0.4383088E+05 -0.7249627E+04
  0.1566667E+01  0.7653372E+05  0.8753552E+05  0.1363551E-03 -0.1129150E-01 -0.4423456E+05 -0.9303488E+04
  0.1597619E+01  0.7381494E+05  0.9210982E+05 -0.1489949E-02  0.6774902E-02 -0.4450924E+05 -0.1163743E+05
  0.1628572E+01  0.7103894E+05  0.9638567E+05  0.8245099E-03 -0.6469727E-02 -0.4464617E+05 -0.1399949E+05
  0.1659524E+01  0.6828433E+05  0.1003427E+06 -0.5884594E-03 -0.4577637E-02 -0.4465462E+05 -0.1625650E+05
  0.1690476E+01  0.6555909E+05  0.1039861E+06 -0.8665273E-03 -0.2563477E-02 -0.4465170E+05 -0.1861547E+05
  0.1721429E+01  0.6280247E+05  0.1073426E+06 -0.1684165E-02  0.2075195E-02 -0.4466936E+05 -0.2139385E+05
  0.1752381E+01  0.5998917E+05  0.1103084E+06  0.1628295E-02  0.8728027E-02 -0.4445099E+05 -0.2414767E+05
  0.1783333E+01  0.5725527E+05  0.1129510E+06 -0.1565808E-02 -0.4333496E-02 -0.4415635E+05 -0.2690743E+05
  0.1814286E+01  0.5458512E+05  0.1152826E+06  0.5214421E-03  0.4943848E-02 -0.4373082E+05 -0.2970661E+05
  0.1845238E+01  0.5194412E+05  0.1172975E+06  0.1364431E-02  0.4394531E-02 -0.4315798E+05 -0.3261506E+05
  0.1876190E+01  0.4943458E+05  0.1190951E+06  0.9108800E-03 -0.3540039E-02 -0.4256136E+05 -0.3537551E+05
  0.1907143E+01  0.4710248E+05  0.1207229E+06 -0.1342145E-02  0.6103516E-04 -0.4198762E+05 -0.3789654E+05
  0.1938095E+01  0.4487819E+05  0.1221058E+06  0.3883399E-02  0.9765625E-03 -0.4131626E+05 -0.4037495E+05
  0.1969048E+01  0.4275952E+05  0.1234192E+06  0.2808888E-02  0.5371094E-02 -0.4070059E+05 -0.4337229E+05
  0.2000000E+01  0.4063193E+05  0.1245818E+06  0.3057480E-02 -0.4882812E-02 -0.3995921E+05 -0.4636209E+05
Zone t="Motion of body    1 in DoF   2",I=    64,F=POINT
  0.5000000E-01 -0.1525879E-03  0.1287460E-04  0.1821414E+06  0.4040547E+03  0.4882812E-02  0.4005432E-04
  0.8095238E-01  0.2921609E-02  0.3623962E-04  0.1811080E+06  0.6693941E+03 -0.8670582E-02  0.4768372E-04
  0.1119048E+00  0.5863271E-02  0.2956390E-04  0.1799562E+06  0.9574616E+03 -0.1799888E-01  0.2021790E-03
  0.1428571E+00  0.6408691E-03 -0.1525879E-04  0.1793805E+06  0.1278626E+04  0.1580811E-01  0.9536743E-04
  0.1738095E+00 -0.9656932E-03  0.2861023E-04  0.1789651E+06  0.1646124E+04 -0.7023223E-03 -0.2365112E-03
  0.2047619E+00 -0.4620219E-02  0.5340576E-04  0.1789781E+06  0.2076482E+04 -0.1073083E-01 -0.1678467E-03
  0.2357143E+00 -0.1294685E-03 -0.3433228E-04  0.1793155E+06  0.2592367E+04  0.2071496E-02 -0.2288818E-03
  0.2666667E+00  0.5149841E-03 -0.1144409E-04  0.1795209E+06  0.3212643E+04 -0.5035400E-02  0.3814697E-03
  0.2976190E+00 -0.8203125E-03 -0.6866455E-04  0.1801725E+06  0.3979955E+04  0.2542969E-01  0.9765625E-03
  0.3285715E+00 -0.1207434E-02  0.7629395E-05  0.1805048E+06  0.4915692E+04 -0.5201256E-02  0.6103516E-04
  0.3595238E+00 -0.2376733E-02  0.2822876E-03  0.1810956E+06  0.6068476E+04  0.5432533E-02  0.1220703E-03
  0.3904762E+00  0.5627143E-02  0.2441406E-03  0.1813809E+06  0.7475429E+04  0.3001143E-01  0.1373291E-02
  0.4214286E+00  0.1665535E-02 -0.2288818E-03  0.1814159E+06  0.9111433E+04 -0.3475900E-02  0.2441406E-03
  0.4523810E+00  0.4047594E-03  0.2746582E-03  0.1811882E+06  0.1106165E+05 -0.7555509E-02  0.6103516E-04
  0.4833333E+00 -0.4798626E-02  0.4119873E-03  0.1804380E+06  0.1314702E+05 -0.6061422E-02 -0.1220703E-03
  0.5142857E+00 -0.8426243E-02  0.1098633E-02  0.1795238E+06  0.1546598E+05 -0.5221897E-02  0.1037598E-02
  0.5452381E+00  0.6604590E-02  0.7476807E-03  0.1779129E+06  0.1788733E+05 -0.2507506E-01 -0.2014160E-02
  0.5761905E+00 -0.3813436E-02  0.1220703E-02  0.1762987E+06  0.2034550E+05  0.5932011E-02  0.2441406E-03
  0.6071429E+00  0.1306870E-02 -0.8544922E-03  0.1742144E+06  0.2291712E+05 -0.4021139E-03  0.1586914E-02
  0.6380953E+00 -0.5452170E-02  0.5493164E-03  0.1720194E+06  0.2541624E+05 -0.1147825E-01  0.2685547E-02
  0.6690477E+00 -0.1824538E-02 -0.2471924E-02  0.1698453E+06  0.2790258E+05  0.1605594E-01  0.5615234E-02
  0.7000000E+00  0.1482282E-02  0.1464844E-02  0.1672770E+06  0.3040654E+05 -0.6626674E-02 -0.2685547E-02
  0.7309524E+00 -0.4091542E-02  0.5798340E-03  0.1646439E+06  0.3281863E+05 -0.9352096E-02  0.6347656E-02
  0.7619048E+00  0.2723694E-02 -0.6103516E-03  0.1620903E+06  0.3514417E+05 -0.4486084E-02  0.2563477E-02
  0.7928572E+00  0.2232457E-02 -0.3173828E-02  0.1595558E+06  0.3737407E+05 -0.6774352E-02  0.8544922E-03
  0.8238096E+00 -0.1481778E-02 -0.1464844E-02  0.1566257E+06  0.3952693E+05  0.4148979E-02  0.2441406E-03
  0.8547620E+00 -0.1213902E-02 -0.2563477E-02  0.1538758E+06  0.4153826E+05 -0.9711220E-02  0.4150391E-02
  0.8857143E+00  0.2411873E-02 -0.1159668E-02  0.1512294E+06  0.4338087E+05 -0.8820564E-02  0.6347656E-02
  0.9166667E+00  0.7990057E-03 -0.4272461E-03  0.1487042E+06  0.4504924E+05 -0.1704546E-01 -0.1025391E-01
  0.9476191E+00 -0.2125496E-02  0.2258301E-02  0.1458477E+06  0.4659837E+05  0.1133598E-01 -0.5615234E-02
  0.9785714E+00 -0.1621664E-02 -0.1098633E-02  0.1432114E+06  0.4797098E+05 -0.5488709E-02  0.7080078E-02
  0.1009524E+01  0.3869399E-02 -0.3662109E-02  0.1407452E+06  0.4912788E+05 -0.2418374E-02  0.1098633E-01
  0.1040476E+01  0.1349198E-02  0.3479004E-02  0.1384852E+06  0.5005859E+05 -0.1595573E-01  0.5371094E-02
  0.1071429E+01  0.9114583E-03 -0.1281738E-02  0.1360206E+06  0.5086032E+05 -0.1822917E-02 -0.2441406E-02
  0.1102381E+01 -0.1439533E-02 -0.2319336E-02  0.1336139E+06  0.5148932E+05  0.0000000E+00 -0.8056641E-02
  0.1133333E+01  0.2962000E-03  0.4882812E-03  0.1314278E+06  0.5192512E+05 -0.8616728E-02  0.8300781E-02
  0.1164286E+01 -0.8911881E-03 -0.1342773E-02  0.1294538E+06  0.5214173E+05  0.9226418E-02  0.2050781E-01
  0.1195238E+01  0.1863882E-02 -0.4394531E-02  0.1276799E+06  0.5214155E+05  0.2042611E-02 -0.1635742E-01
  0.1226190E+01 -0.5599828E-02  0.8178711E-02  0.1258943E+06  0.5201744E+05 -0.1871587E-01  0.1367188E-01
  0.1257143E+01  0.1238043E-02  0.1464844E-02  0.1240724E+06  0.5180392E+05  0.2330433E-02  0.4882812E-03
  0.1288095E+01 -0.8766048E-03 -0.1025391E-01  0.1224219E+06  0.5135279E+05 -0.7202374E-02  0.9765625E-03
  0.1319048E+01  0.1226212E-02  0.8056641E-02  0.1210079E+06  0.5078747E+05 -0.5182480E-02 -0.9521484E-02
  0.1350000E+01  0.4967583E-02  0.3540039E-02  0.1197764E+06  0.5003953E+05 -0.8680555E-02 -0.1074219E-01
  0.1380952E+01 -0.3812067E-03  0.4150391E-02  0.1187703E+06  0.4912955E+05 -0.2828664E-02  0.2026367E-01
  0.1411905E+01  0.5403618E-03  0.7080078E-02  0.1177222E+06  0.4811599E+05  0.3112484E-02  0.1147461E-01
  0.1442857E+01  0.1234678E-02 -0.1708984E-02  0.1166160E+06  0.4703754E+05 -0.9813970E-02  0.9765625E-02
  0.1473810E+01  0.1273456E-02  0.1220703E-02  0.1156697E+06  0.4587352E+05  0.7951332E-02  0.1367188E-01
  0.1504762E+01 -0.2580715E-02  0.4272461E-02  0.1149236E+06  0.4465427E+05  0.3244907E-03 -0.1782227E-01
  0.1535714E+01  0.1649369E-02  0.9887695E-02  0.1143358E+06  0.4334843E+05  0.6041061E-02  0.2148438E-01
  0.1566667E+01  0.1334332E-02 -0.1586914E-02  0.1139181E+06  0.4195322E+05 -0.1527177E-01 -0.4638672E-02
  0.1597619E+01 -0.1127013E-02 -0.5493164E-02  0.1136663E+06  0.4053249E+05 -0.6112612E-03  0.3588867E-01
  0.1628572E+01 -0.4459850E-02 -0.2807617E-02  0.1133347E+06  0.3905780E+05 -0.7495545E-02  0.4394531E-02
  0.1659524E+01  0.2574510E-03 -0.1403809E-01  0.1129330E+06  0.3747052E+05 -0.5296135E-02  0.5004883E-02
  0.1690476E+01  0.1047054E-02  0.6103516E-03  0.1126399E+06  0.3589394E+05 -0.8087588E-02 -0.1831055E-02
  0.1721429E+01 -0.6027538E-03  0.1049805E-01  0.1125002E+06  0.3439665E+05  0.1219690E-01  0.8544922E-02
  0.1752381E+01 -0.6791820E-03 -0.6713867E-02  0.1124538E+06  0.3289702E+05 -0.2284838E-01  0.2185059E-01
  0.1783333E+01 -0.5989432E-03  0.6591797E-02  0.1125109E+06  0.3138782E+05 -0.5749854E-02 -0.9887695E-02
  0.1814286E+01  0.3195936E-03  0.4882812E-03  0.1126608E+06  0.2986293E+05 -0.1130352E-01 -0.6225586E-02
  0.1845238E+01  0.1290008E-02  0.3112793E-02  0.1128874E+06  0.2841042E+05 -0.5027722E-02  0.4882812E-03
  0.1876190E+01 -0.1724166E-02 -0.1318359E-01  0.1130583E+06  0.2696128E+05 -0.2082011E-02  0.6591797E-02
  0.1907143E+01  0.1792193E-02  0.5493164E-02  0.1131718E+06  0.2543778E+05  0.4096442E-02  0.7812500E-02
  0.1938095E+01 -0.2015510E-02 -0.2014160E-02  0.1133409E+06  0.2390280E+05 -0.1813959E-01  0.1293945E-01
  0.1969048E+01 -0.2541779E-02  0.3662109E-03  0.1135723E+06  0.2254575E+05 -0.3719676E-02  0.1501465E-01
  0.2000000E+01  0.3967285E-03 -0.4333496E-02  0.1138520E+06  0.2128642E+05 -0.9765625E-03  0.8056641E-02
Zone t="Motion of body    1 in DoF   3",I=    64,F=POINT
  0.5000000E-01 -0.2885160E+05  0.4087486E-02  0.2502441E-01  0.7853430E-04  0.4042713E+06  0.2278510E-02
  0.8095238E-01 -0.2833160E+05  0.1822163E-01 -0.3769818E-02 -0.4073005E-04  0.4106279E+06  0.1014952E-01
  0.1119048E+00 -0.2835134E+05  0.5108249E-01 -0.2058963E-01  0.4259369E-04  0.4105188E+06  0.2875994E-01
  0.1428571E+00 -0.2811701E+05  0.1145042E+00 -0.2136230E-03 -0.8192379E-05  0.4108418E+06  0.6350873E-01
  0.1738095E+00 -0.2873572E+05  0.2268058E+00  0.2264990E-01  0.4601395E-03  0.4104261E+06  0.1240767E+00
  0.2047619E+00 -0.2845607E+05  0.4154692E+00 -0.2682708E-01 -0.5401978E-03  0.4098960E+06  0.2258570E+00
  0.2357143E+00 -0.2858644E+05  0.7276639E+00  0.5567146E-02  0.2863687E-03  0.4111724E+06  0.3902541E+00
  0.2666667E+00 -0.2877484E+05  0.1233013E+01 -0.1533508E-01 -0.1682024E-03  0.4100728E+06  0.6545045E+00
  0.2976190E+00 -0.2829049E+05  0.2046872E+01  0.4183594E-01  0.1109131E-02  0.4110019E+06  0.1078736E+01
  0.3285715E+00 -0.2877612E+05  0.3356804E+01 -0.3808063E-01 -0.1036368E-02  0.4100613E+06  0.1737005E+01
  0.3595238E+00 -0.2874804E+05  0.5451663E+01  0.3310450E-01  0.1312286E-02  0.4110776E+06  0.2777515E+01
  0.3904762E+00 -0.2869011E+05  0.8776142E+01  0.3141822E-01  0.1873218E-02  0.4097243E+06  0.4419290E+01
  0.4214286E+00 -0.2837202E+05  0.1390459E+02 -0.1303462E-01 -0.5445182E-03  0.4102891E+06  0.6874198E+01
  0.4523810E+00 -0.2878156E+05  0.2189083E+02 -0.2077765E-01 -0.1228362E-02  0.4100179E+06  0.1058234E+02
  0.4833333E+00 -0.2899454E+05  0.3350982E+02 -0.4546067E-01 -0.3447145E-02  0.4101053E+06  0.1584276E+02
  0.5142857E+00 -0.2841445E+05  0.5027776E+02  0.2278646E-01  0.3183722E-02  0.4107543E+06  0.2334007E+02
  0.5452381E+00 -0.2863124E+05  0.7375735E+02 -0.4253804E-02 -0.1727700E-02  0.4096743E+06  0.3331546E+02
  0.5761905E+00 -0.2886973E+05  0.1054788E+03  0.2775334E-01  0.3660798E-02  0.4108381E+06  0.4615872E+02
  0.6071429E+00 -0.2887909E+05  0.1477646E+03  0.2493106E-01  0.4541874E-02  0.4103710E+06  0.6320516E+02
  0.6380953E+00 -0.2887408E+05  0.2020032E+03 -0.1339130E-01 -0.1368284E-02  0.4098831E+06  0.8394144E+02
  0.6690477E+00 -0.2834904E+05  0.2701520E+03  0.3138206E-01  0.9678602E-02  0.4107025E+06  0.1089473E+03
  0.7000000E+00 -0.2868027E+05  0.3574438E+03  0.2162388E-01  0.1202393E-01  0.4105918E+06  0.1375198E+03
  0.7309524E+00 -0.2921603E+05  0.4645372E+03 -0.7515077E-02  0.1411438E-03  0.4102514E+06  0.1715176E+03
  0.7619048E+00 -0.2919870E+05  0.5915162E+03  0.1874542E-01  0.8155346E-02  0.4108915E+06  0.2114383E+03
  0.7928572E+00 -0.2889764E+05  0.7403737E+03  0.1385663E-01  0.1018524E-02  0.4115161E+06  0.2556113E+03
  0.8238096E+00 -0.2886125E+05  0.9174324E+03 -0.1629956E-01 -0.5673409E-02  0.4098522E+06  0.3043411E+03
  0.8547620E+00 -0.2898664E+05  0.1122598E+04 -0.2856241E-02 -0.1199722E-02  0.4101382E+06  0.3515572E+03
  0.8857143E+00 -0.2936960E+05  0.1360729E+04 -0.6615423E-02 -0.1478195E-02  0.4111809E+06  0.3903171E+03
  0.9166667E+00 -0.2964024E+05  0.1619684E+04 -0.1970881E-01 -0.4854202E-02  0.4118517E+06  0.4397599E+03
  0.9476191E+00 -0.3003169E+05  0.1904843E+04  0.2524831E-01  0.4310608E-02  0.4103556E+06  0.4955555E+03
  0.9785714E+00 -0.3044944E+05  0.2201873E+04 -0.2133112E-01 -0.1245499E-01  0.4105292E+06  0.5498884E+03
  0.1009524E+01 -0.3054687E+05  0.2497268E+04  0.1438933E-01  0.4489899E-02  0.4109371E+06  0.5996382E+03
  0.1040476E+01 -0.3056120E+05  0.2781909E+04 -0.2334699E-01  0.3620148E-02  0.4119028E+06  0.6309014E+03
  0.1071429E+01 -0.3083035E+05  0.3088960E+04 -0.7975261E-02  0.2021790E-03  0.4110230E+06  0.6332424E+03
  0.1102381E+01 -0.3169984E+05  0.3430356E+04 -0.2768333E-01 -0.7743835E-02  0.4101889E+06  0.5614847E+03
  0.1133333E+01 -0.3252706E+05  0.3706415E+04  0.1464844E-01  0.4227066E-01  0.4105592E+06  0.5455117E+03
  0.1164286E+01 -0.3317059E+05  0.3892978E+04  0.1971098E-01  0.1506424E-01  0.4110782E+06  0.5138349E+03
  0.1195238E+01 -0.3371545E+05  0.3952241E+04  0.6944877E-02 -0.2059937E-02  0.4120693E+06  0.5080984E+03
  0.1226190E+01 -0.3433350E+05  0.3949885E+04  0.3982100E-03  0.1524353E-01  0.4120204E+06  0.4566647E+03
  0.1257143E+01 -0.3509404E+05  0.3931113E+04 -0.1184637E-01 -0.3116608E-01  0.4107302E+06  0.2924879E+03
  0.1288095E+01 -0.3636048E+05  0.3765620E+04 -0.2122805E-01 -0.1890182E-01  0.4110931E+06  0.1498235E+03
  0.1319048E+01 -0.3729130E+05  0.3381915E+04  0.1850885E-03 -0.2536774E-02  0.4116578E+06  0.1094743E+03
  0.1350000E+01 -0.3807588E+05  0.2765842E+04  0.1645689E-01  0.2022171E-01  0.4123680E+06  0.8563448E+02
  0.1380952E+01 -0.3877810E+05  0.1883341E+04  0.1096107E-01 -0.5586624E-02  0.4135662E+06  0.1696377E+03
  0.1411905E+01 -0.3936561E+05  0.8374478E+03 -0.1902074E-02 -0.3200531E-02  0.4137308E+06  0.6387803E+02
  0.1442857E+01 -0.4018188E+05 -0.1671938E+03 -0.2267365E-01 -0.2550268E-01  0.4127536E+06 -0.1643816E+03
  0.1473810E+01 -0.4109871E+05 -0.1470684E+04  0.2004398E-01 -0.8380890E-02  0.4127302E+06 -0.6564780E+02
  0.1504762E+01 -0.4182284E+05 -0.3018365E+04 -0.8112267E-03  0.3869629E-01  0.4133907E+06  0.1674758E+03
  0.1535714E+01 -0.4235012E+05 -0.4773201E+04  0.1653343E-01  0.8430481E-02  0.4142079E+06  0.5038021E+03
  0.1566667E+01 -0.4273922E+05 -0.6719252E+04 -0.5610040E-02  0.1644135E-01  0.4152066E+06  0.8523825E+03
  0.1597619E+01 -0.4292211E+05 -0.8932021E+04 -0.4737274E-02 -0.3794098E-01  0.4165560E+06  0.1610594E+04
  0.1628572E+01 -0.4307466E+05 -0.1110461E+05 -0.4797149E-02 -0.1213074E-01  0.4169285E+06  0.2116658E+04
  0.1659524E+01 -0.4324434E+05 -0.1318311E+05 -0.1059227E-01 -0.1233673E-01  0.4161485E+06  0.2174713E+04
  0.1690476E+01 -0.4344868E+05 -0.1536542E+05 -0.1213138E-01 -0.1103210E-01  0.4156467E+06  0.2251161E+04
  0.1721429E+01 -0.4364210E+05 -0.1785171E+05  0.1035318E-01  0.2360535E-01  0.4164552E+06  0.3446222E+04
  0.1752381E+01 -0.4349886E+05 -0.2040579E+05 -0.1811152E-01 -0.6103516E-04  0.4171544E+06  0.4729614E+04
  0.1783333E+01 -0.4323568E+05 -0.2305389E+05  0.2601124E-02  0.1138306E-01  0.4179814E+06  0.6114700E+04
  0.1814286E+01 -0.4278031E+05 -0.2581386E+05 -0.9419599E-03 -0.2311707E-01  0.4188468E+06  0.7768802E+04
  0.1845238E+01 -0.4211742E+05 -0.2858690E+05 -0.1428931E-01 -0.1213074E-01  0.4198290E+06  0.9966436E+04
  0.1876190E+01 -0.4153977E+05 -0.3116750E+05 -0.4554400E-02  0.4028320E-02  0.4200818E+06  0.1143999E+05
  0.1907143E+01 -0.4111812E+05 -0.3357953E+05 -0.5376580E-02  0.2792358E-02  0.4193613E+06  0.1168920E+05
  0.1938095E+01 -0.4060040E+05 -0.3589592E+05 -0.2343030E-01 -0.1333618E-01  0.4183513E+06  0.1169003E+05
  0.1969048E+01 -0.4025017E+05 -0.3866082E+05 -0.9919136E-02 -0.5218506E-02  0.4185881E+06  0.1385611E+05
  0.2000000E+01 -0.3962666E+05 -0.4154321E+05 -0.1159668E-01  0.1068115E-01  0.4189578E+06  0.1646288E+05
