VARIABLES="w (rad/s)"
"abs(F   1   1)" "angle(F   1   1)"
"abs(F   1   2)" "angle(F   1   2)"
"abs(F   1   3)" "angle(F   1   3)"
Zone t="Diffraction force - beta =   0.000 deg",I=    64,F=POINT
  0.5000000E-01  0.5847636E+04 -0.1570797E+01  0.6206221E+06 -0.4083424E-04  0.4798705E+04  0.1570803E+01
  0.8095238E-01  0.9536820E+04 -0.1570802E+01  0.6188174E+06 -0.1097316E-03  0.7828845E+04  0.1570818E+01
  0.1119048E+00  0.1332075E+05 -0.1570791E+01  0.6161709E+06 -0.2175458E-03  0.1096432E+05  0.1570807E+01
  0.1428571E+00  0.1720921E+05 -0.1570781E+01  0.6126826E+06 -0.3722421E-03  0.1418315E+05  0.1570817E+01
  0.1738095E+00  0.2129710E+05 -0.1570772E+01  0.6083479E+06 -0.5855861E-03  0.1759763E+05  0.1570810E+01
  0.2047619E+00  0.2558136E+05 -0.1570766E+01  0.6031772E+06 -0.8750317E-03  0.2118863E+05  0.1570827E+01
  0.2357143E+00  0.3016037E+05 -0.1570750E+01  0.5971636E+06 -0.1265780E-02  0.2506558E+05  0.1570848E+01
  0.2666667E+00  0.3509339E+05 -0.1570725E+01  0.5902973E+06 -0.1787415E-02  0.2928164E+05  0.1570870E+01
  0.2976190E+00  0.4041181E+05 -0.1570688E+01  0.5826216E+06 -0.2492941E-02  0.3383381E+05  0.1570904E+01
  0.3285715E+00  0.4626041E+05 -0.1570634E+01  0.5740944E+06 -0.3431264E-02  0.3892670E+05  0.1570959E+01
  0.3595238E+00  0.5274589E+05 -0.1570555E+01  0.5648119E+06 -0.4686141E-02  0.4457709E+05  0.1571034E+01
  0.3904762E+00  0.5985059E+05 -0.1570433E+01  0.5547394E+06 -0.6344251E-02  0.5085088E+05  0.1571161E+01
  0.4214286E+00  0.6767988E+05 -0.1570256E+01  0.5440085E+06 -0.8455436E-02  0.5778731E+05  0.1571338E+01
  0.4523810E+00  0.7646573E+05 -0.1569997E+01  0.5326625E+06 -0.1118801E-01  0.6574296E+05  0.1571600E+01
  0.4833333E+00  0.8601420E+05 -0.1569633E+01  0.5207019E+06 -0.1442722E-01  0.7441562E+05  0.1571957E+01
  0.5142857E+00  0.9632268E+05 -0.1569129E+01  0.5084515E+06 -0.1838192E-01  0.8383132E+05  0.1572464E+01
  0.5452381E+00  0.1073336E+06 -0.1568455E+01  0.4956442E+06 -0.2295426E-01  0.9405926E+05  0.1573136E+01
  0.5761905E+00  0.1192285E+06 -0.1567577E+01  0.4825969E+06 -0.2814464E-01  0.1051150E+06  0.1574017E+01
  0.6071429E+00  0.1318263E+06 -0.1566435E+01  0.4693220E+06 -0.3413580E-01  0.1171425E+06  0.1575157E+01
  0.6380953E+00  0.1448179E+06 -0.1565007E+01  0.4555562E+06 -0.4067200E-01  0.1296297E+06  0.1576587E+01
  0.6690477E+00  0.1582617E+06 -0.1563228E+01  0.4418738E+06 -0.4796080E-01  0.1425129E+06  0.1578367E+01
  0.7000000E+00  0.1725383E+06 -0.1561037E+01  0.4280322E+06 -0.5610133E-01  0.1566889E+06  0.1580553E+01
  0.7309524E+00  0.1872930E+06 -0.1558386E+01  0.4138705E+06 -0.6491922E-01  0.1714297E+06  0.1583202E+01
  0.7619048E+00  0.2024952E+06 -0.1555197E+01  0.3998214E+06 -0.7453889E-01  0.1866222E+06  0.1586393E+01
  0.7928572E+00  0.2181443E+06 -0.1551398E+01  0.3858825E+06 -0.8502052E-01  0.2026355E+06  0.1590197E+01
  0.8238096E+00  0.2338165E+06 -0.1546917E+01  0.3718582E+06 -0.9632174E-01  0.2188341E+06  0.1594689E+01
  0.8547620E+00  0.2498824E+06 -0.1541713E+01  0.3576648E+06 -0.1084548E+00  0.2359205E+06  0.1599882E+01
  0.8857143E+00  0.2664722E+06 -0.1535733E+01  0.3440356E+06 -0.1214635E+00  0.2531606E+06  0.1605839E+01
  0.9166667E+00  0.2834811E+06 -0.1528893E+01  0.3304094E+06 -0.1353978E+00  0.2716164E+06  0.1612668E+01
  0.9476191E+00  0.3003547E+06 -0.1521128E+01  0.3169120E+06 -0.1501883E+00  0.2899663E+06  0.1620438E+01
  0.9785714E+00  0.3171370E+06 -0.1512379E+01  0.3034309E+06 -0.1658648E+00  0.3086844E+06  0.1629213E+01
  0.1009524E+01  0.3336485E+06 -0.1502634E+01  0.2904066E+06 -0.1823924E+00  0.3270392E+06  0.1638995E+01
  0.1040476E+01  0.3498154E+06 -0.1491888E+01  0.2777969E+06 -0.1998239E+00  0.3452991E+06  0.1649799E+01
  0.1071429E+01  0.3656383E+06 -0.1480261E+01  0.2653350E+06 -0.2182914E+00  0.3637762E+06  0.1661409E+01
  0.1102381E+01  0.3808684E+06 -0.1467821E+01  0.2530248E+06 -0.2376871E+00  0.3815362E+06  0.1673780E+01
  0.1133333E+01  0.3954054E+06 -0.1454558E+01  0.2408494E+06 -0.2581176E+00  0.3992653E+06  0.1687056E+01
  0.1164286E+01  0.4089018E+06 -0.1440632E+01  0.2292849E+06 -0.2793211E+00  0.4154556E+06  0.1700961E+01
  0.1195238E+01  0.4212538E+06 -0.1426157E+01  0.2182142E+06 -0.3013531E+00  0.4305226E+06  0.1715488E+01
  0.1226190E+01  0.4323671E+06 -0.1411393E+01  0.2073565E+06 -0.3246219E+00  0.4450716E+06  0.1730316E+01
  0.1257143E+01  0.4417959E+06 -0.1396661E+01  0.1967582E+06 -0.3490760E+00  0.4575641E+06  0.1744930E+01
  0.1288095E+01  0.4497570E+06 -0.1382298E+01  0.1863552E+06 -0.3743722E+00  0.4688653E+06  0.1759318E+01
  0.1319048E+01  0.4559080E+06 -0.1368282E+01  0.1761672E+06 -0.4011025E+00  0.4786526E+06  0.1773451E+01
  0.1350000E+01  0.4601500E+06 -0.1355177E+01  0.1668533E+06 -0.4278993E+00  0.4852577E+06  0.1786499E+01
  0.1380952E+01  0.4628185E+06 -0.1343281E+01  0.1578269E+06 -0.4556992E+00  0.4903944E+06  0.1798286E+01
  0.1411905E+01  0.4634508E+06 -0.1332840E+01  0.1491168E+06 -0.4848842E+00  0.4940986E+06  0.1808723E+01
  0.1442857E+01  0.4625420E+06 -0.1324108E+01  0.1406670E+06 -0.5153037E+00  0.4956481E+06  0.1817502E+01
  0.1473810E+01  0.4598518E+06 -0.1317317E+01  0.1324683E+06 -0.5470948E+00  0.4951023E+06  0.1824376E+01
  0.1504762E+01  0.4557859E+06 -0.1312649E+01  0.1245209E+06 -0.5806016E+00  0.4933783E+06  0.1829206E+01
  0.1535714E+01  0.4504135E+06 -0.1310442E+01  0.1170010E+06 -0.6147444E+00  0.4897766E+06  0.1831376E+01
  0.1566667E+01  0.4438231E+06 -0.1310951E+01  0.1100624E+06 -0.6483033E+00  0.4837806E+06  0.1830477E+01
  0.1597619E+01  0.4363598E+06 -0.1313927E+01  0.1033852E+06 -0.6834238E+00  0.4772458E+06  0.1827478E+01
  0.1628572E+01  0.4282145E+06 -0.1319506E+01  0.9700957E+05 -0.7201781E+00  0.4702431E+06  0.1822064E+01
  0.1659524E+01  0.4192097E+06 -0.1327907E+01  0.9089838E+05 -0.7582850E+00  0.4618534E+06  0.1813618E+01
  0.1690476E+01  0.4095480E+06 -0.1339100E+01  0.8503696E+05 -0.7978392E+00  0.4524150E+06  0.1802384E+01
  0.1721429E+01  0.3995498E+06 -0.1352850E+01  0.7945816E+05 -0.8393649E+00  0.4428126E+06  0.1789058E+01
  0.1752381E+01  0.3893029E+06 -0.1369168E+01  0.7412809E+05 -0.8824983E+00  0.4328951E+06  0.1773222E+01
  0.1783333E+01  0.3788847E+06 -0.1388369E+01  0.6919230E+05 -0.9245990E+00  0.4219441E+06  0.1753657E+01
  0.1814286E+01  0.3683577E+06 -0.1410317E+01  0.6454518E+05 -0.9668677E+00  0.4103282E+06  0.1730795E+01
  0.1845238E+01  0.3579582E+06 -0.1434406E+01  0.6011250E+05 -0.1011483E+01  0.3992373E+06  0.1706638E+01
  0.1876190E+01  0.3476734E+06 -0.1460770E+01  0.5594312E+05 -0.1057741E+01  0.3883031E+06  0.1680507E+01
  0.1907143E+01  0.3373573E+06 -0.1489622E+01  0.5200719E+05 -0.1105734E+01  0.3770605E+06  0.1651676E+01
  0.1938095E+01  0.3271562E+06 -0.1520764E+01  0.4826949E+05 -0.1155221E+01  0.3658069E+06  0.1620495E+01
  0.1969048E+01  0.3171376E+06 -0.1553989E+01  0.4474029E+05 -0.1206160E+01  0.3547471E+06  0.1587527E+01
  0.2000000E+01  0.3073405E+06 -0.1589119E+01  0.4141911E+05 -0.1257884E+01  0.3439584E+06  0.1553177E+01
