VARIABLES="w (rad/s)"
"abs(F   1   1)" "angle(F   1   1)"
"abs(F   1   2)" "angle(F   1   2)"
"abs(F   1   3)" "angle(F   1   3)"
Zone t="Diffraction force - beta =   0.000 deg",I=    64,F=POINT
  0.5000000E-01  0.1989550E+04 -0.1570779E+01  0.3627494E+06 -0.2492748E-04  0.3126660E+02 -0.1570406E+01
  0.8095238E-01  0.3245018E+04 -0.1570796E+01  0.3621168E+06 -0.6706073E-04  0.5089972E+02 -0.1570537E+01
  0.1119048E+00  0.4534456E+04 -0.1570796E+01  0.3611880E+06 -0.1331698E-03  0.7137931E+02 -0.1570597E+01
  0.1428571E+00  0.5864076E+04 -0.1570799E+01  0.3599618E+06 -0.2283480E-03  0.9226873E+02 -0.1570662E+01
  0.1738095E+00  0.7252540E+04 -0.1570796E+01  0.3584365E+06 -0.3602897E-03  0.1150367E+03 -0.1570674E+01
  0.2047619E+00  0.8711857E+04 -0.1570784E+01  0.3566083E+06 -0.5400614E-03  0.1386950E+03 -0.1570688E+01
  0.2357143E+00  0.1027440E+05 -0.1570777E+01  0.3544764E+06 -0.7841274E-03  0.1648763E+03 -0.1570697E+01
  0.2666667E+00  0.1194471E+05 -0.1570771E+01  0.3520344E+06 -0.1112433E-02  0.1933496E+03 -0.1570704E+01
  0.2976190E+00  0.1375584E+05 -0.1570758E+01  0.3492822E+06 -0.1558855E-02  0.2239922E+03 -0.1570706E+01
  0.3285715E+00  0.1575286E+05 -0.1570741E+01  0.3462161E+06 -0.2157936E-02  0.2592203E+03 -0.1570694E+01
  0.3595238E+00  0.1793912E+05 -0.1570713E+01  0.3428454E+06 -0.2964315E-02  0.2986907E+03 -0.1570674E+01
  0.3904762E+00  0.2034368E+05 -0.1570670E+01  0.3391600E+06 -0.4039464E-02  0.3421658E+03 -0.1570633E+01
  0.4214286E+00  0.2303253E+05 -0.1570610E+01  0.3352033E+06 -0.5423001E-02  0.3929344E+03 -0.1570573E+01
  0.4523810E+00  0.2600059E+05 -0.1570522E+01  0.3309634E+06 -0.7221081E-02  0.4516965E+03 -0.1570496E+01
  0.4833333E+00  0.2919958E+05 -0.1570396E+01  0.3264863E+06 -0.9387316E-02  0.5107361E+03 -0.1570370E+01
  0.5142857E+00  0.3268176E+05 -0.1570221E+01  0.3217823E+06 -0.1204628E-01  0.5811544E+03 -0.1570200E+01
  0.5452381E+00  0.3645927E+05 -0.1569990E+01  0.3168679E+06 -0.1516031E-01  0.6587007E+03 -0.1569973E+01
  0.5761905E+00  0.4045995E+05 -0.1569686E+01  0.3117756E+06 -0.1873936E-01  0.7447315E+03 -0.1569671E+01
  0.6071429E+00  0.4463171E+05 -0.1569293E+01  0.3065121E+06 -0.2288729E-01  0.8319851E+03 -0.1569277E+01
  0.6380953E+00  0.4899720E+05 -0.1568800E+01  0.3010657E+06 -0.2750550E-01  0.9263022E+03 -0.1568788E+01
  0.6690477E+00  0.5358840E+05 -0.1568185E+01  0.2954932E+06 -0.3270118E-01  0.1032882E+04 -0.1568175E+01
  0.7000000E+00  0.5837992E+05 -0.1567428E+01  0.2898067E+06 -0.3853223E-01  0.1149700E+04 -0.1567418E+01
  0.7309524E+00  0.6331491E+05 -0.1566510E+01  0.2839959E+06 -0.4495141E-01  0.1270287E+04 -0.1566501E+01
  0.7619048E+00  0.6832783E+05 -0.1565402E+01  0.2781003E+06 -0.5202359E-01  0.1391045E+04 -0.1565393E+01
  0.7928572E+00  0.7348014E+05 -0.1564084E+01  0.2721285E+06 -0.5978286E-01  0.1525609E+04 -0.1564077E+01
  0.8238096E+00  0.7882662E+05 -0.1562531E+01  0.2661001E+06 -0.6824440E-01  0.1669826E+04 -0.1562529E+01
  0.8547620E+00  0.8431788E+05 -0.1560718E+01  0.2600341E+06 -0.7742068E-01  0.1821601E+04 -0.1560718E+01
  0.8857143E+00  0.8990934E+05 -0.1558616E+01  0.2539582E+06 -0.8732959E-01  0.1986663E+04 -0.1558618E+01
  0.9166667E+00  0.9559424E+05 -0.1556198E+01  0.2478619E+06 -0.9797773E-01  0.2162577E+04 -0.1556200E+01
  0.9476191E+00  0.1013018E+06 -0.1553438E+01  0.2417753E+06 -0.1093771E+00  0.2333958E+04 -0.1553431E+01
  0.9785714E+00  0.1070200E+06 -0.1550312E+01  0.2357062E+06 -0.1215420E+00  0.2509652E+04 -0.1550302E+01
  0.1009524E+01  0.1128210E+06 -0.1546813E+01  0.2296747E+06 -0.1344917E+00  0.2702143E+04 -0.1546815E+01
  0.1040476E+01  0.1186939E+06 -0.1542930E+01  0.2236843E+06 -0.1482268E+00  0.2909919E+04 -0.1542960E+01
  0.1071429E+01  0.1246074E+06 -0.1538646E+01  0.2177462E+06 -0.1627422E+00  0.3128208E+04 -0.1538681E+01
  0.1102381E+01  0.1304968E+06 -0.1533952E+01  0.2118763E+06 -0.1780483E+00  0.3350458E+04 -0.1533997E+01
  0.1133333E+01  0.1363209E+06 -0.1528841E+01  0.2060826E+06 -0.1941371E+00  0.3578282E+04 -0.1528886E+01
  0.1164286E+01  0.1420178E+06 -0.1523313E+01  0.2003706E+06 -0.2110201E+00  0.3811769E+04 -0.1523333E+01
  0.1195238E+01  0.1475467E+06 -0.1517383E+01  0.1947346E+06 -0.2286887E+00  0.4046344E+04 -0.1517341E+01
  0.1226190E+01  0.1529052E+06 -0.1511083E+01  0.1891681E+06 -0.2471467E+00  0.4288474E+04 -0.1511006E+01
  0.1257143E+01  0.1580749E+06 -0.1504458E+01  0.1836920E+06 -0.2665936E+00  0.4529309E+04 -0.1504381E+01
  0.1288095E+01  0.1631180E+06 -0.1497675E+01  0.1783227E+06 -0.2864925E+00  0.4778171E+04 -0.1497677E+01
  0.1319048E+01  0.1678906E+06 -0.1490672E+01  0.1730593E+06 -0.3073738E+00  0.5027458E+04 -0.1490712E+01
  0.1350000E+01  0.1723500E+06 -0.1483546E+01  0.1679210E+06 -0.3290633E+00  0.5281729E+04 -0.1483527E+01
  0.1380952E+01  0.1764858E+06 -0.1476381E+01  0.1628698E+06 -0.3515061E+00  0.5537301E+04 -0.1476319E+01
  0.1411905E+01  0.1799078E+06 -0.1469743E+01  0.1579895E+06 -0.3743428E+00  0.5758019E+04 -0.1469651E+01
  0.1442857E+01  0.1832984E+06 -0.1462888E+01  0.1531496E+06 -0.3983576E+00  0.6004044E+04 -0.1462806E+01
  0.1473810E+01  0.1862667E+06 -0.1456366E+01  0.1484259E+06 -0.4231663E+00  0.6239682E+04 -0.1456344E+01
  0.1504762E+01  0.1888003E+06 -0.1450294E+01  0.1438177E+06 -0.4487707E+00  0.6463580E+04 -0.1450353E+01
  0.1535714E+01  0.1908867E+06 -0.1444789E+01  0.1393296E+06 -0.4751742E+00  0.6683104E+04 -0.1444777E+01
  0.1566667E+01  0.1924997E+06 -0.1439964E+01  0.1349581E+06 -0.5023746E+00  0.6897662E+04 -0.1439840E+01
  0.1597619E+01  0.1936687E+06 -0.1435993E+01  0.1306878E+06 -0.5303670E+00  0.7106312E+04 -0.1435898E+01
  0.1628572E+01  0.1943951E+06 -0.1433016E+01  0.1265186E+06 -0.5591384E+00  0.7304126E+04 -0.1432870E+01
  0.1659524E+01  0.1946821E+06 -0.1431139E+01  0.1224553E+06 -0.5886920E+00  0.7484098E+04 -0.1431065E+01
  0.1690476E+01  0.1945360E+06 -0.1430464E+01  0.1185054E+06 -0.6190215E+00  0.7649072E+04 -0.1430418E+01
  0.1721429E+01  0.1939680E+06 -0.1431087E+01  0.1146645E+06 -0.6501734E+00  0.7795274E+04 -0.1431028E+01
  0.1752381E+01  0.1930212E+06 -0.1433126E+01  0.1109277E+06 -0.6821215E+00  0.7932232E+04 -0.1433103E+01
  0.1783333E+01  0.1917187E+06 -0.1436662E+01  0.1073115E+06 -0.7148558E+00  0.8060476E+04 -0.1436645E+01
  0.1814286E+01  0.1900871E+06 -0.1441753E+01  0.1037888E+06 -0.7483855E+00  0.8177645E+04 -0.1441769E+01
  0.1845238E+01  0.1881553E+06 -0.1448459E+01  0.1003634E+06 -0.7827369E+00  0.8282063E+04 -0.1448403E+01
  0.1876190E+01  0.1859658E+06 -0.1456830E+01  0.9702551E+05 -0.8178734E+00  0.8374333E+04 -0.1456667E+01
  0.1907143E+01  0.1835493E+06 -0.1466885E+01  0.9377505E+05 -0.8538148E+00  0.8451212E+04 -0.1466598E+01
  0.1938095E+01  0.1809343E+06 -0.1478647E+01  0.9062257E+05 -0.8905240E+00  0.8513957E+04 -0.1478381E+01
  0.1969048E+01  0.1781420E+06 -0.1492124E+01  0.8756581E+05 -0.9280827E+00  0.8562399E+04 -0.1492062E+01
  0.2000000E+01  0.1752062E+06 -0.1507331E+01  0.8459812E+05 -0.9664859E+00  0.8601244E+04 -0.1507528E+01
