VARIABLES="w (rad/s)"
"abs(F   1   1)" "angle(F   1   1)"
"abs(F   1   2)" "angle(F   1   2)"
"abs(F   1   3)" "angle(F   1   3)"
Zone t="Diffraction force - beta =   0.000 deg",I=    64,F=POINT
  0.5000000E-01  0.9949006E+03 -0.1570795E+01  0.1347915E+03 -0.3090534E+01  0.1048714E+04  0.1570797E+01
  0.8095238E-01  0.1627398E+04 -0.1570792E+01  0.3493458E+03 -0.3088699E+01  0.1711963E+04  0.1570798E+01
  0.1119048E+00  0.2269476E+04 -0.1570788E+01  0.6639154E+03 -0.3086484E+01  0.2385238E+04  0.1570800E+01
  0.1428571E+00  0.2932285E+04 -0.1570782E+01  0.1078454E+04 -0.3083634E+01  0.3071041E+04  0.1570802E+01
  0.1738095E+00  0.3616188E+04 -0.1570773E+01  0.1596300E+04 -0.3080105E+01  0.3783694E+04  0.1570806E+01
  0.2047619E+00  0.4336462E+04 -0.1570760E+01  0.2218235E+04 -0.3075638E+01  0.4519324E+04  0.1570812E+01
  0.2357143E+00  0.5093938E+04 -0.1570741E+01  0.2948948E+04 -0.3070032E+01  0.5299271E+04  0.1570819E+01
  0.2666667E+00  0.5901747E+04 -0.1570713E+01  0.3791562E+04 -0.3063231E+01  0.6117795E+04  0.1570831E+01
  0.2976190E+00  0.6775432E+04 -0.1570672E+01  0.4746717E+04 -0.3054615E+01  0.6988926E+04  0.1570848E+01
  0.3285715E+00  0.7718473E+04 -0.1570611E+01  0.5823684E+04 -0.3044387E+01  0.7934270E+04  0.1570872E+01
  0.3595238E+00  0.8744775E+04 -0.1570519E+01  0.7018332E+04 -0.3031928E+01  0.8951365E+04  0.1570909E+01
  0.3904762E+00  0.9873450E+04 -0.1570383E+01  0.8332798E+04 -0.3017151E+01  0.1004492E+05  0.1570962E+01
  0.4214286E+00  0.1111229E+05 -0.1570184E+01  0.9751280E+04 -0.3000536E+01  0.1123602E+05  0.1571038E+01
  0.4523810E+00  0.1245260E+05 -0.1569893E+01  0.1129238E+05 -0.2981462E+01  0.1252907E+05  0.1571147E+01
  0.4833333E+00  0.1390581E+05 -0.1569492E+01  0.1291544E+05 -0.2962042E+01  0.1389458E+05  0.1571295E+01
  0.5142857E+00  0.1547037E+05 -0.1568936E+01  0.1461767E+05 -0.2940871E+01  0.1532225E+05  0.1571495E+01
  0.5452381E+00  0.1712105E+05 -0.1568200E+01  0.1640295E+05 -0.2919843E+01  0.1683052E+05  0.1571753E+01
  0.5761905E+00  0.1882681E+05 -0.1567245E+01  0.1825775E+05 -0.2899226E+01  0.1840899E+05  0.1572077E+01
  0.6071429E+00  0.2060369E+05 -0.1566020E+01  0.2016640E+05 -0.2877966E+01  0.1998292E+05  0.1572479E+01
  0.6380953E+00  0.2244640E+05 -0.1564507E+01  0.2213687E+05 -0.2857905E+01  0.2154246E+05  0.1572957E+01
  0.6690477E+00  0.2432271E+05 -0.1562642E+01  0.2414627E+05 -0.2837964E+01  0.2313008E+05  0.1573522E+01
  0.7000000E+00  0.2620651E+05 -0.1560361E+01  0.2619930E+05 -0.2818062E+01  0.2472785E+05  0.1574181E+01
  0.7309524E+00  0.2809833E+05 -0.1557634E+01  0.2830317E+05 -0.2799085E+01  0.2629662E+05  0.1574925E+01
  0.7619048E+00  0.2999540E+05 -0.1554400E+01  0.3042038E+05 -0.2780287E+01  0.2781145E+05  0.1575756E+01
  0.7928572E+00  0.3190340E+05 -0.1550613E+01  0.3254437E+05 -0.2761689E+01  0.2925834E+05  0.1576662E+01
  0.8238096E+00  0.3379155E+05 -0.1546216E+01  0.3467064E+05 -0.2743469E+01  0.3065147E+05  0.1577630E+01
  0.8547620E+00  0.3563557E+05 -0.1541157E+01  0.3680698E+05 -0.2725942E+01  0.3201373E+05  0.1578638E+01
  0.8857143E+00  0.3740700E+05 -0.1535375E+01  0.3893860E+05 -0.2709018E+01  0.3334427E+05  0.1579662E+01
  0.9166667E+00  0.3911442E+05 -0.1528855E+01  0.4106166E+05 -0.2692779E+01  0.3458739E+05  0.1580663E+01
  0.9476191E+00  0.4073588E+05 -0.1521568E+01  0.4314232E+05 -0.2676844E+01  0.3572016E+05  0.1581598E+01
  0.9785714E+00  0.4226933E+05 -0.1513511E+01  0.4518133E+05 -0.2661432E+01  0.3674072E+05  0.1582413E+01
  0.1009524E+01  0.4368874E+05 -0.1504669E+01  0.4716784E+05 -0.2646558E+01  0.3768008E+05  0.1583053E+01
  0.1040476E+01  0.4496610E+05 -0.1495035E+01  0.4909925E+05 -0.2632376E+01  0.3854314E+05  0.1583449E+01
  0.1071429E+01  0.4607288E+05 -0.1484614E+01  0.5097886E+05 -0.2619019E+01  0.3933177E+05  0.1583521E+01
  0.1102381E+01  0.4698380E+05 -0.1473428E+01  0.5280293E+05 -0.2606595E+01  0.4005265E+05  0.1583201E+01
  0.1133333E+01  0.4767933E+05 -0.1461543E+01  0.5456011E+05 -0.2595025E+01  0.4068966E+05  0.1582421E+01
  0.1164286E+01  0.4814345E+05 -0.1449046E+01  0.5623870E+05 -0.2584196E+01  0.4125498E+05  0.1581147E+01
  0.1195238E+01  0.4835993E+05 -0.1436053E+01  0.5782506E+05 -0.2574023E+01  0.4173574E+05  0.1579322E+01
  0.1226190E+01  0.4831893E+05 -0.1422716E+01  0.5932334E+05 -0.2564778E+01  0.4213711E+05  0.1576910E+01
  0.1257143E+01  0.4798510E+05 -0.1409028E+01  0.6071905E+05 -0.2556019E+01  0.4249860E+05  0.1573941E+01
  0.1288095E+01  0.4737563E+05 -0.1395551E+01  0.6201505E+05 -0.2548981E+01  0.4281227E+05  0.1570429E+01
  0.1319048E+01  0.4644864E+05 -0.1382148E+01  0.6320447E+05 -0.2542562E+01  0.4311370E+05  0.1566498E+01
  0.1350000E+01  0.4520190E+05 -0.1369193E+01  0.6429185E+05 -0.2536954E+01  0.4341642E+05  0.1562303E+01
  0.1380952E+01  0.4364124E+05 -0.1357060E+01  0.6527589E+05 -0.2532475E+01  0.4373317E+05  0.1558035E+01
  0.1411905E+01  0.4173817E+05 -0.1346247E+01  0.6609988E+05 -0.2528524E+01  0.4408280E+05  0.1553952E+01
  0.1442857E+01  0.3955244E+05 -0.1336931E+01  0.6686167E+05 -0.2526032E+01  0.4443756E+05  0.1550176E+01
  0.1473810E+01  0.3706680E+05 -0.1330052E+01  0.6752159E+05 -0.2524791E+01  0.4484404E+05  0.1547124E+01
  0.1504762E+01  0.3428367E+05 -0.1326518E+01  0.6807975E+05 -0.2524777E+01  0.4530044E+05  0.1545073E+01
  0.1535714E+01  0.3123624E+05 -0.1327742E+01  0.6854022E+05 -0.2526011E+01  0.4583746E+05  0.1544431E+01
  0.1566667E+01  0.2792454E+05 -0.1335670E+01  0.6889169E+05 -0.2528262E+01  0.4643250E+05  0.1545367E+01
  0.1597619E+01  0.2440561E+05 -0.1353879E+01  0.6916829E+05 -0.2532038E+01  0.4711290E+05  0.1548228E+01
  0.1628572E+01  0.2070995E+05 -0.1388327E+01  0.6937123E+05 -0.2537251E+01  0.4786421E+05  0.1553177E+01
  0.1659524E+01  0.1690546E+05 -0.1450474E+01  0.6948670E+05 -0.2543501E+01  0.4869484E+05  0.1560388E+01
  0.1690476E+01  0.1311694E+05 -0.1565169E+01  0.6956056E+05 -0.2550863E+01  0.4960237E+05  0.1569947E+01
  0.1721429E+01  0.9623521E+04 -0.1790205E+01  0.6958458E+05 -0.2559282E+01  0.5059299E+05  0.1581955E+01
  0.1752381E+01  0.7188331E+04 -0.2240499E+01  0.6956041E+05 -0.2568559E+01  0.5163898E+05  0.1596238E+01
  0.1783333E+01  0.7254292E+04 -0.2879812E+01  0.6949960E+05 -0.2578546E+01  0.5276110E+05  0.1612821E+01
  0.1814286E+01  0.9884498E+04  0.2951741E+01  0.6938340E+05 -0.2588778E+01  0.5395541E+05  0.1631562E+01
  0.1845238E+01  0.1372492E+05  0.2723749E+01  0.6925013E+05 -0.2599502E+01  0.5519893E+05  0.1652201E+01
  0.1876190E+01  0.1803001E+05  0.2604658E+01  0.6908152E+05 -0.2610344E+01  0.5649624E+05  0.1674605E+01
  0.1907143E+01  0.2251453E+05  0.2537088E+01  0.6884409E+05 -0.2620646E+01  0.5784735E+05  0.1698535E+01
  0.1938095E+01  0.2706437E+05  0.2495853E+01  0.6854648E+05 -0.2630268E+01  0.5924879E+05  0.1723650E+01
  0.1969048E+01  0.3161212E+05  0.2469680E+01  0.6815603E+05 -0.2638958E+01  0.6067720E+05  0.1749763E+01
  0.2000000E+01  0.3610971E+05  0.2452548E+01  0.6765121E+05 -0.2646668E+01  0.6215748E+05  0.1776827E+01
