VARIABLES="w (rad/s)"
"abs(F   1   1)" "angle(F   1   1)"
"abs(F   1   2)" "angle(F   1   2)"
"abs(F   1   3)" "angle(F   1   3)"
Zone t="Diffraction force - beta =   0.000 deg",I=    64,F=POINT
  0.5000000E-01  0.6418708E+03 -0.1570795E+01  0.1750994E+03 -0.3094640E+01  0.1036415E+02 -0.1570795E+01
  0.8095238E-01  0.1048183E+04 -0.1570793E+01  0.4549016E+03 -0.3093052E+01  0.1675045E+02 -0.1570792E+01
  0.1119048E+00  0.1468101E+04 -0.1570790E+01  0.8644595E+03 -0.3090989E+01  0.2350551E+02 -0.1570788E+01
  0.1428571E+00  0.1897632E+04 -0.1570785E+01  0.1405063E+04 -0.3088377E+01  0.3019265E+02 -0.1570781E+01
  0.1738095E+00  0.2350064E+04 -0.1570778E+01  0.2078869E+04 -0.3085069E+01  0.3781898E+02 -0.1570773E+01
  0.2047619E+00  0.2819573E+04 -0.1570768E+01  0.2889852E+04 -0.3080933E+01  0.4544505E+02 -0.1570759E+01
  0.2357143E+00  0.3329548E+04 -0.1570753E+01  0.3839452E+04 -0.3075673E+01  0.5398669E+02 -0.1570740E+01
  0.2666667E+00  0.3870894E+04 -0.1570730E+01  0.4934487E+04 -0.3069292E+01  0.6350511E+02 -0.1570711E+01
  0.2976190E+00  0.4452899E+04 -0.1570697E+01  0.6176587E+04 -0.3061237E+01  0.7301940E+02 -0.1570670E+01
  0.3285715E+00  0.5106034E+04 -0.1570648E+01  0.7572239E+04 -0.3051590E+01  0.8467422E+02 -0.1570607E+01
  0.3595238E+00  0.5817036E+04 -0.1570575E+01  0.9115205E+04 -0.3039798E+01  0.9766248E+02 -0.1570515E+01
  0.3904762E+00  0.6588138E+04 -0.1570464E+01  0.1081978E+05 -0.3025867E+01  0.1116502E+03 -0.1570374E+01
  0.4214286E+00  0.7466741E+04 -0.1570301E+01  0.1265224E+05 -0.3010121E+01  0.1282407E+03 -0.1570172E+01
  0.4523810E+00  0.8444633E+04 -0.1570064E+01  0.1463009E+05 -0.2991892E+01  0.1492888E+03 -0.1569885E+01
  0.4833333E+00  0.9480720E+04 -0.1569731E+01  0.1671663E+05 -0.2973302E+01  0.1667634E+03 -0.1569457E+01
  0.5142857E+00  0.1059810E+05 -0.1569267E+01  0.1890910E+05 -0.2953068E+01  0.1892114E+03 -0.1568881E+01
  0.5452381E+00  0.1184572E+05 -0.1568650E+01  0.2120222E+05 -0.2932798E+01  0.2157477E+03 -0.1568132E+01
  0.5761905E+00  0.1316871E+05 -0.1567846E+01  0.2356688E+05 -0.2912627E+01  0.2449041E+03 -0.1567161E+01
  0.6071429E+00  0.1452979E+05 -0.1566798E+01  0.2600744E+05 -0.2891861E+01  0.2733973E+03 -0.1565874E+01
  0.6380953E+00  0.1593652E+05 -0.1565481E+01  0.2853516E+05 -0.2872251E+01  0.3009073E+03 -0.1564216E+01
  0.6690477E+00  0.1744770E+05 -0.1563851E+01  0.3110972E+05 -0.2852557E+01  0.3362210E+03 -0.1562254E+01
  0.7000000E+00  0.1905078E+05 -0.1561849E+01  0.3372785E+05 -0.2832640E+01  0.3776461E+03 -0.1559922E+01
  0.7309524E+00  0.2070715E+05 -0.1559426E+01  0.3639923E+05 -0.2813385E+01  0.4187814E+03 -0.1557054E+01
  0.7619048E+00  0.2236070E+05 -0.1556487E+01  0.3909673E+05 -0.2794272E+01  0.4555587E+03 -0.1553430E+01
  0.7928572E+00  0.2403160E+05 -0.1552968E+01  0.4181632E+05 -0.2775323E+01  0.4968738E+03 -0.1549181E+01
  0.8238096E+00  0.2581008E+05 -0.1548854E+01  0.4455467E+05 -0.2756687E+01  0.5451075E+03 -0.1544354E+01
  0.8547620E+00  0.2766437E+05 -0.1544075E+01  0.4729312E+05 -0.2738327E+01  0.5955890E+03 -0.1538725E+01
  0.8857143E+00  0.2956053E+05 -0.1538538E+01  0.5001401E+05 -0.2720172E+01  0.6514554E+03 -0.1532338E+01
  0.9166667E+00  0.3148880E+05 -0.1532169E+01  0.5272221E+05 -0.2702420E+01  0.7134722E+03 -0.1525176E+01
  0.9476191E+00  0.3340654E+05 -0.1524861E+01  0.5540257E+05 -0.2685032E+01  0.7697520E+03 -0.1516604E+01
  0.9785714E+00  0.3528755E+05 -0.1516510E+01  0.5804829E+05 -0.2668036E+01  0.8215054E+03 -0.1506510E+01
  0.1009524E+01  0.3719736E+05 -0.1507144E+01  0.6065050E+05 -0.2651387E+01  0.8803398E+03 -0.1495501E+01
  0.1040476E+01  0.3914178E+05 -0.1496744E+01  0.6319896E+05 -0.2635067E+01  0.9497746E+03 -0.1483855E+01
  0.1071429E+01  0.4112795E+05 -0.1485294E+01  0.6569039E+05 -0.2619184E+01  0.1026286E+04 -0.1471285E+01
  0.1102381E+01  0.4309933E+05 -0.1472690E+01  0.6811471E+05 -0.2603711E+01  0.1100253E+04 -0.1457157E+01
  0.1133333E+01  0.4502016E+05 -0.1458841E+01  0.7045852E+05 -0.2588572E+01  0.1173952E+04 -0.1441563E+01
  0.1164286E+01  0.4686730E+05 -0.1443687E+01  0.7272460E+05 -0.2573862E+01  0.1247883E+04 -0.1424457E+01
  0.1195238E+01  0.4857371E+05 -0.1427081E+01  0.7490359E+05 -0.2559539E+01  0.1319240E+04 -0.1405536E+01
  0.1226190E+01  0.5016344E+05 -0.1409072E+01  0.7700552E+05 -0.2545833E+01  0.1389825E+04 -0.1384995E+01
  0.1257143E+01  0.5161071E+05 -0.1389618E+01  0.7904419E+05 -0.2532392E+01  0.1458327E+04 -0.1362981E+01
  0.1288095E+01  0.5302416E+05 -0.1369421E+01  0.8093593E+05 -0.2519813E+01  0.1530177E+04 -0.1340490E+01
  0.1319048E+01  0.5425204E+05 -0.1347876E+01  0.8274559E+05 -0.2507309E+01  0.1594903E+04 -0.1316195E+01
  0.1350000E+01  0.5530909E+05 -0.1325204E+01  0.8444486E+05 -0.2495141E+01  0.1661142E+04 -0.1290838E+01
  0.1380952E+01  0.5614911E+05 -0.1301339E+01  0.8603438E+05 -0.2483485E+01  0.1726054E+04 -0.1264520E+01
  0.1411905E+01  0.5642974E+05 -0.1276503E+01  0.8744740E+05 -0.2471965E+01  0.1754122E+04 -0.1234171E+01
  0.1442857E+01  0.5679422E+05 -0.1250591E+01  0.8881527E+05 -0.2461190E+01  0.1809696E+04 -0.1206180E+01
  0.1473810E+01  0.5690709E+05 -0.1223964E+01  0.9006606E+05 -0.2450789E+01  0.1852568E+04 -0.1176502E+01
  0.1504762E+01  0.5672362E+05 -0.1196550E+01  0.9119645E+05 -0.2440727E+01  0.1879533E+04 -0.1145046E+01
  0.1535714E+01  0.5626029E+05 -0.1168576E+01  0.9220526E+05 -0.2431059E+01  0.1900024E+04 -0.1112961E+01
  0.1566667E+01  0.5548883E+05 -0.1139982E+01  0.9308750E+05 -0.2421620E+01  0.1914713E+04 -0.1080573E+01
  0.1597619E+01  0.5440865E+05 -0.1110873E+01  0.9385095E+05 -0.2412657E+01  0.1921013E+04 -0.1048325E+01
  0.1628572E+01  0.5303416E+05 -0.1081616E+01  0.9449407E+05 -0.2404144E+01  0.1918872E+04 -0.1016785E+01
  0.1659524E+01  0.5135824E+05 -0.1052237E+01  0.9501253E+05 -0.2396069E+01  0.1902917E+04 -0.9849788E+00
  0.1690476E+01  0.4938767E+05 -0.1022778E+01  0.9540388E+05 -0.2388386E+01  0.1868442E+04 -0.9520664E+00
  0.1721429E+01  0.4711625E+05 -0.9930918E+00  0.9566970E+05 -0.2381044E+01  0.1818023E+04 -0.9177123E+00
  0.1752381E+01  0.4456225E+05 -0.9632525E+00  0.9581207E+05 -0.2374050E+01  0.1751831E+04 -0.8824745E+00
  0.1783333E+01  0.4175133E+05 -0.9334526E+00  0.9582948E+05 -0.2367436E+01  0.1673938E+04 -0.8476472E+00
  0.1814286E+01  0.3868583E+05 -0.9033918E+00  0.9572059E+05 -0.2361015E+01  0.1586274E+04 -0.8140857E+00
  0.1845238E+01  0.3539402E+05 -0.8729749E+00  0.9549236E+05 -0.2355065E+01  0.1483898E+04 -0.7801024E+00
  0.1876190E+01  0.3188945E+05 -0.8418239E+00  0.9514380E+05 -0.2349495E+01  0.1367812E+04 -0.7446147E+00
  0.1907143E+01  0.2820518E+05 -0.8096506E+00  0.9467124E+05 -0.2344420E+01  0.1237508E+04 -0.7074624E+00
  0.1938095E+01  0.2436032E+05 -0.7754656E+00  0.9407372E+05 -0.2339794E+01  0.1090987E+04 -0.6650929E+00
  0.1969048E+01  0.2037294E+05 -0.7373204E+00  0.9335438E+05 -0.2335556E+01  0.9296167E+03 -0.6164675E+00
  0.2000000E+01  0.1626499E+05 -0.6913983E+00  0.9252290E+05 -0.2331625E+01  0.7512680E+03 -0.5514362E+00
