VARIABLES="w (rad/s)"
"A   1   1" "B   1   1"
"A   1   2" "B   1   2"
"A   1   3" "B   1   3"
Zone t="Motion of body    1 in DoF   1",I=    64,F=POINT
  0.5000000E-01  0.1400939E+06  0.1661267E-01 -0.1159668E-01 -0.4341275E-04 -0.7866487E+05 -0.7258462E-03
  0.8095238E-01  0.1407267E+06  0.7321075E-01 -0.4900764E-02 -0.5581189E-04 -0.7911422E+05 -0.3379415E-02
  0.1119048E+00  0.1407623E+06  0.2049598E+00 -0.9749392E-02 -0.1556007E-03 -0.7944784E+05 -0.8710874E-02
  0.1428571E+00  0.1410194E+06  0.4610718E+00  0.8758545E-02 -0.8674967E-04 -0.7923156E+05 -0.1826658E-01
  0.1738095E+00  0.1411039E+06  0.9163356E+00 -0.1092989E-01 -0.3263773E-04 -0.7927384E+05 -0.3442972E-01
  0.2047619E+00  0.1414078E+06  0.1687894E+01  0.5887053E-02 -0.8967239E-04 -0.7895414E+05 -0.5765762E-01
  0.2357143E+00  0.1415227E+06  0.2964984E+01  0.1980868E-01  0.4294217E-03 -0.7912925E+05 -0.9328696E-01
  0.2666667E+00  0.1418190E+06  0.5046709E+01  0.4171371E-01  0.7712208E-03 -0.7883427E+05 -0.1330682E+00
  0.2976190E+00  0.1422165E+06  0.8444261E+01  0.1035645E-01  0.3636107E-03 -0.7853689E+05 -0.1799438E+00
  0.3285715E+00  0.1424534E+06  0.1392417E+02  0.1304958E-01  0.3648549E-04 -0.7863234E+05 -0.2348148E+00
  0.3595238E+00  0.1428134E+06  0.2278478E+02 -0.1443016E-02  0.7100850E-03 -0.7844641E+05 -0.2554101E+00
  0.3904762E+00  0.1433812E+06  0.3702794E+02  0.7033929E-02 -0.2622306E-03 -0.7789394E+05 -0.1383449E+00
  0.4214286E+00  0.1438860E+06  0.5932152E+02 -0.1665535E-02 -0.3129244E-03 -0.7775991E+05  0.1700499E+00
  0.4523810E+00  0.1443534E+06  0.9419148E+02  0.3507915E-02 -0.5664825E-03 -0.7768288E+05  0.8745463E+00
  0.4833333E+00  0.1450527E+06  0.1458615E+03 -0.2007846E-01 -0.1733541E-02 -0.7727398E+05  0.2570322E+01
  0.5142857E+00  0.1458406E+06  0.2221602E+03  0.1436022E-01 -0.3571510E-03 -0.7675265E+05  0.5860296E+01
  0.5452381E+00  0.1465546E+06  0.3301067E+03  0.7164301E-02  0.1150846E-02 -0.7656541E+05  0.1139514E+02
  0.5761905E+00  0.1472581E+06  0.4787285E+03 -0.1313517E-01  0.6132126E-03 -0.7642715E+05  0.2055603E+02
  0.6071429E+00  0.1481974E+06  0.6815255E+03  0.2377499E-01  0.3547192E-02 -0.7592920E+05  0.3582498E+02
  0.6380953E+00  0.1492980E+06  0.9486160E+03  0.4026954E-01  0.7800102E-02 -0.7524495E+05  0.6000831E+02
  0.6690477E+00  0.1503441E+06  0.1296938E+04 -0.1861029E-01 -0.4106522E-02 -0.7485070E+05  0.9519730E+02
  0.7000000E+00  0.1513788E+06  0.1745549E+04 -0.2467564E-01 -0.5152702E-02 -0.7457750E+05  0.1455744E+03
  0.7309524E+00  0.1525031E+06  0.2311442E+04 -0.4843050E-02 -0.1146317E-02 -0.7407380E+05  0.2181378E+03
  0.7619048E+00  0.1537391E+06  0.3018583E+04  0.1906586E-01  0.6139755E-02 -0.7341577E+05  0.3200120E+03
  0.7928572E+00  0.1550950E+06  0.3892164E+04  0.2278646E-01  0.4711151E-02 -0.7261981E+05  0.4603771E+03
  0.8238096E+00  0.1564474E+06  0.4957599E+04 -0.2163396E-01 -0.2868652E-02 -0.7181453E+05  0.6489263E+03
  0.8547620E+00  0.1577397E+06  0.6240860E+04  0.8640129E-02 -0.3314972E-02 -0.7116695E+05  0.8948059E+03
  0.8857143E+00  0.1589448E+06  0.7769177E+04  0.3156108E-01  0.1731491E-01 -0.7056336E+05  0.1211678E+04
  0.9166667E+00  0.1601835E+06  0.9569083E+04 -0.3595525E-02  0.4547119E-02 -0.6981933E+05  0.1617450E+04
  0.9476191E+00  0.1613812E+06  0.1166440E+05  0.1500729E-01  0.4440308E-02 -0.6887590E+05  0.2131903E+04
  0.9785714E+00  0.1625275E+06  0.1407721E+05  0.5363965E-02  0.2265930E-02 -0.6780509E+05  0.2774464E+04
  0.1009524E+01  0.1635653E+06  0.1682788E+05 -0.3022968E-02 -0.2426147E-02 -0.6678712E+05  0.3561141E+04
  0.1040476E+01  0.1644178E+06  0.1992931E+05 -0.2633869E-01 -0.1197815E-01 -0.6584144E+05  0.4512318E+04
  0.1071429E+01  0.1650578E+06  0.2338636E+05  0.6266276E-02  0.2502441E-02 -0.6499134E+05  0.5646661E+04
  0.1102381E+01  0.1654404E+06  0.2719446E+05 -0.1007673E-01  0.8956909E-02 -0.6421481E+05  0.6981323E+04
  0.1133333E+01  0.1655700E+06  0.3133357E+05 -0.4846909E-03 -0.1293945E-01 -0.6343141E+05  0.8534652E+04
  0.1164286E+01  0.1654152E+06  0.3578227E+05  0.8073116E-02  0.1565552E-01 -0.6274961E+05  0.1030984E+05
  0.1195238E+01  0.1649575E+06  0.4050248E+05 -0.1572810E-01 -0.1406860E-01 -0.6207096E+05  0.1232443E+05
  0.1226190E+01  0.1642457E+06  0.4544960E+05  0.1463422E-01 -0.5798340E-03 -0.6147410E+05  0.1457531E+05
  0.1257143E+01  0.1631712E+06  0.5061695E+05  0.1320579E-01  0.1776123E-01 -0.6097420E+05  0.1708258E+05
  0.1288095E+01  0.1618304E+06  0.5580789E+05  0.1800594E-02 -0.2169800E-01 -0.6054155E+05  0.1978981E+05
  0.1319048E+01  0.1601911E+06  0.6109735E+05  0.3053961E-02 -0.6713867E-02 -0.6032815E+05  0.2271330E+05
  0.1350000E+01  0.1582420E+06  0.6637212E+05  0.8770978E-02 -0.1104736E-01 -0.6028788E+05  0.2582292E+05
  0.1380952E+01  0.1560381E+06  0.7156786E+05 -0.1865150E-01 -0.1550293E-01 -0.6040799E+05  0.2909378E+05
  0.1411905E+01  0.1532417E+06  0.7635098E+05 -0.5360389E-02  0.1379395E-01 -0.6114231E+05  0.3238629E+05
  0.1442857E+01  0.1506109E+06  0.8121823E+05 -0.1852810E-01 -0.8117676E-02 -0.6154643E+05  0.3591298E+05
  0.1473810E+01  0.1478584E+06  0.8584310E+05 -0.4638277E-02 -0.1666260E-01 -0.6214461E+05  0.3949431E+05
  0.1504762E+01  0.1449679E+06  0.9016758E+05 -0.4056134E-02  0.6225586E-02 -0.6283715E+05  0.4314915E+05
  0.1535714E+01  0.1420201E+06  0.9420788E+05  0.4610283E-02  0.2014160E-02 -0.6381235E+05  0.4675885E+05
  0.1566667E+01  0.1389502E+06  0.9788832E+05  0.2010264E-01  0.2020264E-01 -0.6479086E+05  0.5040965E+05
  0.1597619E+01  0.1359082E+06  0.1012344E+06 -0.8175618E-02  0.1049805E-01 -0.6596391E+05  0.5397717E+05
  0.1628572E+01  0.1329048E+06  0.1042035E+06  0.1574064E-02 -0.2563477E-02 -0.6720530E+05  0.5748810E+05
  0.1659524E+01  0.1298981E+06  0.1068224E+06 -0.4450225E-02  0.6469727E-02 -0.6852762E+05  0.6091761E+05
  0.1690476E+01  0.1269874E+06  0.1090973E+06  0.5054742E-03  0.6591797E-02 -0.6996435E+05  0.6420779E+05
  0.1721429E+01  0.1241326E+06  0.1110008E+06  0.6736661E-03 -0.5493164E-02 -0.7139708E+05  0.6742714E+05
  0.1752381E+01  0.1213982E+06  0.1125844E+06  0.1713629E-01  0.1647949E-01 -0.7289833E+05  0.7051502E+05
  0.1783333E+01  0.1187832E+06  0.1139032E+06  0.7700698E-02  0.1721191E-01 -0.7452659E+05  0.7338109E+05
  0.1814286E+01  0.1162110E+06  0.1148935E+06 -0.9419600E-02  0.1184082E-01 -0.7604952E+05  0.7621649E+05
  0.1845238E+01  0.1138158E+06  0.1156530E+06  0.2083858E-02  0.8911133E-02 -0.7768211E+05  0.7881018E+05
  0.1876190E+01  0.1115557E+06  0.1161351E+06  0.1984417E-02  0.3051758E-02 -0.7928411E+05  0.8129646E+05
  0.1907143E+01  0.1093874E+06  0.1163940E+06  0.1280138E-03 -0.3051758E-02 -0.8088212E+05  0.8360880E+05
  0.1938095E+01  0.1073491E+06  0.1164538E+06  0.5857576E-02  0.1220703E-02 -0.8247816E+05  0.8574101E+05
  0.1969048E+01  0.1054393E+06  0.1163207E+06  0.7036387E-02  0.1220703E-03 -0.8407215E+05  0.8768907E+05
  0.2000000E+01  0.1036437E+06  0.1159460E+06 -0.2960205E-02  0.4638672E-02 -0.8557115E+05  0.8963333E+05
Zone t="Motion of body    1 in DoF   2",I=    64,F=POINT
  0.5000000E-01 -0.2128601E-01 -0.2908707E-04  0.1572525E+06  0.4707750E+03  0.3112793E-01  0.1029968E-03
  0.8095238E-01 -0.6879918E-02  0.4243851E-04  0.1550037E+06  0.7802086E+03  0.2243042E-01  0.3814697E-04
  0.1119048E+00 -0.6067804E-02 -0.8010864E-04  0.1538419E+06  0.1116473E+04 -0.9544860E-02  0.1735687E-03
  0.1428571E+00  0.1922607E-01 -0.3528595E-04  0.1531895E+06  0.1492028E+04 -0.5981445E-02  0.1220703E-03
  0.1738095E+00 -0.1062263E-01 -0.4005432E-04  0.1529686E+06  0.1922462E+04 -0.1123716E-01  0.1754761E-03
  0.2047619E+00  0.3725983E-03  0.2098083E-03  0.1530685E+06  0.2427339E+04 -0.2146166E-01  0.1525879E-04
  0.2357143E+00 -0.2298066E-01  0.2174377E-03  0.1534222E+06  0.3033872E+04  0.0000000E+00  0.6866455E-04
  0.2666667E+00  0.1647949E-01  0.1716614E-04  0.1539398E+06  0.3764554E+04  0.9155273E-02  0.5950928E-03
  0.2976190E+00 -0.4716797E-02  0.2822876E-03  0.1545953E+06  0.4670723E+04 -0.1886719E-01 -0.3662109E-03
  0.3285715E+00 -0.1393194E-01  0.7247925E-04  0.1553966E+06  0.5777461E+04  0.2099078E-01 -0.1190186E-02
  0.3595238E+00  0.8742983E-02 -0.1106262E-03  0.1560363E+06  0.7145432E+04  0.2173013E-01 -0.4730225E-03
  0.3904762E+00  0.2571292E-01 -0.7171631E-03  0.1566919E+06  0.8817082E+04  0.3751429E-01 -0.7629395E-04
  0.4214286E+00  0.2078298E-01 -0.1754761E-03  0.1568800E+06  0.1076987E+05  0.5793167E-01 -0.3356934E-03
  0.4523810E+00  0.8769787E-03 -0.7324219E-03  0.1568871E+06  0.1310160E+05 -0.1484118E-01  0.3753662E-02
  0.4833333E+00 -0.1629007E-01 -0.2319336E-02  0.1562647E+06  0.1561011E+05 -0.2273033E-01 -0.8544922E-03
  0.5142857E+00 -0.2207438E-01 -0.1678467E-02  0.1551858E+06  0.1841531E+05 -0.1139323E-01 -0.2441406E-03
  0.5452381E+00 -0.8955377E-03  0.3570557E-02  0.1538222E+06  0.2135055E+05 -0.1276141E-01  0.2258301E-02
  0.5761905E+00  0.1906718E-02  0.3356934E-03  0.1520441E+06  0.2436242E+05 -0.8898017E-02 -0.3173828E-02
  0.6071429E+00  0.1206342E-01  0.2914429E-02  0.1498608E+06  0.2752324E+05 -0.1246553E-01  0.2624512E-02
  0.6380953E+00  0.3156519E-02  0.3784180E-02  0.1476123E+06  0.3063684E+05 -0.4132171E-01  0.2014160E-02
  0.6690477E+00 -0.5291161E-02 -0.5828857E-02  0.1451458E+06  0.3377260E+05  0.6020977E-02  0.2685547E-02
  0.7000000E+00 -0.2022879E-01  0.1220703E-02  0.1424815E+06  0.3694015E+05  0.1116071E-01 -0.1342773E-02
  0.7309524E+00 -0.1578166E-01 -0.2105713E-02  0.1397663E+06  0.4003988E+05  0.2972631E-01  0.5249023E-02
  0.7619048E+00  0.1409912E-01  0.4272461E-03  0.1368934E+06  0.4309357E+05 -0.2050781E-01  0.3417969E-02
  0.7928572E+00  0.1377965E-01 -0.5249023E-02  0.1339252E+06  0.4608805E+05  0.2463401E-02  0.6225586E-02
  0.8238096E+00 -0.1755907E-01  0.6286621E-02  0.1309341E+06  0.4898772E+05  0.1867041E-01  0.7324219E-03
  0.8547620E+00  0.7140603E-02  0.2929688E-02  0.1279672E+06  0.5176350E+05  0.2342118E-01  0.1464844E-02
  0.8857143E+00  0.1791677E-02  0.4699707E-02  0.1249832E+06  0.5441121E+05  0.6615423E-02 -0.3295898E-02
  0.9166667E+00 -0.6059126E-02 -0.0000000E+00  0.1220025E+06  0.5691711E+05 -0.3595525E-01  0.2807617E-02
  0.9476191E+00 -0.7857893E-02  0.6530762E-02  0.1189998E+06  0.5928009E+05 -0.5925624E-02 -0.2075195E-02
  0.9785714E+00  0.1322280E-01 -0.3906250E-02  0.1160432E+06  0.6147875E+05 -0.1970945E-01 -0.2319336E-02
  0.1009524E+01  0.1451025E-02 -0.4821777E-02  0.1131547E+06  0.6350238E+05 -0.1209187E-02 -0.6347656E-02
  0.1040476E+01 -0.1073493E-01  0.1525879E-02  0.1103481E+06  0.6533819E+05 -0.5631436E-02 -0.3662109E-03
  0.1071429E+01 -0.5468750E-02 -0.2441406E-03  0.1076338E+06  0.6697740E+05 -0.3645833E-02  0.1464844E-02
  0.1102381E+01  0.1090723E-01 -0.4882812E-03  0.1050254E+06  0.6842095E+05 -0.2746186E-01 -0.1000977E-01
  0.1133333E+01  0.8024328E-02  0.1525879E-02  0.1025022E+06  0.6968107E+05  0.0000000E+00 -0.2929688E-02
  0.1164286E+01  0.2935678E-02 -0.2441406E-03  0.1000978E+06  0.7075650E+05  0.2348543E-01 -0.2441406E-02
  0.1195238E+01 -0.1531958E-01  0.8300781E-02  0.9778795E+05  0.7165620E+05  0.1184714E-01 -0.3906250E-02
  0.1226190E+01  0.1722258E-01  0.1824951E-01  0.9560984E+05  0.7236434E+05 -0.1433556E-01 -0.4638672E-02
  0.1257143E+01  0.8107966E-02 -0.8178711E-02  0.9354853E+05  0.7295968E+05 -0.1009854E-01  0.7324219E-02
  0.1288095E+01  0.1085095E-01  0.1000977E-01  0.9163453E+05  0.7327750E+05 -0.4738404E-02 -0.4150391E-02
  0.1319048E+01 -0.9115611E-02  0.2868652E-02  0.8983788E+05  0.7348579E+05 -0.3516682E-02 -0.4882812E-03
  0.1350000E+01 -0.1320168E-01  0.3051758E-02  0.8816909E+05  0.7354646E+05  0.3616898E-02 -0.2441406E-03
  0.1380952E+01 -0.3093851E-02 -0.4150391E-02  0.8664603E+05  0.7344906E+05 -0.1414332E-02  0.2441406E-03
  0.1411905E+01 -0.9250995E-02  0.5371094E-02  0.8531527E+05  0.7314239E+05  0.1020203E-01 -0.5126953E-02
  0.1442857E+01 -0.1154833E-01  0.1281738E-02  0.8406205E+05  0.7282000E+05  0.1861270E-02 -0.2441406E-02
  0.1473810E+01  0.9566447E-02 -0.5249023E-02  0.8295858E+05  0.7238823E+05  0.2840945E-01 -0.2441406E-02
  0.1504762E+01  0.3163784E-02  0.2380371E-01  0.8199538E+05  0.7186180E+05 -0.1622453E-03  0.2929688E-02
  0.1535714E+01  0.1303597E-01  0.6408691E-02  0.8117702E+05  0.7127590E+05  0.1208212E-01  0.3906250E-02
  0.1566667E+01  0.1168758E-02  0.8117676E-02  0.8046477E+05  0.7065745E+05 -0.7324218E-02 -0.3662109E-02
  0.1597619E+01  0.3934994E-02  0.1647949E-02  0.7990812E+05  0.7004781E+05 -0.1910191E-01 -0.6347656E-02
  0.1628572E+01 -0.1615290E-01 -0.3662109E-02  0.7947834E+05  0.6942398E+05 -0.1574064E-02 -0.2685547E-02
  0.1659524E+01  0.2464174E-02  0.6347656E-02  0.7914592E+05  0.6887563E+05 -0.7355743E-04  0.3417969E-02
  0.1690476E+01  0.4549268E-02 -0.4455566E-02  0.7892440E+05  0.6839233E+05 -0.8737483E-02  0.9277344E-02
  0.1721429E+01 -0.1985542E-02  0.8422852E-02  0.7878898E+05  0.6802185E+05  0.4467470E-02 -0.2197266E-02
  0.1752381E+01 -0.5816584E-02  0.4394531E-02  0.7871362E+05  0.6780577E+05  0.6617671E-02  0.5371094E-02
  0.1783333E+01  0.1334788E-02 -0.1019287E-01  0.7867453E+05  0.6776812E+05 -0.1314252E-01  0.1708984E-02
  0.1814286E+01 -0.5046214E-03 -0.5432129E-02  0.7862351E+05  0.6792005E+05 -0.1049612E-01 -0.1464844E-02
  0.1845238E+01  0.4895413E-02  0.4028320E-02  0.7859241E+05  0.6824342E+05  0.8996976E-02  0.1953125E-02
  0.1876190E+01 -0.8750955E-02  0.1257324E-01  0.7851591E+05  0.6871929E+05 -0.1691634E-02  0.3417969E-02
  0.1907143E+01 -0.3584387E-02 -0.1293945E-01  0.7836107E+05  0.6935288E+05 -0.1689782E-01 -0.1464844E-02
  0.1938095E+01  0.2676849E-02  0.9155273E-02  0.7813059E+05  0.7008469E+05 -0.6046529E-02  0.1855469E-01
  0.1969048E+01  0.5207547E-02  0.1269531E-01  0.7783674E+05  0.7089830E+05  0.1587062E-01 -0.0000000E+00
  0.2000000E+01  0.3784180E-02  0.2319336E-02  0.7746184E+05  0.7169937E+05 -0.1147461E-01 -0.1708984E-02
Zone t="Motion of body    1 in DoF   3",I=    64,F=POINT
  0.5000000E-01 -0.7690459E+05 -0.1334206E-03  0.9155273E-02  0.1908850E-04  0.4871442E+06  0.6480591E-03
  0.8095238E-01 -0.7747466E+05 -0.4200086E-03  0.5037420E-01  0.3263299E-03  0.4870598E+06  0.2906464E-03
  0.1119048E+00 -0.7783932E+05 -0.8440244E-03  0.2624836E-01  0.2471367E-03  0.4862808E+06 -0.2878562E-03
  0.1428571E+00 -0.7764789E+05 -0.5150356E-03 -0.1014709E-01 -0.2391969E-03  0.4864716E+06 -0.1129502E-02
  0.1738095E+00 -0.7764372E+05  0.8549377E-03  0.3845215E-01  0.4088427E-03  0.4865778E+06 -0.5500921E-03
  0.2047619E+00 -0.7732355E+05  0.6333390E-02  0.3629108E-01  0.7085413E-03  0.4870745E+06  0.2166850E-02
  0.2357143E+00 -0.7751780E+05  0.2198416E-01  0.2511689E-01  0.5565817E-03  0.4863961E+06  0.2129468E-02
  0.2666667E+00 -0.7716623E+05  0.5860476E-01 -0.7438659E-02 -0.1072369E-03  0.4870743E+06 -0.1416763E-02
  0.2976190E+00 -0.7688600E+05  0.1349160E+00 -0.1010010E-01 -0.6344111E-03  0.4873142E+06 -0.3808070E-02
  0.3285715E+00 -0.7700730E+05  0.2953317E+00  0.3213633E-01  0.4482754E-03  0.4865706E+06 -0.3810446E-02
  0.3595238E+00 -0.7676350E+05  0.6097606E+00 -0.1748597E-01 -0.1535090E-02  0.4870279E+06 -0.1056729E-01
  0.3904762E+00 -0.7617501E+05  0.1221564E+01  0.5627143E-02  0.1401558E-02  0.4880167E+06 -0.1017383E-01
  0.4214286E+00 -0.7609258E+05  0.2351219E+01 -0.3179000E-01 -0.2148591E-02  0.4873877E+06 -0.4709736E-02
  0.4523810E+00 -0.7596056E+05  0.4366627E+01 -0.6745991E-04 -0.5710050E-03  0.4874835E+06  0.5231009E-01
  0.4833333E+00 -0.7550062E+05  0.7864527E+01  0.5366884E-01  0.5563729E-02  0.4882449E+06  0.1271282E+00
  0.5142857E+00 -0.7499278E+05  0.1367579E+02  0.2005683E-01  0.2176635E-02  0.4885565E+06  0.3430853E+00
  0.5452381E+00 -0.7482280E+05  0.2312935E+02  0.9850915E-02  0.1581162E-03  0.4881335E+06  0.8049043E+00
  0.5761905E+00 -0.7462249E+05  0.3778231E+02  0.1514781E-01  0.7095337E-03  0.4881736E+06  0.1580016E+01
  0.6071429E+00 -0.7406016E+05  0.5977387E+02 -0.8544921E-02 -0.4224807E-02  0.4889893E+06  0.3345405E+01
  0.6380953E+00 -0.7336471E+05  0.9226045E+02  0.2161738E-01  0.5387187E-02  0.4896181E+06  0.5787664E+01
  0.6690477E+00 -0.7298512E+05  0.1394759E+03  0.7562712E-01  0.1853228E-01  0.4894635E+06  0.1030188E+02
  0.7000000E+00 -0.7268175E+05  0.2062962E+03  0.7672991E-02  0.2668738E-02  0.4892111E+06  0.1755647E+02
  0.7309524E+00 -0.7210074E+05  0.2978466E+03 -0.8517087E-02  0.5532503E-02  0.4897307E+06  0.2779990E+02
  0.7619048E+00 -0.7138527E+05  0.4219234E+03 -0.6480788E-01 -0.2537203E-01  0.4904739E+06  0.4390938E+02
  0.7928572E+00 -0.7056340E+05  0.5886587E+03 -0.4257064E-01 -0.1315594E-01  0.4911678E+06  0.6876018E+02
  0.8238096E+00 -0.6974897E+05  0.8095231E+03 -0.5556669E-02 -0.6238461E-02  0.4916883E+06  0.1058160E+03
  0.8547620E+00 -0.6908780E+05  0.1099584E+04  0.2870522E-01  0.1556969E-01  0.4915431E+06  0.1586980E+03
  0.8857143E+00 -0.6843697E+05  0.1469344E+04 -0.1853697E-01 -0.2227783E-02  0.4916512E+06  0.2298570E+03
  0.9166667E+00 -0.6762049E+05  0.1932908E+04  0.1930930E-02 -0.5982399E-02  0.4922695E+06  0.3237349E+03
  0.9476191E+00 -0.6663430E+05  0.2504936E+04 -0.6073765E-01 -0.3469276E-01  0.4933120E+06  0.4500994E+03
  0.9785714E+00 -0.6553530E+05  0.3211106E+04 -0.2663271E-01 -0.1288033E-01  0.4942342E+06  0.6232404E+03
  0.1009524E+01 -0.6450997E+05  0.4074370E+04  0.4594911E-02 -0.5638123E-02  0.4950148E+06  0.8544984E+03
  0.1040476E+01 -0.6356827E+05  0.5118119E+04 -0.2721861E-01 -0.2667999E-01  0.4955623E+06  0.1160151E+04
  0.1071429E+01 -0.6270429E+05  0.6366578E+04 -0.1988119E-01 -0.3209686E-01  0.4958878E+06  0.1552691E+04
  0.1102381E+01 -0.6190474E+05  0.7823657E+04 -0.4761533E-02 -0.5470276E-02  0.4963814E+06  0.2036650E+04
  0.1133333E+01 -0.6109560E+05  0.9503628E+04 -0.2865062E-01 -0.2236938E-01  0.4968927E+06  0.2617628E+04
  0.1164286E+01 -0.6039119E+05  0.1140588E+05 -0.2369512E-01 -0.2079010E-01  0.4977262E+06  0.3315296E+04
  0.1195238E+01 -0.5972643E+05  0.1354109E+05  0.2011972E-01  0.2394104E-01  0.4986106E+06  0.4149477E+04
  0.1226190E+01 -0.5911464E+05  0.1593445E+05 -0.1533108E-01 -0.9216309E-02  0.4994449E+06  0.5143527E+04
  0.1257143E+01 -0.5864669E+05  0.1858412E+05 -0.5923184E-02 -0.2551270E-01  0.5003040E+06  0.6308114E+04
  0.1288095E+01 -0.5824750E+05  0.2139512E+05  0.9666344E-02 -0.2288818E-02  0.5011935E+06  0.7612332E+04
  0.1319048E+01 -0.5807105E+05  0.2447010E+05 -0.8051352E-02 -0.1145935E-01  0.5016980E+06  0.9093413E+04
  0.1350000E+01 -0.5809702E+05  0.2771525E+05 -0.1265914E-02 -0.6835938E-02  0.5022421E+06  0.1075238E+05
  0.1380952E+01 -0.5829285E+05  0.3110745E+05 -0.2651872E-02 -0.1190186E-01  0.5027988E+06  0.1259602E+05
  0.1411905E+01 -0.6103045E+05  0.3283764E+05 -0.5014558E-02 -0.5096436E-02  0.5004562E+06  0.1383034E+05
  0.1442857E+01 -0.6146807E+05  0.3632245E+05  0.9052541E-02 -0.6500244E-02  0.5010044E+06  0.1593535E+05
  0.1473810E+01 -0.6207377E+05  0.3988299E+05  0.1076743E-01 -0.8819580E-02  0.5014757E+06  0.1818733E+05
  0.1504762E+01 -0.6276169E+05  0.4352695E+05 -0.1468320E-01 -0.1925659E-01  0.5016546E+06  0.2058966E+05
  0.1535714E+01 -0.6369664E+05  0.4716553E+05 -0.4848746E-02 -0.2056885E-01  0.5019306E+06  0.2318817E+05
  0.1566667E+01 -0.6468186E+05  0.5075946E+05  0.7791722E-03  0.4516602E-02  0.5020727E+06  0.2586529E+05
  0.1597619E+01 -0.6582928E+05  0.5430238E+05 -0.1146115E-01 -0.2233887E-01  0.5022162E+06  0.2866785E+05
  0.1628572E+01 -0.6701684E+05  0.5783948E+05  0.7495545E-04 -0.2050781E-01  0.5021086E+06  0.3148904E+05
  0.1659524E+01 -0.6832273E+05  0.6122444E+05 -0.3604314E-02  0.1220703E-03  0.5020511E+06  0.3447272E+05
  0.1690476E+01 -0.6971291E+05  0.6451810E+05 -0.1061496E-01  0.2014160E-02  0.5018939E+06  0.3749162E+05
  0.1721429E+01 -0.7110357E+05  0.6773511E+05  0.1347332E-02  0.2593994E-01  0.5016111E+06  0.4060393E+05
  0.1752381E+01 -0.7254524E+05  0.7089413E+05 -0.2612239E-01 -0.3228760E-01  0.5010875E+06  0.4365555E+05
  0.1783333E+01 -0.7410820E+05  0.7384694E+05 -0.1191041E-01  0.8178711E-02  0.5006965E+06  0.4690603E+05
  0.1814286E+01 -0.7561388E+05  0.7666450E+05  0.2354900E-02  0.7202148E-02  0.5001737E+06  0.5008511E+05
  0.1845238E+01 -0.7719897E+05  0.7934652E+05 -0.1468624E-01 -0.3479004E-02  0.4996331E+06  0.5334608E+05
  0.1876190E+01 -0.7873374E+05  0.8198932E+05  0.6506286E-03  0.3051758E-03  0.4988794E+06  0.5642502E+05
  0.1907143E+01 -0.8028905E+05  0.8438744E+05  0.2368256E-02  0.4455566E-02  0.4982558E+06  0.5964862E+05
  0.1938095E+01 -0.8183116E+05  0.8664095E+05 -0.1215604E-01 -0.1721191E-01  0.4975335E+06  0.6275723E+05
  0.1969048E+01 -0.8336952E+05  0.8874430E+05 -0.6075471E-02 -0.2807617E-02  0.4968794E+06  0.6608888E+05
  0.2000000E+01 -0.8481567E+05  0.9088736E+05 -0.5187988E-02  0.9582520E-02  0.4959530E+06  0.6901680E+05
