VARIABLES="w (rad/s)"
"abs(F   1   1)" "angle(F   1   1)"
"abs(F   1   2)" "angle(F   1   2)"
"abs(F   1   3)" "angle(F   1   3)"
Zone t="Diffraction force - beta =   0.000 deg",I=    64,F=POINT
  0.5000000E-01  0.2642818E+04 -0.1570794E+01  0.5268434E+03 -0.3079928E+01  0.1073100E+04  0.1570796E+01
  0.8095238E-01  0.4321972E+04 -0.1570790E+01  0.1360723E+04 -0.3077520E+01  0.1770838E+04  0.1570797E+01
  0.1119048E+00  0.6033100E+04 -0.1570784E+01  0.2580009E+04 -0.3074732E+01  0.2467384E+04  0.1570797E+01
  0.1428571E+00  0.7795626E+04 -0.1570775E+01  0.4187356E+04 -0.3071298E+01  0.3176589E+04  0.1570798E+01
  0.1738095E+00  0.9631588E+04 -0.1570761E+01  0.6192665E+04 -0.3067051E+01  0.3913782E+04  0.1570798E+01
  0.2047619E+00  0.1155708E+05 -0.1570740E+01  0.8606374E+04 -0.3061783E+01  0.4676330E+04  0.1570799E+01
  0.2357143E+00  0.1360337E+05 -0.1570711E+01  0.1143542E+05 -0.3055130E+01  0.5473881E+04  0.1570800E+01
  0.2666667E+00  0.1579318E+05 -0.1570668E+01  0.1470966E+05 -0.3047182E+01  0.6319190E+04  0.1570802E+01
  0.2976190E+00  0.1815115E+05 -0.1570605E+01  0.1842143E+05 -0.3037134E+01  0.7225474E+04  0.1570802E+01
  0.3285715E+00  0.2073994E+05 -0.1570511E+01  0.2260042E+05 -0.3025219E+01  0.8185792E+04  0.1570802E+01
  0.3595238E+00  0.2356494E+05 -0.1570369E+01  0.2723884E+05 -0.3010807E+01  0.9238231E+04  0.1570802E+01
  0.3904762E+00  0.2666992E+05 -0.1570158E+01  0.3236862E+05 -0.2993914E+01  0.1036397E+05  0.1570797E+01
  0.4214286E+00  0.3011470E+05 -0.1569850E+01  0.3786175E+05 -0.2974902E+01  0.1156135E+05  0.1570784E+01
  0.4523810E+00  0.3389488E+05 -0.1569399E+01  0.4381149E+05 -0.2953161E+01  0.1284074E+05  0.1570759E+01
  0.4833333E+00  0.3796155E+05 -0.1568773E+01  0.5006619E+05 -0.2931272E+01  0.1428445E+05  0.1570718E+01
  0.5142857E+00  0.4237629E+05 -0.1567907E+01  0.5662058E+05 -0.2907612E+01  0.1574072E+05  0.1570638E+01
  0.5452381E+00  0.4712240E+05 -0.1566757E+01  0.6343748E+05 -0.2884183E+01  0.1722732E+05  0.1570504E+01
  0.5761905E+00  0.5212183E+05 -0.1565266E+01  0.7046633E+05 -0.2861336E+01  0.1879254E+05  0.1570295E+01
  0.6071429E+00  0.5731146E+05 -0.1563342E+01  0.7770114E+05 -0.2838111E+01  0.2040615E+05  0.1569985E+01
  0.6380953E+00  0.6271246E+05 -0.1560955E+01  0.8514803E+05 -0.2816554E+01  0.2200323E+05  0.1569524E+01
  0.6690477E+00  0.6833955E+05 -0.1558010E+01  0.9270423E+05 -0.2795241E+01  0.2354570E+05  0.1568843E+01
  0.7000000E+00  0.7413105E+05 -0.1554411E+01  0.1003754E+06 -0.2774055E+01  0.2500367E+05  0.1567861E+01
  0.7309524E+00  0.8004780E+05 -0.1550095E+01  0.1081900E+06 -0.2754105E+01  0.2654567E+05  0.1566568E+01
  0.7619048E+00  0.8602402E+05 -0.1544949E+01  0.1160754E+06 -0.2734780E+01  0.2809325E+05  0.1564854E+01
  0.7928572E+00  0.9208307E+05 -0.1538895E+01  0.1239990E+06 -0.2715961E+01  0.2946826E+05  0.1562484E+01
  0.8238096E+00  0.9822870E+05 -0.1531860E+01  0.1319228E+06 -0.2697639E+01  0.3077555E+05  0.1559383E+01
  0.8547620E+00  0.1043618E+06 -0.1523754E+01  0.1398485E+06 -0.2680049E+01  0.3196318E+05  0.1555315E+01
  0.8857143E+00  0.1105351E+06 -0.1514525E+01  0.1477550E+06 -0.2663304E+01  0.3311603E+05  0.1550182E+01
  0.9166667E+00  0.1165551E+06 -0.1504063E+01  0.1556337E+06 -0.2647449E+01  0.3418297E+05  0.1543707E+01
  0.9476191E+00  0.1224411E+06 -0.1492346E+01  0.1634204E+06 -0.2632263E+01  0.3528146E+05  0.1535899E+01
  0.9785714E+00  0.1280627E+06 -0.1479312E+01  0.1711160E+06 -0.2617845E+01  0.3627106E+05  0.1526285E+01
  0.1009524E+01  0.1334423E+06 -0.1464995E+01  0.1786854E+06 -0.2604047E+01  0.3718641E+05  0.1514742E+01
  0.1040476E+01  0.1384878E+06 -0.1449425E+01  0.1861296E+06 -0.2590967E+01  0.3800806E+05  0.1500980E+01
  0.1071429E+01  0.1431227E+06 -0.1432636E+01  0.1934398E+06 -0.2578731E+01  0.3875739E+05  0.1484818E+01
  0.1102381E+01  0.1472827E+06 -0.1414706E+01  0.2006025E+06 -0.2567366E+01  0.3958585E+05  0.1466763E+01
  0.1133333E+01  0.1507833E+06 -0.1395638E+01  0.2075855E+06 -0.2556712E+01  0.4046754E+05  0.1446757E+01
  0.1164286E+01  0.1536148E+06 -0.1375607E+01  0.2144113E+06 -0.2547021E+01  0.4152675E+05  0.1425769E+01
  0.1195238E+01  0.1556806E+06 -0.1354797E+01  0.2210643E+06 -0.2538109E+01  0.4270361E+05  0.1403969E+01
  0.1226190E+01  0.1568772E+06 -0.1333408E+01  0.2275595E+06 -0.2530169E+01  0.4396641E+05  0.1381606E+01
  0.1257143E+01  0.1572080E+06 -0.1311535E+01  0.2339091E+06 -0.2522671E+01  0.4541561E+05  0.1359914E+01
  0.1288095E+01  0.1566184E+06 -0.1290061E+01  0.2399710E+06 -0.2516202E+01  0.4711363E+05  0.1340790E+01
  0.1319048E+01  0.1549702E+06 -0.1268492E+01  0.2458514E+06 -0.2509904E+01  0.4891316E+05  0.1323161E+01
  0.1350000E+01  0.1524111E+06 -0.1247599E+01  0.2515667E+06 -0.2504478E+01  0.5100993E+05  0.1309699E+01
  0.1380952E+01  0.1488466E+06 -0.1227598E+01  0.2570862E+06 -0.2499822E+01  0.5328760E+05  0.1300093E+01
  0.1411905E+01  0.1440645E+06 -0.1209214E+01  0.2614661E+06 -0.2496181E+01  0.5593136E+05  0.1296986E+01
  0.1442857E+01  0.1386449E+06 -0.1192076E+01  0.2666372E+06 -0.2492730E+01  0.5851884E+05  0.1295807E+01
  0.1473810E+01  0.1323563E+06 -0.1177023E+01  0.2716505E+06 -0.2489563E+01  0.6139090E+05  0.1300658E+01
  0.1504762E+01  0.1251640E+06 -0.1164605E+01  0.2764656E+06 -0.2486706E+01  0.6436781E+05  0.1309750E+01
  0.1535714E+01  0.1171818E+06 -0.1155489E+01  0.2811071E+06 -0.2484052E+01  0.6748111E+05  0.1323529E+01
  0.1566667E+01  0.1085421E+06 -0.1150842E+01  0.2855729E+06 -0.2481719E+01  0.7077752E+05  0.1342110E+01
  0.1597619E+01  0.9923428E+05 -0.1151638E+01  0.2898353E+06 -0.2479296E+01  0.7415017E+05  0.1364438E+01
  0.1628572E+01  0.8940615E+05 -0.1159789E+01  0.2938974E+06 -0.2476882E+01  0.7767051E+05  0.1390608E+01
  0.1659524E+01  0.7913115E+05 -0.1178266E+01  0.2977070E+06 -0.2474247E+01  0.8121604E+05  0.1419621E+01
  0.1690476E+01  0.6860641E+05 -0.1211522E+01  0.3012229E+06 -0.2471263E+01  0.8490245E+05  0.1451723E+01
  0.1721429E+01  0.5796923E+05 -0.1267004E+01  0.3044233E+06 -0.2467775E+01  0.8872082E+05  0.1486203E+01
  0.1752381E+01  0.4745759E+05 -0.1359082E+01  0.3071923E+06 -0.2463640E+01  0.9256369E+05  0.1522226E+01
  0.1783333E+01  0.3765588E+05 -0.1514961E+01  0.3094655E+06 -0.2459060E+01  0.9656468E+05  0.1560123E+01
  0.1814286E+01  0.2958432E+05 -0.1782680E+01  0.3111601E+06 -0.2454020E+01  0.1006528E+06  0.1599024E+01
  0.1845238E+01  0.2522962E+05 -0.2202976E+01  0.3121979E+06 -0.2448385E+01  0.1048581E+06  0.1638699E+01
  0.1876190E+01  0.2670789E+05 -0.2677486E+01  0.3124809E+06 -0.2442523E+01  0.1092384E+06  0.1678970E+01
  0.1907143E+01  0.3333015E+05 -0.3029723E+01  0.3119563E+06 -0.2436593E+01  0.1136438E+06  0.1719326E+01
  0.1938095E+01  0.4276249E+05  0.3040390E+01  0.3106235E+06 -0.2430712E+01  0.1181335E+06  0.1759607E+01
  0.1969048E+01  0.5343256E+05  0.2912523E+01  0.3083872E+06 -0.2425010E+01  0.1227808E+06  0.1799705E+01
  0.2000000E+01  0.6466108E+05  0.2831227E+01  0.3052693E+06 -0.2419887E+01  0.1275031E+06  0.1839038E+01
