VARIABLES="w (rad/s)"
"abs(F   1   1)" "angle(F   1   1)"
"abs(F   1   2)" "angle(F   1   2)"
"abs(F   1   3)" "angle(F   1   3)"
Zone t="Diffraction force - beta =   0.000 deg",I=    64,F=POINT
  0.5000000E-01  0.4476361E+03 -0.1570795E+01  0.1857727E+03 -0.3106921E+01  0.1812848E+03  0.1570795E+01
  0.8095238E-01  0.7306989E+03 -0.1570793E+01  0.4837586E+03 -0.3105842E+01  0.2985641E+03  0.1570792E+01
  0.1119048E+00  0.1019575E+04 -0.1570790E+01  0.9205491E+03 -0.3104391E+01  0.4189846E+03  0.1570789E+01
  0.1428571E+00  0.1324546E+04 -0.1570785E+01  0.1496442E+04 -0.3102499E+01  0.5475966E+03  0.1570783E+01
  0.1738095E+00  0.1636885E+04 -0.1570778E+01  0.2213854E+04 -0.3100096E+01  0.6849039E+03  0.1570775E+01
  0.2047619E+00  0.1974025E+04 -0.1570768E+01  0.3074516E+04 -0.3097056E+01  0.8374414E+03  0.1570763E+01
  0.2357143E+00  0.2323887E+04 -0.1570754E+01  0.4075820E+04 -0.3093135E+01  0.9955796E+03  0.1570746E+01
  0.2666667E+00  0.2710308E+04 -0.1570732E+01  0.5232893E+04 -0.3088456E+01  0.1187328E+04  0.1570724E+01
  0.2976190E+00  0.3137271E+04 -0.1570700E+01  0.6524221E+04 -0.3082376E+01  0.1390355E+04  0.1570689E+01
  0.3285715E+00  0.3586266E+04 -0.1570652E+01  0.7982511E+04 -0.3075239E+01  0.1617692E+04  0.1570640E+01
  0.3595238E+00  0.4093063E+04 -0.1570580E+01  0.9566175E+04 -0.3066325E+01  0.1883788E+04  0.1570570E+01
  0.3904762E+00  0.4664936E+04 -0.1570473E+01  0.1131758E+05 -0.3055899E+01  0.2194716E+04  0.1570469E+01
  0.4214286E+00  0.5299993E+04 -0.1570316E+01  0.1317714E+05 -0.3044003E+01  0.2528528E+04  0.1570324E+01
  0.4523810E+00  0.5966130E+04 -0.1570082E+01  0.1517577E+05 -0.3030256E+01  0.2910848E+04  0.1570118E+01
  0.4833333E+00  0.6749124E+04 -0.1569762E+01  0.1728275E+05 -0.3016323E+01  0.3380293E+04  0.1569858E+01
  0.5142857E+00  0.7608683E+04 -0.1569318E+01  0.1945852E+05 -0.3000933E+01  0.3894014E+04  0.1569511E+01
  0.5452381E+00  0.8492487E+04 -0.1568719E+01  0.2176716E+05 -0.2985908E+01  0.4454969E+04  0.1569066E+01
  0.5761905E+00  0.9414598E+04 -0.1567933E+01  0.2407650E+05 -0.2970504E+01  0.5029612E+04  0.1568491E+01
  0.6071429E+00  0.1046415E+05 -0.1566934E+01  0.2646927E+05 -0.2954804E+01  0.5751054E+04  0.1567847E+01
  0.6380953E+00  0.1156454E+05 -0.1565684E+01  0.2896529E+05 -0.2940341E+01  0.6530446E+04  0.1567095E+01
  0.6690477E+00  0.1271359E+05 -0.1564129E+01  0.3141594E+05 -0.2925206E+01  0.7307407E+04  0.1566168E+01
  0.7000000E+00  0.1385681E+05 -0.1562188E+01  0.3392100E+05 -0.2910182E+01  0.8152852E+04  0.1565101E+01
  0.7309524E+00  0.1502057E+05 -0.1559827E+01  0.3652079E+05 -0.2896286E+01  0.9110583E+04  0.1563947E+01
  0.7619048E+00  0.1635185E+05 -0.1557076E+01  0.3901332E+05 -0.2881548E+01  0.1011925E+05  0.1562631E+01
  0.7928572E+00  0.1773182E+05 -0.1553811E+01  0.4152931E+05 -0.2867170E+01  0.1125301E+05  0.1561274E+01
  0.8238096E+00  0.1910942E+05 -0.1549932E+01  0.4406848E+05 -0.2853408E+01  0.1241940E+05  0.1559767E+01
  0.8547620E+00  0.2049392E+05 -0.1545375E+01  0.4658582E+05 -0.2840016E+01  0.1365530E+05  0.1558168E+01
  0.8857143E+00  0.2189668E+05 -0.1540080E+01  0.4897117E+05 -0.2826069E+01  0.1487854E+05  0.1556349E+01
  0.9166667E+00  0.2330850E+05 -0.1533993E+01  0.5136221E+05 -0.2812869E+01  0.1626320E+05  0.1554582E+01
  0.9476191E+00  0.2484588E+05 -0.1527271E+01  0.5371834E+05 -0.2800247E+01  0.1781190E+05  0.1552835E+01
  0.9785714E+00  0.2640723E+05 -0.1519677E+01  0.5603686E+05 -0.2788296E+01  0.1947740E+05  0.1551257E+01
  0.1009524E+01  0.2798003E+05 -0.1511159E+01  0.5814129E+05 -0.2775460E+01  0.2103097E+05  0.1549428E+01
  0.1040476E+01  0.2956299E+05 -0.1501660E+01  0.6019418E+05 -0.2763238E+01  0.2278554E+05  0.1547957E+01
  0.1071429E+01  0.3106360E+05 -0.1490975E+01  0.6216993E+05 -0.2751654E+01  0.2457670E+05  0.1546597E+01
  0.1102381E+01  0.3249996E+05 -0.1479074E+01  0.6408086E+05 -0.2740909E+01  0.2647353E+05  0.1545488E+01
  0.1133333E+01  0.3386875E+05 -0.1465955E+01  0.6588432E+05 -0.2730680E+01  0.2846018E+05  0.1544624E+01
  0.1164286E+01  0.3521820E+05 -0.1451936E+01  0.6744647E+05 -0.2719637E+01  0.3034100E+05  0.1543450E+01
  0.1195238E+01  0.3666444E+05 -0.1437540E+01  0.6892416E+05 -0.2709204E+01  0.3255131E+05  0.1542874E+01
  0.1226190E+01  0.3794570E+05 -0.1421763E+01  0.7029066E+05 -0.2699376E+01  0.3476975E+05  0.1542864E+01
  0.1257143E+01  0.3905930E+05 -0.1404570E+01  0.7155925E+05 -0.2690078E+01  0.3702307E+05  0.1543283E+01
  0.1288095E+01  0.4010270E+05 -0.1386487E+01  0.7269663E+05 -0.2682146E+01  0.3945752E+05  0.1544612E+01
  0.1319048E+01  0.4094939E+05 -0.1367228E+01  0.7362516E+05 -0.2673636E+01  0.4175575E+05  0.1545827E+01
  0.1350000E+01  0.4167025E+05 -0.1347577E+01  0.7433338E+05 -0.2664888E+01  0.4399067E+05  0.1546985E+01
  0.1380952E+01  0.4229465E+05 -0.1327899E+01  0.7492634E+05 -0.2656865E+01  0.4645818E+05  0.1548839E+01
  0.1411905E+01  0.4255209E+05 -0.1306571E+01  0.7537458E+05 -0.2649439E+01  0.4882994E+05  0.1551258E+01
  0.1442857E+01  0.4263187E+05 -0.1284880E+01  0.7569797E+05 -0.2642902E+01  0.5122280E+05  0.1554157E+01
  0.1473810E+01  0.4247435E+05 -0.1262641E+01  0.7591485E+05 -0.2637308E+01  0.5371969E+05  0.1557930E+01
  0.1504762E+01  0.4207201E+05 -0.1240449E+01  0.7598872E+05 -0.2632469E+01  0.5620717E+05  0.1561629E+01
  0.1535714E+01  0.4140986E+05 -0.1219255E+01  0.7574774E+05 -0.2626493E+01  0.5829083E+05  0.1564121E+01
  0.1566667E+01  0.4048845E+05 -0.1198108E+01  0.7536812E+05 -0.2621204E+01  0.6035314E+05  0.1567503E+01
  0.1597619E+01  0.3931946E+05 -0.1177722E+01  0.7486790E+05 -0.2616658E+01  0.6248141E+05  0.1571241E+01
  0.1628572E+01  0.3779984E+05 -0.1157700E+01  0.7423816E+05 -0.2613023E+01  0.6442955E+05  0.1574782E+01
  0.1659524E+01  0.3600088E+05 -0.1139274E+01  0.7348323E+05 -0.2610562E+01  0.6627102E+05  0.1577875E+01
  0.1690476E+01  0.3394795E+05 -0.1122865E+01  0.7262675E+05 -0.2609269E+01  0.6808681E+05  0.1580856E+01
  0.1721429E+01  0.3161767E+05 -0.1108135E+01  0.7166170E+05 -0.2609083E+01  0.6981592E+05  0.1584068E+01
  0.1752381E+01  0.2900656E+05 -0.1096843E+01  0.7049090E+05 -0.2608962E+01  0.7112027E+05  0.1585711E+01
  0.1783333E+01  0.2614778E+05 -0.1090775E+01  0.6912920E+05 -0.2609315E+01  0.7202455E+05  0.1585689E+01
  0.1814286E+01  0.2311850E+05 -0.1092024E+01  0.6769580E+05 -0.2611051E+01  0.7290994E+05  0.1585385E+01
  0.1845238E+01  0.1990241E+05 -0.1103341E+01  0.6620827E+05 -0.2613875E+01  0.7368843E+05  0.1584903E+01
  0.1876190E+01  0.1646704E+05 -0.1130337E+01  0.6466173E+05 -0.2618170E+01  0.7421464E+05  0.1583246E+01
  0.1907143E+01  0.1291519E+05 -0.1187711E+01  0.6308028E+05 -0.2624107E+01  0.7454961E+05  0.1580353E+01
  0.1938095E+01  0.9356852E+04 -0.1310737E+01  0.6149739E+05 -0.2631469E+01  0.7474038E+05  0.1576516E+01
  0.1969048E+01  0.6099665E+04 -0.1607121E+01  0.5991252E+05 -0.2639906E+01  0.7480506E+05  0.1571987E+01
  0.2000000E+01  0.4375253E+04 -0.2338669E+01  0.5833375E+05 -0.2649576E+01  0.7471460E+05  0.1566229E+01
