VARIABLES="w (rad/s)"
"A   1   1" "B   1   1"
"A   1   2" "B   1   2"
"A   1   3" "B   1   3"
Zone t="Motion of body    1 in DoF   1",I=    64,F=POINT
  0.5000000E-01  0.1349962E+06  0.1767217E-01 -0.8392334E-03 -0.1326068E-04  0.1013904E+06  0.2307136E-01
  0.8095238E-01  0.1355439E+06  0.7790515E-01  0.5235335E-01  0.2345477E-03  0.1010233E+06  0.1012949E+00
  0.1119048E+00  0.1356538E+06  0.2183433E+00 -0.7499532E-02 -0.3252691E-04  0.1009403E+06  0.2841388E+00
  0.1428571E+00  0.1358649E+06  0.4910175E+00  0.1084137E-01  0.3036903E-03  0.1014183E+06  0.6409056E+00
  0.1738095E+00  0.1359660E+06  0.9761954E+00  0.5311313E-02  0.3125621E-03  0.1014796E+06  0.1275194E+01
  0.2047619E+00  0.1362074E+06  0.1798662E+01 -0.4180553E-01 -0.5673915E-03  0.1019679E+06  0.2354092E+01
  0.2357143E+00  0.1364189E+06  0.3161724E+01 -0.1501835E-01 -0.4781559E-03  0.1022506E+06  0.4145780E+01
  0.2666667E+00  0.1366987E+06  0.5384901E+01  0.1705170E-01  0.5177706E-03  0.1027941E+06  0.7080294E+01
  0.2976190E+00  0.1370489E+06  0.9012936E+01  0.3947754E-02 -0.2334267E-03  0.1034519E+06  0.1188523E+02
  0.3285715E+00  0.1373926E+06  0.1487603E+02  0.1198146E-01  0.6071627E-03  0.1039448E+06  0.1967685E+02
  0.3595238E+00  0.1377799E+06  0.2435989E+02 -0.1706155E-01 -0.1853704E-03  0.1046512E+06  0.3233239E+02
  0.3904762E+00  0.1382542E+06  0.3960857E+02  0.2461875E-01  0.3198087E-03  0.1055201E+06  0.5277995E+02
  0.4214286E+00  0.1388502E+06  0.6350674E+02  0.1267255E-01  0.2940297E-03  0.1065898E+06  0.8499226E+02
  0.4523810E+00  0.1393774E+06  0.1009144E+03 -0.1409912E-01 -0.1212478E-02  0.1073737E+06  0.1355854E+03
  0.4833333E+00  0.1400840E+06  0.1563774E+03 -0.3156991E-03  0.2945662E-03  0.1087996E+06  0.2112064E+03
  0.5142857E+00  0.1408458E+06  0.2382837E+03 -0.1910740E-01 -0.2635479E-02  0.1100588E+06  0.3233609E+03
  0.5452381E+00  0.1416100E+06  0.3542826E+03 -0.1511220E-02  0.1354933E-02  0.1112160E+06  0.4830575E+03
  0.5761905E+00  0.1424233E+06  0.5141997E+03  0.4989245E-01  0.8677483E-02  0.1125267E+06  0.7047379E+03
  0.6071429E+00  0.1433829E+06  0.7323284E+03 -0.1075655E-01 -0.1971722E-02  0.1143040E+06  0.1009504E+04
  0.6380953E+00  0.1444159E+06  0.1019459E+04 -0.8799993E-02 -0.7371902E-03  0.1160716E+06  0.1413495E+04
  0.6690477E+00  0.1454932E+06  0.1394063E+04 -0.3712936E-01 -0.4803658E-02  0.1178452E+06  0.1944213E+04
  0.7000000E+00  0.1465988E+06  0.1876447E+04  0.9591239E-02  0.5178452E-02  0.1195872E+06  0.2632158E+04
  0.7309524E+00  0.1477869E+06  0.2484630E+04 -0.2004021E-01 -0.7926941E-02  0.1215641E+06  0.3506867E+04
  0.7619048E+00  0.1490593E+06  0.3243869E+04 -0.1786423E-01 -0.2853394E-02  0.1239439E+06  0.4609952E+04
  0.7928572E+00  0.1503713E+06  0.4180017E+04  0.2740533E-01  0.1036072E-01  0.1262694E+06  0.5980523E+04
  0.8238096E+00  0.1516602E+06  0.5319183E+04 -0.4141570E-01 -0.5157471E-02  0.1285567E+06  0.7662597E+04
  0.8547620E+00  0.1529654E+06  0.6688384E+04  0.1378136E-01 -0.1762390E-02  0.1308160E+06  0.9701159E+04
  0.8857143E+00  0.1542365E+06  0.8314224E+04  0.2866684E-01  0.7934570E-03  0.1330988E+06  0.1214437E+05
  0.9166667E+00  0.1554615E+06  0.1022195E+05  0.3662109E-02  0.1138306E-01  0.1353281E+06  0.1503751E+05
  0.9476191E+00  0.1565727E+06  0.1243367E+05  0.1835655E-01  0.1416779E-01  0.1376200E+06  0.1843052E+05
  0.9785714E+00  0.1576541E+06  0.1497026E+05  0.2239144E-01  0.8163452E-02  0.1398778E+06  0.2236170E+05
  0.1009524E+01  0.1585568E+06  0.1784608E+05 -0.1735184E-01 -0.7369995E-02  0.1418387E+06  0.2686448E+05
  0.1040476E+01  0.1592655E+06  0.2106585E+05  0.1489984E-01 -0.3295898E-02  0.1435173E+06  0.3196381E+05
  0.1071429E+01  0.1597677E+06  0.2463180E+05 -0.3417969E-02 -0.6057739E-02  0.1447716E+06  0.3766982E+05
  0.1102381E+01  0.1599829E+06  0.2852814E+05  0.1827100E-01  0.1129150E-02  0.1456731E+06  0.4398347E+05
  0.1133333E+01  0.1599560E+06  0.3273213E+05  0.2477309E-02  0.1910400E-01  0.1461747E+06  0.5087261E+05
  0.1164286E+01  0.1596349E+06  0.3721229E+05  0.1404932E-01  0.1989746E-01  0.1462765E+06  0.5830738E+05
  0.1195238E+01  0.1589967E+06  0.4191891E+05  0.2400068E-01  0.3735352E-01  0.1459782E+06  0.6623387E+05
  0.1226190E+01  0.1581028E+06  0.4680855E+05  0.4977624E-02 -0.2108765E-01  0.1451843E+06  0.7457595E+05
  0.1257143E+01  0.1568630E+06  0.5188637E+05 -0.5243475E-02  0.1647949E-02  0.1439072E+06  0.8337462E+05
  0.1288095E+01  0.1553467E+06  0.5690704E+05 -0.1611057E-01 -0.1391602E-01  0.1420906E+06  0.9221816E+05
  0.1319048E+01  0.1535556E+06  0.6198754E+05 -0.1378910E-01 -0.5493164E-02  0.1398625E+06  0.1013200E+06
  0.1350000E+01  0.1515300E+06  0.6700973E+05  0.2070674E-01  0.2929688E-02  0.1371642E+06  0.1104566E+06
  0.1380952E+01  0.1492672E+06  0.7189832E+05 -0.1520407E-01 -0.2026367E-01  0.1340890E+06  0.1195556E+06
  0.1411905E+01  0.1463748E+06  0.7647980E+05 -0.1184473E-01 -0.3723145E-02  0.1295489E+06  0.1283459E+06
  0.1442857E+01  0.1437717E+06  0.8105545E+05  0.9221748E-02 -0.8544922E-03  0.1257381E+06  0.1372082E+06
  0.1473810E+01  0.1410632E+06  0.8537969E+05 -0.5466541E-02 -0.2667236E-01  0.1216551E+06  0.1457831E+06
  0.1504762E+01  0.1382731E+06  0.8941732E+05  0.4461747E-02 -0.2264404E-01  0.1173579E+06  0.1539935E+06
  0.1535714E+01  0.1354038E+06  0.9316503E+05 -0.3306686E-01 -0.3735352E-01  0.1128794E+06  0.1618276E+06
  0.1566667E+01  0.1325314E+06  0.9660329E+05  0.1083049E-01 -0.1159668E-01  0.1082341E+06  0.1692205E+06
  0.1597619E+01  0.1296484E+06  0.9970112E+05 -0.3056306E-02 -0.2197266E-02  0.1035555E+06  0.1761633E+06
  0.1628572E+01  0.1268187E+06  0.1024991E+06 -0.4872104E-02 -0.7934570E-02  0.9879598E+05  0.1826423E+06
  0.1659524E+01  0.1240097E+06  0.1049747E+06  0.1081294E-01  0.5981445E-02  0.9407083E+05  0.1886510E+06
  0.1690476E+01  0.1212685E+06  0.1071463E+06  0.7365481E-02 -0.1708984E-02  0.8937625E+05  0.1941888E+06
  0.1721429E+01  0.1186339E+06  0.1090176E+06 -0.2155731E-01 -0.1867676E-01  0.8472818E+05  0.1992038E+06
  0.1752381E+01  0.1160724E+06  0.1106004E+06  0.1602173E-02  0.5859375E-02  0.8018410E+05  0.2037762E+06
  0.1783333E+01  0.1136100E+06  0.1119280E+06 -0.5441826E-02 -0.7812500E-02  0.7572541E+05  0.2078761E+06
  0.1814286E+01  0.1112583E+06  0.1130048E+06  0.8814054E-02  0.6835938E-02  0.7137030E+05  0.2115394E+06
  0.1845238E+01  0.1090117E+06  0.1138068E+06 -0.7310043E-02  0.1135254E-01  0.6720872E+05  0.2147989E+06
  0.1876190E+01  0.1068966E+06  0.1144423E+06  0.1041006E-01 -0.1037598E-01  0.6313598E+05  0.2176666E+06
  0.1907143E+01  0.1048753E+06  0.1148706E+06 -0.1568169E-02  0.4882812E-03  0.5922284E+05  0.2201665E+06
  0.1938095E+01  0.1029392E+06  0.1151120E+06 -0.7337715E-02  0.1098633E-01  0.5547144E+05  0.2223342E+06
  0.1969048E+01  0.1011454E+06  0.1152041E+06 -0.2036523E-01 -0.3002930E-01  0.5182046E+05  0.2241080E+06
  0.2000000E+01  0.9946649E+05  0.1151106E+06 -0.2197266E-02  0.2014160E-01  0.4837739E+05  0.2255962E+06
Zone t="Motion of body    1 in DoF   2",I=    64,F=POINT
  0.5000000E-01 -0.1342773E-01  0.6294250E-04  0.2946334E+06  0.9290871E+03  0.4882812E-02  0.1049042E-03
  0.8095238E-01  0.1291163E-01 -0.6771088E-04  0.2901078E+06  0.1539418E+04  0.1055549E-01 -0.0000000E+00
  0.1119048E+00 -0.3545234E-02  0.7629395E-04  0.2877804E+06  0.2202228E+04  0.1799888E-01  0.4577637E-04
  0.1428571E+00  0.1484680E-01  0.1125336E-03  0.2864593E+06  0.2941471E+04 -0.2050781E-01 -0.1754761E-03
  0.1738095E+00 -0.1606562E-01  0.1678467E-03  0.2859381E+06  0.3788093E+04  0.9832513E-02  0.5340576E-04
  0.2047619E+00  0.1579817E-01 -0.1277924E-03  0.2860652E+06  0.4779285E+04 -0.2265398E-01 -0.1525879E-04
  0.2357143E+00 -0.2692945E-01 -0.1449585E-03  0.2866831E+06  0.5968131E+04 -0.7768110E-02  0.4119873E-03
  0.2666667E+00  0.2746582E-02 -0.3204346E-03  0.2876315E+06  0.7398113E+04  0.1373291E-01 -0.2136230E-03
  0.2976190E+00  0.1743164E-02  0.7362366E-03  0.2887904E+06  0.9167194E+04  0.3117188E-01  0.1525879E-04
  0.3285715E+00 -0.2600628E-01  0.3814697E-03  0.2902358E+06  0.1132343E+05  0.1300314E-01 -0.9155273E-03
  0.3595238E+00 -0.4583700E-02  0.7247925E-03  0.2913782E+06  0.1398068E+05 -0.1358133E-02  0.9155273E-04
  0.3904762E+00  0.3141822E-01  0.2059937E-03  0.2925059E+06  0.1722043E+05  0.9378572E-02  0.4577637E-03
  0.4214286E+00 -0.6227654E-02 -0.4653931E-03  0.2927398E+06  0.2099005E+05  0.5793167E-02 -0.1831055E-03
  0.4523810E+00 -0.2698396E-01  0.3356934E-03  0.2925495E+06  0.2547594E+05 -0.2428557E-01  0.4882812E-03
  0.4833333E+00 -0.3409550E-02 -0.7629395E-03  0.2912609E+06  0.3028085E+05 -0.4040948E-02  0.3051758E-03
  0.5142857E+00 -0.1222399E-01  0.1831055E-03  0.2890297E+06  0.3563317E+05  0.4747179E-03 -0.1159668E-02
  0.5452381E+00  0.4287387E-01  0.9460449E-03  0.2861963E+06  0.4121144E+05  0.2820944E-01  0.1525879E-02
  0.5761905E+00  0.1027509E-01  0.2532959E-02  0.2826794E+06  0.4690682E+05 -0.2288062E-01  0.4394531E-02
  0.6071429E+00  0.2111098E-02 -0.4425049E-02  0.2784475E+06  0.5285885E+05  0.6031709E-02  0.2075195E-02
  0.6380953E+00 -0.2123477E-01 -0.5950928E-02  0.2740464E+06  0.5868768E+05  0.4973909E-02 -0.3173828E-02
  0.6690477E+00 -0.2308041E-01 -0.1312256E-02  0.2692606E+06  0.6453662E+05 -0.1970501E-01 -0.4272461E-02
  0.7000000E+00 -0.3487723E-03  0.4455566E-02  0.2641277E+06  0.7042650E+05  0.5929129E-02  0.3540039E-02
  0.7309524E+00 -0.9101594E-02  0.1159668E-02  0.2589442E+06  0.7615965E+05 -0.2705428E-01 -0.2441406E-02
  0.7619048E+00  0.1762390E-02 -0.1190186E-02  0.2535952E+06  0.8177739E+05  0.1409912E-01 -0.3173828E-02
  0.7928572E+00  0.5542651E-02  0.7934570E-02  0.2480474E+06  0.8727352E+05 -0.1293285E-01  0.1464844E-02
  0.8238096E+00  0.1155787E-01  0.2502441E-02  0.2424394E+06  0.9259632E+05 -0.1481778E-01  0.2441406E-02
  0.8547620E+00 -0.1935103E-01  0.1953125E-02  0.2369329E+06  0.9768130E+05 -0.1713745E-02  0.9765625E-03
  0.8857143E+00 -0.4685925E-02 -0.6408691E-02  0.2314603E+06  0.1025176E+06  0.2756426E-03  0.1464844E-02
  0.9166667E+00  0.2996271E-02  0.2624512E-02  0.2260045E+06  0.1071002E+06 -0.7723721E-02  0.6591797E-02
  0.9476191E+00 -0.1024102E-01 -0.5859375E-02  0.2205783E+06  0.1114236E+06 -0.7471439E-02  0.1708984E-02
  0.9785714E+00  0.1197536E-01 -0.7324219E-02  0.2152747E+06  0.1154410E+06 -0.9480498E-02 -0.2197266E-02
  0.1009524E+01 -0.1717046E-01  0.2258301E-02  0.2100673E+06  0.1191685E+06 -0.2007251E-01 -0.7568359E-02
  0.1040476E+01 -0.1325734E-01 -0.8666992E-02  0.2050197E+06  0.1225770E+06  0.1783288E-01  0.1953125E-02
  0.1071429E+01  0.5696615E-02 -0.2990723E-02  0.2001702E+06  0.1256563E+06 -0.4329427E-02  0.1708984E-02
  0.1102381E+01  0.7917433E-02 -0.4882812E-03  0.1955122E+06  0.1284170E+06 -0.1173773E-01 -0.8789062E-02
  0.1133333E+01  0.1717960E-01  0.1538086E-01  0.1910291E+06  0.1308629E+06  0.1184800E-01 -0.4882812E-03
  0.1164286E+01 -0.7339196E-02  0.4699707E-02  0.1867600E+06  0.1330055E+06 -0.1362994E-01 -0.4394531E-02
  0.1195238E+01 -0.6740616E-02 -0.2075195E-02  0.1826758E+06  0.1348467E+06  0.6332093E-02 -0.4882812E-02
  0.1226190E+01  0.2289707E-02  0.1281738E-02  0.1788595E+06  0.1363849E+06  0.1533108E-01 -0.5371094E-02
  0.1257143E+01 -0.1674999E-01  0.7629395E-02  0.1752488E+06  0.1377688E+06  0.3301447E-02  0.6835938E-02
  0.1288095E+01 -0.6538997E-02 -0.7690430E-02  0.1718297E+06  0.1386915E+06 -0.1326753E-02  0.1269531E-01
  0.1319048E+01 -0.2035974E-02  0.6835938E-02  0.1686512E+06  0.1394635E+06 -0.9439516E-02 -0.2929688E-02
  0.1350000E+01  0.1718027E-02 -0.2856445E-01  0.1657090E+06  0.1399935E+06  0.7776331E-02  0.1464844E-02
  0.1380952E+01 -0.1237540E-02 -0.4882812E-03  0.1629885E+06  0.1402966E+06  0.1396653E-01  0.4882812E-03
  0.1411905E+01 -0.1785355E-01  0.1782227E-01  0.1604710E+06  0.1401517E+06  0.9164536E-02  0.1367188E-01
  0.1442857E+01  0.2538096E-01  0.4882812E-02  0.1582364E+06  0.1401910E+06 -0.5753017E-02  0.7324219E-02
  0.1473810E+01 -0.1126439E-01  0.9765625E-02  0.1562457E+06  0.1400658E+06 -0.3445577E-01 -0.3417969E-02
  0.1504762E+01 -0.5921955E-02  0.4516602E-02  0.1544690E+06  0.1398640E+06 -0.1297963E-02  0.4882812E-02
  0.1535714E+01 -0.2563476E-01  0.9765625E-02  0.1529128E+06  0.1396155E+06  0.5564135E-02  0.9765625E-02
  0.1566667E+01 -0.8064432E-02 -0.7324219E-03  0.1515758E+06  0.1393411E+06 -0.1137591E-01 -0.2636719E-01
  0.1597619E+01 -0.9168918E-03  0.8789062E-02  0.1504073E+06  0.1390968E+06  0.2597860E-02  0.1708984E-01
  0.1628572E+01  0.1735219E-01  0.2319336E-02  0.1493990E+06  0.1389599E+06 -0.8694832E-02  0.3027344E-01
  0.1659524E+01  0.1471149E-02 -0.1708984E-02  0.1485113E+06  0.1389781E+06 -0.3677872E-02 -0.9277344E-02
  0.1690476E+01 -0.4729794E-02 -0.2075195E-02  0.1477456E+06  0.1391446E+06 -0.1444212E-02  0.3125000E-01
  0.1721429E+01 -0.3581067E-02 -0.1623535E-01  0.1470238E+06  0.1394717E+06 -0.2056454E-01 -0.9277344E-02
  0.1752381E+01 -0.1212079E-01  0.6469727E-02  0.1463377E+06  0.1399991E+06 -0.7662566E-02  0.1025391E-01
  0.1783333E+01 -0.4859996E-02  0.3784180E-02  0.1456415E+06  0.1407255E+06 -0.3285631E-02 -0.9765625E-03
  0.1814286E+01  0.3364143E-02  0.6958008E-02  0.1449103E+06  0.1415943E+06  0.4171537E-02 -0.4882812E-03
  0.1845238E+01 -0.1127930E-01  0.2014160E-01  0.1441116E+06  0.1425347E+06  0.1058468E-01  0.7812500E-02
  0.1876190E+01 -0.8197920E-02  0.1818848E-01  0.1432576E+06  0.1435851E+06  0.7417166E-02 -0.2099609E-01
  0.1907143E+01 -0.1539366E-01 -0.3540039E-02  0.1423101E+06  0.1446655E+06 -0.6784732E-02  0.9277344E-02
  0.1938095E+01 -0.4094004E-02 -0.2441406E-02  0.1412692E+06  0.1456683E+06 -0.4156989E-02  0.1464844E-01
  0.1969048E+01  0.3409703E-03  0.1220703E-02  0.1402041E+06  0.1465499E+06 -0.1041509E-01  0.3417969E-02
  0.2000000E+01  0.7385254E-02  0.1745605E-01  0.1391144E+06  0.1472898E+06  0.3173828E-02  0.2148438E-01
Zone t="Motion of body    1 in DoF   3",I=    64,F=POINT
  0.5000000E-01  0.1013141E+06  0.2308887E-01  0.3158569E-01  0.8374480E-04  0.4770970E+06  0.3051355E-01
  0.8095238E-01  0.1010110E+06  0.1017476E+00  0.1187493E-01  0.9915914E-04  0.4770392E+06  0.1326126E+00
  0.1119048E+00  0.1009689E+06  0.2854055E+00  0.1854430E-01  0.2111357E-03  0.4768658E+06  0.3713928E+00
  0.1428571E+00  0.1014602E+06  0.6433537E+00 -0.5276489E-01 -0.5652695E-03  0.4780186E+06  0.8384394E+00
  0.1738095E+00  0.1015437E+06  0.1281107E+01  0.2563477E-01  0.2277149E-03  0.4780688E+06  0.1672643E+01
  0.2047619E+00  0.1020259E+06  0.2364384E+01  0.1266834E-01  0.5947426E-05  0.4790261E+06  0.3095029E+01
  0.2357143E+00  0.1022884E+06  0.4165654E+01 -0.1993815E-01 -0.1403876E-03  0.4791458E+06  0.5463137E+01
  0.2666667E+00  0.1028659E+06  0.7111727E+01 -0.4108429E-01 -0.8521415E-03  0.4804996E+06  0.9350601E+01
  0.2976190E+00  0.1034944E+06  0.1193503E+02  0.5444824E-01  0.1347646E-02  0.4815071E+06  0.1573715E+02
  0.3285715E+00  0.1039417E+06  0.1976281E+02 -0.5034073E-01 -0.1477093E-02  0.4818151E+06  0.2613887E+02
  0.3595238E+00  0.1046820E+06  0.3246590E+02  0.4142306E-01  0.2149254E-02  0.4833402E+06  0.4309151E+02
  0.3904762E+00  0.1055405E+06  0.5298746E+02  0.2063286E-01  0.1645982E-02  0.4849457E+06  0.7060565E+02
  0.4214286E+00  0.1065698E+06  0.8529139E+02 -0.6256620E-01 -0.5030394E-02  0.4866371E+06  0.1141311E+03
  0.4523810E+00  0.1073436E+06  0.1360759E+03 -0.6705514E-01 -0.2680898E-02  0.4876032E+06  0.1828172E+03
  0.4833333E+00  0.1088534E+06  0.2117833E+03 -0.1123889E-01 -0.1266122E-02  0.4913145E+06  0.2860231E+03
  0.5142857E+00  0.1100722E+06  0.3241791E+03 -0.4569160E-01 -0.5793571E-02  0.4931414E+06  0.4398945E+03
  0.5452381E+00  0.1111396E+06  0.4844160E+03  0.3257518E-01  0.4806995E-02  0.4940363E+06  0.6604918E+03
  0.5761905E+00  0.1124907E+06  0.7066519E+03 -0.7711615E-01 -0.1223660E-01  0.4965261E+06  0.9684679E+03
  0.6071429E+00  0.1143328E+06  0.1011459E+04  0.2312155E-01  0.5613327E-02  0.5004655E+06  0.1394452E+04
  0.6380953E+00  0.1160924E+06  0.1415875E+04 -0.5815648E-01 -0.8847237E-02  0.5035258E+06  0.1963090E+04
  0.6690477E+00  0.1178019E+06  0.1947661E+04 -0.3576095E-01 -0.2243042E-02  0.5058901E+06  0.2716336E+04
  0.7000000E+00  0.1195112E+06  0.2637496E+04 -0.6975446E-02  0.7667542E-03  0.5082552E+06  0.3699948E+04
  0.7309524E+00  0.1215233E+06  0.3513464E+04 -0.6680068E-01 -0.3195572E-01  0.5119066E+06  0.4958793E+04
  0.7619048E+00  0.1239664E+06  0.4614372E+04  0.1618194E-01  0.9426117E-02  0.5171697E+06  0.6557109E+04
  0.7928572E+00  0.1263038E+06  0.5984611E+04 -0.9699640E-02 -0.8148193E-02  0.5214270E+06  0.8561760E+04
  0.8238096E+00  0.1285268E+06  0.7667824E+04 -0.4563877E-01 -0.6881714E-02  0.5249099E+06  0.1104551E+05
  0.8547620E+00  0.1307520E+06  0.9710390E+04  0.6569355E-02  0.5424500E-02  0.5284162E+06  0.1408482E+05
  0.8857143E+00  0.1330336E+06  0.1215484E+05 -0.2218923E-01 -0.1392365E-01  0.5325380E+06  0.1775369E+05
  0.9166667E+00  0.1352963E+06  0.1504893E+05 -0.5566406E-01 -0.4435730E-01  0.5368336E+06  0.2213591E+05
  0.9476191E+00  0.1376032E+06  0.1843116E+05 -0.4173701E-01 -0.1882935E-01  0.5417375E+06  0.2731752E+05
  0.9785714E+00  0.1398902E+06  0.2235191E+05  0.2494868E-03 -0.1002502E-01  0.5466529E+06  0.3338410E+05
  0.1009524E+01  0.1418435E+06  0.2684679E+05 -0.3893583E-01 -0.3866577E-01  0.5507918E+06  0.4041437E+05
  0.1040476E+01  0.1434977E+06  0.3194915E+05 -0.3754291E-02  0.8544922E-02  0.5539118E+06  0.4848777E+05
  0.1071429E+01  0.1447405E+06  0.3767119E+05  0.1048177E-01  0.1519775E-01  0.5563620E+06  0.5764075E+05
  0.1102381E+01  0.1456281E+06  0.4398991E+05 -0.2037493E-01 -0.3265381E-02  0.5584414E+06  0.6785779E+05
  0.1133333E+01  0.1461790E+06  0.5088271E+05 -0.7108801E-02  0.1361084E-01  0.5603632E+06  0.7912002E+05
  0.1164286E+01  0.1463218E+06  0.5830050E+05  0.1195241E-01 -0.2355957E-01  0.5620676E+06  0.9138955E+05
  0.1195238E+01  0.1460729E+06  0.6619703E+05  0.2103889E-01  0.3027344E-01  0.5632039E+06  0.1046394E+06
  0.1226190E+01  0.1453403E+06  0.7452726E+05  0.5574939E-02  0.3723145E-01  0.5635055E+06  0.1187852E+06
  0.1257143E+01  0.1440427E+06  0.8330657E+05  0.1767245E-01 -0.1953125E-01  0.5626539E+06  0.1339087E+06
  0.1288095E+01  0.1422706E+06  0.9213952E+05  0.1269892E-01  0.1953125E-02  0.5610589E+06  0.1493482E+06
  0.1319048E+01  0.1400547E+06  0.1012234E+06  0.2572731E-01 -0.0000000E+00  0.5586666E+06  0.1654486E+06
  0.1350000E+01  0.1373775E+06  0.1103381E+06 -0.1392506E-01  0.1062012E-01  0.5556795E+06  0.1818862E+06
  0.1380952E+01  0.1343148E+06  0.1194223E+06  0.1060749E-01 -0.1062012E-01  0.5517192E+06  0.1985446E+06
  0.1411905E+01  0.1262899E+06  0.1250435E+06 -0.1694575E-01  0.2099609E-01  0.5368567E+06  0.2097723E+06
  0.1442857E+01  0.1225812E+06  0.1336823E+06 -0.1945873E-01 -0.5664062E-01  0.5317431E+06  0.2262320E+06
  0.1473810E+01  0.1186242E+06  0.1420414E+06 -0.1905007E-01 -0.1171875E-01  0.5261754E+06  0.2424472E+06
  0.1504762E+01  0.1145143E+06  0.1500625E+06  0.8112267E-03 -0.1159668E-01  0.5202619E+06  0.2583144E+06
  0.1535714E+01  0.1101844E+06  0.1576492E+06 -0.3338481E-02 -0.1892090E-01  0.5140541E+06  0.2737150E+06
  0.1566667E+01  0.1057152E+06  0.1648671E+06  0.2649185E-01  0.2966309E-01  0.5073892E+06  0.2887033E+06
  0.1597619E+01  0.1012171E+06  0.1716698E+06 -0.3056306E-02 -0.5737305E-01  0.5003535E+06  0.3031792E+06
  0.1628572E+01  0.9663057E+05  0.1780549E+06  0.5096971E-02  0.2929688E-02  0.4930180E+06  0.3171237E+06
  0.1659524E+01  0.9205010E+05  0.1839520E+06  0.1559418E-01  0.6591797E-02  0.4855933E+06  0.3304172E+06
  0.1690476E+01  0.8750025E+05  0.1893885E+06  0.1617518E-01  0.5371094E-01  0.4781018E+06  0.3430550E+06
  0.1721429E+01  0.8304009E+05  0.1943798E+06  0.8083993E-02 -0.3076172E-01  0.4706419E+06  0.3549915E+06
  0.1752381E+01  0.7866015E+05  0.1989277E+06  0.1253875E-02  0.9277344E-02  0.4631857E+06  0.3663244E+06
  0.1783333E+01  0.7435887E+05  0.2030034E+06 -0.1505914E-02  0.4199219E-01  0.4558468E+06  0.3768859E+06
  0.1814286E+01  0.7016971E+05  0.2066772E+06 -0.2556748E-02  0.3417969E-02  0.4486179E+06  0.3869197E+06
  0.1845238E+01  0.6616545E+05  0.2100184E+06  0.2593246E-01  0.2563477E-01  0.4413799E+06  0.3962392E+06
  0.1876190E+01  0.6223845E+05  0.2130215E+06  0.6376160E-02 -0.2661133E-01  0.4342088E+06  0.4050696E+06
  0.1907143E+01  0.5844666E+05  0.2156317E+06 -0.8448912E-02 -0.9765625E-03  0.4272182E+06  0.4132927E+06
  0.1938095E+01  0.5478218E+05  0.2178724E+06 -0.2330433E-01  0.1171875E-01  0.4203764E+06  0.4207893E+06
  0.1969048E+01  0.5124507E+05  0.2198130E+06  0.1599461E-01 -0.7568359E-02  0.4136787E+06  0.4276913E+06
  0.2000000E+01  0.4791447E+05  0.2215511E+06 -0.9155273E-02  0.5395508E-01  0.4071240E+06  0.4340668E+06
