VARIABLES="w (rad/s)"
"abs(F   1   1)" "angle(F   1   1)"
"abs(F   1   2)" "angle(F   1   2)"
"abs(F   1   3)" "angle(F   1   3)"
Zone t="Diffraction force - beta =   0.000 deg",I=    64,F=POINT
  0.5000000E-01  0.2727633E+03 -0.1570796E+01  0.3637996E+02 -0.3104850E+01  0.2084396E+03  0.1570797E+01
  0.8095238E-01  0.4462669E+03 -0.1570795E+01  0.9481770E+02 -0.3103683E+01  0.3420921E+03  0.1570797E+01
  0.1119048E+00  0.6260358E+03 -0.1570794E+01  0.1806551E+03 -0.3102105E+01  0.4786873E+03  0.1570798E+01
  0.1428571E+00  0.8092380E+03 -0.1570793E+01  0.2943062E+03 -0.3100063E+01  0.6191346E+03  0.1570799E+01
  0.1738095E+00  0.1002669E+04 -0.1570791E+01  0.4359677E+03 -0.3097400E+01  0.7646896E+03  0.1570801E+01
  0.2047619E+00  0.1202633E+04 -0.1570788E+01  0.6069407E+03 -0.3094068E+01  0.9177188E+03  0.1570803E+01
  0.2357143E+00  0.1418191E+04 -0.1570784E+01  0.8072022E+03 -0.3089782E+01  0.1079337E+04  0.1570806E+01
  0.2666667E+00  0.1649831E+04 -0.1570778E+01  0.1038685E+04 -0.3084551E+01  0.1252303E+04  0.1570812E+01
  0.2976190E+00  0.1897647E+04 -0.1570768E+01  0.1302394E+04 -0.3077960E+01  0.1439406E+04  0.1570819E+01
  0.3285715E+00  0.2171698E+04 -0.1570754E+01  0.1598479E+04 -0.3069945E+01  0.1642420E+04  0.1570831E+01
  0.3595238E+00  0.2477249E+04 -0.1570734E+01  0.1928136E+04 -0.3060166E+01  0.1863420E+04  0.1570848E+01
  0.3904762E+00  0.2803677E+04 -0.1570702E+01  0.2293258E+04 -0.3048498E+01  0.2109711E+04  0.1570875E+01
  0.4214286E+00  0.3171007E+04 -0.1570655E+01  0.2690212E+04 -0.3035285E+01  0.2378960E+04  0.1570913E+01
  0.4523810E+00  0.3579550E+04 -0.1570587E+01  0.3119500E+04 -0.3019827E+01  0.2671800E+04  0.1570970E+01
  0.4833333E+00  0.4027456E+04 -0.1570492E+01  0.3579925E+04 -0.3003978E+01  0.2990167E+04  0.1571049E+01
  0.5142857E+00  0.4498804E+04 -0.1570358E+01  0.4070658E+04 -0.2986727E+01  0.3334438E+04  0.1571159E+01
  0.5452381E+00  0.5015482E+04 -0.1570179E+01  0.4588887E+04 -0.2969198E+01  0.3696058E+04  0.1571306E+01
  0.5761905E+00  0.5568664E+04 -0.1569945E+01  0.5129837E+04 -0.2951521E+01  0.4082289E+04  0.1571499E+01
  0.6071429E+00  0.6146177E+04 -0.1569640E+01  0.5697574E+04 -0.2933290E+01  0.4486693E+04  0.1571750E+01
  0.6380953E+00  0.6741317E+04 -0.1569255E+01  0.6296623E+04 -0.2915840E+01  0.4902237E+04  0.1572065E+01
  0.6690477E+00  0.7364510E+04 -0.1568772E+01  0.6917900E+04 -0.2898200E+01  0.5330778E+04  0.1572459E+01
  0.7000000E+00  0.8021438E+04 -0.1568175E+01  0.7557547E+04 -0.2880100E+01  0.5770890E+04  0.1572946E+01
  0.7309524E+00  0.8702140E+04 -0.1567449E+01  0.8219662E+04 -0.2862236E+01  0.6216791E+04  0.1573540E+01
  0.7619048E+00  0.9403709E+04 -0.1566569E+01  0.8905371E+04 -0.2844494E+01  0.6681069E+04  0.1574254E+01
  0.7928572E+00  0.1010490E+05 -0.1565507E+01  0.9610803E+04 -0.2826731E+01  0.7146973E+04  0.1575111E+01
  0.8238096E+00  0.1082950E+05 -0.1564245E+01  0.1033578E+05 -0.2809059E+01  0.7616417E+04  0.1576127E+01
  0.8547620E+00  0.1158692E+05 -0.1562765E+01  0.1107544E+05 -0.2791406E+01  0.8084841E+04  0.1577322E+01
  0.8857143E+00  0.1236509E+05 -0.1561036E+01  0.1182578E+05 -0.2773709E+01  0.8565425E+04  0.1578713E+01
  0.9166667E+00  0.1315293E+05 -0.1559024E+01  0.1258603E+05 -0.2756028E+01  0.9042992E+04  0.1580326E+01
  0.9476191E+00  0.1395792E+05 -0.1556706E+01  0.1335884E+05 -0.2738588E+01  0.9525199E+04  0.1582178E+01
  0.9785714E+00  0.1476919E+05 -0.1554043E+01  0.1414523E+05 -0.2721496E+01  0.1000433E+05  0.1584293E+01
  0.1009524E+01  0.1558445E+05 -0.1551006E+01  0.1494053E+05 -0.2704647E+01  0.1048841E+05  0.1586687E+01
  0.1040476E+01  0.1640263E+05 -0.1547562E+01  0.1573977E+05 -0.2687892E+01  0.1095380E+05  0.1589397E+01
  0.1071429E+01  0.1724546E+05 -0.1543704E+01  0.1654190E+05 -0.2671307E+01  0.1141926E+05  0.1592428E+01
  0.1102381E+01  0.1809915E+05 -0.1539391E+01  0.1734355E+05 -0.2654831E+01  0.1187066E+05  0.1595814E+01
  0.1133333E+01  0.1896724E+05 -0.1534601E+01  0.1814414E+05 -0.2638556E+01  0.1231695E+05  0.1599561E+01
  0.1164286E+01  0.1983532E+05 -0.1529292E+01  0.1894372E+05 -0.2622567E+01  0.1276359E+05  0.1603680E+01
  0.1195238E+01  0.2068658E+05 -0.1523412E+01  0.1974189E+05 -0.2606906E+01  0.1318993E+05  0.1608208E+01
  0.1226190E+01  0.2152859E+05 -0.1516944E+01  0.2054062E+05 -0.2591730E+01  0.1360911E+05  0.1613140E+01
  0.1257143E+01  0.2233889E+05 -0.1509831E+01  0.2134088E+05 -0.2576467E+01  0.1400844E+05  0.1618499E+01
  0.1288095E+01  0.2317471E+05 -0.1502172E+01  0.2212616E+05 -0.2562447E+01  0.1438224E+05  0.1624284E+01
  0.1319048E+01  0.2398970E+05 -0.1493879E+01  0.2290723E+05 -0.2548190E+01  0.1473296E+05  0.1630504E+01
  0.1350000E+01  0.2478991E+05 -0.1484950E+01  0.2367732E+05 -0.2534153E+01  0.1507002E+05  0.1637144E+01
  0.1380952E+01  0.2556428E+05 -0.1475359E+01  0.2443438E+05 -0.2520334E+01  0.1537193E+05  0.1644234E+01
  0.1411905E+01  0.2607897E+05 -0.1465740E+01  0.2503497E+05 -0.2505924E+01  0.1563824E+05  0.1650866E+01
  0.1442857E+01  0.2680142E+05 -0.1454929E+01  0.2576049E+05 -0.2492575E+01  0.1590309E+05  0.1658639E+01
  0.1473810E+01  0.2747313E+05 -0.1443422E+01  0.2647223E+05 -0.2479560E+01  0.1612143E+05  0.1666817E+01
  0.1504762E+01  0.2811070E+05 -0.1431290E+01  0.2717304E+05 -0.2467146E+01  0.1631472E+05  0.1675306E+01
  0.1535714E+01  0.2869742E+05 -0.1418503E+01  0.2785870E+05 -0.2455127E+01  0.1648550E+05  0.1684052E+01
  0.1566667E+01  0.2921401E+05 -0.1405004E+01  0.2853004E+05 -0.2443515E+01  0.1662599E+05  0.1693053E+01
  0.1597619E+01  0.2965548E+05 -0.1390854E+01  0.2918230E+05 -0.2432099E+01  0.1670609E+05  0.1702305E+01
  0.1628572E+01  0.3004605E+05 -0.1376201E+01  0.2982012E+05 -0.2421166E+01  0.1675648E+05  0.1711691E+01
  0.1659524E+01  0.3038007E+05 -0.1361101E+01  0.3043837E+05 -0.2410508E+01  0.1677870E+05  0.1721124E+01
  0.1690476E+01  0.3062797E+05 -0.1345493E+01  0.3103518E+05 -0.2399994E+01  0.1673954E+05  0.1730641E+01
  0.1721429E+01  0.3081564E+05 -0.1329565E+01  0.3161243E+05 -0.2389914E+01  0.1667041E+05  0.1740066E+01
  0.1752381E+01  0.3092430E+05 -0.1313307E+01  0.3216604E+05 -0.2380066E+01  0.1656712E+05  0.1749288E+01
  0.1783333E+01  0.3094739E+05 -0.1296714E+01  0.3269769E+05 -0.2370495E+01  0.1643983E+05  0.1758220E+01
  0.1814286E+01  0.3087544E+05 -0.1279827E+01  0.3320661E+05 -0.2361201E+01  0.1627488E+05  0.1766816E+01
  0.1845238E+01  0.3069889E+05 -0.1262710E+01  0.3368947E+05 -0.2352108E+01  0.1605453E+05  0.1774973E+01
  0.1876190E+01  0.3044119E+05 -0.1245597E+01  0.3415160E+05 -0.2343550E+01  0.1581013E+05  0.1782560E+01
  0.1907143E+01  0.3009731E+05 -0.1228552E+01  0.3459020E+05 -0.2335393E+01  0.1554170E+05  0.1789431E+01
  0.1938095E+01  0.2965224E+05 -0.1211582E+01  0.3500389E+05 -0.2327427E+01  0.1522998E+05  0.1795529E+01
  0.1969048E+01  0.2911293E+05 -0.1194814E+01  0.3539179E+05 -0.2319756E+01  0.1488671E+05  0.1800718E+01
  0.2000000E+01  0.2848662E+05 -0.1178393E+01  0.3575360E+05 -0.2312519E+01  0.1452263E+05  0.1804825E+01
