VARIABLES="w (rad/s)"
"abs(F   1   1)" "angle(F   1   1)"
"abs(F   1   2)" "angle(F   1   2)"
"abs(F   1   3)" "angle(F   1   3)"
Zone t="Diffraction force - beta =   0.000 deg",I=    64,F=POINT
  0.5000000E-01  0.3176747E+03 -0.1570796E+01  0.8534981E+02 -0.3104365E+01  0.2822623E+01 -0.1570795E+01
  0.8095238E-01  0.5184976E+03 -0.1570795E+01  0.2222296E+03 -0.3103164E+01  0.4616454E+01 -0.1570793E+01
  0.1119048E+00  0.7224504E+03 -0.1570793E+01  0.4232101E+03 -0.3101575E+01  0.6464383E+01 -0.1570791E+01
  0.1428571E+00  0.9372424E+03 -0.1570791E+01  0.6885159E+03 -0.3099491E+01  0.8474545E+01 -0.1570787E+01
  0.1738095E+00  0.1158052E+04 -0.1570787E+01  0.1019485E+04 -0.3096828E+01  0.1036718E+02 -0.1570782E+01
  0.2047619E+00  0.1395588E+04 -0.1570782E+01  0.1417537E+04 -0.3093465E+01  0.1268829E+02 -0.1570775E+01
  0.2357143E+00  0.1641175E+04 -0.1570775E+01  0.1883987E+04 -0.3089183E+01  0.1495673E+02 -0.1570764E+01
  0.2666667E+00  0.1912525E+04 -0.1570764E+01  0.2421577E+04 -0.3083948E+01  0.1742823E+02 -0.1570750E+01
  0.2976190E+00  0.2206876E+04 -0.1570747E+01  0.3030658E+04 -0.3077315E+01  0.2055134E+02 -0.1570728E+01
  0.3285715E+00  0.2523392E+04 -0.1570723E+01  0.3715408E+04 -0.3069332E+01  0.2364355E+02 -0.1570692E+01
  0.3595238E+00  0.2874000E+04 -0.1570686E+01  0.4473711E+04 -0.3059562E+01  0.2698475E+02 -0.1570645E+01
  0.3904762E+00  0.3269527E+04 -0.1570631E+01  0.5309639E+04 -0.3047911E+01  0.3115963E+02 -0.1570572E+01
  0.4214286E+00  0.3702503E+04 -0.1570550E+01  0.6212050E+04 -0.3034710E+01  0.3597078E+02 -0.1570466E+01
  0.4523810E+00  0.4172347E+04 -0.1570430E+01  0.7190317E+04 -0.3019415E+01  0.4099986E+02 -0.1570308E+01
  0.4833333E+00  0.4700979E+04 -0.1570264E+01  0.8225673E+04 -0.3003652E+01  0.4700488E+02 -0.1570094E+01
  0.5142857E+00  0.5282536E+04 -0.1570032E+01  0.9319836E+04 -0.2986472E+01  0.5499351E+02 -0.1569808E+01
  0.5452381E+00  0.5888079E+04 -0.1569718E+01  0.1047012E+05 -0.2969121E+01  0.6098773E+02 -0.1569391E+01
  0.5761905E+00  0.6521000E+04 -0.1569305E+01  0.1166829E+05 -0.2951795E+01  0.6821784E+02 -0.1568851E+01
  0.6071429E+00  0.7221707E+04 -0.1568773E+01  0.1291401E+05 -0.2933892E+01  0.7766840E+02 -0.1568191E+01
  0.6380953E+00  0.7961106E+04 -0.1568104E+01  0.1420665E+05 -0.2916683E+01  0.8753765E+02 -0.1567359E+01
  0.6690477E+00  0.8719815E+04 -0.1567263E+01  0.1553640E+05 -0.2899352E+01  0.9836320E+02 -0.1566329E+01
  0.7000000E+00  0.9487254E+04 -0.1566213E+01  0.1690413E+05 -0.2881818E+01  0.1073894E+03 -0.1564961E+01
  0.7309524E+00  0.1029504E+05 -0.1564936E+01  0.1831165E+05 -0.2864693E+01  0.1177520E+03 -0.1563323E+01
  0.7619048E+00  0.1115107E+05 -0.1563399E+01  0.1974333E+05 -0.2847513E+01  0.1311380E+03 -0.1561466E+01
  0.7928572E+00  0.1205039E+05 -0.1561565E+01  0.2119950E+05 -0.2830365E+01  0.1465545E+03 -0.1559319E+01
  0.8238096E+00  0.1297315E+05 -0.1559384E+01  0.2267506E+05 -0.2813300E+01  0.1616695E+03 -0.1556711E+01
  0.8547620E+00  0.1389371E+05 -0.1556798E+01  0.2416648E+05 -0.2796389E+01  0.1748233E+03 -0.1553455E+01
  0.8857143E+00  0.1481229E+05 -0.1553751E+01  0.2567124E+05 -0.2779676E+01  0.1889851E+03 -0.1549661E+01
  0.9166667E+00  0.1578418E+05 -0.1550246E+01  0.2718906E+05 -0.2763263E+01  0.2064482E+03 -0.1545498E+01
  0.9476191E+00  0.1680021E+05 -0.1546236E+01  0.2870381E+05 -0.2746944E+01  0.2248432E+03 -0.1540742E+01
  0.9785714E+00  0.1784693E+05 -0.1541663E+01  0.3021299E+05 -0.2730793E+01  0.2441365E+03 -0.1535308E+01
  0.1009524E+01  0.1890474E+05 -0.1536458E+01  0.3171069E+05 -0.2714787E+01  0.2666133E+03 -0.1529400E+01
  0.1040476E+01  0.1998020E+05 -0.1530581E+01  0.3320205E+05 -0.2699135E+01  0.2909903E+03 -0.1522849E+01
  0.1071429E+01  0.2104382E+05 -0.1523940E+01  0.3468102E+05 -0.2683824E+01  0.3116609E+03 -0.1514917E+01
  0.1102381E+01  0.2208646E+05 -0.1516465E+01  0.3614354E+05 -0.2668833E+01  0.3307301E+03 -0.1505711E+01
  0.1133333E+01  0.2314431E+05 -0.1508191E+01  0.3758368E+05 -0.2654105E+01  0.3526282E+03 -0.1495840E+01
  0.1164286E+01  0.2421888E+05 -0.1499102E+01  0.3899783E+05 -0.2639635E+01  0.3792200E+03 -0.1485648E+01
  0.1195238E+01  0.2531882E+05 -0.1489199E+01  0.4038546E+05 -0.2625514E+01  0.4086030E+03 -0.1474822E+01
  0.1226190E+01  0.2641835E+05 -0.1478408E+01  0.4174163E+05 -0.2611737E+01  0.4380548E+03 -0.1462850E+01
  0.1257143E+01  0.2747560E+05 -0.1466573E+01  0.4307205E+05 -0.2597879E+01  0.4664323E+03 -0.1449534E+01
  0.1288095E+01  0.2855625E+05 -0.1453934E+01  0.4434002E+05 -0.2585001E+01  0.4969958E+03 -0.1435489E+01
  0.1319048E+01  0.2956413E+05 -0.1440134E+01  0.4557734E+05 -0.2572050E+01  0.5270234E+03 -0.1420057E+01
  0.1350000E+01  0.3050354E+05 -0.1425192E+01  0.4677415E+05 -0.2559499E+01  0.5555382E+03 -0.1403028E+01
  0.1380952E+01  0.3138558E+05 -0.1409142E+01  0.4793357E+05 -0.2547516E+01  0.5840277E+03 -0.1384726E+01
  0.1411905E+01  0.3202162E+05 -0.1392201E+01  0.4900758E+05 -0.2535718E+01  0.5989827E+03 -0.1363259E+01
  0.1442857E+01  0.3279378E+05 -0.1374284E+01  0.5007425E+05 -0.2524355E+01  0.6271140E+03 -0.1343016E+01
  0.1473810E+01  0.3349412E+05 -0.1355444E+01  0.5109034E+05 -0.2513283E+01  0.6535439E+03 -0.1321667E+01
  0.1504762E+01  0.3412238E+05 -0.1335751E+01  0.5205433E+05 -0.2502526E+01  0.6804938E+03 -0.1299469E+01
  0.1535714E+01  0.3464256E+05 -0.1315075E+01  0.5296069E+05 -0.2491912E+01  0.7083104E+03 -0.1276578E+01
  0.1566667E+01  0.3505784E+05 -0.1293509E+01  0.5381509E+05 -0.2481710E+01  0.7353290E+03 -0.1253021E+01
  0.1597619E+01  0.3536150E+05 -0.1271104E+01  0.5461611E+05 -0.2471909E+01  0.7619325E+03 -0.1228974E+01
  0.1628572E+01  0.3554409E+05 -0.1247999E+01  0.5536255E+05 -0.2462518E+01  0.7862137E+03 -0.1204470E+01
  0.1659524E+01  0.3560214E+05 -0.1224342E+01  0.5604991E+05 -0.2453398E+01  0.8058442E+03 -0.1178555E+01
  0.1690476E+01  0.3551323E+05 -0.1200062E+01  0.5667864E+05 -0.2444568E+01  0.8196796E+03 -0.1151221E+01
  0.1721429E+01  0.3528513E+05 -0.1175312E+01  0.5724773E+05 -0.2436035E+01  0.8308488E+03 -0.1123252E+01
  0.1752381E+01  0.3490934E+05 -0.1150094E+01  0.5775567E+05 -0.2427710E+01  0.8399985E+03 -0.1094925E+01
  0.1783333E+01  0.3437763E+05 -0.1124385E+01  0.5820341E+05 -0.2419675E+01  0.8470558E+03 -0.1066687E+01
  0.1814286E+01  0.3370048E+05 -0.1098460E+01  0.5859270E+05 -0.2412028E+01  0.8514916E+03 -0.1039459E+01
  0.1845238E+01  0.3287856E+05 -0.1072470E+01  0.5892129E+05 -0.2404743E+01  0.8523115E+03 -0.1012303E+01
  0.1876190E+01  0.3190871E+05 -0.1046387E+01  0.5918914E+05 -0.2397829E+01  0.8474996E+03 -0.9848779E+00
  0.1907143E+01  0.3079425E+05 -0.1020251E+01  0.5939388E+05 -0.2391165E+01  0.8359191E+03 -0.9566900E+00
  0.1938095E+01  0.2953130E+05 -0.9939229E+00  0.5953705E+05 -0.2384788E+01  0.8187599E+03 -0.9275011E+00
  0.1969048E+01  0.2812907E+05 -0.9674683E+00  0.5961966E+05 -0.2378684E+01  0.7957180E+03 -0.8975886E+00
  0.2000000E+01  0.2659916E+05 -0.9410445E+00  0.5964153E+05 -0.2372914E+01  0.7686290E+03 -0.8685612E+00
