VARIABLES="w (rad/s)"
"abs(F   1   1)" "angle(F   1   1)"
"abs(F   1   2)" "angle(F   1   2)"
"abs(F   1   3)" "angle(F   1   3)"
Zone t="Diffraction force - beta =   0.000 deg",I=    64,F=POINT
  0.5000000E-01  0.2611162E+04 -0.1570787E+01  0.4419747E+06 -0.3029205E-04  0.6750228E+03  0.1570830E+01
  0.8095238E-01  0.4261348E+04 -0.1570791E+01  0.4412695E+06 -0.8150876E-04  0.1106727E+04  0.1570806E+01
  0.1119048E+00  0.5958361E+04 -0.1570794E+01  0.4402341E+06 -0.1619126E-03  0.1547062E+04  0.1570802E+01
  0.1428571E+00  0.7711227E+04 -0.1570793E+01  0.4388658E+06 -0.2776935E-03  0.1993138E+04  0.1570794E+01
  0.1738095E+00  0.9535621E+04 -0.1570787E+01  0.4371620E+06 -0.4383545E-03  0.2462562E+04  0.1570819E+01
  0.2047619E+00  0.1145946E+05 -0.1570786E+01  0.4351171E+06 -0.6573430E-03  0.2946697E+04  0.1570796E+01
  0.2357143E+00  0.1351407E+05 -0.1570773E+01  0.4327257E+06 -0.9548597E-03  0.3457083E+04  0.1570827E+01
  0.2666667E+00  0.1571222E+05 -0.1570765E+01  0.4299797E+06 -0.1355561E-02  0.4011529E+04  0.1570834E+01
  0.2976190E+00  0.1810990E+05 -0.1570747E+01  0.4268758E+06 -0.1900590E-02  0.4588648E+04  0.1570837E+01
  0.3285715E+00  0.2073880E+05 -0.1570722E+01  0.4234061E+06 -0.2632952E-02  0.5215832E+04  0.1570871E+01
  0.3595238E+00  0.2361963E+05 -0.1570687E+01  0.4195790E+06 -0.3619225E-02  0.5915946E+04  0.1570905E+01
  0.3904762E+00  0.2679889E+05 -0.1570630E+01  0.4153844E+06 -0.4936169E-02  0.6676104E+04  0.1570959E+01
  0.4214286E+00  0.3036371E+05 -0.1570550E+01  0.4108656E+06 -0.6631339E-02  0.7466034E+04  0.1571048E+01
  0.4523810E+00  0.3427610E+05 -0.1570428E+01  0.4060165E+06 -0.8835526E-02  0.8363143E+04  0.1571164E+01
  0.4833333E+00  0.3853975E+05 -0.1570260E+01  0.4008920E+06 -0.1149619E-01  0.9337001E+04  0.1571330E+01
  0.5142857E+00  0.4318939E+05 -0.1570027E+01  0.3955098E+06 -0.1476242E-01  0.1034567E+05  0.1571567E+01
  0.5452381E+00  0.4818001E+05 -0.1569713E+01  0.3898914E+06 -0.1859257E-01  0.1140275E+05  0.1571875E+01
  0.5761905E+00  0.5349686E+05 -0.1569303E+01  0.3840569E+06 -0.2300065E-01  0.1251760E+05  0.1572293E+01
  0.6071429E+00  0.5911099E+05 -0.1568769E+01  0.3780412E+06 -0.2811068E-01  0.1369914E+05  0.1572825E+01
  0.6380953E+00  0.6497036E+05 -0.1568098E+01  0.3718263E+06 -0.3381238E-01  0.1489003E+05  0.1573492E+01
  0.6690477E+00  0.7114337E+05 -0.1567259E+01  0.3654557E+06 -0.4023013E-01  0.1602476E+05  0.1574331E+01
  0.7000000E+00  0.7758330E+05 -0.1566219E+01  0.3589780E+06 -0.4743936E-01  0.1724070E+05  0.1575373E+01
  0.7309524E+00  0.8421466E+05 -0.1564953E+01  0.3523587E+06 -0.5538911E-01  0.1844807E+05  0.1576638E+01
  0.7619048E+00  0.9108645E+05 -0.1563422E+01  0.3456405E+06 -0.6415599E-01  0.1966301E+05  0.1578165E+01
  0.7928572E+00  0.9818195E+05 -0.1561590E+01  0.3388659E+06 -0.7378861E-01  0.2088143E+05  0.1579997E+01
  0.8238096E+00  0.1054985E+06 -0.1559418E+01  0.3320499E+06 -0.8430865E-01  0.2200629E+05  0.1582163E+01
  0.8547620E+00  0.1130376E+06 -0.1556869E+01  0.3251922E+06 -0.9573429E-01  0.2314131E+05  0.1584711E+01
  0.8857143E+00  0.1207658E+06 -0.1553896E+01  0.3183231E+06 -0.1080888E+00  0.2421809E+05  0.1587679E+01
  0.9166667E+00  0.1286803E+06 -0.1550458E+01  0.3114556E+06 -0.1213956E+00  0.2532130E+05  0.1591114E+01
  0.9476191E+00  0.1367048E+06 -0.1546512E+01  0.3046322E+06 -0.1356821E+00  0.2636489E+05  0.1595044E+01
  0.9785714E+00  0.1448621E+06 -0.1542017E+01  0.2978487E+06 -0.1509656E+00  0.2737619E+05  0.1599526E+01
  0.1009524E+01  0.1531547E+06 -0.1536936E+01  0.2911330E+06 -0.1672768E+00  0.2828085E+05  0.1604585E+01
  0.1040476E+01  0.1615964E+06 -0.1531253E+01  0.2844723E+06 -0.1846182E+00  0.2901375E+05  0.1610236E+01
  0.1071429E+01  0.1701050E+06 -0.1524919E+01  0.2779048E+06 -0.2030197E+00  0.2976920E+05  0.1616539E+01
  0.1102381E+01  0.1785985E+06 -0.1517911E+01  0.2714513E+06 -0.2225013E+00  0.3041716E+05  0.1623511E+01
  0.1133333E+01  0.1871075E+06 -0.1510220E+01  0.2650939E+06 -0.2430688E+00  0.3099010E+05  0.1631119E+01
  0.1164286E+01  0.1955422E+06 -0.1501841E+01  0.2588362E+06 -0.2647455E+00  0.3144342E+05  0.1639436E+01
  0.1195238E+01  0.2038616E+06 -0.1492800E+01  0.2526965E+06 -0.2875575E+00  0.3177097E+05  0.1648340E+01
  0.1226190E+01  0.2120546E+06 -0.1483118E+01  0.2466862E+06 -0.3115412E+00  0.3205549E+05  0.1657927E+01
  0.1257143E+01  0.2198797E+06 -0.1472803E+01  0.2408476E+06 -0.3370055E+00  0.3214854E+05  0.1668055E+01
  0.1288095E+01  0.2276146E+06 -0.1462029E+01  0.2351844E+06 -0.3631811E+00  0.3201984E+05  0.1678659E+01
  0.1319048E+01  0.2350062E+06 -0.1450786E+01  0.2296678E+06 -0.3908472E+00  0.3175606E+05  0.1689593E+01
  0.1350000E+01  0.2419266E+06 -0.1439184E+01  0.2243501E+06 -0.4197987E+00  0.3133876E+05  0.1700929E+01
  0.1380952E+01  0.2484385E+06 -0.1427342E+01  0.2192065E+06 -0.4499485E+00  0.3079803E+05  0.1712405E+01
  0.1411905E+01  0.2533539E+06 -0.1416915E+01  0.2146697E+06 -0.4787095E+00  0.3034041E+05  0.1722412E+01
  0.1442857E+01  0.2587598E+06 -0.1405075E+01  0.2099445E+06 -0.5113158E+00  0.2954287E+05  0.1733677E+01
  0.1473810E+01  0.2635150E+06 -0.1393408E+01  0.2054588E+06 -0.5452284E+00  0.2855232E+05  0.1744694E+01
  0.1504762E+01  0.2676697E+06 -0.1382150E+01  0.2011931E+06 -0.5803641E+00  0.2747956E+05  0.1755091E+01
  0.1535714E+01  0.2711757E+06 -0.1371408E+01  0.1971884E+06 -0.6168745E+00  0.2631034E+05  0.1764694E+01
  0.1566667E+01  0.2739336E+06 -0.1361417E+01  0.1934554E+06 -0.6545925E+00  0.2493714E+05  0.1773730E+01
  0.1597619E+01  0.2760477E+06 -0.1352412E+01  0.1900289E+06 -0.6934019E+00  0.2344945E+05  0.1781092E+01
  0.1628572E+01  0.2775398E+06 -0.1344479E+01  0.1869029E+06 -0.7332509E+00  0.2188732E+05  0.1787163E+01
  0.1659524E+01  0.2783553E+06 -0.1337742E+01  0.1841153E+06 -0.7739214E+00  0.2022404E+05  0.1791788E+01
  0.1690476E+01  0.2785233E+06 -0.1332377E+01  0.1816786E+06 -0.8152528E+00  0.1848701E+05  0.1794448E+01
  0.1721429E+01  0.2781497E+06 -0.1328447E+01  0.1795790E+06 -0.8569819E+00  0.1673602E+05  0.1795203E+01
  0.1752381E+01  0.2773131E+06 -0.1326102E+01  0.1778011E+06 -0.8988578E+00  0.1500184E+05  0.1794001E+01
  0.1783333E+01  0.2759522E+06 -0.1325444E+01  0.1763415E+06 -0.9407132E+00  0.1317918E+05  0.1789720E+01
  0.1814286E+01  0.2741481E+06 -0.1326509E+01  0.1751847E+06 -0.9821712E+00  0.1132257E+05  0.1781873E+01
  0.1845238E+01  0.2720038E+06 -0.1329342E+01  0.1743021E+06 -0.1022897E+01  0.9493448E+04  0.1770112E+01
  0.1876190E+01  0.2695933E+06 -0.1333990E+01  0.1736438E+06 -0.1062832E+01  0.7719744E+04  0.1753616E+01
  0.1907143E+01  0.2668930E+06 -0.1340359E+01  0.1732318E+06 -0.1101517E+01  0.5958516E+04  0.1729178E+01
  0.1938095E+01  0.2639530E+06 -0.1348512E+01  0.1729512E+06 -0.1138887E+01  0.4205079E+04  0.1687242E+01
  0.1969048E+01  0.2608388E+06 -0.1358388E+01  0.1727835E+06 -0.1174906E+01  0.2480924E+04  0.1598941E+01
  0.2000000E+01  0.2576401E+06 -0.1369930E+01  0.1726328E+06 -0.1209383E+01  0.9007723E+03  0.1248687E+01
