VARIABLES="w (rad/s)"
"abs(F   1   1)" "angle(F   1   1)"
"abs(F   1   2)" "angle(F   1   2)"
"abs(F   1   3)" "angle(F   1   3)"
Zone t="Diffraction force - beta =   0.000 deg",I=    64,F=POINT
  0.5000000E-01  0.2897095E+04 -0.1570794E+01  0.1705056E+03 -0.3081653E+01  0.6895423E+04  0.1570798E+01
  0.8095238E-01  0.4742337E+04 -0.1570791E+01  0.4409264E+03 -0.3079385E+01  0.1125898E+05  0.1570801E+01
  0.1119048E+00  0.6625891E+04 -0.1570785E+01  0.8364673E+03 -0.3076711E+01  0.1569151E+05  0.1570806E+01
  0.1428571E+00  0.8558391E+04 -0.1570777E+01  0.1358238E+04 -0.3073395E+01  0.2024336E+05  0.1570813E+01
  0.1738095E+00  0.1056782E+05 -0.1570764E+01  0.2008385E+04 -0.3069259E+01  0.2495977E+05  0.1570823E+01
  0.2047619E+00  0.1266794E+05 -0.1570746E+01  0.2791859E+04 -0.3064138E+01  0.2988654E+05  0.1570838E+01
  0.2357143E+00  0.1491002E+05 -0.1570720E+01  0.3710005E+04 -0.3057654E+01  0.3507673E+05  0.1570860E+01
  0.2666667E+00  0.1728957E+05 -0.1570681E+01  0.4771362E+04 -0.3049884E+01  0.4060599E+05  0.1570891E+01
  0.2976190E+00  0.1985513E+05 -0.1570624E+01  0.5977933E+04 -0.3040088E+01  0.4652967E+05  0.1570939E+01
  0.3285715E+00  0.2266400E+05 -0.1570540E+01  0.7333419E+04 -0.3028409E+01  0.5293274E+05  0.1571008E+01
  0.3595238E+00  0.2573283E+05 -0.1570414E+01  0.8841460E+04 -0.3014276E+01  0.5989441E+05  0.1571112E+01
  0.3904762E+00  0.2906325E+05 -0.1570226E+01  0.1050794E+05 -0.2997664E+01  0.6749902E+05  0.1571267E+01
  0.4214286E+00  0.3278664E+05 -0.1569952E+01  0.1229923E+05 -0.2978964E+01  0.7579283E+05  0.1571492E+01
  0.4523810E+00  0.3685685E+05 -0.1569552E+01  0.1423515E+05 -0.2957400E+01  0.8481015E+05  0.1571821E+01
  0.4833333E+00  0.4123730E+05 -0.1569000E+01  0.1627981E+05 -0.2935696E+01  0.9455479E+05  0.1572275E+01
  0.5142857E+00  0.4597036E+05 -0.1568235E+01  0.1843219E+05 -0.2912220E+01  0.1049464E+06  0.1572902E+01
  0.5452381E+00  0.5104186E+05 -0.1567221E+01  0.2066617E+05 -0.2888749E+01  0.1158750E+06  0.1573732E+01
  0.5761905E+00  0.5639019E+05 -0.1565911E+01  0.2297792E+05 -0.2865802E+01  0.1272796E+06  0.1574804E+01
  0.6071429E+00  0.6194760E+05 -0.1564224E+01  0.2536373E+05 -0.2842383E+01  0.1391159E+06  0.1576181E+01
  0.6380953E+00  0.6768373E+05 -0.1562130E+01  0.2783095E+05 -0.2820517E+01  0.1512434E+06  0.1577885E+01
  0.6690477E+00  0.7365990E+05 -0.1559552E+01  0.3034185E+05 -0.2798818E+01  0.1634947E+06  0.1579983E+01
  0.7000000E+00  0.7984878E+05 -0.1556405E+01  0.3288166E+05 -0.2776935E+01  0.1759568E+06  0.1582542E+01
  0.7309524E+00  0.8614465E+05 -0.1552629E+01  0.3547716E+05 -0.2756144E+01  0.1885246E+06  0.1585603E+01
  0.7619048E+00  0.9251295E+05 -0.1548130E+01  0.3811178E+05 -0.2736001E+01  0.2011084E+06  0.1589238E+01
  0.7928572E+00  0.9897180E+05 -0.1542829E+01  0.4076503E+05 -0.2716262E+01  0.2136809E+06  0.1593509E+01
  0.8238096E+00  0.1054829E+06 -0.1536649E+01  0.4341871E+05 -0.2696861E+01  0.2260221E+06  0.1598478E+01
  0.8547620E+00  0.1121385E+06 -0.1529535E+01  0.4607412E+05 -0.2678047E+01  0.2382543E+06  0.1604191E+01
  0.8857143E+00  0.1187954E+06 -0.1521387E+01  0.4871929E+05 -0.2659854E+01  0.2501724E+06  0.1610716E+01
  0.9166667E+00  0.1254418E+06 -0.1512138E+01  0.5135971E+05 -0.2642506E+01  0.2618494E+06  0.1618093E+01
  0.9476191E+00  0.1318928E+06 -0.1501689E+01  0.5396661E+05 -0.2625694E+01  0.2730364E+06  0.1626375E+01
  0.9785714E+00  0.1382679E+06 -0.1490026E+01  0.5655126E+05 -0.2609730E+01  0.2838682E+06  0.1635572E+01
  0.1009524E+01  0.1443992E+06 -0.1477093E+01  0.5909716E+05 -0.2594420E+01  0.2939004E+06  0.1645712E+01
  0.1040476E+01  0.1504043E+06 -0.1462945E+01  0.6160177E+05 -0.2579837E+01  0.3031783E+06  0.1656764E+01
  0.1071429E+01  0.1561560E+06 -0.1447528E+01  0.6404186E+05 -0.2565750E+01  0.3117658E+06  0.1668726E+01
  0.1102381E+01  0.1614732E+06 -0.1430810E+01  0.6640994E+05 -0.2552238E+01  0.3192499E+06  0.1681584E+01
  0.1133333E+01  0.1664638E+06 -0.1412877E+01  0.6872471E+05 -0.2539746E+01  0.3259600E+06  0.1695244E+01
  0.1164286E+01  0.1708405E+06 -0.1393690E+01  0.7098332E+05 -0.2528207E+01  0.3313978E+06  0.1709663E+01
  0.1195238E+01  0.1746650E+06 -0.1373410E+01  0.7318977E+05 -0.2517769E+01  0.3356929E+06  0.1724684E+01
  0.1226190E+01  0.1778339E+06 -0.1352094E+01  0.7532990E+05 -0.2508209E+01  0.3388645E+06  0.1740183E+01
  0.1257143E+01  0.1800888E+06 -0.1329721E+01  0.7738859E+05 -0.2498870E+01  0.3403770E+06  0.1756075E+01
  0.1288095E+01  0.1818035E+06 -0.1306989E+01  0.7937791E+05 -0.2491255E+01  0.3407306E+06  0.1771901E+01
  0.1319048E+01  0.1826451E+06 -0.1283679E+01  0.8129584E+05 -0.2483823E+01  0.3395132E+06  0.1787671E+01
  0.1350000E+01  0.1826480E+06 -0.1260071E+01  0.8313974E+05 -0.2477262E+01  0.3368892E+06  0.1803115E+01
  0.1380952E+01  0.1818041E+06 -0.1236424E+01  0.8490950E+05 -0.2471738E+01  0.3328572E+06  0.1817948E+01
  0.1411905E+01  0.1793956E+06 -0.1213856E+01  0.8657429E+05 -0.2466921E+01  0.3273666E+06  0.1830839E+01
  0.1442857E+01  0.1767338E+06 -0.1190596E+01  0.8820245E+05 -0.2462976E+01  0.3208377E+06  0.1843726E+01
  0.1473810E+01  0.1732124E+06 -0.1167917E+01  0.8977684E+05 -0.2459933E+01  0.3132092E+06  0.1855259E+01
  0.1504762E+01  0.1689272E+06 -0.1146193E+01  0.9131540E+05 -0.2457898E+01  0.3046722E+06  0.1865102E+01
  0.1535714E+01  0.1637454E+06 -0.1125507E+01  0.9280128E+05 -0.2456278E+01  0.2950337E+06  0.1873017E+01
  0.1566667E+01  0.1578737E+06 -0.1106261E+01  0.9425702E+05 -0.2455543E+01  0.2847525E+06  0.1878758E+01
  0.1597619E+01  0.1513139E+06 -0.1088791E+01  0.9569225E+05 -0.2455637E+01  0.2737775E+06  0.1881924E+01
  0.1628572E+01  0.1441604E+06 -0.1073171E+01  0.9710311E+05 -0.2456079E+01  0.2625167E+06  0.1882517E+01
  0.1659524E+01  0.1364165E+06 -0.1059820E+01  0.9848645E+05 -0.2456890E+01  0.2508736E+06  0.1880134E+01
  0.1690476E+01  0.1281579E+06 -0.1049109E+01  0.9985793E+05 -0.2457655E+01  0.2389874E+06  0.1874544E+01
  0.1721429E+01  0.1195818E+06 -0.1041594E+01  0.1012527E+06 -0.2458629E+01  0.2272864E+06  0.1865737E+01
  0.1752381E+01  0.1106495E+06 -0.1037917E+01  0.1026540E+06 -0.2459543E+01  0.2155805E+06  0.1853211E+01
  0.1783333E+01  0.1014185E+06 -0.1038720E+01  0.1040440E+06 -0.2459962E+01  0.2040329E+06  0.1836895E+01
  0.1814286E+01  0.9204977E+05 -0.1045237E+01  0.1054722E+06 -0.2460167E+01  0.1929018E+06  0.1816824E+01
  0.1845238E+01  0.8256813E+05 -0.1059250E+01  0.1069113E+06 -0.2459620E+01  0.1820948E+06  0.1792431E+01
  0.1876190E+01  0.7308883E+05 -0.1082629E+01  0.1082926E+06 -0.2457371E+01  0.1718768E+06  0.1764268E+01
  0.1907143E+01  0.6368742E+05 -0.1119113E+01  0.1095985E+06 -0.2453585E+01  0.1622360E+06  0.1732228E+01
  0.1938095E+01  0.5443356E+05 -0.1174683E+01  0.1107477E+06 -0.2448006E+01  0.1530626E+06  0.1695674E+01
  0.1969048E+01  0.4561498E+05 -0.1258588E+01  0.1117820E+06 -0.2440890E+01  0.1446470E+06  0.1655841E+01
  0.2000000E+01  0.3747883E+05 -0.1387426E+01  0.1126007E+06 -0.2432044E+01  0.1368435E+06  0.1612050E+01
