VARIABLES="w (rad/s)"
"abs(F   1   1)" "angle(F   1   1)"
"abs(F   1   2)" "angle(F   1   2)"
"abs(F   1   3)" "angle(F   1   3)"
Zone t="Diffraction force - beta =   0.000 deg",I=    64,F=POINT
  0.5000000E-01  0.4917123E+04 -0.1570792E+01  0.5036089E+03 -0.3069951E+01  0.8987951E+04  0.1570799E+01
  0.8095238E-01  0.8030251E+04 -0.1570786E+01  0.1297236E+04 -0.3067014E+01  0.1465617E+05  0.1570804E+01
  0.1119048E+00  0.1119446E+05 -0.1570775E+01  0.2455881E+04 -0.3063744E+01  0.2041869E+05  0.1570812E+01
  0.1428571E+00  0.1445719E+05 -0.1570759E+01  0.3981236E+04 -0.3059767E+01  0.2632991E+05  0.1570824E+01
  0.1738095E+00  0.1784523E+05 -0.1570736E+01  0.5881334E+04 -0.3054903E+01  0.3242698E+05  0.1570841E+01
  0.2047619E+00  0.2139540E+05 -0.1570702E+01  0.8166276E+04 -0.3048896E+01  0.3879233E+05  0.1570865E+01
  0.2357143E+00  0.2514084E+05 -0.1570652E+01  0.1085051E+05 -0.3041426E+01  0.4548549E+05  0.1570901E+01
  0.2666667E+00  0.2915905E+05 -0.1570580E+01  0.1394093E+05 -0.3032429E+01  0.5255841E+05  0.1570953E+01
  0.2976190E+00  0.3347920E+05 -0.1570474E+01  0.1745490E+05 -0.3021174E+01  0.6015456E+05  0.1571030E+01
  0.3285715E+00  0.3815785E+05 -0.1570316E+01  0.2141734E+05 -0.3007974E+01  0.6832266E+05  0.1571144E+01
  0.3595238E+00  0.4329538E+05 -0.1570081E+01  0.2579165E+05 -0.2991875E+01  0.7714238E+05  0.1571312E+01
  0.3904762E+00  0.4894100E+05 -0.1569733E+01  0.3062157E+05 -0.2973126E+01  0.8673917E+05  0.1571562E+01
  0.4214286E+00  0.5510500E+05 -0.1569226E+01  0.3579990E+05 -0.2952214E+01  0.9724902E+05  0.1571924E+01
  0.4523810E+00  0.6184444E+05 -0.1568486E+01  0.4138948E+05 -0.2928271E+01  0.1085574E+06  0.1572451E+01
  0.4833333E+00  0.6923996E+05 -0.1567472E+01  0.4721849E+05 -0.2904232E+01  0.1206631E+06  0.1573171E+01
  0.5142857E+00  0.7713680E+05 -0.1566072E+01  0.5329809E+05 -0.2878267E+01  0.1335428E+06  0.1574160E+01
  0.5452381E+00  0.8546469E+05 -0.1564221E+01  0.5962423E+05 -0.2852951E+01  0.1471090E+06  0.1575460E+01
  0.5761905E+00  0.9423300E+05 -0.1561841E+01  0.6609057E+05 -0.2828296E+01  0.1610684E+06  0.1577123E+01
  0.6071429E+00  0.1034679E+06 -0.1558806E+01  0.7266530E+05 -0.2803037E+01  0.1753304E+06  0.1579239E+01
  0.6380953E+00  0.1130361E+06 -0.1555069E+01  0.7941550E+05 -0.2779942E+01  0.1898378E+06  0.1581827E+01
  0.6690477E+00  0.1227258E+06 -0.1550478E+01  0.8623038E+05 -0.2757375E+01  0.2045633E+06  0.1584978E+01
  0.7000000E+00  0.1325970E+06 -0.1544911E+01  0.9310277E+05 -0.2735043E+01  0.2193264E+06  0.1588770E+01
  0.7309524E+00  0.1426951E+06 -0.1538321E+01  0.1000536E+06 -0.2714122E+01  0.2336868E+06  0.1593236E+01
  0.7619048E+00  0.1529022E+06 -0.1530564E+01  0.1069656E+06 -0.2693740E+01  0.2478633E+06  0.1598447E+01
  0.7928572E+00  0.1631381E+06 -0.1521528E+01  0.1138384E+06 -0.2674002E+01  0.2617555E+06  0.1604458E+01
  0.8238096E+00  0.1732281E+06 -0.1511105E+01  0.1206848E+06 -0.2655231E+01  0.2751713E+06  0.1611307E+01
  0.8547620E+00  0.1831109E+06 -0.1499232E+01  0.1274992E+06 -0.2637639E+01  0.2880999E+06  0.1619000E+01
  0.8857143E+00  0.1926298E+06 -0.1485830E+01  0.1342204E+06 -0.2620892E+01  0.3002132E+06  0.1627546E+01
  0.9166667E+00  0.2018946E+06 -0.1470943E+01  0.1408322E+06 -0.2605064E+01  0.3113464E+06  0.1636900E+01
  0.9476191E+00  0.2106174E+06 -0.1454515E+01  0.1472611E+06 -0.2589870E+01  0.3212939E+06  0.1647020E+01
  0.9785714E+00  0.2187460E+06 -0.1436596E+01  0.1535278E+06 -0.2575701E+01  0.3300718E+06  0.1657801E+01
  0.1009524E+01  0.2260268E+06 -0.1417164E+01  0.1596211E+06 -0.2562552E+01  0.3378192E+06  0.1669139E+01
  0.1040476E+01  0.2322474E+06 -0.1396298E+01  0.1655287E+06 -0.2550468E+01  0.3441071E+06  0.1680867E+01
  0.1071429E+01  0.2373754E+06 -0.1374195E+01  0.1712642E+06 -0.2539631E+01  0.3490444E+06  0.1692758E+01
  0.1102381E+01  0.2411713E+06 -0.1351018E+01  0.1768324E+06 -0.2529996E+01  0.3522567E+06  0.1704568E+01
  0.1133333E+01  0.2436105E+06 -0.1327124E+01  0.1821938E+06 -0.2521278E+01  0.3536657E+06  0.1715968E+01
  0.1164286E+01  0.2445636E+06 -0.1302692E+01  0.1873480E+06 -0.2513535E+01  0.3535018E+06  0.1726706E+01
  0.1195238E+01  0.2438835E+06 -0.1277988E+01  0.1922375E+06 -0.2506473E+01  0.3515402E+06  0.1736454E+01
  0.1226190E+01  0.2417136E+06 -0.1253501E+01  0.1969315E+06 -0.2500710E+01  0.3482481E+06  0.1744825E+01
  0.1257143E+01  0.2377516E+06 -0.1229085E+01  0.2014253E+06 -0.2495657E+01  0.3433545E+06  0.1751655E+01
  0.1288095E+01  0.2321897E+06 -0.1206113E+01  0.2057445E+06 -0.2492420E+01  0.3371582E+06  0.1756160E+01
  0.1319048E+01  0.2250402E+06 -0.1184209E+01  0.2098885E+06 -0.2489782E+01  0.3299259E+06  0.1758451E+01
  0.1350000E+01  0.2162964E+06 -0.1163916E+01  0.2138718E+06 -0.2487875E+01  0.3218130E+06  0.1758203E+01
  0.1380952E+01  0.2060922E+06 -0.1145816E+01  0.2176912E+06 -0.2486897E+01  0.3129228E+06  0.1755144E+01
  0.1411905E+01  0.1943446E+06 -0.1131123E+01  0.2210573E+06 -0.2487823E+01  0.3037522E+06  0.1748842E+01
  0.1442857E+01  0.1817052E+06 -0.1119045E+01  0.2246837E+06 -0.2488136E+01  0.2940445E+06  0.1739986E+01
  0.1473810E+01  0.1680758E+06 -0.1111314E+01  0.2282707E+06 -0.2489141E+01  0.2843688E+06  0.1728258E+01
  0.1504762E+01  0.1535377E+06 -0.1109149E+01  0.2317939E+06 -0.2490439E+01  0.2746306E+06  0.1713519E+01
  0.1535714E+01  0.1383330E+06 -0.1113842E+01  0.2352795E+06 -0.2491596E+01  0.2653744E+06  0.1696550E+01
  0.1566667E+01  0.1225005E+06 -0.1127890E+01  0.2386637E+06 -0.2492016E+01  0.2562448E+06  0.1677075E+01
  0.1597619E+01  0.1063841E+06 -0.1155138E+01  0.2419868E+06 -0.2491797E+01  0.2476933E+06  0.1655984E+01
  0.1628572E+01  0.9021969E+05 -0.1202329E+01  0.2452206E+06 -0.2490785E+01  0.2396138E+06  0.1633452E+01
  0.1659524E+01  0.7429012E+05 -0.1280687E+01  0.2481986E+06 -0.2488357E+01  0.2320317E+06  0.1610210E+01
  0.1690476E+01  0.5926775E+05 -0.1412033E+01  0.2508256E+06 -0.2484303E+01  0.2250900E+06  0.1586988E+01
  0.1721429E+01  0.4626550E+05 -0.1637617E+01  0.2529852E+06 -0.2478673E+01  0.2184437E+06  0.1563763E+01
  0.1752381E+01  0.3772999E+05 -0.2007556E+01  0.2545736E+06 -0.2471410E+01  0.2122215E+06  0.1541349E+01
  0.1783333E+01  0.3685304E+05 -0.2480127E+01  0.2553419E+06 -0.2462241E+01  0.2065514E+06  0.1521118E+01
  0.1814286E+01  0.4391295E+05 -0.2877941E+01  0.2550416E+06 -0.2451624E+01  0.2010913E+06  0.1502546E+01
  0.1845238E+01  0.5576615E+05 -0.3128965E+01  0.2537462E+06 -0.2440316E+01  0.1959485E+06  0.1486668E+01
  0.1876190E+01  0.6980977E+05  0.3003251E+01  0.2514525E+06 -0.2428698E+01  0.1908270E+06  0.1472709E+01
  0.1907143E+01  0.8469367E+05  0.2908747E+01  0.2479858E+06 -0.2417158E+01  0.1858546E+06  0.1462532E+01
  0.1938095E+01  0.9974891E+05  0.2846270E+01  0.2433767E+06 -0.2406329E+01  0.1810362E+06  0.1456223E+01
  0.1969048E+01  0.1147040E+06  0.2802753E+01  0.2378050E+06 -0.2396723E+01  0.1761436E+06  0.1453333E+01
  0.2000000E+01  0.1294103E+06  0.2771029E+01  0.2313173E+06 -0.2388758E+01  0.1709897E+06  0.1452983E+01
