VARIABLES="w (rad/s)"
"A   1   1" "B   1   1"
"A   1   2" "B   1   2"
"A   1   3" "B   1   3"
Zone t="Motion of body    1 in DoF   1",I=    64,F=POINT
  0.5000000E-01  0.5326180E+05  0.4240654E-02  0.7247925E-02  0.5372509E-05  0.6088824E+05  0.6245815E-02
  0.8095238E-01  0.5347857E+05  0.1864222E-01  0.7068410E-02  0.2979065E-04  0.6084007E+05  0.2739313E-01
  0.1119048E+00  0.5357028E+05  0.5237822E-01  0.1254467E-01  0.9385915E-04  0.6091985E+05  0.7695674E-01
  0.1428571E+00  0.5364362E+05  0.1177638E+00 -0.1708984E-02 -0.7395842E-04  0.6102863E+05  0.1732903E+00
  0.1738095E+00  0.5369030E+05  0.2343031E+00  0.1518772E-01  0.1671095E-03  0.6113526E+05  0.3452344E+00
  0.2047619E+00  0.5376555E+05  0.4319315E+00  0.5588975E-02  0.1229066E-04  0.6127973E+05  0.6371232E+00
  0.2357143E+00  0.5385400E+05  0.7599120E+00  0.1585989E-01  0.2343543E-03  0.6139965E+05  0.1122617E+01
  0.2666667E+00  0.5393199E+05  0.1295300E+01  0.7839203E-02  0.5296431E-04  0.6160216E+05  0.1917351E+01
  0.2976190E+00  0.5404678E+05  0.2170130E+01  0.2440430E-01  0.6751753E-03  0.6180301E+05  0.3218280E+01
  0.3285715E+00  0.5417860E+05  0.3586569E+01  0.2842115E-01  0.1058564E-02  0.6200693E+05  0.5329647E+01
  0.3595238E+00  0.5431046E+05  0.5880698E+01  0.1476970E-01  0.6368905E-03  0.6230583E+05  0.8761356E+01
  0.3904762E+00  0.5443570E+05  0.9572284E+01  0.1531833E-01  0.5064905E-03  0.6254359E+05  0.1429830E+02
  0.4214286E+00  0.5463371E+05  0.1536922E+02  0.9775969E-02  0.2726912E-03  0.6286245E+05  0.2302043E+02
  0.4523810E+00  0.5484283E+05  0.2446440E+02  0.1517848E-01  0.1401544E-02  0.6325893E+05  0.3675384E+02
  0.4833333E+00  0.5503899E+05  0.3796449E+02  0.1262796E-01  0.1164615E-02  0.6366127E+05  0.5722991E+02
  0.5142857E+00  0.5529630E+05  0.5794190E+02  0.1839532E-01  0.2162814E-02  0.6418456E+05  0.8765579E+02
  0.5452381E+00  0.5559632E+05  0.8632878E+02  0.1779881E-01  0.2371550E-02  0.6471959E+05  0.1310649E+03
  0.5761905E+00  0.5582858E+05  0.1255394E+03 -0.9003946E-02 -0.4439354E-03  0.6506967E+05  0.1912461E+03
  0.6071429E+00  0.5609950E+05  0.1791306E+03  0.6031709E-03  0.9083748E-03  0.6559075E+05  0.2739373E+03
  0.6380953E+00  0.5645869E+05  0.2499386E+03  0.2419998E-01  0.1871109E-02  0.6631450E+05  0.3838600E+03
  0.6690477E+00  0.5682748E+05  0.3426449E+03 -0.8849011E-02 -0.1623154E-02  0.6696377E+05  0.5284088E+03
  0.7000000E+00  0.5720252E+05  0.4625537E+03 -0.8806501E-02  0.1243591E-02  0.6758335E+05  0.7162548E+03
  0.7309524E+00  0.5758293E+05  0.6144183E+03  0.1185712E-01  0.3528595E-02  0.6825967E+05  0.9555743E+03
  0.7619048E+00  0.5796746E+05  0.8048343E+03 -0.8811950E-03  0.2307892E-03  0.6897688E+05  0.1257398E+04
  0.7928572E+00  0.5842130E+05  0.1041037E+04  0.7698127E-02  0.3103256E-02  0.6986038E+05  0.1634229E+04
  0.8238096E+00  0.5890606E+05  0.1330566E+04  0.6149380E-02 -0.1930237E-02  0.7079420E+05  0.2099029E+04
  0.8547620E+00  0.5939293E+05  0.1681518E+04 -0.7426227E-02 -0.3532410E-02  0.7167141E+05  0.2665712E+04
  0.8857143E+00  0.5985308E+05  0.2102557E+04  0.8407100E-02  0.4245758E-02  0.7248870E+05  0.3349755E+04
  0.9166667E+00  0.6031788E+05  0.2602212E+04 -0.6525213E-02 -0.1075745E-02  0.7333870E+05  0.4166745E+04
  0.9476191E+00  0.6077022E+05  0.3188680E+04  0.7986710E-02  0.7202148E-02  0.7424145E+05  0.5132497E+04
  0.9785714E+00  0.6123341E+05  0.3870324E+04 -0.3742301E-03 -0.4737854E-02  0.7520247E+05  0.6262976E+04
  0.1009524E+01  0.6168845E+05  0.4655387E+04  0.1354290E-01  0.8735657E-02  0.7614164E+05  0.7573949E+04
  0.1040476E+01  0.6212096E+05  0.5551377E+04  0.1513448E-01  0.4699707E-02  0.7702977E+05  0.9081215E+04
  0.1071429E+01  0.6251903E+05  0.6565000E+04  0.6608073E-02  0.7629395E-02  0.7786180E+05  0.1080038E+05
  0.1102381E+01  0.6286438E+05  0.7701296E+04  0.1107333E-03 -0.1036072E-01  0.7860079E+05  0.1274334E+05
  0.1133333E+01  0.6313567E+05  0.8961446E+04 -0.1292509E-01 -0.1171875E-01  0.7921916E+05  0.1491547E+05
  0.1164286E+01  0.6332277E+05  0.1034532E+05  0.2023521E-01  0.1446533E-01  0.7969956E+05  0.1731938E+05
  0.1195238E+01  0.6343035E+05  0.1184883E+05 -0.4595874E-02 -0.8636475E-02  0.8007897E+05  0.1995326E+05
  0.1226190E+01  0.6346807E+05  0.1346641E+05  0.1373824E-01  0.4150391E-02  0.8035235E+05  0.2281218E+05
  0.1257143E+01  0.6341984E+05  0.1520883E+05 -0.1301158E-01  0.5126953E-02  0.8049455E+05  0.2591955E+05
  0.1288095E+01  0.6328137E+05  0.1701159E+05  0.1800594E-02 -0.2014160E-02  0.8047811E+05  0.2916906E+05
  0.1319048E+01  0.6305174E+05  0.1891451E+05  0.1129040E-01  0.4180908E-02  0.8028104E+05  0.3262922E+05
  0.1350000E+01  0.6272458E+05  0.2088303E+05  0.1220703E-01  0.1428223E-01  0.7993124E+05  0.3624605E+05
  0.1380952E+01  0.6231376E+05  0.2289942E+05  0.1856311E-02  0.7324219E-03  0.7943122E+05  0.3998875E+05
  0.1411905E+01  0.6108298E+05  0.2452844E+05 -0.1469784E-02 -0.1989746E-01  0.7723691E+05  0.4310602E+05
  0.1442857E+01  0.6052001E+05  0.2658580E+05 -0.8460318E-04 -0.1184082E-01  0.7648123E+05  0.4701405E+05
  0.1473810E+01  0.5987541E+05  0.2863954E+05  0.1830463E-01  0.1574707E-01  0.7555379E+05  0.5096118E+05
  0.1504762E+01  0.5914548E+05  0.3067088E+05  0.4056134E-02 -0.4638672E-02  0.7446588E+05  0.5492019E+05
  0.1535714E+01  0.5834827E+05  0.3266846E+05  0.9538517E-03  0.1147461E-01  0.7320843E+05  0.5886052E+05
  0.1566667E+01  0.5747359E+05  0.3461308E+05  0.5843791E-02  0.1977539E-01  0.7183901E+05  0.6276006E+05
  0.1597619E+01  0.5655708E+05  0.3649012E+05  0.4049605E-02 -0.1062012E-01  0.7034484E+05  0.6657884E+05
  0.1628572E+01  0.5559980E+05  0.3828344E+05 -0.4497327E-03  0.6103516E-03  0.6876013E+05  0.7029353E+05
  0.1659524E+01  0.5460518E+05  0.3998896E+05 -0.5958152E-02 -0.1489258E-01  0.6710254E+05  0.7388680E+05
  0.1690476E+01  0.5359668E+05  0.4159025E+05 -0.1949686E-02  0.6347656E-02  0.6539112E+05  0.7732448E+05
  0.1721429E+01  0.5257240E+05  0.4308358E+05 -0.3971084E-02 -0.7080078E-02  0.6363762E+05  0.8060213E+05
  0.1752381E+01  0.5154626E+05  0.4446916E+05  0.4806519E-02 -0.8300781E-02  0.6184875E+05  0.8371132E+05
  0.1783333E+01  0.5052392E+05  0.4574966E+05 -0.5270700E-02  0.7568359E-02  0.6003174E+05  0.8664754E+05
  0.1814286E+01  0.4949721E+05  0.4692507E+05  0.1042884E-01  0.2197266E-01  0.5821422E+05  0.8942654E+05
  0.1845238E+01  0.4849449E+05  0.4799443E+05 -0.2183090E-02 -0.1831055E-02  0.5638666E+05  0.9202120E+05
  0.1876190E+01  0.4750996E+05  0.4895130E+05 -0.7807543E-03 -0.2319336E-02  0.5458064E+05  0.9443865E+05
  0.1907143E+01  0.4654179E+05  0.4981074E+05  0.1152124E-02 -0.1708984E-02  0.5279074E+05  0.9668208E+05
  0.1938095E+01  0.4560231E+05  0.5056746E+05  0.9447702E-03  0.6835938E-02  0.5103021E+05  0.9873709E+05
  0.1969048E+01  0.4469394E+05  0.5122129E+05  0.9485174E-02 -0.7202148E-02  0.4930924E+05  0.1006087E+06
  0.2000000E+01  0.4381534E+05  0.5177673E+05  0.1464844E-02  0.1391602E-01  0.4764211E+05  0.1023286E+06
Zone t="Motion of body    1 in DoF   2",I=    64,F=POINT
  0.5000000E-01  0.7171631E-02  0.4768372E-06  0.1763828E+06  0.5076047E+03  0.4882812E-02 -0.3433228E-04
  0.8095238E-01 -0.5654728E-03  0.3814697E-05  0.1741036E+06  0.8418445E+03  0.7539637E-03  0.7629395E-05
  0.1119048E+00 -0.2727103E-02 -0.7057190E-04  0.1730147E+06  0.1205987E+04  0.1090841E-02  0.3814697E-05
  0.1428571E+00  0.3482056E-01  0.1296997E-03  0.1722678E+06  0.1613634E+04 -0.5554199E-02  0.1754761E-03
  0.1738095E+00  0.1509993E-01  0.1029968E-03  0.1722910E+06  0.2082822E+04  0.2106967E-01 -0.9918213E-04
  0.2047619E+00 -0.7004849E-02 -0.1220703E-03  0.1724416E+06  0.2634925E+04 -0.1192315E-02 -0.1602173E-03
  0.2357143E+00 -0.5437677E-02  0.3433228E-03  0.1730054E+06  0.3300738E+04 -0.3366181E-01  0.1831055E-03
  0.2666667E+00  0.1396179E-01 -0.1525879E-03  0.1738600E+06  0.4107040E+04 -0.9155273E-02 -0.1068115E-03
  0.2976190E+00 -0.5537109E-02  0.4959106E-04  0.1746527E+06  0.5110484E+04 -0.1189453E-01  0.6103516E-04
  0.3285715E+00  0.7058848E-02 -0.3814697E-04  0.1757574E+06  0.6343221E+04  0.8916439E-02  0.3051758E-03
  0.3595238E+00  0.1018600E-02 -0.5798340E-03  0.1768615E+06  0.7872498E+04  0.1901386E-01 -0.3967285E-03
  0.3904762E+00 -0.3595119E-02  0.7019043E-03  0.1777954E+06  0.9754801E+04  0.2563476E-01 -0.1525879E-03
  0.4214286E+00  0.4779363E-02 -0.8544922E-03  0.1781832E+06  0.1196690E+05  0.1737950E-02 -0.2441406E-03
  0.4523810E+00  0.1281738E-01 -0.1831055E-03  0.1786223E+06  0.1461957E+05 -0.7015830E-02 -0.0000000E+00
  0.4833333E+00  0.1881566E-01  0.6103516E-04  0.1783786E+06  0.1750425E+05  0.8081896E-02 -0.0000000E+00
  0.5142857E+00  0.1400418E-01 -0.4272461E-03  0.1774721E+06  0.2075288E+05  0.1661513E-01  0.2136230E-02
  0.5452381E+00 -0.6492648E-02  0.8239746E-03  0.1762478E+06  0.2419057E+05  0.4029919E-02  0.1953125E-02
  0.5761905E+00 -0.1038102E-01  0.3356934E-03  0.1747021E+06  0.2775749E+05 -0.7203157E-02  0.1464844E-02
  0.6071429E+00  0.1447610E-01  0.2410889E-02  0.1727290E+06  0.3153368E+05  0.5267692E-01 -0.4882812E-03
  0.6380953E+00  0.3060867E-01  0.6103516E-03  0.1705519E+06  0.3531693E+05  0.7652169E-03  0.1464844E-02
  0.6690477E+00 -0.4013984E-02 -0.3295898E-02  0.1680433E+06  0.3918737E+05  0.4378892E-02 -0.7324219E-03
  0.7000000E+00 -0.1674107E-01 -0.4272461E-03  0.1653669E+06  0.4314669E+05  0.9765624E-02  0.1342773E-02
  0.7309524E+00 -0.3340034E-03  0.6713867E-03  0.1626945E+06  0.4708109E+05  0.6680069E-03  0.2685547E-02
  0.7619048E+00 -0.3524780E-02 -0.1647949E-02  0.1598133E+06  0.5102798E+05  0.2371216E-01  0.7812500E-02
  0.7928572E+00  0.8621902E-02  0.1220703E-02  0.1567417E+06  0.5497859E+05  0.4310951E-02 -0.5615234E-02
  0.8238096E+00 -0.2963557E-03  0.1525879E-02  0.1535405E+06  0.5890042E+05 -0.5927113E-02 -0.4882812E-02
  0.8547620E+00  0.1199621E-01 -0.2685547E-02  0.1503224E+06  0.6275361E+05  0.5255484E-01 -0.0000000E+00
  0.8857143E+00 -0.5512853E-02  0.9887695E-02  0.1470958E+06  0.6651516E+05 -0.7717994E-02 -0.7324219E-03
  0.9166667E+00 -0.5859375E-02  0.6103516E-03  0.1438778E+06  0.7016974E+05  0.0000000E+00  0.1464844E-02
  0.9476191E+00 -0.6569713E-02  0.3051758E-03  0.1406091E+06  0.7372397E+05 -0.2215668E-01 -0.1220703E-02
  0.9785714E+00 -0.1210011E-01 -0.4028320E-02  0.1373122E+06  0.7716528E+05  0.1297331E-01 -0.2929688E-02
  0.1009524E+01 -0.5320423E-02  0.2441406E-03  0.1339947E+06  0.8049159E+05  0.1451025E-01  0.1171875E-01
  0.1040476E+01  0.1114555E-01 -0.5126953E-02  0.1307020E+06  0.8367662E+05  0.1126287E-01 -0.6103516E-02
  0.1071429E+01  0.2734375E-02 -0.1586914E-02  0.1274699E+06  0.8669770E+05  0.9114583E-03 -0.9765625E-02
  0.1102381E+01 -0.5093733E-02  0.3662109E-03  0.1243259E+06  0.8953753E+05 -0.8858666E-02  0.1318359E-01
  0.1133333E+01 -0.1647949E-01  0.3662109E-03  0.1212476E+06  0.9220535E+05 -0.1077091E-01  0.4882812E-02
  0.1164286E+01  0.5032592E-02 -0.5981445E-02  0.1182552E+06  0.9470655E+05  0.1677531E-02  0.2441406E-02
  0.1195238E+01 -0.2042611E-02 -0.6958008E-02  0.1153310E+06  0.9704779E+05 -0.6944877E-02  0.8300781E-02
  0.1226190E+01  0.1324048E-01 -0.8056641E-02  0.1124917E+06  0.9922501E+05  0.1911408E-01 -0.1464844E-02
  0.1257143E+01  0.9224631E-02  0.4150391E-02  0.1097589E+06  0.1013057E+06  0.1437100E-01 -0.9765625E-03
  0.1288095E+01  0.7960519E-02  0.1721191E-01  0.1070420E+06  0.1031132E+06 -0.3032579E-02 -0.3906250E-02
  0.1319048E+01  0.1036496E-01 -0.3906250E-02  0.1044439E+06  0.1048210E+06  0.1073514E-01 -0.1025391E-01
  0.1350000E+01 -0.2260561E-02 -0.4272461E-02  0.1019419E+06  0.1063671E+06  0.3978588E-02 -0.1953125E-02
  0.1380952E+01  0.2563477E-02 -0.5249023E-02  0.9954303E+05  0.1077334E+06 -0.4596579E-02  0.1513672E-01
  0.1411905E+01  0.1452493E-01  0.2441406E-02  0.9616595E+05  0.1092061E+06  0.1729158E-02 -0.5371094E-02
  0.1442857E+01 -0.4568572E-02 -0.3662109E-03  0.9395127E+05  0.1103773E+06 -0.9137144E-02 -0.1367188E-01
  0.1473810E+01  0.1192700E-01  0.8422852E-02  0.9182786E+05  0.1114047E+06  0.1722789E-01  0.1220703E-01
  0.1504762E+01  0.2190312E-02  0.6469727E-02  0.8978788E+05  0.1123077E+06 -0.3893888E-02 -0.1269531E-01
  0.1535714E+01  0.1303597E-01 -0.4882812E-03  0.8784311E+05  0.1130909E+06 -0.2225654E-02 -0.1806641E-01
  0.1566667E+01  0.2805020E-02  0.1464844E-02  0.8597367E+05  0.1137748E+06  0.6545046E-02 -0.5859375E-02
  0.1597619E+01 -0.5806981E-02 -0.1147461E-01  0.8419677E+05  0.1143370E+06 -0.1161396E-01 -0.1123047E-01
  0.1628572E+01 -0.2323619E-02  0.1489258E-01  0.8250099E+05  0.1147880E+06  0.6895902E-02  0.1806641E-01
  0.1659524E+01 -0.8311990E-02 -0.2197266E-02  0.8088235E+05  0.1151431E+06  0.2942297E-02 -0.3613281E-01
  0.1690476E+01 -0.1083159E-02 -0.5004883E-02  0.7933842E+05  0.1153653E+06 -0.7221060E-02  0.2099609E-01
  0.1721429E+01  0.3261962E-02  0.1220703E-03  0.7786667E+05  0.1154916E+06  0.1418244E-02  0.5859375E-02
  0.1752381E+01 -0.7383928E-02 -0.1586914E-02  0.7646845E+05  0.1155231E+06 -0.3065027E-02 -0.1953125E-02
  0.1783333E+01  0.2464223E-02 -0.2929688E-02  0.7514431E+05  0.1154665E+06 -0.8214077E-03 -0.1464844E-02
  0.1814286E+01  0.4036971E-02  0.8544922E-03  0.7388545E+05  0.1153655E+06  0.1157265E-01 -0.9765625E-03
  0.1845238E+01  0.0000000E+00 -0.2441406E-01  0.7269923E+05  0.1151802E+06  0.1323085E-02 -0.1416016E-01
  0.1876190E+01  0.4424274E-02 -0.2563477E-02  0.7157156E+05  0.1149170E+06 -0.1561509E-02 -0.8300781E-02
  0.1907143E+01 -0.6016649E-02  0.4150391E-02  0.7049954E+05  0.1146030E+06  0.2048221E-02  0.8789062E-02
  0.1938095E+01 -0.6802346E-02 -0.8544922E-02  0.6947862E+05  0.1142109E+06 -0.5290713E-02 -0.5371094E-02
  0.1969048E+01 -0.5579514E-02 -0.8544922E-02  0.6850412E+05  0.1137388E+06 -0.1983827E-02  0.2929688E-02
  0.2000000E+01  0.6408691E-02 -0.1391602E-01  0.6757684E+05  0.1132109E+06  0.9765625E-02 -0.1904297E-01
Zone t="Motion of body    1 in DoF   3",I=    64,F=POINT
  0.5000000E-01  0.5883425E+05  0.5983355E-02  0.2853394E-01  0.4585240E-04  0.1733296E+06  0.8924158E-02
  0.8095238E-01  0.5878947E+05  0.2627865E-01  0.3769818E-02 -0.3819738E-04  0.1733587E+06  0.3867296E-01
  0.1119048E+00  0.5888728E+05  0.7380166E-01  0.3054355E-01  0.2281421E-03  0.1735326E+06  0.1085133E+00
  0.1428571E+00  0.5894546E+05  0.1662093E+00 -0.8972168E-02 -0.2090789E-03  0.1733914E+06  0.2443279E+00
  0.1738095E+00  0.5910377E+05  0.3311693E+00  0.2282548E-01  0.2669357E-03  0.1739798E+06  0.4876724E+00
  0.2047619E+00  0.5921507E+05  0.6112350E+00  0.3353385E-01  0.2796808E-03  0.1740769E+06  0.9017930E+00
  0.2357143E+00  0.5931942E+05  0.1077269E+01 -0.3262606E-01 -0.7009134E-03  0.1741282E+06  0.1591763E+01
  0.2666667E+00  0.5955692E+05  0.1839560E+01  0.2723694E-01  0.6663837E-03  0.1748614E+06  0.2723087E+01
  0.2976190E+00  0.5970943E+05  0.3087682E+01 -0.6152344E-02 -0.3387854E-03  0.1749484E+06  0.4578232E+01
  0.3285715E+00  0.5988127E+05  0.5114899E+01  0.6594450E-01  0.2367713E-02  0.1750561E+06  0.7600492E+01
  0.3595238E+00  0.6022516E+05  0.8406215E+01  0.4464863E-01  0.1935273E-02  0.1760707E+06  0.1252408E+02
  0.3904762E+00  0.6043352E+05  0.1372090E+02  0.2594738E-01  0.1370192E-02  0.1763778E+06  0.2049497E+02
  0.4214286E+00  0.6067390E+05  0.2209412E+02  0.2375198E-01  0.1052916E-02  0.1764185E+06  0.3309027E+02
  0.4523810E+00  0.6109505E+05  0.3527190E+02  0.3103156E-01  0.2628863E-02  0.1773978E+06  0.5298907E+02
  0.4833333E+00  0.6152621E+05  0.5491126E+02  0.2727640E-01  0.1944423E-02  0.1785046E+06  0.8277421E+02
  0.5142857E+00  0.6201939E+05  0.8407899E+02  0.1234267E-01  0.7404089E-03  0.1794527E+06  0.1271914E+03
  0.5452381E+00  0.6250145E+05  0.1257276E+03  0.3895589E-01  0.5818129E-02  0.1801443E+06  0.1908819E+03
  0.5761905E+00  0.6283088E+05  0.1835365E+03  0.9957305E-02  0.1100540E-02  0.1806043E+06  0.2795992E+03
  0.6071429E+00  0.6336811E+05  0.2628501E+03  0.3377757E-01  0.5429745E-02  0.1818467E+06  0.4019885E+03
  0.6380953E+00  0.6408248E+05  0.3681937E+03  0.5968691E-01  0.1051140E-01  0.1833627E+06  0.5654495E+03
  0.6690477E+00  0.6465827E+05  0.5069543E+03  0.7663061E-02  0.7343292E-04  0.1841871E+06  0.7817949E+03
  0.7000000E+00  0.6522689E+05  0.6874865E+03  0.5772182E-01  0.1338387E-01  0.1849784E+06  0.1064672E+04
  0.7309524E+00  0.6590005E+05  0.9172830E+03  0.3122932E-01  0.7600784E-02  0.1862887E+06  0.1426656E+04
  0.7619048E+00  0.6660660E+05  0.1206909E+04 -0.8811950E-02 -0.6408691E-03  0.1877420E+06  0.1885436E+04
  0.7928572E+00  0.6747240E+05  0.1568264E+04  0.1924532E-01  0.5020142E-02  0.1895342E+06  0.2461565E+04
  0.8238096E+00  0.6835709E+05  0.2014144E+04  0.3556268E-02 -0.4291534E-02  0.1912085E+06  0.3177146E+04
  0.8547620E+00  0.6916245E+05  0.2559004E+04  0.1328152E-01 -0.9307861E-03  0.1924596E+06  0.4057074E+04
  0.8857143E+00  0.6992658E+05  0.3217074E+04 -0.2480784E-02  0.2975464E-03  0.1937158E+06  0.5126224E+04
  0.9166667E+00  0.7075627E+05  0.4002515E+04  0.8789062E-02  0.2151489E-02  0.1953078E+06  0.6409468E+04
  0.9476191E+00  0.7165110E+05  0.4928917E+04  0.5307298E-01  0.2333069E-01  0.1972562E+06  0.7932708E+04
  0.9785714E+00  0.7259065E+05  0.6012927E+04  0.8482550E-02 -0.1083374E-02  0.1992584E+06  0.9727539E+04
  0.1009524E+01  0.7348820E+05  0.7271233E+04  0.5175321E-01  0.3436279E-01  0.2010929E+06  0.1182621E+05
  0.1040476E+01  0.7431530E+05  0.8720238E+04  0.2346432E-01  0.1115417E-01  0.2026778E+06  0.1426263E+05
  0.1071429E+01  0.7509060E+05  0.1037530E+05  0.1207682E-01  0.1092529E-01  0.2041420E+06  0.1707095E+05
  0.1102381E+01  0.7579668E+05  0.1224658E+05 -0.4429333E-03 -0.1296997E-01  0.2055799E+06  0.2027303E+05
  0.1133333E+01  0.7639191E+05  0.1433823E+05 -0.1701804E-01 -0.3921509E-01  0.2068419E+06  0.2387718E+05
  0.1164286E+01  0.7685575E+05  0.1665120E+05  0.2998586E-01  0.2667236E-01  0.2079759E+06  0.2788921E+05
  0.1195238E+01  0.7722373E+05  0.1918278E+05  0.1838350E-02 -0.8605957E-02  0.2090311E+06  0.3231439E+05
  0.1226190E+01  0.7749709E+05  0.2193364E+05  0.3544069E-01  0.4327393E-01  0.2099271E+06  0.3716541E+05
  0.1257143E+01  0.7764109E+05  0.2492497E+05  0.2815940E-01  0.4132080E-01  0.2106384E+06  0.4248987E+05
  0.1288095E+01  0.7762160E+05  0.2805221E+05  0.1781640E-01  0.1232910E-01  0.2109797E+06  0.4811125E+05
  0.1319048E+01  0.7742159E+05  0.3139094E+05  0.1092022E-01 -0.9887695E-02  0.2109247E+06  0.5415863E+05
  0.1350000E+01  0.7706985E+05  0.3487496E+05 -0.7776331E-02 -0.3662109E-02  0.2106687E+06  0.6052995E+05
  0.1380952E+01  0.7657966E+05  0.3847913E+05  0.1909348E-01  0.3344727E-01  0.2102215E+06  0.6718674E+05
  0.1411905E+01  0.7178912E+05  0.3966537E+05  0.6743716E-02 -0.3784180E-02  0.2007730E+06  0.6969326E+05
  0.1442857E+01  0.7109251E+05  0.4326130E+05  0.3384127E-03 -0.1306152E-01  0.2000212E+06  0.7648260E+05
  0.1473810E+01  0.7024570E+05  0.4689732E+05  0.1954702E-01  0.3320312E-01  0.1989839E+06  0.8342062E+05
  0.1504762E+01  0.6924182E+05  0.5055067E+05  0.1005921E-01  0.1806641E-01  0.1975689E+06  0.9047772E+05
  0.1535714E+01  0.6808120E+05  0.5419765E+05  0.5723110E-02 -0.4516602E-02  0.1958539E+06  0.9760610E+05
  0.1566667E+01  0.6680446E+05  0.5779106E+05  0.8103390E-02  0.3283691E-01  0.1939261E+06  0.1047378E+06
  0.1597619E+01  0.6541816E+05  0.6132100E+05  0.1543434E-01 -0.1440430E-01  0.1917589E+06  0.1118306E+06
  0.1628572E+01  0.6394711E+05  0.6475983E+05  0.3298040E-02  0.2307129E-01  0.1893679E+06  0.1188361E+06
  0.1659524E+01  0.6239981E+05  0.6806828E+05  0.1088650E-01 -0.1647949E-01  0.1868727E+06  0.1256880E+06
  0.1690476E+01  0.6082004E+05  0.7123235E+05  0.1386444E-01 -0.6103516E-02  0.1843097E+06  0.1323414E+06
  0.1721429E+01  0.5919666E+05  0.7424679E+05  0.1148778E-01 -0.6835938E-02  0.1816163E+06  0.1387904E+06
  0.1752381E+01  0.5754272E+05  0.7711660E+05  0.9752357E-02 -0.2319336E-01  0.1788025E+06  0.1450324E+06
  0.1783333E+01  0.5586207E+05  0.7982561E+05  0.5065348E-02  0.7324219E-03  0.1759270E+06  0.1510386E+06
  0.1814286E+01  0.5416513E+05  0.8236914E+05  0.1386027E-01 -0.1953125E-02  0.1729844E+06  0.1568087E+06
  0.1845238E+01  0.5246685E+05  0.8476365E+05  0.5027722E-02  0.4003906E-01  0.1699786E+06  0.1623470E+06
  0.1876190E+01  0.5079178E+05  0.8699798E+05  0.1171132E-02  0.2441406E-03  0.1669522E+06  0.1676164E+06
  0.1907143E+01  0.4912618E+05  0.8904652E+05  0.5888636E-02  0.9765625E-02  0.1639625E+06  0.1725976E+06
  0.1938095E+01  0.4749848E+05  0.9092447E+05  0.8439948E-02 -0.2685547E-02  0.1610102E+06  0.1772690E+06
  0.1969048E+01  0.4590776E+05  0.9262849E+05  0.2603773E-02  0.2172852E-01  0.1581073E+06  0.1816610E+06
  0.2000000E+01  0.4435992E+05  0.9419790E+05  0.7690430E-02  0.2197266E-02  0.1551954E+06  0.1858120E+06
