VARIABLES="w (rad/s)"
"A   1   1" "B   1   1"
"A   1   2" "B   1   2"
"A   1   3" "B   1   3"
Zone t="Motion of body    1 in DoF   1",I=    64,F=POINT
  0.5000000E-01  0.1134827E+06  0.1404192E-01  0.1663208E-01  0.1717162E-04 -0.5491354E+05 -0.2848572E-02
  0.8095238E-01  0.1140530E+06  0.6173766E-01  0.1413682E-01  0.4742580E-04 -0.5530965E+05 -0.1217659E-01
  0.1119048E+00  0.1142097E+06  0.1731335E+00  0.6408691E-02 -0.2897857E-04 -0.5529107E+05 -0.3352924E-01
  0.1428571E+00  0.1144038E+06  0.3892761E+00  0.3952026E-01  0.3449772E-03 -0.5537743E+05 -0.7456079E-01
  0.1738095E+00  0.1145107E+06  0.7737792E+00 -0.1193948E-01 -0.7890444E-04 -0.5517138E+05 -0.1454570E+00
  0.2047619E+00  0.1147519E+06  0.1425146E+01  0.1281738E-01  0.1516640E-03 -0.5515877E+05 -0.2635816E+00
  0.2357143E+00  0.1148532E+06  0.2503891E+01  0.1942028E-01  0.2889968E-03 -0.5520503E+05 -0.4539188E+00
  0.2666667E+00  0.1151780E+06  0.4263902E+01  0.1602173E-01  0.3933012E-03 -0.5489152E+05 -0.7501404E+00
  0.2976190E+00  0.1154701E+06  0.7133653E+01 -0.2050781E-03  0.2345443E-04 -0.5491434E+05 -0.1223513E+01
  0.3285715E+00  0.1156496E+06  0.1176295E+02  0.2182670E-01  0.6313920E-03 -0.5498818E+05 -0.1954748E+01
  0.3595238E+00  0.1160939E+06  0.1925932E+02  0.3004870E-01  0.1480401E-02 -0.5450204E+05 -0.3054315E+01
  0.3904762E+00  0.1165447E+06  0.3129915E+02  0.9065953E-02  0.7877350E-03 -0.5434177E+05 -0.4747575E+01
  0.4214286E+00  0.1170201E+06  0.5015797E+02  0.9703554E-02  0.9438396E-03 -0.5425662E+05 -0.7241077E+01
  0.4523810E+00  0.1173753E+06  0.7963750E+02  0.5666632E-02 -0.3372431E-03 -0.5418630E+05 -0.1090954E+02
  0.4833333E+00  0.1179907E+06  0.1233480E+03  0.1136517E-02 -0.6943941E-03 -0.5383979E+05 -0.1576289E+02
  0.5142857E+00  0.1187674E+06  0.1879550E+03 -0.4153782E-02 -0.7605553E-03 -0.5357650E+05 -0.2232590E+02
  0.5452381E+00  0.1193377E+06  0.2793062E+03  0.2440340E-01  0.2879620E-02 -0.5361646E+05 -0.3080931E+02
  0.5761905E+00  0.1199602E+06  0.4051574E+03  0.2372804E-01  0.5807877E-02 -0.5337186E+05 -0.4066690E+02
  0.6071429E+00  0.1208134E+06  0.5769329E+03  0.1005285E-02  0.6599426E-03 -0.5300987E+05 -0.5186560E+02
  0.6380953E+00  0.1217997E+06  0.8033427E+03  0.9565211E-04 -0.3097534E-02 -0.5267994E+05 -0.6352185E+02
  0.6690477E+00  0.1227512E+06  0.1098821E+04  0.4196438E-02  0.1850128E-02 -0.5240206E+05 -0.7470263E+02
  0.7000000E+00  0.1236251E+06  0.1479304E+04  0.2633231E-01  0.8314133E-02 -0.5229657E+05 -0.8460118E+02
  0.7309524E+00  0.1245740E+06  0.1959491E+04  0.2805629E-01  0.3370285E-02 -0.5195648E+05 -0.8892642E+02
  0.7619048E+00  0.1257148E+06  0.2560463E+04  0.2146911E-01  0.6790161E-03 -0.5137388E+05 -0.8338739E+02
  0.7928572E+00  0.1269698E+06  0.3303696E+04  0.3156232E-01  0.1132965E-01 -0.5084388E+05 -0.6513539E+02
  0.8238096E+00  0.1281555E+06  0.4210892E+04  0.1037245E-01 -0.2555847E-02 -0.5038415E+05 -0.2841046E+02
  0.8547620E+00  0.1293102E+06  0.5305671E+04  0.1756588E-01  0.4570007E-02 -0.5004652E+05  0.3319397E+02
  0.8857143E+00  0.1304044E+06  0.6611267E+04  0.8820564E-02  0.6027222E-03 -0.4950944E+05  0.1328071E+03
  0.9166667E+00  0.1315122E+06  0.8150589E+04  0.3329190E-02  0.6256104E-02 -0.4891796E+05  0.2775349E+03
  0.9476191E+00  0.1325932E+06  0.9946643E+04  0.1932269E-01  0.1797485E-01 -0.4816459E+05  0.4825587E+03
  0.9785714E+00  0.1337228E+06  0.1202331E+05  0.1945997E-01  0.9658813E-02 -0.4742079E+05  0.7581412E+03
  0.1009524E+01  0.1347266E+06  0.1439697E+05  0.1269646E-01  0.1388550E-01 -0.4660216E+05  0.1124632E+04
  0.1040476E+01  0.1356188E+06  0.1708264E+05 -0.2346432E-02 -0.4180908E-02 -0.4581627E+05  0.1596880E+04
  0.1071429E+01  0.1362816E+06  0.2009041E+05  0.1595052E-01  0.9124756E-02 -0.4522243E+05  0.2185478E+04
  0.1102381E+01  0.1366599E+06  0.2341505E+05 -0.1550267E-02 -0.1293945E-01 -0.4450161E+05  0.2922749E+04
  0.1133333E+01  0.1368978E+06  0.2704929E+05  0.4308364E-02  0.2319336E-02 -0.4382293E+05  0.3808943E+04
  0.1164286E+01  0.1368598E+06  0.3097135E+05 -0.1258148E-02  0.1660156E-01 -0.4301757E+05  0.4871565E+04
  0.1195238E+01  0.1366358E+06  0.3515839E+05  0.1143862E-01  0.5249023E-02 -0.4223360E+05  0.6114593E+04
  0.1226190E+01  0.1361567E+06  0.3958455E+05 -0.5375835E-02 -0.1855469E-01 -0.4163113E+05  0.7537034E+04
  0.1257143E+01  0.1353364E+06  0.4424231E+05  0.2621737E-01  0.2813721E-01 -0.4106681E+05  0.9171315E+04
  0.1288095E+01  0.1342995E+06  0.4896286E+05  0.7581447E-03  0.9155273E-02 -0.4059025E+05  0.1097597E+05
  0.1319048E+01  0.1329845E+06  0.5380402E+05 -0.2406151E-02 -0.7080078E-02 -0.4016472E+05  0.1298104E+05
  0.1350000E+01  0.1314033E+06  0.5866878E+05  0.1103154E-01 -0.1281738E-01 -0.3980601E+05  0.1516706E+05
  0.1380952E+01  0.1295899E+06  0.6349009E+05  0.1325936E-01 -0.1208496E-01 -0.3952592E+05  0.1752814E+05
  0.1411905E+01  0.1265777E+06  0.6734567E+05 -0.1175827E-01 -0.5004883E-02 -0.4024279E+05  0.1971453E+05
  0.1442857E+01  0.1243472E+06  0.7193823E+05  0.1556699E-01  0.3918457E-01 -0.4027262E+05  0.2233486E+05
  0.1473810E+01  0.1219496E+06  0.7634602E+05  0.3644361E-02  0.1879883E-01 -0.4042498E+05  0.2505629E+05
  0.1504762E+01  0.1194533E+06  0.8052850E+05  0.6327569E-02 -0.1135254E-01 -0.4075125E+05  0.2785296E+05
  0.1535714E+01  0.1168082E+06  0.8444619E+05  0.2066679E-02 -0.8056641E-02 -0.4114531E+05  0.3072972E+05
  0.1566667E+01  0.1141209E+06  0.8807087E+05  0.1714179E-02  0.1318359E-01 -0.4167222E+05  0.3362418E+05
  0.1597619E+01  0.1113942E+06  0.9136301E+05  0.6876688E-02 -0.1708984E-01 -0.4226777E+05  0.3655254E+05
  0.1628572E+01  0.1086737E+06  0.9435388E+05 -0.2998218E-03  0.3234863E-01 -0.4303281E+05  0.3944309E+05
  0.1659524E+01  0.1059515E+06  0.9701573E+05  0.1632975E-01  0.1293945E-01 -0.4386300E+05  0.4230887E+05
  0.1690476E+01  0.1032442E+06  0.9935157E+05  0.5921269E-02 -0.6103516E-02 -0.4472182E+05  0.4514246E+05
  0.1721429E+01  0.1006443E+06  0.1013861E+06  0.8651290E-02  0.9521484E-02 -0.4573588E+05  0.4784996E+05
  0.1752381E+01  0.9811041E+05  0.1030977E+06  0.1114555E-02 -0.2441406E-02 -0.4676238E+05  0.5051812E+05
  0.1783333E+01  0.9562166E+05  0.1045209E+06  0.1656506E-01  0.1293945E-01 -0.4781724E+05  0.5310483E+05
  0.1814286E+01  0.9325516E+05  0.1056640E+06  0.3364143E-02 -0.8300781E-02 -0.4894583E+05  0.5555627E+05
  0.1845238E+01  0.9099708E+05  0.1065141E+06  0.5556955E-02 -0.1342773E-01 -0.5005850E+05  0.5797791E+05
  0.1876190E+01  0.8885922E+05  0.1071543E+06  0.6441223E-02 -0.7568359E-02 -0.5124764E+05  0.6024756E+05
  0.1907143E+01  0.8682559E+05  0.1075874E+06  0.1369748E-01 -0.4150391E-02 -0.5247244E+05  0.6235477E+05
  0.1938095E+01  0.8485530E+05  0.1077813E+06  0.9447702E-03 -0.3906250E-02 -0.5359811E+05  0.6449348E+05
  0.1969048E+01  0.8303434E+05  0.1078182E+06  0.7191374E-02 -0.3173828E-02 -0.5479507E+05  0.6639242E+05
  0.2000000E+01  0.8134792E+05  0.1076956E+06 -0.5371094E-02 -0.4150391E-02 -0.5600286E+05  0.6819184E+05
Zone t="Motion of body    1 in DoF   2",I=    64,F=POINT
  0.5000000E-01  0.1770020E-01  0.5626678E-04  0.1681834E+06  0.5720840E+03 -0.1159668E-01 -0.1144409E-04
  0.8095238E-01 -0.1036700E-01  0.2861023E-04  0.1655072E+06  0.9482623E+03 -0.1884909E-02  0.2288818E-04
  0.1119048E+00 -0.1254467E-01  0.5722046E-04  0.1642324E+06  0.1357288E+04 -0.8726729E-02 -0.1411438E-03
  0.1428571E+00  0.1110840E-01 -0.1468658E-03  0.1633797E+06  0.1814337E+04  0.9399414E-02 -0.0000000E+00
  0.1738095E+00  0.1527551E-01  0.2098083E-03  0.1632112E+06  0.2338683E+04 -0.1334412E-01  0.3967285E-03
  0.2047619E+00  0.3278865E-02  0.3585815E-03  0.1632886E+06  0.2954138E+04 -0.1848088E-01  0.1220703E-03
  0.2357143E+00  0.3366181E-02  0.2670288E-03  0.1638109E+06  0.3694110E+04  0.6732362E-02  0.4577637E-04
  0.2666667E+00  0.5950927E-02  0.1045227E-02  0.1645142E+06  0.4586564E+04  0.1739502E-01  0.1373291E-03
  0.2976190E+00 -0.1620117E-01 -0.3051758E-04  0.1652774E+06  0.5694283E+04 -0.1722656E-01  0.4577637E-03
  0.3285715E+00  0.1727560E-01  0.7400513E-03  0.1663446E+06  0.7048573E+04 -0.6687329E-02 -0.1495361E-02
  0.3595238E+00  0.8148799E-02  0.2029419E-02  0.1672728E+06  0.8723852E+04 -0.1358133E-02  0.5493164E-03
  0.3904762E+00  0.2063286E-01  0.7781982E-03  0.1680614E+06  0.1077441E+05 -0.5001905E-02  0.9155273E-03
  0.4214286E+00 -0.2520028E-01 -0.4730225E-03  0.1683772E+06  0.1317223E+05 -0.5793167E-02  0.5493164E-03
  0.4523810E+00  0.1079359E-02 -0.0000000E+00  0.1685005E+06  0.1603720E+05 -0.9174547E-02  0.6103516E-04
  0.4833333E+00  0.1363820E-01 -0.1312256E-02  0.1678321E+06  0.1913050E+05 -0.1717403E-01 -0.6713867E-03
  0.5142857E+00 -0.8070204E-02 -0.4547119E-02  0.1665803E+06  0.2259285E+05  0.1661513E-01 -0.2258301E-02
  0.5452381E+00  0.1768687E-01  0.3173828E-02  0.1649980E+06  0.2622498E+05  0.1880629E-01  0.1708984E-02
  0.5761905E+00  0.6355727E-02 -0.1831055E-02  0.1629987E+06  0.2996248E+05 -0.9745447E-02 -0.4882812E-03
  0.6071429E+00 -0.4825367E-02 -0.1464844E-02  0.1604652E+06  0.3389373E+05  0.2010570E-02 -0.3295898E-02
  0.6380953E+00 -0.3252172E-02  0.3417969E-02  0.1577612E+06  0.3778973E+05 -0.3826084E-02 -0.4516602E-02
  0.6690477E+00  0.1550858E-01 -0.4333496E-02  0.1548418E+06  0.4172441E+05  0.1459631E-02  0.3662109E-02
  0.7000000E+00  0.3069196E-01 -0.2441406E-03  0.1517159E+06  0.4571314E+05  0.1185826E-01 -0.5737305E-02
  0.7309524E+00 -0.1219113E-01  0.2929688E-02  0.1485125E+06  0.4964261E+05  0.4676048E-02 -0.1464844E-02
  0.7619048E+00  0.1682281E-01  0.6835938E-02  0.1451335E+06  0.5353620E+05 -0.1025391E-01  0.1049805E-01
  0.7928572E+00 -0.3079251E-02 -0.5737305E-02  0.1415710E+06  0.5738316E+05 -0.1046945E-01 -0.5615234E-02
  0.8238096E+00  0.1896676E-01 -0.2441406E-03  0.1379579E+06  0.6114136E+05 -0.8890670E-02  0.9033203E-02
  0.8547620E+00 -0.5141234E-02  0.6958008E-02  0.1343944E+06  0.6476865E+05  0.1542370E-01 -0.2685547E-02
  0.8857143E+00 -0.6064138E-02 -0.1159668E-01  0.1308395E+06  0.6825823E+05  0.1984627E-01 -0.4394531E-02
  0.9166667E+00 -0.3995028E-02  0.1025391E-01  0.1272678E+06  0.7160887E+05 -0.1384943E-01 -0.0000000E+00
  0.9476191E+00 -0.2061087E-02 -0.1062012E-01  0.1236531E+06  0.7482109E+05  0.5152717E-03 -0.6591797E-02
  0.9785714E+00  0.1646613E-01 -0.1306152E-01  0.1200573E+06  0.7786452E+05  0.7484603E-02  0.5126953E-02
  0.1009524E+01 -0.5320423E-02 -0.2807617E-02  0.1165028E+06  0.8073037E+05 -0.2418374E-02  0.2685547E-02
  0.1040476E+01  0.1407859E-01  0.5981445E-02  0.1130416E+06  0.8338712E+05  0.1220144E-01 -0.4882812E-03
  0.1071429E+01 -0.3190104E-02  0.1086426E-01  0.1096826E+06  0.8583703E+05  0.9114584E-02  0.4638672E-02
  0.1102381E+01 -0.7529866E-02  0.1000977E-01  0.1064227E+06  0.8808968E+05  0.1505973E-01 -0.1464844E-02
  0.1133333E+01  0.1507927E-02 -0.2197266E-02  0.1032685E+06  0.9013587E+05 -0.4308364E-03 -0.1171875E-01
  0.1164286E+01  0.1195241E-01 -0.7080078E-02  0.1002209E+06  0.9199881E+05  0.4193827E-02 -0.9765625E-03
  0.1195238E+01 -0.4698005E-02  0.1074219E-01  0.9727617E+05  0.9366750E+05 -0.4085221E-03  0.1464844E-02
  0.1226190E+01  0.1513198E-01  0.5859375E-02  0.9444523E+05  0.9514916E+05 -0.9955249E-02 -0.7812500E-02
  0.1257143E+01 -0.2913041E-03 -0.7324219E-03  0.9172442E+05  0.9650717E+05 -0.1165217E-02 -0.9765625E-03
  0.1288095E+01  0.1326753E-02  0.2929688E-02  0.8910662E+05  0.9756902E+05  0.7960519E-02  0.1318359E-01
  0.1319048E+01 -0.2868873E-02  0.1342773E-01  0.8661905E+05  0.9850070E+05 -0.3701771E-02 -0.0000000E+00
  0.1350000E+01 -0.6239149E-02 -0.1708984E-02  0.8425515E+05  0.9925884E+05  0.8680555E-02  0.4882812E-03
  0.1380952E+01  0.1767915E-02 -0.5126953E-02  0.8201393E+05  0.9982919E+05 -0.1414332E-01  0.1464844E-02
  0.1411905E+01 -0.3198942E-02  0.3906250E-02  0.7932240E+05  0.1004782E+06  0.2247905E-02  0.9765625E-03
  0.1442857E+01  0.1015238E-01  0.1367188E-01  0.7730449E+05  0.1008281E+06  0.3045715E-02  0.5859375E-02
  0.1473810E+01 -0.1151287E-01  0.8056641E-02  0.7539962E+05  0.1010394E+06  0.4141319E-02 -0.4394531E-02
  0.1504762E+01 -0.1362861E-01  0.7324219E-03  0.7361252E+05  0.1011015E+06  0.5191851E-02 -0.4394531E-02
  0.1535714E+01  0.1104878E-01 -0.1074219E-01  0.7192122E+05  0.1010651E+06 -0.6676962E-02 -0.1074219E-01
  0.1566667E+01  0.1168758E-02  0.1074219E-01  0.7033863E+05  0.1008943E+06  0.7324218E-02  0.9765625E-02
  0.1597619E+01 -0.6876688E-02  0.1953125E-02  0.6885221E+05  0.1006083E+06 -0.3361936E-02 -0.8300781E-02
  0.1628572E+01  0.9819164E-02  0.2685547E-02  0.6746876E+05  0.1002157E+06  0.2338610E-01  0.6347656E-02
  0.1659524E+01  0.6252382E-02  0.1025391E-01  0.6617184E+05  0.9973348E+05 -0.3383642E-02  0.4882812E-02
  0.1690476E+01 -0.1299791E-01  0.4882812E-03  0.6494993E+05  0.9917195E+05  0.2455160E-02  0.4882812E-03
  0.1721429E+01  0.5034768E-02  0.1953125E-02  0.6383309E+05  0.9850138E+05  0.1843718E-02  0.5371094E-02
  0.1752381E+01  0.8010865E-02  0.4882812E-02  0.6278918E+05  0.9775293E+05 -0.5294137E-02 -0.6835938E-02
  0.1783333E+01  0.3627884E-02 -0.1074219E-01  0.6181259E+05  0.9697189E+05 -0.6434361E-02  0.8789062E-02
  0.1814286E+01 -0.4709800E-03 -0.4882812E-03  0.6091290E+05  0.9610655E+05 -0.6324588E-02 -0.7324219E-02
  0.1845238E+01  0.3241557E-02 -0.1049805E-01  0.6008245E+05  0.9516135E+05 -0.8600051E-02 -0.4394531E-02
  0.1876190E+01 -0.2927829E-02 -0.1000977E-01  0.5932462E+05  0.9416172E+05 -0.1340295E-01 -0.1660156E-01
  0.1907143E+01  0.8448912E-02  0.1171875E-01  0.5863174E+05  0.9312566E+05  0.1152124E-02  0.2929688E-02
  0.1938095E+01  0.4723851E-02 -0.3906250E-02  0.5797469E+05  0.9206141E+05  0.6298468E-02 -0.9277344E-02
  0.1969048E+01 -0.1239892E-03 -0.1953125E-02  0.5738452E+05  0.9092675E+05  0.1078706E-01  0.3906250E-02
  0.2000000E+01 -0.7873535E-02  0.4150391E-02  0.5685398E+05  0.8972638E+05  0.8056641E-02  0.1464844E-01
Zone t="Motion of body    1 in DoF   3",I=    64,F=POINT
  0.5000000E-01 -0.5583911E+05 -0.3003647E-02  0.2288818E-03  0.1891274E-04  0.3571898E+06  0.1269794E-02
  0.8095238E-01 -0.5632462E+05 -0.1281422E-01 -0.8293601E-02 -0.2847228E-04  0.3569132E+06  0.2734049E-02
  0.1119048E+00 -0.5625448E+05 -0.3541361E-01  0.1840794E-01  0.1898894E-03  0.3573831E+06  0.6449278E-02
  0.1428571E+00 -0.5645277E+05 -0.7869639E-01 -0.5500793E-01 -0.5582316E-03  0.3565476E+06  0.1455174E-01
  0.1738095E+00 -0.5614210E+05 -0.1540833E+00  0.1676795E-01  0.3813764E-03  0.3574927E+06  0.2844268E-01
  0.2047619E+00 -0.5621315E+05 -0.2788524E+00 -0.3226702E-01 -0.4816791E-03  0.3569353E+06  0.5316215E-01
  0.2357143E+00 -0.5623244E+05 -0.4797872E+00 -0.5114006E-01 -0.1214944E-02  0.3569984E+06  0.8764575E-01
  0.2666667E+00 -0.5587983E+05 -0.7978719E+00 -0.3410339E-01 -0.8160193E-03  0.3576019E+06  0.1399319E+00
  0.2976190E+00 -0.5599100E+05 -0.1300107E+01  0.2789062E-01  0.1071712E-02  0.3569178E+06  0.2241122E+00
  0.3285715E+00 -0.5605042E+05 -0.2071948E+01 -0.1811152E-01 -0.9057857E-03  0.3568883E+06  0.3444519E+00
  0.3595238E+00 -0.5548345E+05 -0.3274223E+01 -0.9591816E-02 -0.4645512E-03  0.3579051E+06  0.5139228E+00
  0.3904762E+00 -0.5537152E+05 -0.5102165E+01 -0.2962066E-01 -0.1995809E-02  0.3577101E+06  0.7736580E+00
  0.4214286E+00 -0.5531326E+05 -0.7807657E+01  0.5358679E-02  0.1409717E-02  0.3575858E+06  0.1123711E+01
  0.4523810E+00 -0.5520365E+05 -0.1178887E+02 -0.1335706E-01 -0.2487451E-03  0.3578250E+06  0.1643110E+01
  0.4833333E+00 -0.5485587E+05 -0.1721906E+02  0.4205112E-01  0.6962508E-02  0.3582103E+06  0.2186942E+01
  0.5142857E+00 -0.5465772E+05 -0.2463133E+02  0.2729628E-01  0.4910588E-02  0.3580516E+06  0.2900173E+01
  0.5452381E+00 -0.5473286E+05 -0.3396907E+02  0.4813515E-02  0.7876158E-03  0.3576870E+06  0.3765386E+01
  0.5761905E+00 -0.5442049E+05 -0.4533631E+02 -0.1154624E-01 -0.1839161E-02  0.3583812E+06  0.4520487E+01
  0.6071429E+00 -0.5407629E+05 -0.5883830E+02  0.7439108E-02  0.3870904E-02  0.3586037E+06  0.5443110E+01
  0.6380953E+00 -0.5380145E+05 -0.7339955E+02 -0.1023478E-01 -0.2657890E-02  0.3585441E+06  0.5700052E+01
  0.6690477E+00 -0.5356580E+05 -0.8804759E+02  0.1131214E-01  0.5881906E-02  0.3584837E+06  0.6043879E+01
  0.7000000E+00 -0.5345433E+05 -0.1012961E+03 -0.7149832E-02 -0.6955862E-03  0.3584430E+06  0.6251178E+01
  0.7309524E+00 -0.5308776E+05 -0.1113378E+03  0.8517087E-02  0.7065535E-02  0.3589203E+06  0.4948122E+01
  0.7619048E+00 -0.5250812E+05 -0.1149077E+03 -0.6761169E-01 -0.2831554E-01  0.3594974E+06  0.2928049E+01
  0.7928572E+00 -0.5202697E+05 -0.1064883E+03 -0.3679705E-01 -0.1262927E-01  0.3595177E+06  0.8650947E+00
  0.8238096E+00 -0.5163004E+05 -0.8013850E+02 -0.5467762E-01 -0.2823555E-01  0.3594112E+06  0.5660582E-01
  0.8547620E+00 -0.5131752E+05 -0.2680409E+02 -0.2256430E-01 -0.1413795E-01  0.3592822E+06  0.1522093E+01
  0.8857143E+00 -0.5075161E+05  0.5704470E+02 -0.1075006E-01 -0.4119039E-02  0.3598507E+06  0.3534682E+01
  0.9166667E+00 -0.5015107E+05  0.1832758E+03 -0.1065341E-01 -0.1878500E-02  0.3602335E+06  0.5288916E+01
  0.9476191E+00 -0.4942244E+05  0.3620382E+03  0.6569713E-02  0.8650303E-02  0.3606822E+06  0.1099444E+02
  0.9785714E+00 -0.4870109E+05  0.6123144E+03  0.3742301E-03  0.3463745E-02  0.3609884E+06  0.2702030E+02
  0.1009524E+01 -0.4792391E+05  0.9464615E+03 -0.1354290E-01 -0.5907059E-02  0.3613370E+06  0.6203301E+02
  0.1040476E+01 -0.4717266E+05  0.1390589E+04 -0.1959270E-01 -0.2185822E-01  0.3614800E+06  0.1258922E+03
  0.1071429E+01 -0.4658923E+05  0.1965466E+04  0.1355794E-01  0.2275085E-01  0.3615812E+06  0.2275442E+03
  0.1102381E+01 -0.4587713E+05  0.2668050E+04  0.2148226E-01  0.3156281E-01  0.3619858E+06  0.3614148E+03
  0.1133333E+01 -0.4516894E+05  0.3523050E+04 -0.1098633E-01 -0.1227951E-01  0.3624951E+06  0.5245037E+03
  0.1164286E+01 -0.4436292E+05  0.4524446E+04 -0.7863425E-02  0.6156921E-02  0.3632630E+06  0.7307987E+03
  0.1195238E+01 -0.4357489E+05  0.5718470E+04 -0.7966182E-02 -0.1129150E-02  0.3637960E+06  0.1002885E+04
  0.1226190E+01 -0.4295952E+05  0.7123932E+04 -0.1473377E-01 -0.1922607E-01  0.3640938E+06  0.1363782E+04
  0.1257143E+01 -0.4240291E+05  0.8745502E+04 -0.3437389E-01 -0.4168701E-01  0.3643733E+06  0.1816433E+04
  0.1288095E+01 -0.4194739E+05  0.1049901E+05 -0.1630011E-01 -0.5920410E-02  0.3648000E+06  0.2343986E+04
  0.1319048E+01 -0.4152334E+05  0.1246449E+05  0.1110531E-02  0.2249146E-01  0.3652114E+06  0.2960898E+04
  0.1350000E+01 -0.4116402E+05  0.1457935E+05 -0.1265914E-02  0.2899170E-02  0.3658713E+06  0.3692888E+04
  0.1380952E+01 -0.4086823E+05  0.1687724E+05 -0.1007712E-01 -0.2862549E-01  0.3664387E+06  0.4560828E+04
  0.1411905E+01 -0.4440834E+05  0.1638955E+05  0.8299958E-02  0.3219604E-01  0.3640642E+06  0.4664039E+04
  0.1442857E+01 -0.4435392E+05  0.1876914E+05 -0.6937461E-02  0.3997803E-02  0.3645209E+06  0.5654989E+04
  0.1473810E+01 -0.4442139E+05  0.2124621E+05 -0.8116985E-02 -0.2536011E-01  0.3649835E+06  0.6761226E+04
  0.1504762E+01 -0.4462942E+05  0.2386627E+05  0.1330412E-01  0.5929565E-01  0.3652506E+06  0.7983303E+04
  0.1535714E+01 -0.4492382E+05  0.2651621E+05 -0.5087209E-02 -0.3564453E-01  0.3656203E+06  0.9352377E+04
  0.1566667E+01 -0.4532795E+05  0.2919509E+05 -0.1012924E-01  0.1153564E-01  0.3660221E+06  0.1081358E+05
  0.1597619E+01 -0.4581665E+05  0.3194205E+05 -0.3514752E-02  0.1831055E-02  0.3661513E+06  0.1235902E+05
  0.1628572E+01 -0.4646978E+05  0.3469652E+05 -0.8994654E-02  0.3662109E-02  0.3662048E+06  0.1399466E+05
  0.1659524E+01 -0.4719441E+05  0.3739992E+05  0.5001905E-02  0.1599121E-01  0.3663207E+06  0.1572713E+05
  0.1690476E+01 -0.4796045E+05  0.4002970E+05  0.5921269E-02  0.7812500E-02  0.3664171E+06  0.1750859E+05
  0.1721429E+01 -0.4884789E+05  0.4263129E+05 -0.1318967E-01 -0.2087402E-01  0.3664692E+06  0.1936839E+05
  0.1752381E+01 -0.4974514E+05  0.4520475E+05 -0.5433456E-02 -0.2807617E-02  0.3663809E+06  0.2121659E+05
  0.1783333E+01 -0.5069210E+05  0.4762099E+05 -0.2436843E-01 -0.2185059E-01  0.3663839E+06  0.2318540E+05
  0.1814286E+01 -0.5169430E+05  0.4995861E+05 -0.5113497E-02 -0.1708984E-02  0.3663514E+06  0.2520900E+05
  0.1845238E+01 -0.5271206E+05  0.5231333E+05 -0.1230469E-01 -0.1245117E-01  0.3660253E+06  0.2717425E+05
  0.1876190E+01 -0.5380779E+05  0.5456177E+05 -0.8718423E-02 -0.6103516E-03  0.3656494E+06  0.2913675E+05
  0.1907143E+01 -0.5494361E+05  0.5664177E+05 -0.8576926E-02 -0.1000977E-01  0.3653855E+06  0.3125463E+05
  0.1938095E+01 -0.5601341E+05  0.5864068E+05 -0.1662796E-01  0.1391602E-01  0.3649828E+06  0.3322832E+05
  0.1969048E+01 -0.5713796E+05  0.6047818E+05  0.4711589E-02 -0.8544922E-02  0.3646439E+06  0.3532909E+05
  0.2000000E+01 -0.5828027E+05  0.6229479E+05 -0.3173828E-02 -0.7202148E-02  0.3641304E+06  0.3723852E+05
