VARIABLES="w (rad/s)"
"abs(F   1   1)" "angle(F   1   1)"
"abs(F   1   2)" "angle(F   1   2)"
"abs(F   1   3)" "angle(F   1   3)"
Zone t="Diffraction force - beta =   0.000 deg",I=    64,F=POINT
  0.5000000E-01  0.1616805E+04 -0.1570806E+01  0.2600258E+06 -0.1722380E-04  0.9764274E+03  0.1570809E+01
  0.8095238E-01  0.2636830E+04 -0.1570802E+01  0.2595778E+06 -0.4633769E-04  0.1591800E+04  0.1570785E+01
  0.1119048E+00  0.3683252E+04 -0.1570794E+01  0.2589193E+06 -0.9201869E-04  0.2222689E+04  0.1570775E+01
  0.1428571E+00  0.4774860E+04 -0.1570796E+01  0.2580501E+06 -0.1578013E-03  0.2881930E+04  0.1570807E+01
  0.1738095E+00  0.5905139E+04 -0.1570795E+01  0.2569681E+06 -0.2489923E-03  0.3568179E+04  0.1570802E+01
  0.2047619E+00  0.7107887E+04 -0.1570786E+01  0.2556759E+06 -0.3732767E-03  0.4298008E+04  0.1570805E+01
  0.2357143E+00  0.8390642E+04 -0.1570783E+01  0.2541691E+06 -0.5420297E-03  0.5074972E+04  0.1570812E+01
  0.2666667E+00  0.9764783E+04 -0.1570776E+01  0.2524460E+06 -0.7690900E-03  0.5916110E+04  0.1570812E+01
  0.2976190E+00  0.1127382E+05 -0.1570769E+01  0.2505109E+06 -0.1077953E-02  0.6833738E+04  0.1570829E+01
  0.3285715E+00  0.1293552E+05 -0.1570752E+01  0.2483568E+06 -0.1492587E-02  0.7848407E+04  0.1570839E+01
  0.3595238E+00  0.1474269E+05 -0.1570729E+01  0.2459953E+06 -0.2050962E-02  0.8955930E+04  0.1570865E+01
  0.3904762E+00  0.1675771E+05 -0.1570695E+01  0.2434224E+06 -0.2795809E-02  0.1019919E+05  0.1570896E+01
  0.4214286E+00  0.1903855E+05 -0.1570644E+01  0.2406512E+06 -0.3755159E-02  0.1159177E+05  0.1570950E+01
  0.4523810E+00  0.2153521E+05 -0.1570568E+01  0.2377011E+06 -0.5002904E-02  0.1313782E+05  0.1571025E+01
  0.4833333E+00  0.2424459E+05 -0.1570461E+01  0.2345521E+06 -0.6506335E-02  0.1482125E+05  0.1571132E+01
  0.5142857E+00  0.2725668E+05 -0.1570313E+01  0.2312862E+06 -0.8355198E-02  0.1668253E+05  0.1571280E+01
  0.5452381E+00  0.3049676E+05 -0.1570112E+01  0.2278385E+06 -0.1052157E-01  0.1869179E+05  0.1571480E+01
  0.5761905E+00  0.3392982E+05 -0.1569845E+01  0.2242605E+06 -0.1301286E-01  0.2082089E+05  0.1571745E+01
  0.6071429E+00  0.3757869E+05 -0.1569499E+01  0.2205780E+06 -0.1590912E-01  0.2312621E+05  0.1572094E+01
  0.6380953E+00  0.4141667E+05 -0.1569058E+01  0.2167219E+06 -0.1913001E-01  0.2554190E+05  0.1572535E+01
  0.6690477E+00  0.4553261E+05 -0.1568501E+01  0.2128015E+06 -0.2276079E-01  0.2809689E+05  0.1573091E+01
  0.7000000E+00  0.4982079E+05 -0.1567805E+01  0.2087930E+06 -0.2684718E-01  0.3082550E+05  0.1573790E+01
  0.7309524E+00  0.5423497E+05 -0.1566947E+01  0.2046502E+06 -0.3134173E-01  0.3363075E+05  0.1574645E+01
  0.7619048E+00  0.5882371E+05 -0.1565900E+01  0.2004445E+06 -0.3630237E-01  0.3655402E+05  0.1575695E+01
  0.7928572E+00  0.6365444E+05 -0.1564631E+01  0.1962196E+06 -0.4176272E-01  0.3965205E+05  0.1576964E+01
  0.8238096E+00  0.6871770E+05 -0.1563105E+01  0.1919107E+06 -0.4772442E-01  0.4289113E+05  0.1578491E+01
  0.8547620E+00  0.7396245E+05 -0.1561286E+01  0.1875096E+06 -0.5418435E-01  0.4626964E+05  0.1580310E+01
  0.8857143E+00  0.7936261E+05 -0.1559132E+01  0.1831485E+06 -0.6117741E-01  0.4972020E+05  0.1582465E+01
  0.9166667E+00  0.8498126E+05 -0.1556602E+01  0.1787643E+06 -0.6871878E-01  0.5338926E+05  0.1584999E+01
  0.9476191E+00  0.9069497E+05 -0.1553645E+01  0.1743518E+06 -0.7680625E-01  0.5713300E+05  0.1587957E+01
  0.9785714E+00  0.9658086E+05 -0.1550216E+01  0.1698895E+06 -0.8544313E-01  0.6100416E+05  0.1591390E+01
  0.1009524E+01  0.1027077E+06 -0.1546261E+01  0.1654544E+06 -0.9464666E-01  0.6502154E+05  0.1595348E+01
  0.1040476E+01  0.1091479E+06 -0.1541721E+01  0.1611058E+06 -0.1044450E+00  0.6918759E+05  0.1599891E+01
  0.1071429E+01  0.1157851E+06 -0.1536539E+01  0.1567486E+06 -0.1148456E+00  0.7360380E+05  0.1605080E+01
  0.1102381E+01  0.1224465E+06 -0.1530650E+01  0.1523898E+06 -0.1258128E+00  0.7800698E+05  0.1610979E+01
  0.1133333E+01  0.1292626E+06 -0.1523998E+01  0.1480228E+06 -0.1373673E+00  0.8257897E+05  0.1617643E+01
  0.1164286E+01  0.1361822E+06 -0.1516523E+01  0.1437277E+06 -0.1495238E+00  0.8721032E+05  0.1625133E+01
  0.1195238E+01  0.1432406E+06 -0.1508180E+01  0.1395650E+06 -0.1623108E+00  0.9188725E+05  0.1633493E+01
  0.1226190E+01  0.1504715E+06 -0.1498910E+01  0.1354128E+06 -0.1757953E+00  0.9683464E+05  0.1642779E+01
  0.1257143E+01  0.1575499E+06 -0.1488701E+01  0.1312990E+06 -0.1900434E+00  0.1016454E+06  0.1653014E+01
  0.1288095E+01  0.1650975E+06 -0.1477395E+01  0.1272138E+06 -0.2046381E+00  0.1067226E+06  0.1664325E+01
  0.1319048E+01  0.1725329E+06 -0.1465040E+01  0.1231499E+06 -0.2200342E+00  0.1117948E+06  0.1676710E+01
  0.1350000E+01  0.1799441E+06 -0.1451618E+01  0.1192513E+06 -0.2360748E+00  0.1167900E+06  0.1690164E+01
  0.1380952E+01  0.1872453E+06 -0.1437075E+01  0.1154623E+06 -0.2527746E+00  0.1217010E+06  0.1704757E+01
  0.1411905E+01  0.1943268E+06 -0.1421437E+01  0.1117284E+06 -0.2702360E+00  0.1266971E+06  0.1720443E+01
  0.1442857E+01  0.2011863E+06 -0.1404794E+01  0.1080494E+06 -0.2884740E+00  0.1314869E+06  0.1737173E+01
  0.1473810E+01  0.2077338E+06 -0.1387194E+01  0.1044239E+06 -0.3074543E+00  0.1360318E+06  0.1754833E+01
  0.1504762E+01  0.2139356E+06 -0.1368691E+01  0.1008441E+06 -0.3272751E+00  0.1404601E+06  0.1773462E+01
  0.1535714E+01  0.2197467E+06 -0.1349457E+01  0.9732673E+05 -0.3478758E+00  0.1446418E+06  0.1792798E+01
  0.1566667E+01  0.2250529E+06 -0.1329663E+01  0.9406210E+05 -0.3691331E+00  0.1482993E+06  0.1812650E+01
  0.1597619E+01  0.2299460E+06 -0.1309404E+01  0.9088872E+05 -0.3911359E+00  0.1517056E+06  0.1832982E+01
  0.1628572E+01  0.2344804E+06 -0.1288828E+01  0.8779056E+05 -0.4140675E+00  0.1550134E+06  0.1853638E+01
  0.1659524E+01  0.2381575E+06 -0.1268198E+01  0.8477780E+05 -0.4378483E+00  0.1576929E+06  0.1874375E+01
  0.1690476E+01  0.2410998E+06 -0.1247746E+01  0.8184538E+05 -0.4624892E+00  0.1598551E+06  0.1894987E+01
  0.1721429E+01  0.2432670E+06 -0.1227657E+01  0.7899355E+05 -0.4880833E+00  0.1615502E+06  0.1915274E+01
  0.1752381E+01  0.2446936E+06 -0.1208223E+01  0.7621816E+05 -0.5145394E+00  0.1628006E+06  0.1934939E+01
  0.1783333E+01  0.2453562E+06 -0.1189712E+01  0.7360171E+05 -0.5415214E+00  0.1634718E+06  0.1953661E+01
  0.1814286E+01  0.2453428E+06 -0.1172500E+01  0.7121253E+05 -0.5685402E+00  0.1635206E+06  0.1970943E+01
  0.1845238E+01  0.2447128E+06 -0.1156532E+01  0.6893052E+05 -0.5961358E+00  0.1632108E+06  0.1987097E+01
  0.1876190E+01  0.2436123E+06 -0.1141951E+01  0.6674605E+05 -0.6243545E+00  0.1627287E+06  0.2001907E+01
  0.1907143E+01  0.2417435E+06 -0.1129153E+01  0.6465893E+05 -0.6527730E+00  0.1616471E+06  0.2014907E+01
  0.1938095E+01  0.2393057E+06 -0.1118156E+01  0.6267306E+05 -0.6812611E+00  0.1601595E+06  0.2026258E+01
  0.1969048E+01  0.2363388E+06 -0.1109193E+01  0.6077463E+05 -0.7095328E+00  0.1582384E+06  0.2035475E+01
  0.2000000E+01  0.2329962E+06 -0.1102149E+01  0.5895410E+05 -0.7375730E+00  0.1561341E+06  0.2042889E+01
