VARIABLES="w (rad/s)"
"abs(F   1   1)" "angle(F   1   1)"
"abs(F   1   2)" "angle(F   1   2)"
"abs(F   1   3)" "angle(F   1   3)"
Zone t="Diffraction force - beta =   0.000 deg",I=    64,F=POINT
  0.5000000E-01  0.1755292E+04 -0.1570795E+01  0.1212513E+03 -0.3087481E+01  0.3680816E+04  0.1570798E+01
  0.8095238E-01  0.2872143E+04 -0.1570792E+01  0.3140517E+03 -0.3085507E+01  0.6010138E+04  0.1570800E+01
  0.1119048E+00  0.4011516E+04 -0.1570788E+01  0.5961344E+03 -0.3083103E+01  0.8372868E+04  0.1570803E+01
  0.1428571E+00  0.5181146E+04 -0.1570781E+01  0.9687197E+03 -0.3080121E+01  0.1080125E+05  0.1570808E+01
  0.1738095E+00  0.6398540E+04 -0.1570772E+01  0.1433005E+04 -0.3076367E+01  0.1331660E+05  0.1570815E+01
  0.2047619E+00  0.7669102E+04 -0.1570759E+01  0.1992649E+04 -0.3071707E+01  0.1594230E+05  0.1570826E+01
  0.2357143E+00  0.9025432E+04 -0.1570739E+01  0.2647611E+04 -0.3065763E+01  0.1870814E+05  0.1570841E+01
  0.2666667E+00  0.1045954E+05 -0.1570710E+01  0.3404853E+04 -0.3058630E+01  0.2165272E+05  0.1570864E+01
  0.2976190E+00  0.1201391E+05 -0.1570667E+01  0.4266656E+04 -0.3049655E+01  0.2480141E+05  0.1570897E+01
  0.3285715E+00  0.1370920E+05 -0.1570604E+01  0.5231987E+04 -0.3038861E+01  0.2820242E+05  0.1570947E+01
  0.3595238E+00  0.1555647E+05 -0.1570509E+01  0.6306237E+04 -0.3025796E+01  0.3191376E+05  0.1571021E+01
  0.3904762E+00  0.1756562E+05 -0.1570367E+01  0.7495835E+04 -0.3010447E+01  0.3595109E+05  0.1571131E+01
  0.4214286E+00  0.1980767E+05 -0.1570161E+01  0.8773665E+04 -0.2993084E+01  0.4033421E+05  0.1571291E+01
  0.4523810E+00  0.2225755E+05 -0.1569859E+01  0.1015460E+05 -0.2973018E+01  0.4511522E+05  0.1571525E+01
  0.4833333E+00  0.2488871E+05 -0.1569442E+01  0.1162058E+05 -0.2952830E+01  0.5026934E+05  0.1571848E+01
  0.5142857E+00  0.2771183E+05 -0.1568864E+01  0.1316358E+05 -0.2930901E+01  0.5574434E+05  0.1572294E+01
  0.5452381E+00  0.3075385E+05 -0.1568097E+01  0.1476779E+05 -0.2908893E+01  0.6149578E+05  0.1572885E+01
  0.5761905E+00  0.3396125E+05 -0.1567106E+01  0.1643243E+05 -0.2887312E+01  0.6749443E+05  0.1573648E+01
  0.6071429E+00  0.3725770E+05 -0.1565828E+01  0.1815739E+05 -0.2865289E+01  0.7371016E+05  0.1574627E+01
  0.6380953E+00  0.4066030E+05 -0.1564240E+01  0.1994789E+05 -0.2844653E+01  0.8004205E+05  0.1575838E+01
  0.6690477E+00  0.4420998E+05 -0.1562285E+01  0.2176921E+05 -0.2824019E+01  0.8643538E+05  0.1577329E+01
  0.7000000E+00  0.4785945E+05 -0.1559894E+01  0.2361428E+05 -0.2803131E+01  0.9289356E+05  0.1579148E+01
  0.7309524E+00  0.5157357E+05 -0.1557027E+01  0.2550643E+05 -0.2783231E+01  0.9940070E+05  0.1581320E+01
  0.7619048E+00  0.5531407E+05 -0.1553605E+01  0.2743832E+05 -0.2763977E+01  0.1059042E+06  0.1583898E+01
  0.7928572E+00  0.5906404E+05 -0.1549565E+01  0.2938628E+05 -0.2744983E+01  0.1123637E+06  0.1586924E+01
  0.8238096E+00  0.6286911E+05 -0.1544858E+01  0.3133794E+05 -0.2726234E+01  0.1187057E+06  0.1590441E+01
  0.8547620E+00  0.6671759E+05 -0.1539429E+01  0.3328746E+05 -0.2707868E+01  0.1248956E+06  0.1594486E+01
  0.8857143E+00  0.7058920E+05 -0.1533218E+01  0.3523791E+05 -0.2690114E+01  0.1309419E+06  0.1599095E+01
  0.9166667E+00  0.7439538E+05 -0.1526144E+01  0.3718091E+05 -0.2672989E+01  0.1368488E+06  0.1604303E+01
  0.9476191E+00  0.7811532E+05 -0.1518153E+01  0.3911439E+05 -0.2656555E+01  0.1425456E+06  0.1610135E+01
  0.9785714E+00  0.8172081E+05 -0.1509199E+01  0.4103696E+05 -0.2640871E+01  0.1479399E+06  0.1616612E+01
  0.1009524E+01  0.8523752E+05 -0.1499280E+01  0.4293435E+05 -0.2625793E+01  0.1529985E+06  0.1623733E+01
  0.1040476E+01  0.8865312E+05 -0.1488388E+01  0.4478824E+05 -0.2611118E+01  0.1576922E+06  0.1631495E+01
  0.1071429E+01  0.9188253E+05 -0.1476479E+01  0.4658520E+05 -0.2596750E+01  0.1619085E+06  0.1639898E+01
  0.1102381E+01  0.9496870E+05 -0.1463595E+01  0.4834454E+05 -0.2583249E+01  0.1657486E+06  0.1648895E+01
  0.1133333E+01  0.9778267E+05 -0.1449682E+01  0.5005351E+05 -0.2570502E+01  0.1690969E+06  0.1658460E+01
  0.1164286E+01  0.1003145E+06 -0.1434786E+01  0.5172472E+05 -0.2558882E+01  0.1719553E+06  0.1668517E+01
  0.1195238E+01  0.1025045E+06 -0.1418935E+01  0.5334944E+05 -0.2548136E+01  0.1742611E+06  0.1678984E+01
  0.1226190E+01  0.1042904E+06 -0.1402163E+01  0.5492170E+05 -0.2538220E+01  0.1759493E+06  0.1689773E+01
  0.1257143E+01  0.1056639E+06 -0.1384526E+01  0.5643846E+05 -0.2528742E+01  0.1770302E+06  0.1700798E+01
  0.1288095E+01  0.1067015E+06 -0.1366495E+01  0.5789044E+05 -0.2520686E+01  0.1774409E+06  0.1711751E+01
  0.1319048E+01  0.1072572E+06 -0.1347844E+01  0.5926334E+05 -0.2512809E+01  0.1771545E+06  0.1722657E+01
  0.1350000E+01  0.1073598E+06 -0.1328850E+01  0.6057190E+05 -0.2505853E+01  0.1762208E+06  0.1733277E+01
  0.1380952E+01  0.1069909E+06 -0.1309648E+01  0.6181284E+05 -0.2499928E+01  0.1746922E+06  0.1743421E+01
  0.1411905E+01  0.1057594E+06 -0.1290966E+01  0.6296421E+05 -0.2494773E+01  0.1724649E+06  0.1752229E+01
  0.1442857E+01  0.1043468E+06 -0.1271788E+01  0.6407083E+05 -0.2490720E+01  0.1697555E+06  0.1760832E+01
  0.1473810E+01  0.1024314E+06 -0.1253024E+01  0.6511904E+05 -0.2487803E+01  0.1664799E+06  0.1768299E+01
  0.1504762E+01  0.9997132E+05 -0.1234776E+01  0.6610687E+05 -0.2485439E+01  0.1626526E+06  0.1774454E+01
  0.1535714E+01  0.9704131E+05 -0.1217420E+01  0.6704702E+05 -0.2484200E+01  0.1584029E+06  0.1779045E+01
  0.1566667E+01  0.9362572E+05 -0.1201213E+01  0.6793680E+05 -0.2483971E+01  0.1537186E+06  0.1781802E+01
  0.1597619E+01  0.8977091E+05 -0.1186359E+01  0.6877457E+05 -0.2484490E+01  0.1487760E+06  0.1782606E+01
  0.1628572E+01  0.8546109E+05 -0.1173202E+01  0.6955845E+05 -0.2485732E+01  0.1435199E+06  0.1781160E+01
  0.1659524E+01  0.8077202E+05 -0.1162163E+01  0.7030838E+05 -0.2487805E+01  0.1381111E+06  0.1777369E+01
  0.1690476E+01  0.7574314E+05 -0.1153867E+01  0.7103116E+05 -0.2490916E+01  0.1325657E+06  0.1770882E+01
  0.1721429E+01  0.7039739E+05 -0.1148788E+01  0.7174041E+05 -0.2494588E+01  0.1269796E+06  0.1761709E+01
  0.1752381E+01  0.6477941E+05 -0.1147805E+01  0.7243774E+05 -0.2498758E+01  0.1213834E+06  0.1749596E+01
  0.1783333E+01  0.5895626E+05 -0.1152103E+01  0.7314602E+05 -0.2503505E+01  0.1158894E+06  0.1734568E+01
  0.1814286E+01  0.5294884E+05 -0.1163423E+01  0.7385562E+05 -0.2508640E+01  0.1104566E+06  0.1716295E+01
  0.1845238E+01  0.4685068E+05 -0.1183987E+01  0.7456690E+05 -0.2513472E+01  0.1052582E+06  0.1695233E+01
  0.1876190E+01  0.4069054E+05 -0.1217840E+01  0.7526345E+05 -0.2517949E+01  0.1002395E+06  0.1671117E+01
  0.1907143E+01  0.3457508E+05 -0.1271393E+01  0.7594895E+05 -0.2521744E+01  0.9547066E+05  0.1644238E+01
  0.1938095E+01  0.2865038E+05 -0.1356134E+01  0.7664398E+05 -0.2524696E+01  0.9097589E+05  0.1614698E+01
  0.1969048E+01  0.2311411E+05 -0.1492592E+01  0.7732384E+05 -0.2526781E+01  0.8673847E+05  0.1582691E+01
  0.2000000E+01  0.1839800E+05 -0.1714932E+01  0.7790410E+05 -0.2527139E+01  0.8281221E+05  0.1548853E+01
