VARIABLES="w (rad/s)"
"abs(F   1   1)" "angle(F   1   1)"
"abs(F   1   2)" "angle(F   1   2)"
"abs(F   1   3)" "angle(F   1   3)"
Zone t="Diffraction force - beta =   0.000 deg",I=    64,F=POINT
  0.5000000E-01  0.4167962E+04 -0.1570799E+01  0.5844107E+06 -0.3888015E-04  0.1820505E+04 -0.1570795E+01
  0.8095238E-01  0.6799040E+04 -0.1570799E+01  0.5828988E+06 -0.1045154E-03  0.2966761E+04 -0.1570789E+01
  0.1119048E+00  0.9499726E+04 -0.1570790E+01  0.5806772E+06 -0.2072954E-03  0.4106958E+04 -0.1570778E+01
  0.1428571E+00  0.1229342E+05 -0.1570787E+01  0.5777508E+06 -0.3549178E-03  0.5251788E+04 -0.1570784E+01
  0.1738095E+00  0.1520336E+05 -0.1570783E+01  0.5741146E+06 -0.5588077E-03  0.6433403E+04 -0.1570774E+01
  0.2047619E+00  0.1826238E+05 -0.1570774E+01  0.5697579E+06 -0.8357128E-03  0.7627228E+04 -0.1570777E+01
  0.2357143E+00  0.2155342E+05 -0.1570763E+01  0.5647009E+06 -0.1210150E-02  0.8849574E+04 -0.1570760E+01
  0.2666667E+00  0.2503535E+05 -0.1570745E+01  0.5589141E+06 -0.1711015E-02  0.1015438E+05 -0.1570741E+01
  0.2976190E+00  0.2885264E+05 -0.1570720E+01  0.5524228E+06 -0.2389484E-02  0.1144183E+05 -0.1570721E+01
  0.3285715E+00  0.3305523E+05 -0.1570682E+01  0.5452052E+06 -0.3293907E-02  0.1280112E+05 -0.1570680E+01
  0.3595238E+00  0.3764472E+05 -0.1570625E+01  0.5373256E+06 -0.4505485E-02  0.1423893E+05 -0.1570625E+01
  0.3904762E+00  0.4267488E+05 -0.1570541E+01  0.5287205E+06 -0.6109599E-02  0.1573938E+05 -0.1570543E+01
  0.4214286E+00  0.4837333E+05 -0.1570416E+01  0.5195963E+06 -0.8159525E-02  0.1721271E+05 -0.1570418E+01
  0.4523810E+00  0.5457651E+05 -0.1570234E+01  0.5097877E+06 -0.1081005E-01  0.1875468E+05 -0.1570233E+01
  0.4833333E+00  0.6130814E+05 -0.1569982E+01  0.4996300E+06 -0.1396990E-01  0.2043474E+05 -0.1569983E+01
  0.5142857E+00  0.6862478E+05 -0.1569632E+01  0.4889642E+06 -0.1782728E-01  0.2192819E+05 -0.1569635E+01
  0.5452381E+00  0.7656978E+05 -0.1569167E+01  0.4779156E+06 -0.2230079E-01  0.2336579E+05 -0.1569169E+01
  0.5761905E+00  0.8497320E+05 -0.1568561E+01  0.4666042E+06 -0.2739535E-01  0.2468246E+05 -0.1568574E+01
  0.6071429E+00  0.9366076E+05 -0.1567778E+01  0.4548987E+06 -0.3325984E-01  0.2590816E+05 -0.1567805E+01
  0.6380953E+00  0.1027529E+06 -0.1566807E+01  0.4430366E+06 -0.3970512E-01  0.2703827E+05 -0.1566842E+01
  0.6690477E+00  0.1124621E+06 -0.1565606E+01  0.4309617E+06 -0.4690418E-01  0.2754222E+05 -0.1565647E+01
  0.7000000E+00  0.1223916E+06 -0.1564134E+01  0.4186262E+06 -0.5490752E-01  0.2787266E+05 -0.1564209E+01
  0.7309524E+00  0.1325714E+06 -0.1562363E+01  0.4062823E+06 -0.6361333E-01  0.2817691E+05 -0.1562511E+01
  0.7619048E+00  0.1429450E+06 -0.1560248E+01  0.3938672E+06 -0.7313387E-01  0.2799741E+05 -0.1560540E+01
  0.7928572E+00  0.1533926E+06 -0.1557756E+01  0.3813201E+06 -0.8346398E-01  0.2754576E+05 -0.1558199E+01
  0.8238096E+00  0.1643173E+06 -0.1554886E+01  0.3686780E+06 -0.9461893E-01  0.2625051E+05 -0.1555285E+01
  0.8547620E+00  0.1754358E+06 -0.1551578E+01  0.3563394E+06 -0.1066067E+00  0.2499947E+05 -0.1552160E+01
  0.8857143E+00  0.1866027E+06 -0.1547793E+01  0.3439842E+06 -0.1194393E+00  0.2304316E+05 -0.1548946E+01
  0.9166667E+00  0.1976487E+06 -0.1543500E+01  0.3315628E+06 -0.1330485E+00  0.2078313E+05 -0.1545741E+01
  0.9476191E+00  0.2085372E+06 -0.1538677E+01  0.3191888E+06 -0.1474519E+00  0.1794845E+05 -0.1543118E+01
  0.9785714E+00  0.2192203E+06 -0.1533348E+01  0.3073151E+06 -0.1626651E+00  0.1538541E+05 -0.1540933E+01
  0.1009524E+01  0.2298391E+06 -0.1527579E+01  0.2954999E+06 -0.1787520E+00  0.1175206E+05 -0.1540064E+01
  0.1040476E+01  0.2403015E+06 -0.1521472E+01  0.2837900E+06 -0.1955954E+00  0.7647917E+04 -0.1541282E+01
  0.1071429E+01  0.2502964E+06 -0.1514904E+01  0.2721607E+06 -0.2131745E+00  0.3022511E+04 -0.1581804E+01
  0.1102381E+01  0.2597378E+06 -0.1507957E+01  0.2607865E+06 -0.2314467E+00  0.1847731E+04  0.1786928E+01
  0.1133333E+01  0.2685586E+06 -0.1500761E+01  0.2499412E+06 -0.2503165E+00  0.6426309E+04  0.1700408E+01
  0.1164286E+01  0.2767795E+06 -0.1493502E+01  0.2392184E+06 -0.2699218E+00  0.1186094E+05  0.1688491E+01
  0.1195238E+01  0.2841781E+06 -0.1486460E+01  0.2286586E+06 -0.2900767E+00  0.1746747E+05  0.1685410E+01
  0.1226190E+01  0.2905898E+06 -0.1479506E+01  0.2182066E+06 -0.3108172E+00  0.2328427E+05  0.1690897E+01
  0.1257143E+01  0.2959370E+06 -0.1472823E+01  0.2078564E+06 -0.3323835E+00  0.2949806E+05  0.1697526E+01
  0.1288095E+01  0.3003206E+06 -0.1466858E+01  0.1981910E+06 -0.3536678E+00  0.3475098E+05  0.1704187E+01
  0.1319048E+01  0.3036792E+06 -0.1461855E+01  0.1887531E+06 -0.3754596E+00  0.4008218E+05  0.1707508E+01
  0.1350000E+01  0.3059291E+06 -0.1457893E+01  0.1794704E+06 -0.3976951E+00  0.4565741E+05  0.1711756E+01
  0.1380952E+01  0.3068727E+06 -0.1455128E+01  0.1702922E+06 -0.4201789E+00  0.5081392E+05  0.1716152E+01
  0.1411905E+01  0.3064604E+06 -0.1453725E+01  0.1612583E+06 -0.4429259E+00  0.5566584E+05  0.1718934E+01
  0.1442857E+01  0.3051455E+06 -0.1454211E+01  0.1522969E+06 -0.4659865E+00  0.6067391E+05  0.1719650E+01
  0.1473810E+01  0.3027012E+06 -0.1456806E+01  0.1437452E+06 -0.4885769E+00  0.6440865E+05  0.1716682E+01
  0.1504762E+01  0.2991854E+06 -0.1461643E+01  0.1355063E+06 -0.5105467E+00  0.6701380E+05  0.1710600E+01
  0.1535714E+01  0.2948248E+06 -0.1468772E+01  0.1273245E+06 -0.5331049E+00  0.6979662E+05  0.1703316E+01
  0.1566667E+01  0.2895387E+06 -0.1478591E+01  0.1192111E+06 -0.5559042E+00  0.7201504E+05  0.1692022E+01
  0.1597619E+01  0.2833465E+06 -0.1491174E+01  0.1111621E+06 -0.5792819E+00  0.7350552E+05  0.1677635E+01
  0.1628572E+01  0.2763852E+06 -0.1506688E+01  0.1031692E+06 -0.6040874E+00  0.7449937E+05  0.1659741E+01
  0.1659524E+01  0.2688282E+06 -0.1525276E+01  0.9526315E+05 -0.6307924E+00  0.7525005E+05  0.1638283E+01
  0.1690476E+01  0.2606955E+06 -0.1547398E+01  0.8754786E+05 -0.6588918E+00  0.7498298E+05  0.1609622E+01
  0.1721429E+01  0.2520461E+06 -0.1573595E+01  0.8016070E+05 -0.6877384E+00  0.7312327E+05  0.1568586E+01
  0.1752381E+01  0.2430678E+06 -0.1603662E+01  0.7292328E+05 -0.7212338E+00  0.7104474E+05  0.1520019E+01
  0.1783333E+01  0.2338768E+06 -0.1637986E+01  0.6599409E+05 -0.7612597E+00  0.6889223E+05  0.1464306E+01
  0.1814286E+01  0.2243898E+06 -0.1677206E+01  0.5948294E+05 -0.8082216E+00  0.6624933E+05  0.1395943E+01
  0.1845238E+01  0.2147790E+06 -0.1721784E+01  0.5337423E+05 -0.8633676E+00  0.6342010E+05  0.1311788E+01
  0.1876190E+01  0.2051812E+06 -0.1772228E+01  0.4774711E+05 -0.9285823E+00  0.6073284E+05  0.1210923E+01
  0.1907143E+01  0.1957498E+06 -0.1829186E+01  0.4273126E+05 -0.1003279E+01  0.5848525E+05  0.1093732E+01
  0.1938095E+01  0.1866198E+06 -0.1893630E+01  0.3832730E+05 -0.1087205E+01  0.5693946E+05  0.9577290E+00
  0.1969048E+01  0.1781255E+06 -0.1967208E+01  0.3452209E+05 -0.1178008E+01  0.5620655E+05  0.7791692E+00
  0.2000000E+01  0.1704043E+06 -0.2049910E+01  0.3123584E+05 -0.1276111E+01  0.5744120E+05  0.5860509E+00
