VARIABLES="w (rad/s)"
"abs(F   1   1)" "angle(F   1   1)"
"abs(F   1   2)" "angle(F   1   2)"
"abs(F   1   3)" "angle(F   1   3)"
Zone t="Diffraction force - beta =   0.000 deg",I=    64,F=POINT
  0.5000000E-01  0.2126196E+04 -0.1570804E+01  0.2169940E+06 -0.1487753E-04  0.2539894E+04  0.1570785E+01
  0.8095238E-01  0.3476490E+04 -0.1570806E+01  0.2167054E+06 -0.4004323E-04  0.4155333E+04  0.1570792E+01
  0.1119048E+00  0.4862587E+04 -0.1570791E+01  0.2162808E+06 -0.7957124E-04  0.5808401E+04  0.1570811E+01
  0.1428571E+00  0.6296271E+04 -0.1570788E+01  0.2157203E+06 -0.1365590E-03  0.7512340E+04  0.1570786E+01
  0.1738095E+00  0.7786538E+04 -0.1570787E+01  0.2150227E+06 -0.2157093E-03  0.9283688E+04  0.1570790E+01
  0.2047619E+00  0.9361352E+04 -0.1570780E+01  0.2141870E+06 -0.3237523E-03  0.1114834E+05  0.1570808E+01
  0.2357143E+00  0.1103512E+05 -0.1570782E+01  0.2132110E+06 -0.4707560E-03  0.1313031E+05  0.1570814E+01
  0.2666667E+00  0.1283437E+05 -0.1570771E+01  0.2120943E+06 -0.6691007E-03  0.1525436E+05  0.1570816E+01
  0.2976190E+00  0.1480106E+05 -0.1570763E+01  0.2108345E+06 -0.9394437E-03  0.1755573E+05  0.1570837E+01
  0.3285715E+00  0.1693484E+05 -0.1570733E+01  0.2094307E+06 -0.1303512E-02  0.2006835E+05  0.1570859E+01
  0.3595238E+00  0.1929489E+05 -0.1570705E+01  0.2078852E+06 -0.1795114E-02  0.2282892E+05  0.1570889E+01
  0.3904762E+00  0.2190306E+05 -0.1570661E+01  0.2061964E+06 -0.2453096E-02  0.2586463E+05  0.1570929E+01
  0.4214286E+00  0.2481693E+05 -0.1570594E+01  0.2043732E+06 -0.3303390E-02  0.2922856E+05  0.1571001E+01
  0.4523810E+00  0.2799337E+05 -0.1570494E+01  0.2024166E+06 -0.4412515E-02  0.3291390E+05  0.1571100E+01
  0.4833333E+00  0.3149966E+05 -0.1570357E+01  0.2003416E+06 -0.5757211E-02  0.3694321E+05  0.1571240E+01
  0.5142857E+00  0.3533041E+05 -0.1570162E+01  0.1981523E+06 -0.7414429E-02  0.4131981E+05  0.1571427E+01
  0.5452381E+00  0.3941058E+05 -0.1569902E+01  0.1958528E+06 -0.9366960E-02  0.4599370E+05  0.1571690E+01
  0.5761905E+00  0.4376190E+05 -0.1569560E+01  0.1934511E+06 -0.1162583E-01  0.5092460E+05  0.1572032E+01
  0.6071429E+00  0.4836534E+05 -0.1569113E+01  0.1909608E+06 -0.1425786E-01  0.5612674E+05  0.1572479E+01
  0.6380953E+00  0.5322335E+05 -0.1568550E+01  0.1883720E+06 -0.1721211E-01  0.6156879E+05  0.1573042E+01
  0.6690477E+00  0.5833131E+05 -0.1567844E+01  0.1856977E+06 -0.2055580E-01  0.6723959E+05  0.1573748E+01
  0.7000000E+00  0.6357989E+05 -0.1566963E+01  0.1829534E+06 -0.2433311E-01  0.7308951E+05  0.1574628E+01
  0.7309524E+00  0.6906327E+05 -0.1565886E+01  0.1801285E+06 -0.2852557E-01  0.7913680E+05  0.1575704E+01
  0.7619048E+00  0.7478573E+05 -0.1564580E+01  0.1772435E+06 -0.3318070E-01  0.8535159E+05  0.1577013E+01
  0.7928572E+00  0.8074156E+05 -0.1563002E+01  0.1743054E+06 -0.3832465E-01  0.9178509E+05  0.1578590E+01
  0.8238096E+00  0.8683836E+05 -0.1561120E+01  0.1713202E+06 -0.4397655E-01  0.9832287E+05  0.1580472E+01
  0.8547620E+00  0.9314146E+05 -0.1558890E+01  0.1682885E+06 -0.5015220E-01  0.1050497E+06  0.1582702E+01
  0.8857143E+00  0.9965041E+05 -0.1556268E+01  0.1652192E+06 -0.5687305E-01  0.1119214E+06  0.1585323E+01
  0.9166667E+00  0.1063394E+06 -0.1553206E+01  0.1621220E+06 -0.6415921E-01  0.1189271E+06  0.1588383E+01
  0.9476191E+00  0.1131732E+06 -0.1549656E+01  0.1590160E+06 -0.7203450E-01  0.1260082E+06  0.1591933E+01
  0.9785714E+00  0.1202600E+06 -0.1545564E+01  0.1558961E+06 -0.8050556E-01  0.1332510E+06  0.1596025E+01
  0.1009524E+01  0.1275156E+06 -0.1540876E+01  0.1527681E+06 -0.8959420E-01  0.1405524E+06  0.1600712E+01
  0.1040476E+01  0.1349842E+06 -0.1535535E+01  0.1496360E+06 -0.9930877E-01  0.1480201E+06  0.1606050E+01
  0.1071429E+01  0.1424982E+06 -0.1529483E+01  0.1465121E+06 -0.1096747E+00  0.1554903E+06  0.1612100E+01
  0.1102381E+01  0.1501319E+06 -0.1522661E+01  0.1433956E+06 -0.1207045E+00  0.1630117E+06  0.1618918E+01
  0.1133333E+01  0.1578968E+06 -0.1515025E+01  0.1402962E+06 -0.1324139E+00  0.1705282E+06  0.1626551E+01
  0.1164286E+01  0.1657865E+06 -0.1506526E+01  0.1372122E+06 -0.1448291E+00  0.1780018E+06  0.1635043E+01
  0.1195238E+01  0.1738496E+06 -0.1497112E+01  0.1341543E+06 -0.1579619E+00  0.1855732E+06  0.1644451E+01
  0.1226190E+01  0.1818798E+06 -0.1486739E+01  0.1311335E+06 -0.1718249E+00  0.1929615E+06  0.1654815E+01
  0.1257143E+01  0.1896752E+06 -0.1475426E+01  0.1281549E+06 -0.1866067E+00  0.2000286E+06  0.1666117E+01
  0.1288095E+01  0.1979318E+06 -0.1462946E+01  0.1251973E+06 -0.2018117E+00  0.2074120E+06  0.1678587E+01
  0.1319048E+01  0.2058041E+06 -0.1449512E+01  0.1222900E+06 -0.2179921E+00  0.2142342E+06  0.1692002E+01
  0.1350000E+01  0.2136126E+06 -0.1435043E+01  0.1194165E+06 -0.2349677E+00  0.2209031E+06  0.1706453E+01
  0.1380952E+01  0.2213014E+06 -0.1419534E+01  0.1165819E+06 -0.2527732E+00  0.2273697E+06  0.1721937E+01
  0.1411905E+01  0.2273016E+06 -0.1404458E+01  0.1138799E+06 -0.2712013E+00  0.2324943E+06  0.1736993E+01
  0.1442857E+01  0.2341286E+06 -0.1387296E+01  0.1111687E+06 -0.2907795E+00  0.2377656E+06  0.1754111E+01
  0.1473810E+01  0.2407222E+06 -0.1369283E+01  0.1085093E+06 -0.3112877E+00  0.2427589E+06  0.1772092E+01
  0.1504762E+01  0.2468534E+06 -0.1350615E+01  0.1059192E+06 -0.3327483E+00  0.2471232E+06  0.1790718E+01
  0.1535714E+01  0.2524490E+06 -0.1331401E+01  0.1033993E+06 -0.3551909E+00  0.2507327E+06  0.1809880E+01
  0.1566667E+01  0.2575502E+06 -0.1311790E+01  0.1009490E+06 -0.3786289E+00  0.2537650E+06  0.1829428E+01
  0.1597619E+01  0.2620815E+06 -0.1291816E+01  0.9856538E+05 -0.4030890E+00  0.2562299E+06  0.1849343E+01
  0.1628572E+01  0.2658258E+06 -0.1271782E+01  0.9626984E+05 -0.4285806E+00  0.2578339E+06  0.1869316E+01
  0.1659524E+01  0.2687231E+06 -0.1251959E+01  0.9406510E+05 -0.4551195E+00  0.2584790E+06  0.1889028E+01
  0.1690476E+01  0.2709878E+06 -0.1232314E+01  0.9193779E+05 -0.4828542E+00  0.2585722E+06  0.1908577E+01
  0.1721429E+01  0.2726078E+06 -0.1213171E+01  0.8989573E+05 -0.5116348E+00  0.2580630E+06  0.1927643E+01
  0.1752381E+01  0.2732248E+06 -0.1195023E+01  0.8797145E+05 -0.5414695E+00  0.2563909E+06  0.1945634E+01
  0.1783333E+01  0.2732293E+06 -0.1177805E+01  0.8614180E+05 -0.5724573E+00  0.2541273E+06  0.1962698E+01
  0.1814286E+01  0.2726183E+06 -0.1161763E+01  0.8441960E+05 -0.6045079E+00  0.2513051E+06  0.1978558E+01
  0.1845238E+01  0.2714202E+06 -0.1146959E+01  0.8282030E+05 -0.6375829E+00  0.2480145E+06  0.1993218E+01
  0.1876190E+01  0.2695522E+06 -0.1133651E+01  0.8135916E+05 -0.6714970E+00  0.2440875E+06  0.2006363E+01
  0.1907143E+01  0.2670564E+06 -0.1122021E+01  0.8005002E+05 -0.7060490E+00  0.2395262E+06  0.2017740E+01
  0.1938095E+01  0.2641619E+06 -0.1111906E+01  0.7887018E+05 -0.7412058E+00  0.2346757E+06  0.2027643E+01
  0.1969048E+01  0.2609391E+06 -0.1103379E+01  0.7782615E+05 -0.7767710E+00  0.2296614E+06  0.2035989E+01
  0.2000000E+01  0.2573575E+06 -0.1096614E+01  0.7691477E+05 -0.8124631E+00  0.2243411E+06  0.2042532E+01
