VARIABLES="w (rad/s)"
"A   1   1" "B   1   1"
"A   1   2" "B   1   2"
"A   1   3" "B   1   3"
Zone t="Motion of body    1 in DoF   1",I=    64,F=POINT
  0.5000000E-01  0.9656460E+04  0.1400639E-03 -0.1015663E-02 -0.1591227E-05  0.9677352E+02  0.1760278E-05
  0.8095238E-01  0.9664542E+04  0.5754782E-03  0.1113274E-02  0.4368075E-05  0.9590821E+02  0.7496967E-05
  0.1119048E+00  0.9698236E+04  0.1631647E-02 -0.7393005E-03 -0.4649596E-05  0.9615149E+02  0.2055410E-04
  0.1428571E+00  0.9696805E+04  0.3667732E-02 -0.7677078E-04  0.3398878E-05  0.9545943E+02  0.4634060E-04
  0.1738095E+00  0.9728916E+04  0.7329359E-02 -0.2087763E-02 -0.3844048E-05  0.9619129E+02  0.9284943E-04
  0.2047619E+00  0.9718042E+04  0.1356421E-01 -0.1429846E-02 -0.2359782E-05  0.9547171E+02  0.1721828E-03
  0.2357143E+00  0.9756937E+04  0.2395693E-01 -0.5745165E-03  0.3315974E-05  0.9593520E+02  0.3044729E-03
  0.2666667E+00  0.9760351E+04  0.4096249E-01  0.1146197E-02  0.1501192E-04  0.9676398E+02  0.5239748E-03
  0.2976190E+00  0.9761066E+04  0.6887593E-01 -0.1260910E-02 -0.7561437E-05  0.9652586E+02  0.8821829E-03
  0.3285715E+00  0.9795933E+04  0.1144272E+00  0.5921073E-03  0.1659445E-04  0.9690022E+02  0.1472046E-02
  0.3595238E+00  0.9820147E+04  0.1886020E+00  0.1777245E-03  0.3060966E-05  0.9813229E+02  0.2442745E-02
  0.3904762E+00  0.9817620E+04  0.3084411E+00 -0.3077344E-03 -0.2392946E-04  0.9777203E+02  0.4005773E-02
  0.4214286E+00  0.9841475E+04  0.4984818E+00 -0.1274044E-02 -0.7311348E-05  0.9828581E+02  0.6505690E-02
  0.4523810E+00  0.9887646E+04  0.7992054E+00  0.2940830E-02  0.1471152E-03  0.9952560E+02  0.1050267E-01
  0.4833333E+00  0.9906144E+04  0.1249178E+01  0.4261938E-03  0.3780448E-04  0.1004658E+03  0.1652944E-01
  0.5142857E+00  0.9918022E+04  0.1919978E+01  0.1800590E-02  0.9375624E-04  0.1010760E+03  0.2558405E-01
  0.5452381E+00  0.9960398E+04  0.2884869E+01 -0.9987344E-03 -0.6067567E-06  0.1021883E+03  0.3871563E-01
  0.5761905E+00  0.1001418E+05  0.4235645E+01  0.2429741E-02  0.2393564E-03  0.1051840E+03  0.5755756E-01
  0.6071429E+00  0.1004768E+05  0.6101422E+01 -0.1093247E-02 -0.3143214E-04  0.1052540E+03  0.8335198E-01
  0.6380953E+00  0.1005361E+05  0.8589361E+01  0.1315216E-02  0.2530050E-03  0.1044994E+03  0.1178834E+00
  0.6690477E+00  0.1009722E+05  0.1190247E+02  0.1924318E-02  0.2269670E-03  0.1065760E+03  0.1651361E+00
  0.7000000E+00  0.1016067E+05  0.1626021E+02  0.1335144E-03  0.1363121E-03  0.1082769E+03  0.2276623E+00
  0.7309524E+00  0.1022071E+05  0.2187394E+02 -0.2609402E-05  0.1065843E-03  0.1103544E+03  0.3095167E+00
  0.7619048E+00  0.1026620E+05  0.2903410E+02 -0.2408266E-02 -0.3707334E-03  0.1117131E+03  0.4147948E+00
  0.7928572E+00  0.1029771E+05  0.3806361E+02 -0.8275487E-03 -0.2807081E-03  0.1116844E+03  0.5475316E+00
  0.8238096E+00  0.1034674E+05  0.4937463E+02 -0.1546606E-02 -0.4220605E-03  0.1125084E+03  0.7161174E+00
  0.8547620E+00  0.1041139E+05  0.6341319E+02 -0.7876977E-03 -0.1162738E-03  0.1147678E+03  0.9304385E+00
  0.8857143E+00  0.1049159E+05  0.8070580E+02 -0.6029683E-04  0.2697110E-04  0.1177555E+03  0.1199718E+01
  0.9166667E+00  0.1057437E+05  0.1018071E+03  0.7532293E-03 -0.1389086E-03  0.1203630E+03  0.1531631E+01
  0.9476191E+00  0.1064678E+05  0.1273149E+03  0.2536103E-03  0.2776086E-03  0.1218074E+03  0.1934077E+01
  0.9785714E+00  0.1070194E+05  0.1578859E+03  0.1949115E-03 -0.1571476E-03  0.1224443E+03  0.2419851E+01
  0.1009524E+01  0.1076219E+05  0.1943609E+03 -0.6915039E-03  0.2571046E-03  0.1241668E+03  0.3012930E+01
  0.1040476E+01  0.1084349E+05  0.2376964E+03 -0.8102522E-03 -0.2560616E-03  0.1266355E+03  0.3729377E+01
  0.1071429E+01  0.1093725E+05  0.2888343E+03 -0.2225240E-03 -0.2542734E-03  0.1293351E+03  0.4586183E+01
  0.1102381E+01  0.1103882E+05  0.3488293E+03 -0.1000060E-02 -0.6341934E-03  0.1320063E+03  0.5605260E+01
  0.1133333E+01  0.1113821E+05  0.4187503E+03 -0.6698160E-03 -0.6884336E-03  0.1353747E+03  0.6821637E+01
  0.1164286E+01  0.1124117E+05  0.4998771E+03  0.1097603E-02  0.1238346E-02  0.1390822E+03  0.8262139E+01
  0.1195238E+01  0.1133886E+05  0.5933864E+03  0.9574738E-04 -0.2826452E-03  0.1419223E+03  0.9935624E+01
  0.1226190E+01  0.1142812E+05  0.7005436E+03 -0.1773279E-03 -0.4007816E-03  0.1437873E+03  0.1186197E+02
  0.1257143E+01  0.1150091E+05  0.8225037E+03  0.2336502E-03  0.5584955E-03  0.1451702E+03  0.1407534E+02
  0.1288095E+01  0.1160647E+05  0.9615705E+03  0.2540969E-02  0.1640081E-02  0.1483141E+03  0.1666842E+02
  0.1319048E+01  0.1170647E+05  0.1118477E+04  0.9138747E-03  0.2696514E-03  0.1519157E+03  0.1965644E+02
  0.1350000E+01  0.1181692E+05  0.1295202E+04  0.8477105E-04 -0.1907349E-05  0.1561100E+03  0.2310114E+02
  0.1380952E+01  0.1192996E+05  0.1493227E+04 -0.1425381E-02 -0.4494190E-03  0.1601111E+03  0.2702261E+02
  0.1411905E+01  0.1198482E+05  0.1704855E+04  0.9591422E-03  0.9002686E-03  0.1604574E+03  0.3113658E+02
  0.1442857E+01  0.1208843E+05  0.1948459E+04 -0.1295486E-03 -0.8006096E-03  0.1640863E+03  0.3607958E+02
  0.1473810E+01  0.1218654E+05  0.2217652E+04 -0.1164746E-02 -0.7877350E-03  0.1676668E+03  0.4164849E+02
  0.1504762E+01  0.1226778E+05  0.2513208E+04  0.1026709E-02  0.9536743E-05  0.1709317E+03  0.4789052E+02
  0.1535714E+01  0.1233929E+05  0.2836475E+04 -0.6284491E-03  0.1382828E-04  0.1738114E+03  0.5483893E+02
  0.1566667E+01  0.1240130E+05  0.3188401E+04  0.9350066E-03  0.1356602E-02  0.1768756E+03  0.6257257E+02
  0.1597619E+01  0.1245692E+05  0.3568945E+04 -0.4321808E-03 -0.1183033E-02  0.1797585E+03  0.7104680E+02
  0.1628572E+01  0.1250788E+05  0.3978411E+04  0.7729781E-03  0.1706600E-02  0.1827314E+03  0.8033095E+02
  0.1659524E+01  0.1254764E+05  0.4416525E+04 -0.2528537E-04  0.8659363E-03  0.1852670E+03  0.9036456E+02
  0.1690476E+01  0.1257921E+05  0.4883301E+04  0.9094023E-03  0.2066612E-02  0.1878992E+03  0.1013293E+03
  0.1721429E+01  0.1259512E+05  0.5377974E+04  0.2526248E-03  0.1497269E-03  0.1904630E+03  0.1132950E+03
  0.1752381E+01  0.1259502E+05  0.5899333E+04 -0.1393194E-03  0.2153397E-02  0.1928607E+03  0.1262249E+03
  0.1783333E+01  0.1257999E+05  0.6446327E+04  0.1026760E-02 -0.9078979E-03  0.1950542E+03  0.1401388E+03
  0.1814286E+01  0.1254850E+05  0.7016774E+04 -0.4625696E-04  0.1869202E-03  0.1971841E+03  0.1549977E+03
  0.1845238E+01  0.1250074E+05  0.7606782E+04 -0.8910148E-03 -0.1234055E-02  0.1985678E+03  0.1705958E+03
  0.1876190E+01  0.1243614E+05  0.8213259E+04 -0.6546950E-03 -0.7438660E-04  0.1994228E+03  0.1869591E+03
  0.1907143E+01  0.1235072E+05  0.8832696E+04  0.4840523E-03  0.2492905E-02  0.1994276E+03  0.2038698E+03
  0.1938095E+01  0.1224977E+05  0.9462439E+04  0.2027319E-03  0.4673004E-03  0.1991023E+03  0.2215106E+03
  0.1969048E+01  0.1213164E+05  0.1009915E+05 -0.1383255E-02 -0.3339767E-02  0.1984906E+03  0.2399846E+03
  0.2000000E+01  0.1199272E+05  0.1073884E+05 -0.1073837E-02 -0.1653671E-02  0.1976840E+03  0.2592878E+03
Zone t="Motion of body    1 in DoF   2",I=    64,F=POINT
  0.5000000E-01  0.2295971E-02 -0.5904585E-06  0.1638185E+05  0.2402592E+02 -0.5602837E-03 -0.7078052E-06
  0.8095238E-01  0.2052784E-02 -0.3699213E-05  0.1629016E+05  0.3990770E+02 -0.3652012E-03 -0.2063811E-05
  0.1119048E+00  0.2090069E-02  0.6683171E-05  0.1626769E+05  0.5729799E+02 -0.3621933E-03 -0.2153218E-05
  0.1428571E+00 -0.1088142E-02 -0.1130998E-04  0.1626007E+05  0.7690858E+02 -0.2019405E-03 -0.3576279E-05
  0.1738095E+00  0.7215264E-03  0.2726912E-05  0.1626975E+05  0.9966032E+02 -0.4828466E-03 -0.4515052E-05
  0.2047619E+00  0.1187657E-02 -0.6824732E-05  0.1630526E+05  0.1266671E+03 -0.1560255E-03 -0.5170703E-05
  0.2357143E+00  0.9629220E-03 -0.2235174E-05  0.1635382E+05  0.1595573E+03 -0.5785624E-03 -0.6169081E-05
  0.2666667E+00  0.1913309E-03 -0.3576279E-04  0.1641791E+05  0.1998427E+03 -0.5096197E-03 -0.8821487E-05
  0.2976190E+00  0.7658386E-03 -0.1314282E-04  0.1649754E+05  0.2504955E+03 -0.2451325E-03 -0.1057982E-04
  0.3285715E+00 -0.1387389E-02  0.8013844E-04  0.1658548E+05  0.3135999E+03 -0.4847153E-03 -0.1358986E-04
  0.3595238E+00 -0.7135504E-03  0.1281500E-05  0.1667451E+05  0.3929241E+03 -0.4562479E-03 -0.8344650E-05
  0.3904762E+00  0.1528903E-02  0.2712011E-04  0.1676912E+05  0.4919500E+03 -0.5837184E-03 -0.1460314E-04
  0.4214286E+00 -0.6879385E-03 -0.4881620E-04  0.1684495E+05  0.6105838E+03 -0.2579770E-03 -0.2330542E-04
  0.4523810E+00 -0.2110230E-02 -0.3701448E-04  0.1691272E+05  0.7552828E+03 -0.4511381E-03 -0.2777576E-04
  0.4833333E+00 -0.2363797E-02  0.7021427E-04  0.1694852E+05  0.9165809E+03 -0.3650271E-03 -0.2598763E-04
  0.5142857E+00 -0.1188649E-02  0.6663799E-04  0.1696814E+05  0.1101741E+04 -0.4876985E-03 -0.3933907E-04
  0.5452381E+00  0.1359048E-02 -0.9870529E-04  0.1696375E+05  0.1303311E+04 -0.5754529E-03 -0.4696846E-04
  0.5761905E+00  0.1549208E-02 -0.4196167E-04  0.1693625E+05  0.1518816E+04 -0.5164028E-03 -0.7200241E-04
  0.6071429E+00 -0.1721550E-02 -0.2782345E-03  0.1688873E+05  0.1752986E+04 -0.3518497E-03 -0.8273125E-04
  0.6380953E+00  0.1013314E-02 -0.5006790E-04  0.1683070E+05  0.1995654E+04 -0.3736411E-03 -0.7963181E-04
  0.6690477E+00 -0.3118820E-02  0.9775162E-04  0.1675934E+05  0.2251856E+04 -0.2907858E-03 -0.9083748E-04
  0.7000000E+00 -0.2370562E-02  0.5960464E-05  0.1666788E+05  0.2522645E+04 -0.4223415E-03 -0.9465218E-04
  0.7309524E+00  0.9811351E-03  0.1990795E-03  0.1656435E+05  0.2802522E+04 -0.3183470E-03 -0.1676083E-03
  0.7619048E+00  0.2127886E-03 -0.5321503E-03  0.1644995E+05  0.3092948E+04 -0.4280805E-03 -0.1287460E-03
  0.7928572E+00  0.7072654E-03  0.3242493E-04  0.1632364E+05  0.3393186E+04 -0.5196236E-03 -0.1888275E-03
  0.8238096E+00 -0.9585253E-03 -0.4072189E-03  0.1618535E+05  0.3701786E+04 -0.3148779E-03 -0.1373291E-03
  0.8547620E+00  0.5288509E-03  0.1192093E-03  0.1603299E+05  0.4017303E+04 -0.2789298E-03 -0.1974106E-03
  0.8857143E+00 -0.1531109E-02  0.2756119E-03  0.1587265E+05  0.4338134E+04 -0.2928703E-03 -0.1959801E-03
  0.9166667E+00  0.2767390E-03  0.8583069E-04  0.1570244E+05  0.4662875E+04 -0.5763661E-03 -0.1602173E-03
  0.9476191E+00  0.5031950E-03  0.1869202E-03  0.1552053E+05  0.4990312E+04 -0.3119809E-03 -0.1864433E-03
  0.9785714E+00  0.1783441E-02 -0.9012222E-04  0.1532802E+05  0.5319113E+04 -0.4677877E-03 -0.1921654E-03
  0.1009524E+01  0.5006791E-03  0.4706383E-03  0.1513063E+05  0.5647540E+04 -0.3740923E-03 -0.2408028E-03
  0.1040476E+01 -0.4252907E-03  0.5521774E-03  0.1492895E+05  0.5974138E+04 -0.4252907E-03 -0.2551079E-03
  0.1071429E+01 -0.2314250E-03 -0.1940727E-03  0.1471963E+05  0.6298062E+04 -0.2705892E-03 -0.2374649E-03
  0.1102381E+01 -0.4844583E-03 -0.2856255E-03  0.1450453E+05  0.6617857E+04 -0.3235489E-03 -0.2956390E-03
  0.1133333E+01  0.2760046E-03 -0.3671646E-03  0.1428182E+05  0.6932689E+04 -0.3921285E-03 -0.2403259E-03
  0.1164286E+01 -0.2621142E-03  0.1888275E-03  0.1405861E+05  0.7240540E+04 -0.2801345E-03 -0.3099442E-03
  0.1195238E+01 -0.1204821E-02  0.5559921E-03  0.1383431E+05  0.7540085E+04 -0.3973516E-03 -0.3213882E-03
  0.1226190E+01 -0.4666523E-04  0.9040833E-03  0.1360779E+05  0.7831093E+04 -0.4153205E-03 -0.3890991E-03
  0.1257143E+01  0.1808513E-02  0.8010864E-04  0.1337934E+05  0.8119395E+04 -0.3656474E-03 -0.3442764E-03
  0.1288095E+01 -0.2647583E-02  0.3814697E-05  0.1315033E+05  0.8383908E+04 -0.1569596E-03 -0.5016327E-03
  0.1319048E+01  0.7070961E-03  0.6923676E-03  0.1292179E+05  0.8644539E+04 -0.2501587E-03 -0.3910065E-03
  0.1350000E+01 -0.6018744E-03  0.9717941E-03  0.1269570E+05  0.8893060E+04 -0.2882216E-03 -0.3871918E-03
  0.1380952E+01 -0.1549688E-02 -0.1423836E-02  0.1247336E+05  0.9127806E+04 -0.2624249E-03 -0.4816055E-03
  0.1411905E+01  0.1196901E-02  0.1791000E-02  0.1225163E+05  0.9356406E+04 -0.2323556E-03 -0.3776550E-03
  0.1442857E+01  0.3965774E-05 -0.7753372E-03  0.1203165E+05  0.9566626E+04 -0.2617411E-03 -0.5168915E-03
  0.1473810E+01 -0.1189335E-02 -0.1812935E-02  0.1181404E+05  0.9763243E+04 -0.3520121E-03 -0.5569458E-03
  0.1504762E+01 -0.1698506E-02  0.2024651E-02  0.1159866E+05  0.9946711E+04 -0.3891353E-03 -0.4148483E-03
  0.1535714E+01 -0.1300368E-02  0.1028061E-02  0.1138928E+05  0.1011554E+05 -0.2806907E-03 -0.4768372E-03
  0.1566667E+01 -0.7791722E-03 -0.5321503E-03  0.1118513E+05  0.1026956E+05 -0.1132235E-03 -0.4844666E-03
  0.1597619E+01 -0.1664254E-02 -0.9794235E-03  0.1098670E+05  0.1040853E+05 -0.2220597E-03 -0.6132126E-03
  0.1628572E+01  0.1055232E-02  0.1087189E-03  0.1079285E+05  0.1053384E+05 -0.1557668E-03 -0.5521774E-03
  0.1659524E+01 -0.7137370E-03 -0.8964539E-03  0.1060466E+05  0.1064521E+05 -0.1838936E-03 -0.7371902E-03
  0.1690476E+01 -0.9567905E-03 -0.1250267E-02  0.1042104E+05  0.1074277E+05 -0.1241120E-03 -0.5836487E-03
  0.1721429E+01  0.2714608E-03  0.3089905E-03  0.1024141E+05  0.1082796E+05 -0.1883606E-03 -0.5664825E-03
  0.1752381E+01 -0.2068022E-04 -0.3401756E-02  0.1006823E+05  0.1089895E+05 -0.7945559E-04 -0.6256104E-03
  0.1783333E+01 -0.6074994E-03 -0.1925468E-02  0.9901647E+04  0.1095678E+05 -0.2352991E-03 -0.7028580E-03
  0.1814286E+01 -0.5351089E-03  0.7171631E-03  0.9741715E+04  0.1100031E+05 -0.1976434E-03 -0.5798340E-03
  0.1845238E+01 -0.1994964E-03 -0.2117157E-03  0.9588164E+04  0.1103051E+05 -0.2067320E-03 -0.7810593E-03
  0.1876190E+01 -0.1016607E-03  0.2527237E-03  0.9440074E+04  0.1104877E+05 -0.2663511E-03 -0.5578995E-03
  0.1907143E+01 -0.1590172E-03 -0.9202957E-03  0.9298338E+04  0.1105500E+05 -0.2160233E-03 -0.5559921E-03
  0.1938095E+01  0.4507341E-03 -0.4081726E-03  0.9162169E+04  0.1104956E+05 -0.7873085E-04 -0.6694794E-03
  0.1969048E+01 -0.1182741E-02 -0.2058983E-02  0.9031214E+04  0.1103323E+05 -0.1259265E-03 -0.6723404E-03
  0.2000000E+01 -0.4959106E-03 -0.1239777E-04  0.8905166E+04  0.1100655E+05 -0.8964539E-04 -0.8440018E-03
Zone t="Motion of body    1 in DoF   3",I=    64,F=POINT
  0.5000000E-01  0.9927386E+02  0.1636776E-05 -0.8732080E-03 -0.1423757E-05  0.9966506E+02  0.2541745E-07
  0.8095238E-01  0.9815566E+02  0.7740663E-05 -0.4010954E-03 -0.1157496E-05  0.9939346E+02  0.1285969E-06
  0.1119048E+00  0.9842075E+02  0.2142437E-04 -0.5582038E-03 -0.2429014E-05  0.1002565E+03  0.2235403E-06
  0.1428571E+00  0.9746320E+02  0.4800351E-04 -0.6298125E-03 -0.3376153E-05  0.9912599E+02  0.5006094E-06
  0.1738095E+00  0.9836996E+02  0.9632604E-04 -0.9308857E-03 -0.6332587E-05  0.1000595E+03  0.1279393E-05
  0.2047619E+00  0.9756475E+02  0.1785175E-03 -0.7079368E-03 -0.6568453E-05  0.9982822E+02  0.2692457E-05
  0.2357143E+00  0.9779813E+02  0.3159280E-03 -0.1227422E-02 -0.1334602E-04  0.9946138E+02  0.4081482E-05
  0.2666667E+00  0.9896297E+02  0.5424513E-03 -0.5480647E-03 -0.7779561E-05  0.1002508E+03  0.6460879E-05
  0.2976190E+00  0.9858635E+02  0.9143092E-03 -0.9681130E-03 -0.1681456E-04  0.9988992E+02  0.1184096E-04
  0.3285715E+00  0.9883430E+02  0.1528053E-02 -0.1059045E-02 -0.2234750E-04  0.9972731E+02  0.2091893E-04
  0.3595238E+00  0.1001350E+03  0.2530748E-02 -0.1085412E-02 -0.2992450E-04  0.9956295E+02  0.3327792E-04
  0.3904762E+00  0.9985538E+02  0.4157142E-02 -0.6099735E-03 -0.2141620E-04  0.9993371E+02  0.5492164E-04
  0.4214286E+00  0.1002072E+03  0.6752365E-02 -0.6503169E-03 -0.2711265E-04  0.9944765E+02  0.8892070E-04
  0.4523810E+00  0.1014578E+03  0.1088890E-01 -0.4437597E-03 -0.2246952E-04  0.9967275E+02  0.1411612E-03
  0.4833333E+00  0.1025573E+03  0.1712609E-01 -0.7616240E-03 -0.4409609E-04  0.9986210E+02  0.2235669E-03
  0.5142857E+00  0.1032016E+03  0.2649204E-01 -0.3562702E-03 -0.2474887E-04  0.9973248E+02  0.3499794E-03
  0.5452381E+00  0.1043384E+03  0.4007442E-01 -0.7051047E-03 -0.6141474E-04  0.1000375E+03  0.5369161E-03
  0.5761905E+00  0.1075486E+03  0.5926770E-01 -0.7299155E-03 -0.6601182E-04  0.1000355E+03  0.8046374E-03
  0.6071429E+00  0.1075517E+03  0.8604053E-01 -0.6771928E-03 -0.8914134E-04  0.1000856E+03  0.1170639E-02
  0.6380953E+00  0.1067181E+03  0.1221302E+00 -0.6452781E-03 -0.9502161E-04  0.1001998E+03  0.1673164E-02
  0.6690477E+00  0.1088526E+03  0.1705965E+00 -0.9062111E-03 -0.1298343E-03  0.9991448E+02  0.2366683E-02
  0.7000000E+00  0.1105772E+03  0.2350488E+00 -0.5388259E-03 -0.1119982E-03  0.1001213E+03  0.3292110E-02
  0.7309524E+00  0.1127903E+03  0.3189841E+00 -0.8268542E-03 -0.1769329E-03  0.1005066E+03  0.4510590E-02
  0.7619048E+00  0.1141561E+03  0.4273480E+00 -0.4900395E-03 -0.1032134E-03  0.1002673E+03  0.6101005E-02
  0.7928572E+00  0.1140328E+03  0.5658887E+00 -0.8660393E-03 -0.2212920E-03  0.1000833E+03  0.8145007E-02
  0.8238096E+00  0.1149137E+03  0.7414395E+00 -0.9061422E-03 -0.2596811E-03  0.1004677E+03  0.1076095E-01
  0.8547620E+00  0.1172394E+03  0.9614948E+00 -0.9363673E-03 -0.2930057E-03  0.1005936E+03  0.1411516E-01
  0.8857143E+00  0.1202399E+03  0.1235863E+01 -0.1223433E-02 -0.4138001E-03  0.1003996E+03  0.1838974E-01
  0.9166667E+00  0.1229194E+03  0.1575610E+01 -0.8970607E-03 -0.3630067E-03  0.1004710E+03  0.2370344E-01
  0.9476191E+00  0.1244546E+03  0.1992977E+01 -0.6760425E-03 -0.2728729E-03  0.1008237E+03  0.3027043E-01
  0.9785714E+00  0.1250450E+03  0.2500805E+01 -0.1227699E-02 -0.5501527E-03  0.1008262E+03  0.3835932E-01
  0.1009524E+01  0.1267814E+03  0.3114026E+01 -0.6820571E-03 -0.3270656E-03  0.1006418E+03  0.4831169E-01
  0.1040476E+01  0.1292445E+03  0.3851127E+01 -0.5446746E-03 -0.2790792E-03  0.1005589E+03  0.6030569E-01
  0.1071429E+01  0.1320822E+03  0.4735398E+01 -0.7045110E-03 -0.4207203E-03  0.1007342E+03  0.7511467E-01
  0.1102381E+01  0.1347830E+03  0.5787089E+01 -0.1090031E-02 -0.6388444E-03  0.1011062E+03  0.9293024E-01
  0.1133333E+01  0.1382200E+03  0.7029114E+01 -0.7459696E-03 -0.4692115E-03  0.1013383E+03  0.1146494E+00
  0.1164286E+01  0.1419996E+03  0.8493857E+01 -0.1045385E-02 -0.7104073E-03  0.1012948E+03  0.1404091E+00
  0.1195238E+01  0.1447943E+03  0.1021204E+02 -0.8996264E-04 -0.7065944E-04  0.1011239E+03  0.1708916E+00
  0.1226190E+01  0.1467400E+03  0.1222725E+02 -0.1989105E-03 -0.2558641E-03  0.1011590E+03  0.2072668E+00
  0.1257143E+01  0.1483245E+03  0.1456097E+02 -0.4413182E-03 -0.4636720E-03  0.1015094E+03  0.2494076E+00
  0.1288095E+01  0.1515094E+03  0.1724170E+02 -0.6861431E-03 -0.6722808E-03  0.1016867E+03  0.2986634E+00
  0.1319048E+01  0.1551881E+03  0.2030136E+02 -0.3804799E-03 -0.3860332E-03  0.1018697E+03  0.3562780E+00
  0.1350000E+01  0.1593771E+03  0.2380838E+02 -0.2513108E-03 -0.2357662E-03  0.1017273E+03  0.4237328E+00
  0.1380952E+01  0.1632345E+03  0.2780602E+02 -0.4404249E-03 -0.5284846E-03  0.1016273E+03  0.5014985E+00
  0.1411905E+01  0.1561779E+03  0.3090963E+02 -0.7781210E-03 -0.8600205E-03  0.1011747E+03  0.5642204E+00
  0.1442857E+01  0.1599519E+03  0.3585320E+02 -0.7078907E-03 -0.7709339E-03  0.1015939E+03  0.6641897E+00
  0.1473810E+01  0.1635558E+03  0.4141008E+02 -0.7117892E-03 -0.8619428E-03  0.1019403E+03  0.7792277E+00
  0.1504762E+01  0.1667523E+03  0.4763242E+02 -0.8067904E-03 -0.1092032E-02  0.1020712E+03  0.9096578E+00
  0.1535714E+01  0.1695513E+03  0.5460041E+02 -0.7784200E-03 -0.1216181E-02  0.1020874E+03  0.1059576E+01
  0.1566667E+01  0.1725950E+03  0.6234397E+02 -0.4395018E-03 -0.6945282E-03  0.1019302E+03  0.1223112E+01
  0.1597619E+01  0.1753781E+03  0.7082652E+02 -0.2984674E-05  0.6334484E-04  0.1018414E+03  0.1411522E+01
  0.1628572E+01  0.1784609E+03  0.8016518E+02 -0.7442842E-03 -0.1161844E-02  0.1019960E+03  0.1610512E+01
  0.1659524E+01  0.1812979E+03  0.9038081E+02 -0.3433638E-03 -0.5048215E-03  0.1023291E+03  0.1843047E+01
  0.1690476E+01  0.1839631E+03  0.1014291E+03 -0.3881320E-03 -0.6171614E-03  0.1027175E+03  0.2109045E+01
  0.1721429E+01  0.1864446E+03  0.1134247E+03 -0.3822612E-03 -0.3926158E-03  0.1028605E+03  0.2394855E+01
  0.1752381E+01  0.1887477E+03  0.1263169E+03 -0.4976859E-03 -0.7309169E-03  0.1030856E+03  0.2709225E+01
  0.1783333E+01  0.1909005E+03  0.1402089E+03 -0.3280818E-03 -0.6543100E-03  0.1030853E+03  0.3056970E+01
  0.1814286E+01  0.1930458E+03  0.1549603E+03 -0.4520567E-03 -0.1088500E-02  0.1030477E+03  0.3406207E+01
  0.1845238E+01  0.1943701E+03  0.1705522E+03 -0.4971904E-03 -0.1462579E-02  0.1030145E+03  0.3807300E+01
  0.1876190E+01  0.1953314E+03  0.1870816E+03 -0.4180797E-03 -0.6968379E-03  0.1030986E+03  0.4218427E+01
  0.1907143E+01  0.1956240E+03  0.2044918E+03 -0.4117944E-03 -0.7137358E-03  0.1033511E+03  0.4687709E+01
  0.1938095E+01  0.1953368E+03  0.2224726E+03 -0.4204720E-03 -0.8936226E-03  0.1037373E+03  0.5230141E+01
  0.1969048E+01  0.1946635E+03  0.2412535E+03 -0.4547885E-03 -0.7337630E-03  0.1038900E+03  0.5767566E+01
  0.2000000E+01  0.1936526E+03  0.2605182E+03 -0.2985001E-03 -0.7071197E-03  0.1040035E+03  0.6346401E+01
