VARIABLES="w (rad/s)"
"abs(F   1   1)" "angle(F   1   1)"
"abs(F   1   2)" "angle(F   1   2)"
"abs(F   1   3)" "angle(F   1   3)"
Zone t="Diffraction force - beta =   0.000 deg",I=    64,F=POINT
  0.5000000E-01  0.7549740E+03 -0.1570795E+01  0.2067161E+03 -0.3092144E+01  0.1280963E+02 -0.1570794E+01
  0.8095238E-01  0.1234056E+04 -0.1570793E+01  0.5363109E+03 -0.3090411E+01  0.2080211E+02 -0.1570791E+01
  0.1119048E+00  0.1727380E+04 -0.1570789E+01  0.1018683E+04 -0.3088226E+01  0.2928210E+02 -0.1570786E+01
  0.1428571E+00  0.2237014E+04 -0.1570783E+01  0.1655159E+04 -0.3085472E+01  0.3763963E+02 -0.1570779E+01
  0.1738095E+00  0.2763992E+04 -0.1570775E+01  0.2448228E+04 -0.3081994E+01  0.4715373E+02 -0.1570768E+01
  0.2047619E+00  0.3321649E+04 -0.1570763E+01  0.3403070E+04 -0.3077665E+01  0.5644250E+02 -0.1570753E+01
  0.2357143E+00  0.3920251E+04 -0.1570745E+01  0.4520851E+04 -0.3072158E+01  0.6748956E+02 -0.1570730E+01
  0.2666667E+00  0.4551999E+04 -0.1570719E+01  0.5810091E+04 -0.3065494E+01  0.7858163E+02 -0.1570696E+01
  0.2976190E+00  0.5243224E+04 -0.1570680E+01  0.7272448E+04 -0.3057085E+01  0.9107780E+02 -0.1570647E+01
  0.3285715E+00  0.6012179E+04 -0.1570623E+01  0.8914607E+04 -0.3047020E+01  0.1058279E+03 -0.1570575E+01
  0.3595238E+00  0.6837819E+04 -0.1570536E+01  0.1073103E+05 -0.3034741E+01  0.1221262E+03 -0.1570466E+01
  0.3904762E+00  0.7750538E+04 -0.1570406E+01  0.1273697E+05 -0.3020252E+01  0.1389890E+03 -0.1570300E+01
  0.4214286E+00  0.8790217E+04 -0.1570216E+01  0.1488912E+05 -0.3003868E+01  0.1612916E+03 -0.1570069E+01
  0.4523810E+00  0.9929597E+04 -0.1569938E+01  0.1721364E+05 -0.2984951E+01  0.1856139E+03 -0.1569728E+01
  0.4833333E+00  0.1112634E+05 -0.1569547E+01  0.1965922E+05 -0.2965664E+01  0.2071133E+03 -0.1569224E+01
  0.5142857E+00  0.1246922E+05 -0.1569007E+01  0.2223104E+05 -0.2944742E+01  0.2375278E+03 -0.1568566E+01
  0.5452381E+00  0.1393956E+05 -0.1568289E+01  0.2490933E+05 -0.2923753E+01  0.2705252E+03 -0.1567691E+01
  0.5761905E+00  0.1547138E+05 -0.1567349E+01  0.2766818E+05 -0.2902923E+01  0.3063669E+03 -0.1566557E+01
  0.6071429E+00  0.1704370E+05 -0.1566124E+01  0.3051501E+05 -0.2881548E+01  0.3390995E+03 -0.1565024E+01
  0.6380953E+00  0.1872129E+05 -0.1564598E+01  0.3345145E+05 -0.2861349E+01  0.3768909E+03 -0.1563141E+01
  0.6690477E+00  0.2051478E+05 -0.1562711E+01  0.3643774E+05 -0.2841119E+01  0.4243176E+03 -0.1560918E+01
  0.7000000E+00  0.2239526E+05 -0.1560393E+01  0.3946767E+05 -0.2820694E+01  0.4754373E+03 -0.1558210E+01
  0.7309524E+00  0.2429755E+05 -0.1557575E+01  0.4255198E+05 -0.2800990E+01  0.5211946E+03 -0.1554771E+01
  0.7619048E+00  0.2618711E+05 -0.1554159E+01  0.4566151E+05 -0.2781481E+01  0.5678280E+03 -0.1550588E+01
  0.7928572E+00  0.2818953E+05 -0.1550126E+01  0.4879500E+05 -0.2762239E+01  0.6250717E+03 -0.1545850E+01
  0.8238096E+00  0.3029428E+05 -0.1545412E+01  0.5192902E+05 -0.2743212E+01  0.6855897E+03 -0.1540312E+01
  0.8547620E+00  0.3245838E+05 -0.1539927E+01  0.5505204E+05 -0.2724476E+01  0.7506732E+03 -0.1533921E+01
  0.8857143E+00  0.3465748E+05 -0.1533578E+01  0.5815495E+05 -0.2706087E+01  0.8241108E+03 -0.1526744E+01
  0.9166667E+00  0.3686379E+05 -0.1526268E+01  0.6123978E+05 -0.2688218E+01  0.8954787E+03 -0.1518307E+01
  0.9476191E+00  0.3902551E+05 -0.1517872E+01  0.6427863E+05 -0.2670673E+01  0.9576857E+03 -0.1508147E+01
  0.9785714E+00  0.4120704E+05 -0.1508393E+01  0.6726933E+05 -0.2653538E+01  0.1026592E+04 -0.1496909E+01
  0.1009524E+01  0.4342837E+05 -0.1497826E+01  0.7019505E+05 -0.2636706E+01  0.1109986E+04 -0.1485057E+01
  0.1040476E+01  0.4570279E+05 -0.1486156E+01  0.7305630E+05 -0.2620348E+01  0.1202202E+04 -0.1472249E+01
  0.1071429E+01  0.4796303E+05 -0.1473273E+01  0.7583656E+05 -0.2604399E+01  0.1291539E+04 -0.1457802E+01
  0.1102381E+01  0.5016624E+05 -0.1459083E+01  0.7852914E+05 -0.2588872E+01  0.1380884E+04 -0.1441834E+01
  0.1133333E+01  0.5228296E+05 -0.1443514E+01  0.8112115E+05 -0.2573701E+01  0.1470368E+04 -0.1424263E+01
  0.1164286E+01  0.5423471E+05 -0.1426413E+01  0.8361760E+05 -0.2559015E+01  0.1556564E+04 -0.1404769E+01
  0.1195238E+01  0.5604920E+05 -0.1407833E+01  0.8601895E+05 -0.2544930E+01  0.1642353E+04 -0.1383621E+01
  0.1226190E+01  0.5774005E+05 -0.1387943E+01  0.8832082E+05 -0.2531445E+01  0.1727359E+04 -0.1361197E+01
  0.1257143E+01  0.5926672E+05 -0.1366656E+01  0.9053132E+05 -0.2518085E+01  0.1807927E+04 -0.1337164E+01
  0.1288095E+01  0.6068670E+05 -0.1344578E+01  0.9256238E+05 -0.2505544E+01  0.1889753E+04 -0.1312491E+01
  0.1319048E+01  0.6185470E+05 -0.1321064E+01  0.9448797E+05 -0.2493057E+01  0.1969595E+04 -0.1286240E+01
  0.1350000E+01  0.6276451E+05 -0.1296307E+01  0.9628498E+05 -0.2481037E+01  0.2046977E+04 -0.1258970E+01
  0.1380952E+01  0.6341401E+05 -0.1270435E+01  0.9795502E+05 -0.2469689E+01  0.2121498E+04 -0.1230942E+01
  0.1411905E+01  0.6339263E+05 -0.1243755E+01  0.9941195E+05 -0.2458456E+01  0.2145027E+04 -0.1198570E+01
  0.1442857E+01  0.6342958E+05 -0.1216162E+01  0.1008071E+06 -0.2447856E+01  0.2192357E+04 -0.1167638E+01
  0.1473810E+01  0.6312341E+05 -0.1187805E+01  0.1020604E+06 -0.2437626E+01  0.2221673E+04 -0.1135066E+01
  0.1504762E+01  0.6248382E+05 -0.1158881E+01  0.1031696E+06 -0.2427796E+01  0.2243296E+04 -0.1101801E+01
  0.1535714E+01  0.6146872E+05 -0.1129255E+01  0.1041310E+06 -0.2418247E+01  0.2258326E+04 -0.1068464E+01
  0.1566667E+01  0.6010169E+05 -0.1099262E+01  0.1049539E+06 -0.2409217E+01  0.2262482E+04 -0.1035830E+01
  0.1597619E+01  0.5838536E+05 -0.1069150E+01  0.1056324E+06 -0.2400656E+01  0.2254207E+04 -0.1003412E+01
  0.1628572E+01  0.5631480E+05 -0.1038908E+01  0.1061629E+06 -0.2392549E+01  0.2224786E+04 -0.9702097E+00
  0.1659524E+01  0.5389784E+05 -0.1008563E+01  0.1065432E+06 -0.2384831E+01  0.2175184E+04 -0.9360393E+00
  0.1690476E+01  0.5113103E+05 -0.9779508E+00  0.1067785E+06 -0.2377456E+01  0.2102388E+04 -0.8996123E+00
  0.1721429E+01  0.4804652E+05 -0.9472841E+00  0.1068676E+06 -0.2370491E+01  0.2015686E+04 -0.8638710E+00
  0.1752381E+01  0.4466451E+05 -0.9165592E+00  0.1068068E+06 -0.2363755E+01  0.1915105E+04 -0.8287545E+00
  0.1783333E+01  0.4100034E+05 -0.8855011E+00  0.1066023E+06 -0.2357451E+01  0.1798552E+04 -0.7941412E+00
  0.1814286E+01  0.3707707E+05 -0.8538167E+00  0.1062587E+06 -0.2351562E+01  0.1664647E+04 -0.7583486E+00
  0.1845238E+01  0.3292794E+05 -0.8212199E+00  0.1057695E+06 -0.2346165E+01  0.1513708E+04 -0.7210829E+00
  0.1876190E+01  0.2858174E+05 -0.7869161E+00  0.1051340E+06 -0.2341280E+01  0.1343629E+04 -0.6797970E+00
  0.1907143E+01  0.2406216E+05 -0.7493252E+00  0.1043522E+06 -0.2336780E+01  0.1153330E+04 -0.6319574E+00
  0.1938095E+01  0.1939079E+05 -0.7049649E+00  0.1034359E+06 -0.2332645E+01  0.9430375E+03 -0.5711824E+00
  0.1969048E+01  0.1460412E+05 -0.6464544E+00  0.1023867E+06 -0.2328911E+01  0.7190009E+03 -0.4860281E+00
  0.2000000E+01  0.9755466E+04 -0.5511994E+00  0.1012029E+06 -0.2325616E+01  0.4874018E+03 -0.3401921E+00
