VARIABLES="w (rad/s)"
"A   1   1" "B   1   1"
"A   1   2" "B   1   2"
"A   1   3" "B   1   3"
Zone t="Motion of body    1 in DoF   1",I=    64,F=POINT
  0.5000000E-01  0.4803690E+05  0.3281540E-02 -0.6504059E-02  0.5488710E-07  0.8145816E+03  0.7223749E-04
  0.8095238E-01  0.4821516E+05  0.1439521E-01 -0.1470229E-01 -0.5456919E-04  0.8115248E+03  0.3129554E-03
  0.1119048E+00  0.4839934E+05  0.4050192E-01 -0.2735625E-02 -0.5618270E-04  0.8181081E+03  0.8763375E-03
  0.1428571E+00  0.4852827E+05  0.9121902E-01 -0.1214981E-02 -0.4101981E-05  0.8127421E+03  0.1974721E-02
  0.1738095E+00  0.4855840E+05  0.1816670E+00 -0.4444384E-02 -0.4708284E-04  0.8227555E+03  0.3947206E-02
  0.2047619E+00  0.4864554E+05  0.3353648E+00 -0.3558314E-02 -0.3803550E-04  0.8188047E+03  0.7311166E-02
  0.2357143E+00  0.4880701E+05  0.5912812E+00  0.1861110E-02 -0.1630979E-04  0.8298419E+03  0.1298732E-01
  0.2666667E+00  0.4884371E+05  0.1009405E+01  0.6523132E-02  0.1266459E-03  0.8299087E+03  0.2226126E-01
  0.2976190E+00  0.4896177E+05  0.1694582E+01 -0.9728394E-02 -0.2439143E-03  0.8338635E+03  0.3758434E-01
  0.3285715E+00  0.4919942E+05  0.2809336E+01 -0.1938861E-02 -0.1164540E-03  0.8458029E+03  0.6282111E-01
  0.3595238E+00  0.4928702E+05  0.4616800E+01 -0.5591689E-02 -0.1289062E-03  0.8557819E+03  0.1042035E+00
  0.3904762E+00  0.4940069E+05  0.7534187E+01  0.6350075E-03  0.1167636E-03  0.8570804E+03  0.1711681E+00
  0.4214286E+00  0.4970952E+05  0.1214775E+02  0.2425889E-02  0.2521425E-03  0.8781929E+03  0.2794514E+00
  0.4523810E+00  0.4999216E+05  0.1941263E+02 -0.3870512E-02 -0.1474880E-03  0.8952786E+03  0.4516648E+00
  0.4833333E+00  0.5006627E+05  0.3021592E+02 -0.2746582E-02 -0.4620701E-03  0.8877422E+03  0.7073091E+00
  0.5142857E+00  0.5036113E+05  0.4632056E+02 -0.1835081E-01 -0.1988880E-02  0.9084877E+03  0.1098636E+01
  0.5452381E+00  0.5077901E+05  0.6938065E+02 -0.1118023E-01 -0.1003295E-02  0.9286725E+03  0.1666091E+01
  0.5761905E+00  0.5110141E+05  0.1014236E+03 -0.4104740E-03 -0.3906190E-03  0.9479231E+03  0.2468855E+01
  0.6071429E+00  0.5132330E+05  0.1454283E+03 -0.6873635E-02 -0.7752478E-03  0.9505754E+03  0.3573444E+01
  0.6380953E+00  0.5166135E+05  0.2040422E+03  0.1374999E-02  0.1368523E-02  0.9625363E+03  0.5072438E+01
  0.6690477E+00  0.5213901E+05  0.2815968E+03 -0.8176212E-02 -0.1504123E-02  0.9920479E+03  0.7115154E+01
  0.7000000E+00  0.5267703E+05  0.3829284E+03 -0.5591256E-02 -0.2743602E-03  0.1023251E+04  0.9833403E+01
  0.7309524E+00  0.5314055E+05  0.5124271E+03 -0.2056209E-02  0.3038645E-03  0.1037570E+04  0.1332228E+02
  0.7619048E+00  0.5349021E+05  0.6761978E+03 -0.1041412E-02  0.3024340E-03  0.1048728E+04  0.1780867E+02
  0.7928572E+00  0.5398548E+05  0.8819952E+03 -0.1179738E-01 -0.2926826E-02  0.1075624E+04  0.2360248E+02
  0.8238096E+00  0.5459798E+05  0.1137828E+04  0.3935974E-02  0.3477573E-02  0.1104964E+04  0.3092257E+02
  0.8547620E+00  0.5525134E+05  0.1452352E+04 -0.3365009E-02 -0.1014471E-02  0.1137208E+04  0.4012181E+02
  0.8857143E+00  0.5591308E+05  0.1835499E+04 -0.3609196E-02 -0.4434586E-03  0.1176796E+04  0.5165405E+02
  0.9166667E+00  0.5655506E+05  0.2297728E+04 -0.1459850E-01 -0.2116203E-02  0.1209592E+04  0.6578220E+02
  0.9476191E+00  0.5712111E+05  0.2849579E+04 -0.4025560E-02  0.1664162E-02  0.1228600E+04  0.8275602E+02
  0.9785714E+00  0.5770959E+05  0.3503697E+04 -0.1001066E-01 -0.6525993E-02  0.1253916E+04  0.1033226E+03
  0.1009524E+01  0.5835269E+05  0.4272680E+04  0.4776289E-02  0.3155708E-02  0.1293763E+04  0.1282855E+03
  0.1040476E+01  0.5907516E+05  0.5170685E+04 -0.6643334E-02 -0.2407074E-02  0.1341076E+04  0.1583064E+03
  0.1071429E+01  0.5980123E+05  0.6210057E+04 -0.9356690E-02 -0.6871223E-02  0.1383630E+04  0.1936485E+03
  0.1102381E+01  0.6048820E+05  0.7403642E+04  0.3446575E-02 -0.1419067E-02  0.1425752E+04  0.2351046E+03
  0.1133333E+01  0.6111697E+05  0.8763899E+04  0.1211727E-02  0.1007080E-02  0.1465627E+04  0.2834845E+03
  0.1164286E+01  0.6161997E+05  0.1029885E+05  0.2817727E-02 -0.1270294E-02  0.1500224E+04  0.3394584E+03
  0.1195238E+01  0.6204329E+05  0.1201908E+05 -0.4698005E-02 -0.3084183E-02  0.1532838E+04  0.4038329E+03
  0.1226190E+01  0.6240563E+05  0.1392713E+05 -0.1231962E-02  0.5559921E-02  0.1564683E+04  0.4767000E+03
  0.1257143E+01  0.6267704E+05  0.1602998E+05 -0.1723550E-02 -0.3557205E-02  0.1593721E+04  0.5584817E+03
  0.1288095E+01  0.6293889E+05  0.1830794E+05 -0.8339591E-02 -0.1292419E-01  0.1625311E+04  0.6494113E+03
  0.1319048E+01  0.6304847E+05  0.2077604E+05 -0.5494816E-02 -0.2544403E-02  0.1653900E+04  0.7515223E+03
  0.1350000E+01  0.6302350E+05  0.2341815E+05 -0.4905418E-02 -0.3471375E-02  0.1679685E+04  0.8643830E+03
  0.1380952E+01  0.6287186E+05  0.2622365E+05  0.3425335E-03  0.1743317E-02  0.1704125E+04  0.9883677E+03
  0.1411905E+01  0.6230281E+05  0.2901269E+05  0.3523159E-02 -0.6698608E-02  0.1690499E+04  0.1111463E+04
  0.1442857E+01  0.6185869E+05  0.3204570E+05 -0.8566073E-03 -0.1446533E-01  0.1698570E+04  0.1251515E+04
  0.1473810E+01  0.6125465E+05  0.3515835E+05 -0.9628566E-03 -0.1043701E-01  0.1696389E+04  0.1398116E+04
  0.1504762E+01  0.6051287E+05  0.3832466E+05  0.3062381E-02 -0.3341675E-02  0.1690213E+04  0.1553741E+04
  0.1535714E+01  0.5960077E+05  0.4151298E+05 -0.3388161E-02  0.3616333E-02  0.1680565E+04  0.1718370E+04
  0.1566667E+01  0.5856048E+05  0.4468837E+05 -0.5707436E-02 -0.4280090E-02  0.1666044E+04  0.1888127E+04
  0.1597619E+01  0.5740295E+05  0.4781172E+05 -0.5988449E-02  0.7659912E-02  0.1647672E+04  0.2063102E+04
  0.1628572E+01  0.5613496E+05  0.5085024E+05  0.1639651E-02 -0.6675720E-02  0.1619542E+04  0.2238763E+04
  0.1659524E+01  0.5476941E+05  0.5377633E+05  0.4045659E-03  0.1129150E-02  0.1584165E+04  0.2414646E+04
  0.1690476E+01  0.5330299E+05  0.5656595E+05 -0.9026326E-05  0.3730774E-02  0.1539762E+04  0.2589936E+04
  0.1721429E+01  0.5177685E+05  0.5919689E+05 -0.8491738E-02  0.6881714E-02  0.1492910E+04  0.2764536E+04
  0.1752381E+01  0.5019386E+05  0.6165048E+05 -0.3378495E-02  0.5645752E-03  0.1442116E+04  0.2937829E+04
  0.1783333E+01  0.4857758E+05  0.6391029E+05  0.1711266E-04 -0.7759094E-02  0.1388907E+04  0.3108254E+04
  0.1814286E+01  0.4694591E+05  0.6596845E+05 -0.1009243E-02  0.4081726E-02  0.1330183E+04  0.3274372E+04
  0.1845238E+01  0.4531838E+05  0.6781682E+05 -0.7516775E-02  0.2227783E-02  0.1270370E+04  0.3436904E+04
  0.1876190E+01  0.4371176E+05  0.6945555E+05 -0.8246717E-02  0.1693726E-02  0.1206472E+04  0.3593513E+04
  0.1907143E+01  0.4213283E+05  0.7088588E+05 -0.1920207E-02  0.6843567E-02  0.1139499E+04  0.3740581E+04
  0.1938095E+01  0.4057733E+05  0.7211363E+05 -0.1747825E-02 -0.9742737E-02  0.1070850E+04  0.3878880E+04
  0.1969048E+01  0.3906673E+05  0.7314937E+05 -0.1146900E-02 -0.1228333E-02  0.1001279E+04  0.4008356E+04
  0.2000000E+01  0.3760835E+05  0.7400072E+05 -0.3204346E-02  0.4478455E-02  0.9326602E+03  0.4133438E+04
Zone t="Motion of body    1 in DoF   2",I=    64,F=POINT
  0.5000000E-01  0.1105309E-01 -0.4410744E-05  0.8299610E+05  0.2043683E+03 -0.1316071E-02  0.5960464E-07
  0.8095238E-01  0.9542353E-03 -0.2676249E-04  0.8215009E+05  0.3389550E+03 -0.2827364E-03  0.4231930E-05
  0.1119048E+00 -0.1474340E-02 -0.2402067E-04  0.8165874E+05  0.4855969E+03 -0.1022664E-02 -0.1704693E-04
  0.1428571E+00  0.1228332E-01  0.3474951E-04  0.8141362E+05  0.6498964E+03 -0.1655578E-02 -0.1549721E-05
  0.1738095E+00  0.1426592E-03  0.1370907E-04  0.8134992E+05  0.8389863E+03 -0.2085019E-02 -0.7271767E-05
  0.2047619E+00 -0.7489226E-02 -0.4386902E-04  0.8147168E+05  0.1061704E+04 -0.1527653E-02 -0.3814697E-05
  0.2357143E+00 -0.2937317E-02 -0.1353025E-03  0.8166709E+05  0.1330540E+04  0.1294685E-03 -0.2431870E-04
  0.2666667E+00  0.1291752E-01  0.1153946E-03  0.8199178E+05  0.1656218E+04 -0.7438659E-03 -0.5269051E-04
  0.2976190E+00  0.6011352E-02 -0.8320808E-04  0.8236970E+05  0.2062123E+04  0.5126953E-03  0.1335144E-04
  0.3285715E+00 -0.8115353E-02 -0.2214909E-03  0.8280883E+05  0.2561339E+04 -0.2321989E-02 -0.9393692E-04
  0.3595238E+00 -0.3894022E-02 -0.1845360E-03  0.8320194E+05  0.3181974E+04 -0.1549121E-02 -0.2765656E-04
  0.3904762E+00  0.2510722E-02  0.1478195E-04  0.8363827E+05  0.3946197E+04 -0.1914792E-02 -0.1335144E-04
  0.4214286E+00  0.5340576E-02  0.8344650E-04  0.8383008E+05  0.4846996E+04 -0.1647432E-02 -0.3051758E-04
  0.4523810E+00  0.2791153E-02 -0.1621246E-04  0.8395993E+05  0.5930600E+04 -0.7083290E-03 -0.2861023E-04
  0.4833333E+00  0.9202628E-02  0.1244545E-02  0.8382493E+05  0.7110389E+04 -0.1057592E-02 -0.8583069E-05
  0.5142857E+00 -0.6957585E-02 -0.1707077E-02  0.8350791E+05  0.8441578E+04 -0.2640618E-02 -0.1602173E-03
  0.5452381E+00  0.9235232E-02 -0.8659363E-03  0.8300995E+05  0.9854604E+04 -0.5457183E-03 -0.7629395E-05
  0.5761905E+00  0.3972329E-03 -0.1583099E-03  0.8230754E+05  0.1132503E+05 -0.1244663E-02 -0.5149841E-04
  0.6071429E+00  0.6144803E-02  0.7600784E-03  0.8146505E+05  0.1288543E+05 -0.1809513E-02 -0.1163483E-03
  0.6380953E+00  0.2989128E-03  0.4005432E-03  0.8056324E+05  0.1444825E+05 -0.1410869E-02 -0.2040863E-03
  0.6690477E+00  0.2326286E-02 -0.1035690E-02  0.7952438E+05  0.1605010E+05 -0.5929749E-03 -0.8392334E-04
  0.7000000E+00  0.7553100E-02  0.4533768E-02  0.7837195E+05  0.1769327E+05 -0.1634870E-02  0.1335144E-03
  0.7309524E+00 -0.1983145E-02  0.1258850E-03  0.7717828E+05  0.1932948E+05 -0.2505026E-03 -0.5187988E-03
  0.7619048E+00 -0.7319926E-02 -0.3681183E-03  0.7590176E+05  0.2096941E+05 -0.1321792E-02 -0.1335144E-03
  0.7928572E+00  0.1168191E-01  0.1539230E-02  0.7457991E+05  0.2260380E+05 -0.7120767E-03  0.1602173E-03
  0.8238096E+00  0.2713507E-02  0.9441376E-03  0.7320390E+05  0.2422141E+05 -0.4260112E-03 -0.2822876E-03
  0.8547620E+00  0.5578596E-02  0.3269196E-02  0.7178257E+05  0.2580924E+05 -0.5176937E-03 -0.3051758E-03
  0.8857143E+00  0.4505035E-02 -0.9536743E-05  0.7033045E+05  0.2735697E+05 -0.3790086E-03 -0.0000000E+00
  0.9166667E+00 -0.2480247E-02 -0.2067566E-02  0.6887533E+05  0.2885182E+05 -0.1165217E-02 -0.1487732E-03
  0.9476191E+00  0.3993355E-02  0.5340576E-04  0.6739206E+05  0.3029131E+05 -0.7568052E-03  0.1144409E-04
  0.9785714E+00  0.4475169E-02 -0.3585815E-03  0.6589912E+05  0.3166592E+05  0.2650797E-03 -0.8964539E-03
  0.1009524E+01  0.2161422E-02  0.2468109E-02  0.6440609E+05  0.3297254E+05 -0.1964929E-03 -0.3814697E-03
  0.1040476E+01 -0.3988934E-02  0.2487183E-02  0.6293484E+05  0.3420113E+05 -0.1862480E-02 -0.2288818E-03
  0.1071429E+01  0.1110128E-01 -0.3887177E-02  0.6147967E+05  0.3534731E+05 -0.1993815E-02 -0.4501343E-03
  0.1102381E+01  0.9135500E-02  0.3398895E-02  0.6004287E+05  0.3640767E+05 -0.1245750E-02 -0.2975464E-03
  0.1133333E+01  0.1649296E-02  0.2445221E-02  0.5861998E+05  0.3738110E+05 -0.2154182E-02 -0.7400513E-03
  0.1164286E+01  0.2817727E-03  0.4726410E-02  0.5723373E+05  0.3826360E+05 -0.9698223E-03 -0.1754761E-03
  0.1195238E+01  0.2859655E-02  0.3437042E-02  0.5589256E+05  0.3905159E+05 -0.5106527E-04 -0.5722046E-03
  0.1226190E+01  0.1605284E-02  0.3593445E-02  0.5460124E+05  0.3974102E+05 -0.3733218E-03 -0.9841919E-03
  0.1257143E+01  0.2573187E-02  0.4005432E-02  0.5335809E+05  0.4036722E+05 -0.9346008E-03 -0.2899170E-03
  0.1288095E+01 -0.2576507E-02  0.6969452E-02  0.5214006E+05  0.4085174E+05 -0.4501484E-03 -0.5035400E-03
  0.1319048E+01 -0.2955633E-02 -0.2079010E-02  0.5096734E+05  0.4127824E+05 -0.2197927E-03 -0.3204346E-03
  0.1350000E+01  0.3289117E-02  0.1380920E-02  0.4984827E+05  0.4161424E+05 -0.1152886E-02 -0.4653931E-03
  0.1380952E+01  0.1657420E-04 -0.6675720E-03  0.4878995E+05  0.4185484E+05 -0.1182293E-02 -0.9841919E-03
  0.1411905E+01  0.9213169E-02  0.1110077E-02  0.4778562E+05  0.4206404E+05 -0.6916631E-03 -0.1373291E-03
  0.1442857E+01 -0.1110417E-03  0.1815796E-02  0.4682714E+05  0.4214614E+05 -0.7931549E-03 -0.6256104E-03
  0.1473810E+01 -0.1718647E-02  0.5390167E-02  0.4592106E+05  0.4214979E+05 -0.1169923E-02  0.1525879E-04
  0.1504762E+01  0.1764418E-02 -0.8354187E-02  0.4506121E+05  0.4208011E+05 -0.1470348E-02 -0.1068115E-03
  0.1535714E+01  0.1400970E-02  0.6744385E-02  0.4424330E+05  0.4194270E+05 -0.7253247E-03 -0.1602173E-03
  0.1566667E+01 -0.5551602E-02  0.2170563E-02  0.4348657E+05  0.4173564E+05 -0.9155273E-03 -0.9918213E-04
  0.1597619E+01  0.3342835E-02 -0.4966736E-02  0.4278550E+05  0.4146403E+05 -0.5157516E-03 -0.6103516E-03
  0.1628572E+01  0.1264873E-03 -0.7629395E-04  0.4213530E+05  0.4112773E+05 -0.2998218E-03  0.1602173E-03
  0.1659524E+01 -0.3797402E-02 -0.1354218E-02  0.4152616E+05  0.4073711E+05 -0.1259671E-02 -0.1296997E-03
  0.1690476E+01  0.2753029E-02  0.9452820E-02  0.4096584E+05  0.4029385E+05 -0.4964479E-03  0.5302429E-03
  0.1721429E+01  0.6913941E-03  0.3051758E-03  0.4044790E+05  0.3980251E+05 -0.8509466E-03 -0.1983643E-03
  0.1752381E+01 -0.4675907E-02  0.9056091E-02  0.3996273E+05  0.3927105E+05 -0.1131970E-02 -0.4882812E-03
  0.1783333E+01  0.1582921E-02 -0.6395340E-02  0.3952285E+05  0.3869393E+05 -0.4620418E-03 -0.4959106E-03
  0.1814286E+01  0.5954532E-02  0.3763199E-02  0.3913099E+05  0.3808866E+05 -0.8326253E-03 -0.4158020E-03
  0.1845238E+01 -0.2811555E-03  0.1077271E-01  0.3878125E+05  0.3744642E+05 -0.4961568E-04 -0.3051758E-04
  0.1876190E+01 -0.3692317E-02  0.9992599E-02  0.3846736E+05  0.3676843E+05 -0.1171132E-02 -0.4730225E-03
  0.1907143E+01 -0.8640933E-03 -0.8499146E-02  0.3818034E+05  0.3606761E+05 -0.1312142E-02 -0.2517700E-03
  0.1938095E+01 -0.2361926E-03  0.2265930E-02  0.3792943E+05  0.3534094E+05 -0.1212455E-02 -0.4158020E-03
  0.1969048E+01 -0.6044473E-03 -0.2437592E-02  0.3770912E+05  0.3459291E+05 -0.1053908E-02 -0.3242493E-03
  0.2000000E+01  0.1197815E-02 -0.2223969E-02  0.3751666E+05  0.3383046E+05 -0.7781982E-03  0.1983643E-03
Zone t="Motion of body    1 in DoF   3",I=    64,F=POINT
  0.5000000E-01  0.8326804E+03  0.7438530E-04 -0.4935265E-03 -0.1800413E-05  0.1433512E+04  0.1939148E-05
  0.8095238E-01  0.8289731E+03  0.3213171E-03  0.3092429E-03 -0.2990356E-05  0.1437142E+04  0.5902074E-05
  0.1119048E+00  0.8369487E+03  0.9075098E-03 -0.1821619E-02 -0.1518822E-04  0.1449086E+04  0.2133707E-04
  0.1428571E+00  0.8285141E+03  0.2044800E-02 -0.3397941E-02 -0.3342895E-04  0.1443938E+04  0.4558260E-04
  0.1738095E+00  0.8420858E+03  0.4084383E-02 -0.3849056E-02 -0.4446482E-04  0.1459542E+04  0.8551014E-04
  0.2047619E+00  0.8356630E+03  0.7578049E-02  0.8849210E-04 -0.1717986E-05  0.1451435E+04  0.1754580E-03
  0.2357143E+00  0.8470217E+03  0.1344193E-01 -0.2929225E-02 -0.6675480E-04  0.1449349E+04  0.3019478E-03
  0.2666667E+00  0.8478802E+03  0.2307586E-01 -0.2485514E-03 -0.2069822E-04  0.1453962E+04  0.5138526E-03
  0.2976190E+00  0.8504732E+03  0.3897309E-01  0.6520844E-03 -0.4677953E-05  0.1447334E+04  0.8703972E-03
  0.3285715E+00  0.8630201E+03  0.6509030E-01 -0.2857498E-02 -0.1098185E-03  0.1451737E+04  0.1434399E-02
  0.3595238E+00  0.8746694E+03  0.1078009E+00 -0.1878044E-02 -0.8619111E-04  0.1453010E+04  0.2407202E-02
  0.3904762E+00  0.8755316E+03  0.1775115E+00 -0.2166352E-02 -0.1472686E-03  0.1453534E+04  0.4011282E-02
  0.4214286E+00  0.8974827E+03  0.2887664E+00  0.1036434E-02  0.3214250E-04  0.1455845E+04  0.6635457E-02
  0.4523810E+00  0.9152372E+03  0.4658644E+00 -0.6140959E-02 -0.5411684E-03  0.1454630E+04  0.1079794E-01
  0.4833333E+00  0.9068365E+03  0.7331403E+00 -0.1164140E-02 -0.2239461E-03  0.1457214E+04  0.1712272E-01
  0.5142857E+00  0.9277484E+03  0.1135283E+01 -0.4322529E-02 -0.5649005E-03  0.1453051E+04  0.2692606E-01
  0.5452381E+00  0.9488380E+03  0.1719634E+01 -0.8570576E-03 -0.1210980E-03  0.1459895E+04  0.4127415E-01
  0.5761905E+00  0.9688573E+03  0.2544075E+01 -0.1688240E-03 -0.6043399E-04  0.1459749E+04  0.6189187E-01
  0.6071429E+00  0.9706190E+03  0.3693824E+01  0.4256753E-03  0.2255663E-05  0.1455488E+04  0.9079173E-01
  0.6380953E+00  0.9831324E+03  0.5251507E+01 -0.9332059E-02 -0.1937585E-02  0.1461388E+04  0.1306619E+00
  0.6690477E+00  0.1012931E+04  0.7340683E+01 -0.8210423E-03 -0.2565328E-03  0.1460133E+04  0.1855651E+00
  0.7000000E+00  0.1044885E+04  0.1011650E+02 -0.9809221E-03 -0.4970748E-03  0.1460615E+04  0.2599432E+00
  0.7309524E+00  0.1059884E+04  0.1374297E+02 -0.1244685E-02 -0.3266521E-03  0.1466332E+04  0.3572889E+00
  0.7619048E+00  0.1071077E+04  0.1841300E+02 -0.5865454E-02 -0.2031919E-02  0.1466473E+04  0.4849333E+00
  0.7928572E+00  0.1097835E+04  0.2437137E+02 -0.2215617E-02 -0.1139238E-02  0.1461995E+04  0.6510879E+00
  0.8238096E+00  0.1128517E+04  0.3193043E+02 -0.1053452E-02 -0.4757866E-03  0.1465773E+04  0.8664917E+00
  0.8547620E+00  0.1161078E+04  0.4138744E+02  0.1941351E-03 -0.1171678E-03  0.1471568E+04  0.1144064E+01
  0.8857143E+00  0.1201502E+04  0.5313185E+02  0.2261131E-03 -0.7145107E-05  0.1473800E+04  0.1496001E+01
  0.9166667E+00  0.1234006E+04  0.6763029E+02 -0.6242232E-04 -0.5228519E-03  0.1470533E+04  0.1935228E+01
  0.9476191E+00  0.1254481E+04  0.8546434E+02  0.1759170E-02  0.1233980E-02  0.1472196E+04  0.2484382E+01
  0.9785714E+00  0.1280869E+04  0.1069283E+03  0.1990047E-02  0.1236692E-02  0.1477480E+04  0.3159839E+01
  0.1009524E+01  0.1321630E+04  0.1324907E+03  0.2626203E-03  0.3334880E-03  0.1481396E+04  0.3972503E+01
  0.1040476E+01  0.1368596E+04  0.1630065E+03 -0.5462786E-03 -0.1462400E-03  0.1479028E+04  0.4975832E+01
  0.1071429E+01  0.1410569E+04  0.1992064E+03  0.1262156E-02  0.5246103E-03  0.1479449E+04  0.6200349E+01
  0.1102381E+01  0.1455273E+04  0.2419427E+03 -0.3171472E-02 -0.2412796E-02  0.1486676E+04  0.7685412E+01
  0.1133333E+01  0.1496231E+04  0.2917676E+03 -0.1871446E-02 -0.2352178E-02  0.1492611E+04  0.9457555E+01
  0.1164286E+01  0.1530678E+04  0.3494552E+03  0.9092085E-03  0.7663965E-03  0.1494963E+04  0.1155519E+02
  0.1195238E+01  0.1563526E+04  0.4161172E+03 -0.6909769E-03 -0.9580851E-03  0.1492096E+04  0.1399263E+02
  0.1226190E+01  0.1595070E+04  0.4914092E+03 -0.1815277E-02 -0.3285706E-02  0.1491154E+04  0.1683840E+02
  0.1257143E+01  0.1627753E+04  0.5770275E+03 -0.2128644E-02 -0.2699256E-02  0.1495073E+04  0.2001699E+02
  0.1288095E+01  0.1661015E+04  0.6713099E+03 -0.1991611E-02 -0.3044724E-02  0.1502865E+04  0.2385699E+02
  0.1319048E+01  0.1689147E+04  0.7767024E+03  0.2575334E-02  0.1912117E-02  0.1506203E+04  0.2816333E+02
  0.1350000E+01  0.1714307E+04  0.8925591E+03 -0.2901996E-02 -0.5291462E-02  0.1509868E+04  0.3305985E+02
  0.1380952E+01  0.1738739E+04  0.1019565E+04 -0.1356322E-02 -0.2772808E-03  0.1508593E+04  0.3837392E+02
  0.1411905E+01  0.1654758E+04  0.1111178E+04  0.4268858E-03  0.3752708E-03  0.1498050E+04  0.4237227E+02
  0.1442857E+01  0.1664292E+04  0.1252990E+04 -0.2564534E-03 -0.1014233E-02  0.1500481E+04  0.4849898E+02
  0.1473810E+01  0.1664437E+04  0.1403638E+04 -0.2381258E-03 -0.1442432E-03  0.1506403E+04  0.5583812E+02
  0.1504762E+01  0.1657683E+04  0.1561908E+04 -0.6616568E-03 -0.1947880E-02  0.1510845E+04  0.6371282E+02
  0.1535714E+01  0.1645918E+04  0.1726416E+04  0.4918298E-03  0.2333164E-02  0.1512934E+04  0.7210747E+02
  0.1566667E+01  0.1630234E+04  0.1895199E+04  0.5795093E-03 -0.7438660E-03  0.1513304E+04  0.8060822E+02
  0.1597619E+01  0.1610254E+04  0.2068287E+04  0.4297930E-04 -0.4410744E-04  0.1508689E+04  0.8876112E+02
  0.1628572E+01  0.1580455E+04  0.2243516E+04 -0.4872104E-03 -0.1764297E-04  0.1505509E+04  0.9719944E+02
  0.1659524E+01  0.1545794E+04  0.2422031E+04  0.2551524E-03 -0.3352880E-02  0.1505229E+04  0.1073037E+03
  0.1690476E+01  0.1503366E+04  0.2604026E+04 -0.6792310E-03  0.2229214E-03  0.1509418E+04  0.1183118E+03
  0.1721429E+01  0.1455437E+04  0.2780007E+04  0.5517857E-03  0.3603458E-02  0.1516291E+04  0.1308891E+03
  0.1752381E+01  0.1404105E+04  0.2954005E+04  0.8946917E-03 -0.2054214E-02  0.1518097E+04  0.1426327E+03
  0.1783333E+01  0.1350439E+04  0.3121716E+04  0.6331684E-03 -0.2545357E-02  0.1519761E+04  0.1541903E+03
  0.1814286E+01  0.1291057E+04  0.3286660E+04 -0.8221124E-03  0.4072189E-03  0.1515737E+04  0.1645835E+03
  0.1845238E+01  0.1229716E+04  0.3446786E+04  0.1461595E-02 -0.1230240E-02  0.1508376E+04  0.1726068E+03
  0.1876190E+01  0.1162155E+04  0.3600492E+04 -0.3334472E-03 -0.4784107E-02  0.1501116E+04  0.1816376E+03
  0.1907143E+01  0.1093664E+04  0.3750276E+04 -0.7420801E-03 -0.2575397E-02  0.1498241E+04  0.1919816E+03
  0.1938095E+01  0.1025274E+04  0.3896299E+04 -0.4586072E-03  0.9384155E-03  0.1499246E+04  0.2051613E+03
  0.1969048E+01  0.9547462E+03  0.4032552E+04 -0.2712264E-03 -0.1378059E-02  0.1503470E+04  0.2210504E+03
  0.2000000E+01  0.8834654E+03  0.4159239E+04  0.1850128E-03 -0.3962994E-02  0.1506322E+04  0.2378068E+03
