VARIABLES="w (rad/s)"
"abs(F   1   1)" "angle(F   1   1)"
"abs(F   1   2)" "angle(F   1   2)"
"abs(F   1   3)" "angle(F   1   3)"
Zone t="Diffraction force - beta =   0.000 deg",I=    64,F=POINT
  0.5000000E-01  0.2540857E+04 -0.1570803E+01  0.6148542E+06 -0.4108395E-04  0.3613498E+04 -0.1570824E+01
  0.8095238E-01  0.4144375E+04 -0.1570797E+01  0.6137225E+06 -0.1105180E-03  0.5887135E+04 -0.1570796E+01
  0.1119048E+00  0.5783535E+04 -0.1570795E+01  0.6120612E+06 -0.2194486E-03  0.8218922E+04 -0.1570803E+01
  0.1428571E+00  0.7476120E+04 -0.1570795E+01  0.6098722E+06 -0.3761766E-03  0.1063363E+05 -0.1570795E+01
  0.1738095E+00  0.9237771E+04 -0.1570786E+01  0.6071394E+06 -0.5933954E-03  0.1315536E+05 -0.1570798E+01
  0.2047619E+00  0.1109267E+05 -0.1570780E+01  0.6038669E+06 -0.8891323E-03  0.1581975E+05 -0.1570789E+01
  0.2357143E+00  0.1306317E+05 -0.1570778E+01  0.6000328E+06 -0.1290304E-02  0.1865741E+05 -0.1570779E+01
  0.2666667E+00  0.1517376E+05 -0.1570765E+01  0.5956271E+06 -0.1829641E-02  0.2171536E+05 -0.1570770E+01
  0.2976190E+00  0.1746098E+05 -0.1570750E+01  0.5906621E+06 -0.2562103E-02  0.2503979E+05 -0.1570755E+01
  0.3285715E+00  0.1995784E+05 -0.1570730E+01  0.5850963E+06 -0.3543932E-02  0.2868297E+05 -0.1570733E+01
  0.3595238E+00  0.2269630E+05 -0.1570697E+01  0.5789480E+06 -0.4863280E-02  0.3270596E+05 -0.1570698E+01
  0.3904762E+00  0.2571169E+05 -0.1570647E+01  0.5722376E+06 -0.6620845E-02  0.3715311E+05 -0.1570650E+01
  0.4214286E+00  0.2904463E+05 -0.1570575E+01  0.5650381E+06 -0.8876523E-02  0.4208649E+05 -0.1570577E+01
  0.4523810E+00  0.3270391E+05 -0.1570473E+01  0.5572671E+06 -0.1180083E-01  0.4754421E+05 -0.1570474E+01
  0.4833333E+00  0.3667943E+05 -0.1570328E+01  0.5491026E+06 -0.1531786E-01  0.5350739E+05 -0.1570331E+01
  0.5142857E+00  0.4098195E+05 -0.1570131E+01  0.5405955E+06 -0.1962350E-01  0.6000897E+05 -0.1570133E+01
  0.5452381E+00  0.4558018E+05 -0.1569871E+01  0.5317174E+06 -0.2464982E-01  0.6698808E+05 -0.1569873E+01
  0.5761905E+00  0.5041348E+05 -0.1569536E+01  0.5225110E+06 -0.3040866E-01  0.7435198E+05 -0.1569535E+01
  0.6071429E+00  0.5547952E+05 -0.1569107E+01  0.5130710E+06 -0.3706013E-01  0.8216177E+05 -0.1569107E+01
  0.6380953E+00  0.6076699E+05 -0.1568578E+01  0.5033740E+06 -0.4444990E-01  0.9039445E+05 -0.1568579E+01
  0.6690477E+00  0.6622966E+05 -0.1567932E+01  0.4935202E+06 -0.5272924E-01  0.9894342E+05 -0.1567933E+01
  0.7000000E+00  0.7184143E+05 -0.1567149E+01  0.4834879E+06 -0.6198092E-01  0.1077862E+06 -0.1567150E+01
  0.7309524E+00  0.7757997E+05 -0.1566223E+01  0.4732381E+06 -0.7212678E-01  0.1169234E+06 -0.1566224E+01
  0.7619048E+00  0.8342361E+05 -0.1565134E+01  0.4629277E+06 -0.8326815E-01  0.1263344E+06 -0.1565136E+01
  0.7928572E+00  0.8938428E+05 -0.1563874E+01  0.4526064E+06 -0.9545387E-01  0.1360505E+06 -0.1563876E+01
  0.8238096E+00  0.9542451E+05 -0.1562430E+01  0.4422892E+06 -0.1086927E+00  0.1459973E+06 -0.1562433E+01
  0.8547620E+00  0.1015076E+06 -0.1560796E+01  0.4319435E+06 -0.1229848E+00  0.1560868E+06 -0.1560799E+01
  0.8857143E+00  0.1075938E+06 -0.1558968E+01  0.4215917E+06 -0.1383372E+00  0.1662902E+06 -0.1558971E+01
  0.9166667E+00  0.1136746E+06 -0.1556952E+01  0.4112572E+06 -0.1547728E+00  0.1766122E+06 -0.1556955E+01
  0.9476191E+00  0.1197174E+06 -0.1554759E+01  0.4010349E+06 -0.1723212E+00  0.1870339E+06 -0.1554763E+01
  0.9785714E+00  0.1257036E+06 -0.1552408E+01  0.3909612E+06 -0.1909961E+00  0.1975035E+06 -0.1552416E+01
  0.1009524E+01  0.1315971E+06 -0.1549922E+01  0.3810623E+06 -0.2108108E+00  0.2079560E+06 -0.1549933E+01
  0.1040476E+01  0.1373659E+06 -0.1547334E+01  0.3713172E+06 -0.2317331E+00  0.2183209E+06 -0.1547349E+01
  0.1071429E+01  0.1429648E+06 -0.1544683E+01  0.3617022E+06 -0.2537412E+00  0.2285445E+06 -0.1544699E+01
  0.1102381E+01  0.1483565E+06 -0.1542022E+01  0.3521972E+06 -0.2768157E+00  0.2385446E+06 -0.1542034E+01
  0.1133333E+01  0.1534958E+06 -0.1539418E+01  0.3428589E+06 -0.3009727E+00  0.2482606E+06 -0.1539425E+01
  0.1164286E+01  0.1583461E+06 -0.1536947E+01  0.3336918E+06 -0.3262457E+00  0.2576303E+06 -0.1536951E+01
  0.1195238E+01  0.1628885E+06 -0.1534704E+01  0.3247260E+06 -0.3526230E+00  0.2666194E+06 -0.1534706E+01
  0.1226190E+01  0.1670916E+06 -0.1532786E+01  0.3159584E+06 -0.3801123E+00  0.2751757E+06 -0.1532786E+01
  0.1257143E+01  0.1709307E+06 -0.1531252E+01  0.3073920E+06 -0.4089501E+00  0.2832363E+06 -0.1531248E+01
  0.1288095E+01  0.1743748E+06 -0.1530350E+01  0.2990877E+06 -0.4383574E+00  0.2907462E+06 -0.1530342E+01
  0.1319048E+01  0.1774135E+06 -0.1530064E+01  0.2909805E+06 -0.4690874E+00  0.2976500E+06 -0.1530053E+01
  0.1350000E+01  0.1800183E+06 -0.1530558E+01  0.2830734E+06 -0.5008681E+00  0.3039271E+06 -0.1530542E+01
  0.1380952E+01  0.1821951E+06 -0.1531961E+01  0.2753291E+06 -0.5336227E+00  0.3095349E+06 -0.1531944E+01
  0.1411905E+01  0.1840978E+06 -0.1533967E+01  0.2697877E+06 -0.5581276E+00  0.3148069E+06 -0.1533947E+01
  0.1442857E+01  0.1854884E+06 -0.1537233E+01  0.2624585E+06 -0.5923985E+00  0.3192255E+06 -0.1537212E+01
  0.1473810E+01  0.1864471E+06 -0.1541710E+01  0.2553291E+06 -0.6276730E+00  0.3229375E+06 -0.1541686E+01
  0.1504762E+01  0.1869864E+06 -0.1547508E+01  0.2484120E+06 -0.6639549E+00  0.3259647E+06 -0.1547481E+01
  0.1535714E+01  0.1871247E+06 -0.1554713E+01  0.2417017E+06 -0.7012809E+00  0.3283025E+06 -0.1554687E+01
  0.1566667E+01  0.1868733E+06 -0.1563409E+01  0.2352039E+06 -0.7396144E+00  0.3299798E+06 -0.1563386E+01
  0.1597619E+01  0.1862674E+06 -0.1573687E+01  0.2288841E+06 -0.7789350E+00  0.3310232E+06 -0.1573666E+01
  0.1628572E+01  0.1853251E+06 -0.1585605E+01  0.2227595E+06 -0.8192278E+00  0.3314752E+06 -0.1585584E+01
  0.1659524E+01  0.1840726E+06 -0.1599198E+01  0.2168088E+06 -0.8604627E+00  0.3313441E+06 -0.1599182E+01
  0.1690476E+01  0.1825345E+06 -0.1614513E+01  0.2109853E+06 -0.9025325E+00  0.3306590E+06 -0.1614505E+01
  0.1721429E+01  0.1807441E+06 -0.1631599E+01  0.2053299E+06 -0.9455233E+00  0.3295015E+06 -0.1631592E+01
  0.1752381E+01  0.1787343E+06 -0.1650469E+01  0.1998375E+06 -0.9894993E+00  0.3278992E+06 -0.1650471E+01
  0.1783333E+01  0.1765254E+06 -0.1671126E+01  0.1945014E+06 -0.1034414E+01  0.3258778E+06 -0.1671141E+01
  0.1814286E+01  0.1741515E+06 -0.1693584E+01  0.1893472E+06 -0.1080361E+01  0.3234997E+06 -0.1693626E+01
  0.1845238E+01  0.1716360E+06 -0.1717871E+01  0.1843390E+06 -0.1127285E+01  0.3208154E+06 -0.1717934E+01
  0.1876190E+01  0.1689955E+06 -0.1743957E+01  0.1794759E+06 -0.1175110E+01  0.3178439E+06 -0.1744033E+01
  0.1907143E+01  0.1662597E+06 -0.1771773E+01  0.1747697E+06 -0.1223840E+01  0.3145987E+06 -0.1771902E+01
  0.1938095E+01  0.1634332E+06 -0.1801329E+01  0.1701649E+06 -0.1273414E+01  0.3111073E+06 -0.1801497E+01
  0.1969048E+01  0.1605457E+06 -0.1832615E+01  0.1656799E+06 -0.1323826E+01  0.3074434E+06 -0.1832852E+01
  0.2000000E+01  0.1576129E+06 -0.1865645E+01  0.1613148E+06 -0.1375133E+01  0.3036507E+06 -0.1865921E+01
