VARIABLES="w (rad/s)"
"A   1   1" "B   1   1"
"A   1   2" "B   1   2"
"A   1   3" "B   1   3"
Zone t="Motion of body    1 in DoF   1",I=    64,F=POINT
  0.5000000E-01  0.2032275E+05  0.5891158E-03 -0.1339912E-02  0.5303070E-06  0.1808061E+03  0.6781338E-05
  0.8095238E-01  0.2036113E+05  0.2534091E-02 -0.4193923E-02 -0.1205747E-04  0.1815119E+03  0.3141168E-04
  0.1119048E+00  0.2033736E+05  0.7134839E-02 -0.6613224E-02 -0.3084242E-04  0.1816919E+03  0.8563627E-04
  0.1428571E+00  0.2041517E+05  0.1608654E-01  0.2820492E-02  0.1485335E-04  0.1839780E+03  0.1955801E-03
  0.1738095E+00  0.2041530E+05  0.3204907E-01  0.5651500E-03 -0.6249669E-05  0.1816322E+03  0.3915332E-03
  0.2047619E+00  0.2049132E+05  0.5928696E-01 -0.7451967E-04 -0.2466695E-05  0.1846468E+03  0.7262090E-03
  0.2357143E+00  0.2046614E+05  0.1044612E+00  0.2366846E-02  0.1860768E-04  0.1841881E+03  0.1281999E-02
  0.2666667E+00  0.2053334E+05  0.1786973E+00  0.8654594E-03  0.1962937E-04  0.1840481E+03  0.2206736E-02
  0.2976190E+00  0.2059331E+05  0.3004622E+00 -0.5716553E-02 -0.1093312E-03  0.1879137E+03  0.3747930E-02
  0.3285715E+00  0.2060589E+05  0.4981414E+00 -0.5671459E-02 -0.1042963E-03  0.1881846E+03  0.6250119E-02
  0.3595238E+00  0.2064079E+05  0.8200434E+00 -0.5146051E-03  0.1866114E-04  0.1879740E+03  0.1035091E-01
  0.3904762E+00  0.2072841E+05  0.1341714E+01 -0.3145729E-02 -0.2423620E-03  0.1906565E+03  0.1709440E-01
  0.4214286E+00  0.2078757E+05  0.2165634E+01  0.6653090E-03  0.6837584E-04  0.1938325E+03  0.2790810E-01
  0.4523810E+00  0.2081444E+05  0.3462894E+01 -0.5734092E-03 -0.5360134E-04  0.1949973E+03  0.4504818E-01
  0.4833333E+00  0.2091288E+05  0.5408843E+01 -0.1073377E-02  0.1452304E-04  0.1982964E+03  0.7119203E-01
  0.5142857E+00  0.2104285E+05  0.8314279E+01  0.3541841E-02  0.2666600E-03  0.2065361E+03  0.1114518E+00
  0.5452381E+00  0.2110179E+05  0.1246514E+02 -0.6296749E-04 -0.9053200E-04  0.2045397E+03  0.1681481E+00
  0.5761905E+00  0.2113440E+05  0.1824357E+02  0.1962993E-02  0.6860495E-04  0.2054793E+03  0.2488451E+00
  0.6071429E+00  0.2127321E+05  0.2625510E+02 -0.2010570E-03  0.1604259E-03  0.2112983E+03  0.3636176E+00
  0.6380953E+00  0.2142230E+05  0.3696390E+02  0.1649999E-02  0.1358464E-03  0.2163173E+03  0.5195202E+00
  0.6690477E+00  0.2154005E+05  0.5113506E+02  0.3985476E-02  0.7391125E-03  0.2215251E+03  0.7302241E+00
  0.7000000E+00  0.2161618E+05  0.6963988E+02 -0.1999991E-02 -0.5658865E-03  0.2213019E+03  0.1004768E+01
  0.7309524E+00  0.2172926E+05  0.9343002E+02 -0.2197116E-02 -0.2927333E-03  0.2232006E+03  0.1364698E+01
  0.7619048E+00  0.2188939E+05  0.1238005E+03  0.1426935E-02  0.1009285E-02  0.2296872E+03  0.1839897E+01
  0.7928572E+00  0.2208333E+05  0.1621630E+03  0.1404908E-02  0.2709031E-04  0.2381740E+03  0.2456811E+01
  0.8238096E+00  0.2227425E+05  0.2100429E+03 -0.2097642E-02 -0.2517700E-03  0.2447855E+03  0.3236681E+01
  0.8547620E+00  0.2242671E+05  0.2690670E+03  0.1847631E-02  0.1528263E-03  0.2471626E+03  0.4202313E+01
  0.8857143E+00  0.2255382E+05  0.3412124E+03 -0.5353497E-02 -0.2134502E-02  0.2501558E+03  0.5409333E+01
  0.9166667E+00  0.2273551E+05  0.4290201E+03 -0.7781982E-03  0.2872944E-04  0.2566581E+03  0.6922116E+01
  0.9476191E+00  0.2295616E+05  0.5350160E+03 -0.2218083E-02 -0.1090288E-02  0.2638488E+03  0.8781432E+01
  0.9785714E+00  0.2319607E+05  0.6619847E+03 -0.1839965E-02 -0.1189590E-02  0.2712026E+03  0.1105629E+02
  0.1009524E+01  0.2343270E+05  0.8128500E+03  0.1639960E-02  0.1060009E-02  0.2810534E+03  0.1385190E+02
  0.1040476E+01  0.2367774E+05  0.9910435E+03  0.1015565E-02  0.8606911E-04  0.2917337E+03  0.1724745E+02
  0.1071429E+01  0.2390166E+05  0.1199667E+04  0.3097534E-03  0.1595020E-02  0.2976918E+03  0.2123293E+02
  0.1102381E+01  0.2410113E+05  0.1442268E+04 -0.1252671E-02 -0.5803108E-03  0.3019406E+03  0.2592446E+02
  0.1133333E+01  0.2431594E+05  0.1722976E+04  0.1029968E-02  0.5199909E-03  0.3084236E+03  0.3149903E+02
  0.1164286E+01  0.2454843E+05  0.2045743E+04 -0.3296085E-02 -0.1533508E-02  0.3183878E+03  0.3813036E+02
  0.1195238E+01  0.2480874E+05  0.2415101E+04 -0.2297937E-03  0.8301735E-03  0.3300096E+03  0.4594803E+02
  0.1226190E+01  0.2507332E+05  0.2834927E+04  0.2227487E-02  0.2368450E-02  0.3410934E+03  0.5503411E+02
  0.1257143E+01  0.2530745E+05  0.3309126E+04  0.9103255E-04  0.1328945E-02  0.3511021E+03  0.6548618E+02
  0.1288095E+01  0.2557415E+05  0.3842057E+04  0.1735440E-02  0.1387596E-02  0.3627651E+03  0.7756377E+02
  0.1319048E+01  0.2579004E+05  0.4436810E+04 -0.1388164E-03 -0.2143860E-02  0.3731360E+03  0.9139141E+02
  0.1350000E+01  0.2596942E+05  0.5095983E+04  0.7233796E-03  0.2937317E-03  0.3818050E+03  0.1070721E+03
  0.1380952E+01  0.2612390E+05  0.5823114E+04  0.3259593E-03 -0.1369476E-02  0.3901835E+03  0.1248402E+03
  0.1411905E+01  0.2612943E+05  0.6579855E+04  0.9348259E-03 -0.2880096E-03  0.3892393E+03  0.1431104E+03
  0.1442857E+01  0.2624725E+05  0.7438760E+04 -0.2564534E-02 -0.5284309E-02  0.3977061E+03  0.1649490E+03
  0.1473810E+01  0.2633812E+05  0.8365589E+04  0.6419044E-03  0.1459122E-02  0.4051330E+03  0.1888819E+03
  0.1504762E+01  0.2640542E+05  0.9360114E+04  0.1855681E-02  0.4337311E-02  0.4128080E+03  0.2154575E+03
  0.1535714E+01  0.2642457E+05  0.1041942E+05  0.1177411E-02 -0.2593994E-03  0.4206265E+03  0.2449297E+03
  0.1566667E+01  0.2640507E+05  0.1154080E+05  0.8278704E-03  0.4083633E-02  0.4276267E+03  0.2770434E+03
  0.1597619E+01  0.2634362E+05  0.1272010E+05  0.3419242E-02  0.2639771E-02  0.4347405E+03  0.3120441E+03
  0.1628572E+01  0.2623759E+05  0.1394805E+05  0.3654078E-03 -0.2687454E-02  0.4404685E+03  0.3493422E+03
  0.1659524E+01  0.2608758E+05  0.1521605E+05 -0.1402189E-02 -0.9288788E-03  0.4440343E+03  0.3888174E+03
  0.1690476E+01  0.2588320E+05  0.1651446E+05  0.6047638E-03  0.1945496E-02  0.4451225E+03  0.4299364E+03
  0.1721429E+01  0.2563535E+05  0.1783614E+05  0.8553786E-03 -0.2098083E-02  0.4451184E+03  0.4733052E+03
  0.1752381E+01  0.2533688E+05  0.1917184E+05 -0.1436731E-03  0.2140045E-02  0.4441313E+03  0.5190943E+03
  0.1783333E+01  0.2498873E+05  0.2051099E+05  0.1702710E-02  0.1461029E-02  0.4423310E+03  0.5670756E+03
  0.1814286E+01  0.2460236E+05  0.2184206E+05 -0.1063910E-02 -0.2849579E-02  0.4397435E+03  0.6164905E+03
  0.1845238E+01  0.2418039E+05  0.2315285E+05 -0.1087410E-02  0.4318237E-02  0.4362379E+03  0.6674423E+03
  0.1876190E+01  0.2372355E+05  0.2443313E+05 -0.4066429E-03  0.3063202E-02  0.4307641E+03  0.7188077E+03
  0.1907143E+01  0.2323544E+05  0.2567442E+05  0.8760946E-03  0.3147125E-02  0.4231880E+03  0.7701361E+03
  0.1938095E+01  0.2271438E+05  0.2686790E+05  0.2322560E-02 -0.1976013E-02  0.4140942E+03  0.8219791E+03
  0.1969048E+01  0.2216878E+05  0.2800750E+05 -0.5850740E-03 -0.2033234E-02  0.4034326E+03  0.8737073E+03
  0.2000000E+01  0.2160800E+05  0.2908583E+05 -0.6027222E-03 -0.2685547E-02  0.3924512E+03  0.9253363E+03
Zone t="Motion of body    1 in DoF   2",I=    64,F=POINT
  0.5000000E-01 -0.1091957E-02  0.4842877E-06  0.3443192E+05  0.6400176E+02  0.2956390E-03  0.9536743E-06
  0.8095238E-01  0.6125955E-03  0.1549721E-05  0.3420427E+05  0.1062466E+03  0.2886267E-03  0.1057982E-05
  0.1119048E+00  0.9502249E-03 -0.1196563E-04  0.3408813E+05  0.1524155E+03  0.2471437E-03 -0.8940697E-06
  0.1428571E+00  0.2259731E-02  0.1332164E-04  0.3403025E+05  0.2043421E+03  0.8678436E-04  0.4321337E-05
  0.1738095E+00 -0.9602063E-03  0.1043081E-05  0.3403993E+05  0.2643994E+03 -0.9876407E-04  0.7867813E-05
  0.2047619E+00 -0.1625460E-02  0.2565980E-04  0.3410351E+05  0.3354735E+03  0.2515039E-03  0.1728535E-05
  0.2357143E+00  0.4644683E-02 -0.5990267E-04  0.3420273E+05  0.4217285E+03  0.5340576E-03 -0.1370907E-05
  0.2666667E+00  0.3558397E-02 -0.3945827E-04  0.3434759E+05  0.5269295E+03  0.5221367E-03  0.1591444E-04
  0.2976190E+00 -0.3966980E-02  0.5620718E-04  0.3450727E+05  0.6587503E+03  0.4486084E-03  0.1370907E-04
  0.3285715E+00 -0.2118815E-02 -0.4386902E-04  0.3470223E+05  0.8221467E+03  0.6675720E-03  0.1144409E-04
  0.3595238E+00 -0.4191114E-03  0.1943111E-04  0.3488857E+05  0.1026678E+04  0.4933843E-03  0.9894371E-05
  0.3904762E+00  0.1670558E-02 -0.8285046E-04  0.3508607E+05  0.1280684E+04 -0.1953869E-04 -0.5006790E-05
  0.4214286E+00  0.9368637E-03 -0.1145601E-03  0.3521581E+05  0.1583015E+04 -0.9051823E-05  0.4673004E-04
  0.4523810E+00  0.8854112E-03  0.8296967E-04  0.3533757E+05  0.1949746E+04 -0.2951371E-03  0.2360344E-04
  0.4833333E+00  0.3030711E-02 -0.1232624E-03  0.3537086E+05  0.2354912E+04  0.3551615E-03  0.2932549E-04
  0.5142857E+00  0.1884037E-02 -0.2639294E-03  0.3534237E+05  0.2816856E+04  0.3337860E-03  0.1955032E-04
  0.5452381E+00 -0.2392765E-02  0.7438660E-04  0.3526100E+05  0.3314679E+04  0.1469242E-03  0.6389618E-04
  0.5761905E+00 -0.2270848E-02 -0.4291534E-05  0.3511643E+05  0.3841435E+04 -0.2449603E-03  0.3814697E-04
  0.6071429E+00 -0.1033558E-02 -0.5488396E-03  0.3492332E+05  0.4408541E+04  0.5466236E-03  0.4100800E-04
  0.6380953E+00  0.5380431E-03 -0.3480911E-04  0.3469989E+05  0.4988512E+04  0.1195651E-03  0.2670288E-04
  0.6690477E+00  0.3164434E-02  0.2241135E-03  0.3442841E+05  0.5593707E+04  0.2508740E-03  0.7534027E-04
  0.7000000E+00  0.2425057E-02 -0.9460449E-03  0.3412089E+05  0.6225598E+04  0.1634870E-04  0.1306534E-03
  0.7309524E+00 -0.2682465E-02  0.3862381E-03  0.3379612E+05  0.6869339E+04  0.6836633E-03  0.1239777E-03
  0.7619048E+00 -0.3104210E-03 -0.9918213E-04  0.3343159E+05  0.7528876E+04  0.3404617E-03  0.4291534E-04
  0.7928572E+00 -0.1938966E-02  0.2117157E-03  0.3304065E+05  0.8201059E+04 -0.9622659E-05  0.1316071E-03
  0.8238096E+00 -0.1379906E-02  0.3910065E-03  0.3262187E+05  0.8881563E+04  0.1898528E-03  0.1516342E-03
  0.8547620E+00  0.2624172E-02  0.1078606E-02  0.3217897E+05  0.9565980E+04 -0.1562007E-03  0.7820129E-04
  0.8857143E+00 -0.8269279E-03  0.1010895E-03  0.3171762E+05  0.1025092E+05  0.1636628E-03  0.1831055E-03
  0.9166667E+00 -0.1235962E-02 -0.5645752E-03  0.3124746E+05  0.1093187E+05 -0.1664595E-04  0.1335144E-03
  0.9476191E+00 -0.1187540E-02  0.1817703E-02  0.3075463E+05  0.1160716E+05  0.1489457E-03  0.1220703E-03
  0.9785714E+00 -0.2116739E-02  0.3719330E-04  0.3024447E+05  0.1227274E+05 -0.7796461E-05  0.2746582E-03
  0.1009524E+01 -0.2191652E-03 -0.2965927E-02  0.2971859E+05  0.1292588E+05 -0.1435910E-03  0.2517700E-03
  0.1040476E+01  0.6526013E-03 -0.4577637E-03  0.2919010E+05  0.1356184E+05  0.3776288E-03  0.2937317E-03
  0.1071429E+01 -0.8117676E-03 -0.5569458E-03  0.2865785E+05  0.1417783E+05  0.3061930E-03  0.5531311E-04
  0.1102381E+01  0.2231969E-02 -0.1344681E-02  0.2812170E+05  0.1477224E+05  0.1661000E-03 -0.3623962E-04
  0.1133333E+01  0.1063627E-02  0.8811951E-03  0.2758135E+05  0.1534322E+05  0.2490773E-03  0.5340576E-04
  0.1164286E+01  0.1254871E-02 -0.8277893E-03  0.2704245E+05  0.1588907E+05  0.2621142E-04  0.2574921E-03
  0.1195238E+01 -0.1787284E-02  0.5741119E-03  0.2650975E+05  0.1640709E+05 -0.1085137E-03  0.3623962E-04
  0.1226190E+01  0.3111015E-05 -0.9155273E-03  0.2598379E+05  0.1689490E+05  0.3546558E-03  0.1792908E-03
  0.1257143E+01  0.7586045E-04 -0.1277924E-02  0.2546291E+05  0.1736690E+05  0.9710138E-04  0.1811981E-03
  0.1288095E+01  0.3242845E-02 -0.1071930E-02  0.2494314E+05  0.1777936E+05  0.1480751E-03  0.6084442E-03
  0.1319048E+01 -0.4251253E-03  0.3078461E-02  0.2443095E+05  0.1817459E+05 -0.8097624E-04  0.5588531E-03
  0.1350000E+01 -0.2215350E-02 -0.6752014E-03  0.2393140E+05  0.1853559E+05  0.1186795E-03  0.3643036E-03
  0.1380952E+01 -0.2080062E-02  0.1903534E-02  0.2344904E+05  0.1886008E+05 -0.2651872E-03  0.4444122E-03
  0.1411905E+01  0.6646450E-03 -0.9536743E-05  0.2297795E+05  0.1916208E+05  0.1729158E-03  0.6046295E-03
  0.1442857E+01 -0.1057540E-04 -0.2473831E-02  0.2252126E+05  0.1942191E+05  0.1533433E-03  0.7228851E-03
  0.1473810E+01  0.2583148E-02 -0.2479553E-03  0.2207895E+05  0.1964872E+05  0.1967126E-03  0.3147125E-03
  0.1504762E+01  0.1308103E-02  0.2716064E-02  0.2164969E+05  0.1984322E+05 -0.6591217E-04  0.3566742E-03
  0.1535714E+01  0.3477584E-03  0.2479553E-04  0.2123138E+05  0.2000834E+05  0.1241994E-03  0.2880096E-03
  0.1566667E+01  0.5283761E-03  0.1827240E-02  0.2083188E+05  0.2014033E+05  0.0000000E+00  0.9689331E-03
  0.1597619E+01  0.5491800E-03  0.2346039E-03  0.2044959E+05  0.2024025E+05  0.1480398E-03  0.5607605E-03
  0.1628572E+01  0.1110278E-02  0.4959106E-04  0.2008513E+05  0.2030688E+05  0.8432489E-04  0.5683899E-03
  0.1659524E+01  0.1328631E-02 -0.4783630E-02  0.1973450E+05  0.2034578E+05 -0.1149335E-03  0.7190704E-03
  0.1690476E+01  0.1780443E-02 -0.8354187E-03  0.1940121E+05  0.2035544E+05  0.1760133E-03  0.7095337E-03
  0.1721429E+01  0.1573365E-03 -0.3465652E-02  0.1908310E+05  0.2033802E+05  0.6648021E-04  0.4215240E-03
  0.1752381E+01  0.3898766E-02 -0.3166199E-03  0.1877774E+05  0.2029660E+05  0.1088433E-03  0.4730225E-03
  0.1783333E+01  0.3274936E-02  0.4119873E-03  0.1848836E+05  0.2022864E+05 -0.1711266E-04  0.8220673E-03
  0.1814286E+01  0.1171142E-02 -0.5130768E-03  0.1821754E+05  0.2013692E+05 -0.1766175E-03  0.3318787E-03
  0.1845238E+01  0.1655923E-02 -0.1197815E-02  0.1796379E+05  0.2002120E+05  0.3721176E-03  0.1083374E-02
  0.1876190E+01  0.1608273E-02 -0.3015518E-02  0.1772656E+05  0.1988128E+05  0.1179264E-03  0.9078979E-03
  0.1907143E+01  0.1108120E-02 -0.3110886E-02  0.1750181E+05  0.1972335E+05 -0.6800734E-04  0.8621216E-03
  0.1938095E+01  0.3554698E-02  0.1564026E-02  0.1729203E+05  0.1954484E+05  0.2125733E-03  0.5435944E-03
  0.1969048E+01 -0.2537904E-03 -0.1693726E-02  0.1709582E+05  0.1934806E+05 -0.1704851E-03  0.6294250E-03
  0.2000000E+01  0.1525879E-03  0.6437302E-03  0.1691385E+05  0.1913425E+05  0.3051758E-04  0.1127243E-02
Zone t="Motion of body    1 in DoF   3",I=    64,F=POINT
  0.5000000E-01  0.1762670E+03  0.6824149E-05  0.2211332E-03 -0.4825428E-06  0.3282290E+03  0.1538233E-06
  0.8095238E-01  0.1771613E+03  0.3125423E-04  0.1447551E-02  0.3863030E-05  0.3291031E+03  0.3307922E-06
  0.1119048E+00  0.1772538E+03  0.8618490E-04  0.2525766E-02  0.1061679E-04  0.3239530E+03  0.6838964E-06
  0.1428571E+00  0.1799824E+03  0.1966330E-03  0.1592159E-02  0.7411901E-05  0.3267912E+03  0.2542146E-05
  0.1738095E+00  0.1771809E+03  0.3927802E-03  0.3827108E-03 -0.3237944E-06  0.3262421E+03  0.5658227E-05
  0.2047619E+00  0.1803281E+03  0.7278724E-03  0.1670871E-02  0.1434983E-04  0.3270840E+03  0.8877045E-05
  0.2357143E+00  0.1800468E+03  0.1287431E-02  0.5168626E-03  0.1712099E-05  0.3274993E+03  0.1585122E-04
  0.2666667E+00  0.1793421E+03  0.2220364E-02  0.6182491E-03  0.1773044E-05  0.3265316E+03  0.3044533E-04
  0.2976190E+00  0.1834378E+03  0.3761705E-02  0.1956253E-02  0.3323096E-04  0.3261282E+03  0.4889196E-04
  0.3285715E+00  0.1840454E+03  0.6285477E-02  0.1484622E-02  0.2676772E-04  0.3274060E+03  0.8031486E-04
  0.3595238E+00  0.1832763E+03  0.1042699E-01  0.1903243E-03 -0.3374245E-05  0.3258719E+03  0.1341728E-03
  0.3904762E+00  0.1859138E+03  0.1721190E-01  0.7729995E-03  0.2510973E-05  0.3262068E+03  0.2147196E-03
  0.4214286E+00  0.1894572E+03  0.2804622E-01  0.9323378E-03  0.2608079E-04  0.3268701E+03  0.3514463E-03
  0.4523810E+00  0.1906354E+03  0.4531451E-01  0.4853951E-03 -0.8555508E-06  0.3264164E+03  0.5847156E-03
  0.4833333E+00  0.1940095E+03  0.7157078E-01  0.2138368E-02  0.1315198E-03  0.3275342E+03  0.9430938E-03
  0.5142857E+00  0.2027398E+03  0.1112396E+00  0.1538197E-02  0.9175201E-04  0.3272913E+03  0.1487709E-02
  0.5452381E+00  0.2003673E+03  0.1688998E+00  0.1092311E-02  0.6228444E-04  0.3278408E+03  0.2267530E-02
  0.5761905E+00  0.2012592E+03  0.2503569E+00  0.9111530E-03  0.3179093E-04  0.3275967E+03  0.3404810E-02
  0.6071429E+00  0.2070498E+03  0.3647568E+00  0.1173356E-02  0.1102419E-03  0.3268079E+03  0.5051681E-02
  0.6380953E+00  0.2123515E+03  0.5207026E+00  0.7442930E-03  0.7888430E-04  0.3286573E+03  0.7299255E-02
  0.6690477E+00  0.2176851E+03  0.7304362E+00  0.7162738E-03  0.4192698E-04  0.3283019E+03  0.1041211E-01
  0.7000000E+00  0.2170625E+03  0.1009946E+01  0.2034051E-02  0.3826572E-03  0.3273260E+03  0.1458244E-01
  0.7309524E+00  0.2190170E+03  0.1376002E+01  0.2318454E-02  0.4423272E-03  0.3286425E+03  0.2011484E-01
  0.7619048E+00  0.2255895E+03  0.1850546E+01  0.1152187E-02  0.1932648E-03  0.3288803E+03  0.2752853E-01
  0.7928572E+00  0.2340312E+03  0.2461118E+01 -0.3428072E-03 -0.2668961E-03  0.3281696E+03  0.3733638E-01
  0.8238096E+00  0.2410256E+03  0.3241696E+01  0.1025090E-02  0.2508350E-03  0.3291387E+03  0.4995000E-01
  0.8547620E+00  0.2432109E+03  0.4225162E+01  0.1169274E-02  0.2985299E-03  0.3296783E+03  0.6604096E-01
  0.8857143E+00  0.2461812E+03  0.5452479E+01  0.1596251E-02  0.4691118E-03  0.3295629E+03  0.8649607E-01
  0.9166667E+00  0.2524576E+03  0.6971491E+01  0.9176081E-03  0.2004448E-03  0.3285642E+03  0.1121735E+00
  0.9476191E+00  0.2599309E+03  0.8847914E+01  0.4377796E-03 -0.7691607E-04  0.3292472E+03  0.1449970E+00
  0.9785714E+00  0.2672383E+03  0.1114240E+02  0.1493997E-02  0.5664844E-03  0.3305206E+03  0.1859872E+00
  0.1009524E+01  0.2772880E+03  0.1392139E+02 -0.1081183E-02 -0.9646229E-03  0.3314588E+03  0.2375086E+00
  0.1040476E+01  0.2879971E+03  0.1728247E+02  0.1185590E-02  0.2477430E-03  0.3310212E+03  0.3008459E+00
  0.1071429E+01  0.2936238E+03  0.2133256E+02  0.8184433E-03  0.2861097E-03  0.3303304E+03  0.3776675E+00
  0.1102381E+01  0.2983182E+03  0.2619252E+02  0.1384167E-02  0.6612316E-03  0.3311399E+03  0.4707028E+00
  0.1133333E+01  0.3048848E+03  0.3189559E+02  0.9845285E-03  0.4357323E-03  0.3319835E+03  0.5848205E+00
  0.1164286E+01  0.3149525E+03  0.3854270E+02  0.9288670E-03  0.1691058E-03  0.3327235E+03  0.7156719E+00
  0.1195238E+01  0.3264559E+03  0.4633828E+02  0.1263865E-02  0.1083046E-02  0.3322108E+03  0.8787630E+00
  0.1226190E+01  0.3370009E+03  0.5541879E+02  0.1673726E-02  0.1554534E-02  0.3318691E+03  0.1070205E+01
  0.1257143E+01  0.3475608E+03  0.6602188E+02 -0.1699274E-03 -0.5634576E-03  0.3328323E+03  0.1307453E+01
  0.1288095E+01  0.3595630E+03  0.7816594E+02  0.7973845E-03  0.2240837E-03  0.3346635E+03  0.1580829E+01
  0.1319048E+01  0.3699636E+03  0.9211027E+02  0.4121112E-04 -0.4492849E-03  0.3353326E+03  0.1904338E+01
  0.1350000E+01  0.3784097E+03  0.1080101E+03  0.8385269E-03  0.1615733E-03  0.3355534E+03  0.2280218E+01
  0.1380952E+01  0.3867651E+03  0.1261446E+03  0.6111737E-03  0.1162291E-03  0.3348329E+03  0.2708460E+01
  0.1411905E+01  0.3637621E+03  0.1387150E+03  0.8402626E-03  0.6026328E-03  0.3322310E+03  0.3020185E+01
  0.1442857E+01  0.3724471E+03  0.1602272E+03  0.1321925E-04 -0.1471609E-02  0.3327154E+03  0.3529999E+01
  0.1473810E+01  0.3806105E+03  0.1840997E+03  0.1648116E-02  0.1723886E-02  0.3339893E+03  0.4143441E+01
  0.1504762E+01  0.3883533E+03  0.2103811E+03  0.1809416E-02  0.2113402E-02  0.3353451E+03  0.4852082E+01
  0.1535714E+01  0.3957260E+03  0.2391839E+03  0.6377641E-03 -0.5797148E-03  0.3358177E+03  0.5631056E+01
  0.1566667E+01  0.4026187E+03  0.2706273E+03  0.1570519E-02  0.1966238E-02  0.3364151E+03  0.6535183E+01
  0.1597619E+01  0.4098297E+03  0.3047993E+03  0.1346088E-02  0.1736999E-02  0.3361145E+03  0.7455030E+01
  0.1628572E+01  0.4154157E+03  0.3411084E+03  0.1065773E-02  0.1303494E-02  0.3360143E+03  0.8489720E+01
  0.1659524E+01  0.4193006E+03  0.3802203E+03  0.1865371E-02  0.2486229E-02  0.3363314E+03  0.9610219E+01
  0.1690476E+01  0.4213358E+03  0.4218765E+03  0.8721687E-03  0.3206134E-03  0.3372667E+03  0.1089001E+02
  0.1721429E+01  0.4214197E+03  0.4653101E+03  0.1221574E-02  0.1906872E-02  0.3386760E+03  0.1243206E+02
  0.1752381E+01  0.4203402E+03  0.5109830E+03  0.1364895E-02  0.1334965E-02  0.3391808E+03  0.1396556E+02
  0.1783333E+01  0.4181868E+03  0.5581226E+03  0.6839717E-03  0.8386374E-03  0.3397578E+03  0.1559946E+02
  0.1814286E+01  0.4154578E+03  0.6063942E+03  0.8962286E-03  0.3824234E-03  0.3396538E+03  0.1727438E+02
  0.1845238E+01  0.4116876E+03  0.6560457E+03  0.1174238E-02  0.6450415E-03  0.3386469E+03  0.1880720E+02
  0.1876190E+01  0.4059150E+03  0.7063163E+03  0.1110643E-02 -0.1525879E-04  0.3379912E+03  0.2039583E+02
  0.1907143E+01  0.3986920E+03  0.7577599E+03  0.1114120E-02  0.1999497E-02  0.3380401E+03  0.2234011E+02
  0.1938095E+01  0.3903191E+03  0.8104120E+03  0.9861039E-03  0.1030207E-02  0.3386295E+03  0.2449470E+02
  0.1969048E+01  0.3802057E+03  0.8631247E+03  0.1323682E-02  0.2580881E-03  0.3399056E+03  0.2682631E+02
  0.2000000E+01  0.3693444E+03  0.9147313E+03  0.1198292E-02  0.6002188E-03  0.3411971E+03  0.2946363E+02
