VARIABLES="w (rad/s)"
"abs(F   1   1)" "angle(F   1   1)"
"abs(F   1   2)" "angle(F   1   2)"
"abs(F   1   3)" "angle(F   1   3)"
Zone t="Diffraction force - beta =   0.000 deg",I=    64,F=POINT
  0.5000000E-01  0.2071558E+04 -0.1570803E+01  0.3734980E+06 -0.2556341E-04  0.4397773E+02 -0.1571259E+01
  0.8095238E-01  0.3379089E+04 -0.1570812E+01  0.3728383E+06 -0.6877090E-04  0.7164122E+02 -0.1571096E+01
  0.1119048E+00  0.4721084E+04 -0.1570796E+01  0.3718700E+06 -0.1365656E-03  0.1003500E+03 -0.1570992E+01
  0.1428571E+00  0.6106716E+04 -0.1570789E+01  0.3705920E+06 -0.2341601E-03  0.1297795E+03 -0.1570953E+01
  0.1738095E+00  0.7550648E+04 -0.1570786E+01  0.3690021E+06 -0.3694365E-03  0.1613972E+03 -0.1570911E+01
  0.2047619E+00  0.9071619E+04 -0.1570784E+01  0.3670960E+06 -0.5537374E-03  0.1944142E+03 -0.1570889E+01
  0.2357143E+00  0.1069786E+05 -0.1570778E+01  0.3648738E+06 -0.8039131E-03  0.2306806E+03 -0.1570863E+01
  0.2666667E+00  0.1243520E+05 -0.1570769E+01  0.3623280E+06 -0.1140394E-02  0.2696750E+03 -0.1570846E+01
  0.2976190E+00  0.1432235E+05 -0.1570756E+01  0.3594593E+06 -0.1597867E-02  0.3121547E+03 -0.1570820E+01
  0.3285715E+00  0.1640126E+05 -0.1570735E+01  0.3562634E+06 -0.2211667E-02  0.3602520E+03 -0.1570791E+01
  0.3595238E+00  0.1867338E+05 -0.1570710E+01  0.3527502E+06 -0.3037713E-02  0.4137152E+03 -0.1570759E+01
  0.3904762E+00  0.2117865E+05 -0.1570665E+01  0.3489092E+06 -0.4138852E-02  0.4727419E+03 -0.1570713E+01
  0.4214286E+00  0.2397860E+05 -0.1570606E+01  0.3447871E+06 -0.5555521E-02  0.5412477E+03 -0.1570641E+01
  0.4523810E+00  0.2706387E+05 -0.1570510E+01  0.3403700E+06 -0.7396297E-02  0.6187598E+03 -0.1570543E+01
  0.4833333E+00  0.3038692E+05 -0.1570382E+01  0.3357075E+06 -0.9613273E-02  0.6982934E+03 -0.1570411E+01
  0.5142857E+00  0.3401888E+05 -0.1570203E+01  0.3308093E+06 -0.1233393E-01  0.7919399E+03 -0.1570227E+01
  0.5452381E+00  0.3795010E+05 -0.1569964E+01  0.3256952E+06 -0.1551925E-01  0.8942126E+03 -0.1569985E+01
  0.5761905E+00  0.4210436E+05 -0.1569649E+01  0.3203974E+06 -0.1917889E-01  0.1005666E+04 -0.1569668E+01
  0.6071429E+00  0.4643555E+05 -0.1569242E+01  0.3149227E+06 -0.2341927E-01  0.1119653E+04 -0.1569259E+01
  0.6380953E+00  0.5098582E+05 -0.1568732E+01  0.3092602E+06 -0.2813882E-01  0.1243047E+04 -0.1568748E+01
  0.6690477E+00  0.5576359E+05 -0.1568099E+01  0.3034702E+06 -0.3344675E-01  0.1380947E+04 -0.1568114E+01
  0.7000000E+00  0.6074516E+05 -0.1567317E+01  0.2975626E+06 -0.3940155E-01  0.1529194E+04 -0.1567331E+01
  0.7309524E+00  0.6586162E+05 -0.1566368E+01  0.2915287E+06 -0.4595468E-01  0.1680232E+04 -0.1566381E+01
  0.7619048E+00  0.7105771E+05 -0.1565226E+01  0.2854091E+06 -0.5317277E-01  0.1834081E+04 -0.1565235E+01
  0.7928572E+00  0.7642762E+05 -0.1563868E+01  0.2792117E+06 -0.6108903E-01  0.2004439E+04 -0.1563878E+01
  0.8238096E+00  0.8198518E+05 -0.1562269E+01  0.2729614E+06 -0.6972029E-01  0.2183929E+04 -0.1562282E+01
  0.8547620E+00  0.8768805E+05 -0.1560401E+01  0.2666763E+06 -0.7907771E-01  0.2372761E+04 -0.1560415E+01
  0.8857143E+00  0.9348780E+05 -0.1558238E+01  0.2603787E+06 -0.8917686E-01  0.2576024E+04 -0.1558252E+01
  0.9166667E+00  0.9937231E+05 -0.1555750E+01  0.2540628E+06 -0.1000256E+00  0.2787583E+04 -0.1555760E+01
  0.9476191E+00  0.1052714E+06 -0.1552912E+01  0.2477612E+06 -0.1116402E+00  0.2994690E+04 -0.1552913E+01
  0.9785714E+00  0.1112070E+06 -0.1549704E+01  0.2414787E+06 -0.1240295E+00  0.3210513E+04 -0.1549706E+01
  0.1009524E+01  0.1172224E+06 -0.1546118E+01  0.2352418E+06 -0.1372187E+00  0.3444092E+04 -0.1546134E+01
  0.1040476E+01  0.1233124E+06 -0.1542141E+01  0.2290473E+06 -0.1512004E+00  0.3694138E+04 -0.1542176E+01
  0.1071429E+01  0.1294249E+06 -0.1537758E+01  0.2229114E+06 -0.1659737E+00  0.3950155E+04 -0.1537794E+01
  0.1102381E+01  0.1355005E+06 -0.1532959E+01  0.2168473E+06 -0.1815441E+00  0.4211732E+04 -0.1533002E+01
  0.1133333E+01  0.1415011E+06 -0.1527739E+01  0.2108645E+06 -0.1979084E+00  0.4478293E+04 -0.1527779E+01
  0.1164286E+01  0.1473382E+06 -0.1522099E+01  0.2049712E+06 -0.2150820E+00  0.4747309E+04 -0.1522110E+01
  0.1195238E+01  0.1530104E+06 -0.1516061E+01  0.1991512E+06 -0.2330500E+00  0.5019283E+04 -0.1516015E+01
  0.1226190E+01  0.1585140E+06 -0.1509674E+01  0.1934047E+06 -0.2518138E+00  0.5298317E+04 -0.1509619E+01
  0.1257143E+01  0.1638193E+06 -0.1502972E+01  0.1877604E+06 -0.2715841E+00  0.5574943E+04 -0.1502926E+01
  0.1288095E+01  0.1689655E+06 -0.1496129E+01  0.1822295E+06 -0.2918208E+00  0.5855655E+04 -0.1496162E+01
  0.1319048E+01  0.1738181E+06 -0.1489080E+01  0.1768146E+06 -0.3130475E+00  0.6137750E+04 -0.1489104E+01
  0.1350000E+01  0.1783319E+06 -0.1481929E+01  0.1715192E+06 -0.3350814E+00  0.6421815E+04 -0.1481904E+01
  0.1380952E+01  0.1825035E+06 -0.1474766E+01  0.1663157E+06 -0.3578808E+00  0.6705231E+04 -0.1474686E+01
  0.1411905E+01  0.1859339E+06 -0.1468162E+01  0.1612833E+06 -0.3811679E+00  0.6946220E+04 -0.1468102E+01
  0.1442857E+01  0.1893155E+06 -0.1461402E+01  0.1563081E+06 -0.4055749E+00  0.7211462E+04 -0.1461346E+01
  0.1473810E+01  0.1922409E+06 -0.1455012E+01  0.1514552E+06 -0.4307893E+00  0.7459874E+04 -0.1455033E+01
  0.1504762E+01  0.1947200E+06 -0.1449121E+01  0.1467198E+06 -0.4568011E+00  0.7699795E+04 -0.1449161E+01
  0.1535714E+01  0.1967221E+06 -0.1443842E+01  0.1421171E+06 -0.4836209E+00  0.7932865E+04 -0.1443796E+01
  0.1566667E+01  0.1982402E+06 -0.1439301E+01  0.1376224E+06 -0.5112423E+00  0.8156715E+04 -0.1439202E+01
  0.1597619E+01  0.1992983E+06 -0.1435682E+01  0.1332361E+06 -0.5396748E+00  0.8371312E+04 -0.1435573E+01
  0.1628572E+01  0.1998928E+06 -0.1433107E+01  0.1289586E+06 -0.5688959E+00  0.8570063E+04 -0.1432995E+01
  0.1659524E+01  0.2000362E+06 -0.1431684E+01  0.1247940E+06 -0.5988979E+00  0.8747196E+04 -0.1431649E+01
  0.1690476E+01  0.1997268E+06 -0.1431509E+01  0.1207456E+06 -0.6297076E+00  0.8904881E+04 -0.1431454E+01
  0.1721429E+01  0.1989961E+06 -0.1432693E+01  0.1168106E+06 -0.6613355E+00  0.9044840E+04 -0.1432659E+01
  0.1752381E+01  0.1978859E+06 -0.1435347E+01  0.1129864E+06 -0.6937636E+00  0.9172604E+04 -0.1435335E+01
  0.1783333E+01  0.1964063E+06 -0.1439539E+01  0.1092862E+06 -0.7269903E+00  0.9290665E+04 -0.1439543E+01
  0.1814286E+01  0.1946006E+06 -0.1445328E+01  0.1056819E+06 -0.7610574E+00  0.9393611E+04 -0.1445357E+01
  0.1845238E+01  0.1924956E+06 -0.1452776E+01  0.1021794E+06 -0.7959446E+00  0.9482067E+04 -0.1452689E+01
  0.1876190E+01  0.1901406E+06 -0.1461921E+01  0.9876691E+05 -0.8316213E+00  0.9556099E+04 -0.1461724E+01
  0.1907143E+01  0.1875631E+06 -0.1472784E+01  0.9544752E+05 -0.8680667E+00  0.9612593E+04 -0.1472502E+01
  0.1938095E+01  0.1847844E+06 -0.1485376E+01  0.9222613E+05 -0.9053161E+00  0.9655581E+04 -0.1485179E+01
  0.1969048E+01  0.1818360E+06 -0.1499715E+01  0.8910588E+05 -0.9434599E+00  0.9681630E+04 -0.1499802E+01
  0.2000000E+01  0.1787491E+06 -0.1515803E+01  0.8607846E+05 -0.9824514E+00  0.9700563E+04 -0.1516118E+01
