VARIABLES="w (rad/s)"
"abs(F   1   1)" "angle(F   1   1)"
"abs(F   1   2)" "angle(F   1   2)"
"abs(F   1   3)" "angle(F   1   3)"
Zone t="Diffraction force - beta =   0.000 deg",I=    64,F=POINT
  0.5000000E-01  0.1930730E+04 -0.1570798E+01  0.4746237E+06 -0.3124332E-04  0.2460175E+04 -0.1570763E+01
  0.8095238E-01  0.3147641E+04 -0.1570791E+01  0.4736877E+06 -0.8403747E-04  0.4000477E+04 -0.1570774E+01
  0.1119048E+00  0.4390663E+04 -0.1570796E+01  0.4723119E+06 -0.1668446E-03  0.5572300E+04 -0.1570772E+01
  0.1428571E+00  0.5677251E+04 -0.1570794E+01  0.4704985E+06 -0.2859330E-03  0.7202126E+04 -0.1570778E+01
  0.1738095E+00  0.7032582E+04 -0.1570787E+01  0.4682438E+06 -0.4509075E-03  0.8872631E+04 -0.1570781E+01
  0.2047619E+00  0.8456913E+04 -0.1570785E+01  0.4655389E+06 -0.6754562E-03  0.1064089E+05 -0.1570777E+01
  0.2357143E+00  0.9966601E+04 -0.1570782E+01  0.4623859E+06 -0.9799462E-03  0.1249732E+05 -0.1570773E+01
  0.2666667E+00  0.1161572E+05 -0.1570774E+01  0.4587760E+06 -0.1389044E-02  0.1447420E+05 -0.1570766E+01
  0.2976190E+00  0.1340101E+05 -0.1570761E+01  0.4547047E+06 -0.1944429E-02  0.1661337E+05 -0.1570755E+01
  0.3285715E+00  0.1532550E+05 -0.1570742E+01  0.4501723E+06 -0.2688587E-02  0.1893690E+05 -0.1570739E+01
  0.3595238E+00  0.1749697E+05 -0.1570716E+01  0.4451897E+06 -0.3688609E-02  0.2143473E+05 -0.1570713E+01
  0.3904762E+00  0.1990460E+05 -0.1570675E+01  0.4397427E+06 -0.5020252E-02  0.2420091E+05 -0.1570672E+01
  0.4214286E+00  0.2253307E+05 -0.1570617E+01  0.4339095E+06 -0.6728529E-02  0.2723582E+05 -0.1570614E+01
  0.4523810E+00  0.2544146E+05 -0.1570531E+01  0.4276420E+06 -0.8944176E-02  0.3049111E+05 -0.1570529E+01
  0.4833333E+00  0.2869960E+05 -0.1570411E+01  0.4210749E+06 -0.1160723E-01  0.3402218E+05 -0.1570408E+01
  0.5142857E+00  0.3218259E+05 -0.1570243E+01  0.4141504E+06 -0.1486637E-01  0.3783130E+05 -0.1570241E+01
  0.5452381E+00  0.3588997E+05 -0.1570019E+01  0.4069632E+06 -0.1867255E-01  0.4187635E+05 -0.1570017E+01
  0.5761905E+00  0.3987727E+05 -0.1569726E+01  0.3995141E+06 -0.2303560E-01  0.4599019E+05 -0.1569724E+01
  0.6071429E+00  0.4414770E+05 -0.1569346E+01  0.3918058E+06 -0.2807680E-01  0.5025407E+05 -0.1569347E+01
  0.6380953E+00  0.4863161E+05 -0.1568871E+01  0.3839280E+06 -0.3366872E-01  0.5472915E+05 -0.1568873E+01
  0.6690477E+00  0.5322081E+05 -0.1568279E+01  0.3758267E+06 -0.3993627E-01  0.5926452E+05 -0.1568284E+01
  0.7000000E+00  0.5794808E+05 -0.1567548E+01  0.3675470E+06 -0.4694470E-01  0.6380236E+05 -0.1567554E+01
  0.7309524E+00  0.6299740E+05 -0.1566667E+01  0.3591993E+06 -0.5463718E-01  0.6835276E+05 -0.1566674E+01
  0.7619048E+00  0.6824527E+05 -0.1565610E+01  0.3507112E+06 -0.6308313E-01  0.7288627E+05 -0.1565620E+01
  0.7928572E+00  0.7360333E+05 -0.1564350E+01  0.3421143E+06 -0.7230111E-01  0.7745235E+05 -0.1564369E+01
  0.8238096E+00  0.7904809E+05 -0.1562863E+01  0.3334748E+06 -0.8231964E-01  0.8203284E+05 -0.1562899E+01
  0.8547620E+00  0.8461173E+05 -0.1561130E+01  0.3248473E+06 -0.9314939E-01  0.8656388E+05 -0.1561185E+01
  0.8857143E+00  0.9023012E+05 -0.1559130E+01  0.3161859E+06 -0.1047918E+00  0.9092220E+05 -0.1559204E+01
  0.9166667E+00  0.9608522E+05 -0.1556862E+01  0.3074498E+06 -0.1172321E+00  0.9503332E+05 -0.1556927E+01
  0.9476191E+00  0.1020833E+06 -0.1554296E+01  0.2988166E+06 -0.1305167E+00  0.9908936E+05 -0.1554378E+01
  0.9785714E+00  0.1081776E+06 -0.1551406E+01  0.2902974E+06 -0.1446458E+00  0.1030759E+06 -0.1551530E+01
  0.1009524E+01  0.1142257E+06 -0.1548169E+01  0.2818051E+06 -0.1596202E+00  0.1068382E+06 -0.1548385E+01
  0.1040476E+01  0.1201966E+06 -0.1544573E+01  0.2733302E+06 -0.1753912E+00  0.1103870E+06 -0.1544906E+01
  0.1071429E+01  0.1260924E+06 -0.1540618E+01  0.2649128E+06 -0.1919535E+00  0.1136002E+06 -0.1541107E+01
  0.1102381E+01  0.1319573E+06 -0.1536342E+01  0.2567116E+06 -0.2093911E+00  0.1166873E+06 -0.1536980E+01
  0.1133333E+01  0.1378046E+06 -0.1531791E+01  0.2486385E+06 -0.2276445E+00  0.1194026E+06 -0.1532539E+01
  0.1164286E+01  0.1436599E+06 -0.1527060E+01  0.2406425E+06 -0.2467192E+00  0.1216037E+06 -0.1527796E+01
  0.1195238E+01  0.1492887E+06 -0.1522033E+01  0.2327474E+06 -0.2665513E+00  0.1235124E+06 -0.1522989E+01
  0.1226190E+01  0.1546989E+06 -0.1516778E+01  0.2249333E+06 -0.2871231E+00  0.1249628E+06 -0.1518007E+01
  0.1257143E+01  0.1597832E+06 -0.1511362E+01  0.2173047E+06 -0.3088264E+00  0.1261376E+06 -0.1513047E+01
  0.1288095E+01  0.1646739E+06 -0.1505985E+01  0.2099201E+06 -0.3307278E+00  0.1270941E+06 -0.1508075E+01
  0.1319048E+01  0.1692546E+06 -0.1500749E+01  0.2026444E+06 -0.3536745E+00  0.1274295E+06 -0.1503138E+01
  0.1350000E+01  0.1734315E+06 -0.1495756E+01  0.1954872E+06 -0.3773365E+00  0.1272812E+06 -0.1498477E+01
  0.1380952E+01  0.1771792E+06 -0.1490984E+01  0.1884279E+06 -0.4016286E+00  0.1266970E+06 -0.1494332E+01
  0.1411905E+01  0.1803618E+06 -0.1486403E+01  0.1815309E+06 -0.4261197E+00  0.1256882E+06 -0.1490466E+01
  0.1442857E+01  0.1831449E+06 -0.1482557E+01  0.1747312E+06 -0.4518302E+00  0.1241958E+06 -0.1487616E+01
  0.1473810E+01  0.1854768E+06 -0.1479663E+01  0.1682250E+06 -0.4781881E+00  0.1226479E+06 -0.1485289E+01
  0.1504762E+01  0.1873455E+06 -0.1477780E+01  0.1618372E+06 -0.5050517E+00  0.1206826E+06 -0.1483754E+01
  0.1535714E+01  0.1886722E+06 -0.1476834E+01  0.1555499E+06 -0.5326803E+00  0.1181488E+06 -0.1484050E+01
  0.1566667E+01  0.1894009E+06 -0.1477105E+01  0.1493561E+06 -0.5609767E+00  0.1153544E+06 -0.1485435E+01
  0.1597619E+01  0.1895750E+06 -0.1478743E+01  0.1432467E+06 -0.5898457E+00  0.1122424E+06 -0.1488184E+01
  0.1628572E+01  0.1892507E+06 -0.1482019E+01  0.1371919E+06 -0.6193593E+00  0.1088200E+06 -0.1492150E+01
  0.1659524E+01  0.1884156E+06 -0.1486980E+01  0.1312492E+06 -0.6496543E+00  0.1051319E+06 -0.1498118E+01
  0.1690476E+01  0.1871045E+06 -0.1494024E+01  0.1256015E+06 -0.6802626E+00  0.1018162E+06 -0.1505498E+01
  0.1721429E+01  0.1853503E+06 -0.1503145E+01  0.1200331E+06 -0.7115300E+00  0.9846076E+05 -0.1514309E+01
  0.1752381E+01  0.1832549E+06 -0.1514453E+01  0.1145226E+06 -0.7440093E+00  0.9480156E+05 -0.1524789E+01
  0.1783333E+01  0.1807068E+06 -0.1528073E+01  0.1090867E+06 -0.7776095E+00  0.9109933E+05 -0.1537384E+01
  0.1814286E+01  0.1777843E+06 -0.1544132E+01  0.1037358E+06 -0.8123985E+00  0.8743615E+05 -0.1551521E+01
  0.1845238E+01  0.1745315E+06 -0.1562781E+01  0.9843849E+05 -0.8485376E+00  0.8379768E+05 -0.1566807E+01
  0.1876190E+01  0.1710345E+06 -0.1584127E+01  0.9321375E+05 -0.8864971E+00  0.8013717E+05 -0.1583035E+01
  0.1907143E+01  0.1672863E+06 -0.1608421E+01  0.8813995E+05 -0.9267527E+00  0.7647874E+05 -0.1601048E+01
  0.1938095E+01  0.1633737E+06 -0.1636307E+01  0.8334421E+05 -0.9684926E+00  0.7348649E+05 -0.1617519E+01
  0.1969048E+01  0.1593482E+06 -0.1667671E+01  0.7868919E+05 -0.1012492E+01  0.7078120E+05 -0.1632151E+01
  0.2000000E+01  0.1552562E+06 -0.1702590E+01  0.7419007E+05 -0.1059420E+01  0.6820924E+05 -0.1645252E+01
