VARIABLES="w (rad/s)"
"abs(F   1   1)" "angle(F   1   1)"
"abs(F   1   2)" "angle(F   1   2)"
"abs(F   1   3)" "angle(F   1   3)"
Zone t="Diffraction force - beta =   0.000 deg",I=    64,F=POINT
  0.5000000E-01  0.3237281E+03 -0.1570798E+01  0.1080531E+06 -0.7424251E-05  0.2779691E+01 -0.1570292E+01
  0.8095238E-01  0.5276830E+03 -0.1570784E+01  0.1079506E+06 -0.1998897E-04  0.4525876E+01 -0.1570486E+01
  0.1119048E+00  0.7369329E+03 -0.1570789E+01  0.1077994E+06 -0.3973948E-04  0.6294551E+01 -0.1570595E+01
  0.1428571E+00  0.9527781E+03 -0.1570797E+01  0.1075998E+06 -0.6824946E-04  0.8172660E+01 -0.1570630E+01
  0.1738095E+00  0.1180302E+04 -0.1570796E+01  0.1073512E+06 -0.1079056E-03  0.1012047E+02 -0.1570662E+01
  0.2047619E+00  0.1418625E+04 -0.1570788E+01  0.1070535E+06 -0.1621157E-03  0.1225192E+02 -0.1570683E+01
  0.2357143E+00  0.1673170E+04 -0.1570792E+01  0.1067062E+06 -0.2360104E-03  0.1444152E+02 -0.1570720E+01
  0.2666667E+00  0.1949338E+04 -0.1570797E+01  0.1063085E+06 -0.3359485E-03  0.1693634E+02 -0.1570720E+01
  0.2976190E+00  0.2246395E+04 -0.1570791E+01  0.1058601E+06 -0.4724026E-03  0.1962609E+02 -0.1570725E+01
  0.3285715E+00  0.2573497E+04 -0.1570783E+01  0.1053601E+06 -0.6567169E-03  0.2253907E+02 -0.1570724E+01
  0.3595238E+00  0.2936709E+04 -0.1570782E+01  0.1048095E+06 -0.9061404E-03  0.2586659E+02 -0.1570731E+01
  0.3904762E+00  0.3337530E+04 -0.1570779E+01  0.1042070E+06 -0.1240912E-02  0.2965069E+02 -0.1570735E+01
  0.4214286E+00  0.3779037E+04 -0.1570764E+01  0.1035551E+06 -0.1675114E-02  0.3371952E+02 -0.1570725E+01
  0.4523810E+00  0.4270542E+04 -0.1570748E+01  0.1028532E+06 -0.2242874E-02  0.3835282E+02 -0.1570716E+01
  0.4833333E+00  0.4812569E+04 -0.1570728E+01  0.1021053E+06 -0.2934369E-02  0.4365157E+02 -0.1570700E+01
  0.5142857E+00  0.5395771E+04 -0.1570697E+01  0.1013126E+06 -0.3789173E-02  0.4940693E+02 -0.1570669E+01
  0.5452381E+00  0.6022173E+04 -0.1570658E+01  0.1004739E+06 -0.4800864E-02  0.5556417E+02 -0.1570637E+01
  0.5761905E+00  0.6696443E+04 -0.1570604E+01  0.9959430E+05 -0.5976788E-02  0.6240047E+02 -0.1570584E+01
  0.6071429E+00  0.7413085E+04 -0.1570535E+01  0.9867416E+05 -0.7352387E-02  0.7019803E+02 -0.1570516E+01
  0.6380953E+00  0.8160935E+04 -0.1570447E+01  0.9771180E+05 -0.8903718E-02  0.7784210E+02 -0.1570431E+01
  0.6690477E+00  0.8933455E+04 -0.1570335E+01  0.9671202E+05 -0.1066880E-01  0.8566879E+02 -0.1570320E+01
  0.7000000E+00  0.9748419E+04 -0.1570198E+01  0.9567561E+05 -0.1267173E-01  0.9473775E+02 -0.1570182E+01
  0.7309524E+00  0.1060300E+05 -0.1570025E+01  0.9460245E+05 -0.1490598E-01  0.1042532E+03 -0.1570014E+01
  0.7619048E+00  0.1148888E+05 -0.1569818E+01  0.9349795E+05 -0.1739849E-01  0.1144383E+03 -0.1569806E+01
  0.7928572E+00  0.1239955E+05 -0.1569567E+01  0.9236323E+05 -0.2016601E-01  0.1251621E+03 -0.1569559E+01
  0.8238096E+00  0.1333122E+05 -0.1569267E+01  0.9119752E+05 -0.2322029E-01  0.1356809E+03 -0.1569258E+01
  0.8547620E+00  0.1429136E+05 -0.1568910E+01  0.9000473E+05 -0.2657383E-01  0.1468920E+03 -0.1568903E+01
  0.8857143E+00  0.1528829E+05 -0.1568491E+01  0.8878855E+05 -0.3024087E-01  0.1592430E+03 -0.1568485E+01
  0.9166667E+00  0.1631875E+05 -0.1567998E+01  0.8755023E+05 -0.3423310E-01  0.1726017E+03 -0.1567992E+01
  0.9476191E+00  0.1737911E+05 -0.1567426E+01  0.8629223E+05 -0.3856029E-01  0.1867516E+03 -0.1567421E+01
  0.9785714E+00  0.1846214E+05 -0.1566766E+01  0.8501715E+05 -0.4323347E-01  0.2012599E+03 -0.1566761E+01
  0.1009524E+01  0.1956016E+05 -0.1566004E+01  0.8372729E+05 -0.4826271E-01  0.2155964E+03 -0.1565999E+01
  0.1040476E+01  0.2066763E+05 -0.1565135E+01  0.8242445E+05 -0.5365817E-01  0.2304435E+03 -0.1565129E+01
  0.1071429E+01  0.2180495E+05 -0.1564149E+01  0.8110803E+05 -0.5942784E-01  0.2467790E+03 -0.1564144E+01
  0.1102381E+01  0.2297378E+05 -0.1563035E+01  0.7978197E+05 -0.6557968E-01  0.2638550E+03 -0.1563033E+01
  0.1133333E+01  0.2416889E+05 -0.1561782E+01  0.7845062E+05 -0.7212134E-01  0.2816821E+03 -0.1561785E+01
  0.1164286E+01  0.2538513E+05 -0.1560382E+01  0.7711561E+05 -0.7905957E-01  0.3002801E+03 -0.1560385E+01
  0.1195238E+01  0.2661515E+05 -0.1558820E+01  0.7577981E+05 -0.8639985E-01  0.3201897E+03 -0.1558825E+01
  0.1226190E+01  0.2786220E+05 -0.1557088E+01  0.7444027E+05 -0.9414364E-01  0.3411512E+03 -0.1557092E+01
  0.1257143E+01  0.2910531E+05 -0.1555174E+01  0.7310229E+05 -0.1023830E+00  0.3617875E+03 -0.1555173E+01
  0.1288095E+01  0.3037199E+05 -0.1553068E+01  0.7176248E+05 -0.1108578E+00  0.3826298E+03 -0.1553059E+01
  0.1319048E+01  0.3162838E+05 -0.1550760E+01  0.7042763E+05 -0.1198427E+00  0.4036198E+03 -0.1550750E+01
  0.1350000E+01  0.3290031E+05 -0.1548250E+01  0.6909775E+05 -0.1292508E+00  0.4260708E+03 -0.1548245E+01
  0.1380952E+01  0.3418367E+05 -0.1545533E+01  0.6777378E+05 -0.1390794E+00  0.4502139E+03 -0.1545547E+01
  0.1411905E+01  0.3540863E+05 -0.1542722E+01  0.6647070E+05 -0.1492254E+00  0.4715841E+03 -0.1542756E+01
  0.1442857E+01  0.3670652E+05 -0.1539588E+01  0.6516400E+05 -0.1599047E+00  0.4976646E+03 -0.1539623E+01
  0.1473810E+01  0.3800193E+05 -0.1536231E+01  0.6386839E+05 -0.1710144E+00  0.5238852E+03 -0.1536273E+01
  0.1504762E+01  0.3928894E+05 -0.1532649E+01  0.6258468E+05 -0.1825518E+00  0.5506502E+03 -0.1532698E+01
  0.1535714E+01  0.4056433E+05 -0.1528840E+01  0.6131257E+05 -0.1945170E+00  0.5780718E+03 -0.1528887E+01
  0.1566667E+01  0.4181873E+05 -0.1524805E+01  0.6005551E+05 -0.2069158E+00  0.6059423E+03 -0.1524835E+01
  0.1597619E+01  0.4304445E+05 -0.1520549E+01  0.5881061E+05 -0.2197407E+00  0.6338735E+03 -0.1520543E+01
  0.1628572E+01  0.4424390E+05 -0.1516080E+01  0.5757748E+05 -0.2329975E+00  0.6620909E+03 -0.1516020E+01
  0.1659524E+01  0.4541551E+05 -0.1511420E+01  0.5635613E+05 -0.2466833E+00  0.6911722E+03 -0.1511344E+01
  0.1690476E+01  0.4656339E+05 -0.1506604E+01  0.5514890E+05 -0.2608105E+00  0.7200492E+03 -0.1506522E+01
  0.1721429E+01  0.4768280E+05 -0.1501655E+01  0.5395881E+05 -0.2753763E+00  0.7497424E+03 -0.1501605E+01
  0.1752381E+01  0.4876504E+05 -0.1496589E+01  0.5278552E+05 -0.2903821E+00  0.7791096E+03 -0.1496611E+01
  0.1783333E+01  0.4980947E+05 -0.1491433E+01  0.5162876E+05 -0.3058214E+00  0.8089950E+03 -0.1491474E+01
  0.1814286E+01  0.5080238E+05 -0.1486206E+01  0.5049402E+05 -0.3217109E+00  0.8393524E+03 -0.1486208E+01
  0.1845238E+01  0.5174236E+05 -0.1480943E+01  0.4937520E+05 -0.3380237E+00  0.8699091E+03 -0.1480905E+01
  0.1876190E+01  0.5262766E+05 -0.1475678E+01  0.4827300E+05 -0.3547734E+00  0.9004562E+03 -0.1475606E+01
  0.1907143E+01  0.5345436E+05 -0.1470454E+01  0.4718572E+05 -0.3719465E+00  0.9312175E+03 -0.1470357E+01
  0.1938095E+01  0.5421931E+05 -0.1465343E+01  0.4611525E+05 -0.3895484E+00  0.9611699E+03 -0.1465273E+01
  0.1969048E+01  0.5492070E+05 -0.1460393E+01  0.4506416E+05 -0.4075841E+00  0.9901884E+03 -0.1460324E+01
  0.2000000E+01  0.5554910E+05 -0.1455646E+01  0.4403143E+05 -0.4260565E+00  0.1017841E+04 -0.1455637E+01
