VARIABLES="w (rad/s)"
"abs(F   1   1)" "angle(F   1   1)"
"abs(F   1   2)" "angle(F   1   2)"
"abs(F   1   3)" "angle(F   1   3)"
Zone t="Diffraction force - beta =   0.000 deg",I=    64,F=POINT
  0.5000000E-01  0.3547202E+04 -0.1570797E+01  0.3771091E+06 -0.2562908E-04  0.2220582E+04  0.1570798E+01
  0.8095238E-01  0.5787643E+04 -0.1570796E+01  0.3760889E+06 -0.6888695E-04  0.3634967E+04  0.1570790E+01
  0.1119048E+00  0.8083878E+04 -0.1570791E+01  0.3745887E+06 -0.1365983E-03  0.5097734E+04  0.1570809E+01
  0.1428571E+00  0.1045345E+05 -0.1570789E+01  0.3726123E+06 -0.2338674E-03  0.6620905E+04  0.1570802E+01
  0.1738095E+00  0.1291979E+05 -0.1570783E+01  0.3701596E+06 -0.3681034E-03  0.8218099E+04  0.1570819E+01
  0.2047619E+00  0.1551400E+05 -0.1570778E+01  0.3672251E+06 -0.5504136E-03  0.9926764E+04  0.1570809E+01
  0.2357143E+00  0.1827962E+05 -0.1570766E+01  0.3638194E+06 -0.7968585E-03  0.1177927E+05  0.1570830E+01
  0.2666667E+00  0.2122761E+05 -0.1570753E+01  0.3599371E+06 -0.1126253E-02  0.1377346E+05  0.1570843E+01
  0.2976190E+00  0.2443324E+05 -0.1570731E+01  0.3555857E+06 -0.1572562E-02  0.1599205E+05  0.1570857E+01
  0.3285715E+00  0.2795105E+05 -0.1570699E+01  0.3507710E+06 -0.2167075E-02  0.1846163E+05  0.1570894E+01
  0.3595238E+00  0.3178540E+05 -0.1570651E+01  0.3455148E+06 -0.2963674E-02  0.2119651E+05  0.1570941E+01
  0.3904762E+00  0.3600496E+05 -0.1570579E+01  0.3398095E+06 -0.4017454E-02  0.2424665E+05  0.1571011E+01
  0.4214286E+00  0.4070764E+05 -0.1570475E+01  0.3337410E+06 -0.5364711E-02  0.2773475E+05  0.1571121E+01
  0.4523810E+00  0.4585177E+05 -0.1570320E+01  0.3272406E+06 -0.7109058E-02  0.3161052E+05  0.1571273E+01
  0.4833333E+00  0.5142725E+05 -0.1570108E+01  0.3205007E+06 -0.9186405E-02  0.3586398E+05  0.1571486E+01
  0.5142857E+00  0.5745181E+05 -0.1569815E+01  0.3133972E+06 -0.1172524E-01  0.4059235E+05  0.1571781E+01
  0.5452381E+00  0.6396550E+05 -0.1569425E+01  0.3060752E+06 -0.1467176E-01  0.4579104E+05  0.1572170E+01
  0.5761905E+00  0.7078667E+05 -0.1568918E+01  0.2985314E+06 -0.1802460E-01  0.5132326E+05  0.1572677E+01
  0.6071429E+00  0.7789367E+05 -0.1568267E+01  0.2906902E+06 -0.2189196E-01  0.5723814E+05  0.1573333E+01
  0.6380953E+00  0.8528529E+05 -0.1567459E+01  0.2828038E+06 -0.2614766E-01  0.6349964E+05  0.1574142E+01
  0.6690477E+00  0.9302246E+05 -0.1566465E+01  0.2747128E+06 -0.3089699E-01  0.7023634E+05  0.1575136E+01
  0.7000000E+00  0.1009564E+06 -0.1565248E+01  0.2663988E+06 -0.3618412E-01  0.7731764E+05  0.1576356E+01
  0.7309524E+00  0.1090834E+06 -0.1563791E+01  0.2581554E+06 -0.4195209E-01  0.8468477E+05  0.1577824E+01
  0.7619048E+00  0.1172652E+06 -0.1562053E+01  0.2497942E+06 -0.4825168E-01  0.9223341E+05  0.1579580E+01
  0.7928572E+00  0.1255230E+06 -0.1560007E+01  0.2412923E+06 -0.5511168E-01  0.1001473E+06  0.1581650E+01
  0.8238096E+00  0.1340431E+06 -0.1557662E+01  0.2328172E+06 -0.6250758E-01  0.1084102E+06  0.1583977E+01
  0.8547620E+00  0.1426280E+06 -0.1554965E+01  0.2244445E+06 -0.7047043E-01  0.1169686E+06  0.1586682E+01
  0.8857143E+00  0.1511367E+06 -0.1551888E+01  0.2160572E+06 -0.7898124E-01  0.1255763E+06  0.1589793E+01
  0.9166667E+00  0.1595949E+06 -0.1548408E+01  0.2075871E+06 -0.8805572E-01  0.1344684E+06  0.1593331E+01
  0.9476191E+00  0.1679254E+06 -0.1544510E+01  0.1992534E+06 -0.9762812E-01  0.1433055E+06  0.1597318E+01
  0.9785714E+00  0.1760800E+06 -0.1540190E+01  0.1911502E+06 -0.1077570E+00  0.1521810E+06  0.1601753E+01
  0.1009524E+01  0.1839556E+06 -0.1535489E+01  0.1831055E+06 -0.1184050E+00  0.1608738E+06  0.1606542E+01
  0.1040476E+01  0.1917393E+06 -0.1530551E+01  0.1750980E+06 -0.1296160E+00  0.1698612E+06  0.1611448E+01
  0.1071429E+01  0.1991185E+06 -0.1525238E+01  0.1671313E+06 -0.1412997E+00  0.1785654E+06  0.1616853E+01
  0.1102381E+01  0.2061142E+06 -0.1519613E+01  0.1595167E+06 -0.1532744E+00  0.1868735E+06  0.1622607E+01
  0.1133333E+01  0.2125859E+06 -0.1513717E+01  0.1520926E+06 -0.1656975E+00  0.1949224E+06  0.1628745E+01
  0.1164286E+01  0.2184310E+06 -0.1507707E+01  0.1447986E+06 -0.1784427E+00  0.2022950E+06  0.1634937E+01
  0.1195238E+01  0.2237628E+06 -0.1501870E+01  0.1376054E+06 -0.1916477E+00  0.2094871E+06  0.1640825E+01
  0.1226190E+01  0.2283719E+06 -0.1496056E+01  0.1305006E+06 -0.2052129E+00  0.2160318E+06  0.1646888E+01
  0.1257143E+01  0.2321964E+06 -0.1490391E+01  0.1236347E+06 -0.2189019E+00  0.2216712E+06  0.1652790E+01
  0.1288095E+01  0.2353641E+06 -0.1485101E+01  0.1171576E+06 -0.2322118E+00  0.2266297E+06  0.1658417E+01
  0.1319048E+01  0.2376355E+06 -0.1480490E+01  0.1108177E+06 -0.2456751E+00  0.2307089E+06  0.1663188E+01
  0.1350000E+01  0.2389968E+06 -0.1476640E+01  0.1046360E+06 -0.2590419E+00  0.2336736E+06  0.1667203E+01
  0.1380952E+01  0.2395371E+06 -0.1473556E+01  0.9855475E+05 -0.2727419E+00  0.2360586E+06  0.1670767E+01
  0.1411905E+01  0.2390541E+06 -0.1471419E+01  0.9261409E+05 -0.2865263E+00  0.2373119E+06  0.1673374E+01
  0.1442857E+01  0.2378376E+06 -0.1470730E+01  0.8679726E+05 -0.2998410E+00  0.2375935E+06  0.1674383E+01
  0.1473810E+01  0.2358410E+06 -0.1471542E+01  0.8141468E+05 -0.3109126E+00  0.2366050E+06  0.1673565E+01
  0.1504762E+01  0.2329841E+06 -0.1473839E+01  0.7613923E+05 -0.3218909E+00  0.2347699E+06  0.1671592E+01
  0.1535714E+01  0.2293055E+06 -0.1477914E+01  0.7098332E+05 -0.3320972E+00  0.2318078E+06  0.1667667E+01
  0.1566667E+01  0.2249310E+06 -0.1483980E+01  0.6594577E+05 -0.3418424E+00  0.2279584E+06  0.1661578E+01
  0.1597619E+01  0.2199176E+06 -0.1491970E+01  0.6102445E+05 -0.3516903E+00  0.2234749E+06  0.1653890E+01
  0.1628572E+01  0.2142431E+06 -0.1502174E+01  0.5620274E+05 -0.3612319E+00  0.2180719E+06  0.1643849E+01
  0.1659524E+01  0.2080026E+06 -0.1514759E+01  0.5146512E+05 -0.3708622E+00  0.2119042E+06  0.1631204E+01
  0.1690476E+01  0.2012927E+06 -0.1529912E+01  0.4701248E+05 -0.3761183E+00  0.2046624E+06  0.1614866E+01
  0.1721429E+01  0.1941309E+06 -0.1547709E+01  0.4270870E+05 -0.3811736E+00  0.1967944E+06  0.1595672E+01
  0.1752381E+01  0.1865545E+06 -0.1568353E+01  0.3850409E+05 -0.3871262E+00  0.1883793E+06  0.1573283E+01
  0.1783333E+01  0.1786010E+06 -0.1592179E+01  0.3441405E+05 -0.3941157E+00  0.1793457E+06  0.1546750E+01
  0.1814286E+01  0.1703641E+06 -0.1619341E+01  0.3053392E+05 -0.4035894E+00  0.1699245E+06  0.1516241E+01
  0.1845238E+01  0.1618907E+06 -0.1650171E+01  0.2684480E+05 -0.4167295E+00  0.1602166E+06  0.1481314E+01
  0.1876190E+01  0.1531763E+06 -0.1685387E+01  0.2334344E+05 -0.4347633E+00  0.1501565E+06  0.1440406E+01
  0.1907143E+01  0.1442689E+06 -0.1725622E+01  0.2007909E+05 -0.4593704E+00  0.1398638E+06  0.1392498E+01
  0.1938095E+01  0.1352527E+06 -0.1771764E+01  0.1707791E+05 -0.4891260E+00  0.1292999E+06  0.1334241E+01
  0.1969048E+01  0.1261842E+06 -0.1825421E+01  0.1437277E+05 -0.5258778E+00  0.1185700E+06  0.1261679E+01
  0.2000000E+01  0.1172201E+06 -0.1887280E+01  0.1196684E+05 -0.5781110E+00  0.1082729E+06  0.1176419E+01
