VARIABLES="w (rad/s)"
"A   1   1" "B   1   1"
"A   1   2" "B   1   2"
"A   1   3" "B   1   3"
Zone t="Motion of body    1 in DoF   1",I=    64,F=POINT
  0.5000000E-01  0.1314414E+06  0.1316592E-01  0.7247925E-02  0.2001468E-04 -0.5639159E+06 -0.5789222E-01
  0.8095238E-01  0.1322192E+06  0.5687881E-01  0.2238330E-02  0.1131196E-04 -0.5661198E+06 -0.2485625E+00
  0.1119048E+00  0.1324332E+06  0.1585881E+00  0.4329275E-02  0.5511148E-04 -0.5666356E+06 -0.6921236E+00
  0.1428571E+00  0.1326598E+06  0.3561005E+00  0.3471374E-03  0.1078018E-04 -0.5670979E+06 -0.1552818E+01
  0.1738095E+00  0.1328337E+06  0.7056639E+00  0.1799701E-02  0.4087575E-04 -0.5676464E+06 -0.3072834E+01
  0.2047619E+00  0.1329275E+06  0.1295275E+01  0.3539684E-03 -0.2737110E-04 -0.5679085E+06 -0.5631428E+01
  0.2357143E+00  0.1331122E+06  0.2265733E+01  0.2848307E-02  0.1515681E-03 -0.5684984E+06 -0.9832945E+01
  0.2666667E+00  0.1332712E+06  0.3834900E+01  0.7038116E-02  0.2029203E-03 -0.5689744E+06 -0.1660451E+02
  0.2976190E+00  0.1335351E+06  0.6381742E+01  0.7818604E-02  0.2170354E-03 -0.5696474E+06 -0.2756002E+02
  0.3285715E+00  0.1337156E+06  0.1045587E+02  0.5897853E-02  0.3934875E-03 -0.5702162E+06 -0.4503062E+02
  0.3595238E+00  0.1340853E+06  0.1700421E+02  0.3649983E-02  0.1045093E-03 -0.5714424E+06 -0.7301064E+02
  0.3904762E+00  0.1342710E+06  0.2740116E+02  0.9573959E-03  0.4105270E-04 -0.5720064E+06 -0.1172698E+03
  0.4214286E+00  0.1347315E+06  0.4357416E+02  0.5612130E-02  0.3288090E-03 -0.5732337E+06 -0.1857298E+03
  0.4523810E+00  0.1350627E+06  0.6863053E+02 -0.8769787E-03 -0.1533031E-03 -0.5744165E+06 -0.2914767E+03
  0.4833333E+00  0.1355301E+06  0.1053481E+03  0.2146754E-02  0.1969039E-03 -0.5758455E+06 -0.4454391E+03
  0.5142857E+00  0.1360067E+06  0.1590277E+03  0.7714166E-02  0.4901886E-03 -0.5772485E+06 -0.6693511E+03
  0.5452381E+00  0.1365157E+06  0.2341359E+03  0.1147408E-02  0.4668236E-03 -0.5788519E+06 -0.9807476E+03
  0.5761905E+00  0.1372245E+06  0.3365497E+03  0.5269956E-02  0.1590252E-02 -0.5810605E+06 -0.1402262E+04
  0.6071429E+00  0.1377974E+06  0.4744306E+03  0.4574046E-02  0.8299351E-03 -0.5830430E+06 -0.1966685E+04
  0.6380953E+00  0.1384738E+06  0.6538186E+03  0.4782606E-04  0.5145073E-03 -0.5850070E+06 -0.2694306E+04
  0.6690477E+00  0.1393339E+06  0.8855252E+03 -0.2736808E-03  0.4718304E-03 -0.5875500E+06 -0.3626191E+04
  0.7000000E+00  0.1400191E+06  0.1179958E+04  0.3553118E-02  0.2574921E-03 -0.5896542E+06 -0.4801736E+04
  0.7309524E+00  0.1408306E+06  0.1547743E+04  0.3590537E-02  0.4110336E-03 -0.5921516E+06 -0.6256590E+04
  0.7619048E+00  0.1418407E+06  0.2003600E+04  0.3785133E-02  0.1205921E-02 -0.5951354E+06 -0.8041246E+04
  0.7928572E+00  0.1426676E+06  0.2559059E+04  0.3002269E-02 -0.3013611E-03 -0.5974856E+06 -0.1019490E+05
  0.8238096E+00  0.1436210E+06  0.3231664E+04  0.1074289E-02  0.8201599E-04 -0.6002048E+06 -0.1277486E+05
  0.8547620E+00  0.1445290E+06  0.4034827E+04  0.2499211E-02  0.1503944E-02 -0.6025422E+06 -0.1581837E+05
  0.8857143E+00  0.1456093E+06  0.4989622E+04  0.2067320E-02 -0.8544922E-03 -0.6054114E+06 -0.1939394E+05
  0.9166667E+00  0.1465052E+06  0.6106389E+04  0.4960494E-02  0.2237320E-02 -0.6077478E+06 -0.2352919E+05
  0.9476191E+00  0.1474946E+06  0.7408327E+04  0.3252652E-02  0.7553101E-03 -0.6104174E+06 -0.2829177E+05
  0.9785714E+00  0.1483715E+06  0.8904991E+04  0.2370124E-02  0.2395630E-02 -0.6122820E+06 -0.3367933E+05
  0.1009524E+01  0.1493840E+06  0.1062334E+05  0.1118498E-02  0.5989075E-03 -0.6142799E+06 -0.3976531E+05
  0.1040476E+01  0.1502571E+06  0.1257096E+05  0.2287771E-02  0.1548767E-02 -0.6160109E+06 -0.4657446E+05
  0.1071429E+01  0.1509160E+06  0.1475434E+05  0.1053874E-02 -0.1029968E-03 -0.6168390E+06 -0.5407897E+05
  0.1102381E+01  0.1516274E+06  0.1720435E+05  0.4567750E-02  0.1846313E-02 -0.6178278E+06 -0.6236768E+05
  0.1133333E+01  0.1521922E+06  0.1991804E+05  0.2423455E-03 -0.4158020E-03 -0.6180652E+06 -0.7136996E+05
  0.1164286E+01  0.1527810E+06  0.2291948E+05  0.7863424E-04 -0.6408691E-03 -0.6181909E+06 -0.8113855E+05
  0.1195238E+01  0.1531661E+06  0.2619703E+05  0.1966013E-02  0.1483917E-02 -0.6179576E+06 -0.9165218E+05
  0.1226190E+01  0.1531761E+06  0.2969846E+05 -0.9706368E-03 -0.1678467E-02 -0.6160202E+06 -0.1025676E+06
  0.1257143E+01  0.1530611E+06  0.3346198E+05  0.9467385E-03  0.9384155E-03 -0.6138942E+06 -0.1140866E+06
  0.1288095E+01  0.1528917E+06  0.3750682E+05  0.1279369E-02  0.8926392E-03 -0.6111344E+06 -0.1261045E+06
  0.1319048E+01  0.1524886E+06  0.4177687E+05  0.2614376E-02  0.1464844E-02 -0.6076905E+06 -0.1384810E+06
  0.1350000E+01  0.1519713E+06  0.4628165E+05  0.3029152E-02  0.2876282E-02 -0.6038274E+06 -0.1511821E+06
  0.1380952E+01  0.1511574E+06  0.5097809E+05  0.1922607E-02  0.1312256E-02 -0.5994222E+06 -0.1641635E+06
  0.1411905E+01  0.1496585E+06  0.5564377E+05  0.5101016E-02  0.1617432E-02 -0.5931269E+06 -0.1765765E+06
  0.1442857E+01  0.1483082E+06  0.6055868E+05  0.3193770E-02 -0.2098083E-02 -0.5871800E+06 -0.1892692E+06
  0.1473810E+01  0.1467183E+06  0.6552182E+05  0.3126696E-02 -0.3433228E-03 -0.5805626E+06 -0.2015818E+06
  0.1504762E+01  0.1448374E+06  0.7044002E+05  0.2575645E-02  0.1335144E-02 -0.5730827E+06 -0.2131528E+06
  0.1535714E+01  0.1428343E+06  0.7531923E+05  0.4967977E-03  0.5035400E-03 -0.5653372E+06 -0.2240789E+06
  0.1566667E+01  0.1406777E+06  0.8012288E+05  0.6233377E-03  0.7858276E-03 -0.5574176E+06 -0.2343057E+06
  0.1597619E+01  0.1382602E+06  0.8474034E+05  0.6494650E-03  0.7324219E-03 -0.5491407E+06 -0.2436541E+06
  0.1628572E+01  0.1354850E+06  0.8893775E+05  0.4422372E-02 -0.4806519E-03 -0.5398157E+06 -0.2509749E+06
  0.1659524E+01  0.1327165E+06  0.9302326E+05  0.1802157E-02  0.4882812E-03 -0.5310669E+06 -0.2578518E+06
  0.1690476E+01  0.1299108E+06  0.9685300E+05 -0.3791057E-03  0.1235962E-02 -0.5225018E+06 -0.2636049E+06
  0.1721429E+01  0.1268457E+06  0.1001116E+06  0.1170052E-02  0.3662109E-03 -0.5133475E+06 -0.2671562E+06
  0.1752381E+01  0.1238766E+06  0.1031113E+06 -0.1062310E-02  0.1831055E-03 -0.5048256E+06 -0.2698453E+06
  0.1783333E+01  0.1209629E+06  0.1057199E+06 -0.1283450E-02 -0.1220703E-03 -0.4966528E+06 -0.2711209E+06
  0.1814286E+01  0.1180435E+06  0.1079468E+06  0.1917561E-02  0.9841919E-03 -0.4889572E+06 -0.2714330E+06
  0.1845238E+01  0.1151312E+06  0.1097173E+06 -0.2844632E-02  0.9536743E-04 -0.4816450E+06 -0.2706215E+06
  0.1876190E+01  0.1121422E+06  0.1107044E+06  0.2456123E-02  0.1335144E-03 -0.4742086E+06 -0.2670145E+06
  0.1907143E+01  0.1093264E+06  0.1114873E+06  0.6240674E-03  0.9803772E-03 -0.4676690E+06 -0.2633969E+06
  0.1938095E+01  0.1066855E+06  0.1119850E+06  0.2298941E-02 -0.1869202E-03 -0.4618968E+06 -0.2591962E+06
  0.1969048E+01  0.1041290E+06  0.1119225E+06  0.4107142E-02  0.1983643E-03 -0.4564690E+06 -0.2534699E+06
  0.2000000E+01  0.1017189E+06  0.1114380E+06  0.1174927E-02  0.5989075E-03 -0.4515715E+06 -0.2466226E+06
Zone t="Motion of body    1 in DoF   2",I=    64,F=POINT
  0.5000000E-01 -0.3910065E-02  0.1025200E-04  0.2536545E+05  0.3155182E+02  0.2395630E-01  0.3528595E-04
  0.8095238E-01 -0.4476659E-03 -0.7390976E-05  0.2519172E+05  0.5207261E+02 -0.7351146E-02  0.1509190E-03
  0.1119048E+00 -0.7840420E-03 -0.4529953E-05  0.2509222E+05  0.7405189E+02  0.1827159E-01  0.5722046E-05
  0.1428571E+00 -0.2323151E-02 -0.1049042E-04  0.2502516E+05  0.9818327E+02  0.1409912E-01  0.2536774E-03
  0.1738095E+00 -0.4170039E-02 -0.9536743E-06  0.2498738E+05  0.1251341E+03  0.1703132E-01 -0.2765656E-03
  0.2047619E+00  0.1490393E-03 -0.8869171E-04  0.2496762E+05  0.1561380E+03 -0.1162507E-01 -0.5722046E-04
  0.2357143E+00 -0.3155795E-02  0.6389618E-04  0.2493084E+05  0.1924212E+03  0.4233620E-01 -0.2279282E-03
  0.2666667E+00 -0.4591941E-02 -0.9536743E-04  0.2494950E+05  0.2346717E+03  0.1258850E-01 -0.1010895E-03
  0.2976190E+00 -0.1999512E-02  0.1525879E-03  0.2490480E+05  0.2859339E+03  0.1866211E-01  0.1123428E-02
  0.3285715E+00 -0.5108376E-03 -0.1296997E-03  0.2492568E+05  0.3461752E+03  0.1783288E-01  0.3662109E-03
  0.3595238E+00 -0.4859570E-02  0.1068115E-03  0.2486955E+05  0.4183723E+03  0.2054176E-01  0.4405975E-03
  0.3904762E+00 -0.2246950E-02  0.4577637E-03  0.2486076E+05  0.5035367E+03  0.3313762E-01 -0.2937317E-03
  0.4214286E+00  0.6698349E-03 -0.1296997E-03  0.2478145E+05  0.5979275E+03  0.1086219E-01 -0.1171112E-02
  0.4523810E+00 -0.5059493E-02  0.1525879E-04  0.2470779E+05  0.7081080E+03  0.3521407E-01 -0.2975464E-03
  0.4833333E+00 -0.1831055E-02 -0.0000000E+00  0.2460931E+05  0.8163943E+03  0.4293507E-02  0.7019043E-03
  0.5142857E+00 -0.1869202E-02 -0.2288818E-04  0.2445549E+05  0.9323976E+03  0.1495361E-01 -0.1747131E-02
  0.5452381E+00 -0.2462729E-02 -0.2899170E-03  0.2435655E+05  0.1043950E+04  0.1611968E-01  0.1716614E-02
  0.5761905E+00 -0.2568773E-02 -0.1449585E-03  0.2415039E+05  0.1146151E+04  0.2775334E-01  0.2059937E-02
  0.6071429E+00 -0.1244040E-02 -0.3356934E-03  0.2397397E+05  0.1246798E+04  0.1276712E-01  0.2449036E-02
  0.6380953E+00 -0.2199998E-02 -0.4653931E-03  0.2384220E+05  0.1329626E+04  0.3826084E-03 -0.5470276E-02
  0.6690477E+00 -0.3546447E-02 -0.7629395E-05  0.2363015E+05  0.1400525E+04  0.2152955E-01  0.6492615E-02
  0.7000000E+00 -0.1667568E-02 -0.1098633E-02  0.2345604E+05  0.1463212E+04  0.7498604E-02  0.6866455E-04
  0.7309524E+00 -0.1847456E-02  0.1556396E-02  0.2335270E+05  0.1511024E+04  0.8851091E-02 -0.3349304E-02
  0.7619048E+00 -0.2583503E-02 -0.1281738E-02  0.2314440E+05  0.1538869E+04  0.2194977E-01  0.2059937E-02
  0.7928572E+00 -0.1308682E-02 -0.3051758E-04  0.2298354E+05  0.1556282E+04  0.9853602E-02  0.3135681E-02
  0.8238096E+00 -0.1472517E-02 -0.1525879E-04  0.2287202E+05  0.1563736E+04  0.1422507E-01 -0.1029968E-02
  0.8547620E+00 -0.3998738E-02 -0.1312256E-02  0.2276654E+05  0.1555072E+04  0.1899400E-01  0.5187988E-03
  0.8857143E+00 -0.3772859E-02  0.1174927E-02  0.2261675E+05  0.1525883E+04  0.1984627E-01 -0.5958557E-02
  0.9166667E+00 -0.2646706E-02  0.4425049E-03  0.2251538E+05  0.1489698E+04  0.1837713E-01 -0.5798340E-03
  0.9476191E+00 -0.4073867E-02 -0.1510620E-02  0.2245263E+05  0.1450613E+04  0.2331604E-01  0.4600525E-02
  0.9785714E+00 -0.3420698E-02 -0.5493164E-03  0.2242652E+05  0.1408516E+04  0.2070740E-01  0.1831055E-02
  0.1009524E+01 -0.2577080E-02  0.1220703E-03  0.2232099E+05  0.1326746E+04  0.2140261E-01  0.1983643E-03
  0.1040476E+01 -0.3741000E-02  0.2288818E-03  0.2225580E+05  0.1249708E+04  0.3155950E-01  0.2395630E-02
  0.1071429E+01 -0.9221395E-03 -0.4425049E-03  0.2222328E+05  0.1176917E+04  0.1025391E-02  0.8010864E-03
  0.1102381E+01 -0.5207927E-03 -0.1785278E-02  0.2222854E+05  0.1115735E+04  0.1893540E-01  0.7324219E-03
  0.1133333E+01 -0.2497505E-02 -0.5340576E-03  0.2224289E+05  0.1052186E+04  0.2164953E-01 -0.1976013E-02
  0.1164286E+01 -0.3178134E-02 -0.7629395E-04  0.2220323E+05  0.9395199E+03  0.1750923E-01 -0.6301880E-02
  0.1195238E+01 -0.2872421E-02  0.2746582E-03  0.2218980E+05  0.8442185E+03  0.2246872E-01  0.2670288E-04
  0.1226190E+01 -0.1602173E-02  0.1861572E-02  0.2219769E+05  0.7620010E+03  0.4181204E-02 -0.1480103E-02
  0.1257143E+01 -0.3362135E-02 -0.7629395E-04  0.2222529E+05  0.7015153E+03  0.2077970E-01 -0.4501343E-02
  0.1288095E+01 -0.1362291E-02  0.1464844E-02  0.2227743E+05  0.6696957E+03  0.1146694E-01 -0.5214691E-02
  0.1319048E+01 -0.3146505E-02 -0.3051758E-03  0.2229473E+05  0.5813611E+03  0.2221063E-01 -0.1502991E-02
  0.1350000E+01 -0.2430103E-02 -0.3051758E-04  0.2230917E+05  0.4837905E+03  0.1989294E-01  0.1647949E-02
  0.1380952E+01 -0.2988881E-02  0.4577637E-03  0.2233094E+05  0.4052606E+03  0.2086140E-01 -0.2841949E-02
  0.1411905E+01 -0.2420821E-02 -0.3967285E-03  0.2235875E+05  0.3437301E+03  0.2109572E-01  0.1813889E-02
  0.1442857E+01 -0.2368889E-02 -0.4882812E-03  0.2239492E+05  0.3079081E+03  0.2250445E-01  0.1808167E-02
  0.1473810E+01 -0.2785037E-02 -0.1052856E-02  0.2243834E+05  0.3001014E+03  0.2385400E-01  0.3675461E-02
  0.1504762E+01 -0.2190312E-02 -0.6408691E-03  0.2248276E+05  0.3092029E+03  0.1622454E-01  0.1159668E-02
  0.1535714E+01 -0.1435746E-02  0.2288818E-03  0.2250828E+05  0.2140932E+03  0.1621548E-01 -0.1441956E-02
  0.1566667E+01 -0.3764376E-02  0.7629395E-04  0.2253685E+05  0.1487138E+03  0.2758270E-01 -0.3118515E-03
  0.1597619E+01 -0.1136564E-02  0.9078979E-03  0.2256553E+05  0.1076477E+03  0.8099210E-02 -0.3795624E-03
  0.1628572E+01 -0.1901995E-02  0.2136230E-03  0.2259383E+05  0.7796519E+02  0.1439145E-01 -0.1123428E-02
  0.1659524E+01 -0.2271086E-02  0.3890991E-03  0.2262019E+05  0.6849728E+02  0.6767284E-02 -0.1029968E-03
  0.1690476E+01 -0.2473213E-02  0.2136230E-03  0.2264478E+05  0.7733793E+02  0.2816213E-01 -0.7390976E-03
  0.1721429E+01 -0.1781669E-02 -0.4577637E-04  0.2266612E+05  0.1072053E+03  0.2056454E-01  0.1878738E-03
  0.1752381E+01 -0.1554282E-02  0.2670288E-03  0.2269233E+05  0.8179219E+02  0.1462854E-01  0.3833771E-03
  0.1783333E+01  0.4877108E-03 -0.4196167E-03  0.2272038E+05  0.4491972E+02 -0.3422532E-02 -0.1251698E-02
  0.1814286E+01 -0.8578564E-03  0.1983643E-03  0.2274355E+05  0.1458541E+02  0.9823296E-02 -0.2417564E-03
  0.1845238E+01 -0.1046064E-02 -0.2365112E-03  0.2276283E+05  0.1678519E+01  0.1124622E-01  0.6622225E-03
  0.1876190E+01 -0.2818035E-02  0.1296997E-03  0.2278026E+05 -0.7661229E+01  0.2134062E-01 -0.2932549E-03
  0.1907143E+01 -0.3044329E-02  0.5340576E-04  0.2279394E+05 -0.5254713E+01  0.1625776E-01  0.3477931E-04
  0.1938095E+01 -0.1444711E-02 -0.4959106E-04  0.2280464E+05  0.2031148E+01  0.1146321E-01  0.5399883E-03
  0.1969048E+01 -0.1623484E-02 -0.1049042E-03  0.2281232E+05  0.1969253E+02  0.1388679E-01 -0.1296997E-03
  0.2000000E+01 -0.1892090E-02 -0.1296997E-03  0.2281605E+05  0.3997289E+02  0.6835938E-02  0.3473759E-03
Zone t="Motion of body    1 in DoF   3",I=    64,F=POINT
  0.5000000E-01 -0.5640478E+06 -0.5780670E-01 -0.4135132E-01 -0.8838330E-04  0.3015006E+07  0.2540820E+00
  0.8095238E-01 -0.5663319E+06 -0.2487372E+00 -0.6879918E-02 -0.1984462E-04  0.3020450E+07  0.1086371E+01
  0.1119048E+00 -0.5668800E+06 -0.6928918E+00 -0.2086234E-01 -0.1602147E-03  0.3021820E+07  0.3024107E+01
  0.1428571E+00 -0.5673741E+06 -0.1554875E+01 -0.4272461E-01 -0.2573933E-03  0.3023024E+07  0.6781472E+01
  0.1738095E+00 -0.5679158E+06 -0.3077038E+01  0.2765394E-01 -0.9373203E-04  0.3024674E+07  0.1339900E+02
  0.2047619E+00 -0.5681810E+06 -0.5638905E+01 -0.1237027E-01  0.1940839E-03  0.3025736E+07  0.2451619E+02
  0.2357143E+00 -0.5687734E+06 -0.9845912E+01 -0.1760772E-01 -0.3010556E-03  0.3027544E+07  0.4272859E+02
  0.2666667E+00 -0.5692438E+06 -0.1662625E+02 -0.4463195E-01 -0.7153600E-03  0.3029194E+07  0.7198270E+02
  0.2976190E+00 -0.5699378E+06 -0.2759912E+02 -0.1661133E-01 -0.9848177E-03  0.3031190E+07  0.1191761E+03
  0.3285715E+00 -0.5704954E+06 -0.4508855E+02 -0.2786387E-01 -0.1790702E-02  0.3033277E+07  0.1941812E+03
  0.3595238E+00 -0.5717253E+06 -0.7310513E+02 -0.4507304E-01 -0.2250999E-02  0.3037084E+07  0.3138839E+03
  0.3904762E+00 -0.5722761E+06 -0.1174078E+03 -0.3923369E-01 -0.3439069E-02  0.3039202E+07  0.5024705E+03
  0.4214286E+00 -0.5735284E+06 -0.1859850E+03 -0.3591763E-01 -0.2097487E-02  0.3042882E+07  0.7927120E+03
  0.4523810E+00 -0.5746974E+06 -0.2918152E+03 -0.1497610E-01 -0.7286072E-03  0.3047134E+07  0.1239457E+04
  0.4833333E+00 -0.5761221E+06 -0.4459642E+03 -0.2929687E-01 -0.1629829E-02  0.3051715E+07  0.1885617E+04
  0.5142857E+00 -0.5775408E+06 -0.6701594E+03 -0.1258003E-01 -0.2910137E-02  0.3056336E+07  0.2820642E+04
  0.5452381E+00 -0.5791339E+06 -0.9818414E+03 -0.4701573E-02 -0.4581928E-02  0.3061800E+07  0.4112695E+04
  0.5761905E+00 -0.5813554E+06 -0.1403963E+04 -0.1620710E-01 -0.2551556E-02  0.3068752E+07  0.5849601E+04
  0.6071429E+00 -0.5833167E+06 -0.1968548E+04 -0.8745978E-02 -0.2437592E-02  0.3075560E+07  0.8160835E+04
  0.6380953E+00 -0.5852827E+06 -0.2696983E+04  0.1731303E-01  0.6306648E-02  0.3081846E+07  0.1111379E+05
  0.6690477E+00 -0.5878472E+06 -0.3630314E+04 -0.7663061E-02 -0.3813744E-02  0.3089672E+07  0.1486573E+05
  0.7000000E+00 -0.5899408E+06 -0.4806415E+04 -0.3705706E-01 -0.8932114E-02  0.3096564E+07  0.1955950E+05
  0.7309524E+00 -0.5924160E+06 -0.6261864E+04 -0.2363074E-01 -0.8947372E-02  0.3104218E+07  0.2531247E+05
  0.7619048E+00 -0.5954035E+06 -0.8048776E+04 -0.2643585E-01 -0.1228714E-01  0.3112790E+07  0.3230221E+05
  0.7928572E+00 -0.5977550E+06 -0.1020332E+05 -0.3017666E-01 -0.4142761E-02  0.3119814E+07  0.4064760E+05
  0.8238096E+00 -0.6004594E+06 -0.1278407E+05 -0.5334402E-02 -0.2178192E-02  0.3127651E+07  0.5053432E+05
  0.8547620E+00 -0.6028099E+06 -0.1583071E+05 -0.2284993E-02 -0.5149841E-03  0.3134014E+07  0.6206083E+05
  0.8857143E+00 -0.6056830E+06 -0.1941021E+05 -0.1791677E-01 -0.6523132E-02  0.3141259E+07  0.7544124E+05
  0.9166667E+00 -0.6080067E+06 -0.2354467E+05 -0.5539773E-01 -0.1802063E-01  0.3147094E+07  0.9071847E+05
  0.9476191E+00 -0.6106397E+06 -0.2830253E+05 -0.2795349E-01 -0.1068878E-01  0.3153490E+07  0.1080776E+06
  0.9785714E+00 -0.6125031E+06 -0.3369182E+05 -0.3268277E-01 -0.1318359E-01  0.3156894E+07  0.1274119E+06
  0.1009524E+01 -0.6145140E+06 -0.3978862E+05 -0.2587660E-01 -0.9712219E-02  0.3159704E+07  0.1489214E+06
  0.1040476E+01 -0.6162496E+06 -0.4659539E+05 -0.8916440E-02 -0.1022339E-01  0.3161964E+07  0.1726134E+06
  0.1071429E+01 -0.6170649E+06 -0.5409770E+05 -0.2962240E-02 -0.8850098E-03  0.3161064E+07  0.1982616E+06
  0.1102381E+01 -0.6180065E+06 -0.6237375E+05 -0.2823700E-01 -0.1310730E-01  0.3159962E+07  0.2260744E+06
  0.1133333E+01 -0.6182517E+06 -0.7137775E+05  0.1518698E-01 -0.2120972E-02  0.3156229E+07  0.2556938E+06
  0.1164286E+01 -0.6183708E+06 -0.8115455E+05 -0.8702190E-02 -0.3982544E-02  0.3151232E+07  0.2872269E+06
  0.1195238E+01 -0.6181300E+06 -0.9164405E+05 -0.1531958E-01 -0.7110596E-02  0.3145756E+07  0.3205374E+06
  0.1226190E+01 -0.6161786E+06 -0.1025509E+06 -0.1144854E-01  0.4272461E-03  0.3134193E+07  0.3540701E+06
  0.1257143E+01 -0.6140087E+06 -0.1140277E+06 -0.2524636E-01 -0.3158569E-02  0.3122240E+07  0.3886106E+06
  0.1288095E+01 -0.6112396E+06 -0.1260431E+06 -0.2321818E-01 -0.4821777E-02  0.3107799E+07  0.4235670E+06
  0.1319048E+01 -0.6078081E+06 -0.1384246E+06 -0.2424660E-01 -0.8850098E-02  0.3091510E+07  0.4585588E+06
  0.1350000E+01 -0.6039222E+06 -0.1511167E+06 -0.4493996E-01 -0.9613037E-02  0.3073365E+07  0.4932766E+06
  0.1380952E+01 -0.5995232E+06 -0.1640568E+06  0.6452889E-02  0.1251221E-02  0.3055018E+07  0.5279251E+06
  0.1411905E+01 -0.5931288E+06 -0.1763049E+06 -0.5049141E-01 -0.1345825E-01  0.3030906E+07  0.5590138E+06
  0.1442857E+01 -0.5871761E+06 -0.1889313E+06 -0.2461953E-01 -0.5126953E-02  0.3008533E+07  0.5899085E+06
  0.1473810E+01 -0.5805298E+06 -0.2011566E+06 -0.5135235E-02 -0.5279541E-02  0.2984251E+07  0.6181918E+06
  0.1504762E+01 -0.5730798E+06 -0.2127050E+06 -0.2587813E-01 -0.6408691E-02  0.2957980E+07  0.6426544E+06
  0.1535714E+01 -0.5653402E+06 -0.2236021E+06  0.5246184E-02 -0.2258301E-02  0.2931636E+07  0.6641744E+06
  0.1566667E+01 -0.5574128E+06 -0.2337383E+06 -0.2555685E-01 -0.3936768E-02  0.2905018E+07  0.6820725E+06
  0.1597619E+01 -0.5491796E+06 -0.2430333E+06 -0.1711531E-01 -0.3295898E-02  0.2879418E+07  0.6973183E+06
  0.1628572E+01 -0.5398604E+06 -0.2502986E+06 -0.4219992E-01 -0.4852295E-02  0.2850978E+07  0.7045978E+06
  0.1659524E+01 -0.5311440E+06 -0.2571202E+06 -0.3670516E-01 -0.2456665E-02  0.2825842E+07  0.7108607E+06
  0.1690476E+01 -0.5225838E+06 -0.2627224E+06 -0.2650129E-01 -0.1480103E-02  0.2801380E+07  0.7126362E+06
  0.1721429E+01 -0.5134593E+06 -0.2662577E+06 -0.1560069E-02 -0.3158569E-02  0.2776573E+07  0.7077601E+06
  0.1752381E+01 -0.5049748E+06 -0.2689509E+06  0.2542579E-01 -0.2136230E-03  0.2754486E+07  0.7006852E+06
  0.1783333E+01 -0.4968085E+06 -0.2701546E+06 -0.5339150E-02 -0.8239746E-03  0.2733597E+07  0.6893719E+06
  0.1814286E+01 -0.4891565E+06 -0.2703878E+06 -0.2274160E-01 -0.7171631E-03  0.2714919E+07  0.6754713E+06
  0.1845238E+01 -0.4819060E+06 -0.2695754E+06  0.1084929E-01 -0.1983643E-02  0.2698712E+07  0.6605550E+06
  0.1876190E+01 -0.4744908E+06 -0.2659350E+06 -0.1756697E-01 -0.2075195E-02  0.2682324E+07  0.6363514E+06
  0.1907143E+01 -0.4679917E+06 -0.2623307E+06  0.2048221E-02 -0.2433777E-02  0.2669443E+07  0.6148216E+06
  0.1938095E+01 -0.4622689E+06 -0.2580114E+06 -0.5290713E-02 -0.3433228E-03  0.2658729E+07  0.5911907E+06
  0.1969048E+01 -0.4568704E+06 -0.2522110E+06 -0.2207008E-01  0.1220703E-02  0.2649411E+07  0.5650136E+06
  0.2000000E+01 -0.4519966E+06 -0.2454067E+06 -0.5981445E-02 -0.1831055E-03  0.2641828E+07  0.5359731E+06
