VARIABLES="w (rad/s)"
"A   1   1" "B   1   1"
"A   1   2" "B   1   2"
"A   1   3" "B   1   3"
Zone t="Motion of body    1 in DoF   1",I=    64,F=POINT
  0.5000000E-01  0.3891690E+05  0.1213456E-02 -0.4673004E-02 -0.6126081E-05 -0.8325638E+05 -0.2490610E-02
  0.8095238E-01  0.3920197E+05  0.5089573E-02  0.3769818E-03 -0.7280576E-05 -0.8383443E+05 -0.1032950E-01
  0.1119048E+00  0.3931006E+05  0.1433731E-01 -0.2062371E-02 -0.1574418E-04 -0.8397776E+05 -0.2880620E-01
  0.1428571E+00  0.3937962E+05  0.3211679E-01 -0.6168365E-02 -0.3981242E-04 -0.8405420E+05 -0.6441375E-01
  0.1738095E+00  0.3945029E+05  0.6391149E-01 -0.1207117E-02 -0.2233230E-04 -0.8412192E+05 -0.1279477E+00
  0.2047619E+00  0.3944719E+05  0.1179857E+00 -0.1359984E-02 -0.1300790E-04 -0.8413195E+05 -0.2359945E+00
  0.2357143E+00  0.3953707E+05  0.2076111E+00 -0.3204345E-02 -0.8394441E-04 -0.8419355E+05 -0.4144108E+00
  0.2666667E+00  0.3955416E+05  0.3533325E+00 -0.6866454E-03  0.2598856E-05 -0.8425301E+05 -0.7037371E+00
  0.2976190E+00  0.3956706E+05  0.5911760E+00  0.2589111E-02  0.7995940E-04 -0.8428010E+05 -0.1174591E+01
  0.3285715E+00  0.3970043E+05  0.9769921E+00  0.3274005E-02  0.1530116E-04 -0.8437498E+05 -0.1934026E+01
  0.3595238E+00  0.3972199E+05  0.1599913E+01 -0.4668583E-03  0.5436130E-05 -0.8441072E+05 -0.3157017E+01
  0.3904762E+00  0.3974906E+05  0.2599778E+01 -0.1836637E-02 -0.7507950E-04 -0.8445551E+05 -0.5111547E+01
  0.4214286E+00  0.3986618E+05  0.4173226E+01 -0.3312967E-02 -0.8636154E-04 -0.8457951E+05 -0.8168777E+01
  0.4523810E+00  0.3994869E+05  0.6636531E+01  0.3204345E-03 -0.8940697E-05 -0.8467088E+05 -0.1293598E+02
  0.4833333E+00  0.4005411E+05  0.1029333E+02 -0.7103229E-03 -0.1297146E-04 -0.8482784E+05 -0.1997220E+02
  0.5142857E+00  0.4010382E+05  0.1569063E+02  0.4598830E-02  0.5605891E-03 -0.8491914E+05 -0.3030956E+02
  0.5452381E+00  0.4029374E+05  0.2338267E+02  0.1847047E-02  0.4282296E-03 -0.8509748E+05 -0.4490137E+02
  0.5761905E+00  0.4039717E+05  0.3398307E+02  0.3336756E-02  0.4307032E-03 -0.8522941E+05 -0.6490221E+02
  0.6071429E+00  0.4049514E+05  0.4847407E+02 -0.4523782E-03  0.3668070E-03 -0.8537424E+05 -0.9207201E+02
  0.6380953E+00  0.4065197E+05  0.6765266E+02  0.1769564E-02  0.1996756E-05 -0.8560262E+05 -0.1277400E+03
  0.6690477E+00  0.4079747E+05  0.9277073E+02 -0.3580657E-02 -0.3750920E-03 -0.8576575E+05 -0.1740294E+03
  0.7000000E+00  0.4097855E+05  0.1253530E+03  0.1155308E-02  0.4333854E-03 -0.8599128E+05 -0.2335730E+03
  0.7309524E+00  0.4121909E+05  0.1668537E+03  0.7097573E-03 -0.1024008E-03 -0.8627398E+05 -0.3086335E+03
  0.7619048E+00  0.4136908E+05  0.2189144E+03  0.3384590E-02  0.6855726E-03 -0.8648388E+05 -0.4021182E+03
  0.7928572E+00  0.4152273E+05  0.2837271E+03  0.1154719E-03  0.5271435E-03 -0.8673561E+05 -0.5175555E+03
  0.8238096E+00  0.4173337E+05  0.3637711E+03 -0.9261114E-03 -0.1893044E-03 -0.8695812E+05 -0.6582112E+03
  0.8547620E+00  0.4202828E+05  0.4618721E+03 -0.7319118E-03  0.9441376E-04 -0.8731066E+05 -0.8286991E+03
  0.8857143E+00  0.4225743E+05  0.5802444E+03  0.2067320E-03  0.1525879E-02 -0.8757289E+05 -0.1032293E+04
  0.9166667E+00  0.4250876E+05  0.7224322E+03  0.3495650E-03 -0.4444122E-03 -0.8789906E+05 -0.1274351E+04
  0.9476191E+00  0.4274797E+05  0.8915029E+03 -0.2624665E-02 -0.2341270E-02 -0.8814681E+05 -0.1558229E+04
  0.9785714E+00  0.4303436E+05  0.1091675E+04  0.4475169E-02  0.2587318E-02 -0.8850429E+05 -0.1890719E+04
  0.1009524E+01  0.4326638E+05  0.1325605E+04  0.8766607E-03  0.4167557E-03 -0.8878358E+05 -0.2274676E+04
  0.1040476E+01  0.4352678E+05  0.1598438E+04  0.7039295E-03  0.7219315E-03 -0.8905127E+05 -0.2715833E+04
  0.1071429E+01  0.4382774E+05  0.1915035E+04  0.1253255E-02  0.1427650E-02 -0.8936186E+05 -0.3220627E+04
  0.1102381E+01  0.4414352E+05  0.2279610E+04 -0.4097133E-02 -0.2927780E-02 -0.8965338E+05 -0.3792888E+04
  0.1133333E+01  0.4448080E+05  0.2697169E+04 -0.3042782E-02 -0.1333237E-02 -0.9000199E+05 -0.4439890E+04
  0.1164286E+01  0.4475146E+05  0.3169802E+04 -0.3119158E-02 -0.2582550E-02 -0.9025039E+05 -0.5161553E+04
  0.1195238E+01  0.4499255E+05  0.3702594E+04 -0.1557491E-02 -0.2012253E-02 -0.9043298E+05 -0.5961742E+04
  0.1226190E+01  0.4523747E+05  0.4301465E+04  0.6719793E-03  0.1224518E-02 -0.9066345E+05 -0.6849625E+04
  0.1257143E+01  0.4541823E+05  0.4965446E+04  0.3107244E-02  0.1712799E-02 -0.9075009E+05 -0.7815217E+04
  0.1288095E+01  0.4572160E+05  0.5711201E+04  0.9002968E-03 -0.2365112E-02 -0.9094186E+05 -0.8877713E+04
  0.1319048E+01  0.4596640E+05  0.6531552E+04  0.4627214E-03  0.1281738E-02 -0.9108591E+05 -0.1003010E+05
  0.1350000E+01  0.4616481E+05  0.7429664E+04 -0.1559787E-02 -0.3204346E-03 -0.9112302E+05 -0.1126586E+05
  0.1380952E+01  0.4632798E+05  0.8409058E+04 -0.2187795E-02 -0.3250122E-02 -0.9110490E+05 -0.1258867E+05
  0.1411905E+01  0.4624709E+05  0.9402821E+04 -0.9942658E-03 -0.1144409E-02 -0.9096127E+05 -0.1392510E+05
  0.1442857E+01  0.4632086E+05  0.1053428E+05 -0.2411191E-02 -0.4402161E-02 -0.9078472E+05 -0.1539094E+05
  0.1473810E+01  0.4639085E+05  0.1175015E+05 -0.1014623E-02  0.1708984E-02 -0.9060175E+05 -0.1693301E+05
  0.1504762E+01  0.4643214E+05  0.1304651E+05  0.7301040E-03  0.1785278E-02 -0.9040858E+05 -0.1854510E+05
  0.1535714E+01  0.4636576E+05  0.1440958E+05  0.5166697E-03  0.1007080E-02 -0.9009592E+05 -0.2020456E+05
  0.1566667E+01  0.4621404E+05  0.1582947E+05 -0.3408878E-02 -0.5981445E-02 -0.8962570E+05 -0.2187317E+05
  0.1597619E+01  0.4602837E+05  0.1731287E+05  0.9741975E-03 -0.1968384E-02 -0.8912508E+05 -0.2357690E+05
  0.1628572E+01  0.4582633E+05  0.1885904E+05 -0.1236765E-02 -0.3692627E-02 -0.8863572E+05 -0.2531668E+05
  0.1659524E+01  0.4553439E+05  0.2043264E+05 -0.3622703E-02 -0.2700806E-02 -0.8796730E+05 -0.2700929E+05
  0.1690476E+01  0.4522345E+05  0.2204815E+05 -0.1444212E-03 -0.1037598E-02 -0.8729409E+05 -0.2870036E+05
  0.1721429E+01  0.4487914E+05  0.2369062E+05 -0.2552840E-02 -0.2929688E-02 -0.8660831E+05 -0.3036754E+05
  0.1752381E+01  0.4445055E+05  0.2533681E+05 -0.1358364E-02  0.2075195E-02 -0.8586941E+05 -0.3199186E+05
  0.1783333E+01  0.4394632E+05  0.2696789E+05  0.1813942E-02  0.1525879E-02 -0.8504542E+05 -0.3352878E+05
  0.1814286E+01  0.4335324E+05  0.2855524E+05  0.8746771E-03  0.3662109E-03 -0.8409235E+05 -0.3491838E+05
  0.1845238E+01  0.4273803E+05  0.3012121E+05 -0.5623110E-03  0.5493164E-03 -0.8316027E+05 -0.3624355E+05
  0.1876190E+01  0.4210604E+05  0.3165756E+05 -0.5855658E-03 -0.5798340E-03 -0.8226141E+05 -0.3749727E+05
  0.1907143E+01  0.4140899E+05  0.3310682E+05  0.3520380E-03  0.4394531E-02 -0.8125570E+05 -0.3854959E+05
  0.1938095E+01  0.4069628E+05  0.3449379E+05 -0.2015510E-02 -0.5187988E-03 -0.8026205E+05 -0.3948470E+05
  0.1969048E+01  0.3997844E+05  0.3581051E+05  0.0000000E+00 -0.1770020E-02 -0.7929729E+05 -0.4029244E+05
  0.2000000E+01  0.3926326E+05  0.3705911E+05  0.3051758E-04 -0.1525879E-03 -0.7839331E+05 -0.4100108E+05
Zone t="Motion of body    1 in DoF   2",I=    64,F=POINT
  0.5000000E-01 -0.2937317E-02 -0.1430511E-05  0.1077142E+05  0.2688082E+02  0.7135868E-02  0.2682209E-06
  0.8095238E-01 -0.1884909E-03 -0.7152557E-06  0.1066884E+05  0.4460626E+02 -0.1301765E-02  0.2773106E-04
  0.1119048E+00  0.1738528E-02  0.2145767E-04  0.1060822E+05  0.6395059E+02 -0.6689924E-03 -0.2409518E-04
  0.1428571E+00  0.2670288E-02 -0.5722046E-05  0.1058583E+05  0.8568428E+02  0.1682281E-02 -0.9572506E-04
  0.1738095E+00  0.3511612E-02 -0.1335144E-04  0.1058644E+05  0.1107545E+03  0.7928560E-02  0.2890825E-05
  0.2047619E+00  0.1080535E-02 -0.3051758E-04  0.1061019E+05  0.1403863E+03 -0.2913253E-02  0.1832247E-03
  0.2357143E+00 -0.5178740E-03 -0.3862381E-04  0.1064700E+05  0.1762784E+03  0.5904978E-02  0.7367134E-04
  0.2666667E+00  0.2117157E-02  0.3814697E-04  0.1070164E+05  0.2199180E+03  0.1716614E-03 -0.1204610E-03
  0.2976190E+00  0.1025391E-02  0.1907349E-05  0.1076532E+05  0.2745564E+03 -0.7754517E-03 -0.1677275E-03
  0.3285715E+00  0.2275550E-02  0.9536743E-06  0.1083850E+05  0.3420582E+03  0.4519172E-02 -0.7152557E-04
  0.3595238E+00 -0.1570342E-02  0.6484985E-04  0.1090855E+05  0.4264478E+03  0.5411312E-02  0.1937151E-03
  0.3904762E+00  0.2071101E-02 -0.1640320E-03  0.1098505E+05  0.5308897E+03  0.1043366E-01  0.6922483E-03
  0.4214286E+00 -0.1122426E-02 -0.3242493E-04  0.1103255E+05  0.6549757E+03  0.3084409E-02 -0.6349087E-03
  0.4523810E+00  0.3001966E-02  0.1106262E-03  0.1106852E+05  0.8051907E+03 -0.9486549E-03 -0.3151894E-03
  0.4833333E+00  0.5366884E-03  0.2441406E-03  0.1108046E+05  0.9705282E+03  0.1387497E-01  0.7021427E-03
  0.5142857E+00 -0.9494358E-03 -0.3433228E-03  0.1106125E+05  0.1158692E+04  0.7639991E-03 -0.5495548E-03
  0.5452381E+00 -0.1175393E-02  0.4959106E-04  0.1101732E+05  0.1360603E+04 -0.7835954E-02 -0.2121925E-03
  0.5761905E+00  0.3177863E-02 -0.1373291E-03  0.1094583E+05  0.1573328E+04 -0.1677316E-01  0.1480579E-02
  0.6071429E+00 -0.8042278E-03  0.2059937E-03  0.1085757E+05  0.1801364E+04  0.1093876E-01 -0.1292706E-02
  0.6380953E+00  0.2821737E-02 -0.6179810E-03  0.1076407E+05  0.2034037E+04  0.5446192E-02 -0.8840561E-03
  0.6690477E+00  0.3649077E-03  0.6790161E-03  0.1064414E+05  0.2275720E+04  0.1559410E-02 -0.1055717E-02
  0.7000000E+00  0.5100795E-02  0.7781982E-03  0.1050642E+05  0.2526949E+04 -0.7814679E-02  0.6599426E-03
  0.7309524E+00  0.2463275E-02 -0.1678467E-03  0.1036489E+05  0.2781833E+04 -0.6852289E-02 -0.1680374E-02
  0.7619048E+00 -0.1482010E-02  0.3204346E-03  0.1021115E+05  0.3041489E+04 -0.2848863E-02 -0.5092621E-03
  0.7928572E+00  0.2540382E-02 -0.1068115E-03  0.1004784E+05  0.3304970E+04 -0.7277136E-02 -0.7743835E-03
  0.8238096E+00  0.1592912E-02  0.6713867E-03  0.9870763E+04  0.3570749E+04  0.7276921E-02 -0.2985001E-02
  0.8547620E+00  0.2142181E-03  0.6103516E-03  0.9687370E+04  0.3836185E+04 -0.2186810E-03  0.2174377E-03
  0.8857143E+00  0.1240392E-02 -0.3967285E-03  0.9492176E+04  0.4100712E+04 -0.7468193E-02 -0.2847672E-02
  0.9166667E+00 -0.2330433E-02  0.1785278E-02  0.9295575E+04  0.4361958E+04 -0.2480247E-02 -0.2529144E-02
  0.9476191E+00 -0.9661343E-04  0.8239746E-03  0.9091020E+04  0.4619309E+04 -0.5635784E-04 -0.2910614E-02
  0.9785714E+00 -0.3368072E-02  0.7019043E-03  0.8885940E+04  0.4870427E+04  0.9047794E-02 -0.3993988E-02
  0.1009524E+01 -0.2962508E-02  0.1403809E-02  0.8674903E+04  0.5115557E+04 -0.7878610E-03  0.6523132E-03
  0.1040476E+01  0.2933040E-02 -0.1831055E-03  0.8460579E+04  0.5353104E+04 -0.6478351E-02 -0.1464844E-02
  0.1071429E+01  0.3076172E-02 -0.6408691E-03  0.8244263E+04  0.5581388E+04 -0.1691182E-02  0.8964539E-03
  0.1102381E+01 -0.1688683E-02 -0.4882812E-03  0.8028195E+04  0.5799514E+04  0.1005251E-02  0.9918213E-04
  0.1133333E+01  0.2369600E-02 -0.6103516E-04  0.7814005E+04  0.6005937E+04  0.3603206E-02 -0.3898621E-02
  0.1164286E+01 -0.2621142E-04  0.1708984E-02  0.7600945E+04  0.6201513E+04  0.7814278E-02 -0.2063751E-02
  0.1195238E+01 -0.5029929E-02 -0.7934570E-03  0.7390628E+04  0.6385151E+04  0.2605925E-02 -0.8354187E-02
  0.1226190E+01  0.1095077E-02 -0.7019043E-03  0.7186956E+04  0.6555405E+04 -0.2050159E-02  0.1628876E-02
  0.1257143E+01 -0.8253618E-03 -0.3417969E-02  0.6983245E+04  0.6718097E+04  0.4299771E-02  0.2471924E-02
  0.1288095E+01  0.2843042E-03 -0.1403809E-02  0.6787015E+04  0.6858253E+04  0.2453605E-02 -0.1613617E-02
  0.1319048E+01  0.8560346E-03 -0.1831055E-03  0.6594675E+04  0.6989897E+04 -0.6360973E-02 -0.7316589E-02
  0.1350000E+01 -0.1288520E-02  0.3967285E-03  0.6404566E+04  0.7108935E+04  0.4930849E-02  0.1346588E-02
  0.1380952E+01 -0.3867314E-02  0.7934570E-03  0.6221896E+04  0.7214326E+04 -0.2361824E-03  0.9574890E-03
  0.1411905E+01 -0.3890605E-03  0.7934570E-03  0.6033189E+04  0.7300199E+04  0.6749119E-02 -0.1300812E-02
  0.1442857E+01 -0.8460319E-03  0.2014160E-02  0.5861048E+04  0.7380126E+04  0.4880546E-02 -0.1102448E-02
  0.1473810E+01 -0.6833176E-03 -0.1190186E-02  0.5699492E+04  0.7445877E+04 -0.9783866E-03 -0.4520416E-02
  0.1504762E+01 -0.8112267E-03  0.2075195E-02  0.5546482E+04  0.7497361E+04  0.1714984E-02 -0.2502441E-02
  0.1535714E+01 -0.1391034E-02 -0.1281738E-02  0.5400468E+04  0.7540299E+04  0.3206830E-02 -0.2967834E-02
  0.1566667E+01 -0.3486796E-02 -0.2136230E-02  0.5256252E+04  0.7570660E+04  0.6756884E-03 -0.2071381E-02
  0.1597619E+01  0.1451745E-02  0.1525879E-02  0.5122590E+04  0.7591728E+04 -0.1175961E-02 -0.1445770E-02
  0.1628572E+01 -0.9744209E-03  0.3417969E-02  0.4997688E+04  0.7601255E+04  0.4403633E-03  0.4066467E-02
  0.1659524E+01 -0.2188334E-02 -0.0000000E+00  0.4873916E+04  0.7601937E+04  0.3293994E-02  0.3284454E-02
  0.1690476E+01  0.6318428E-03  0.2502441E-02  0.4759824E+04  0.7592509E+04  0.7539238E-02  0.2552032E-02
  0.1721429E+01 -0.7268502E-03 -0.9155273E-03  0.4652792E+04  0.7571432E+04  0.6007595E-02 -0.5416870E-03
  0.1752381E+01 -0.7314268E-03  0.2746582E-02  0.4553171E+04  0.7543884E+04  0.1077548E-03 -0.1258850E-03
  0.1783333E+01 -0.7871824E-03 -0.5493164E-03  0.4458875E+04  0.7510055E+04 -0.1058846E-03 -0.2174377E-02
  0.1814286E+01 -0.1682071E-04 -0.5493164E-03  0.4366872E+04  0.7467466E+04  0.1387709E-02  0.4386902E-03
  0.1845238E+01 -0.1372700E-02  0.1953125E-02  0.4284690E+04  0.7420057E+04  0.2186191E-02 -0.6084442E-02
  0.1876190E+01  0.9434114E-03  0.1281738E-02  0.4210316E+04  0.7365319E+04  0.1982384E-02 -0.2593994E-03
  0.1907143E+01  0.3200346E-04  0.9765625E-03  0.4137244E+04  0.7304512E+04  0.2959319E-02  0.1281738E-02
  0.1938095E+01 -0.2834311E-03 -0.2502441E-02  0.4070625E+04  0.7239362E+04  0.1772428E-02  0.2975464E-03
  0.1969048E+01  0.6509433E-03  0.5493164E-03  0.4009946E+04  0.7167018E+04 -0.4097456E-03 -0.6904602E-03
  0.2000000E+01 -0.1693726E-02  0.1831055E-03  0.3956317E+04  0.7088090E+04 -0.1263618E-02 -0.3349304E-02
Zone t="Motion of body    1 in DoF   3",I=    64,F=POINT
  0.5000000E-01 -0.8310423E+05 -0.2490717E-02  0.1440048E-02  0.2382639E-05  0.2856377E+06  0.5196121E-02
  0.8095238E-01 -0.8371198E+05 -0.1025134E-01  0.1378340E-02 -0.7892027E-05  0.2864883E+06  0.2104659E-01
  0.1119048E+00 -0.8386585E+05 -0.2870109E-01  0.3067991E-02  0.2652808E-04  0.2866628E+06  0.5720978E-01
  0.1428571E+00 -0.8394736E+05 -0.6406536E-01  0.7436752E-02  0.4719381E-04  0.2867299E+06  0.1285261E+00
  0.1738095E+00 -0.8402109E+05 -0.1273348E+00  0.1393671E-01  0.1046640E-03  0.2867881E+06  0.2548223E+00
  0.2047619E+00 -0.8402733E+05 -0.2348824E+00  0.1043275E-02 -0.2362824E-04  0.2868090E+06  0.4695508E+00
  0.2357143E+00 -0.8409346E+05 -0.4126923E+00  0.4531398E-03 -0.3216881E-04  0.2868887E+06  0.8232844E+00
  0.2666667E+00 -0.8415091E+05 -0.7005111E+00  0.2603531E-02  0.6186776E-05  0.2869493E+06  0.1394909E+01
  0.2976190E+00 -0.8417227E+05 -0.1168867E+01  0.2358398E-02 -0.5254801E-04  0.2870127E+06  0.2322783E+01
  0.3285715E+00 -0.8427537E+05 -0.1926111E+01  0.5166426E-02  0.1936564E-03  0.2871012E+06  0.3814089E+01
  0.3595238E+00 -0.8430509E+05 -0.3143143E+01 -0.1421796E-02 -0.1225788E-03  0.2871770E+06  0.6202259E+01
  0.3904762E+00 -0.8434584E+05 -0.5087969E+01  0.3673274E-02  0.2947077E-04  0.2872468E+06  0.1000296E+02
  0.4214286E+00 -0.8447262E+05 -0.8132912E+01  0.9250963E-02  0.3382713E-03  0.2873873E+06  0.1591899E+02
  0.4523810E+00 -0.8456223E+05 -0.1287939E+02  0.8095189E-02  0.6136596E-03  0.2875329E+06  0.2510825E+02
  0.4833333E+00 -0.8471963E+05 -0.1988265E+02  0.9265767E-02  0.5117208E-03  0.2877362E+06  0.3857816E+02
  0.5142857E+00 -0.8480291E+05 -0.3016119E+02 -0.5296072E-02 -0.8192360E-03  0.2878948E+06  0.5825894E+02
  0.5452381E+00 -0.8499074E+05 -0.4471148E+02 -0.5107363E-02 -0.9109974E-03  0.2880744E+06  0.8585692E+02
  0.5761905E+00 -0.8511948E+05 -0.6462062E+02 -0.2025888E-02 -0.1520514E-03  0.2882733E+06  0.1234132E+03
  0.6071429E+00 -0.8525748E+05 -0.9164304E+02  0.2927892E-02  0.1798868E-03  0.2885093E+06  0.1740870E+03
  0.6380953E+00 -0.8548607E+05 -0.1271204E+03  0.3299998E-02 -0.3821254E-03  0.2887958E+06  0.2400256E+03
  0.6690477E+00 -0.8564759E+05 -0.1732012E+03  0.2839438E-02  0.3777742E-03  0.2890252E+06  0.3249077E+03
  0.7000000E+00 -0.8587282E+05 -0.2324687E+03 -0.3247942E-02 -0.8496046E-03  0.2893415E+06  0.4331715E+03
  0.7309524E+00 -0.8616099E+05 -0.3072646E+03 -0.1878769E-03  0.5149841E-04  0.2896780E+06  0.5683409E+03
  0.7619048E+00 -0.8636302E+05 -0.4001762E+03 -0.8311271E-02 -0.1192093E-02  0.2899792E+06  0.7350552E+03
  0.7928572E+00 -0.8660479E+05 -0.5147081E+03 -0.7428693E-02 -0.2455473E-02  0.2903554E+06  0.9388862E+03
  0.8238096E+00 -0.8682771E+05 -0.6547447E+03 -0.4797257E-02 -0.2072811E-02  0.2906305E+06  0.1184695E+04
  0.8547620E+00 -0.8718555E+05 -0.8245260E+03 -0.3838074E-02 -0.3242016E-02  0.2910399E+06  0.1479327E+04
  0.8857143E+00 -0.8744559E+05 -0.1027064E+04  0.4651470E-02  0.1053810E-03  0.2913595E+06  0.1827114E+04
  0.9166667E+00 -0.8776645E+05 -0.1267519E+04 -0.4061612E-02 -0.3853798E-02  0.2917948E+06  0.2235709E+04
  0.9476191E+00 -0.8801174E+05 -0.1549976E+04 -0.1722940E-02 -0.5807877E-03  0.2920811E+06  0.2708996E+04
  0.9785714E+00 -0.8836600E+05 -0.1880124E+04 -0.6658178E-02 -0.3967285E-02  0.2924609E+06  0.3256126E+04
  0.1009524E+01 -0.8863735E+05 -0.2261002E+04 -0.5199505E-02 -0.5002975E-02  0.2927801E+06  0.3879665E+04
  0.1040476E+01 -0.8890262E+05 -0.2699486E+04  0.6159383E-03 -0.7419586E-03  0.2930718E+06  0.4586338E+04
  0.1071429E+01 -0.8921244E+05 -0.3201296E+04  0.3916423E-02 -0.2155304E-03  0.2933831E+06  0.5383180E+04
  0.1102381E+01 -0.8950694E+05 -0.3771000E+04  0.6920833E-02  0.6706238E-02  0.2936334E+06  0.6273260E+04
  0.1133333E+01 -0.8985390E+05 -0.4413680E+04  0.3769818E-02 -0.1888275E-02  0.2939265E+06  0.7263822E+04
  0.1164286E+01 -0.9009619E+05 -0.5129779E+04  0.8073116E-02  0.5432129E-02  0.2941154E+06  0.8351130E+04
  0.1195238E+01 -0.9027412E+05 -0.5924195E+04  0.6842746E-02  0.6568909E-02  0.2942073E+06  0.9536889E+04
  0.1226190E+01 -0.9049345E+05 -0.6802149E+04  0.1070189E-01  0.1028824E-01  0.2943539E+06  0.1082963E+05
  0.1257143E+01 -0.9057641E+05 -0.7758766E+04  0.7209777E-02  0.4234314E-02  0.2942762E+06  0.1220994E+05
  0.1288095E+01 -0.9077148E+05 -0.8815889E+04  0.3767031E-02 -0.6256104E-03  0.2942579E+06  0.1370115E+05
  0.1319048E+01 -0.9091218E+05 -0.9957992E+04  0.9948510E-03 -0.1388550E-02  0.2942023E+06  0.1528695E+05
  0.1350000E+01 -0.9094913E+05 -0.1118460E+05  0.1491970E-02 -0.1136780E-02  0.2939843E+06  0.1695164E+05
  0.1380952E+01 -0.9093152E+05 -0.1249739E+05  0.6121405E-02  0.9864807E-02  0.2937032E+06  0.1869820E+05
  0.1411905E+01 -0.9088821E+05 -0.1385100E+05  0.6484342E-03 -0.5264282E-03  0.2934381E+06  0.2049706E+05
  0.1442857E+01 -0.9071470E+05 -0.1531047E+05  0.9644764E-02  0.2899170E-02  0.2929168E+06  0.2235146E+05
  0.1473810E+01 -0.9053430E+05 -0.1684545E+05  0.2215606E-02 -0.3173828E-02  0.2923787E+06  0.2425745E+05
  0.1504762E+01 -0.9033670E+05 -0.1844209E+05  0.5394658E-02 -0.1068115E-02  0.2917973E+06  0.2619198E+05
  0.1535714E+01 -0.9001873E+05 -0.2008229E+05  0.2742324E-02  0.1281738E-02  0.2911474E+06  0.2813936E+05
  0.1566667E+01 -0.8955067E+05 -0.2173711E+05  0.1363551E-03 -0.3677368E-02  0.2902328E+06  0.3001466E+05
  0.1597619E+01 -0.8905455E+05 -0.2342921E+05  0.5386739E-02  0.2578735E-02  0.2893461E+06  0.3188495E+05
  0.1628572E+01 -0.8856369E+05 -0.2514713E+05  0.2304880E-02 -0.7781982E-03  0.2884769E+06  0.3372529E+05
  0.1659524E+01 -0.8790459E+05 -0.2683234E+05  0.9507298E-02  0.8438110E-02  0.2873591E+06  0.3542771E+05
  0.1690476E+01 -0.8723937E+05 -0.2851478E+05  0.2852319E-02  0.3570557E-02  0.2862675E+06  0.3706785E+05
  0.1721429E+01 -0.8655591E+05 -0.3015999E+05  0.3350602E-02  0.4730225E-02  0.2851318E+06  0.3859000E+05
  0.1752381E+01 -0.8581779E+05 -0.3175458E+05 -0.3465570E-02 -0.3021240E-02  0.2840201E+06  0.4000746E+05
  0.1783333E+01 -0.8499845E+05 -0.3326639E+05  0.2498449E-02  0.2532959E-02  0.2828530E+06  0.4126621E+05
  0.1814286E+01 -0.8405848E+05 -0.3464860E+05  0.3380963E-02  0.1678467E-02  0.2815316E+06  0.4225831E+05
  0.1845238E+01 -0.8313809E+05 -0.3596596E+05  0.9426978E-03 -0.5096436E-02  0.2803221E+06  0.4315981E+05
  0.1876190E+01 -0.8224609E+05 -0.3719653E+05  0.3936303E-02 -0.5187988E-03  0.2791819E+06  0.4391095E+05
  0.1907143E+01 -0.8125377E+05 -0.3824660E+05 -0.1840199E-02 -0.7843018E-02  0.2779177E+06  0.4436631E+05
  0.1938095E+01 -0.8027277E+05 -0.3918164E+05  0.6455930E-02 -0.1373291E-02  0.2767204E+06  0.4466891E+05
  0.1969048E+01 -0.7931739E+05 -0.3997845E+05  0.1332884E-02 -0.1281738E-02  0.2755597E+06  0.4477524E+05
  0.2000000E+01 -0.7841791E+05 -0.4065330E+05 -0.1693726E-02  0.2166748E-02  0.2744880E+06  0.4470986E+05
