VARIABLES="w (rad/s)"
"abs(F   1   1)" "angle(F   1   1)"
"abs(F   1   2)" "angle(F   1   2)"
"abs(F   1   3)" "angle(F   1   3)"
Zone t="Diffraction force - beta =   0.000 deg",I=    64,F=POINT
  0.5000000E-01  0.4871731E+04 -0.1570795E+01  0.3032048E+06 -0.2148024E-04  0.1171351E+05  0.1570798E+01
  0.8095238E-01  0.7967208E+04 -0.1570793E+01  0.3025835E+06 -0.5777573E-04  0.1912432E+05  0.1570801E+01
  0.1119048E+00  0.1111945E+05 -0.1570790E+01  0.3016704E+06 -0.1146951E-03  0.2666111E+05  0.1570806E+01
  0.1428571E+00  0.1437161E+05 -0.1570789E+01  0.3004658E+06 -0.1966157E-03  0.3440934E+05  0.1570808E+01
  0.1738095E+00  0.1774676E+05 -0.1570779E+01  0.2989689E+06 -0.3100451E-03  0.4243550E+05  0.1570811E+01
  0.2047619E+00  0.2129816E+05 -0.1570769E+01  0.2971785E+06 -0.4645258E-03  0.5083670E+05  0.1570823E+01
  0.2357143E+00  0.2505610E+05 -0.1570756E+01  0.2950938E+06 -0.6741118E-03  0.5970016E+05  0.1570839E+01
  0.2666667E+00  0.2908826E+05 -0.1570734E+01  0.2927148E+06 -0.9556073E-03  0.6914062E+05  0.1570861E+01
  0.2976190E+00  0.3343782E+05 -0.1570703E+01  0.2900419E+06 -0.1338356E-02  0.7928238E+05  0.1570890E+01
  0.3285715E+00  0.3815936E+05 -0.1570658E+01  0.2870746E+06 -0.1851149E-02  0.9026272E+05  0.1570933E+01
  0.3595238E+00  0.4336419E+05 -0.1570590E+01  0.2838231E+06 -0.2541389E-02  0.1022128E+06  0.1571004E+01
  0.3904762E+00  0.4906935E+05 -0.1570488E+01  0.2802912E+06 -0.3460379E-02  0.1152749E+06  0.1571105E+01
  0.4214286E+00  0.5535888E+05 -0.1570337E+01  0.2765019E+06 -0.4642547E-02  0.1295829E+06  0.1571256E+01
  0.4523810E+00  0.6223044E+05 -0.1570120E+01  0.2724613E+06 -0.6179650E-02  0.1451348E+06  0.1571472E+01
  0.4833333E+00  0.6975020E+05 -0.1569819E+01  0.2682078E+06 -0.8030824E-02  0.1619440E+06  0.1571775E+01
  0.5142857E+00  0.7788237E+05 -0.1569400E+01  0.2637498E+06 -0.1030465E-01  0.1799642E+06  0.1572193E+01
  0.5452381E+00  0.8648079E+05 -0.1568844E+01  0.2591041E+06 -0.1296762E-01  0.1989635E+06  0.1572749E+01
  0.5761905E+00  0.9556402E+05 -0.1568122E+01  0.2542904E+06 -0.1603044E-01  0.2187855E+06  0.1573469E+01
  0.6071429E+00  0.1051468E+06 -0.1567193E+01  0.2493376E+06 -0.1958489E-01  0.2393815E+06  0.1574400E+01
  0.6380953E+00  0.1151200E+06 -0.1566035E+01  0.2442302E+06 -0.2355226E-01  0.2605859E+06  0.1575557E+01
  0.6690477E+00  0.1254140E+06 -0.1564602E+01  0.2389959E+06 -0.2802004E-01  0.2822172E+06  0.1576990E+01
  0.7000000E+00  0.1359698E+06 -0.1562841E+01  0.2336618E+06 -0.3304701E-01  0.3042225E+06  0.1578750E+01
  0.7309524E+00  0.1468598E+06 -0.1560722E+01  0.2282226E+06 -0.3860329E-01  0.3265161E+06  0.1580869E+01
  0.7619048E+00  0.1580296E+06 -0.1558187E+01  0.2227130E+06 -0.4474526E-01  0.3488827E+06  0.1583402E+01
  0.7928572E+00  0.1695027E+06 -0.1555181E+01  0.2171459E+06 -0.5150682E-01  0.3714834E+06  0.1586406E+01
  0.8238096E+00  0.1810578E+06 -0.1551652E+01  0.2115306E+06 -0.5891585E-01  0.3939397E+06  0.1589933E+01
  0.8547620E+00  0.1927896E+06 -0.1547549E+01  0.2058705E+06 -0.6698991E-01  0.4164003E+06  0.1594033E+01
  0.8857143E+00  0.2046360E+06 -0.1542817E+01  0.2001829E+06 -0.7576132E-01  0.4385814E+06  0.1598762E+01
  0.9166667E+00  0.2166603E+06 -0.1537407E+01  0.1944899E+06 -0.8525875E-01  0.4605743E+06  0.1604166E+01
  0.9476191E+00  0.2286639E+06 -0.1531267E+01  0.1888278E+06 -0.9551268E-01  0.4819064E+06  0.1610299E+01
  0.9785714E+00  0.2408118E+06 -0.1524343E+01  0.1831835E+06 -0.1065313E+00  0.5029931E+06  0.1617213E+01
  0.1009524E+01  0.2528290E+06 -0.1516599E+01  0.1775636E+06 -0.1183528E+00  0.5232288E+06  0.1624946E+01
  0.1040476E+01  0.2647976E+06 -0.1508007E+01  0.1719667E+06 -0.1310183E+00  0.5428094E+06  0.1633523E+01
  0.1071429E+01  0.2764709E+06 -0.1498536E+01  0.1664218E+06 -0.1445594E+00  0.5614415E+06  0.1642976E+01
  0.1102381E+01  0.2877902E+06 -0.1488183E+01  0.1609275E+06 -0.1590180E+00  0.5788201E+06  0.1653305E+01
  0.1133333E+01  0.2988797E+06 -0.1476966E+01  0.1554991E+06 -0.1744287E+00  0.5950936E+06  0.1664490E+01
  0.1164286E+01  0.3095297E+06 -0.1464918E+01  0.1501366E+06 -0.1908550E+00  0.6097454E+06  0.1676501E+01
  0.1195238E+01  0.3197809E+06 -0.1452073E+01  0.1448579E+06 -0.2083163E+00  0.6229049E+06  0.1689299E+01
  0.1226190E+01  0.3294445E+06 -0.1438433E+01  0.1396647E+06 -0.2268616E+00  0.6346443E+06  0.1702889E+01
  0.1257143E+01  0.3380151E+06 -0.1424150E+01  0.1345927E+06 -0.2466679E+00  0.6437497E+06  0.1717100E+01
  0.1288095E+01  0.3462613E+06 -0.1409255E+01  0.1295564E+06 -0.2674703E+00  0.6517357E+06  0.1731919E+01
  0.1319048E+01  0.3533423E+06 -0.1393947E+01  0.1246308E+06 -0.2897415E+00  0.6571882E+06  0.1747125E+01
  0.1350000E+01  0.3594326E+06 -0.1378363E+01  0.1197856E+06 -0.3134591E+00  0.6604420E+06  0.1762587E+01
  0.1380952E+01  0.3645224E+06 -0.1362706E+01  0.1150219E+06 -0.3387059E+00  0.6614394E+06  0.1778083E+01
  0.1411905E+01  0.3673749E+06 -0.1348325E+01  0.1104106E+06 -0.3660973E+00  0.6593324E+06  0.1792312E+01
  0.1442857E+01  0.3700164E+06 -0.1333218E+01  0.1059216E+06 -0.3948932E+00  0.6553854E+06  0.1807199E+01
  0.1473810E+01  0.3716672E+06 -0.1318561E+01  0.1015382E+06 -0.4257479E+00  0.6496182E+06  0.1821646E+01
  0.1504762E+01  0.3722921E+06 -0.1304597E+01  0.9728884E+05 -0.4587719E+00  0.6419161E+06  0.1835363E+01
  0.1535714E+01  0.3716269E+06 -0.1291582E+01  0.9319832E+05 -0.4940744E+00  0.6318145E+06  0.1848088E+01
  0.1566667E+01  0.3700055E+06 -0.1279621E+01  0.8922277E+05 -0.5320556E+00  0.6201834E+06  0.1859751E+01
  0.1597619E+01  0.3674200E+06 -0.1268967E+01  0.8538973E+05 -0.5729217E+00  0.6069624E+06  0.1870027E+01
  0.1628572E+01  0.3638640E+06 -0.1259643E+01  0.8174249E+05 -0.6170879E+00  0.5925678E+06  0.1879021E+01
  0.1659524E+01  0.3593043E+06 -0.1252102E+01  0.7831258E+05 -0.6645127E+00  0.5764718E+06  0.1886089E+01
  0.1690476E+01  0.3540239E+06 -0.1246252E+01  0.7509431E+05 -0.7157967E+00  0.5595602E+06  0.1891500E+01
  0.1721429E+01  0.3482062E+06 -0.1242159E+01  0.7211759E+05 -0.7710494E+00  0.5421772E+06  0.1895147E+01
  0.1752381E+01  0.3417454E+06 -0.1240088E+01  0.6942498E+05 -0.8301280E+00  0.5239945E+06  0.1896716E+01
  0.1783333E+01  0.3348139E+06 -0.1240037E+01  0.6703108E+05 -0.8932148E+00  0.5054277E+06  0.1896236E+01
  0.1814286E+01  0.3275672E+06 -0.1242024E+01  0.6495869E+05 -0.9602731E+00  0.4867646E+06  0.1893708E+01
  0.1845238E+01  0.3200828E+06 -0.1246123E+01  0.6325152E+05 -0.1030672E+01  0.4681133E+06  0.1888958E+01
  0.1876190E+01  0.3123612E+06 -0.1252178E+01  0.6198177E+05 -0.1103186E+01  0.4497339E+06  0.1882471E+01
  0.1907143E+01  0.3044537E+06 -0.1260477E+01  0.6113589E+05 -0.1176552E+01  0.4313679E+06  0.1873587E+01
  0.1938095E+01  0.2964377E+06 -0.1270916E+01  0.6071805E+05 -0.1249596E+01  0.4132453E+06  0.1862515E+01
  0.1969048E+01  0.2885215E+06 -0.1283195E+01  0.6071504E+05 -0.1321199E+01  0.3958752E+06  0.1849934E+01
  0.2000000E+01  0.2806852E+06 -0.1297547E+01  0.6107813E+05 -0.1389724E+01  0.3789934E+06  0.1835209E+01
