VARIABLES="w (rad/s)"
"abs(F   1   1)" "angle(F   1   1)"
"abs(F   1   2)" "angle(F   1   2)"
"abs(F   1   3)" "angle(F   1   3)"
Zone t="Diffraction force - beta =   0.000 deg",I=    64,F=POINT
  0.5000000E-01  0.6231265E+03 -0.1570795E+01  0.1333188E+03 -0.3098580E+01  0.5387784E+02  0.1570792E+01
  0.8095238E-01  0.1018998E+04 -0.1570794E+01  0.3464592E+03 -0.3097125E+01  0.9326260E+02  0.1570785E+01
  0.1119048E+00  0.1423232E+04 -0.1570791E+01  0.6586930E+03 -0.3095240E+01  0.1286609E+03  0.1570775E+01
  0.1428571E+00  0.1837836E+04 -0.1570787E+01  0.1071750E+04 -0.3092871E+01  0.1653092E+03  0.1570759E+01
  0.1738095E+00  0.2270561E+04 -0.1570782E+01  0.1586202E+04 -0.3089820E+01  0.2008761E+03  0.1570733E+01
  0.2047619E+00  0.2721863E+04 -0.1570774E+01  0.2206448E+04 -0.3086025E+01  0.2402383E+03  0.1570696E+01
  0.2357143E+00  0.3202876E+04 -0.1570762E+01  0.2932116E+04 -0.3081160E+01  0.2741567E+03  0.1570638E+01
  0.2666667E+00  0.3715767E+04 -0.1570745E+01  0.3770423E+04 -0.3075271E+01  0.3143503E+03  0.1570555E+01
  0.2976190E+00  0.4266705E+04 -0.1570719E+01  0.4722814E+04 -0.3067842E+01  0.3560680E+03  0.1570423E+01
  0.3285715E+00  0.4869539E+04 -0.1570680E+01  0.5790116E+04 -0.3058867E+01  0.3925096E+03  0.1570213E+01
  0.3595238E+00  0.5528972E+04 -0.1570623E+01  0.6975884E+04 -0.3047962E+01  0.4334669E+03  0.1569893E+01
  0.3904762E+00  0.6246643E+04 -0.1570536E+01  0.8288111E+04 -0.3035069E+01  0.4842720E+03  0.1569417E+01
  0.4214286E+00  0.7039921E+04 -0.1570410E+01  0.9702183E+04 -0.3020471E+01  0.5236934E+03  0.1568638E+01
  0.4523810E+00  0.7910875E+04 -0.1570225E+01  0.1122806E+05 -0.3003516E+01  0.5593026E+03  0.1567400E+01
  0.4833333E+00  0.8851690E+04 -0.1569968E+01  0.1285445E+05 -0.2986346E+01  0.6066802E+03  0.1565663E+01
  0.5142857E+00  0.9857884E+04 -0.1569611E+01  0.1457490E+05 -0.2967734E+01  0.6554423E+03  0.1563137E+01
  0.5452381E+00  0.1093131E+05 -0.1569135E+01  0.1637082E+05 -0.2948931E+01  0.6810205E+03  0.1559188E+01
  0.5761905E+00  0.1206479E+05 -0.1568518E+01  0.1823786E+05 -0.2930303E+01  0.6986485E+03  0.1553424E+01
  0.6071429E+00  0.1323468E+05 -0.1567718E+01  0.2017950E+05 -0.2911237E+01  0.7407593E+03  0.1546226E+01
  0.6380953E+00  0.1443776E+05 -0.1566721E+01  0.2220521E+05 -0.2893285E+01  0.7787383E+03  0.1536595E+01
  0.6690477E+00  0.1567744E+05 -0.1565485E+01  0.2428026E+05 -0.2875288E+01  0.7840873E+03  0.1522014E+01
  0.7000000E+00  0.1694988E+05 -0.1563969E+01  0.2639278E+05 -0.2857000E+01  0.7723785E+03  0.1500897E+01
  0.7309524E+00  0.1824553E+05 -0.1562145E+01  0.2856300E+05 -0.2839375E+01  0.7616841E+03  0.1472591E+01
  0.7619048E+00  0.1954286E+05 -0.1559959E+01  0.3078256E+05 -0.2822148E+01  0.7679544E+03  0.1438020E+01
  0.7928572E+00  0.2084189E+05 -0.1557370E+01  0.3303873E+05 -0.2805220E+01  0.7742397E+03  0.1393814E+01
  0.8238096E+00  0.2213534E+05 -0.1554334E+01  0.3531113E+05 -0.2788427E+01  0.7666470E+03  0.1333445E+01
  0.8547620E+00  0.2343427E+05 -0.1550823E+01  0.3759860E+05 -0.2771966E+01  0.7356306E+03  0.1245160E+01
  0.8857143E+00  0.2472694E+05 -0.1546792E+01  0.3989088E+05 -0.2755845E+01  0.7037384E+03  0.1125023E+01
  0.9166667E+00  0.2599757E+05 -0.1542199E+01  0.4218603E+05 -0.2740186E+01  0.7054755E+03  0.9913787E+00
  0.9476191E+00  0.2721709E+05 -0.1536988E+01  0.4447371E+05 -0.2724985E+01  0.7503149E+03  0.8664545E+00
  0.9785714E+00  0.2839366E+05 -0.1531145E+01  0.4675895E+05 -0.2710470E+01  0.8287827E+03  0.7540904E+00
  0.1009524E+01  0.2951162E+05 -0.1524645E+01  0.4902209E+05 -0.2696431E+01  0.9330704E+03  0.6498299E+00
  0.1040476E+01  0.3056780E+05 -0.1517484E+01  0.5125496E+05 -0.2682817E+01  0.1065174E+04  0.5577080E+00
  0.1071429E+01  0.3155082E+05 -0.1509657E+01  0.5344005E+05 -0.2669561E+01  0.1233612E+04  0.4912602E+00
  0.1102381E+01  0.3244807E+05 -0.1501167E+01  0.5557818E+05 -0.2656799E+01  0.1437734E+04  0.4485466E+00
  0.1133333E+01  0.3324551E+05 -0.1492029E+01  0.5766582E+05 -0.2644649E+01  0.1681585E+04  0.4320523E+00
  0.1164286E+01  0.3392079E+05 -0.1482246E+01  0.5970284E+05 -0.2633223E+01  0.1972497E+04  0.4439737E+00
  0.1195238E+01  0.3445745E+05 -0.1471853E+01  0.6168785E+05 -0.2622644E+01  0.2315165E+04  0.4776607E+00
  0.1226190E+01  0.3484741E+05 -0.1460918E+01  0.6361109E+05 -0.2612872E+01  0.2720135E+04  0.5297700E+00
  0.1257143E+01  0.3505287E+05 -0.1449378E+01  0.6546450E+05 -0.2603341E+01  0.3187200E+04  0.5874790E+00
  0.1288095E+01  0.3511154E+05 -0.1437732E+01  0.6723291E+05 -0.2595173E+01  0.3707102E+04  0.6457728E+00
  0.1319048E+01  0.3497259E+05 -0.1425735E+01  0.6892310E+05 -0.2587253E+01  0.4305433E+04  0.7089314E+00
  0.1350000E+01  0.3464223E+05 -0.1413678E+01  0.7052833E+05 -0.2580109E+01  0.4984940E+04  0.7742301E+00
  0.1380952E+01  0.3410784E+05 -0.1401741E+01  0.7204640E+05 -0.2573825E+01  0.5749542E+04  0.8399308E+00
  0.1411905E+01  0.3334443E+05 -0.1390227E+01  0.7329820E+05 -0.2568699E+01  0.6642597E+04  0.9111091E+00
  0.1442857E+01  0.3238700E+05 -0.1379073E+01  0.7461102E+05 -0.2563692E+01  0.7606060E+04  0.9751071E+00
  0.1473810E+01  0.3122061E+05 -0.1368880E+01  0.7583467E+05 -0.2559667E+01  0.8688672E+04  0.1039489E+01
  0.1504762E+01  0.2982862E+05 -0.1359995E+01  0.7696137E+05 -0.2556549E+01  0.9886500E+04  0.1102509E+01
  0.1535714E+01  0.2821263E+05 -0.1352922E+01  0.7798105E+05 -0.2554208E+01  0.1121535E+05  0.1164505E+01
  0.1566667E+01  0.2638428E+05 -0.1348456E+01  0.7890383E+05 -0.2552919E+01  0.1268158E+05  0.1225041E+01
  0.1597619E+01  0.2434032E+05 -0.1347573E+01  0.7973337E+05 -0.2552492E+01  0.1427684E+05  0.1283421E+01
  0.1628572E+01  0.2210685E+05 -0.1351843E+01  0.8047826E+05 -0.2552891E+01  0.1602097E+05  0.1340067E+01
  0.1659524E+01  0.1968002E+05 -0.1363500E+01  0.8111702E+05 -0.2553964E+01  0.1789644E+05  0.1394361E+01
  0.1690476E+01  0.1709677E+05 -0.1386660E+01  0.8167839E+05 -0.2556159E+01  0.1991936E+05  0.1446679E+01
  0.1721429E+01  0.1438074E+05 -0.1428553E+01  0.8216270E+05 -0.2559448E+01  0.2207305E+05  0.1496714E+01
  0.1752381E+01  0.1158687E+05 -0.1503511E+01  0.8256821E+05 -0.2563627E+01  0.2437121E+05  0.1544636E+01
  0.1783333E+01  0.8824407E+04 -0.1644143E+01  0.8289766E+05 -0.2568727E+01  0.2679740E+05  0.1590385E+01
  0.1814286E+01  0.6379039E+04 -0.1928343E+01  0.8317057E+05 -0.2574767E+01  0.2935259E+05  0.1634124E+01
  0.1845238E+01  0.5036489E+04 -0.2479511E+01  0.8339278E+05 -0.2581550E+01  0.3201576E+05  0.1675868E+01
  0.1876190E+01  0.5857103E+04 -0.3109117E+01  0.8357262E+05 -0.2588820E+01  0.3478763E+05  0.1715673E+01
  0.1907143E+01  0.8327694E+04  0.2806680E+01  0.8368777E+05 -0.2596422E+01  0.3766309E+05  0.1753598E+01
  0.1938095E+01  0.1148756E+05  0.2625766E+01  0.8375816E+05 -0.2604310E+01  0.4063195E+05  0.1789729E+01
  0.1969048E+01  0.1494129E+05  0.2529171E+01  0.8379140E+05 -0.2612651E+01  0.4367596E+05  0.1824082E+01
  0.2000000E+01  0.1854141E+05  0.2472847E+01  0.8377684E+05 -0.2621093E+01  0.4679048E+05  0.1856744E+01
