VARIABLES="w (rad/s)"
"A   1   1" "B   1   1"
"A   1   2" "B   1   2"
"A   1   3" "B   1   3"
Zone t="Motion of body    1 in DoF   1",I=    64,F=POINT
  0.5000000E-01  0.1632876E+05  0.5554939E-03  0.2880096E-02  0.5167480E-05 -0.5299827E+04  0.2770950E-03
  0.8095238E-01  0.1639857E+05  0.2411332E-02  0.2674215E-02  0.1032200E-04 -0.5369890E+04  0.1181102E-02
  0.1119048E+00  0.1644946E+05  0.6770694E-02  0.2181682E-02  0.1073533E-04 -0.5345712E+04  0.3353405E-02
  0.1428571E+00  0.1645579E+05  0.1526239E-01  0.4472732E-03  0.1266279E-05 -0.5326047E+04  0.7495790E-02
  0.1738095E+00  0.1651713E+05  0.3048406E-01 -0.3116555E-02 -0.2441794E-04 -0.5349888E+04  0.1490064E-01
  0.2047619E+00  0.1652212E+05  0.5636161E-01  0.8476612E-03  0.9374518E-05 -0.5345280E+04  0.2738436E-01
  0.2357143E+00  0.1660258E+05  0.9959672E-01  0.1796375E-02  0.3734720E-04 -0.5375522E+04  0.4801401E-01
  0.2666667E+00  0.1658028E+05  0.1702576E+00 -0.7224082E-03  0.1435890E-04 -0.5330258E+04  0.8175991E-01
  0.2976190E+00  0.1665114E+05  0.2865539E+00 -0.4037476E-03 -0.3848830E-04 -0.5376131E+04  0.1363653E+00
  0.3285715E+00  0.1671151E+05  0.4759773E+00  0.1973691E-03  0.1797546E-04 -0.5365576E+04  0.2246725E+00
  0.3595238E+00  0.1672188E+05  0.7840639E+00  0.4986895E-03  0.3842078E-04 -0.5347252E+04  0.3673648E+00
  0.3904762E+00  0.1674889E+05  0.1283015E+01  0.7717783E-03  0.6688759E-04 -0.5338142E+04  0.5957018E+00
  0.4214286E+00  0.1687705E+05  0.2075927E+01  0.3403486E-02  0.2174862E-03 -0.5394216E+04  0.9502271E+00
  0.4523810E+00  0.1694011E+05  0.3326333E+01  0.1020331E-02  0.1578368E-03 -0.5363119E+04  0.1506303E+01
  0.4833333E+00  0.1696593E+05  0.5197634E+01 -0.1736345E-03  0.9775162E-05 -0.5335903E+04  0.2326953E+01
  0.5142857E+00  0.1702714E+05  0.7991929E+01  0.7046594E-03  0.2389997E-03 -0.5360647E+04  0.3527683E+01
  0.5452381E+00  0.1718295E+05  0.1201966E+02  0.4127869E-03  0.1261532E-03 -0.5374417E+04  0.5219537E+01
  0.5761905E+00  0.1727811E+05  0.1763995E+02 -0.2436362E-02 -0.4272461E-03 -0.5377205E+04  0.7537293E+01
  0.6071429E+00  0.1729922E+05  0.2538355E+02 -0.2425250E-02 -0.5156100E-03 -0.5326949E+04  0.1069818E+02
  0.6380953E+00  0.1739687E+05  0.3576569E+02  0.4663040E-03  0.1753569E-03 -0.5338850E+04  0.1481575E+02
  0.6690477E+00  0.1755536E+05  0.4958245E+02  0.9920928E-03  0.2553463E-03 -0.5384280E+04  0.2011271E+02
  0.7000000E+00  0.1769348E+05  0.6769931E+02  0.7302420E-03  0.1202822E-03 -0.5378072E+04  0.2691044E+02
  0.7309524E+00  0.1784174E+05  0.9104462E+02 -0.8976343E-03 -0.8976460E-04 -0.5352531E+04  0.3546712E+02
  0.7619048E+00  0.1793126E+05  0.1207499E+03 -0.6008147E-04  0.1051426E-03 -0.5342125E+04  0.4604464E+02
  0.7928572E+00  0.1799910E+05  0.1581377E+03  0.1751324E-02  0.9527206E-03 -0.5309147E+04  0.5907616E+02
  0.8238096E+00  0.1821035E+05  0.2050981E+03  0.1111334E-03 -0.1454353E-04 -0.5347229E+04  0.7474633E+02
  0.8547620E+00  0.1844305E+05  0.2633605E+03 -0.2204661E-02 -0.8013248E-03 -0.5390720E+04  0.9333695E+02
  0.8857143E+00  0.1863021E+05  0.3347090E+03 -0.6115821E-03 -0.4191399E-03 -0.5394717E+04  0.1153476E+03
  0.9166667E+00  0.1879473E+05  0.4214382E+03  0.9987571E-04  0.3609657E-03 -0.5375023E+04  0.1411425E+03
  0.9476191E+00  0.1895465E+05  0.5261299E+03 -0.1610224E-03  0.4091263E-03 -0.5351510E+04  0.1711251E+03
  0.9785714E+00  0.1912600E+05  0.6515372E+03 -0.1730814E-02 -0.9908676E-03 -0.5343283E+04  0.2055842E+03
  0.1009524E+01  0.1931741E+05  0.7999913E+03  0.1209187E-02  0.4043579E-03 -0.5377862E+04  0.2447710E+03
  0.1040476E+01  0.1956834E+05  0.9751387E+03 -0.1246542E-02 -0.1575470E-02 -0.5423552E+04  0.2885454E+03
  0.1071429E+01  0.1980604E+05  0.1180556E+04 -0.2563477E-03 -0.4787445E-03 -0.5460104E+04  0.3364675E+03
  0.1102381E+01  0.2006176E+05  0.1420456E+04  0.1508742E-02  0.1043320E-02 -0.5473529E+04  0.3894770E+03
  0.1133333E+01  0.2032154E+05  0.1698827E+04 -0.2275355E-02 -0.1501083E-02 -0.5517546E+04  0.4461046E+03
  0.1164286E+01  0.2052941E+05  0.2018417E+04  0.5242283E-04 -0.6427765E-03 -0.5552329E+04  0.5060879E+03
  0.1195238E+01  0.2071601E+05  0.2383744E+04 -0.1672388E-02 -0.2000809E-02 -0.5577315E+04  0.5697419E+03
  0.1226190E+01  0.2087605E+05  0.2797762E+04 -0.1107521E-02 -0.1605988E-02 -0.5601554E+04  0.6360693E+03
  0.1257143E+01  0.2102730E+05  0.3263405E+04 -0.4490939E-03 -0.5493164E-03 -0.5634022E+04  0.7074936E+03
  0.1288095E+01  0.2128484E+05  0.3780292E+04 -0.5330705E-03  0.4234314E-03 -0.5709121E+04  0.7851335E+03
  0.1319048E+01  0.2150646E+05  0.4358435E+04  0.2197927E-02  0.3982544E-02 -0.5828450E+04  0.8528361E+03
  0.1350000E+01  0.2167848E+05  0.4997208E+04  0.1921477E-03  0.4005432E-03 -0.5924325E+04  0.9191165E+03
  0.1380952E+01  0.2181811E+05  0.5700379E+04  0.5745724E-03 -0.5187988E-03 -0.6009691E+04  0.9770430E+03
  0.1411905E+01  0.2185291E+05  0.6464735E+04 -0.7132776E-03 -0.1091003E-02 -0.6064798E+04  0.1032145E+04
  0.1442857E+01  0.2192923E+05  0.7293935E+04  0.3278374E-03 -0.5111694E-03 -0.6160731E+04  0.1076518E+04
  0.1473810E+01  0.2200951E+05  0.8175713E+04  0.2795390E-03  0.1289368E-02 -0.6265778E+04  0.1123399E+04
  0.1504762E+01  0.2206780E+05  0.9115762E+04 -0.4867360E-03 -0.1914978E-02 -0.6403721E+04  0.1150851E+04
  0.1535714E+01  0.2206333E+05  0.1011232E+05 -0.4669899E-03 -0.4119873E-03 -0.6546025E+04  0.1152842E+04
  0.1566667E+01  0.2200685E+05  0.1116061E+05  0.4382844E-03  0.9307861E-03 -0.6684267E+04  0.1133129E+04
  0.1597619E+01  0.2189994E+05  0.1225312E+05  0.1146115E-03 -0.8239746E-03 -0.6806545E+04  0.1089578E+04
  0.1628572E+01  0.2174710E+05  0.1337746E+05 -0.4028855E-03  0.7934570E-03 -0.6934190E+04  0.1026387E+04
  0.1659524E+01  0.2157455E+05  0.1451758E+05 -0.3493978E-03 -0.7781982E-03 -0.7074894E+04  0.9533944E+03
  0.1690476E+01  0.2136656E+05  0.1568379E+05  0.3520267E-03  0.1373291E-02 -0.7195085E+04  0.8529195E+03
  0.1721429E+01  0.2111912E+05  0.1686222E+05 -0.3900172E-03  0.1800537E-02 -0.7309525E+04  0.7305849E+03
  0.1752381E+01  0.2084024E+05  0.1805255E+05  0.0000000E+00  0.2410889E-02 -0.7469344E+04  0.5513317E+03
  0.1783333E+01  0.2049425E+05  0.1922342E+05 -0.4192602E-03 -0.3829956E-02 -0.7591883E+04  0.3485103E+03
  0.1814286E+01  0.2012926E+05  0.2036515E+05  0.6223664E-03 -0.2685547E-02 -0.7715507E+04  0.1352455E+03
  0.1845238E+01  0.1972561E+05  0.2148131E+05  0.3473097E-03 -0.3005981E-02 -0.7815331E+04 -0.1137493E+03
  0.1876190E+01  0.1928369E+05  0.2256264E+05  0.3659786E-03 -0.3051758E-02 -0.7901908E+04 -0.4029316E+03
  0.1907143E+01  0.1882203E+05  0.2360369E+05  0.5840631E-03 -0.5645752E-03 -0.7983732E+04 -0.7178664E+03
  0.1938095E+01  0.1836072E+05  0.2459410E+05  0.4566390E-03 -0.4272461E-03 -0.8043424E+04 -0.1007511E+04
  0.1969048E+01  0.1790344E+05  0.2553272E+05 -0.1340633E-02  0.2746582E-03 -0.8101568E+04 -0.1304648E+04
  0.2000000E+01  0.1743542E+05  0.2642287E+05  0.4119873E-03 -0.1571655E-02 -0.8159807E+04 -0.1651297E+04
Zone t="Motion of body    1 in DoF   2",I=    64,F=POINT
  0.5000000E-01  0.9727478E-03 -0.2563000E-05  0.4522648E+05  0.6610430E+02 -0.4196167E-02  0.2622604E-05
  0.8095238E-01  0.5654728E-03 -0.3814697E-05  0.4499815E+05  0.1096898E+03 -0.1319436E-02  0.5483627E-05
  0.1119048E+00 -0.1363551E-03  0.3814697E-05  0.4494180E+05  0.1572483E+03 -0.1363551E-03 -0.3814697E-05
  0.1428571E+00 -0.1201630E-02  0.6437302E-05  0.4484386E+05  0.2106552E+03  0.2136230E-02 -0.2765656E-04
  0.1738095E+00  0.1338802E-02  0.3576279E-05  0.4481152E+05  0.2722788E+03  0.2633709E-03  0.4768372E-05
  0.2047619E+00 -0.3912282E-03  0.2813339E-04  0.4487612E+05  0.3450447E+03  0.2459149E-02 -0.6103516E-04
  0.2357143E+00  0.4369562E-03  0.7152557E-05  0.4496042E+05  0.4331439E+03  0.2977776E-02  0.6580353E-04
  0.2666667E+00  0.1745224E-02 -0.4339218E-04  0.4506749E+05  0.5402676E+03 -0.1144409E-02  0.2670288E-04
  0.2976190E+00 -0.5639648E-03  0.1049042E-04  0.4522823E+05  0.6741747E+03 -0.1230469E-02  0.4768372E-04
  0.3285715E+00  0.9287957E-04 -0.0000000E+00  0.4537681E+05  0.8396259E+03  0.0000000E+00 -0.2288818E-04
  0.3595238E+00  0.4880791E-03 -0.4386902E-04  0.4554130E+05  0.1046105E+04  0.3565100E-02  0.3814697E-04
  0.3904762E+00  0.6838542E-03 -0.2098083E-04  0.4570866E+05  0.1301538E+04 -0.1328631E-02  0.8010864E-04
  0.4214286E+00 -0.2100023E-02 -0.1049042E-03  0.4578867E+05  0.1604545E+04 -0.2244852E-02  0.9536743E-04
  0.4523810E+00  0.2698396E-03  0.2288818E-04  0.4590779E+05  0.1970419E+04  0.2293637E-02 -0.3814697E-04
  0.4833333E+00 -0.3156991E-03  0.1182556E-03  0.4584054E+05  0.2372401E+04  0.1262796E-02  0.1296997E-03
  0.5142857E+00  0.1008776E-02 -0.1640320E-03  0.4582198E+05  0.2827965E+04 -0.2848307E-02  0.3509521E-03
  0.5452381E+00  0.8955377E-03  0.1373291E-03  0.4563819E+05  0.3316567E+04 -0.7835955E-03 -0.3204346E-03
  0.5761905E+00  0.3177863E-03  0.6103516E-04  0.4543977E+05  0.3829160E+04  0.1271145E-02 -0.5950928E-03
  0.6071429E+00 -0.8544921E-03  0.3814697E-04  0.4523935E+05  0.4376660E+04 -0.1306870E-02 -0.1525879E-03
  0.6380953E+00 -0.6456517E-03 -0.1296997E-03  0.4489625E+05  0.4932411E+04 -0.3060868E-02 -0.7629395E-04
  0.6690477E+00 -0.1140337E-02 -0.2136230E-03  0.4458317E+05  0.5506593E+04  0.9122692E-04  0.4730225E-03
  0.7000000E+00 -0.1743862E-03 -0.4653931E-03  0.4427202E+05  0.6099403E+04  0.1743861E-02  0.1068115E-03
  0.7309524E+00 -0.1043761E-03 -0.6103516E-04  0.4382291E+05  0.6699587E+04  0.1169012E-02  0.2441406E-03
  0.7619048E+00 -0.7610320E-03  0.1220703E-03  0.4339825E+05  0.7306147E+04  0.2002716E-02 -0.3051758E-03
  0.7928572E+00  0.4041517E-03 -0.3509521E-03  0.4300179E+05  0.7913233E+04  0.3079251E-02 -0.1220703E-03
  0.8238096E+00  0.7408892E-04 -0.6103516E-04  0.4251733E+05  0.8523822E+04  0.1778134E-02  0.1037598E-02
  0.8547620E+00 -0.2856241E-03 -0.5340576E-03  0.4199286E+05  0.9131631E+04 -0.3284677E-02  0.1220703E-03
  0.8857143E+00  0.5340576E-03  0.1525879E-03  0.4148679E+05  0.9727767E+04 -0.2687516E-02  0.1220703E-03
  0.9166667E+00 -0.1015403E-02  0.9155273E-04  0.4102839E+05  0.1030409E+05  0.7324219E-03  0.5187988E-03
  0.9476191E+00 -0.1255975E-02 -0.5950928E-03  0.4048091E+05  0.1087022E+05 -0.1739042E-02  0.1739502E-02
  0.9785714E+00  0.4677877E-03 -0.3967285E-03  0.3989591E+05  0.1141989E+05 -0.6860886E-03 -0.7019043E-03
  0.1009524E+01 -0.1103383E-02  0.3204346E-03  0.3934288E+05  0.1194441E+05 -0.5018127E-02  0.9765625E-03
  0.1040476E+01 -0.1158551E-02 -0.3967285E-03  0.3881987E+05  0.1243729E+05  0.4692863E-03 -0.6408691E-03
  0.1071429E+01  0.6978353E-03  0.6713867E-03  0.3832934E+05  0.1289563E+05  0.2221680E-02 -0.1312256E-02
  0.1102381E+01 -0.5813499E-03  0.5645752E-03  0.3773177E+05  0.1333839E+05 -0.2436133E-02 -0.2136230E-03
  0.1133333E+01 -0.1790664E-02  0.1342773E-02  0.3715595E+05  0.1374751E+05  0.9155273E-03 -0.6713867E-03
  0.1164286E+01 -0.5504397E-03  0.7629395E-03  0.3661868E+05  0.1411767E+05  0.1677531E-02 -0.2746582E-02
  0.1195238E+01 -0.1544724E-02 -0.7324219E-03  0.3611045E+05  0.1444364E+05  0.2042611E-03 -0.9155273E-03
  0.1226190E+01  0.4977625E-03  0.1831055E-03  0.3564698E+05  0.1472285E+05  0.2488812E-02  0.1037598E-02
  0.1257143E+01 -0.1262318E-02  0.8239746E-03  0.3513400E+05  0.1499000E+05 -0.1942028E-03 -0.3234863E-02
  0.1288095E+01 -0.5330705E-03  0.1098633E-02  0.3459640E+05  0.1520100E+05 -0.1042449E-02 -0.2502441E-02
  0.1319048E+01 -0.2001270E-02 -0.5493164E-03  0.3411027E+05  0.1538936E+05 -0.3609227E-02  0.3845215E-02
  0.1350000E+01 -0.1763238E-02  0.1007080E-02  0.3365859E+05  0.1553374E+05 -0.1808449E-03  0.2441406E-03
  0.1380952E+01 -0.8839575E-04 -0.4272461E-03  0.3324331E+05  0.1562757E+05  0.7071660E-03  0.1403809E-02
  0.1411905E+01  0.6376270E-03  0.1617432E-02  0.3286287E+05  0.1566783E+05  0.8645789E-04 -0.4882812E-03
  0.1442857E+01 -0.5499207E-03 -0.2655029E-02  0.3247226E+05  0.1569067E+05 -0.4991588E-02  0.3540039E-02
  0.1473810E+01  0.1035330E-02  0.2014160E-02  0.3204515E+05  0.1568632E+05  0.1987833E-02 -0.2075195E-02
  0.1504762E+01  0.1521050E-03  0.1068115E-02  0.3165423E+05  0.1564724E+05 -0.2311996E-02  0.1708984E-02
  0.1535714E+01  0.6110612E-03  0.2166748E-02  0.3131003E+05  0.1557575E+05  0.8743641E-03 -0.5493164E-02
  0.1566667E+01 -0.1095711E-03 -0.0000000E+00  0.3100081E+05  0.1546491E+05 -0.1168758E-03 -0.7934570E-03
  0.1597619E+01  0.5563432E-03  0.4577637E-03  0.3072704E+05  0.1531250E+05  0.4966497E-03 -0.2258301E-02
  0.1628572E+01 -0.4614445E-03 -0.1556396E-02  0.3049804E+05  0.1512896E+05  0.0000000E+00 -0.2990723E-02
  0.1659524E+01 -0.4884673E-03 -0.5187988E-03  0.3026846E+05  0.1493178E+05 -0.1176919E-02 -0.6774902E-02
  0.1690476E+01 -0.4933694E-03 -0.1434326E-02  0.2999001E+05  0.1470842E+05 -0.3610530E-03  0.7934570E-03
  0.1721429E+01 -0.6005379E-03 -0.2166748E-02  0.2973217E+05  0.1445434E+05 -0.4254733E-03 -0.3234863E-02
  0.1752381E+01  0.3711556E-03  0.3387451E-02  0.2952412E+05  0.1419950E+05  0.1114555E-02  0.1464844E-02
  0.1783333E+01 -0.2738026E-03  0.1495361E-02  0.2934661E+05  0.1391898E+05 -0.2053519E-02 -0.7324219E-03
  0.1814286E+01  0.1011345E-02  0.3265381E-02  0.2919894E+05  0.1361643E+05  0.8746771E-03 -0.3051758E-02
  0.1845238E+01  0.8930822E-03 -0.4577637E-03  0.2908384E+05  0.1328945E+05 -0.1323085E-02  0.6103516E-04
  0.1876190E+01  0.5814993E-03  0.1922607E-02  0.2899887E+05  0.1294707E+05 -0.2667577E-02 -0.8239746E-03
  0.1907143E+01 -0.1040112E-03 -0.4272461E-03  0.2893352E+05  0.1260911E+05 -0.1280138E-03  0.3051758E-04
  0.1938095E+01 -0.8699759E-03 -0.6408691E-03  0.2880419E+05  0.1223758E+05 -0.9447702E-03 -0.2105713E-02
  0.1969048E+01 -0.6044473E-03 -0.0000000E+00  0.2868882E+05  0.1184431E+05 -0.6199460E-04 -0.3875732E-02
  0.2000000E+01 -0.6637573E-03 -0.3814697E-02  0.2859849E+05  0.1145349E+05 -0.1770020E-02  0.1495361E-02
Zone t="Motion of body    1 in DoF   3",I=    64,F=POINT
  0.5000000E-01 -0.5142391E+04  0.2878757E-03 -0.7247925E-02 -0.1548116E-04  0.6059889E+05  0.1285250E-03
  0.8095238E-01 -0.5184284E+04  0.1254740E-02 -0.2497505E-02 -0.1337519E-04  0.6097361E+05  0.5913280E-03
  0.1119048E+00 -0.5131862E+04  0.3553763E-02  0.6408691E-02  0.3402389E-04  0.6113293E+05  0.1738295E-02
  0.1428571E+00 -0.5102996E+04  0.7975154E-02 -0.9078979E-03 -0.1458189E-05  0.6106793E+05  0.3938064E-02
  0.1738095E+00 -0.5163723E+04  0.1585844E-01  0.7988917E-02  0.6739334E-04  0.6101429E+05  0.7693682E-02
  0.2047619E+00 -0.5137470E+04  0.2912377E-01  0.7824565E-03  0.1109135E-04  0.6104412E+05  0.1429869E-01
  0.2357143E+00 -0.5186798E+04  0.5113299E-01 -0.1229951E-02 -0.2717244E-04  0.6109063E+05  0.2464435E-01
  0.2666667E+00 -0.5130866E+04  0.8689819E-01  0.1659393E-02  0.2830755E-04  0.6097932E+05  0.4157266E-01
  0.2976190E+00 -0.5172378E+04  0.1454119E+00 -0.3588867E-02 -0.5792384E-04  0.6110723E+05  0.6900353E-01
  0.3285715E+00 -0.5186428E+04  0.2397671E+00  0.4365340E-02  0.1032960E-03  0.6099933E+05  0.1129030E+00
  0.3595238E+00 -0.5152572E+04  0.3917638E+00  0.1145925E-02  0.4443573E-04  0.6104091E+05  0.1830216E+00
  0.3904762E+00 -0.5126889E+04  0.6352327E+00 -0.9769346E-03 -0.2072379E-04  0.6101002E+05  0.2940406E+00
  0.4214286E+00 -0.5220170E+04  0.1017515E+01 -0.1412084E-02 -0.6418675E-05  0.6103918E+05  0.4647432E+00
  0.4523810E+00 -0.5166363E+04  0.1612381E+01  0.4621003E-02  0.2393704E-03  0.6112435E+05  0.7286245E+00
  0.4833333E+00 -0.5151713E+04  0.2489120E+01  0.9786672E-03 -0.1285225E-05  0.6093593E+05  0.1113830E+01
  0.5142857E+00 -0.5132091E+04  0.3779379E+01 -0.3560384E-03 -0.1347326E-03  0.6116038E+05  0.1665909E+01
  0.5452381E+00 -0.5197340E+04  0.5609594E+01  0.1679133E-03 -0.3113523E-03  0.6097492E+05  0.2434224E+01
  0.5761905E+00 -0.5207159E+04  0.8113091E+01 -0.1244663E-02  0.1343042E-03  0.6102586E+05  0.3466179E+01
  0.6071429E+00 -0.5092203E+04  0.1148627E+02 -0.2613741E-02  0.2682209E-05  0.6114813E+05  0.4851954E+01
  0.6380953E+00 -0.5131775E+04  0.1594275E+02 -0.1673912E-02 -0.2493411E-03  0.6095659E+05  0.6597942E+01
  0.6690477E+00 -0.5183700E+04  0.2174082E+02 -0.1915765E-02 -0.9402335E-03  0.6107219E+05  0.8799061E+01
  0.7000000E+00 -0.5149811E+04  0.2912782E+02  0.3226144E-02  0.5122423E-03  0.6123501E+05  0.1157806E+02
  0.7309524E+00 -0.5161895E+04  0.3844025E+02 -0.4091542E-02 -0.8437037E-03  0.6098807E+05  0.1500591E+02
  0.7619048E+00 -0.5132444E+04  0.4993109E+02  0.7369994E-02  0.1209199E-02  0.6101322E+05  0.1912535E+02
  0.7928572E+00 -0.5031916E+04  0.6394623E+02 -0.4003026E-02 -0.9316206E-03  0.6115541E+05  0.2396799E+02
  0.8238096E+00 -0.5090888E+04  0.8135836E+02  0.1333600E-02 -0.2634525E-04  0.6112704E+05  0.2948915E+02
  0.8547620E+00 -0.5175851E+04  0.1022606E+03 -0.6426543E-02 -0.1565814E-02  0.6105221E+05  0.3601980E+02
  0.8857143E+00 -0.5175009E+04  0.1267594E+03 -0.1447124E-02 -0.1147985E-03  0.6110083E+05  0.4365241E+02
  0.9166667E+00 -0.5114392E+04  0.1550872E+03 -0.4893910E-02 -0.1749992E-02  0.6124017E+05  0.5222001E+02
  0.9476191E+00 -0.5075082E+04  0.1880776E+03 -0.2447540E-02 -0.9074211E-03  0.6116108E+05  0.6186857E+02
  0.9785714E+00 -0.5069870E+04  0.2263198E+03  0.4615505E-02  0.2679586E-02  0.6100203E+05  0.7235233E+02
  0.1009524E+01 -0.5095264E+04  0.2708076E+03 -0.4685600E-02 -0.1915216E-02  0.6105290E+05  0.8254424E+02
  0.1040476E+01 -0.5129925E+04  0.3213734E+03 -0.6159383E-03  0.2517700E-03  0.6116811E+05  0.9341406E+02
  0.1071429E+01 -0.5137565E+04  0.3766370E+03  0.4699707E-02  0.2366066E-02  0.6135555E+05  0.1053467E+03
  0.1102381E+01 -0.5172721E+04  0.4384916E+03  0.6643999E-03  0.1450062E-02  0.6116539E+05  0.1193487E+03
  0.1133333E+01 -0.5238677E+04  0.5057488E+03  0.4819982E-02  0.5162239E-02  0.6107415E+05  0.1331736E+03
  0.1164286E+01 -0.5258651E+04  0.5764995E+03  0.3590964E-02  0.3571510E-02  0.6110194E+05  0.1482834E+03
  0.1195238E+01 -0.5247515E+04  0.6498773E+03  0.7404464E-03  0.1336098E-02  0.6114718E+05  0.1623830E+03
  0.1226190E+01 -0.5218100E+04  0.7252384E+03  0.3335008E-02  0.4014015E-02  0.6126311E+05  0.1752038E+03
  0.1257143E+01 -0.5232875E+04  0.8091284E+03 -0.1650724E-02 -0.6542206E-03  0.6119630E+05  0.1844031E+03
  0.1288095E+01 -0.5336031E+04  0.9068328E+03  0.1231985E-02 -0.9765625E-03  0.6101401E+05  0.1829011E+03
  0.1319048E+01 -0.5467497E+04  0.1000674E+04 -0.7218454E-02 -0.8959770E-02  0.6104469E+05  0.1904380E+03
  0.1350000E+01 -0.5556330E+04  0.1090073E+04 -0.1898872E-02 -0.3054619E-02  0.6108820E+05  0.1950211E+03
  0.1380952E+01 -0.5616180E+04  0.1168595E+04 -0.9281553E-03 -0.1099586E-02  0.6114542E+05  0.2037570E+03
  0.1411905E+01 -0.5630174E+04  0.1227052E+04 -0.7781210E-03 -0.3663063E-02  0.6122803E+05  0.2063898E+03
  0.1442857E+01 -0.5709102E+04  0.1292508E+04 -0.3257223E-02 -0.4586220E-02  0.6123364E+05  0.2044568E+03
  0.1473810E+01 -0.5831215E+04  0.1369505E+04  0.3313055E-03  0.9021759E-03  0.6107781E+05  0.1842114E+03
  0.1504762E+01 -0.5991468E+04  0.1434232E+04 -0.1095156E-02  0.5798340E-03  0.6100415E+05  0.1648228E+03
  0.1535714E+01 -0.6136091E+04  0.1473510E+04  0.2225654E-02  0.3450394E-02  0.6103770E+05  0.1563815E+03
  0.1566667E+01 -0.6268358E+04  0.1486369E+04  0.4675033E-03  0.1268387E-02  0.6110686E+05  0.1486418E+03
  0.1597619E+01 -0.6374490E+04  0.1467919E+04  0.1566357E-02 -0.8354187E-03  0.6117833E+05  0.1464811E+03
  0.1628572E+01 -0.6483947E+04  0.1426654E+04  0.1649020E-02  0.2550125E-02  0.6130288E+05  0.1322053E+03
  0.1659524E+01 -0.6623045E+04  0.1390907E+04  0.1471149E-03  0.1773834E-03  0.6137801E+05  0.9403565E+02
  0.1690476E+01 -0.6762457E+04  0.1334049E+04 -0.1119264E-02 -0.2364159E-02  0.6125708E+05  0.6678584E+02
  0.1721429E+01 -0.6900805E+04  0.1250043E+04 -0.1453700E-02 -0.8592606E-03  0.6111039E+05  0.2518983E+02
  0.1752381E+01 -0.7084236E+04  0.1124408E+04  0.8707462E-03 -0.1190186E-02  0.6117802E+05  0.1634051E+02
  0.1783333E+01 -0.7213191E+04  0.9647907E+03  0.1060985E-02 -0.1412392E-02  0.6124192E+05  0.2240972E+02
  0.1814286E+01 -0.7347226E+04  0.7893669E+03 -0.5046214E-03 -0.2379417E-03  0.6134700E+05  0.8988042E+01
  0.1845238E+01 -0.7446466E+04  0.5675170E+03  0.8600050E-03  0.5010128E-02  0.6145000E+05  0.1838374E+02
  0.1876190E+01 -0.7523430E+04  0.2999056E+03 -0.6180971E-03  0.5097628E-02  0.6159294E+05  0.6095819E+02
  0.1907143E+01 -0.7595316E+04  0.1791669E+02  0.1120121E-02 -0.2627969E-02  0.6174036E+05  0.1046668E+03
  0.1938095E+01 -0.7679021E+04 -0.2323071E+03 -0.4408928E-03  0.2080560E-02  0.6164668E+05  0.6212780E+02
  0.1969048E+01 -0.7769166E+04 -0.4941818E+03  0.8989217E-03 -0.1944065E-02  0.6154184E+05 -0.3587120E+01
  0.2000000E+01 -0.7861888E+04 -0.7972184E+03 -0.1129150E-02  0.2084732E-02  0.6150577E+05 -0.1174533E+02
