VARIABLES="w (rad/s)"
"abs(F   1   1)" "angle(F   1   1)"
"abs(F   1   2)" "angle(F   1   2)"
"abs(F   1   3)" "angle(F   1   3)"
Zone t="Diffraction force - beta =   0.000 deg",I=    64,F=POINT
  0.5000000E-01  0.1859150E+04 -0.1570794E+01  0.3888072E+03 -0.3073241E+01  0.1349082E+04  0.1570798E+01
  0.8095238E-01  0.3042718E+04 -0.1570790E+01  0.1003107E+04 -0.3070489E+01  0.2206485E+04  0.1570801E+01
  0.1119048E+00  0.4241660E+04 -0.1570783E+01  0.1901998E+04 -0.3067389E+01  0.3071056E+04  0.1570805E+01
  0.1428571E+00  0.5484553E+04 -0.1570772E+01  0.3084575E+04 -0.3063505E+01  0.3959901E+04  0.1570811E+01
  0.1738095E+00  0.6768129E+04 -0.1570757E+01  0.4563395E+04 -0.3058804E+01  0.4862181E+04  0.1570820E+01
  0.2047619E+00  0.8123057E+04 -0.1570735E+01  0.6339402E+04 -0.3052892E+01  0.5811616E+04  0.1570833E+01
  0.2357143E+00  0.9549441E+04 -0.1570704E+01  0.8435401E+04 -0.3045611E+01  0.6798906E+04  0.1570853E+01
  0.2666667E+00  0.1107457E+05 -0.1570657E+01  0.1085087E+05 -0.3036751E+01  0.7831376E+04  0.1570880E+01
  0.2976190E+00  0.1272910E+05 -0.1570588E+01  0.1359656E+05 -0.3025603E+01  0.8947603E+04  0.1570921E+01
  0.3285715E+00  0.1450984E+05 -0.1570485E+01  0.1670835E+05 -0.3012528E+01  0.1013606E+05  0.1570981E+01
  0.3595238E+00  0.1647726E+05 -0.1570333E+01  0.2016251E+05 -0.2996627E+01  0.1138068E+05  0.1571070E+01
  0.3904762E+00  0.1864235E+05 -0.1570106E+01  0.2396763E+05 -0.2977828E+01  0.1274251E+05  0.1571201E+01
  0.4214286E+00  0.2101841E+05 -0.1569775E+01  0.2807448E+05 -0.2956857E+01  0.1421799E+05  0.1571388E+01
  0.4523810E+00  0.2357158E+05 -0.1569289E+01  0.3253331E+05 -0.2932872E+01  0.1582037E+05  0.1571660E+01
  0.4833333E+00  0.2639675E+05 -0.1568622E+01  0.3720100E+05 -0.2908467E+01  0.1745002E+05  0.1572028E+01
  0.5142857E+00  0.2944871E+05 -0.1567701E+01  0.4207650E+05 -0.2881922E+01  0.1919844E+05  0.1572529E+01
  0.5452381E+00  0.3264593E+05 -0.1566478E+01  0.4718728E+05 -0.2855854E+01  0.2106495E+05  0.1573178E+01
  0.5761905E+00  0.3599791E+05 -0.1564897E+01  0.5247043E+05 -0.2830407E+01  0.2291951E+05  0.1573998E+01
  0.6071429E+00  0.3951486E+05 -0.1562874E+01  0.5785714E+05 -0.2804070E+01  0.2474457E+05  0.1575028E+01
  0.6380953E+00  0.4320248E+05 -0.1560380E+01  0.6338557E+05 -0.2779319E+01  0.2656664E+05  0.1576265E+01
  0.6690477E+00  0.4698180E+05 -0.1557310E+01  0.6902831E+05 -0.2755067E+01  0.2841112E+05  0.1577735E+01
  0.7000000E+00  0.5073943E+05 -0.1553548E+01  0.7476262E+05 -0.2730901E+01  0.3026095E+05  0.1579462E+01
  0.7309524E+00  0.5458101E+05 -0.1549068E+01  0.8060054E+05 -0.2707902E+01  0.3198347E+05  0.1581444E+01
  0.7619048E+00  0.5854291E+05 -0.1543794E+01  0.8645812E+05 -0.2685239E+01  0.3352545E+05  0.1583691E+01
  0.7928572E+00  0.6251980E+05 -0.1537615E+01  0.9228680E+05 -0.2662627E+01  0.3504965E+05  0.1586186E+01
  0.8238096E+00  0.6648501E+05 -0.1530452E+01  0.9812498E+05 -0.2640688E+01  0.3649629E+05  0.1588895E+01
  0.8547620E+00  0.7035944E+05 -0.1522207E+01  0.1039880E+06 -0.2619762E+01  0.3784744E+05  0.1591767E+01
  0.8857143E+00  0.7414730E+05 -0.1512833E+01  0.1098332E+06 -0.2599693E+01  0.3906090E+05  0.1594742E+01
  0.9166667E+00  0.7779198E+05 -0.1502269E+01  0.1156100E+06 -0.2580113E+01  0.4010547E+05  0.1597762E+01
  0.9476191E+00  0.8134520E+05 -0.1490539E+01  0.1212756E+06 -0.2560885E+01  0.4093558E+05  0.1600718E+01
  0.9785714E+00  0.8474270E+05 -0.1477609E+01  0.1268132E+06 -0.2542056E+01  0.4156674E+05  0.1603459E+01
  0.1009524E+01  0.8793193E+05 -0.1463474E+01  0.1322268E+06 -0.2523882E+01  0.4204160E+05  0.1605790E+01
  0.1040476E+01  0.9081186E+05 -0.1448083E+01  0.1375116E+06 -0.2506539E+01  0.4247270E+05  0.1607516E+01
  0.1071429E+01  0.9325723E+05 -0.1431365E+01  0.1426520E+06 -0.2489961E+01  0.4271536E+05  0.1608338E+01
  0.1102381E+01  0.9531352E+05 -0.1413492E+01  0.1476580E+06 -0.2474413E+01  0.4287382E+05  0.1608094E+01
  0.1133333E+01  0.9688277E+05 -0.1394528E+01  0.1524838E+06 -0.2459476E+01  0.4276830E+05  0.1606482E+01
  0.1164286E+01  0.9797941E+05 -0.1374704E+01  0.1571289E+06 -0.2445246E+01  0.4250741E+05  0.1603324E+01
  0.1195238E+01  0.9855062E+05 -0.1354129E+01  0.1615564E+06 -0.2431496E+01  0.4219353E+05  0.1598478E+01
  0.1226190E+01  0.9849697E+05 -0.1332832E+01  0.1657582E+06 -0.2418186E+01  0.4178771E+05  0.1591646E+01
  0.1257143E+01  0.9783465E+05 -0.1310861E+01  0.1697810E+06 -0.2405372E+01  0.4139418E+05  0.1582899E+01
  0.1288095E+01  0.9652966E+05 -0.1289183E+01  0.1734539E+06 -0.2393597E+01  0.4094451E+05  0.1572112E+01
  0.1319048E+01  0.9453546E+05 -0.1267285E+01  0.1769328E+06 -0.2382386E+01  0.4047864E+05  0.1559559E+01
  0.1350000E+01  0.9186537E+05 -0.1245798E+01  0.1801557E+06 -0.2371847E+01  0.4004073E+05  0.1545558E+01
  0.1380952E+01  0.8851841E+05 -0.1224920E+01  0.1831059E+06 -0.2362017E+01  0.3975213E+05  0.1531085E+01
  0.1411905E+01  0.8386435E+05 -0.1206567E+01  0.1842516E+06 -0.2349196E+01  0.3983702E+05  0.1518091E+01
  0.1442857E+01  0.7924605E+05 -0.1187700E+01  0.1866279E+06 -0.2340048E+01  0.3973132E+05  0.1504496E+01
  0.1473810E+01  0.7402866E+05 -0.1170773E+01  0.1887145E+06 -0.2331595E+01  0.3980464E+05  0.1492951E+01
  0.1504762E+01  0.6819129E+05 -0.1156144E+01  0.1905054E+06 -0.2323569E+01  0.3997938E+05  0.1483851E+01
  0.1535714E+01  0.6182746E+05 -0.1144963E+01  0.1919964E+06 -0.2316211E+01  0.4034036E+05  0.1478706E+01
  0.1566667E+01  0.5497450E+05 -0.1138663E+01  0.1931790E+06 -0.2309346E+01  0.4083735E+05  0.1477856E+01
  0.1597619E+01  0.4769567E+05 -0.1139197E+01  0.1940686E+06 -0.2302918E+01  0.4153153E+05  0.1482485E+01
  0.1628572E+01  0.4003607E+05 -0.1150567E+01  0.1946295E+06 -0.2296999E+01  0.4233491E+05  0.1492204E+01
  0.1659524E+01  0.3210128E+05 -0.1180759E+01  0.1948629E+06 -0.2291680E+01  0.4329622E+05  0.1507658E+01
  0.1690476E+01  0.2403539E+05 -0.1248941E+01  0.1947643E+06 -0.2287134E+01  0.4442176E+05  0.1528672E+01
  0.1721429E+01  0.1610929E+05 -0.1410741E+01  0.1943313E+06 -0.2283097E+01  0.4568897E+05  0.1554799E+01
  0.1752381E+01  0.9482033E+04 -0.1875933E+01  0.1935697E+06 -0.2279593E+01  0.4713311E+05  0.1585800E+01
  0.1783333E+01  0.8894864E+04 -0.2884278E+01  0.1924685E+06 -0.2276733E+01  0.4874212E+05  0.1620948E+01
  0.1814286E+01  0.1530068E+05  0.2850336E+01  0.1910636E+06 -0.2274289E+01  0.5045023E+05  0.1659500E+01
  0.1845238E+01  0.2359899E+05  0.2661852E+01  0.1893621E+06 -0.2272201E+01  0.5234842E+05  0.1701247E+01
  0.1876190E+01  0.3236760E+05  0.2579967E+01  0.1873064E+06 -0.2270697E+01  0.5441751E+05  0.1745108E+01
  0.1907143E+01  0.4125529E+05  0.2538497E+01  0.1849216E+06 -0.2269695E+01  0.5669235E+05  0.1790483E+01
  0.1938095E+01  0.5014245E+05  0.2515912E+01  0.1822100E+06 -0.2269523E+01  0.5912923E+05  0.1836549E+01
  0.1969048E+01  0.5896985E+05  0.2503136E+01  0.1791463E+06 -0.2270110E+01  0.6167390E+05  0.1882627E+01
  0.2000000E+01  0.6762773E+05  0.2496084E+01  0.1757727E+06 -0.2271086E+01  0.6450968E+05  0.1928685E+01
