VARIABLES="w (rad/s)"
"A   1   1" "B   1   1"
"A   1   2" "B   1   2"
"A   1   3" "B   1   3"
Zone t="Motion of body    1 in DoF   1",I=    64,F=POINT
  0.5000000E-01  0.1140834E+06  0.6373819E-02 -0.1628876E-01 -0.1751143E-04 -0.9580367E+05 -0.3974932E-02
  0.8095238E-01  0.1146309E+06  0.2774955E-01 -0.2469231E-01 -0.9563842E-04 -0.9654496E+05 -0.1760228E-01
  0.1119048E+00  0.1150147E+06  0.7826035E-01  0.2590748E-02  0.1286040E-04 -0.9677300E+05 -0.4915770E-01
  0.1428571E+00  0.1152931E+06  0.1763503E+00 -0.1441955E-02  0.7999176E-04 -0.9674835E+05 -0.1108501E+00
  0.1738095E+00  0.1153615E+06  0.3509977E+00 -0.4543148E-02 -0.5908241E-04 -0.9689429E+05 -0.2201002E+00
  0.2047619E+00  0.1155164E+06  0.6483952E+00 -0.1564913E-01 -0.3414089E-04 -0.9690435E+05 -0.4058161E+00
  0.2357143E+00  0.1157735E+06  0.1143432E+01  0.1168453E-01  0.1732851E-03 -0.9695622E+05 -0.7139577E+00
  0.2666667E+00  0.1158956E+06  0.1952333E+01  0.1238823E-01  0.2880916E-03 -0.9711120E+05 -0.1217241E+01
  0.2976190E+00  0.1161913E+06  0.3279784E+01  0.5588379E-02 -0.1009088E-04 -0.9711693E+05 -0.2037358E+01
  0.3285715E+00  0.1165147E+06  0.5437130E+01  0.1616105E-01  0.3256872E-03 -0.9718862E+05 -0.3366072E+01
  0.3595238E+00  0.1167365E+06  0.8939187E+01  0.1510923E-01  0.2287403E-03 -0.9737791E+05 -0.5521019E+01
  0.3904762E+00  0.1169793E+06  0.1459241E+02  0.1633435E-01  0.4923344E-03 -0.9749774E+05 -0.8982509E+01
  0.4214286E+00  0.1175536E+06  0.2355157E+02 -0.1922607E-01 -0.1208022E-02 -0.9750226E+05 -0.1440692E+02
  0.4523810E+00  0.1179866E+06  0.3764795E+02 -0.2273399E-01 -0.7607937E-03 -0.9773177E+05 -0.2294377E+02
  0.4833333E+00  0.1183935E+06  0.5869047E+02  0.7103229E-02  0.2532899E-03 -0.9795510E+05 -0.3561908E+02
  0.5142857E+00  0.1189668E+06  0.9007201E+02 -0.9642707E-02 -0.1311749E-02 -0.9812982E+05 -0.5436459E+02
  0.5452381E+00  0.1196018E+06  0.1349962E+03 -0.8983362E-02 -0.1437843E-02 -0.9828959E+05 -0.8097742E+02
  0.5761905E+00  0.1202155E+06  0.1975535E+03 -0.3283792E-02  0.1229346E-02 -0.9855718E+05 -0.1178638E+03
  0.6071429E+00  0.1208935E+06  0.2838907E+03 -0.1045496E-01 -0.3526330E-02 -0.9891820E+05 -0.1685211E+03
  0.6380953E+00  0.1216095E+06  0.3990150E+03  0.3118259E-01  0.2869248E-02 -0.9924463E+05 -0.2354644E+03
  0.6690477E+00  0.1224701E+06  0.5515925E+03  0.2440320E-01  0.5138636E-02 -0.9939427E+05 -0.3227890E+03
  0.7000000E+00  0.1234187E+06  0.7514213E+03 -0.2179827E-02 -0.8025169E-03 -0.9981418E+05 -0.4368233E+03
  0.7309524E+00  0.1243148E+06  0.1007632E+04  0.2505026E-03  0.1241207E-02 -0.1002311E+06 -0.5818853E+03
  0.7619048E+00  0.1252884E+06  0.1333855E+04  0.3765106E-02 -0.1684189E-02 -0.1006417E+06 -0.7646553E+03
  0.7928572E+00  0.1263835E+06  0.1745071E+04 -0.1528078E-01 -0.7995605E-02 -0.1010929E+06 -0.9926287E+03
  0.8238096E+00  0.1275007E+06  0.2257530E+04 -0.3482179E-02  0.2054214E-02 -0.1014585E+06 -0.1272823E+04
  0.8547620E+00  0.1288009E+06  0.2891508E+04  0.2252860E-01  0.8211136E-02 -0.1019038E+06 -0.1615273E+04
  0.8857143E+00  0.1300560E+06  0.3666260E+04  0.8407100E-02  0.2113342E-02 -0.1023366E+06 -0.2029151E+04
  0.9166667E+00  0.1314036E+06  0.4606863E+04 -0.9521484E-02 -0.3931046E-02 -0.1028800E+06 -0.2526980E+04
  0.9476191E+00  0.1326901E+06  0.5736033E+04  0.9661343E-04 -0.2567291E-02 -0.1033728E+06 -0.3117195E+04
  0.9785714E+00  0.1340611E+06  0.7084638E+04  0.4428390E-02  0.2132416E-02 -0.1039049E+06 -0.3813489E+04
  0.1009524E+01  0.1354324E+06  0.8679366E+04  0.1185003E-01 -0.2326965E-03 -0.1043273E+06 -0.4621815E+04
  0.1040476E+01  0.1368772E+06  0.1055332E+05 -0.3490317E-02 -0.2086639E-02 -0.1046806E+06 -0.5553438E+04
  0.1071429E+01  0.1383353E+06  0.1273914E+05 -0.5411784E-02 -0.1243591E-02 -0.1050767E+06 -0.6625251E+04
  0.1102381E+01  0.1396394E+06  0.1525973E+05  0.8858666E-03 -0.6492615E-02 -0.1054032E+06 -0.7843064E+04
  0.1133333E+01  0.1409486E+06  0.1815227E+05  0.5223891E-02 -0.1968384E-02 -0.1057649E+06 -0.9220208E+04
  0.1164286E+01  0.1420598E+06  0.2143432E+05 -0.4246249E-02  0.3303528E-02 -0.1059883E+06 -0.1075449E+05
  0.1195238E+01  0.1430672E+06  0.2512591E+05  0.1072371E-02  0.6896973E-02 -0.1061109E+06 -0.1244271E+05
  0.1226190E+01  0.1439269E+06  0.2924547E+05  0.5425611E-02 -0.3280640E-02 -0.1061931E+06 -0.1429671E+05
  0.1257143E+01  0.1443964E+06  0.3377115E+05  0.1131231E-01  0.7431030E-02 -0.1060609E+06 -0.1628683E+05
  0.1288095E+01  0.1448847E+06  0.3874719E+05 -0.3553803E-02  0.2059937E-02 -0.1058305E+06 -0.1841478E+05
  0.1319048E+01  0.1450477E+06  0.4411629E+05  0.3701771E-03 -0.2426147E-02 -0.1054300E+06 -0.2064670E+05
  0.1350000E+01  0.1448473E+06  0.4985800E+05  0.8409288E-02  0.1545715E-01 -0.1048221E+06 -0.2296164E+05
  0.1380952E+01  0.1443588E+06  0.5593477E+05 -0.5966713E-02 -0.2038574E-01 -0.1041368E+06 -0.2535085E+05
  0.1411905E+01  0.1426628E+06  0.6156191E+05  0.3977063E-02 -0.1434326E-02 -0.1032915E+06 -0.2754642E+05
  0.1442857E+01  0.1414290E+06  0.6804842E+05 -0.1903572E-02  0.4180908E-02 -0.1023378E+06 -0.2994637E+05
  0.1473810E+01  0.1397843E+06  0.7465923E+05  0.3313055E-03 -0.1831055E-03 -0.1012116E+06 -0.3229240E+05
  0.1504762E+01  0.1378577E+06  0.8132169E+05 -0.1030258E-01 -0.1620483E-01 -0.1000236E+06 -0.3457264E+05
  0.1535714E+01  0.1355511E+06  0.8788820E+05 -0.5882085E-02 -0.7293701E-02 -0.9863566E+05 -0.3666514E+05
  0.1566667E+01  0.1329388E+06  0.9433548E+05 -0.6700881E-02 -0.8117676E-02 -0.9717863E+05 -0.3862009E+05
  0.1597619E+01  0.1300713E+06  0.1005203E+06 -0.9207121E-02 -0.2197266E-02 -0.9561388E+05 -0.4034228E+05
  0.1628572E+01  0.1270095E+06  0.1064217E+06 -0.3185607E-02  0.4821777E-02 -0.9403123E+05 -0.4184370E+05
  0.1659524E+01  0.1237369E+06  0.1119560E+06 -0.8091317E-02 -0.1989746E-01 -0.9240218E+05 -0.4309658E+05
  0.1690476E+01  0.1202876E+06  0.1170576E+06  0.5018637E-02  0.1342773E-02 -0.9071967E+05 -0.4406232E+05
  0.1721429E+01  0.1168059E+06  0.1217370E+06 -0.6240275E-02  0.1367188E-01 -0.8914841E+05 -0.4482130E+05
  0.1752381E+01  0.1133256E+06  0.1259662E+06 -0.3134686E-02  0.7019043E-02 -0.8766302E+05 -0.4535514E+05
  0.1783333E+01  0.1097374E+06  0.1296233E+06 -0.3354082E-02  0.8544922E-03 -0.8610516E+05 -0.4553619E+05
  0.1814286E+01  0.1062253E+06  0.1328062E+06  0.5786325E-02  0.7873535E-02 -0.8466984E+05 -0.4551846E+05
  0.1845238E+01  0.1027876E+06  0.1354760E+06  0.7111580E-02  0.1873779E-01 -0.8329395E+05 -0.4523962E+05
  0.1876190E+01  0.9947660E+05  0.1377137E+06 -0.1919354E-02 -0.4150391E-02 -0.8206886E+05 -0.4481714E+05
  0.1907143E+01  0.9624989E+05  0.1395039E+06 -0.2928316E-02  0.2099609E-01 -0.8094141E+05 -0.4422275E+05
  0.1938095E+01  0.9310233E+05  0.1408026E+06 -0.9762626E-03 -0.6652832E-02 -0.7981428E+05 -0.4335164E+05
  0.1969048E+01  0.9011809E+05  0.1417381E+06 -0.6850403E-02 -0.1159668E-02 -0.7882957E+05 -0.4238555E+05
  0.2000000E+01  0.8732177E+05  0.1423625E+06 -0.2304077E-02 -0.9948730E-02 -0.7799897E+05 -0.4137073E+05
Zone t="Motion of body    1 in DoF   2",I=    64,F=POINT
  0.5000000E-01 -0.1525879E-03 -0.1573563E-04  0.8782794E+05  0.2253778E+03  0.1205444E-01  0.3862381E-04
  0.8095238E-01  0.9942896E-02 -0.3504753E-04  0.8687983E+05  0.3739402E+03 -0.6691427E-02  0.3695488E-04
  0.1119048E+00  0.2590748E-02 -0.5722046E-05  0.8638124E+05  0.5360238E+03 -0.7567710E-02  0.3910065E-04
  0.1428571E+00  0.1014709E-01  0.4673004E-04  0.8614607E+05  0.7178406E+03  0.2680969E-01 -0.1802444E-03
  0.1738095E+00  0.9305771E-02 -0.1306534E-03  0.8613559E+05  0.9275545E+03  0.1417813E-01 -0.2765656E-04
  0.2047619E+00 -0.5365416E-02  0.9822845E-04  0.8629256E+05  0.1174967E+04 -0.2533669E-02 -0.1373291E-03
  0.2357143E+00  0.2265699E-02  0.2002716E-04  0.8658369E+05  0.1474190E+04 -0.1598936E-01 -0.1239777E-03
  0.2666667E+00  0.4348755E-02 -0.3623962E-04  0.8700966E+05  0.1837671E+04 -0.8354187E-02  0.1029968E-03
  0.2976190E+00 -0.5639648E-03 -0.2708435E-03  0.8748937E+05  0.2291412E+04 -0.1676514E-01  0.6847382E-03
  0.3285715E+00 -0.1625393E-01  0.5722046E-04  0.8805689E+05  0.2851097E+04 -0.1486073E-01 -0.1296997E-03
  0.3595238E+00  0.5432533E-02 -0.4501343E-03  0.8860164E+05  0.3548305E+04 -0.8997632E-02  0.1464844E-02
  0.3904762E+00 -0.3282500E-02  0.6866455E-03  0.8915698E+05  0.4409723E+04 -0.9378572E-02 -0.1277924E-02
  0.4214286E+00  0.9413896E-03  0.1602173E-03  0.8949769E+05  0.5427695E+04 -0.1202082E-01  0.3967285E-03
  0.4523810E+00 -0.2293637E-02 -0.6065369E-03  0.8975433E+05  0.6655431E+04 -0.7083290E-02  0.9384155E-03
  0.4833333E+00 -0.1591123E-01 -0.6637573E-03  0.8975437E+05  0.7999358E+04  0.1029179E-01 -0.3967285E-03
  0.5142857E+00 -0.1335144E-01 -0.6179810E-03  0.8950759E+05  0.9520799E+04  0.2682156E-01 -0.3585815E-03
  0.5452381E+00  0.1175393E-02 -0.2059937E-02  0.8906949E+05  0.1114451E+05  0.8675521E-02  0.3738403E-03
  0.5761905E+00 -0.3124899E-02 -0.1106262E-02  0.8845500E+05  0.1284395E+05 -0.1202292E-01  0.3845215E-02
  0.6071429E+00 -0.5378274E-02 -0.1159668E-02  0.8766648E+05  0.1465540E+05  0.5529067E-03 -0.2258301E-02
  0.6380953E+00  0.1066521E-01  0.5340576E-03  0.8678634E+05  0.1648667E+05 -0.8752168E-02 -0.5798340E-03
  0.6690477E+00  0.1733311E-02 -0.2029419E-02  0.8576588E+05  0.1837563E+05  0.3649077E-02 -0.3204346E-03
  0.7000000E+00 -0.3356933E-02  0.8544922E-03  0.8461812E+05  0.2032684E+05 -0.6539481E-03  0.2563477E-02
  0.7309524E+00  0.1753518E-02  0.2899170E-03  0.8343312E+05  0.2228855E+05  0.1273388E-01  0.8361816E-02
  0.7619048E+00  0.1105499E-01 -0.8239746E-03  0.8217684E+05  0.2427077E+05  0.8611678E-02  0.9307861E-03
  0.7928572E+00 -0.1570418E-01  0.3692627E-02  0.8082762E+05  0.2626954E+05  0.4003026E-02  0.7019043E-03
  0.8238096E+00  0.1007609E-01 -0.1434326E-02  0.7939635E+05  0.2827219E+05 -0.9112936E-02 -0.5798340E-03
  0.8547620E+00  0.9746923E-02 -0.1037598E-02  0.7793993E+05  0.3025928E+05 -0.6426543E-03 -0.2807617E-02
  0.8857143E+00  0.1743440E-01 -0.2502441E-02  0.7645248E+05  0.3222288E+05  0.1364431E-01 -0.2288818E-02
  0.9166667E+00 -0.4128196E-02 -0.1434326E-02  0.7494455E+05  0.3415152E+05  0.5792791E-02 -0.4119873E-02
  0.9476191E+00  0.9274890E-02  0.5493164E-02  0.7339946E+05  0.3604268E+05  0.4250991E-02  0.6103516E-04
  0.9785714E+00  0.3679930E-02 -0.2777100E-02  0.7184508E+05  0.3788457E+05  0.3555187E-02 -0.1434326E-02
  0.1009524E+01  0.4232155E-03 -0.7690430E-02  0.7027049E+05  0.3967684E+05 -0.1983067E-01 -0.5798340E-02
  0.1040476E+01  0.4106255E-03  0.6622314E-02  0.6870170E+05  0.4140671E+05 -0.1425457E-01 -0.2166748E-02
  0.1071429E+01  0.2335612E-02 -0.1647949E-02  0.6714574E+05  0.4306921E+05  0.1367188E-02 -0.4150391E-02
  0.1102381E+01  0.2103933E-02 -0.2655029E-02  0.6559716E+05  0.4466526E+05 -0.1688683E-01 -0.8972168E-02
  0.1133333E+01  0.7108801E-02 -0.3570557E-02  0.6407868E+05  0.4617945E+05  0.1615636E-03  0.6103516E-03
  0.1164286E+01  0.4822901E-02  0.7507324E-02  0.6259405E+05  0.4761975E+05  0.1625108E-02 -0.2014160E-02
  0.1195238E+01  0.4851201E-03  0.5249023E-02  0.6113949E+05  0.4897943E+05 -0.5566115E-02 -0.1708984E-02
  0.1226190E+01  0.6371359E-02  0.9155273E-03  0.5972808E+05  0.5026224E+05  0.1448489E-01 -0.1647949E-02
  0.1257143E+01  0.7282603E-04 -0.3295898E-02  0.5834972E+05  0.5151037E+05 -0.1456521E-03  0.4821777E-02
  0.1288095E+01  0.4714712E-02  0.6469727E-02  0.5698903E+05  0.5261746E+05 -0.5591317E-02  0.1678467E-01
  0.1319048E+01  0.2475559E-02  0.5310059E-02  0.5567688E+05  0.5367791E+05  0.7149045E-02  0.2319336E-02
  0.1350000E+01  0.1627604E-02 -0.3662109E-03  0.5441384E+05  0.5466927E+05  0.1392506E-01  0.1525879E-02
  0.1380952E+01 -0.3115950E-02 -0.5493164E-03  0.5320272E+05  0.5557833E+05 -0.2033102E-02  0.3845215E-02
  0.1411905E+01 -0.4236436E-02  0.1110840E-01  0.5198748E+05  0.5647122E+05  0.1448170E-01  0.6225586E-02
  0.1442857E+01  0.4653175E-02 -0.1831055E-03  0.5086843E+05  0.5726336E+05  0.7085517E-02 -0.1464844E-02
  0.1473810E+01 -0.3582241E-02  0.2929688E-02  0.4978905E+05  0.5800002E+05  0.1476380E-01 -0.1464844E-02
  0.1504762E+01  0.4887641E-02  0.6469727E-02  0.4875719E+05  0.5867789E+05  0.3528836E-02  0.2502441E-02
  0.1535714E+01  0.3358353E-02  0.5065918E-02  0.4776705E+05  0.5930197E+05  0.2762195E-02 -0.3662109E-03
  0.1566667E+01 -0.9739652E-04 -0.3906250E-02  0.4683204E+05  0.5989122E+05 -0.2395954E-02  0.8850098E-02
  0.1597619E+01 -0.1852885E-02  0.3723145E-02  0.4592133E+05  0.6043386E+05  0.5902491E-02 -0.7324219E-03
  0.1628572E+01 -0.4178767E-02 -0.1751709E-01  0.4504636E+05  0.6094299E+05  0.4328677E-02 -0.2441406E-03
  0.1659524E+01 -0.3585925E-02 -0.1055908E-01  0.4421188E+05  0.6142146E+05  0.5811037E-02 -0.4272461E-03
  0.1690476E+01 -0.2328792E-02  0.1770020E-02  0.4339256E+05  0.6187750E+05 -0.9892853E-02 -0.2929688E-02
  0.1721429E+01  0.5141136E-03 -0.2502441E-02  0.4261343E+05  0.6230176E+05 -0.3900172E-03 -0.5249023E-02
  0.1752381E+01  0.4144752E-02 -0.8117676E-02  0.4185583E+05  0.6268541E+05 -0.1086691E-01 -0.1177979E-01
  0.1783333E+01 -0.4569081E-02 -0.8666992E-02  0.4111460E+05  0.6306683E+05  0.8385204E-03  0.2563477E-02
  0.1814286E+01  0.2052127E-02  0.4699707E-02  0.4039970E+05  0.6341620E+05  0.2253975E-02 -0.3234863E-02
  0.1845238E+01  0.3092710E-02  0.5065918E-02  0.3968976E+05  0.6372557E+05  0.8765436E-03  0.1452637E-01
  0.1876190E+01  0.8132858E-03  0.5004883E-02  0.3899529E+05  0.6399896E+05 -0.4180289E-02 -0.2380371E-02
  0.1907143E+01 -0.6648717E-02 -0.4516602E-02  0.3831241E+05  0.6426226E+05  0.4944534E-02 -0.4272461E-02
  0.1938095E+01  0.1079400E-01 -0.4516602E-02  0.3761788E+05  0.6447146E+05 -0.2007637E-02 -0.6713867E-03
  0.1969048E+01 -0.4200134E-02 -0.2502441E-02  0.3694111E+05  0.6463126E+05 -0.3479447E-02 -0.3845215E-02
  0.2000000E+01 -0.8773804E-03  0.3601074E-02  0.3627310E+05  0.6473003E+05  0.2952576E-02 -0.2075195E-02
Zone t="Motion of body    1 in DoF   3",I=    64,F=POINT
  0.5000000E-01 -0.9504372E+05 -0.3869489E-02  0.1677714E-01  0.4096684E-05  0.1803412E+06  0.2385995E-02
  0.8095238E-01 -0.9576820E+05 -0.1682595E-01 -0.4831920E-02 -0.2707453E-04  0.1814090E+06  0.1076394E-01
  0.1119048E+00 -0.9607184E+05 -0.4755442E-01 -0.2298330E-03 -0.5438369E-04  0.1815030E+06  0.2986456E-01
  0.1428571E+00 -0.9604525E+05 -0.1070161E+00  0.1546347E-01  0.1094958E-03  0.1816321E+06  0.6738083E-01
  0.1738095E+00 -0.9619917E+05 -0.2125018E+00 -0.1080249E-01  0.6821763E-05  0.1815525E+06  0.1327923E+00
  0.2047619E+00 -0.9619270E+05 -0.3922172E+00  0.1609610E-01  0.8659088E-04  0.1816277E+06  0.2453177E+00
  0.2357143E+00 -0.9626123E+05 -0.6901790E+00 -0.2078526E-01 -0.2311666E-03  0.1816392E+06  0.4309331E+00
  0.2666667E+00 -0.9640303E+05 -0.1175465E+01  0.4379783E-02 -0.1643379E-03  0.1816271E+06  0.7333146E+00
  0.2976190E+00 -0.9640505E+05 -0.1968378E+01  0.2348986E-02 -0.1136167E-03  0.1817082E+06  0.1222882E+01
  0.3285715E+00 -0.9647762E+05 -0.3253457E+01 -0.2612723E-01 -0.1738612E-03  0.1817706E+06  0.2015470E+01
  0.3595238E+00 -0.9666502E+05 -0.5330011E+01  0.2459743E-01  0.3911667E-03  0.1816963E+06  0.3292902E+01
  0.3904762E+00 -0.9675463E+05 -0.8666478E+01  0.9757287E-02  0.5937405E-03  0.1817882E+06  0.5334888E+01
  0.4214286E+00 -0.9676260E+05 -0.1392888E+02  0.3402007E-01  0.1307450E-02  0.1819651E+06  0.8517441E+01
  0.4523810E+00 -0.9700301E+05 -0.2216960E+02  0.2142274E-01  0.1047291E-02  0.1819339E+06  0.1351056E+02
  0.4833333E+00 -0.9720495E+05 -0.3438758E+02  0.1243756E-01  0.6002784E-03  0.1819997E+06  0.2086528E+02
  0.5142857E+00 -0.9736497E+05 -0.5250938E+02 -0.9479524E-02  0.8353889E-03  0.1821583E+06  0.3169297E+02
  0.5452381E+00 -0.9752227E+05 -0.7827629E+02 -0.2106656E-01 -0.1657844E-02  0.1822758E+06  0.4695448E+02
  0.5761905E+00 -0.9778830E+05 -0.1138793E+03  0.7289224E-02  0.5514622E-03  0.1823214E+06  0.6794449E+02
  0.6071429E+00 -0.9813441E+05 -0.1626344E+03  0.1259748E-01  0.1021981E-02  0.1823998E+06  0.9655833E+02
  0.6380953E+00 -0.9842045E+05 -0.2271146E+03  0.1594999E-01  0.4971027E-02  0.1826110E+06  0.1340154E+03
  0.6690477E+00 -0.9857391E+05 -0.3118788E+03 -0.4201427E-02 -0.3505945E-03  0.1827553E+06  0.1824986E+03
  0.7000000E+00 -0.9898665E+05 -0.4217974E+03  0.2807753E-01  0.5340338E-02  0.1829081E+06  0.2452211E+03
  0.7309524E+00 -0.9938090E+05 -0.5612749E+03 -0.3577359E-01 -0.1103401E-01  0.1830029E+06  0.3241163E+03
  0.7619048E+00 -0.9976324E+05 -0.7371012E+03 -0.2105105E-01 -0.8632898E-02  0.1831600E+06  0.4225403E+03
  0.7928572E+00 -0.1001842E+06 -0.9563820E+03  0.1495121E-01  0.1191711E-01  0.1833480E+06  0.5440015E+03
  0.8238096E+00 -0.1005279E+06 -0.1226833E+04  0.1038865E-01  0.9299278E-02  0.1835492E+06  0.6917289E+03
  0.8547620E+00 -0.1009660E+06 -0.1557351E+04 -0.7243249E-02 -0.7600784E-03  0.1837694E+06  0.8699205E+03
  0.8857143E+00 -0.1013793E+06 -0.1956182E+04  0.3486449E-02  0.9597778E-02  0.1839335E+06  0.1082698E+04
  0.9166667E+00 -0.1018994E+06 -0.2433206E+04  0.2687697E-01  0.9140015E-02  0.1840320E+06  0.1334556E+04
  0.9476191E+00 -0.1023514E+06 -0.2998444E+04 -0.3177576E-01 -0.1415634E-01  0.1841600E+06  0.1629375E+04
  0.9785714E+00 -0.1028392E+06 -0.3664527E+04  0.1855168E-01  0.1906395E-01  0.1843608E+06  0.1972539E+04
  0.1009524E+01 -0.1032245E+06 -0.4441710E+04  0.1780528E-01  0.1205444E-01  0.1845695E+06  0.2364941E+04
  0.1040476E+01 -0.1035783E+06 -0.5340478E+04  0.2034063E-01  0.1697540E-01  0.1846770E+06  0.2810317E+04
  0.1071429E+01 -0.1039564E+06 -0.6371435E+04 -0.3107859E-01 -0.3590965E-01  0.1848188E+06  0.3312822E+04
  0.1102381E+01 -0.1042560E+06 -0.7538400E+04 -0.2028496E-01 -0.1618195E-01  0.1848417E+06  0.3874316E+04
  0.1133333E+01 -0.1045887E+06 -0.8850359E+04 -0.9549085E-02 -0.1391602E-01  0.1848435E+06  0.4494427E+04
  0.1164286E+01 -0.1047736E+06 -0.1031331E+05  0.2054320E-02 -0.6275177E-02  0.1848220E+06  0.5174699E+04
  0.1195238E+01 -0.1048739E+06 -0.1192262E+05 -0.8001289E-02 -0.1393890E-01  0.1847057E+06  0.5903608E+04
  0.1226190E+01 -0.1049195E+06 -0.1368206E+05 -0.9749922E-02 -0.2010345E-01  0.1846056E+06  0.6687414E+04
  0.1257143E+01 -0.1047552E+06 -0.1557091E+05 -0.1124252E-01 -0.1480103E-01  0.1844607E+06  0.7506872E+04
  0.1288095E+01 -0.1045305E+06 -0.1761081E+05 -0.1377987E-01 -0.2067566E-02  0.1842839E+06  0.8368986E+04
  0.1319048E+01 -0.1041444E+06 -0.1974390E+05  0.6530155E-02  0.2548218E-02  0.1839966E+06  0.9236269E+04
  0.1350000E+01 -0.1035620E+06 -0.2196917E+05 -0.7318567E-02 -0.2618408E-01  0.1836586E+06  0.1011143E+05
  0.1380952E+01 -0.1028842E+06 -0.2423196E+05  0.4621440E-02  0.2385712E-01  0.1832047E+06  0.1097885E+05
  0.1411905E+01 -0.1032568E+06 -0.2702366E+05 -0.1681876E-01 -0.3831482E-01  0.1828384E+06  0.1208736E+05
  0.1442857E+01 -0.1023033E+06 -0.2934635E+05  0.2479931E-02  0.4470825E-02  0.1822651E+06  0.1291110E+05
  0.1473810E+01 -0.1011836E+06 -0.3162553E+05 -0.1096414E-01 -0.1249695E-01  0.1816479E+06  0.1367724E+05
  0.1504762E+01 -0.1000012E+06 -0.3381175E+05  0.1575555E-01 -0.6103516E-02  0.1810284E+06  0.1438085E+05
  0.1535714E+01 -0.9864272E+05 -0.3585726E+05  0.7140226E-02  0.2162170E-01  0.1803378E+06  0.1494655E+05
  0.1566667E+01 -0.9720960E+05 -0.3777329E+05  0.1253493E-01  0.1918030E-01  0.1797503E+06  0.1545860E+05
  0.1597619E+01 -0.9567118E+05 -0.3944496E+05 -0.1726223E-02 -0.2398682E-01  0.1790437E+06  0.1583971E+05
  0.1628572E+01 -0.9411541E+05 -0.4089862E+05  0.5448324E-02  0.3016663E-01  0.1783560E+06  0.1606610E+05
  0.1659524E+01 -0.9252732E+05 -0.4212382E+05 -0.7001748E-02 -0.1698303E-01  0.1777097E+06  0.1619410E+05
  0.1690476E+01 -0.9088895E+05 -0.4309781E+05 -0.1754266E-01 -0.6072998E-02  0.1770501E+06  0.1619850E+05
  0.1721429E+01 -0.8935283E+05 -0.4381162E+05 -0.8017513E-02 -0.6729126E-02  0.1764743E+06  0.1610449E+05
  0.1752381E+01 -0.8788933E+05 -0.4424719E+05  0.8668278E-02 -0.4333496E-02  0.1759046E+06  0.1589490E+05
  0.1783333E+01 -0.8638798E+05 -0.4445234E+05  0.9839780E-04 -0.1177979E-01  0.1753556E+06  0.1556164E+05
  0.1814286E+01 -0.8499317E+05 -0.4444286E+05  0.6404486E-02 -0.2033997E-01  0.1749264E+06  0.1518519E+05
  0.1845238E+01 -0.8365105E+05 -0.4415034E+05 -0.7421678E-02 -0.6896973E-02  0.1744321E+06  0.1466226E+05
  0.1876190E+01 -0.8245072E+05 -0.4366886E+05 -0.4294149E-02 -0.1017761E-01  0.1740415E+06  0.1409567E+05
  0.1907143E+01 -0.8136088E+05 -0.4304859E+05  0.9417016E-02  0.7705688E-02  0.1737912E+06  0.1353894E+05
  0.1938095E+01 -0.8027285E+05 -0.4221754E+05  0.9101287E-02  0.1487732E-01  0.1734593E+06  0.1285517E+05
  0.1969048E+01 -0.7932225E+05 -0.4128345E+05  0.2278301E-02  0.4425049E-02  0.1732429E+06  0.1218084E+05
  0.2000000E+01 -0.7851365E+05 -0.4024530E+05 -0.5508423E-02 -0.9643555E-02  0.1731198E+06  0.1151702E+05
