VARIABLES="w (rad/s)"
"abs(F   1   1)" "angle(F   1   1)"
"abs(F   1   2)" "angle(F   1   2)"
"abs(F   1   3)" "angle(F   1   3)"
Zone t="Diffraction force - beta =   0.000 deg",I=    64,F=POINT
  0.5000000E-01  0.7709565E+04 -0.1570788E+01  0.4845495E+03 -0.3090281E+01  0.3366267E+05  0.1570805E+01
  0.8095238E-01  0.1258577E+05 -0.1570774E+01  0.1248582E+04 -0.3088456E+01  0.5489679E+05  0.1570819E+01
  0.1119048E+00  0.1757814E+05 -0.1570751E+01  0.2363648E+04 -0.3086525E+01  0.7659276E+05  0.1570842E+01
  0.1428571E+00  0.2269942E+05 -0.1570716E+01  0.3820652E+04 -0.3084084E+01  0.9887795E+05  0.1570876E+01
  0.1738095E+00  0.2805390E+05 -0.1570666E+01  0.5616928E+04 -0.3081139E+01  0.1220016E+06  0.1570926E+01
  0.2047619E+00  0.3367000E+05 -0.1570594E+01  0.7759458E+04 -0.3077520E+01  0.1462294E+06  0.1570998E+01
  0.2357143E+00  0.3961758E+05 -0.1570490E+01  0.1020677E+05 -0.3072800E+01  0.1717514E+06  0.1571102E+01
  0.2666667E+00  0.4599464E+05 -0.1570340E+01  0.1298853E+05 -0.3067403E+01  0.1989708E+06  0.1571253E+01
  0.2976190E+00  0.5287690E+05 -0.1570118E+01  0.1604951E+05 -0.3060400E+01  0.2283807E+06  0.1571474E+01
  0.3285715E+00  0.6040075E+05 -0.1569793E+01  0.1941008E+05 -0.3052433E+01  0.2602377E+06  0.1571799E+01
  0.3595238E+00  0.6866719E+05 -0.1569313E+01  0.2296242E+05 -0.3042572E+01  0.2949912E+06  0.1572279E+01
  0.3904762E+00  0.7777923E+05 -0.1568605E+01  0.2678437E+05 -0.3031348E+01  0.3332558E+06  0.1572986E+01
  0.4214286E+00  0.8780583E+05 -0.1567586E+01  0.3059852E+05 -0.3018692E+01  0.3752892E+06  0.1574002E+01
  0.4523810E+00  0.9900070E+05 -0.1566116E+01  0.3461952E+05 -0.3004295E+01  0.4214263E+06  0.1575473E+01
  0.4833333E+00  0.1110764E+06 -0.1564113E+01  0.3844562E+05 -0.2990045E+01  0.4710897E+06  0.1577472E+01
  0.5142857E+00  0.1242402E+06 -0.1561381E+01  0.4226171E+05 -0.2974650E+01  0.5248312E+06  0.1580202E+01
  0.5452381E+00  0.1382613E+06 -0.1557814E+01  0.4597418E+05 -0.2959948E+01  0.5819167E+06  0.1583761E+01
  0.5761905E+00  0.1532562E+06 -0.1553286E+01  0.4939346E+05 -0.2945489E+01  0.6419673E+06  0.1588283E+01
  0.6071429E+00  0.1692619E+06 -0.1547576E+01  0.5275270E+05 -0.2930965E+01  0.7053631E+06  0.1593990E+01
  0.6380953E+00  0.1856215E+06 -0.1540595E+01  0.5576779E+05 -0.2917800E+01  0.7697267E+06  0.1600958E+01
  0.6690477E+00  0.2027249E+06 -0.1532150E+01  0.5850624E+05 -0.2904697E+01  0.8369840E+06  0.1609369E+01
  0.7000000E+00  0.2207734E+06 -0.1522078E+01  0.6110893E+05 -0.2891993E+01  0.9061499E+06  0.1619423E+01
  0.7309524E+00  0.2389641E+06 -0.1510212E+01  0.6331219E+05 -0.2880067E+01  0.9742414E+06  0.1631283E+01
  0.7619048E+00  0.2577595E+06 -0.1496392E+01  0.6513546E+05 -0.2868028E+01  0.1044414E+07  0.1645069E+01
  0.7928572E+00  0.2769168E+06 -0.1480451E+01  0.6676275E+05 -0.2856626E+01  0.1114220E+07  0.1660991E+01
  0.8238096E+00  0.2962069E+06 -0.1462229E+01  0.6822434E+05 -0.2846086E+01  0.1184506E+07  0.1679132E+01
  0.8547620E+00  0.3150425E+06 -0.1441599E+01  0.6899086E+05 -0.2835020E+01  0.1251212E+07  0.1699673E+01
  0.8857143E+00  0.3340700E+06 -0.1418655E+01  0.6951011E+05 -0.2824270E+01  0.1316385E+07  0.1722551E+01
  0.9166667E+00  0.3529790E+06 -0.1393314E+01  0.6988623E+05 -0.2814484E+01  0.1378568E+07  0.1747880E+01
  0.9476191E+00  0.3710922E+06 -0.1365402E+01  0.7008897E+05 -0.2805170E+01  0.1437399E+07  0.1775697E+01
  0.9785714E+00  0.3876488E+06 -0.1334855E+01  0.6955173E+05 -0.2795745E+01  0.1487695E+07  0.1806182E+01
  0.1009524E+01  0.4034177E+06 -0.1301873E+01  0.6879002E+05 -0.2786309E+01  0.1535192E+07  0.1838986E+01
  0.1040476E+01  0.4172212E+06 -0.1266526E+01  0.6786709E+05 -0.2777388E+01  0.1572720E+07  0.1874198E+01
  0.1071429E+01  0.4297118E+06 -0.1229290E+01  0.6676981E+05 -0.2768617E+01  0.1604960E+07  0.1911162E+01
  0.1102381E+01  0.4394925E+06 -0.1190288E+01  0.6547300E+05 -0.2760580E+01  0.1624795E+07  0.1949927E+01
  0.1133333E+01  0.4465519E+06 -0.1149705E+01  0.6366790E+05 -0.2752973E+01  0.1632498E+07  0.1990346E+01
  0.1164286E+01  0.4515037E+06 -0.1107842E+01  0.6170663E+05 -0.2745430E+01  0.1633517E+07  0.2031874E+01
  0.1195238E+01  0.4531168E+06 -0.1065069E+01  0.5967239E+05 -0.2738270E+01  0.1620001E+07  0.2074426E+01
  0.1226190E+01  0.4524374E+06 -0.1021948E+01  0.5753699E+05 -0.2731317E+01  0.1598858E+07  0.2117142E+01
  0.1257143E+01  0.4485425E+06 -0.9785408E+00  0.5533838E+05 -0.2724178E+01  0.1566648E+07  0.2160064E+01
  0.1288095E+01  0.4415616E+06 -0.9359958E+00  0.5294446E+05 -0.2719208E+01  0.1521597E+07  0.2202255E+01
  0.1319048E+01  0.4320794E+06 -0.8936240E+00  0.5034111E+05 -0.2713906E+01  0.1469714E+07  0.2244215E+01
  0.1350000E+01  0.4202407E+06 -0.8520312E+00  0.4772734E+05 -0.2708953E+01  0.1410932E+07  0.2285222E+01
  0.1380952E+01  0.4059698E+06 -0.8118061E+00  0.4518341E+05 -0.2704594E+01  0.1343213E+07  0.2325037E+01
  0.1411905E+01  0.3891150E+06 -0.7729958E+00  0.4258661E+05 -0.2700538E+01  0.1270625E+07  0.2362597E+01
  0.1442857E+01  0.3716639E+06 -0.7357056E+00  0.4005486E+05 -0.2696547E+01  0.1196590E+07  0.2399102E+01
  0.1473810E+01  0.3524398E+06 -0.7000453E+00  0.3757870E+05 -0.2693582E+01  0.1117503E+07  0.2433860E+01
  0.1504762E+01  0.3319189E+06 -0.6660107E+00  0.3507564E+05 -0.2691811E+01  0.1035482E+07  0.2466955E+01
  0.1535714E+01  0.3110333E+06 -0.6334808E+00  0.3253993E+05 -0.2690875E+01  0.9560532E+06  0.2498435E+01
  0.1566667E+01  0.2894467E+06 -0.6030442E+00  0.3013930E+05 -0.2690229E+01  0.8752346E+06  0.2527684E+01
  0.1597619E+01  0.2675241E+06 -0.5746005E+00  0.2789629E+05 -0.2689820E+01  0.7948508E+06  0.2555048E+01
  0.1628572E+01  0.2456997E+06 -0.5477936E+00  0.2569415E+05 -0.2690448E+01  0.7178529E+06  0.2580354E+01
  0.1659524E+01  0.2238550E+06 -0.5223323E+00  0.2359246E+05 -0.2691504E+01  0.6434513E+06  0.2604329E+01
  0.1690476E+01  0.2018749E+06 -0.4982517E+00  0.2163530E+05 -0.2692894E+01  0.5702142E+06  0.2626610E+01
  0.1721429E+01  0.1799481E+06 -0.4757363E+00  0.1979534E+05 -0.2695273E+01  0.4984763E+06  0.2646821E+01
  0.1752381E+01  0.1586074E+06 -0.4541489E+00  0.1798254E+05 -0.2699933E+01  0.4314919E+06  0.2666222E+01
  0.1783333E+01  0.1379030E+06 -0.4334972E+00  0.1623520E+05 -0.2706566E+01  0.3690336E+06  0.2684527E+01
  0.1814286E+01  0.1175188E+06 -0.4144181E+00  0.1471968E+05 -0.2711646E+01  0.3083574E+06  0.2699964E+01
  0.1845238E+01  0.9782930E+05 -0.3963110E+00  0.1332910E+05 -0.2717557E+01  0.2517092E+06  0.2713952E+01
  0.1876190E+01  0.7888662E+05 -0.3782763E+00  0.1201310E+05 -0.2725382E+01  0.1993707E+06  0.2726587E+01
  0.1907143E+01  0.6062207E+05 -0.3594839E+00  0.1075437E+05 -0.2736338E+01  0.1507414E+06  0.2738469E+01
  0.1938095E+01  0.4295027E+05 -0.3383273E+00  0.9629995E+04 -0.2747059E+01  0.1050487E+06  0.2748216E+01
  0.1969048E+01  0.2604333E+05 -0.3102460E+00  0.8572723E+04 -0.2762901E+01  0.6282340E+05  0.2752816E+01
  0.2000000E+01  0.9945458E+04 -0.2365088E+00  0.7633266E+04 -0.2780442E+01  0.2409591E+05  0.2737651E+01
