VARIABLES="w (rad/s)"
"abs(F   1   1)" "angle(F   1   1)"
"abs(F   1   2)" "angle(F   1   2)"
"abs(F   1   3)" "angle(F   1   3)"
Zone t="Diffraction force - beta =   0.000 deg",I=    64,F=POINT
  0.5000000E-01  0.1755341E+04 -0.1570794E+01  0.6227097E+03 -0.3092046E+01  0.1141157E+04  0.1570796E+01
  0.8095238E-01  0.2861259E+04 -0.1570789E+01  0.1618704E+04 -0.3090486E+01  0.1873048E+04  0.1570796E+01
  0.1119048E+00  0.4000428E+04 -0.1570782E+01  0.3069655E+04 -0.3088335E+01  0.2621490E+04  0.1570797E+01
  0.1428571E+00  0.5176249E+04 -0.1570771E+01  0.4981630E+04 -0.3085686E+01  0.3401200E+04  0.1570797E+01
  0.1738095E+00  0.6418616E+04 -0.1570755E+01  0.7360175E+04 -0.3082377E+01  0.4247269E+04  0.1570798E+01
  0.2047619E+00  0.7743023E+04 -0.1570731E+01  0.1020164E+05 -0.3078170E+01  0.5146398E+04  0.1570799E+01
  0.2357143E+00  0.9109575E+04 -0.1570697E+01  0.1353020E+05 -0.3072951E+01  0.6083001E+04  0.1570800E+01
  0.2666667E+00  0.1065209E+05 -0.1570647E+01  0.1733404E+05 -0.3066584E+01  0.7170662E+04  0.1570803E+01
  0.2976190E+00  0.1231500E+05 -0.1570572E+01  0.2163582E+05 -0.3058626E+01  0.8331519E+04  0.1570808E+01
  0.3285715E+00  0.1410771E+05 -0.1570460E+01  0.2641739E+05 -0.3049103E+01  0.9622855E+04  0.1570816E+01
  0.3595238E+00  0.1615997E+05 -0.1570294E+01  0.3169318E+05 -0.3037635E+01  0.1110989E+05  0.1570829E+01
  0.3904762E+00  0.1844311E+05 -0.1570045E+01  0.3741228E+05 -0.3023983E+01  0.1279635E+05  0.1570853E+01
  0.4214286E+00  0.2090704E+05 -0.1569678E+01  0.4355888E+05 -0.3008976E+01  0.1462148E+05  0.1570888E+01
  0.4523810E+00  0.2370909E+05 -0.1569142E+01  0.5001911E+05 -0.2991309E+01  0.1672670E+05  0.1570946E+01
  0.4833333E+00  0.2686411E+05 -0.1568402E+01  0.5681844E+05 -0.2973915E+01  0.1914554E+05  0.1571038E+01
  0.5142857E+00  0.3027323E+05 -0.1567371E+01  0.6379253E+05 -0.2954860E+01  0.2173133E+05  0.1571173E+01
  0.5452381E+00  0.3388596E+05 -0.1565988E+01  0.7097141E+05 -0.2936082E+01  0.2460227E+05  0.1571370E+01
  0.5761905E+00  0.3776675E+05 -0.1564188E+01  0.7834777E+05 -0.2918113E+01  0.2770469E+05  0.1571648E+01
  0.6071429E+00  0.4221344E+05 -0.1561900E+01  0.8565708E+05 -0.2899095E+01  0.3124571E+05  0.1572047E+01
  0.6380953E+00  0.4673676E+05 -0.1559020E+01  0.9316624E+05 -0.2881980E+01  0.3496498E+05  0.1572578E+01
  0.6690477E+00  0.5140918E+05 -0.1555425E+01  0.1007267E+06 -0.2865320E+01  0.3882018E+05  0.1573277E+01
  0.7000000E+00  0.5638432E+05 -0.1551017E+01  0.1080889E+06 -0.2847996E+01  0.4293978E+05  0.1574193E+01
  0.7309524E+00  0.6169669E+05 -0.1545729E+01  0.1155427E+06 -0.2832095E+01  0.4751816E+05  0.1575381E+01
  0.7619048E+00  0.6737326E+05 -0.1539426E+01  0.1230261E+06 -0.2817176E+01  0.5243904E+05  0.1576904E+01
  0.7928572E+00  0.7332350E+05 -0.1531966E+01  0.1301326E+06 -0.2801630E+01  0.5745777E+05  0.1578797E+01
  0.8238096E+00  0.7944808E+05 -0.1523189E+01  0.1371536E+06 -0.2786783E+01  0.6295795E+05  0.1581181E+01
  0.8547620E+00  0.8558702E+05 -0.1512906E+01  0.1440969E+06 -0.2772980E+01  0.6850354E+05  0.1584058E+01
  0.8857143E+00  0.9186597E+05 -0.1501021E+01  0.1508652E+06 -0.2759954E+01  0.7435864E+05  0.1587536E+01
  0.9166667E+00  0.9870659E+05 -0.1487681E+01  0.1572208E+06 -0.2746685E+01  0.8048184E+05  0.1591622E+01
  0.9476191E+00  0.1059339E+06 -0.1472702E+01  0.1633618E+06 -0.2734100E+01  0.8738866E+05  0.1596531E+01
  0.9785714E+00  0.1130857E+06 -0.1455708E+01  0.1692524E+06 -0.2722351E+01  0.9437013E+05  0.1602327E+01
  0.1009524E+01  0.1201422E+06 -0.1436581E+01  0.1749231E+06 -0.2711636E+01  0.1014933E+06  0.1609035E+01
  0.1040476E+01  0.1272082E+06 -0.1415400E+01  0.1801214E+06 -0.2700678E+01  0.1086611E+06  0.1616722E+01
  0.1071429E+01  0.1342041E+06 -0.1392123E+01  0.1849147E+06 -0.2689903E+01  0.1158944E+06  0.1625383E+01
  0.1102381E+01  0.1408659E+06 -0.1366557E+01  0.1894623E+06 -0.2680007E+01  0.1234742E+06  0.1635115E+01
  0.1133333E+01  0.1472323E+06 -0.1338878E+01  0.1936659E+06 -0.2670857E+01  0.1310467E+06  0.1645745E+01
  0.1164286E+01  0.1534999E+06 -0.1309551E+01  0.1975850E+06 -0.2662747E+01  0.1388198E+06  0.1657019E+01
  0.1195238E+01  0.1593932E+06 -0.1278404E+01  0.2009962E+06 -0.2654388E+01  0.1464375E+06  0.1669297E+01
  0.1226190E+01  0.1647407E+06 -0.1245532E+01  0.2038943E+06 -0.2645880E+01  0.1536657E+06  0.1682438E+01
  0.1257143E+01  0.1692348E+06 -0.1210644E+01  0.2065517E+06 -0.2637894E+01  0.1611327E+06  0.1696433E+01
  0.1288095E+01  0.1729208E+06 -0.1174586E+01  0.2087568E+06 -0.2630881E+01  0.1682534E+06  0.1710939E+01
  0.1319048E+01  0.1755055E+06 -0.1137116E+01  0.2106393E+06 -0.2624458E+01  0.1747260E+06  0.1725403E+01
  0.1350000E+01  0.1771564E+06 -0.1099105E+01  0.2122020E+06 -0.2618814E+01  0.1809151E+06  0.1739327E+01
  0.1380952E+01  0.1778052E+06 -0.1060814E+01  0.2131648E+06 -0.2612521E+01  0.1862203E+06  0.1753094E+01
  0.1411905E+01  0.1768898E+06 -0.1021052E+01  0.2135926E+06 -0.2605892E+01  0.1903491E+06  0.1766391E+01
  0.1442857E+01  0.1752973E+06 -0.9826409E+00  0.2137608E+06 -0.2599715E+01  0.1946927E+06  0.1778890E+01
  0.1473810E+01  0.1722232E+06 -0.9440981E+00  0.2135750E+06 -0.2594027E+01  0.1980442E+06  0.1790044E+01
  0.1504762E+01  0.1680233E+06 -0.9065294E+00  0.2129911E+06 -0.2588906E+01  0.2007227E+06  0.1799334E+01
  0.1535714E+01  0.1626252E+06 -0.8695542E+00  0.2120071E+06 -0.2584272E+01  0.2026119E+06  0.1806863E+01
  0.1566667E+01  0.1560890E+06 -0.8333233E+00  0.2106642E+06 -0.2579986E+01  0.2040345E+06  0.1812957E+01
  0.1597619E+01  0.1485802E+06 -0.7995288E+00  0.2086683E+06 -0.2574082E+01  0.2039157E+06  0.1815374E+01
  0.1628572E+01  0.1401691E+06 -0.7678422E+00  0.2062091E+06 -0.2568413E+01  0.2030281E+06  0.1814866E+01
  0.1659524E+01  0.1310930E+06 -0.7386239E+00  0.2033883E+06 -0.2563077E+01  0.2022282E+06  0.1812189E+01
  0.1690476E+01  0.1209958E+06 -0.7107230E+00  0.2001659E+06 -0.2557995E+01  0.2006501E+06  0.1806910E+01
  0.1721429E+01  0.1101789E+06 -0.6850706E+00  0.1965079E+06 -0.2553494E+01  0.1985576E+06  0.1798489E+01
  0.1752381E+01  0.9873609E+05 -0.6622688E+00  0.1924495E+06 -0.2549963E+01  0.1959694E+06  0.1786194E+01
  0.1783333E+01  0.8679077E+05 -0.6427446E+00  0.1879886E+06 -0.2547268E+01  0.1931347E+06  0.1770363E+01
  0.1814286E+01  0.7438388E+05 -0.6283355E+00  0.1831333E+06 -0.2544933E+01  0.1900588E+06  0.1751073E+01
  0.1845238E+01  0.6164285E+05 -0.6242840E+00  0.1778238E+06 -0.2542434E+01  0.1860708E+06  0.1725954E+01
  0.1876190E+01  0.4866234E+05 -0.6351761E+00  0.1722420E+06 -0.2541065E+01  0.1819457E+06  0.1695774E+01
  0.1907143E+01  0.3572490E+05 -0.6746130E+00  0.1664975E+06 -0.2541077E+01  0.1782388E+06  0.1662541E+01
  0.1938095E+01  0.2294454E+05 -0.7880630E+00  0.1606578E+06 -0.2542430E+01  0.1748057E+06  0.1626193E+01
  0.1969048E+01  0.1147281E+05 -0.1207539E+01  0.1546687E+06 -0.2545115E+01  0.1715095E+06  0.1585767E+01
  0.2000000E+01  0.1007650E+05 -0.2533471E+01  0.1485494E+06 -0.2549229E+01  0.1685627E+06  0.1541360E+01
