VARIABLES="w (rad/s)"
"abs(F   1   1)" "angle(F   1   1)"
"abs(F   1   2)" "angle(F   1   2)"
"abs(F   1   3)" "angle(F   1   3)"
Zone t="Diffraction force - beta =   0.000 deg",I=    64,F=POINT
  0.5000000E-01  0.4434887E+04 -0.1570793E+01  0.8438123E+06 -0.5543469E-04  0.6851327E+04 -0.1570798E+01
  0.8095238E-01  0.7236213E+04 -0.1570791E+01  0.8416203E+06 -0.1490168E-03  0.1111728E+05 -0.1570795E+01
  0.1119048E+00  0.1010982E+05 -0.1570790E+01  0.8384084E+06 -0.2955781E-03  0.1548487E+05 -0.1570794E+01
  0.1428571E+00  0.1309097E+05 -0.1570787E+01  0.8341780E+06 -0.5059611E-03  0.1993981E+05 -0.1570787E+01
  0.1738095E+00  0.1619263E+05 -0.1570780E+01  0.8289176E+06 -0.7966173E-03  0.2459379E+05 -0.1570781E+01
  0.2047619E+00  0.1946120E+05 -0.1570772E+01  0.8226137E+06 -0.1191168E-02  0.2940627E+05 -0.1570772E+01
  0.2357143E+00  0.2298937E+05 -0.1570760E+01  0.8152769E+06 -0.1724497E-02  0.3450422E+05 -0.1570758E+01
  0.2666667E+00  0.2670749E+05 -0.1570741E+01  0.8068675E+06 -0.2437993E-02  0.3994264E+05 -0.1570742E+01
  0.2976190E+00  0.3080114E+05 -0.1570714E+01  0.7974217E+06 -0.3403495E-02  0.4570092E+05 -0.1570714E+01
  0.3285715E+00  0.3532321E+05 -0.1570673E+01  0.7868866E+06 -0.4690362E-02  0.5195621E+05 -0.1570674E+01
  0.3595238E+00  0.4024899E+05 -0.1570612E+01  0.7753624E+06 -0.6412365E-02  0.5878492E+05 -0.1570613E+01
  0.3904762E+00  0.4566675E+05 -0.1570521E+01  0.7627713E+06 -0.8692543E-02  0.6614694E+05 -0.1570521E+01
  0.4214286E+00  0.5183119E+05 -0.1570387E+01  0.7494133E+06 -0.1160106E-01  0.7414595E+05 -0.1570388E+01
  0.4523810E+00  0.5853264E+05 -0.1570192E+01  0.7351014E+06 -0.1535492E-01  0.8288733E+05 -0.1570193E+01
  0.4833333E+00  0.6579625E+05 -0.1569921E+01  0.7202162E+06 -0.1982860E-01  0.9232528E+05 -0.1569921E+01
  0.5142857E+00  0.7375852E+05 -0.1569544E+01  0.7047392E+06 -0.2527898E-01  0.1021005E+06 -0.1569545E+01
  0.5452381E+00  0.8242086E+05 -0.1569042E+01  0.6886958E+06 -0.3159020E-01  0.1124220E+06 -0.1569044E+01
  0.5761905E+00  0.9157671E+05 -0.1568391E+01  0.6723209E+06 -0.3876830E-01  0.1232742E+06 -0.1568395E+01
  0.6071429E+00  0.1010456E+06 -0.1567550E+01  0.6555676E+06 -0.4701560E-01  0.1343198E+06 -0.1567557E+01
  0.6380953E+00  0.1110191E+06 -0.1566505E+01  0.6384864E+06 -0.5606787E-01  0.1454768E+06 -0.1566515E+01
  0.6690477E+00  0.1217159E+06 -0.1565217E+01  0.6212504E+06 -0.6615342E-01  0.1564949E+06 -0.1565229E+01
  0.7000000E+00  0.1327183E+06 -0.1563637E+01  0.6038251E+06 -0.7735181E-01  0.1676085E+06 -0.1563659E+01
  0.7309524E+00  0.1439314E+06 -0.1561738E+01  0.5862298E+06 -0.8951454E-01  0.1788172E+06 -0.1561779E+01
  0.7619048E+00  0.1554143E+06 -0.1559478E+01  0.5687072E+06 -0.1027849E+00  0.1898347E+06 -0.1559543E+01
  0.7928572E+00  0.1670608E+06 -0.1556821E+01  0.5511590E+06 -0.1171781E+00  0.2004282E+06 -0.1556910E+01
  0.8238096E+00  0.1792890E+06 -0.1553760E+01  0.5335776E+06 -0.1326796E+00  0.2101906E+06 -0.1553838E+01
  0.8547620E+00  0.1917936E+06 -0.1550244E+01  0.5163108E+06 -0.1493471E+00  0.2201452E+06 -0.1550368E+01
  0.8857143E+00  0.2044135E+06 -0.1546231E+01  0.4991873E+06 -0.1671445E+00  0.2294360E+06 -0.1546442E+01
  0.9166667E+00  0.2168195E+06 -0.1541694E+01  0.4820601E+06 -0.1860398E+00  0.2381516E+06 -0.1542048E+01
  0.9476191E+00  0.2290743E+06 -0.1536627E+01  0.4651530E+06 -0.2060414E+00  0.2459571E+06 -0.1537155E+01
  0.9785714E+00  0.2412155E+06 -0.1531071E+01  0.4487356E+06 -0.2272208E+00  0.2533633E+06 -0.1531808E+01
  0.1009524E+01  0.2533023E+06 -0.1525088E+01  0.4326241E+06 -0.2495539E+00  0.2596894E+06 -0.1525985E+01
  0.1040476E+01  0.2653072E+06 -0.1518801E+01  0.4167199E+06 -0.2730272E+00  0.2645898E+06 -0.1519714E+01
  0.1071429E+01  0.2767926E+06 -0.1512093E+01  0.4010668E+06 -0.2975755E+00  0.2684849E+06 -0.1513354E+01
  0.1102381E+01  0.2877119E+06 -0.1505094E+01  0.3856630E+06 -0.3231767E+00  0.2711271E+06 -0.1506777E+01
  0.1133333E+01  0.2979563E+06 -0.1497981E+01  0.3709173E+06 -0.3499320E+00  0.2733711E+06 -0.1500282E+01
  0.1164286E+01  0.3074567E+06 -0.1490930E+01  0.3564636E+06 -0.3777711E+00  0.2741325E+06 -0.1493787E+01
  0.1195238E+01  0.3161258E+06 -0.1484271E+01  0.3423003E+06 -0.4067032E+00  0.2733147E+06 -0.1487373E+01
  0.1226190E+01  0.3237133E+06 -0.1477884E+01  0.3284100E+06 -0.4366763E+00  0.2712229E+06 -0.1481938E+01
  0.1257143E+01  0.3300814E+06 -0.1472048E+01  0.3147886E+06 -0.4679263E+00  0.2677915E+06 -0.1477099E+01
  0.1288095E+01  0.3354844E+06 -0.1467132E+01  0.3017308E+06 -0.4996489E+00  0.2635902E+06 -0.1473303E+01
  0.1319048E+01  0.3396762E+06 -0.1463526E+01  0.2891529E+06 -0.5326051E+00  0.2587384E+06 -0.1470554E+01
  0.1350000E+01  0.3427707E+06 -0.1461320E+01  0.2768808E+06 -0.5666001E+00  0.2522974E+06 -0.1469352E+01
  0.1380952E+01  0.3444204E+06 -0.1460648E+01  0.2648625E+06 -0.6016470E+00  0.2450402E+06 -0.1470303E+01
  0.1411905E+01  0.3446402E+06 -0.1461303E+01  0.2531963E+06 -0.6370360E+00  0.2370543E+06 -0.1472609E+01
  0.1442857E+01  0.3438020E+06 -0.1464559E+01  0.2416533E+06 -0.6739157E+00  0.2280477E+06 -0.1477205E+01
  0.1473810E+01  0.3418291E+06 -0.1470264E+01  0.2304540E+06 -0.7119125E+00  0.2185430E+06 -0.1484131E+01
  0.1504762E+01  0.3387630E+06 -0.1478753E+01  0.2198657E+06 -0.7507332E+00  0.2099050E+06 -0.1493401E+01
  0.1535714E+01  0.3347489E+06 -0.1490108E+01  0.2095148E+06 -0.7905234E+00  0.2011120E+06 -0.1504439E+01
  0.1566667E+01  0.3299785E+06 -0.1504466E+01  0.1993781E+06 -0.8316367E+00  0.1915371E+06 -0.1518095E+01
  0.1597619E+01  0.3242564E+06 -0.1522024E+01  0.1894980E+06 -0.8741714E+00  0.1822269E+06 -0.1534340E+01
  0.1628572E+01  0.3178204E+06 -0.1542961E+01  0.1798697E+06 -0.9181106E+00  0.1730405E+06 -0.1552524E+01
  0.1659524E+01  0.3108650E+06 -0.1567393E+01  0.1703914E+06 -0.9634766E+00  0.1638254E+06 -0.1571426E+01
  0.1690476E+01  0.3034974E+06 -0.1595608E+01  0.1611838E+06 -0.1010917E+01  0.1545148E+06 -0.1592012E+01
  0.1721429E+01  0.2958260E+06 -0.1628451E+01  0.1526584E+06 -0.1059177E+01  0.1471789E+06 -0.1611146E+01
  0.1752381E+01  0.2880127E+06 -0.1665675E+01  0.1444334E+06 -0.1108851E+01  0.1405332E+06 -0.1627787E+01
  0.1783333E+01  0.2802797E+06 -0.1707194E+01  0.1363954E+06 -0.1161132E+01  0.1338945E+06 -0.1641915E+01
  0.1814286E+01  0.2726268E+06 -0.1753275E+01  0.1287460E+06 -0.1215530E+01  0.1274110E+06 -0.1654967E+01
  0.1845238E+01  0.2651780E+06 -0.1803969E+01  0.1214784E+06 -0.1271280E+01  0.1212726E+06 -0.1665044E+01
  0.1876190E+01  0.2581803E+06 -0.1859182E+01  0.1144746E+06 -0.1329751E+01  0.1153012E+06 -0.1668721E+01
  0.1907143E+01  0.2517480E+06 -0.1918715E+01  0.1077443E+06 -0.1389631E+01  0.1095190E+06 -0.1664935E+01
  0.1938095E+01  0.2460618E+06 -0.1982230E+01  0.1013435E+06 -0.1450035E+01  0.1038663E+06 -0.1654097E+01
  0.1969048E+01  0.2413819E+06 -0.2049460E+01  0.9533229E+05 -0.1512551E+01  0.9896407E+05 -0.1630684E+01
  0.2000000E+01  0.2377825E+06 -0.2119597E+01  0.8961161E+05 -0.1577538E+01  0.9520655E+05 -0.1592816E+01
