VARIABLES="w (rad/s)"
"A   1   1" "B   1   1"
"A   1   2" "B   1   2"
"A   1   3" "B   1   3"
Zone t="Motion of body    1 in DoF   1",I=    64,F=POINT
  0.5000000E-01  0.2648620E+05  0.9996278E-03 -0.6222725E-02 -0.1312359E-04  0.3697546E+03  0.1791338E-04
  0.8095238E-01  0.2651197E+05  0.4335477E-02 -0.5472127E-02 -0.1432417E-04  0.3680125E+03  0.7685916E-04
  0.1119048E+00  0.2655812E+05  0.1220294E-01 -0.2893286E-02 -0.2287149E-04  0.3629376E+03  0.2162959E-03
  0.1428571E+00  0.2655615E+05  0.2746699E-01  0.0000000E+00 -0.1794811E-05  0.3658338E+03  0.4881119E-03
  0.1738095E+00  0.2665035E+05  0.5478173E-01 -0.5036968E-02 -0.6466648E-04  0.3659881E+03  0.9708564E-03
  0.2047619E+00  0.2666173E+05  0.1011944E+00 -0.6660195E-02 -0.6941642E-04  0.3694141E+03  0.1803638E-02
  0.2357143E+00  0.2668826E+05  0.1783917E+00 -0.6352048E-02 -0.8249923E-04  0.3685938E+03  0.3191486E-02
  0.2666667E+00  0.2678119E+05  0.3050869E+00 -0.5607605E-02 -0.6376428E-04  0.3715329E+03  0.5483521E-02
  0.2976190E+00  0.2682787E+05  0.5125368E+00 -0.1454773E-02 -0.3925362E-04  0.3752466E+03  0.9272636E-02
  0.3285715E+00  0.2684448E+05  0.8494346E+00 -0.4667199E-02 -0.9534811E-04  0.3736926E+03  0.1541536E-01
  0.3595238E+00  0.2696270E+05  0.1398952E+01 -0.5204409E-02 -0.1781550E-03  0.3779926E+03  0.2557095E-01
  0.3904762E+00  0.2704177E+05  0.2286725E+01 -0.2491183E-03  0.5737878E-04  0.3818262E+03  0.4211809E-01
  0.4214286E+00  0.2708349E+05  0.3686864E+01 -0.6340802E-02 -0.3282791E-03  0.3845772E+03  0.6843688E-01
  0.4523810E+00  0.2719968E+05  0.5897814E+01 -0.5472685E-02 -0.4099626E-03  0.3888801E+03  0.1103879E+00
  0.4833333E+00  0.2736350E+05  0.9210236E+01 -0.2446668E-02 -0.2681371E-03  0.4009247E+03  0.1747785E+00
  0.5142857E+00  0.2746897E+05  0.1413619E+02 -0.7944108E-02 -0.7332452E-03  0.4011786E+03  0.2699289E+00
  0.5452381E+00  0.2751058E+05  0.2116780E+02 -0.8724496E-02 -0.9934194E-03  0.4007817E+03  0.4071037E+00
  0.5761905E+00  0.2768172E+05  0.3100317E+02 -0.5064719E-02 -0.3949478E-03  0.4101887E+03  0.6037643E+00
  0.6071429E+00  0.2788937E+05  0.4459558E+02 -0.2689137E-02 -0.2645180E-03  0.4182012E+03  0.8780944E+00
  0.6380953E+00  0.2804773E+05  0.6270537E+02 -0.1078478E-01 -0.2039835E-02  0.4262130E+03  0.1250097E+01
  0.6690477E+00  0.2815512E+05  0.8661343E+02 -0.2759614E-02  0.2889037E-03  0.4268438E+03  0.1741519E+01
  0.7000000E+00  0.2831432E+05  0.1179101E+03 -0.6430489E-02 -0.1590669E-02  0.4306567E+03  0.2394095E+01
  0.7309524E+00  0.2853586E+05  0.1581501E+03 -0.5918123E-02 -0.1777411E-02  0.4417036E+03  0.3256943E+01
  0.7619048E+00  0.2880395E+05  0.2094654E+03  0.5006790E-02  0.1659214E-02  0.4550019E+03  0.4379538E+01
  0.7928572E+00  0.2905580E+05  0.2740625E+03 -0.3088873E-02 -0.7820129E-04  0.4645762E+03  0.5805359E+01
  0.8238096E+00  0.2924779E+05  0.3543369E+03 -0.4468488E-02 -0.1314998E-02  0.4680239E+03  0.7585044E+01
  0.8547620E+00  0.2943947E+05  0.4532512E+03 -0.5007348E-02 -0.2736688E-02  0.4751671E+03  0.9830221E+01
  0.8857143E+00  0.2970834E+05  0.5744764E+03 -0.6382850E-02 -0.2158403E-02  0.4865139E+03  0.1263787E+02
  0.9166667E+00  0.3002118E+05  0.7216851E+03 -0.5101984E-02 -0.1044869E-02  0.4985688E+03  0.1610094E+02
  0.9476191E+00  0.3034622E+05  0.8988978E+03 -0.1458863E-01 -0.5768538E-02  0.5123246E+03  0.2036144E+02
  0.9785714E+00  0.3067542E+05  0.1110618E+04 -0.3547390E-02 -0.2810240E-02  0.5284251E+03  0.2558246E+02
  0.1009524E+01  0.3099663E+05  0.1361563E+04 -0.8479425E-02 -0.5644321E-02  0.5424263E+03  0.3186483E+02
  0.1040476E+01  0.3128288E+05  0.1656417E+04 -0.7611237E-02 -0.4932404E-02  0.5505060E+03  0.3927615E+02
  0.1071429E+01  0.3156535E+05  0.2000675E+04 -0.3830974E-02 -0.5698204E-03  0.5599499E+03  0.4808326E+02
  0.1102381E+01  0.3187451E+05  0.2400144E+04 -0.4747691E-02 -0.2499104E-02  0.5738565E+03  0.5857943E+02
  0.1133333E+01  0.3221738E+05  0.2860851E+04 -0.1272314E-02 -0.2229691E-02  0.5914138E+03  0.7100484E+02
  0.1164286E+01  0.3258125E+05  0.3388897E+04 -0.7070529E-02 -0.6025314E-02  0.6103398E+03  0.8560424E+02
  0.1195238E+01  0.3293820E+05  0.3989813E+04 -0.3829895E-04 -0.1448631E-02  0.6281656E+03  0.1024801E+03
  0.1226190E+01  0.3327266E+05  0.4669324E+04 -0.4703855E-02 -0.5894661E-02  0.6445235E+03  0.1218923E+03
  0.1257143E+01  0.3354610E+05  0.5433229E+04 -0.1122735E-02 -0.5503654E-02  0.6591489E+03  0.1442032E+03
  0.1288095E+01  0.3382007E+05  0.6283393E+04 -0.2013822E-02 -0.2142906E-02  0.6744255E+03  0.1696735E+03
  0.1319048E+01  0.3402997E+05  0.7226290E+04 -0.4037244E-02 -0.4533768E-02  0.6875754E+03  0.1985501E+03
  0.1350000E+01  0.3421241E+05  0.8262389E+04 -0.4091616E-02 -0.7089615E-02  0.7010645E+03  0.2308999E+03
  0.1380952E+01  0.3437815E+05  0.9392733E+04 -0.3104900E-02 -0.5805969E-02  0.7144283E+03  0.2668740E+03
  0.1411905E+01  0.3434488E+05  0.1055894E+05 -0.4144575E-02 -0.6578445E-02  0.7116359E+03  0.3034330E+03
  0.1442857E+01  0.3442970E+05  0.1186778E+05 -0.4621449E-02 -0.3881454E-02  0.7234540E+03  0.3469639E+03
  0.1473810E+01  0.3444750E+05  0.1326453E+05 -0.1656528E-02 -0.3681183E-03  0.7345944E+03  0.3949714E+03
  0.1504762E+01  0.3440975E+05  0.1474546E+05 -0.2205523E-02 -0.5937576E-02  0.7448468E+03  0.4473539E+03
  0.1535714E+01  0.3430961E+05  0.1630317E+05 -0.3075178E-02 -0.6078720E-02  0.7544556E+03  0.5040515E+03
  0.1566667E+01  0.3414779E+05  0.1792386E+05 -0.4421802E-02 -0.3330231E-02  0.7600568E+03  0.5641240E+03
  0.1597619E+01  0.3391561E+05  0.1959468E+05 -0.2478473E-02 -0.1670837E-02  0.7629874E+03  0.6274628E+03
  0.1628572E+01  0.3361323E+05  0.2130412E+05 -0.2398574E-02 -0.6771088E-02  0.7620339E+03  0.6934568E+03
  0.1659524E+01  0.3324987E+05  0.2304031E+05 -0.8459105E-03  0.1129150E-02  0.7595380E+03  0.7630947E+03
  0.1690476E+01  0.3280831E+05  0.2478912E+05  0.2798161E-03  0.3631592E-02  0.7561107E+03  0.8365889E+03
  0.1721429E+01  0.3230610E+05  0.2653538E+05 -0.4174957E-02 -0.2674103E-02  0.7505557E+03  0.9123014E+03
  0.1752381E+01  0.3175188E+05  0.2826136E+05 -0.1236460E-02 -0.9891510E-02  0.7436404E+03  0.9903036E+03
  0.1783333E+01  0.3114477E+05  0.2995085E+05  0.1754048E-03  0.2353668E-02  0.7342130E+03  0.1069244E+04
  0.1814286E+01  0.3049303E+05  0.3159164E+05 -0.6223664E-03  0.8594513E-02  0.7209287E+03  0.1147953E+04
  0.1845238E+01  0.2979453E+05  0.3317046E+05 -0.2869440E-02  0.1476288E-02  0.7054741E+03  0.1227178E+04
  0.1876190E+01  0.2905663E+05  0.3467846E+05 -0.3537793E-03 -0.5065918E-02  0.6868544E+03  0.1305787E+04
  0.1907143E+01  0.2829495E+05  0.3610485E+05  0.1868202E-02 -0.2006531E-02  0.6675956E+03  0.1384066E+04
  0.1938095E+01  0.2750628E+05  0.3744226E+05  0.1302996E-02  0.1342773E-02  0.6468958E+03  0.1461891E+04
  0.1969048E+01  0.2670406E+05  0.3868316E+05 -0.1821091E-02 -0.2632141E-03  0.6252534E+03  0.1538425E+04
  0.2000000E+01  0.2589469E+05  0.3982429E+05 -0.7476807E-03 -0.8087158E-03  0.6015538E+03  0.1613192E+04
Zone t="Motion of body    1 in DoF   2",I=    64,F=POINT
  0.5000000E-01  0.3533363E-02  0.3077090E-05  0.4515410E+05  0.9183684E+02  0.6675720E-04  0.2175570E-05
  0.8095238E-01 -0.4553234E-02  0.2588332E-04  0.4486888E+05  0.1524155E+03 -0.5890341E-04  0.9536743E-06
  0.1119048E+00 -0.2283948E-02  0.6854534E-06  0.4468238E+05  0.2185661E+03 -0.1193107E-03 -0.7450581E-06
  0.1428571E+00 -0.4606247E-03  0.6079674E-05  0.4459139E+05  0.2928851E+03 -0.1001358E-03  0.2145767E-05
  0.1738095E+00 -0.1574738E-02  0.1910329E-04  0.4459098E+05  0.3787246E+03  0.1646068E-03 -0.4768372E-06
  0.2047619E+00 -0.2389287E-02  0.1472235E-04  0.4466293E+05  0.4801773E+03  0.4657479E-04 -0.1466274E-04
  0.2357143E+00 -0.5656155E-02  0.2706051E-04  0.4479956E+05  0.6031140E+03 -0.9710138E-04 -0.7510185E-05
  0.2666667E+00 -0.3883838E-02 -0.5263090E-04  0.4497574E+05  0.7527815E+03  0.9298324E-04  0.5960464E-05
  0.2976190E+00  0.5838318E-02 -0.7247925E-04  0.4519521E+05  0.9400246E+03  0.8459472E-03  0.2384186E-05
  0.3285715E+00  0.8010863E-03 -0.3528595E-04  0.4544512E+05  0.1171643E+04 -0.2554188E-03  0.6675720E-05
  0.3595238E+00  0.4504121E-02  0.2826452E-03  0.4569104E+05  0.1461004E+04  0.2015979E-03 -0.1692772E-04
  0.3904762E+00 -0.4420629E-02 -0.3886223E-04  0.4593541E+05  0.1819545E+04  0.3810045E-03 -0.1096725E-04
  0.4214286E+00 -0.2186015E-02 -0.0000000E+00  0.4610547E+05  0.2245082E+04  0.1176737E-03  0.5722046E-05
  0.4523810E+00 -0.3419374E-02  0.1637936E-03  0.4623673E+05  0.2760176E+04  0.1770823E-03  0.2384186E-05
  0.4833333E+00  0.5051185E-02 -0.4482269E-04  0.4625073E+05  0.3326912E+04  0.0000000E+00 -0.2288818E-04
  0.5142857E+00  0.2759298E-02 -0.8821487E-04  0.4617595E+05  0.3971146E+04  0.1335144E-03 -0.4434586E-04
  0.5452381E+00 -0.2098916E-04 -0.4105568E-03  0.4602002E+05  0.4662649E+04 -0.7696027E-04 -0.6198883E-04
  0.5761905E+00  0.1588932E-02  0.3199577E-03  0.4579121E+05  0.5390744E+04 -0.7282603E-04 -0.1144409E-03
  0.6071429E+00  0.9550206E-03 -0.5917549E-03  0.4546961E+05  0.6171790E+04  0.4021139E-03 -0.1716614E-04
  0.6380953E+00 -0.1578260E-02  0.9183884E-03  0.4511323E+05  0.6965897E+04 -0.1315217E-03 -0.8964539E-04
  0.6690477E+00  0.2999085E-02 -0.5922318E-03  0.4470762E+05  0.7789808E+04 -0.2508740E-03 -0.1144409E-04
  0.7000000E+00 -0.1384190E-02  0.5035400E-03  0.4423787E+05  0.8646503E+04 -0.3269740E-04 -0.5245209E-04
  0.7309524E+00 -0.5975530E-02  0.5455017E-03  0.4373650E+05  0.9514396E+04  0.2400650E-03 -0.9155273E-04
  0.7619048E+00  0.2768755E-02 -0.1137733E-02  0.4320182E+05  0.1039693E+05  0.5707740E-03 -0.4768372E-04
  0.7928572E+00  0.3411232E-02  0.1612663E-02  0.4261919E+05  0.1129147E+05  0.4715103E-03 -0.1010895E-03
  0.8238096E+00  0.4565729E-02  0.1041412E-02  0.4199863E+05  0.1219173E+05  0.9261115E-04 -0.1106262E-03
  0.8547620E+00  0.1562007E-03 -0.1112938E-02  0.4136145E+05  0.1309042E+05 -0.2499211E-03 -0.1525879E-03
  0.8857143E+00 -0.3837462E-02 -0.1136780E-02  0.4070706E+05  0.1398283E+05  0.4996023E-03  0.6484985E-04
  0.9166667E+00 -0.1469005E-02 -0.1361847E-02  0.4002729E+05  0.1486503E+05  0.3329190E-04  0.7247925E-04
  0.9476191E+00 -0.3590799E-02  0.1028061E-02  0.3931706E+05  0.1573342E+05  0.6762940E-03 -0.4768372E-04
  0.9785714E+00 -0.4171107E-03  0.7724762E-03  0.3859386E+05  0.1658161E+05 -0.4833806E-03  0.1640320E-03
  0.1009524E+01 -0.8350948E-03 -0.1482010E-02  0.3786733E+05  0.1740406E+05  0.5290194E-04 -0.1163483E-03
  0.1040476E+01 -0.9605704E-03 -0.7858276E-03  0.3713293E+05  0.1819896E+05 -0.2199780E-04 -0.4730225E-03
  0.1071429E+01  0.2193197E-02  0.2143860E-02  0.3639362E+05  0.1896209E+05  0.3631592E-03 -0.2746582E-03
  0.1102381E+01 -0.3339302E-02 -0.1144409E-03  0.3565174E+05  0.1969270E+05 -0.5190625E-03 -0.5416870E-03
  0.1133333E+01  0.2457114E-03 -0.3051758E-03  0.3491630E+05  0.2038626E+05 -0.1750273E-03  0.3433228E-04
  0.1164286E+01 -0.5786170E-02  0.6237030E-03  0.3419298E+05  0.2103842E+05  0.4586998E-04 -0.3433228E-03
  0.1195238E+01  0.7404464E-03 -0.3002167E-02  0.3347320E+05  0.2165040E+05 -0.3191579E-04 -0.1029968E-03
  0.1226190E+01 -0.3764329E-02  0.6809235E-03  0.3276330E+05  0.2221852E+05 -0.1866609E-04 -0.2861023E-03
  0.1257143E+01  0.3398548E-02 -0.3492355E-02  0.3206448E+05  0.2276103E+05  0.3823367E-03 -0.6484985E-04
  0.1288095E+01 -0.1000988E-02  0.2901077E-02  0.3137325E+05  0.2322405E+05  0.5330705E-04  0.9155273E-04
  0.1319048E+01 -0.2197927E-02 -0.7362366E-03  0.3070641E+05  0.2365762E+05  0.2544968E-03 -0.1220703E-03
  0.1350000E+01 -0.1763238E-02 -0.2901077E-02  0.3006129E+05  0.2404141E+05 -0.6160029E-03 -0.4577637E-03
  0.1380952E+01  0.7237401E-03 -0.1281738E-02  0.2943744E+05  0.2437754E+05 -0.3425335E-03 -0.2632141E-03
  0.1411905E+01 -0.2382996E-02 -0.4121780E-02  0.2883400E+05  0.2469506E+05  0.1729158E-03 -0.4043579E-03
  0.1442857E+01 -0.1639187E-02  0.9765625E-03  0.2824621E+05  0.2494718E+05  0.2115080E-03 -0.8010864E-03
  0.1473810E+01 -0.1542641E-02  0.2077103E-02  0.2767681E+05  0.2515712E+05 -0.2691857E-03 -0.7629395E-04
  0.1504762E+01 -0.3143504E-03 -0.9555817E-03  0.2713399E+05  0.2532287E+05 -0.1115437E-03 -0.5455017E-03
  0.1535714E+01 -0.2533669E-03  0.1289368E-02  0.2661606E+05  0.2544330E+05  0.4769258E-03 -0.7171631E-03
  0.1566667E+01  0.3408878E-04 -0.7247925E-03  0.2612222E+05  0.2552147E+05 -0.4480240E-03 -0.5645752E-03
  0.1597619E+01 -0.1623663E-02 -0.3547668E-03  0.2564978E+05  0.2556041E+05  0.3151815E-03 -0.5722046E-04
  0.1628572E+01 -0.1381991E-02 -0.7801056E-03  0.2520078E+05  0.2556071E+05 -0.3279301E-04 -0.4882812E-03
  0.1659524E+01 -0.1411383E-02  0.2880096E-03  0.2477339E+05  0.2552415E+05 -0.1241282E-03 -0.3433228E-04
  0.1690476E+01  0.4513163E-03 -0.3099442E-02  0.2436291E+05  0.2545527E+05  0.2076055E-03 -0.7171631E-03
  0.1721429E+01 -0.1675301E-02  0.1163483E-03  0.2397986E+05  0.2535012E+05  0.1772805E-03 -0.7362366E-03
  0.1752381E+01 -0.2738497E-02  0.2063751E-02  0.2362243E+05  0.2521351E+05 -0.4789104E-04 -0.2059937E-03
  0.1783333E+01 -0.3452479E-02  0.1356125E-02  0.2328920E+05  0.2504371E+05  0.2096301E-03 -0.5149841E-03
  0.1814286E+01 -0.4205178E-04  0.1291275E-02  0.2297642E+05  0.2484617E+05  0.9671910E-04 -0.2708435E-03
  0.1845238E+01  0.4051947E-03  0.6599426E-03  0.2268223E+05  0.2462034E+05  0.1405777E-03 -0.1831055E-03
  0.1876190E+01 -0.8010864E-03  0.2309799E-02  0.2241011E+05  0.2436955E+05 -0.4473071E-04 -0.9860992E-03
  0.1907143E+01 -0.2204238E-02 -0.2197266E-02  0.2215720E+05  0.2409485E+05 -0.2640285E-03 -0.8373260E-03
  0.1938095E+01 -0.8463567E-03 -0.4098892E-02  0.2191729E+05  0.2380156E+05  0.2361926E-04 -0.1262665E-02
  0.1969048E+01 -0.3758423E-02 -0.6084442E-02  0.2169859E+05  0.2348482E+05  0.3719676E-03 -0.7781982E-03
  0.2000000E+01 -0.4158020E-03 -0.3337860E-03  0.2150204E+05  0.2315451E+05 -0.1640320E-03 -0.4463196E-03
Zone t="Motion of body    1 in DoF   3",I=    64,F=POINT
  0.5000000E-01  0.3786082E+03  0.1818979E-04 -0.4216433E-02 -0.7681824E-05  0.5370362E+03  0.5172606E-06
  0.8095238E-01  0.3767702E+03  0.7989330E-04 -0.2253056E-02 -0.6332776E-05  0.5363647E+03  0.1270707E-05
  0.1119048E+00  0.3704662E+03  0.2224018E-03 -0.2886894E-02 -0.1155616E-04  0.5348436E+03  0.3934329E-05
  0.1428571E+00  0.3739557E+03  0.5048869E-03 -0.2986550E-02 -0.1551610E-04  0.5326295E+03  0.1010238E-04
  0.1738095E+00  0.3730968E+03  0.1007775E-02 -0.2558950E-02 -0.1948313E-04  0.5313749E+03  0.1808848E-04
  0.2047619E+00  0.3779197E+03  0.1863874E-02 -0.3826119E-02 -0.3578442E-04  0.5363723E+03  0.3195338E-04
  0.2357143E+00  0.3763475E+03  0.3305130E-02 -0.3823367E-02 -0.4406795E-04  0.5338736E+03  0.6167586E-04
  0.2666667E+00  0.3791321E+03  0.5686339E-02 -0.3845393E-02 -0.5697497E-04  0.5335911E+03  0.1064729E-03
  0.2976190E+00  0.3834391E+03  0.9598666E-02 -0.4584617E-02 -0.9435986E-04  0.5340565E+03  0.1739796E-03
  0.3285715E+00  0.3815030E+03  0.1599711E-01 -0.2270470E-02 -0.4617134E-04  0.5340244E+03  0.2939677E-03
  0.3595238E+00  0.3853439E+03  0.2651733E-01 -0.4606246E-02 -0.1280150E-03  0.5320822E+03  0.4820377E-03
  0.3904762E+00  0.3897656E+03  0.4366034E-01 -0.4213030E-03  0.1948606E-04  0.5341871E+03  0.7920383E-03
  0.4214286E+00  0.3926422E+03  0.7091712E-01 -0.3090066E-02 -0.1425978E-03  0.5331805E+03  0.1305660E-02
  0.4523810E+00  0.3971474E+03  0.1143353E+00 -0.4421786E-02 -0.2253343E-03  0.5349308E+03  0.2133887E-02
  0.4833333E+00  0.4099905E+03  0.1800955E+00 -0.2495996E-02 -0.1125460E-03  0.5350381E+03  0.3407893E-02
  0.5142857E+00  0.4099212E+03  0.2789598E+00 -0.1901653E-02 -0.9668758E-04  0.5355375E+03  0.5305442E-02
  0.5452381E+00  0.4093603E+03  0.4216896E+00 -0.3130884E-02 -0.2640046E-03  0.5359366E+03  0.8098416E-02
  0.5761905E+00  0.4188106E+03  0.6236207E+00 -0.5284853E-02 -0.6095811E-03  0.5341578E+03  0.1213807E-01
  0.6071429E+00  0.4272567E+03  0.9060941E+00 -0.1622593E-02 -0.8705980E-04  0.5369473E+03  0.1783668E-01
  0.6380953E+00  0.4355929E+03  0.1287901E+01 -0.3658693E-02 -0.4774618E-03  0.5367271E+03  0.2566286E-01
  0.6690477E+00  0.4357761E+03  0.1799925E+01 -0.3675447E-02 -0.5469494E-03  0.5351158E+03  0.3620036E-01
  0.7000000E+00  0.4398159E+03  0.2479231E+01 -0.2907344E-02 -0.4889844E-03  0.5374429E+03  0.5037304E-01
  0.7309524E+00  0.4510508E+03  0.3363775E+01 -0.2244738E-02 -0.2472783E-03  0.5375243E+03  0.6931744E-01
  0.7619048E+00  0.4644367E+03  0.4508593E+01 -0.3742575E-02 -0.7581906E-03  0.5367743E+03  0.9430822E-01
  0.7928572E+00  0.4746689E+03  0.5977556E+01 -0.3438898E-02 -0.8317176E-03  0.5386331E+03  0.1266206E+00
  0.8238096E+00  0.4779852E+03  0.7835276E+01 -0.2332643E-02 -0.4888475E-03  0.5391653E+03  0.1678521E+00
  0.8547620E+00  0.4851419E+03  0.1015999E+02 -0.3117319E-02 -0.7707383E-03  0.5381089E+03  0.2205376E+00
  0.8857143E+00  0.4965673E+03  0.1304940E+02 -0.2597071E-02 -0.6351545E-03  0.5378220E+03  0.2866290E+00
  0.9166667E+00  0.5091181E+03  0.1662554E+02 -0.4399733E-02 -0.1662973E-02  0.5395032E+03  0.3705847E+00
  0.9476191E+00  0.5230741E+03  0.2099819E+02 -0.3383483E-02 -0.1313828E-02  0.5413013E+03  0.4760496E+00
  0.9785714E+00  0.5395182E+03  0.2631526E+02 -0.3075704E-02 -0.1020465E-02  0.5420008E+03  0.6064698E+00
  0.1009524E+01  0.5534163E+03  0.3274705E+02 -0.2657378E-02 -0.9950697E-03  0.5408026E+03  0.7659193E+00
  0.1040476E+01  0.5618934E+03  0.4051250E+02 -0.3092523E-02 -0.1487546E-02  0.5411024E+03  0.9618300E+00
  0.1071429E+01  0.5720560E+03  0.4972282E+02 -0.2114868E-02 -0.8861646E-03  0.5432669E+03  0.1198192E+01
  0.1102381E+01  0.5862409E+03  0.6055529E+02 -0.3529625E-02 -0.1970097E-02  0.5443393E+03  0.1475877E+01
  0.1133333E+01  0.6039149E+03  0.7324847E+02 -0.3449216E-02 -0.2256230E-02  0.5442200E+03  0.1817038E+01
  0.1164286E+01  0.6223021E+03  0.8808862E+02 -0.1664425E-02 -0.3382117E-03  0.5434240E+03  0.2218386E+01
  0.1195238E+01  0.6405720E+03  0.1053935E+03 -0.3235464E-02 -0.1827911E-02  0.5447576E+03  0.2706045E+01
  0.1226190E+01  0.6579094E+03  0.1254396E+03 -0.1682281E-02 -0.1924634E-03  0.5476009E+03  0.3278113E+01
  0.1257143E+01  0.6731285E+03  0.1485312E+03 -0.1745549E-02 -0.5693436E-03  0.5489886E+03  0.3950030E+01
  0.1288095E+01  0.6880994E+03  0.1746786E+03 -0.2741611E-02 -0.1810402E-02  0.5497610E+03  0.4732302E+01
  0.1319048E+01  0.7013446E+03  0.2046035E+03 -0.1780031E-02 -0.8876324E-03  0.5486813E+03  0.5629485E+01
  0.1350000E+01  0.7147264E+03  0.2379347E+03 -0.2092432E-02 -0.1294076E-02  0.5483096E+03  0.6655943E+01
  0.1380952E+01  0.7289529E+03  0.2752728E+03 -0.3009599E-02 -0.1947701E-02  0.5494105E+03  0.7785599E+01
  0.1411905E+01  0.6965982E+03  0.3036100E+03 -0.1900047E-02 -0.4729629E-03  0.5480031E+03  0.8725823E+01
  0.1442857E+01  0.7084092E+03  0.3474487E+03 -0.2791905E-02 -0.2332628E-02  0.5497434E+03  0.1016120E+02
  0.1473810E+01  0.7189573E+03  0.3953669E+03 -0.2154133E-02 -0.1700997E-02  0.5509257E+03  0.1179589E+02
  0.1504762E+01  0.7289798E+03  0.4476002E+03 -0.3109280E-02 -0.4126489E-02  0.5513759E+03  0.1362591E+02
  0.1535714E+01  0.7386157E+03  0.5039078E+03 -0.1763632E-02 -0.1479685E-02  0.5510740E+03  0.1549743E+02
  0.1566667E+01  0.7440137E+03  0.5641630E+03 -0.2240120E-02 -0.2707243E-02  0.5510385E+03  0.1766997E+02
  0.1597619E+01  0.7477180E+03  0.6283817E+03 -0.2409229E-02 -0.3818035E-02  0.5519424E+03  0.1995025E+02
  0.1628572E+01  0.7476835E+03  0.6961865E+03 -0.2458305E-02 -0.3166795E-02  0.5539498E+03  0.2266602E+02
  0.1659524E+01  0.7449639E+03  0.7670615E+03 -0.2286027E-02 -0.1954913E-02  0.5556452E+03  0.2557546E+02
  0.1690476E+01  0.7407134E+03  0.8405674E+03 -0.2086209E-02 -0.1412868E-02  0.5561653E+03  0.2862049E+02
  0.1721429E+01  0.7345574E+03  0.9159164E+03 -0.1455916E-02  0.1347303E-02  0.5567005E+03  0.3169044E+02
  0.1752381E+01  0.7270607E+03  0.9933349E+03 -0.1544486E-02 -0.2474308E-02  0.5552477E+03  0.3483833E+02
  0.1783333E+01  0.7168801E+03  0.1071405E+04 -0.2308070E-02 -0.2287745E-02  0.5541168E+03  0.3779726E+02
  0.1814286E+01  0.7034192E+03  0.1150922E+04 -0.1963818E-02 -0.1986980E-02  0.5536614E+03  0.4117354E+02
  0.1845238E+01  0.6884534E+03  0.1231697E+04 -0.1541187E-02 -0.5134344E-03  0.5540067E+03  0.4504480E+02
  0.1876190E+01  0.6703831E+03  0.1312961E+04 -0.1752631E-02 -0.1953959E-02  0.5557426E+03  0.4921800E+02
  0.1907143E+01  0.6507075E+03  0.1391911E+04 -0.1600173E-02 -0.9012222E-03  0.5577834E+03  0.5386716E+02
  0.1938095E+01  0.6298014E+03  0.1469859E+04 -0.2213321E-02 -0.2703190E-02  0.5582992E+03  0.5814759E+02
  0.1969048E+01  0.6079966E+03  0.1545216E+04 -0.1510150E-02 -0.2217293E-02  0.5588995E+03  0.6242801E+02
  0.2000000E+01  0.5840686E+03  0.1619385E+04 -0.1848221E-02 -0.3104448E-02  0.5578665E+03  0.6633692E+02
