VARIABLES="w (rad/s)"
"abs(F   1   1)" "angle(F   1   1)"
"abs(F   1   2)" "angle(F   1   2)"
"abs(F   1   3)" "angle(F   1   3)"
Zone t="Diffraction force - beta =   0.000 deg",I=    64,F=POINT
  0.5000000E-01  0.9577778E+03 -0.1570796E+01  0.3882541E+06 -0.2555209E-04  0.1854048E+04 -0.1570800E+01
  0.8095238E-01  0.1561040E+04 -0.1570791E+01  0.3877130E+06 -0.6876858E-04  0.3020854E+04 -0.1570800E+01
  0.1119048E+00  0.2179343E+04 -0.1570794E+01  0.3869186E+06 -0.1366464E-03  0.4217888E+04 -0.1570793E+01
  0.1428571E+00  0.2817628E+04 -0.1570790E+01  0.3858680E+06 -0.2344243E-03  0.5453327E+04 -0.1570800E+01
  0.1738095E+00  0.3484464E+04 -0.1570797E+01  0.3845603E+06 -0.3702237E-03  0.6748356E+04 -0.1570799E+01
  0.2047619E+00  0.4185793E+04 -0.1570793E+01  0.3829875E+06 -0.5554504E-03  0.8109076E+04 -0.1570797E+01
  0.2357143E+00  0.4932733E+04 -0.1570792E+01  0.3811473E+06 -0.8073057E-03  0.9563924E+04 -0.1570791E+01
  0.2666667E+00  0.5735340E+04 -0.1570783E+01  0.3790365E+06 -0.1146970E-02  0.1112749E+05 -0.1570789E+01
  0.2976190E+00  0.6604913E+04 -0.1570779E+01  0.3766412E+06 -0.1609231E-02  0.1282296E+05 -0.1570782E+01
  0.3285715E+00  0.7556148E+04 -0.1570771E+01  0.3739609E+06 -0.2231355E-02  0.1468510E+05 -0.1570772E+01
  0.3595238E+00  0.8604981E+04 -0.1570760E+01  0.3710062E+06 -0.3070032E-02  0.1674215E+05 -0.1570761E+01
  0.3904762E+00  0.9759680E+04 -0.1570741E+01  0.3677546E+06 -0.4191739E-02  0.1900435E+05 -0.1570742E+01
  0.4214286E+00  0.1103540E+05 -0.1570712E+01  0.3642417E+06 -0.5636764E-02  0.2151182E+05 -0.1570715E+01
  0.4523810E+00  0.1244520E+05 -0.1570671E+01  0.3604628E+06 -0.7518365E-02  0.2429871E+05 -0.1570674E+01
  0.4833333E+00  0.1398111E+05 -0.1570618E+01  0.3564714E+06 -0.9794950E-02  0.2732990E+05 -0.1570620E+01
  0.5142857E+00  0.1564108E+05 -0.1570544E+01  0.3522427E+06 -0.1259119E-01  0.3061055E+05 -0.1570544E+01
  0.5452381E+00  0.1741717E+05 -0.1570443E+01  0.3478050E+06 -0.1587605E-01  0.3413592E+05 -0.1570443E+01
  0.5761905E+00  0.1930915E+05 -0.1570313E+01  0.3431930E+06 -0.1966626E-01  0.3791486E+05 -0.1570313E+01
  0.6071429E+00  0.2129709E+05 -0.1570145E+01  0.3384328E+06 -0.2406519E-01  0.4188433E+05 -0.1570147E+01
  0.6380953E+00  0.2336885E+05 -0.1569939E+01  0.3334643E+06 -0.2898060E-01  0.4602941E+05 -0.1569940E+01
  0.6690477E+00  0.2552096E+05 -0.1569683E+01  0.3283400E+06 -0.3452129E-01  0.5035769E+05 -0.1569683E+01
  0.7000000E+00  0.2774610E+05 -0.1569372E+01  0.3231184E+06 -0.4075659E-01  0.5485200E+05 -0.1569371E+01
  0.7309524E+00  0.3003818E+05 -0.1568999E+01  0.3177893E+06 -0.4764760E-01  0.5949800E+05 -0.1568999E+01
  0.7619048E+00  0.3239642E+05 -0.1568558E+01  0.3123595E+06 -0.5525724E-01  0.6429448E+05 -0.1568558E+01
  0.7928572E+00  0.3480993E+05 -0.1568040E+01  0.3068255E+06 -0.6361866E-01  0.6921951E+05 -0.1568040E+01
  0.8238096E+00  0.3726764E+05 -0.1567440E+01  0.3012152E+06 -0.7275323E-01  0.7425404E+05 -0.1567441E+01
  0.8547620E+00  0.3976721E+05 -0.1566753E+01  0.2955573E+06 -0.8268583E-01  0.7940293E+05 -0.1566753E+01
  0.8857143E+00  0.4230801E+05 -0.1565974E+01  0.2898735E+06 -0.9343553E-01  0.8467092E+05 -0.1565975E+01
  0.9166667E+00  0.4487927E+05 -0.1565102E+01  0.2841961E+06 -0.1050253E+00  0.9002469E+05 -0.1565103E+01
  0.9476191E+00  0.4747329E+05 -0.1564132E+01  0.2785312E+06 -0.1174636E+00  0.9544620E+05 -0.1564134E+01
  0.9785714E+00  0.5008187E+05 -0.1563067E+01  0.2728552E+06 -0.1307451E+00  0.1009223E+06 -0.1563068E+01
  0.1009524E+01  0.5269496E+05 -0.1561911E+01  0.2671722E+06 -0.1448792E+00  0.1064412E+06 -0.1561913E+01
  0.1040476E+01  0.5530472E+05 -0.1560671E+01  0.2615073E+06 -0.1598792E+00  0.1119869E+06 -0.1560673E+01
  0.1071429E+01  0.5789654E+05 -0.1559360E+01  0.2559028E+06 -0.1757680E+00  0.1175288E+06 -0.1559362E+01
  0.1102381E+01  0.6046523E+05 -0.1557991E+01  0.2503637E+06 -0.1925570E+00  0.1230610E+06 -0.1557995E+01
  0.1133333E+01  0.6300461E+05 -0.1556585E+01  0.2449075E+06 -0.2102456E+00  0.1285675E+06 -0.1556590E+01
  0.1164286E+01  0.6549981E+05 -0.1555164E+01  0.2395297E+06 -0.2288321E+00  0.1340165E+06 -0.1555171E+01
  0.1195238E+01  0.6794344E+05 -0.1553759E+01  0.2342111E+06 -0.2482834E+00  0.1393936E+06 -0.1553766E+01
  0.1226190E+01  0.7031888E+05 -0.1552399E+01  0.2289605E+06 -0.2685965E+00  0.1446595E+06 -0.1552406E+01
  0.1257143E+01  0.7261162E+05 -0.1551104E+01  0.2237651E+06 -0.2900437E+00  0.1497812E+06 -0.1551109E+01
  0.1288095E+01  0.7481952E+05 -0.1549983E+01  0.2186700E+06 -0.3117985E+00  0.1547673E+06 -0.1549987E+01
  0.1319048E+01  0.7692216E+05 -0.1549026E+01  0.2136512E+06 -0.3347011E+00  0.1595625E+06 -0.1549029E+01
  0.1350000E+01  0.7891206E+05 -0.1548309E+01  0.2087215E+06 -0.3584589E+00  0.1641566E+06 -0.1548312E+01
  0.1380952E+01  0.8078275E+05 -0.1547898E+01  0.2038730E+06 -0.3830357E+00  0.1685316E+06 -0.1547899E+01
  0.1411905E+01  0.8253627E+05 -0.1547812E+01  0.2007154E+06 -0.4007269E+00  0.1726982E+06 -0.1547813E+01
  0.1442857E+01  0.8418434E+05 -0.1548068E+01  0.1961223E+06 -0.4265980E+00  0.1766746E+06 -0.1548068E+01
  0.1473810E+01  0.8569030E+05 -0.1548802E+01  0.1916283E+06 -0.4533005E+00  0.1803869E+06 -0.1548801E+01
  0.1504762E+01  0.8705297E+05 -0.1550091E+01  0.1872182E+06 -0.4807986E+00  0.1838184E+06 -0.1550089E+01
  0.1535714E+01  0.8826426E+05 -0.1552007E+01  0.1829033E+06 -0.5091057E+00  0.1869543E+06 -0.1552003E+01
  0.1566667E+01  0.8931985E+05 -0.1554617E+01  0.1786782E+06 -0.5382130E+00  0.1897799E+06 -0.1554613E+01
  0.1597619E+01  0.9021856E+05 -0.1557997E+01  0.1745299E+06 -0.5680764E+00  0.1922863E+06 -0.1557992E+01
  0.1628572E+01  0.9096026E+05 -0.1562217E+01  0.1704874E+06 -0.5987486E+00  0.1944787E+06 -0.1562211E+01
  0.1659524E+01  0.9154832E+05 -0.1567348E+01  0.1665559E+06 -0.6302504E+00  0.1963541E+06 -0.1567341E+01
  0.1690476E+01  0.9198171E+05 -0.1573449E+01  0.1627227E+06 -0.6625394E+00  0.1979114E+06 -0.1573442E+01
  0.1721429E+01  0.9226616E+05 -0.1580587E+01  0.1589847E+06 -0.6956241E+00  0.1991549E+06 -0.1580580E+01
  0.1752381E+01  0.9240504E+05 -0.1588819E+01  0.1553398E+06 -0.7294807E+00  0.2000921E+06 -0.1588814E+01
  0.1783333E+01  0.9240457E+05 -0.1598189E+01  0.1517865E+06 -0.7641134E+00  0.2007296E+06 -0.1598186E+01
  0.1814286E+01  0.9227433E+05 -0.1608748E+01  0.1483415E+06 -0.7995651E+00  0.2010925E+06 -0.1608746E+01
  0.1845238E+01  0.9201923E+05 -0.1620534E+01  0.1449732E+06 -0.8357288E+00  0.2011811E+06 -0.1620536E+01
  0.1876190E+01  0.9164809E+05 -0.1633579E+01  0.1416935E+06 -0.8726365E+00  0.2010208E+06 -0.1633583E+01
  0.1907143E+01  0.9116923E+05 -0.1647913E+01  0.1384917E+06 -0.9102681E+00  0.2006201E+06 -0.1647918E+01
  0.1938095E+01  0.9058971E+05 -0.1663551E+01  0.1353631E+06 -0.9485946E+00  0.1999890E+06 -0.1663559E+01
  0.1969048E+01  0.8991774E+05 -0.1680501E+01  0.1323144E+06 -0.9876611E+00  0.1991435E+06 -0.1680516E+01
  0.2000000E+01  0.8915979E+05 -0.1698789E+01  0.1293239E+06 -0.1027396E+01  0.1980974E+06 -0.1698807E+01
