VARIABLES="w (rad/s)"
"abs(F   1   1)" "angle(F   1   1)"
"abs(F   1   2)" "angle(F   1   2)"
"abs(F   1   3)" "angle(F   1   3)"
Zone t="Diffraction force - beta =   0.000 deg",I=    64,F=POINT
  0.5000000E-01  0.1690621E+04 -0.1570769E+01  0.5017153E+06 -0.3335870E-04  0.2708607E+04 -0.1570800E+01
  0.8095238E-01  0.2756923E+04 -0.1570781E+01  0.5008958E+06 -0.8975724E-04  0.4413730E+04 -0.1570794E+01
  0.1119048E+00  0.3847307E+04 -0.1570794E+01  0.4996948E+06 -0.1782853E-03  0.6158410E+04 -0.1570798E+01
  0.1428571E+00  0.4973667E+04 -0.1570799E+01  0.4981075E+06 -0.3057281E-03  0.7968480E+04 -0.1570796E+01
  0.1738095E+00  0.6148067E+04 -0.1570781E+01  0.4961299E+06 -0.4825313E-03  0.9854869E+04 -0.1570790E+01
  0.2047619E+00  0.7384126E+04 -0.1570791E+01  0.4937530E+06 -0.7234431E-03  0.1185096E+05 -0.1570787E+01
  0.2357143E+00  0.8698608E+04 -0.1570788E+01  0.4909794E+06 -0.1050625E-02  0.1397372E+05 -0.1570785E+01
  0.2666667E+00  0.1010808E+05 -0.1570774E+01  0.4877835E+06 -0.1491090E-02  0.1625585E+05 -0.1570778E+01
  0.2976190E+00  0.1163722E+05 -0.1570770E+01  0.4841700E+06 -0.2089871E-02  0.1874765E+05 -0.1570763E+01
  0.3285715E+00  0.1330634E+05 -0.1570753E+01  0.4801411E+06 -0.2894130E-02  0.2146761E+05 -0.1570753E+01
  0.3595238E+00  0.1513985E+05 -0.1570732E+01  0.4756802E+06 -0.3976329E-02  0.2446048E+05 -0.1570731E+01
  0.3904762E+00  0.1716459E+05 -0.1570697E+01  0.4707716E+06 -0.5420481E-02  0.2779379E+05 -0.1570697E+01
  0.4214286E+00  0.1939754E+05 -0.1570650E+01  0.4655239E+06 -0.7277762E-02  0.3147230E+05 -0.1570651E+01
  0.4523810E+00  0.2185321E+05 -0.1570581E+01  0.4598794E+06 -0.9690601E-02  0.3552117E+05 -0.1570580E+01
  0.4833333E+00  0.2452807E+05 -0.1570481E+01  0.4538856E+06 -0.1259933E-01  0.3995542E+05 -0.1570483E+01
  0.5142857E+00  0.2742474E+05 -0.1570348E+01  0.4475902E+06 -0.1616577E-01  0.4480204E+05 -0.1570351E+01
  0.5452381E+00  0.3051962E+05 -0.1570174E+01  0.4410580E+06 -0.2034385E-01  0.4998738E+05 -0.1570174E+01
  0.5761905E+00  0.3379863E+05 -0.1569946E+01  0.4342660E+06 -0.2514525E-01  0.5549894E+05 -0.1569946E+01
  0.6071429E+00  0.3723329E+05 -0.1569656E+01  0.4272319E+06 -0.3069967E-01  0.6129805E+05 -0.1569656E+01
  0.6380953E+00  0.4080333E+05 -0.1569296E+01  0.4199668E+06 -0.3688778E-01  0.6736706E+05 -0.1569296E+01
  0.6690477E+00  0.4451612E+05 -0.1568853E+01  0.4125582E+06 -0.4384423E-01  0.7373478E+05 -0.1568853E+01
  0.7000000E+00  0.4834760E+05 -0.1568315E+01  0.4050439E+06 -0.5164603E-01  0.8033074E+05 -0.1568316E+01
  0.7309524E+00  0.5227584E+05 -0.1567675E+01  0.3973416E+06 -0.6022621E-01  0.8711948E+05 -0.1567676E+01
  0.7619048E+00  0.5629322E+05 -0.1566919E+01  0.3895018E+06 -0.6966319E-01  0.9411454E+05 -0.1566920E+01
  0.7928572E+00  0.6038569E+05 -0.1566039E+01  0.3815940E+06 -0.8000655E-01  0.1013031E+06 -0.1566039E+01
  0.8238096E+00  0.6454971E+05 -0.1565025E+01  0.3736691E+06 -0.9128215E-01  0.1086770E+06 -0.1565025E+01
  0.8547620E+00  0.6877077E+05 -0.1563869E+01  0.3657350E+06 -0.1035065E+00  0.1162095E+06 -0.1563871E+01
  0.8857143E+00  0.7303664E+05 -0.1562568E+01  0.3577903E+06 -0.1166802E+00  0.1238775E+06 -0.1562569E+01
  0.9166667E+00  0.7732601E+05 -0.1561117E+01  0.3498218E+06 -0.1308095E+00  0.1316385E+06 -0.1561118E+01
  0.9476191E+00  0.8161295E+05 -0.1559520E+01  0.3418777E+06 -0.1459137E+00  0.1394507E+06 -0.1559521E+01
  0.9785714E+00  0.8588115E+05 -0.1557783E+01  0.3339839E+06 -0.1620097E+00  0.1473149E+06 -0.1557785E+01
  0.1009524E+01  0.9012423E+05 -0.1555923E+01  0.3261673E+06 -0.1791158E+00  0.1552169E+06 -0.1555926E+01
  0.1040476E+01  0.9432789E+05 -0.1553955E+01  0.3184466E+06 -0.1972409E+00  0.1631395E+06 -0.1553961E+01
  0.1071429E+01  0.9846248E+05 -0.1551905E+01  0.3108649E+06 -0.2163945E+00  0.1710069E+06 -0.1551913E+01
  0.1102381E+01  0.1025073E+06 -0.1549799E+01  0.3033951E+06 -0.2365551E+00  0.1787800E+06 -0.1549811E+01
  0.1133333E+01  0.1064413E+06 -0.1547676E+01  0.2960239E+06 -0.2576880E+00  0.1864272E+06 -0.1547687E+01
  0.1164286E+01  0.1102370E+06 -0.1545580E+01  0.2887357E+06 -0.2797940E+00  0.1938982E+06 -0.1545589E+01
  0.1195238E+01  0.1138732E+06 -0.1543569E+01  0.2815427E+06 -0.3028612E+00  0.2011634E+06 -0.1543575E+01
  0.1226190E+01  0.1173229E+06 -0.1541707E+01  0.2744780E+06 -0.3269244E+00  0.2081680E+06 -0.1541710E+01
  0.1257143E+01  0.1205692E+06 -0.1540033E+01  0.2675574E+06 -0.3522684E+00  0.2148640E+06 -0.1540036E+01
  0.1288095E+01  0.1235948E+06 -0.1538729E+01  0.2608251E+06 -0.3780876E+00  0.2212581E+06 -0.1538729E+01
  0.1319048E+01  0.1263896E+06 -0.1537781E+01  0.2542270E+06 -0.4051589E+00  0.2272864E+06 -0.1537780E+01
  0.1350000E+01  0.1289302E+06 -0.1537312E+01  0.2477979E+06 -0.4332080E+00  0.2329188E+06 -0.1537309E+01
  0.1380952E+01  0.1312105E+06 -0.1537421E+01  0.2414865E+06 -0.4621338E+00  0.2381319E+06 -0.1537415E+01
  0.1411905E+01  0.1332688E+06 -0.1538052E+01  0.2371130E+06 -0.4834985E+00  0.2430150E+06 -0.1538042E+01
  0.1442857E+01  0.1350654E+06 -0.1539394E+01  0.2311205E+06 -0.5138243E+00  0.2474634E+06 -0.1539384E+01
  0.1473810E+01  0.1365746E+06 -0.1541566E+01  0.2252742E+06 -0.5450760E+00  0.2514304E+06 -0.1541554E+01
  0.1504762E+01  0.1377995E+06 -0.1544665E+01  0.2195582E+06 -0.5772227E+00  0.2549031E+06 -0.1544652E+01
  0.1535714E+01  0.1387392E+06 -0.1548787E+01  0.2139875E+06 -0.6102836E+00  0.2578780E+06 -0.1548772E+01
  0.1566667E+01  0.1393959E+06 -0.1554010E+01  0.2085739E+06 -0.6442660E+00  0.2603483E+06 -0.1553994E+01
  0.1597619E+01  0.1397786E+06 -0.1560426E+01  0.2032885E+06 -0.6791176E+00  0.2623187E+06 -0.1560410E+01
  0.1628572E+01  0.1398991E+06 -0.1568114E+01  0.1981599E+06 -0.7148860E+00  0.2638179E+06 -0.1568099E+01
  0.1659524E+01  0.1397707E+06 -0.1577142E+01  0.1931790E+06 -0.7515669E+00  0.2648543E+06 -0.1577128E+01
  0.1690476E+01  0.1394095E+06 -0.1587572E+01  0.1883535E+06 -0.7891744E+00  0.2654572E+06 -0.1587562E+01
  0.1721429E+01  0.1388285E+06 -0.1599448E+01  0.1836687E+06 -0.8276567E+00  0.2656429E+06 -0.1599440E+01
  0.1752381E+01  0.1380427E+06 -0.1612822E+01  0.1790938E+06 -0.8669698E+00  0.2654260E+06 -0.1612817E+01
  0.1783333E+01  0.1370636E+06 -0.1627715E+01  0.1746259E+06 -0.9070581E+00  0.2648248E+06 -0.1627711E+01
  0.1814286E+01  0.1359121E+06 -0.1644139E+01  0.1702733E+06 -0.9479565E+00  0.2638605E+06 -0.1644142E+01
  0.1845238E+01  0.1346005E+06 -0.1662121E+01  0.1660134E+06 -0.9896435E+00  0.2625551E+06 -0.1662133E+01
  0.1876190E+01  0.1331534E+06 -0.1681695E+01  0.1618711E+06 -0.1032166E+01  0.2609715E+06 -0.1681716E+01
  0.1907143E+01  0.1315892E+06 -0.1702878E+01  0.1578555E+06 -0.1075618E+01  0.2591427E+06 -0.1702908E+01
  0.1938095E+01  0.1299275E+06 -0.1725672E+01  0.1539620E+06 -0.1119987E+01  0.2570946E+06 -0.1725717E+01
  0.1969048E+01  0.1281795E+06 -0.1750048E+01  0.1502058E+06 -0.1165221E+01  0.2548423E+06 -0.1750123E+01
  0.2000000E+01  0.1263549E+06 -0.1776001E+01  0.1465365E+06 -0.1211246E+01  0.2524018E+06 -0.1776108E+01
