VARIABLES="w (rad/s)"
"abs(F   1   1)" "angle(F   1   1)"
"abs(F   1   2)" "angle(F   1   2)"
"abs(F   1   3)" "angle(F   1   3)"
Zone t="Diffraction force - beta =   0.000 deg",I=    64,F=POINT
  0.5000000E-01  0.6074080E+04 -0.1570801E+01  0.6275391E+06 -0.4208204E-04  0.4426765E+04  0.1570838E+01
  0.8095238E-01  0.9909523E+04 -0.1570796E+01  0.6257211E+06 -0.1130841E-03  0.7228240E+04  0.1570803E+01
  0.1119048E+00  0.1384669E+05 -0.1570791E+01  0.6230558E+06 -0.2241915E-03  0.1013571E+05  0.1570808E+01
  0.1428571E+00  0.1788647E+05 -0.1570783E+01  0.6195424E+06 -0.3836369E-03  0.1311270E+05  0.1570818E+01
  0.1738095E+00  0.2213879E+05 -0.1570776E+01  0.6151761E+06 -0.6035352E-03  0.1628654E+05  0.1570817E+01
  0.2047619E+00  0.2660223E+05 -0.1570765E+01  0.6099688E+06 -0.9018821E-03  0.1962976E+05  0.1570827E+01
  0.2357143E+00  0.3135672E+05 -0.1570746E+01  0.6039094E+06 -0.1304663E-02  0.2323063E+05  0.1570845E+01
  0.2666667E+00  0.3648284E+05 -0.1570723E+01  0.5969925E+06 -0.1842404E-02  0.2716774E+05  0.1570869E+01
  0.2976190E+00  0.4202916E+05 -0.1570686E+01  0.5892541E+06 -0.2569699E-02  0.3143214E+05  0.1570908E+01
  0.3285715E+00  0.4810763E+05 -0.1570631E+01  0.5806624E+06 -0.3536975E-02  0.3619693E+05  0.1570963E+01
  0.3595238E+00  0.5485357E+05 -0.1570547E+01  0.5712985E+06 -0.4830403E-02  0.4150011E+05  0.1571046E+01
  0.3904762E+00  0.6223924E+05 -0.1570425E+01  0.5611451E+06 -0.6539264E-02  0.4740961E+05  0.1571169E+01
  0.4214286E+00  0.7038093E+05 -0.1570243E+01  0.5503160E+06 -0.8714982E-02  0.5394557E+05  0.1571350E+01
  0.4523810E+00  0.7954421E+05 -0.1569975E+01  0.5388767E+06 -0.1153006E-01  0.6148300E+05  0.1571618E+01
  0.4833333E+00  0.8946630E+05 -0.1569605E+01  0.5268101E+06 -0.1486618E-01  0.6969998E+05  0.1571988E+01
  0.5142857E+00  0.1002134E+06 -0.1569088E+01  0.5144621E+06 -0.1893800E-01  0.7865509E+05  0.1572506E+01
  0.5452381E+00  0.1116332E+06 -0.1568396E+01  0.5015645E+06 -0.2364339E-01  0.8833968E+05  0.1573198E+01
  0.5761905E+00  0.1240513E+06 -0.1567496E+01  0.4883980E+06 -0.2898175E-01  0.9890376E+05  0.1574099E+01
  0.6071429E+00  0.1371557E+06 -0.1566327E+01  0.4750257E+06 -0.3514040E-01  0.1104316E+06  0.1575269E+01
  0.6380953E+00  0.1506529E+06 -0.1564865E+01  0.4611767E+06 -0.4185811E-01  0.1223995E+06  0.1576736E+01
  0.6690477E+00  0.1646862E+06 -0.1563044E+01  0.4473678E+06 -0.4934245E-01  0.1347928E+06  0.1578560E+01
  0.7000000E+00  0.1795050E+06 -0.1560802E+01  0.4334462E+06 -0.5768904E-01  0.1484341E+06  0.1580804E+01
  0.7309524E+00  0.1948762E+06 -0.1558089E+01  0.4192022E+06 -0.6673095E-01  0.1626695E+06  0.1583521E+01
  0.7619048E+00  0.2106590E+06 -0.1554827E+01  0.4050278E+06 -0.7658447E-01  0.1773934E+06  0.1586795E+01
  0.7928572E+00  0.2269032E+06 -0.1550943E+01  0.3910125E+06 -0.8730906E-01  0.1929367E+06  0.1590699E+01
  0.8238096E+00  0.2432238E+06 -0.1546372E+01  0.3769133E+06 -0.9887180E-01  0.2087038E+06  0.1595292E+01
  0.8547620E+00  0.2598109E+06 -0.1541056E+01  0.3626618E+06 -0.1112602E+00  0.2252337E+06  0.1600634E+01
  0.8857143E+00  0.2770150E+06 -0.1534957E+01  0.3489191E+06 -0.1245162E+00  0.2420390E+06  0.1606730E+01
  0.9166667E+00  0.2946590E+06 -0.1527978E+01  0.3352204E+06 -0.1387060E+00  0.2600584E+06  0.1613738E+01
  0.9476191E+00  0.3120805E+06 -0.1520058E+01  0.3216611E+06 -0.1537536E+00  0.2780122E+06  0.1621714E+01
  0.9785714E+00  0.3293045E+06 -0.1511144E+01  0.3081280E+06 -0.1696774E+00  0.2962531E+06  0.1630724E+01
  0.1009524E+01  0.3462419E+06 -0.1501237E+01  0.2949847E+06 -0.1864491E+00  0.3142478E+06  0.1640746E+01
  0.1040476E+01  0.3628478E+06 -0.1490358E+01  0.2823193E+06 -0.2040953E+00  0.3319488E+06  0.1651747E+01
  0.1071429E+01  0.3789283E+06 -0.1478548E+01  0.2697944E+06 -0.2227473E+00  0.3500070E+06  0.1663706E+01
  0.1102381E+01  0.3942771E+06 -0.1465942E+01  0.2574548E+06 -0.2422416E+00  0.3671898E+06  0.1676396E+01
  0.1133333E+01  0.4089743E+06 -0.1452588E+01  0.2452247E+06 -0.2627872E+00  0.3842818E+06  0.1689830E+01
  0.1164286E+01  0.4224824E+06 -0.1438552E+01  0.2335209E+06 -0.2841074E+00  0.4001440E+06  0.1704068E+01
  0.1195238E+01  0.4347415E+06 -0.1424070E+01  0.2223921E+06 -0.3061341E+00  0.4145520E+06  0.1718747E+01
  0.1226190E+01  0.4456194E+06 -0.1409286E+01  0.2114591E+06 -0.3293467E+00  0.4286566E+06  0.1733886E+01
  0.1257143E+01  0.4544244E+06 -0.1394536E+01  0.2008021E+06 -0.3536099E+00  0.4404412E+06  0.1748959E+01
  0.1288095E+01  0.4618337E+06 -0.1380354E+01  0.1903374E+06 -0.3785456E+00  0.4508600E+06  0.1763328E+01
  0.1319048E+01  0.4672329E+06 -0.1366598E+01  0.1800558E+06 -0.4050018E+00  0.4597789E+06  0.1777494E+01
  0.1350000E+01  0.4706196E+06 -0.1353856E+01  0.1705498E+06 -0.4315506E+00  0.4657465E+06  0.1790599E+01
  0.1380952E+01  0.4721520E+06 -0.1342401E+01  0.1614395E+06 -0.4586199E+00  0.4696812E+06  0.1802382E+01
  0.1411905E+01  0.4715289E+06 -0.1332341E+01  0.1526148E+06 -0.4871583E+00  0.4722738E+06  0.1812997E+01
  0.1442857E+01  0.4692514E+06 -0.1324416E+01  0.1440210E+06 -0.5165919E+00  0.4726593E+06  0.1821335E+01
  0.1473810E+01  0.4650948E+06 -0.1318602E+01  0.1356726E+06 -0.5473598E+00  0.4708380E+06  0.1827649E+01
  0.1504762E+01  0.4593742E+06 -0.1315068E+01  0.1275643E+06 -0.5796351E+00  0.4677371E+06  0.1831988E+01
  0.1535714E+01  0.4521933E+06 -0.1314164E+01  0.1197836E+06 -0.6127285E+00  0.4627861E+06  0.1833606E+01
  0.1566667E+01  0.4437911E+06 -0.1316360E+01  0.1126145E+06 -0.6447637E+00  0.4552224E+06  0.1831411E+01
  0.1597619E+01  0.4344203E+06 -0.1321376E+01  0.1057054E+06 -0.6780445E+00  0.4467800E+06  0.1826604E+01
  0.1628572E+01  0.4242700E+06 -0.1329314E+01  0.9909314E+05 -0.7131193E+00  0.4378822E+06  0.1819398E+01
  0.1659524E+01  0.4131028E+06 -0.1340611E+01  0.9270864E+05 -0.7494830E+00  0.4273548E+06  0.1808536E+01
  0.1690476E+01  0.4013486E+06 -0.1355250E+01  0.8653510E+05 -0.7875059E+00  0.4158752E+06  0.1793987E+01
  0.1721429E+01  0.3891990E+06 -0.1373133E+01  0.8065402E+05 -0.8276213E+00  0.4040332E+06  0.1776470E+01
  0.1752381E+01  0.3766899E+06 -0.1394450E+01  0.7507986E+05 -0.8695319E+00  0.3917322E+06  0.1755739E+01
  0.1783333E+01  0.3640486E+06 -0.1419597E+01  0.6983165E+05 -0.9112251E+00  0.3785445E+06  0.1730126E+01
  0.1814286E+01  0.3514344E+06 -0.1448657E+01  0.6487461E+05 -0.9530656E+00  0.3646818E+06  0.1699148E+01
  0.1845238E+01  0.3389616E+06 -0.1481284E+01  0.6018520E+05 -0.9972546E+00  0.3511666E+06  0.1664823E+01
  0.1876190E+01  0.3267825E+06 -0.1517626E+01  0.5582029E+05 -0.1043281E+01  0.3380860E+06  0.1627015E+01
  0.1907143E+01  0.3148206E+06 -0.1558208E+01  0.5168518E+05 -0.1091588E+01  0.3250386E+06  0.1584060E+01
  0.1938095E+01  0.3032904E+06 -0.1603004E+01  0.4777045E+05 -0.1141662E+01  0.3123821E+06  0.1535986E+01
  0.1969048E+01  0.2923154E+06 -0.1651988E+01  0.4408888E+05 -0.1192477E+01  0.3003692E+06  0.1483121E+01
  0.2000000E+01  0.2820792E+06 -0.1704840E+01  0.4062285E+05 -0.1244128E+01  0.2893394E+06  0.1426376E+01
