VARIABLES="w (rad/s)"
"A   1   1" "B   1   1"
"A   1   2" "B   1   2"
"A   1   3" "B   1   3"
Zone t="Motion of body    1 in DoF   1",I=    64,F=POINT
  0.5000000E-01  0.1472098E+06  0.2504087E-01  0.3662109E-02  0.1218173E-04 -0.1861810E+06 -0.1818433E-01
  0.8095238E-01  0.1477965E+06  0.1103332E+00 -0.1569187E-01 -0.1323372E-03 -0.1865456E+06 -0.8057760E-01
  0.1119048E+00  0.1484394E+06  0.3099248E+00 -0.3477056E-02  0.1669815E-04 -0.1875605E+06 -0.2266782E+00
  0.1428571E+00  0.1482829E+06  0.6980353E+00  0.9773254E-02  0.2087606E-03 -0.1872815E+06 -0.5121210E+00
  0.1738095E+00  0.1489454E+06  0.1391510E+01  0.1703132E-01  0.2028961E-03 -0.1880138E+06 -0.1024197E+01
  0.2047619E+00  0.1492880E+06  0.2569498E+01 -0.1915155E-01 -0.2294034E-03 -0.1882535E+06 -0.1897516E+01
  0.2357143E+00  0.1497327E+06  0.4529597E+01  0.7768110E-03 -0.7142499E-04 -0.1886990E+06 -0.3355981E+01
  0.2666667E+00  0.1503930E+06  0.7740639E+01 -0.1516342E-01 -0.4187897E-03 -0.1894992E+06 -0.5764709E+01
  0.2976190E+00  0.1509377E+06  0.1300007E+02 -0.4101562E-02 -0.2303720E-04 -0.1898394E+06 -0.9724026E+01
  0.3285715E+00  0.1516343E+06  0.2154802E+02  0.1500005E-01  0.3745556E-03 -0.1906788E+06 -0.1621886E+02
  0.3595238E+00  0.1527638E+06  0.3548118E+02 -0.2673825E-02 -0.6708503E-04 -0.1915656E+06 -0.2685108E+02
  0.3904762E+00  0.1534634E+06  0.5794500E+02 -0.9378572E-03 -0.5151629E-03 -0.1924044E+06 -0.4415515E+02
  0.4214286E+00  0.1541328E+06  0.9336135E+02  0.7169044E-02  0.4131198E-03 -0.1929358E+06 -0.7159899E+02
  0.4523810E+00  0.1558734E+06  0.1495214E+03 -0.1349198E-02  0.9124279E-03 -0.1948689E+06 -0.1156042E+03
  0.4833333E+00  0.1571781E+06  0.2333175E+03 -0.8523875E-02 -0.8573532E-03 -0.1962040E+06 -0.1818845E+03
  0.5142857E+00  0.1585501E+06  0.3581183E+03  0.1625909E-01  0.1343250E-02 -0.1974525E+06 -0.2812739E+03
  0.5452381E+00  0.1596456E+06  0.5361396E+03 -0.7164301E-02 -0.1381874E-02 -0.1986199E+06 -0.4245896E+03
  0.5761905E+00  0.1618122E+06  0.7857706E+03  0.2807112E-02  0.7858276E-03 -0.2003794E+06 -0.6269488E+03
  0.6071429E+00  0.1640705E+06  0.1130799E+04  0.1246553E-01  0.3026009E-02 -0.2029392E+06 -0.9113424E+03
  0.6380953E+00  0.1658092E+06  0.1589213E+04  0.5834779E-02  0.2307892E-03 -0.2047527E+06 -0.1292802E+04
  0.6690477E+00  0.1676617E+06  0.2194846E+04 -0.1094723E-01 -0.6126404E-02 -0.2061845E+06 -0.1799176E+04
  0.7000000E+00  0.1702616E+06  0.2989704E+04  0.1630511E-01  0.6612778E-02 -0.2091448E+06 -0.2475544E+04
  0.7309524E+00  0.1730896E+06  0.4010916E+04 -0.1486315E-01 -0.9750366E-02 -0.2119785E+06 -0.3352751E+04
  0.7619048E+00  0.1759340E+06  0.5309901E+04 -0.9773253E-02 -0.3387451E-02 -0.2146623E+06 -0.4479571E+04
  0.7928572E+00  0.1789569E+06  0.6945755E+04  0.3464157E-02  0.4230499E-02 -0.2179047E+06 -0.5920415E+04
  0.8238096E+00  0.1815814E+06  0.8969015E+04 -0.2370845E-02 -0.9040833E-02 -0.2206055E+06 -0.7718437E+04
  0.8547620E+00  0.1842575E+06  0.1145036E+05  0.1135356E-01  0.9742737E-02 -0.2237068E+06 -0.9958786E+04
  0.8857143E+00  0.1875939E+06  0.1447462E+05 -0.6270870E-02  0.1914978E-02 -0.2267169E+06 -0.1268078E+05
  0.9166667E+00  0.1912987E+06  0.1813734E+05  0.5326705E-03 -0.1010132E-01 -0.2309038E+06 -0.1605432E+05
  0.9476191E+00  0.1945165E+06  0.2249237E+05 -0.3800128E-02 -0.6332397E-02 -0.2344474E+06 -0.2010829E+05
  0.9785714E+00  0.1974030E+06  0.2763034E+05 -0.5176851E-02 -0.5569458E-02 -0.2378810E+06 -0.2497049E+05
  0.1009524E+01  0.1999766E+06  0.3361779E+05 -0.1336152E-01 -0.1382446E-01 -0.2407999E+06 -0.3067962E+05
  0.1040476E+01  0.2022884E+06  0.4052021E+05 -0.3695630E-02 -0.1251221E-02 -0.2433369E+06 -0.3730299E+05
  0.1071429E+01  0.2041729E+06  0.4837440E+05  0.2050781E-02  0.8514404E-02 -0.2461595E+06 -0.4499846E+05
  0.1102381E+01  0.2055271E+06  0.5716116E+05  0.2657600E-02  0.8270264E-02 -0.2479845E+06 -0.5361107E+05
  0.1133333E+01  0.2065141E+06  0.6693688E+05  0.1723346E-02  0.1080322E-01 -0.2497054E+06 -0.6333403E+05
  0.1164286E+01  0.2066893E+06  0.7764711E+05 -0.6290739E-03  0.2868652E-02 -0.2504428E+06 -0.7410854E+05
  0.1195238E+01  0.2061063E+06  0.8920737E+05 -0.1123436E-02  0.1007080E-01 -0.2501803E+06 -0.8577659E+05
  0.1226190E+01  0.2046933E+06  0.1015454E+06 -0.5873597E-02 -0.3381348E-01 -0.2499204E+06 -0.9862846E+05
  0.1257143E+01  0.2019261E+06  0.1143261E+06 -0.8739124E-03 -0.3662109E-03 -0.2478923E+06 -0.1119916E+06
  0.1288095E+01  0.1986198E+06  0.1273940E+06  0.2511354E-02  0.1525879E-02 -0.2451610E+06 -0.1257206E+06
  0.1319048E+01  0.1942467E+06  0.1406533E+06 -0.4164492E-03  0.3295898E-02 -0.2416036E+06 -0.1400579E+06
  0.1350000E+01  0.1889521E+06  0.1537551E+06  0.4792390E-02 -0.2990723E-02 -0.2364829E+06 -0.1541301E+06
  0.1380952E+01  0.1829774E+06  0.1665377E+06  0.5966713E-02  0.1757812E-01 -0.2305734E+06 -0.1679706E+06
  0.1411905E+01  0.1760742E+06  0.1787812E+06 -0.5187474E-03  0.1379395E-01 -0.2243529E+06 -0.1818541E+06
  0.1442857E+01  0.1688323E+06  0.1901895E+06 -0.6049128E-02 -0.2661133E-01 -0.2173301E+06 -0.1947805E+06
  0.1473810E+01  0.1610713E+06  0.2006480E+06  0.1697941E-02  0.5004883E-02 -0.2094749E+06 -0.2068300E+06
  0.1504762E+01  0.1530393E+06  0.2101448E+06 -0.2839294E-02 -0.2270508E-01 -0.2015050E+06 -0.2183562E+06
  0.1535714E+01  0.1448922E+06  0.2185214E+06 -0.2623092E-02  0.2429199E-01 -0.1932072E+06 -0.2287081E+06
  0.1566667E+01  0.1368544E+06  0.2256821E+06 -0.4577637E-02 -0.6225586E-02 -0.1844492E+06 -0.2370055E+06
  0.1597619E+01  0.1290287E+06  0.2318763E+06  0.4393440E-02 -0.6103516E-02 -0.1760527E+06 -0.2446218E+06
  0.1628572E+01  0.1214660E+06  0.2371723E+06 -0.1086854E-02  0.9155273E-02 -0.1682457E+06 -0.2519839E+06
  0.1659524E+01  0.1139426E+06  0.2411794E+06  0.1048193E-02 -0.5493164E-02 -0.1601297E+06 -0.2576725E+06
  0.1690476E+01  0.1067776E+06  0.2442079E+06  0.1164396E-02  0.1098633E-02 -0.1522097E+06 -0.2620528E+06
  0.1721429E+01  0.9993500E+05  0.2464488E+06  0.6453012E-02 -0.1135254E-01 -0.1446408E+06 -0.2658994E+06
  0.1752381E+01  0.9340182E+05  0.2478643E+06  0.1036188E-02  0.1684570E-01 -0.1373236E+06 -0.2691132E+06
  0.1783333E+01  0.8732070E+05  0.2484900E+06  0.1600034E-02 -0.1519775E-01 -0.1303023E+06 -0.2708314E+06
  0.1814286E+01  0.8175478E+05  0.2485361E+06 -0.1051295E-03  0.5310059E-02 -0.1237354E+06 -0.2711370E+06
  0.1845238E+01  0.7658393E+05  0.2482814E+06 -0.6406624E-02  0.6103516E-02 -0.1177332E+06 -0.2716246E+06
  0.1876190E+01  0.7178771E+05  0.2478565E+06  0.1907918E-02 -0.5249023E-02 -0.1122814E+06 -0.2726366E+06
  0.1907143E+01  0.6716053E+05  0.2467388E+06 -0.3695899E-02  0.9399414E-02 -0.1068433E+06 -0.2724960E+06
  0.1938095E+01  0.6287323E+05  0.2452332E+06 -0.2831358E-02 -0.8239746E-02 -0.1017131E+06 -0.2716944E+06
  0.1969048E+01  0.5877203E+05  0.2432128E+06 -0.1421032E-02 -0.1220703E-02 -0.9663155E+05 -0.2700865E+06
  0.2000000E+01  0.5488394E+05  0.2409930E+06  0.2443314E-02  0.1525879E-02 -0.9177349E+05 -0.2685821E+06
Zone t="Motion of body    1 in DoF   2",I=    64,F=POINT
  0.5000000E-01 -0.2822876E-02 -0.2479553E-04  0.2208152E+06  0.5278994E+03 -0.1403809E-01  0.1316071E-03
  0.8095238E-01 -0.3769818E-03  0.6771088E-04  0.2183331E+06  0.8736091E+03 -0.3317440E-01 -0.3814697E-04
  0.1119048E+00  0.1595355E-01 -0.1087189E-03  0.2167806E+06  0.1247469E+04 -0.8726729E-02  0.2441406E-03
  0.1428571E+00  0.4058838E-02 -0.6103516E-04  0.2158993E+06  0.1662528E+04  0.1708984E-01 -0.6103516E-04
  0.1738095E+00 -0.2194757E-02  0.2670288E-04  0.2155953E+06  0.2134237E+04 -0.3511612E-02 -0.1296997E-03
  0.2047619E+00 -0.1915155E-01 -0.1869202E-03  0.2152844E+06  0.2683789E+04  0.3100018E-01  0.7629395E-04
  0.2357143E+00 -0.1294685E-03  0.2593994E-03  0.2153111E+06  0.3338271E+04 -0.3314394E-01 -0.7019043E-03
  0.2666667E+00 -0.6866454E-03  0.2975464E-03  0.2156571E+06  0.4117991E+04 -0.2105713E-01 -0.6408691E-03
  0.2976190E+00 -0.2050781E-03  0.2593994E-03  0.2158179E+06  0.5077640E+04 -0.9023437E-02  0.1525879E-02
  0.3285715E+00 -0.8080523E-02  0.9918213E-04  0.2162998E+06  0.6235133E+04 -0.9659476E-02 -0.3967285E-03
  0.3595238E+00 -0.1078018E-01  0.3433228E-03  0.2164101E+06  0.7652040E+04  0.3599053E-01 -0.1922607E-02
  0.3904762E+00 -0.3438810E-02  0.3051758E-04  0.2165615E+06  0.9361146E+04 -0.3001143E-01 -0.4272461E-03
  0.4214286E+00  0.9993212E-02  0.4577637E-04  0.2162255E+06  0.1132475E+05 -0.3707627E-01 -0.6713867E-03
  0.4523810E+00  0.8365029E-02 -0.1449585E-02  0.2153886E+06  0.1365183E+05  0.2590460E-01 -0.2441406E-03
  0.4833333E+00 -0.5051185E-02  0.5798340E-03  0.2145097E+06  0.1608051E+05  0.3030711E-02 -0.2441406E-03
  0.5142857E+00 -0.4153782E-02  0.1800537E-02  0.2122925E+06  0.1876722E+05 -0.2943251E-01 -0.1464844E-02
  0.5452381E+00  0.6380706E-02  0.1586914E-02  0.2103428E+06  0.2149784E+05 -0.1611968E-01 -0.3906250E-02
  0.5761905E+00  0.2966006E-02  0.4272461E-03  0.2077701E+06  0.2421769E+05 -0.3050749E-01 -0.2563477E-02
  0.6071429E+00 -0.7036994E-02 -0.3051758E-03  0.2047090E+06  0.2702658E+05  0.2332261E-01  0.1464844E-02
  0.6380953E+00 -0.2104346E-02 -0.2563477E-02  0.2021812E+06  0.2962807E+05 -0.1300869E-01 -0.1586914E-02
  0.6690477E+00  0.9122692E-04  0.7324219E-03  0.1988024E+06  0.3217912E+05 -0.7298153E-02  0.4272461E-02
  0.7000000E+00 -0.1002720E-01  0.7934570E-03  0.1953342E+06  0.3468375E+05 -0.8370535E-02  0.4028320E-02
  0.7309524E+00  0.5594558E-02 -0.3356934E-02  0.1923838E+06  0.3696009E+05 -0.1336014E-02  0.3417969E-02
  0.7619048E+00  0.1113510E-01  0.6103516E-04  0.1890951E+06  0.3908372E+05 -0.1281738E-02  0.1220703E-02
  0.7928572E+00 -0.1154719E-02  0.6530762E-02  0.1854792E+06  0.4106486E+05  0.2401816E-01 -0.2050781E-01
  0.8238096E+00 -0.1704045E-02 -0.3356934E-02  0.1821962E+06  0.4282158E+05 -0.8890670E-02  0.4638672E-02
  0.8547620E+00 -0.1570933E-02 -0.4882812E-03  0.1794382E+06  0.4431080E+05 -0.4569986E-02  0.2685547E-02
  0.8857143E+00 -0.1378213E-03  0.1831055E-02  0.1759663E+06  0.4562541E+05 -0.4961567E-02 -0.2929688E-02
  0.9166667E+00  0.7590554E-02 -0.5981445E-02  0.1728469E+06  0.4672291E+05 -0.2397017E-01  0.1196289E-01
  0.9476191E+00  0.7729075E-02 -0.2441406E-03  0.1699385E+06  0.4755678E+05  0.0000000E+00  0.1708984E-02
  0.9785714E+00 -0.1559292E-02 -0.2319336E-02  0.1674952E+06  0.4810968E+05 -0.3093636E-01 -0.6591797E-02
  0.1009524E+01  0.8101554E-02  0.6958008E-02  0.1649040E+06  0.4841638E+05  0.1837964E-01 -0.2197266E-01
  0.1040476E+01  0.8036529E-02 -0.5737305E-02  0.1620927E+06  0.4850972E+05  0.5162150E-02  0.8789062E-02
  0.1071429E+01 -0.4557292E-03  0.6225586E-02  0.1597211E+06  0.4840405E+05  0.1822917E-01 -0.8544922E-02
  0.1102381E+01 -0.5204466E-02 -0.8300781E-02  0.1576957E+06  0.4803788E+05 -0.8415733E-02 -0.0000000E+00
  0.1133333E+01  0.2046473E-02  0.6591797E-02  0.1561912E+06  0.4749868E+05 -0.9047564E-02 -0.4394531E-02
  0.1164286E+01 -0.4783583E-02  0.1953125E-02  0.1544737E+06  0.4672120E+05 -0.8807035E-02 -0.1757812E-01
  0.1195238E+01  0.3791596E-02 -0.1220703E-03  0.1525509E+06  0.4573514E+05  0.0000000E+00  0.1220703E-02
  0.1226190E+01  0.4566970E-02 -0.6591797E-02  0.1510703E+06  0.4468418E+05 -0.2787470E-02  0.5126953E-02
  0.1257143E+01  0.3932606E-02  0.1733398E-01  0.1498800E+06  0.4349595E+05 -0.1437100E-01 -0.2563477E-01
  0.1288095E+01  0.3844771E-02 -0.1135254E-01  0.1490668E+06  0.4213968E+05 -0.1440475E-01 -0.7080078E-02
  0.1319048E+01  0.3944700E-02 -0.2441406E-02  0.1486613E+06  0.4078664E+05  0.3331594E-02  0.2441406E-03
  0.1350000E+01 -0.4690665E-02  0.1464844E-02  0.1477203E+06  0.3912262E+05 -0.1374421E-01  0.2441406E-02
  0.1380952E+01  0.5436338E-02  0.1110840E-01  0.1468539E+06  0.3732288E+05 -0.2687231E-01 -0.1538086E-01
  0.1411905E+01  0.1999339E-02 -0.1403809E-01  0.1463135E+06  0.3567370E+05  0.3458316E-02  0.2490234E-01
  0.1442857E+01 -0.2897659E-02 -0.9643555E-02  0.1460145E+06  0.3398555E+05 -0.2030476E-02 -0.5126953E-02
  0.1473810E+01 -0.8800303E-02 -0.4394531E-02  0.1459466E+06  0.3229823E+05  0.1325222E-02  0.1525879E-01
  0.1504762E+01 -0.1095156E-02 -0.2075195E-02  0.1461400E+06  0.3075299E+05 -0.1297963E-02  0.1770020E-01
  0.1535714E+01 -0.6855809E-02 -0.1354980E-01  0.1463983E+06  0.2916846E+05 -0.1844113E-01  0.1635742E-01
  0.1566667E+01  0.2142724E-03  0.2258301E-01  0.1462572E+06  0.2713399E+05 -0.1620678E-01 -0.9277344E-02
  0.1597619E+01 -0.2292229E-03  0.2441406E-02  0.1462834E+06  0.2522446E+05 -0.1222522E-02  0.1269531E-01
  0.1628572E+01 -0.4797149E-02  0.8544922E-02  0.1464606E+06  0.2361215E+05  0.8994654E-03 -0.1025391E-01
  0.1659524E+01  0.9562466E-03  0.3540039E-02  0.1467666E+06  0.2203600E+05  0.1088650E-01 -0.7812500E-02
  0.1690476E+01  0.9748432E-03 -0.1000977E-01  0.1471850E+06  0.2054161E+05 -0.2021897E-01  0.2929688E-02
  0.1721429E+01 -0.4963855E-03 -0.3417969E-02  0.1476842E+06  0.1926990E+05 -0.7091222E-02  0.1696777E-01
  0.1752381E+01 -0.6269373E-03  0.7324219E-03  0.1482458E+06  0.1810760E+05 -0.3399393E-01  0.2685547E-02
  0.1783333E+01  0.6502811E-03  0.2075195E-02  0.1487103E+06  0.1669167E+05 -0.2190421E-02 -0.9643555E-02
  0.1814286E+01 -0.1446581E-02 -0.7568359E-02  0.1491160E+06  0.1509570E+05 -0.8612205E-02  0.1690674E-01
  0.1845238E+01 -0.1422316E-02 -0.5249023E-02  0.1495852E+06  0.1378499E+05 -0.8996976E-02  0.1220703E-03
  0.1876190E+01 -0.3253143E-04 -0.6591797E-02  0.1500404E+06  0.1272630E+05  0.0000000E+00  0.8361816E-02
  0.1907143E+01  0.6400691E-03  0.1586914E-02  0.1505386E+06  0.1174630E+05 -0.1228933E-01 -0.7263184E-02
  0.1938095E+01  0.5448175E-02  0.1770020E-02  0.1510542E+06  0.1082752E+05 -0.1662796E-01  0.1464844E-02
  0.1969048E+01 -0.3440700E-02 -0.6591797E-02  0.1515734E+06  0.9987495E+04  0.2479784E-02  0.9826660E-02
  0.2000000E+01 -0.4577637E-03  0.6164551E-02  0.1520752E+06  0.9183066E+04 -0.7812500E-02  0.3234863E-02
Zone t="Motion of body    1 in DoF   3",I=    64,F=POINT
  0.5000000E-01 -0.1865187E+06 -0.1832503E-01 -0.1861572E-01 -0.4858628E-04  0.6948040E+06  0.1388212E-01
  0.8095238E-01 -0.1869034E+06 -0.8062803E-01  0.2657722E-01  0.2548624E-03  0.6958266E+06  0.5910021E-01
  0.1119048E+00 -0.1881058E+06 -0.2264067E+00  0.1499907E-02 -0.2921955E-04  0.6974565E+06  0.1655792E+00
  0.1428571E+00 -0.1876610E+06 -0.5120293E+00  0.1174927E-01 -0.1873355E-05  0.6970479E+06  0.3759360E+00
  0.1738095E+00 -0.1883449E+06 -0.1022764E+01 -0.1580225E-02  0.3532413E-04  0.6986239E+06  0.7534013E+00
  0.2047619E+00 -0.1886593E+06 -0.1895730E+01  0.6393787E-01  0.1116667E-02  0.6982095E+06  0.1401197E+01
  0.2357143E+00 -0.1891230E+06 -0.3352971E+01  0.3599225E-01  0.1564175E-02  0.6983364E+06  0.2484363E+01
  0.2666667E+00 -0.1898709E+06 -0.5754530E+01  0.1052856E-01  0.1087211E-02  0.7000892E+06  0.4286125E+01
  0.2976190E+00 -0.1902566E+06 -0.9711630E+01  0.1168945E-01  0.4229322E-03  0.6994458E+06  0.7270786E+01
  0.3285715E+00 -0.1910581E+06 -0.1618826E+02 -0.6371539E-01 -0.2429321E-02  0.7010546E+06  0.1219062E+02
  0.3595238E+00 -0.1920439E+06 -0.2681085E+02  0.0000000E+00  0.2546906E-03  0.7009743E+06  0.2029793E+02
  0.3904762E+00 -0.1928452E+06 -0.4406474E+02  0.8284405E-02 -0.5536675E-03  0.7022360E+06  0.3358916E+02
  0.4214286E+00 -0.1932046E+06 -0.7148261E+02 -0.7965604E-02  0.1914501E-03  0.7025949E+06  0.5481981E+02
  0.4523810E+00 -0.1954532E+06 -0.1152590E+03  0.3008712E-01  0.4498720E-02  0.7045362E+06  0.8910297E+02
  0.4833333E+00 -0.1964776E+06 -0.1813062E+03 -0.1767915E-02  0.1705289E-02  0.7076733E+06  0.1413313E+03
  0.5142857E+00 -0.1979496E+06 -0.2803304E+03 -0.7737902E-01 -0.1159596E-01  0.7069729E+06  0.2202048E+03
  0.5452381E+00 -0.1988725E+06 -0.4230406E+03 -0.2910498E-02 -0.4754066E-03  0.7090071E+06  0.3350444E+03
  0.5761905E+00 -0.2007718E+06 -0.6252300E+03 -0.3622764E-01 -0.8029461E-02  0.7094231E+06  0.4987562E+03
  0.6071429E+00 -0.2035163E+06 -0.9075064E+03 -0.5348115E-01 -0.1553631E-01  0.7123909E+06  0.7315781E+03
  0.6380953E+00 -0.2049342E+06 -0.1286978E+04 -0.6293909E-01 -0.1095009E-01  0.7159132E+06  0.1047223E+04
  0.6690477E+00 -0.2063777E+06 -0.1792854E+04  0.1915765E-01  0.1080322E-01  0.7150577E+06  0.1469926E+04
  0.7000000E+00 -0.2095331E+06 -0.2462534E+04 -0.4586356E-01 -0.8955002E-02  0.7184696E+06  0.2038555E+04
  0.7309524E+00 -0.2122358E+06 -0.3334951E+04 -0.7348076E-02  0.6517410E-02  0.7224284E+06  0.2787171E+04
  0.7619048E+00 -0.2148690E+06 -0.4458444E+04  0.4646301E-01  0.2639008E-01  0.7246096E+06  0.3761347E+04
  0.7928572E+00 -0.2182319E+06 -0.5886492E+04  0.4618876E-01  0.1584625E-01  0.7272858E+06  0.5019761E+04
  0.8238096E+00 -0.2207721E+06 -0.7672549E+04  0.2963557E-03  0.2241516E-01  0.7299292E+06  0.6605778E+04
  0.8547620E+00 -0.2234710E+06 -0.9891323E+04 -0.7554758E-01 -0.5049133E-01  0.7355193E+06  0.8608373E+04
  0.8857143E+00 -0.2267184E+06 -0.1260699E+05 -0.2274052E-01 -0.3368378E-01  0.7361142E+06  0.1103387E+05
  0.9166667E+00 -0.2311366E+06 -0.1594073E+05 -0.2143998E-01 -0.3448486E-02  0.7406491E+06  0.1410088E+05
  0.9476191E+00 -0.2346401E+06 -0.1996190E+05 -0.2408895E-01 -0.5813599E-02  0.7444825E+06  0.1784238E+05
  0.9785714E+00 -0.2377539E+06 -0.2478293E+05 -0.4727774E-01 -0.2210999E-01  0.7499445E+06  0.2241690E+05
  0.1009524E+01 -0.2404810E+06 -0.3045618E+05  0.6324048E-01  0.4927063E-01  0.7530339E+06  0.2782387E+05
  0.1040476E+01 -0.2430771E+06 -0.3703991E+05 -0.2111788E-02  0.7171631E-02  0.7539279E+06  0.3412053E+05
  0.1071429E+01 -0.2458243E+06 -0.4460518E+05 -0.1401367E-01 -0.4632568E-01  0.7578233E+06  0.4152704E+05
  0.1102381E+01 -0.2475639E+06 -0.5314916E+05 -0.2591160E-01 -0.1214600E-01  0.7599553E+06  0.4985105E+05
  0.1133333E+01 -0.2491743E+06 -0.6280184E+05 -0.2951229E-01 -0.1818848E-01  0.7641049E+06  0.5941907E+05
  0.1164286E+01 -0.2498419E+06 -0.7350716E+05 -0.4193827E-02 -0.1049805E-01  0.7652454E+06  0.7016911E+05
  0.1195238E+01 -0.2497275E+06 -0.8513391E+05  0.3676699E-02  0.2807617E-01  0.7632495E+06  0.8179088E+05
  0.1226190E+01 -0.2495023E+06 -0.9773098E+05  0.1592840E-01  0.2954102E-01  0.7645142E+06  0.9492593E+05
  0.1257143E+01 -0.2473646E+06 -0.1108913E+06 -0.1281738E-01 -0.2655029E-01  0.7632115E+06  0.1086417E+06
  0.1288095E+01 -0.2445894E+06 -0.1245385E+06 -0.1762686E-01  0.5676270E-02  0.7617266E+06  0.1228932E+06
  0.1319048E+01 -0.2408743E+06 -0.1387292E+06 -0.5737745E-02  0.3057861E-01  0.7612286E+06  0.1383496E+06
  0.1350000E+01 -0.2357953E+06 -0.1526957E+06 -0.2983941E-01  0.2484131E-01  0.7548404E+06  0.1531201E+06
  0.1380952E+01 -0.2300399E+06 -0.1664668E+06 -0.3093851E-01 -0.4321289E-01  0.7472596E+06  0.1676646E+06
  0.1411905E+01 -0.2239346E+06 -0.1800630E+06 -0.2247905E-01 -0.2319336E-01  0.7421919E+06  0.1830071E+06
  0.1442857E+01 -0.2169981E+06 -0.1927808E+06 -0.6429842E-02 -0.3540039E-02  0.7356504E+06  0.1972671E+06
  0.1473810E+01 -0.2090781E+06 -0.2046912E+06 -0.1490875E-01 -0.2014160E-01  0.7279172E+06  0.2108852E+06
  0.1504762E+01 -0.2010149E+06 -0.2159857E+06 -0.5678587E-02  0.5126953E-02  0.7219126E+06  0.2249646E+06
  0.1535714E+01 -0.1926504E+06 -0.2262055E+06 -0.1542060E-01 -0.3991699E-01  0.7150001E+06  0.2377829E+06
  0.1566667E+01 -0.1840209E+06 -0.2344952E+06 -0.2446601E-01  0.3454590E-01  0.7029920E+06  0.2460921E+06
  0.1597619E+01 -0.1758189E+06 -0.2420637E+06 -0.7029504E-02 -0.1708984E-02  0.6928080E+06  0.2545276E+06
  0.1628572E+01 -0.1683622E+06 -0.2490557E+06 -0.8994654E-03 -0.3601074E-01  0.6854772E+06  0.2641746E+06
  0.1659524E+01 -0.1603717E+06 -0.2545117E+06  0.6473054E-02  0.2185059E-01  0.6770214E+06  0.2716141E+06
  0.1690476E+01 -0.1524465E+06 -0.2588107E+06 -0.2859540E-01 -0.1220703E-01  0.6683415E+06  0.2773049E+06
  0.1721429E+01 -0.1448759E+06 -0.2625864E+06 -0.2382650E-01 -0.5249023E-02  0.6613002E+06  0.2839215E+06
  0.1752381E+01 -0.1375040E+06 -0.2657014E+06 -0.2619204E-01 -0.2307129E-01  0.6551543E+06  0.2911238E+06
  0.1783333E+01 -0.1304677E+06 -0.2673518E+06 -0.2053519E-01 -0.7385254E-02  0.6469752E+06  0.2938927E+06
  0.1814286E+01 -0.1239326E+06 -0.2676572E+06 -0.2960446E-02 -0.1409912E-01  0.6369487E+06  0.2913266E+06
  0.1845238E+01 -0.1180885E+06 -0.2681635E+06 -0.5556955E-02 -0.1062012E-01  0.6292832E+06  0.2914894E+06
  0.1876190E+01 -0.1130968E+06 -0.2690676E+06 -0.3383269E-02 -0.2990723E-02  0.6238104E+06  0.2949164E+06
  0.1907143E+01 -0.1078393E+06 -0.2688469E+06 -0.2304249E-02  0.1220703E-02  0.6178694E+06  0.2964062E+06
  0.1938095E+01 -0.1027792E+06 -0.2679570E+06  0.1259694E-01 -0.2929688E-02  0.6119788E+06  0.2964638E+06
  0.1969048E+01 -0.9763233E+05 -0.2662135E+06  0.6199460E-02 -0.8239746E-02  0.6059895E+06  0.2957821E+06
  0.2000000E+01 -0.9277595E+05 -0.2647567E+06 -0.2001953E-01 -0.1794434E-01  0.6010249E+06  0.2980622E+06
