VARIABLES="w (rad/s)"
"abs(F   1   1)" "angle(F   1   1)"
"abs(F   1   2)" "angle(F   1   2)"
"abs(F   1   3)" "angle(F   1   3)"
Zone t="Diffraction force - beta =   0.000 deg",I=    64,F=POINT
  0.5000000E-01  0.2649237E+04 -0.1570800E+01  0.4932438E+06 -0.3340748E-04  0.4849422E+03 -0.1570699E+01
  0.8095238E-01  0.4323656E+04 -0.1570798E+01  0.4923672E+06 -0.8987340E-04  0.7884141E+03 -0.1570814E+01
  0.1119048E+00  0.6035587E+04 -0.1570795E+01  0.4910809E+06 -0.1784719E-03  0.1107240E+04 -0.1570765E+01
  0.1428571E+00  0.7804156E+04 -0.1570784E+01  0.4893833E+06 -0.3059878E-03  0.1450017E+04 -0.1570779E+01
  0.1738095E+00  0.9641193E+04 -0.1570785E+01  0.4872691E+06 -0.4827536E-03  0.1802510E+04 -0.1570776E+01
  0.2047619E+00  0.1157803E+05 -0.1570787E+01  0.4847323E+06 -0.7235252E-03  0.2198587E+04 -0.1570768E+01
  0.2357143E+00  0.1363597E+05 -0.1570773E+01  0.4817720E+06 -0.1050302E-02  0.2622065E+04 -0.1570777E+01
  0.2666667E+00  0.1583133E+05 -0.1570765E+01  0.4783710E+06 -0.1489781E-02  0.3082782E+04 -0.1570755E+01
  0.2976190E+00  0.1822616E+05 -0.1570750E+01  0.4745318E+06 -0.2087054E-02  0.3631468E+04 -0.1570743E+01
  0.3285715E+00  0.2083171E+05 -0.1570727E+01  0.4702545E+06 -0.2888256E-02  0.4225603E+04 -0.1570726E+01
  0.3595238E+00  0.2368068E+05 -0.1570690E+01  0.4655305E+06 -0.3965842E-02  0.4880091E+04 -0.1570688E+01
  0.3904762E+00  0.2682588E+05 -0.1570637E+01  0.4603608E+06 -0.5402131E-02  0.5658254E+04 -0.1570632E+01
  0.4214286E+00  0.3032264E+05 -0.1570558E+01  0.4548185E+06 -0.7248177E-02  0.6579431E+04 -0.1570558E+01
  0.4523810E+00  0.3413614E+05 -0.1570447E+01  0.4488722E+06 -0.9644624E-02  0.7565944E+04 -0.1570444E+01
  0.4833333E+00  0.3828229E+05 -0.1570291E+01  0.4425808E+06 -0.1253000E-01  0.8694986E+04 -0.1570293E+01
  0.5142857E+00  0.4276916E+05 -0.1570077E+01  0.4360066E+06 -0.1606759E-01  0.9980143E+04 -0.1570072E+01
  0.5452381E+00  0.4758211E+05 -0.1569790E+01  0.4291683E+06 -0.2020563E-01  0.1141381E+05 -0.1569789E+01
  0.5761905E+00  0.5265763E+05 -0.1569419E+01  0.4220657E+06 -0.2495433E-01  0.1295803E+05 -0.1569416E+01
  0.6071429E+00  0.5794360E+05 -0.1568944E+01  0.4147416E+06 -0.3044645E-01  0.1462549E+05 -0.1568945E+01
  0.6380953E+00  0.6346852E+05 -0.1568355E+01  0.4071890E+06 -0.3656153E-01  0.1649070E+05 -0.1568355E+01
  0.6690477E+00  0.6921853E+05 -0.1567630E+01  0.3995039E+06 -0.4342828E-01  0.1852886E+05 -0.1567630E+01
  0.7000000E+00  0.7512769E+05 -0.1566743E+01  0.3917017E+06 -0.5112059E-01  0.2068605E+05 -0.1566745E+01
  0.7309524E+00  0.8117202E+05 -0.1565683E+01  0.3837121E+06 -0.5957360E-01  0.2296172E+05 -0.1565684E+01
  0.7619048E+00  0.8734267E+05 -0.1564425E+01  0.3756043E+06 -0.6886745E-01  0.2542041E+05 -0.1564426E+01
  0.7928572E+00  0.9361995E+05 -0.1562949E+01  0.3674616E+06 -0.7905583E-01  0.2804509E+05 -0.1562952E+01
  0.8238096E+00  0.1000266E+06 -0.1561237E+01  0.3592996E+06 -0.9015425E-01  0.3087004E+05 -0.1561245E+01
  0.8547620E+00  0.1065200E+06 -0.1559273E+01  0.3511236E+06 -0.1021720E+00  0.3387254E+05 -0.1559286E+01
  0.8857143E+00  0.1130645E+06 -0.1557041E+01  0.3429368E+06 -0.1151099E+00  0.3700607E+05 -0.1557055E+01
  0.9166667E+00  0.1195886E+06 -0.1554524E+01  0.3347485E+06 -0.1289883E+00  0.4023279E+05 -0.1554534E+01
  0.9476191E+00  0.1261002E+06 -0.1551720E+01  0.3265898E+06 -0.1438242E+00  0.4361771E+05 -0.1551728E+01
  0.9785714E+00  0.1325750E+06 -0.1548634E+01  0.3185007E+06 -0.1596432E+00  0.4718907E+05 -0.1548647E+01
  0.1009524E+01  0.1390193E+06 -0.1545277E+01  0.3105000E+06 -0.1764531E+00  0.5094750E+05 -0.1545305E+01
  0.1040476E+01  0.1453792E+06 -0.1541659E+01  0.3026271E+06 -0.1942700E+00  0.5480000E+05 -0.1541709E+01
  0.1071429E+01  0.1515897E+06 -0.1537798E+01  0.2948902E+06 -0.2130851E+00  0.5878097E+05 -0.1537867E+01
  0.1102381E+01  0.1576518E+06 -0.1533728E+01  0.2872423E+06 -0.2328555E+00  0.6281884E+05 -0.1533806E+01
  0.1133333E+01  0.1634749E+06 -0.1529481E+01  0.2797048E+06 -0.2535877E+00  0.6692323E+05 -0.1529546E+01
  0.1164286E+01  0.1690385E+06 -0.1525117E+01  0.2722569E+06 -0.2752788E+00  0.7105810E+05 -0.1525152E+01
  0.1195238E+01  0.1743019E+06 -0.1520707E+01  0.2649383E+06 -0.2979554E+00  0.7520254E+05 -0.1520712E+01
  0.1226190E+01  0.1792130E+06 -0.1516333E+01  0.2577760E+06 -0.3216573E+00  0.7936698E+05 -0.1516315E+01
  0.1257143E+01  0.1837740E+06 -0.1512041E+01  0.2507612E+06 -0.3465841E+00  0.8349728E+05 -0.1512014E+01
  0.1288095E+01  0.1879648E+06 -0.1508090E+01  0.2439266E+06 -0.3720551E+00  0.8762348E+05 -0.1508050E+01
  0.1319048E+01  0.1917278E+06 -0.1504415E+01  0.2372486E+06 -0.3987251E+00  0.9165547E+05 -0.1504358E+01
  0.1350000E+01  0.1950403E+06 -0.1501203E+01  0.2307367E+06 -0.4263447E+00  0.9557837E+05 -0.1501115E+01
  0.1380952E+01  0.1978937E+06 -0.1498566E+01  0.2243600E+06 -0.4548627E+00  0.9934120E+05 -0.1498458E+01
  0.1411905E+01  0.1998268E+06 -0.1497502E+01  0.2191502E+06 -0.4787021E+00  0.1025877E+06 -0.1497374E+01
  0.1442857E+01  0.2017641E+06 -0.1496321E+01  0.2131022E+06 -0.5088007E+00  0.1060818E+06 -0.1496184E+01
  0.1473810E+01  0.2032259E+06 -0.1496078E+01  0.2072004E+06 -0.5398153E+00  0.1093803E+06 -0.1495931E+01
  0.1504762E+01  0.2041862E+06 -0.1496869E+01  0.2014582E+06 -0.5717599E+00  0.1124745E+06 -0.1496700E+01
  0.1535714E+01  0.2046831E+06 -0.1498829E+01  0.1958624E+06 -0.6046342E+00  0.1153292E+06 -0.1498650E+01
  0.1566667E+01  0.2047225E+06 -0.1502076E+01  0.1904303E+06 -0.6384118E+00  0.1179537E+06 -0.1501875E+01
  0.1597619E+01  0.2043312E+06 -0.1506676E+01  0.1851543E+06 -0.6731670E+00  0.1203124E+06 -0.1506480E+01
  0.1628572E+01  0.2035176E+06 -0.1512733E+01  0.1800543E+06 -0.7088632E+00  0.1224401E+06 -0.1512517E+01
  0.1659524E+01  0.2023299E+06 -0.1520322E+01  0.1750926E+06 -0.7454734E+00  0.1243114E+06 -0.1520108E+01
  0.1690476E+01  0.2008008E+06 -0.1529520E+01  0.1702686E+06 -0.7829894E+00  0.1259431E+06 -0.1529303E+01
  0.1721429E+01  0.1989478E+06 -0.1540366E+01  0.1655855E+06 -0.8213655E+00  0.1273398E+06 -0.1540144E+01
  0.1752381E+01  0.1968101E+06 -0.1552894E+01  0.1610213E+06 -0.8605781E+00  0.1284943E+06 -0.1552689E+01
  0.1783333E+01  0.1944179E+06 -0.1567150E+01  0.1565636E+06 -0.9005956E+00  0.1294253E+06 -0.1566958E+01
  0.1814286E+01  0.1918063E+06 -0.1583166E+01  0.1522284E+06 -0.9414978E+00  0.1301589E+06 -0.1582964E+01
  0.1845238E+01  0.1890121E+06 -0.1600912E+01  0.1480291E+06 -0.9834070E+00  0.1306757E+06 -0.1600760E+01
  0.1876190E+01  0.1860508E+06 -0.1620411E+01  0.1439665E+06 -0.1026190E+01  0.1310049E+06 -0.1620299E+01
  0.1907143E+01  0.1829618E+06 -0.1641651E+01  0.1400393E+06 -0.1069944E+01  0.1311538E+06 -0.1641629E+01
  0.1938095E+01  0.1797729E+06 -0.1664655E+01  0.1362228E+06 -0.1114676E+01  0.1311516E+06 -0.1664712E+01
  0.1969048E+01  0.1764946E+06 -0.1689404E+01  0.1325121E+06 -0.1160221E+01  0.1310145E+06 -0.1689494E+01
  0.2000000E+01  0.1731545E+06 -0.1715793E+01  0.1289210E+06 -0.1206562E+01  0.1307042E+06 -0.1716055E+01
