VARIABLES="w (rad/s)"
"abs(F   1   1)" "angle(F   1   1)"
"abs(F   1   2)" "angle(F   1   2)"
"abs(F   1   3)" "angle(F   1   3)"
Zone t="Diffraction force - beta =   0.000 deg",I=    64,F=POINT
  0.5000000E-01  0.1679210E+04 -0.1570793E+01  0.4627207E+03 -0.3077921E+01  0.3729509E+02 -0.1570792E+01
  0.8095238E-01  0.2741162E+04 -0.1570788E+01  0.1194115E+04 -0.3075407E+01  0.6034179E+02 -0.1570785E+01
  0.1119048E+00  0.3826084E+04 -0.1570780E+01  0.2262653E+04 -0.3072526E+01  0.8362379E+02 -0.1570774E+01
  0.1428571E+00  0.4937631E+04 -0.1570767E+01  0.3669470E+04 -0.3068974E+01  0.1090093E+03 -0.1570757E+01
  0.1738095E+00  0.6115420E+04 -0.1570749E+01  0.5421292E+04 -0.3064588E+01  0.1353885E+03 -0.1570732E+01
  0.2047619E+00  0.7343358E+04 -0.1570722E+01  0.7527811E+04 -0.3059165E+01  0.1648130E+03 -0.1570699E+01
  0.2357143E+00  0.8638951E+04 -0.1570683E+01  0.9994832E+04 -0.3052342E+01  0.1940777E+03 -0.1570648E+01
  0.2666667E+00  0.1005930E+05 -0.1570627E+01  0.1283692E+05 -0.3044140E+01  0.2288978E+03 -0.1570576E+01
  0.2976190E+00  0.1156823E+05 -0.1570542E+01  0.1605775E+05 -0.3033820E+01  0.2672073E+03 -0.1570469E+01
  0.3285715E+00  0.1321845E+05 -0.1570416E+01  0.1967805E+05 -0.3021621E+01  0.3076777E+03 -0.1570310E+01
  0.3595238E+00  0.1507101E+05 -0.1570229E+01  0.2366908E+05 -0.3006746E+01  0.3591254E+03 -0.1570081E+01
  0.3904762E+00  0.1709788E+05 -0.1569950E+01  0.2806702E+05 -0.2989339E+01  0.4133610E+03 -0.1569733E+01
  0.4214286E+00  0.1927701E+05 -0.1569540E+01  0.3276273E+05 -0.2969779E+01  0.4673520E+03 -0.1569212E+01
  0.4523810E+00  0.2176044E+05 -0.1568944E+01  0.3781903E+05 -0.2947307E+01  0.5411481E+03 -0.1568487E+01
  0.4833333E+00  0.2449379E+05 -0.1568122E+01  0.4308010E+05 -0.2924585E+01  0.6224539E+03 -0.1567488E+01
  0.5142857E+00  0.2738459E+05 -0.1566978E+01  0.4855950E+05 -0.2899967E+01  0.7079554E+03 -0.1566090E+01
  0.5452381E+00  0.3043531E+05 -0.1565453E+01  0.5423380E+05 -0.2875638E+01  0.7912852E+03 -0.1564176E+01
  0.5761905E+00  0.3376566E+05 -0.1563491E+01  0.6001105E+05 -0.2851692E+01  0.9002725E+03 -0.1561825E+01
  0.6071429E+00  0.3734318E+05 -0.1560983E+01  0.6588862E+05 -0.2827103E+01  0.1027049E+04 -0.1558896E+01
  0.6380953E+00  0.4101248E+05 -0.1557860E+01  0.7188653E+05 -0.2804265E+01  0.1146405E+04 -0.1555122E+01
  0.6690477E+00  0.4466982E+05 -0.1553964E+01  0.7791331E+05 -0.2781596E+01  0.1263730E+04 -0.1550351E+01
  0.7000000E+00  0.4857288E+05 -0.1549244E+01  0.8397109E+05 -0.2758938E+01  0.1408393E+04 -0.1544797E+01
  0.7309524E+00  0.5269130E+05 -0.1543636E+01  0.9005288E+05 -0.2737321E+01  0.1563468E+04 -0.1538204E+01
  0.7619048E+00  0.5691581E+05 -0.1536977E+01  0.9608126E+05 -0.2716019E+01  0.1738074E+04 -0.1530566E+01
  0.7928572E+00  0.6120629E+05 -0.1529137E+01  0.1020514E+06 -0.2695118E+01  0.1927838E+04 -0.1521717E+01
  0.8238096E+00  0.6542436E+05 -0.1519934E+01  0.1079539E+06 -0.2674797E+01  0.2088735E+04 -0.1510675E+01
  0.8547620E+00  0.6962997E+05 -0.1509306E+01  0.1137759E+06 -0.2655186E+01  0.2256425E+04 -0.1497967E+01
  0.8857143E+00  0.7393578E+05 -0.1497268E+01  0.1194564E+06 -0.2636001E+01  0.2465735E+04 -0.1484435E+01
  0.9166667E+00  0.7834511E+05 -0.1483784E+01  0.1250010E+06 -0.2617504E+01  0.2698181E+04 -0.1469593E+01
  0.9476191E+00  0.8270546E+05 -0.1468698E+01  0.1303441E+06 -0.2599399E+01  0.2925649E+04 -0.1452707E+01
  0.9785714E+00  0.8691959E+05 -0.1451876E+01  0.1354830E+06 -0.2581841E+01  0.3150624E+04 -0.1433735E+01
  0.1009524E+01  0.9084929E+05 -0.1433153E+01  0.1403979E+06 -0.2564745E+01  0.3371911E+04 -0.1412475E+01
  0.1040476E+01  0.9445061E+05 -0.1412469E+01  0.1451086E+06 -0.2548430E+01  0.3586637E+04 -0.1388813E+01
  0.1071429E+01  0.9776362E+05 -0.1389999E+01  0.1495974E+06 -0.2532871E+01  0.3804862E+04 -0.1363587E+01
  0.1102381E+01  0.1007983E+06 -0.1365979E+01  0.1538393E+06 -0.2517888E+01  0.4013997E+04 -0.1336576E+01
  0.1133333E+01  0.1034456E+06 -0.1340394E+01  0.1577946E+06 -0.2503326E+01  0.4213871E+04 -0.1307786E+01
  0.1164286E+01  0.1055808E+06 -0.1313177E+01  0.1614677E+06 -0.2489231E+01  0.4414016E+04 -0.1277472E+01
  0.1195238E+01  0.1071449E+06 -0.1284393E+01  0.1648558E+06 -0.2475761E+01  0.4606770E+04 -0.1245963E+01
  0.1226190E+01  0.1080884E+06 -0.1254213E+01  0.1679625E+06 -0.2463065E+01  0.4783582E+04 -0.1213519E+01
  0.1257143E+01  0.1083559E+06 -0.1222707E+01  0.1707992E+06 -0.2450689E+01  0.4912960E+04 -0.1178515E+01
  0.1288095E+01  0.1078942E+06 -0.1190778E+01  0.1732478E+06 -0.2439093E+01  0.4996272E+04 -0.1142351E+01
  0.1319048E+01  0.1066728E+06 -0.1157780E+01  0.1754109E+06 -0.2427804E+01  0.5050858E+04 -0.1104699E+01
  0.1350000E+01  0.1046236E+06 -0.1123920E+01  0.1772519E+06 -0.2416960E+01  0.5083777E+04 -0.1066909E+01
  0.1380952E+01  0.1018034E+06 -0.1089715E+01  0.1787796E+06 -0.2406920E+01  0.5087268E+04 -0.1030220E+01
  0.1411905E+01  0.9761058E+05 -0.1055366E+01  0.1798125E+06 -0.2396906E+01  0.4964580E+04 -0.9883754E+00
  0.1442857E+01  0.9324595E+05 -0.1020807E+01  0.1806870E+06 -0.2387886E+01  0.4861244E+04 -0.9498628E+00
  0.1473810E+01  0.8810186E+05 -0.9859415E+00  0.1812355E+06 -0.2379332E+01  0.4697814E+04 -0.9091296E+00
  0.1504762E+01  0.8223730E+05 -0.9509378E+00  0.1814621E+06 -0.2371294E+01  0.4484904E+04 -0.8681247E+00
  0.1535714E+01  0.7570980E+05 -0.9158741E+00  0.1813590E+06 -0.2363610E+01  0.4232337E+04 -0.8279821E+00
  0.1566667E+01  0.6855959E+05 -0.8803631E+00  0.1809380E+06 -0.2356468E+01  0.3933885E+04 -0.7883906E+00
  0.1597619E+01  0.6084542E+05 -0.8439701E+00  0.1802062E+06 -0.2349857E+01  0.3585511E+04 -0.7470454E+00
  0.1628572E+01  0.5265538E+05 -0.8061740E+00  0.1791517E+06 -0.2343917E+01  0.3186417E+04 -0.7032992E+00
  0.1659524E+01  0.4405339E+05 -0.7654037E+00  0.1777719E+06 -0.2338579E+01  0.2728553E+04 -0.6521077E+00
  0.1690476E+01  0.3509179E+05 -0.7179046E+00  0.1760819E+06 -0.2333725E+01  0.2216600E+04 -0.5896021E+00
  0.1721429E+01  0.2585262E+05 -0.6552773E+00  0.1741006E+06 -0.2329367E+01  0.1655756E+04 -0.4990180E+00
  0.1752381E+01  0.1645932E+05 -0.5494920E+00  0.1718208E+06 -0.2325574E+01  0.1071926E+04 -0.3375226E+00
  0.1783333E+01  0.7303258E+04 -0.2280540E+00  0.1692514E+06 -0.2322065E+01  0.5253051E+03  0.1315856E+00
  0.1814286E+01  0.5056498E+04  0.1609618E+01  0.1664000E+06 -0.2319302E+01  0.4874166E+03  0.1617358E+01
  0.1845238E+01  0.1389964E+05  0.2169073E+01  0.1632730E+06 -0.2317222E+01  0.1081728E+04  0.2172257E+01
  0.1876190E+01  0.2360231E+05  0.2298730E+01  0.1598679E+06 -0.2315981E+01  0.1799914E+04  0.2337636E+01
  0.1907143E+01  0.3338016E+05  0.2362629E+01  0.1561890E+06 -0.2315474E+01  0.2568868E+04  0.2421544E+01
  0.1938095E+01  0.4310393E+05  0.2404538E+01  0.1522420E+06 -0.2315826E+01  0.3375331E+04  0.2476057E+01
  0.1969048E+01  0.5269774E+05  0.2436554E+01  0.1480557E+06 -0.2316916E+01  0.4219010E+04  0.2516158E+01
  0.2000000E+01  0.6211995E+05  0.2462658E+01  0.1436387E+06 -0.2318789E+01  0.5084282E+04  0.2548477E+01
