VARIABLES="w (rad/s)"
"abs(F   1   1)" "angle(F   1   1)"
"abs(F   1   2)" "angle(F   1   2)"
"abs(F   1   3)" "angle(F   1   3)"
Zone t="Diffraction force - beta =   0.000 deg",I=    64,F=POINT
  0.5000000E-01  0.9817941E+03 -0.1570795E+01  0.7109431E+02 -0.3114711E+01  0.1630984E+04  0.1570797E+01
  0.8095238E-01  0.1610726E+04 -0.1570794E+01  0.1852556E+03 -0.3113914E+01  0.2678251E+04  0.1570799E+01
  0.1119048E+00  0.2253423E+04 -0.1570792E+01  0.3525032E+03 -0.3112824E+01  0.3744628E+04  0.1570801E+01
  0.1428571E+00  0.2920276E+04 -0.1570788E+01  0.5730840E+03 -0.3111401E+01  0.4849492E+04  0.1570804E+01
  0.1738095E+00  0.3614686E+04 -0.1570783E+01  0.8476431E+03 -0.3109600E+01  0.5999091E+04  0.1570810E+01
  0.2047619E+00  0.4349816E+04 -0.1570775E+01  0.1174973E+04 -0.3107260E+01  0.7215403E+04  0.1570817E+01
  0.2357143E+00  0.5131567E+04 -0.1570764E+01  0.1555490E+04 -0.3104274E+01  0.8505479E+04  0.1570828E+01
  0.2666667E+00  0.5974643E+04 -0.1570747E+01  0.1992692E+04 -0.3100699E+01  0.9897855E+04  0.1570845E+01
  0.2976190E+00  0.6891344E+04 -0.1570722E+01  0.2477997E+04 -0.3096034E+01  0.1140794E+05  0.1570869E+01
  0.3285715E+00  0.7895742E+04 -0.1570686E+01  0.3022622E+04 -0.3090562E+01  0.1305771E+05  0.1570905E+01
  0.3595238E+00  0.9000233E+04 -0.1570630E+01  0.3610784E+04 -0.3083726E+01  0.1487733E+05  0.1570959E+01
  0.3904762E+00  0.1023453E+05 -0.1570547E+01  0.4253499E+04 -0.3075689E+01  0.1689960E+05  0.1571041E+01
  0.4214286E+00  0.1160592E+05 -0.1570426E+01  0.4936507E+04 -0.3066612E+01  0.1912567E+05  0.1571160E+01
  0.4523810E+00  0.1311947E+05 -0.1570247E+01  0.5656665E+04 -0.3055933E+01  0.2159304E+05  0.1571336E+01
  0.4833333E+00  0.1477885E+05 -0.1569998E+01  0.6421813E+04 -0.3045363E+01  0.2430956E+05  0.1571580E+01
  0.5142857E+00  0.1659036E+05 -0.1569651E+01  0.7189624E+04 -0.3033394E+01  0.2726388E+05  0.1571921E+01
  0.5452381E+00  0.1857355E+05 -0.1569188E+01  0.8007773E+04 -0.3021848E+01  0.3044450E+05  0.1572377E+01
  0.5761905E+00  0.2064684E+05 -0.1568581E+01  0.8820349E+04 -0.3010118E+01  0.3379505E+05  0.1572973E+01
  0.6071429E+00  0.2286237E+05 -0.1567793E+01  0.9644583E+04 -0.2997931E+01  0.3738414E+05  0.1573747E+01
  0.6380953E+00  0.2522547E+05 -0.1566807E+01  0.1051982E+05 -0.2987088E+01  0.4120790E+05  0.1574715E+01
  0.6690477E+00  0.2769492E+05 -0.1565574E+01  0.1134449E+05 -0.2975359E+01  0.4512152E+05  0.1575929E+01
  0.7000000E+00  0.3028842E+05 -0.1564049E+01  0.1218315E+05 -0.2963727E+01  0.4922519E+05  0.1577430E+01
  0.7309524E+00  0.3301666E+05 -0.1562199E+01  0.1305859E+05 -0.2953114E+01  0.5357220E+05  0.1579248E+01
  0.7619048E+00  0.3580681E+05 -0.1559960E+01  0.1388707E+05 -0.2941987E+01  0.5799497E+05  0.1581450E+01
  0.7928572E+00  0.3874752E+05 -0.1557287E+01  0.1469670E+05 -0.2930778E+01  0.6267279E+05  0.1584075E+01
  0.8238096E+00  0.4183932E+05 -0.1554125E+01  0.1551717E+05 -0.2920171E+01  0.6748646E+05  0.1587189E+01
  0.8547620E+00  0.4506179E+05 -0.1550413E+01  0.1635448E+05 -0.2910393E+01  0.7247561E+05  0.1590846E+01
  0.8857143E+00  0.4833779E+05 -0.1546068E+01  0.1708748E+05 -0.2899482E+01  0.7751259E+05  0.1595129E+01
  0.9166667E+00  0.5175893E+05 -0.1541044E+01  0.1781831E+05 -0.2889105E+01  0.8281609E+05  0.1600073E+01
  0.9476191E+00  0.5529895E+05 -0.1535269E+01  0.1854162E+05 -0.2879275E+01  0.8825195E+05  0.1605759E+01
  0.9785714E+00  0.5897683E+05 -0.1528680E+01  0.1926767E+05 -0.2870243E+01  0.9391969E+05  0.1612238E+01
  0.1009524E+01  0.6269800E+05 -0.1521179E+01  0.1989386E+05 -0.2860497E+01  0.9955916E+05  0.1619625E+01
  0.1040476E+01  0.6662324E+05 -0.1512742E+01  0.2048012E+05 -0.2850784E+01  0.1054722E+06  0.1627939E+01
  0.1071429E+01  0.7061564E+05 -0.1503253E+01  0.2104149E+05 -0.2841580E+01  0.1113419E+06  0.1637316E+01
  0.1102381E+01  0.7476031E+05 -0.1492678E+01  0.2158996E+05 -0.2833037E+01  0.1174304E+06  0.1647763E+01
  0.1133333E+01  0.7895837E+05 -0.1480905E+01  0.2213143E+05 -0.2825279E+01  0.1236483E+06  0.1659366E+01
  0.1164286E+01  0.8313897E+05 -0.1467849E+01  0.2254358E+05 -0.2816611E+01  0.1297227E+06  0.1672251E+01
  0.1195238E+01  0.8744901E+05 -0.1453516E+01  0.2291721E+05 -0.2807989E+01  0.1360353E+06  0.1686368E+01
  0.1226190E+01  0.9177570E+05 -0.1437828E+01  0.2325565E+05 -0.2799773E+01  0.1422720E+06  0.1701836E+01
  0.1257143E+01  0.9601509E+05 -0.1420746E+01  0.2357148E+05 -0.2791888E+01  0.1483290E+06  0.1718669E+01
  0.1288095E+01  0.1006325E+06 -0.1402324E+01  0.2386587E+05 -0.2784948E+01  0.1548314E+06  0.1736857E+01
  0.1319048E+01  0.1050302E+06 -0.1382399E+01  0.2412411E+05 -0.2778314E+01  0.1608569E+06  0.1756557E+01
  0.1350000E+01  0.1092918E+06 -0.1360924E+01  0.2424095E+05 -0.2770822E+01  0.1665081E+06  0.1777836E+01
  0.1380952E+01  0.1135766E+06 -0.1337964E+01  0.2433481E+05 -0.2763576E+01  0.1722856E+06  0.1800524E+01
  0.1411905E+01  0.1174734E+06 -0.1313275E+01  0.2439039E+05 -0.2756601E+01  0.1775647E+06  0.1824813E+01
  0.1442857E+01  0.1214022E+06 -0.1287339E+01  0.2442579E+05 -0.2750101E+01  0.1826269E+06  0.1850450E+01
  0.1473810E+01  0.1251904E+06 -0.1260051E+01  0.2443580E+05 -0.2743846E+01  0.1874602E+06  0.1877385E+01
  0.1504762E+01  0.1286542E+06 -0.1231347E+01  0.2443005E+05 -0.2738014E+01  0.1918229E+06  0.1905659E+01
  0.1535714E+01  0.1317199E+06 -0.1201398E+01  0.2433080E+05 -0.2732120E+01  0.1954447E+06  0.1935189E+01
  0.1566667E+01  0.1344494E+06 -0.1170356E+01  0.2415078E+05 -0.2725919E+01  0.1984790E+06  0.1965803E+01
  0.1597619E+01  0.1369050E+06 -0.1138356E+01  0.2394268E+05 -0.2719721E+01  0.2011904E+06  0.1997260E+01
  0.1628572E+01  0.1389106E+06 -0.1105580E+01  0.2370671E+05 -0.2713843E+01  0.2030303E+06  0.2029562E+01
  0.1659524E+01  0.1405276E+06 -0.1072280E+01  0.2345068E+05 -0.2708390E+01  0.2041155E+06  0.2062502E+01
  0.1690476E+01  0.1417208E+06 -0.1038450E+01  0.2317099E+05 -0.2702971E+01  0.2046011E+06  0.2095896E+01
  0.1721429E+01  0.1424640E+06 -0.1004245E+01  0.2288032E+05 -0.2697770E+01  0.2044974E+06  0.2129591E+01
  0.1752381E+01  0.1425861E+06 -0.9697205E+00  0.2257793E+05 -0.2692869E+01  0.2034821E+06  0.2163558E+01
  0.1783333E+01  0.1421108E+06 -0.9353169E+00  0.2216053E+05 -0.2688058E+01  0.2014488E+06  0.2197435E+01
  0.1814286E+01  0.1412178E+06 -0.9010146E+00  0.2172129E+05 -0.2682965E+01  0.1989390E+06  0.2231132E+01
  0.1845238E+01  0.1399218E+06 -0.8671105E+00  0.2125853E+05 -0.2677879E+01  0.1959610E+06  0.2264306E+01
  0.1876190E+01  0.1381093E+06 -0.8337940E+00  0.2078477E+05 -0.2672957E+01  0.1921450E+06  0.2296942E+01
  0.1907143E+01  0.1358842E+06 -0.8012359E+00  0.2030366E+05 -0.2668216E+01  0.1876902E+06  0.2328942E+01
  0.1938095E+01  0.1333166E+06 -0.7694692E+00  0.1980784E+05 -0.2663539E+01  0.1828225E+06  0.2360064E+01
  0.1969048E+01  0.1304583E+06 -0.7386315E+00  0.1930317E+05 -0.2658910E+01  0.1776507E+06  0.2390159E+01
  0.2000000E+01  0.1271573E+06 -0.7084999E+00  0.1879162E+05 -0.2654359E+01  0.1719752E+06  0.2419474E+01
