VARIABLES="w (rad/s)"
"abs(F   1   1)" "angle(F   1   1)"
"abs(F   1   2)" "angle(F   1   2)"
"abs(F   1   3)" "angle(F   1   3)"
Zone t="Diffraction force - beta =   0.000 deg",I=    64,F=POINT
  0.5000000E-01  0.4422424E+04 -0.1570784E+01  0.4690930E+06 -0.3116329E-04  0.4562065E+04  0.1570802E+01
  0.8095238E-01  0.7215647E+04 -0.1570784E+01  0.4678279E+06 -0.8376101E-04  0.7440951E+04  0.1570812E+01
  0.1119048E+00  0.1007500E+05 -0.1570788E+01  0.4659720E+06 -0.1661023E-03  0.1040532E+05  0.1570809E+01
  0.1428571E+00  0.1303153E+05 -0.1570782E+01  0.4635248E+06 -0.2843458E-03  0.1346308E+05  0.1570805E+01
  0.1738095E+00  0.1610872E+05 -0.1570775E+01  0.4604818E+06 -0.4475433E-03  0.1666831E+05  0.1570808E+01
  0.2047619E+00  0.1937641E+05 -0.1570768E+01  0.4568568E+06 -0.6691830E-03  0.2006769E+05  0.1570818E+01
  0.2357143E+00  0.2281328E+05 -0.1570759E+01  0.4526353E+06 -0.9686744E-03  0.2366025E+05  0.1570826E+01
  0.2666667E+00  0.2654811E+05 -0.1570742E+01  0.4478222E+06 -0.1369098E-02  0.2759156E+05  0.1570851E+01
  0.2976190E+00  0.3060749E+05 -0.1570712E+01  0.4424325E+06 -0.1911326E-02  0.3185252E+05  0.1570879E+01
  0.3285715E+00  0.3500288E+05 -0.1570674E+01  0.4364581E+06 -0.2633658E-02  0.3651754E+05  0.1570919E+01
  0.3595238E+00  0.3988260E+05 -0.1570612E+01  0.4299340E+06 -0.3601013E-02  0.4168621E+05  0.1570983E+01
  0.3904762E+00  0.4530362E+05 -0.1570522E+01  0.4228716E+06 -0.4881773E-02  0.4748117E+05  0.1571070E+01
  0.4214286E+00  0.5126333E+05 -0.1570387E+01  0.4153073E+06 -0.6516050E-02  0.5385276E+05  0.1571208E+01
  0.4523810E+00  0.5781638E+05 -0.1570189E+01  0.4073304E+06 -0.8633858E-02  0.6093981E+05  0.1571404E+01
  0.4833333E+00  0.6504359E+05 -0.1569912E+01  0.3988650E+06 -0.1115182E-01  0.6876730E+05  0.1571680E+01
  0.5142857E+00  0.7294022E+05 -0.1569529E+01  0.3902018E+06 -0.1423236E-01  0.7731120E+05  0.1572064E+01
  0.5452381E+00  0.8129555E+05 -0.1569014E+01  0.3811295E+06 -0.1780310E-01  0.8643620E+05  0.1572579E+01
  0.5761905E+00  0.9012473E+05 -0.1568342E+01  0.3717981E+06 -0.2186271E-01  0.9611113E+05  0.1573251E+01
  0.6071429E+00  0.9966527E+05 -0.1567469E+01  0.3623196E+06 -0.2656183E-01  0.1066902E+06  0.1574123E+01
  0.6380953E+00  0.1096018E+06 -0.1566375E+01  0.3524788E+06 -0.3171077E-01  0.1177158E+06  0.1575218E+01
  0.6690477E+00  0.1199304E+06 -0.1565007E+01  0.3425834E+06 -0.3745900E-01  0.1291344E+06  0.1576586E+01
  0.7000000E+00  0.1306262E+06 -0.1563314E+01  0.3326048E+06 -0.4388753E-01  0.1412634E+06  0.1578281E+01
  0.7309524E+00  0.1416405E+06 -0.1561262E+01  0.3223749E+06 -0.5087654E-01  0.1537330E+06  0.1580331E+01
  0.7619048E+00  0.1531795E+06 -0.1558789E+01  0.3120824E+06 -0.5852041E-01  0.1668340E+06  0.1582802E+01
  0.7928572E+00  0.1651936E+06 -0.1555837E+01  0.3019289E+06 -0.6687111E-01  0.1805286E+06  0.1585752E+01
  0.8238096E+00  0.1773935E+06 -0.1552341E+01  0.2916748E+06 -0.7591196E-01  0.1945887E+06  0.1589250E+01
  0.8547620E+00  0.1897488E+06 -0.1548240E+01  0.2812823E+06 -0.8562343E-01  0.2089314E+06  0.1593355E+01
  0.8857143E+00  0.2022537E+06 -0.1543474E+01  0.2711230E+06 -0.9603583E-01  0.2234356E+06  0.1598128E+01
  0.9166667E+00  0.2152001E+06 -0.1538007E+01  0.2610626E+06 -0.1072110E+00  0.2386497E+06  0.1603586E+01
  0.9476191E+00  0.2283352E+06 -0.1531784E+01  0.2510421E+06 -0.1191407E+00  0.2541587E+06  0.1609797E+01
  0.9785714E+00  0.2415727E+06 -0.1524733E+01  0.2410192E+06 -0.1318007E+00  0.2698255E+06  0.1616841E+01
  0.1009524E+01  0.2548502E+06 -0.1516804E+01  0.2311457E+06 -0.1451966E+00  0.2856498E+06  0.1624770E+01
  0.1040476E+01  0.2680962E+06 -0.1507963E+01  0.2216923E+06 -0.1593059E+00  0.3012544E+06  0.1633617E+01
  0.1071429E+01  0.2812570E+06 -0.1498173E+01  0.2123066E+06 -0.1742876E+00  0.3173069E+06  0.1643432E+01
  0.1102381E+01  0.2938862E+06 -0.1487436E+01  0.2030254E+06 -0.1900139E+00  0.3326773E+06  0.1654204E+01
  0.1133333E+01  0.3060778E+06 -0.1475790E+01  0.1938167E+06 -0.2065971E+00  0.3477518E+06  0.1665885E+01
  0.1164286E+01  0.3179818E+06 -0.1463411E+01  0.1848391E+06 -0.2239769E+00  0.3623647E+06  0.1678210E+01
  0.1195238E+01  0.3293987E+06 -0.1450304E+01  0.1763813E+06 -0.2419388E+00  0.3760918E+06  0.1691276E+01
  0.1226190E+01  0.3403023E+06 -0.1436499E+01  0.1680499E+06 -0.2609352E+00  0.3898446E+06  0.1705091E+01
  0.1257143E+01  0.3499622E+06 -0.1422081E+01  0.1599057E+06 -0.2809417E+00  0.4020461E+06  0.1719526E+01
  0.1288095E+01  0.3586989E+06 -0.1407366E+01  0.1518986E+06 -0.3015701E+00  0.4131038E+06  0.1734300E+01
  0.1319048E+01  0.3662695E+06 -0.1392461E+01  0.1440240E+06 -0.3234792E+00  0.4230443E+06  0.1749241E+01
  0.1350000E+01  0.3727139E+06 -0.1377788E+01  0.1365799E+06 -0.3458895E+00  0.4313024E+06  0.1763824E+01
  0.1380952E+01  0.3779448E+06 -0.1363475E+01  0.1295540E+06 -0.3686400E+00  0.4378848E+06  0.1778059E+01
  0.1411905E+01  0.3816572E+06 -0.1349642E+01  0.1227275E+06 -0.3926579E+00  0.4434390E+06  0.1791957E+01
  0.1442857E+01  0.3840958E+06 -0.1336633E+01  0.1160925E+06 -0.4177720E+00  0.4471462E+06  0.1805022E+01
  0.1473810E+01  0.3851117E+06 -0.1324814E+01  0.1096414E+06 -0.4439106E+00  0.4489510E+06  0.1816833E+01
  0.1504762E+01  0.3849018E+06 -0.1314391E+01  0.1033674E+06 -0.4714767E+00  0.4494803E+06  0.1827259E+01
  0.1535714E+01  0.3834309E+06 -0.1305493E+01  0.9726379E+05 -0.5004404E+00  0.4485948E+06  0.1836274E+01
  0.1566667E+01  0.3807084E+06 -0.1298557E+01  0.9171698E+05 -0.5284752E+00  0.4455146E+06  0.1843084E+01
  0.1597619E+01  0.3769481E+06 -0.1293591E+01  0.8640128E+05 -0.5572842E+00  0.4411157E+06  0.1847888E+01
  0.1628572E+01  0.3724891E+06 -0.1290634E+01  0.8128924E+05 -0.5876409E+00  0.4363819E+06  0.1850913E+01
  0.1659524E+01  0.3669743E+06 -0.1290002E+01  0.7638632E+05 -0.6191935E+00  0.4301732E+06  0.1851580E+01
  0.1690476E+01  0.3606599E+06 -0.1291744E+01  0.7166833E+05 -0.6520235E+00  0.4228196E+06  0.1849861E+01
  0.1721429E+01  0.3536829E+06 -0.1295883E+01  0.6714094E+05 -0.6864230E+00  0.4146396E+06  0.1845802E+01
  0.1752381E+01  0.3463025E+06 -0.1302337E+01  0.6280499E+05 -0.7224872E+00  0.4061213E+06  0.1839548E+01
  0.1783333E+01  0.3385373E+06 -0.1311226E+01  0.5869870E+05 -0.7592660E+00  0.3969812E+06  0.1830785E+01
  0.1814286E+01  0.3304575E+06 -0.1322765E+01  0.5491768E+05 -0.7943711E+00  0.3869046E+06  0.1818818E+01
  0.1845238E+01  0.3222074E+06 -0.1336630E+01  0.5130907E+05 -0.8307968E+00  0.3766326E+06  0.1804598E+01
  0.1876190E+01  0.3139942E+06 -0.1352526E+01  0.4788100E+05 -0.8689545E+00  0.3667301E+06  0.1788872E+01
  0.1907143E+01  0.3056248E+06 -0.1370767E+01  0.4463472E+05 -0.9084908E+00  0.3565376E+06  0.1770769E+01
  0.1938095E+01  0.2971744E+06 -0.1391347E+01  0.4155430E+05 -0.9495341E+00  0.3461009E+06  0.1750216E+01
  0.1969048E+01  0.2887167E+06 -0.1414178E+01  0.3862734E+05 -0.9920128E+00  0.3355616E+06  0.1727267E+01
  0.2000000E+01  0.2803986E+06 -0.1438850E+01  0.3586625E+05 -0.1036027E+01  0.3253253E+06  0.1702952E+01
