VARIABLES="w (rad/s)"
"abs(F   1   1)" "angle(F   1   1)"
"abs(F   1   2)" "angle(F   1   2)"
"abs(F   1   3)" "angle(F   1   3)"
Zone t="Diffraction force - beta =   0.000 deg",I=    64,F=POINT
  0.5000000E-01  0.6266791E+03 -0.1570795E+01  0.1699146E+03 -0.3095170E+01  0.7193815E+01 -0.1570795E+01
  0.8095238E-01  0.1023048E+04 -0.1570793E+01  0.4415658E+03 -0.3093612E+01  0.1153361E+02 -0.1570792E+01
  0.1119048E+00  0.1433097E+04 -0.1570790E+01  0.8391990E+03 -0.3091576E+01  0.1619525E+02 -0.1570787E+01
  0.1428571E+00  0.1851434E+04 -0.1570786E+01  0.1364105E+04 -0.3088995E+01  0.2072000E+02 -0.1570781E+01
  0.1738095E+00  0.2294168E+04 -0.1570779E+01  0.2018374E+04 -0.3085723E+01  0.2611752E+02 -0.1570773E+01
  0.2047619E+00  0.2751302E+04 -0.1570769E+01  0.2805717E+04 -0.3081629E+01  0.3134225E+02 -0.1570759E+01
  0.2357143E+00  0.3249166E+04 -0.1570754E+01  0.3727739E+04 -0.3076423E+01  0.3733989E+02 -0.1570739E+01
  0.2666667E+00  0.3778611E+04 -0.1570732E+01  0.4790859E+04 -0.3070104E+01  0.4418755E+02 -0.1570713E+01
  0.2976190E+00  0.4345667E+04 -0.1570700E+01  0.5996829E+04 -0.3062130E+01  0.5081245E+02 -0.1570666E+01
  0.3285715E+00  0.4982543E+04 -0.1570653E+01  0.7351725E+04 -0.3052573E+01  0.5914200E+02 -0.1570604E+01
  0.3595238E+00  0.5678944E+04 -0.1570581E+01  0.8849868E+04 -0.3040893E+01  0.6876441E+02 -0.1570510E+01
  0.3904762E+00  0.6429962E+04 -0.1570474E+01  0.1050460E+05 -0.3027086E+01  0.7872121E+02 -0.1570368E+01
  0.4214286E+00  0.7286676E+04 -0.1570316E+01  0.1228453E+05 -0.3011487E+01  0.9081834E+02 -0.1570165E+01
  0.4523810E+00  0.8240955E+04 -0.1570086E+01  0.1420485E+05 -0.2993413E+01  0.1070253E+03 -0.1569882E+01
  0.4833333E+00  0.9258365E+04 -0.1569764E+01  0.1623178E+05 -0.2974981E+01  0.1201247E+03 -0.1569453E+01
  0.5142857E+00  0.1034329E+05 -0.1569313E+01  0.1836175E+05 -0.2954914E+01  0.1359058E+03 -0.1568867E+01
  0.5452381E+00  0.1155980E+05 -0.1568715E+01  0.2059114E+05 -0.2934816E+01  0.1563813E+03 -0.1568122E+01
  0.5761905E+00  0.1285324E+05 -0.1567935E+01  0.2289118E+05 -0.2914813E+01  0.1788355E+03 -0.1567160E+01
  0.6071429E+00  0.1418937E+05 -0.1566918E+01  0.2526400E+05 -0.2894197E+01  0.2016111E+03 -0.1565894E+01
  0.6380953E+00  0.1555782E+05 -0.1565639E+01  0.2772388E+05 -0.2874739E+01  0.2214474E+03 -0.1564213E+01
  0.6690477E+00  0.1702937E+05 -0.1564054E+01  0.3023075E+05 -0.2855197E+01  0.2484572E+03 -0.1562254E+01
  0.7000000E+00  0.1859189E+05 -0.1562108E+01  0.3277970E+05 -0.2835411E+01  0.2815679E+03 -0.1559965E+01
  0.7309524E+00  0.2021403E+05 -0.1559754E+01  0.3538288E+05 -0.2816293E+01  0.3153387E+03 -0.1557168E+01
  0.7619048E+00  0.2184260E+05 -0.1556903E+01  0.3801289E+05 -0.2797318E+01  0.3448845E+03 -0.1553590E+01
  0.7928572E+00  0.2346803E+05 -0.1553477E+01  0.4066284E+05 -0.2778467E+01  0.3767528E+03 -0.1549342E+01
  0.8238096E+00  0.2519674E+05 -0.1549469E+01  0.4333463E+05 -0.2759953E+01  0.4153589E+03 -0.1544567E+01
  0.8547620E+00  0.2700576E+05 -0.1544814E+01  0.4600879E+05 -0.2741718E+01  0.4566700E+03 -0.1539039E+01
  0.8857143E+00  0.2886145E+05 -0.1539423E+01  0.4866696E+05 -0.2723680E+01  0.5022486E+03 -0.1532754E+01
  0.9166667E+00  0.3074736E+05 -0.1533219E+01  0.5131205E+05 -0.2706009E+01  0.5542917E+03 -0.1525782E+01
  0.9476191E+00  0.3263770E+05 -0.1526109E+01  0.5393239E+05 -0.2688718E+01  0.6043852E+03 -0.1517563E+01
  0.9785714E+00  0.3448810E+05 -0.1517976E+01  0.5652015E+05 -0.2671809E+01  0.6466735E+03 -0.1507557E+01
  0.1009524E+01  0.3634929E+05 -0.1508822E+01  0.5906902E+05 -0.2655280E+01  0.6940769E+03 -0.1496574E+01
  0.1040476E+01  0.3824614E+05 -0.1498650E+01  0.6156438E+05 -0.2639040E+01  0.7528684E+03 -0.1485158E+01
  0.1071429E+01  0.4019029E+05 -0.1487451E+01  0.6400676E+05 -0.2623235E+01  0.8185834E+03 -0.1472939E+01
  0.1102381E+01  0.4212659E+05 -0.1475123E+01  0.6638623E+05 -0.2607856E+01  0.8830473E+03 -0.1459174E+01
  0.1133333E+01  0.4402352E+05 -0.1461587E+01  0.6868739E+05 -0.2592790E+01  0.9482847E+03 -0.1444051E+01
  0.1164286E+01  0.4585731E+05 -0.1446781E+01  0.7091626E+05 -0.2578193E+01  0.1014400E+04 -0.1427473E+01
  0.1195238E+01  0.4756007E+05 -0.1430555E+01  0.7305747E+05 -0.2563917E+01  0.1079228E+04 -0.1409155E+01
  0.1226190E+01  0.4914320E+05 -0.1412924E+01  0.7512487E+05 -0.2550255E+01  0.1141875E+04 -0.1388983E+01
  0.1257143E+01  0.5057789E+05 -0.1393805E+01  0.7713316E+05 -0.2536873E+01  0.1204807E+04 -0.1367537E+01
  0.1288095E+01  0.5198906E+05 -0.1373944E+01  0.7899972E+05 -0.2524375E+01  0.1270144E+04 -0.1345466E+01
  0.1319048E+01  0.5322444E+05 -0.1352748E+01  0.8078873E+05 -0.2511965E+01  0.1329312E+04 -0.1321671E+01
  0.1350000E+01  0.5430907E+05 -0.1330471E+01  0.8247272E+05 -0.2499922E+01  0.1390189E+04 -0.1296828E+01
  0.1380952E+01  0.5518123E+05 -0.1306990E+01  0.8404675E+05 -0.2488296E+01  0.1452300E+04 -0.1271158E+01
  0.1411905E+01  0.5550304E+05 -0.1282576E+01  0.8543424E+05 -0.2476818E+01  0.1480625E+04 -0.1241213E+01
  0.1442857E+01  0.5592082E+05 -0.1257004E+01  0.8679652E+05 -0.2466113E+01  0.1537787E+04 -0.1214119E+01
  0.1473810E+01  0.5609913E+05 -0.1230709E+01  0.8804437E+05 -0.2455795E+01  0.1583889E+04 -0.1185446E+01
  0.1504762E+01  0.5599600E+05 -0.1203644E+01  0.8917597E+05 -0.2445842E+01  0.1617977E+04 -0.1155282E+01
  0.1535714E+01  0.5561489E+05 -0.1175958E+01  0.9018965E+05 -0.2436251E+01  0.1643003E+04 -0.1123987E+01
  0.1566667E+01  0.5494130E+05 -0.1147680E+01  0.9108276E+05 -0.2426931E+01  0.1663298E+04 -0.1092278E+01
  0.1597619E+01  0.5396220E+05 -0.1118819E+01  0.9185762E+05 -0.2418005E+01  0.1678011E+04 -0.1060761E+01
  0.1628572E+01  0.5269736E+05 -0.1089756E+01  0.9251511E+05 -0.2409534E+01  0.1685956E+04 -0.1030406E+01
  0.1659524E+01  0.5114266E+05 -0.1060593E+01  0.9305341E+05 -0.2401547E+01  0.1683389E+04 -0.9999143E+00
  0.1690476E+01  0.4929900E+05 -0.1031347E+01  0.9346906E+05 -0.2393956E+01  0.1664268E+04 -0.9686410E+00
  0.1721429E+01  0.4716436E+05 -0.1001937E+01  0.9376038E+05 -0.2386694E+01  0.1631725E+04 -0.9366268E+00
  0.1752381E+01  0.4474647E+05 -0.9723151E+00  0.9393292E+05 -0.2379786E+01  0.1582850E+04 -0.9029329E+00
  0.1783333E+01  0.4207194E+05 -0.9426989E+00  0.9398442E+05 -0.2373266E+01  0.1524148E+04 -0.8703898E+00
  0.1814286E+01  0.3915169E+05 -0.9129763E+00  0.9391229E+05 -0.2366947E+01  0.1455973E+04 -0.8391465E+00
  0.1845238E+01  0.3600260E+05 -0.8829478E+00  0.9372098E+05 -0.2361087E+01  0.1375781E+04 -0.8087541E+00
  0.1876190E+01  0.3264147E+05 -0.8523180E+00  0.9341270E+05 -0.2355627E+01  0.1282664E+04 -0.7779862E+00
  0.1907143E+01  0.2909567E+05 -0.8208215E+00  0.9298403E+05 -0.2350644E+01  0.1176515E+04 -0.7469355E+00
  0.1938095E+01  0.2538722E+05 -0.7876927E+00  0.9243656E+05 -0.2346128E+01  0.1055184E+04 -0.7133010E+00
  0.1969048E+01  0.2153602E+05 -0.7515436E+00  0.9176878E+05 -0.2341946E+01  0.9181591E+03 -0.6759223E+00
  0.2000000E+01  0.1755930E+05 -0.7093594E+00  0.9098855E+05 -0.2338125E+01  0.7662106E+03 -0.6319055E+00
