VARIABLES="w (rad/s)"
"abs(F   1   1)" "angle(F   1   1)"
"abs(F   1   2)" "angle(F   1   2)"
"abs(F   1   3)" "angle(F   1   3)"
Zone t="Diffraction force - beta =   0.000 deg",I=    64,F=POINT
  0.5000000E-01  0.1851485E+04 -0.1570798E+01  0.2641641E+06 -0.1835988E-04  0.1294930E+04  0.1570801E+01
  0.8095238E-01  0.3022506E+04 -0.1570796E+01  0.2637935E+06 -0.4941234E-04  0.2118281E+04  0.1570790E+01
  0.1119048E+00  0.4225112E+04 -0.1570791E+01  0.2632494E+06 -0.9818241E-04  0.2959043E+04  0.1570799E+01
  0.1428571E+00  0.5466257E+04 -0.1570798E+01  0.2625304E+06 -0.1684672E-03  0.3826093E+04  0.1570799E+01
  0.1738095E+00  0.6763874E+04 -0.1570797E+01  0.2616359E+06 -0.2660692E-03  0.4725765E+04  0.1570799E+01
  0.2047619E+00  0.8126039E+04 -0.1570786E+01  0.2605619E+06 -0.3992620E-03  0.5672940E+04  0.1570802E+01
  0.2357143E+00  0.9580602E+04 -0.1570787E+01  0.2593088E+06 -0.5804264E-03  0.6671727E+04  0.1570799E+01
  0.2666667E+00  0.1114260E+05 -0.1570773E+01  0.2578727E+06 -0.8247593E-03  0.7745517E+04  0.1570820E+01
  0.2976190E+00  0.1283206E+05 -0.1570762E+01  0.2562509E+06 -0.1157612E-02  0.8906920E+04  0.1570835E+01
  0.3285715E+00  0.1469610E+05 -0.1570744E+01  0.2544417E+06 -0.1605676E-02  0.1016359E+05  0.1570848E+01
  0.3595238E+00  0.1673926E+05 -0.1570718E+01  0.2524492E+06 -0.2210301E-02  0.1154706E+05  0.1570876E+01
  0.3904762E+00  0.1899023E+05 -0.1570675E+01  0.2502659E+06 -0.3019175E-02  0.1307649E+05  0.1570916E+01
  0.4214286E+00  0.2149585E+05 -0.1570616E+01  0.2479120E+06 -0.4063481E-02  0.1474768E+05  0.1570972E+01
  0.4523810E+00  0.2426896E+05 -0.1570532E+01  0.2453836E+06 -0.5424721E-02  0.1657463E+05  0.1571060E+01
  0.4833333E+00  0.2728346E+05 -0.1570411E+01  0.2427018E+06 -0.7073373E-02  0.1857105E+05  0.1571182E+01
  0.5142857E+00  0.3055047E+05 -0.1570242E+01  0.2398694E+06 -0.9103410E-02  0.2072289E+05  0.1571354E+01
  0.5452381E+00  0.3407614E+05 -0.1570014E+01  0.2368986E+06 -0.1149296E-01  0.2301175E+05  0.1571580E+01
  0.5761905E+00  0.3782810E+05 -0.1569716E+01  0.2338047E+06 -0.1425448E-01  0.2542456E+05  0.1571874E+01
  0.6071429E+00  0.4179458E+05 -0.1569331E+01  0.2305878E+06 -0.1746751E-01  0.2795025E+05  0.1572264E+01
  0.6380953E+00  0.4591400E+05 -0.1568843E+01  0.2272436E+06 -0.2106927E-01  0.3058710E+05  0.1572750E+01
  0.6690477E+00  0.5023648E+05 -0.1568233E+01  0.2237975E+06 -0.2514194E-01  0.3330292E+05  0.1573359E+01
  0.7000000E+00  0.5476325E+05 -0.1567476E+01  0.2202635E+06 -0.2973755E-01  0.3608197E+05  0.1574118E+01
  0.7309524E+00  0.5943899E+05 -0.1566551E+01  0.2166365E+06 -0.3483085E-01  0.3893244E+05  0.1575040E+01
  0.7619048E+00  0.6428373E+05 -0.1565433E+01  0.2129261E+06 -0.4047408E-01  0.4186931E+05  0.1576159E+01
  0.7928572E+00  0.6923971E+05 -0.1564090E+01  0.2091458E+06 -0.4670401E-01  0.4483705E+05  0.1577502E+01
  0.8238096E+00  0.7437233E+05 -0.1562492E+01  0.2053052E+06 -0.5354021E-01  0.4788073E+05  0.1579098E+01
  0.8547620E+00  0.7962962E+05 -0.1560611E+01  0.2014209E+06 -0.6100563E-01  0.5091069E+05  0.1580978E+01
  0.8857143E+00  0.8506568E+05 -0.1558410E+01  0.1974997E+06 -0.6911781E-01  0.5400395E+05  0.1583178E+01
  0.9166667E+00  0.9061667E+05 -0.1555854E+01  0.1935437E+06 -0.7789953E-01  0.5708123E+05  0.1585732E+01
  0.9476191E+00  0.9631063E+05 -0.1552907E+01  0.1895655E+06 -0.8736642E-01  0.6021116E+05  0.1588676E+01
  0.9785714E+00  0.1020495E+06 -0.1549528E+01  0.1855795E+06 -0.9754518E-01  0.6334231E+05  0.1592052E+01
  0.1009524E+01  0.1079059E+06 -0.1545685E+01  0.1815772E+06 -0.1084480E+00  0.6649693E+05  0.1595891E+01
  0.1040476E+01  0.1138332E+06 -0.1541345E+01  0.1775803E+06 -0.1201070E+00  0.6957674E+05  0.1600225E+01
  0.1071429E+01  0.1198822E+06 -0.1536479E+01  0.1735915E+06 -0.1325332E+00  0.7261886E+05  0.1605086E+01
  0.1102381E+01  0.1259991E+06 -0.1531046E+01  0.1696248E+06 -0.1457451E+00  0.7565609E+05  0.1610510E+01
  0.1133333E+01  0.1321109E+06 -0.1525017E+01  0.1656931E+06 -0.1597631E+00  0.7857903E+05  0.1616529E+01
  0.1164286E+01  0.1382828E+06 -0.1518368E+01  0.1617768E+06 -0.1745919E+00  0.8148041E+05  0.1623164E+01
  0.1195238E+01  0.1444133E+06 -0.1511078E+01  0.1578895E+06 -0.1902630E+00  0.8425870E+05  0.1630432E+01
  0.1226190E+01  0.1505044E+06 -0.1503140E+01  0.1540297E+06 -0.2068053E+00  0.8696335E+05  0.1638347E+01
  0.1257143E+01  0.1564550E+06 -0.1494563E+01  0.1502097E+06 -0.2244297E+00  0.8954844E+05  0.1646893E+01
  0.1288095E+01  0.1624401E+06 -0.1485335E+01  0.1464369E+06 -0.2426191E+00  0.9202014E+05  0.1656088E+01
  0.1319048E+01  0.1681757E+06 -0.1475505E+01  0.1427224E+06 -0.2619627E+00  0.9424512E+05  0.1665873E+01
  0.1350000E+01  0.1738273E+06 -0.1465098E+01  0.1390573E+06 -0.2822908E+00  0.9635365E+05  0.1676230E+01
  0.1380952E+01  0.1792189E+06 -0.1454159E+01  0.1354545E+06 -0.3036253E+00  0.9817845E+05  0.1687109E+01
  0.1411905E+01  0.1836532E+06 -0.1443733E+01  0.1320371E+06 -0.3250708E+00  0.9966284E+05  0.1697469E+01
  0.1442857E+01  0.1885499E+06 -0.1432022E+01  0.1285541E+06 -0.3485059E+00  0.1010861E+06  0.1709104E+01
  0.1473810E+01  0.1930843E+06 -0.1419987E+01  0.1251404E+06 -0.3730957E+00  0.1022518E+06  0.1721039E+01
  0.1504762E+01  0.1971904E+06 -0.1407737E+01  0.1218045E+06 -0.3988797E+00  0.1030923E+06  0.1733161E+01
  0.1535714E+01  0.2009258E+06 -0.1395385E+01  0.1185347E+06 -0.4259317E+00  0.1037356E+06  0.1745376E+01
  0.1566667E+01  0.2042480E+06 -0.1383077E+01  0.1153435E+06 -0.4543057E+00  0.1041228E+06  0.1757526E+01
  0.1597619E+01  0.2070233E+06 -0.1370988E+01  0.1122382E+06 -0.4841376E+00  0.1041120E+06  0.1769410E+01
  0.1628572E+01  0.2093627E+06 -0.1359277E+01  0.1092252E+06 -0.5154560E+00  0.1038343E+06  0.1780903E+01
  0.1659524E+01  0.2112362E+06 -0.1348099E+01  0.1063076E+06 -0.5483624E+00  0.1032860E+06  0.1791840E+01
  0.1690476E+01  0.2126049E+06 -0.1337543E+01  0.1035189E+06 -0.5828386E+00  0.1024756E+06  0.1802146E+01
  0.1721429E+01  0.2134575E+06 -0.1327815E+01  0.1008626E+06 -0.6189815E+00  0.1013435E+06  0.1811556E+01
  0.1752381E+01  0.2138221E+06 -0.1318981E+01  0.9834903E+05 -0.6568603E+00  0.9997397E+05  0.1820081E+01
  0.1783333E+01  0.2137796E+06 -0.1311207E+01  0.9596727E+05 -0.6963812E+00  0.9843325E+05  0.1827535E+01
  0.1814286E+01  0.2132991E+06 -0.1304639E+01  0.9374384E+05 -0.7375817E+00  0.9666830E+05  0.1833725E+01
  0.1845238E+01  0.2123492E+06 -0.1299386E+01  0.9168414E+05 -0.7805307E+00  0.9465300E+05  0.1838535E+01
  0.1876190E+01  0.2110605E+06 -0.1295548E+01  0.8980053E+05 -0.8251114E+00  0.9250997E+05  0.1841932E+01
  0.1907143E+01  0.2094490E+06 -0.1293225E+01  0.8811134E+05 -0.8711965E+00  0.9025341E+05  0.1843761E+01
  0.1938095E+01  0.2075418E+06 -0.1292368E+01  0.8663852E+05 -0.9185679E+00  0.8793473E+05  0.1844192E+01
  0.1969048E+01  0.2053339E+06 -0.1293105E+01  0.8539730E+05 -0.9669768E+00  0.8550696E+05  0.1843015E+01
  0.2000000E+01  0.2028534E+06 -0.1295513E+01  0.8440673E+05 -0.1015828E+01  0.8294826E+05  0.1840023E+01
