VARIABLES="w (rad/s)"
"A   1   1" "B   1   1"
"A   1   2" "B   1   2"
"A   1   3" "B   1   3"
Zone t="Motion of body    1 in DoF   1",I=    64,F=POINT
  0.5000000E-01  0.1015722E+06  0.7792744E-02 -0.4005432E-03 -0.1038478E-04 -0.4346590E+06 -0.3422737E-01
  0.8095238E-01  0.1022036E+06  0.3331100E-01  0.2544627E-02 -0.6198054E-05 -0.4364740E+06 -0.1451818E+00
  0.1119048E+00  0.1023770E+06  0.9291891E-01  0.1636262E-02  0.6663555E-05 -0.4367281E+06 -0.4043999E+00
  0.1428571E+00  0.1025475E+06  0.2083289E+00 -0.4673004E-03  0.1046923E-05 -0.4371853E+06 -0.9061294E+00
  0.1738095E+00  0.1026542E+06  0.4133875E+00  0.1536330E-03 -0.6151968E-05 -0.4373908E+06 -0.1795641E+01
  0.2047619E+00  0.1027223E+06  0.7595118E+00 -0.1862992E-03 -0.4428532E-04 -0.4376906E+06 -0.3293933E+01
  0.2357143E+00  0.1028431E+06  0.1328081E+01 -0.1327052E-02 -0.3739772E-04 -0.4380158E+06 -0.5748688E+01
  0.2666667E+00  0.1029235E+06  0.2246953E+01 -0.1587868E-02 -0.1307754E-03 -0.4382144E+06 -0.9704288E+01
  0.2976190E+00  0.1031175E+06  0.3739495E+01 -0.2601929E-02 -0.1742300E-03 -0.4387860E+06 -0.1610931E+02
  0.3285715E+00  0.1032079E+06  0.6125497E+01 -0.1393194E-02 -0.1659691E-03 -0.4390235E+06 -0.2631447E+02
  0.3595238E+00  0.1034559E+06  0.9960067E+01  0.5517416E-03 -0.1339242E-03 -0.4397334E+06 -0.4265131E+02
  0.3904762E+00  0.1035641E+06  0.1604586E+02  0.1172321E-03 -0.1194403E-03 -0.4401877E+06 -0.6849997E+02
  0.4214286E+00  0.1038603E+06  0.2551140E+02 -0.1520706E-02 -0.2564415E-03 -0.4409182E+06 -0.1084633E+03
  0.4523810E+00  0.1040461E+06  0.4016758E+02 -0.1298603E-02 -0.4973263E-03 -0.4415093E+06 -0.1701450E+03
  0.4833333E+00  0.1043364E+06  0.6163762E+02  0.1262796E-02 -0.2413988E-03 -0.4423501E+06 -0.2599284E+03
  0.5142857E+00  0.1046585E+06  0.9302187E+02 -0.8604262E-03 -0.1238883E-03 -0.4433998E+06 -0.3905428E+03
  0.5452381E+00  0.1049588E+06  0.1368874E+03  0.2686613E-02  0.2233386E-03 -0.4443058E+06 -0.5719367E+03
  0.5761905E+00  0.1054168E+06  0.1966736E+03 -0.1853754E-02 -0.6578565E-03 -0.4455781E+06 -0.8172344E+03
  0.6071429E+00  0.1057596E+06  0.2771128E+03 -0.3191779E-02 -0.9707212E-03 -0.4466888E+06 -0.1145484E+04
  0.6380953E+00  0.1061845E+06  0.3817088E+03  0.2367390E-02  0.3898144E-03 -0.4480676E+06 -0.1568919E+04
  0.6690477E+00  0.1067369E+06  0.5166778E+03 -0.1117530E-02 -0.6513596E-03 -0.4496536E+06 -0.2110307E+04
  0.7000000E+00  0.1071597E+06  0.6880761E+03  0.2572196E-02  0.5574226E-03 -0.4508577E+06 -0.2792524E+04
  0.7309524E+00  0.1076538E+06  0.9019266E+03 -0.4383795E-03 -0.3004074E-04 -0.4523008E+06 -0.3635853E+04
  0.7619048E+00  0.1083134E+06  0.1166947E+04  0.2122879E-02  0.2923012E-03 -0.4541084E+06 -0.4669640E+04
  0.7928572E+00  0.1088464E+06  0.1489847E+04 -0.2001513E-02 -0.2017498E-02 -0.4557300E+06 -0.5918974E+04
  0.8238096E+00  0.1094321E+06  0.1880096E+04  0.1481778E-03 -0.4830360E-03 -0.4574491E+06 -0.7412694E+04
  0.8547620E+00  0.1100007E+06  0.2345840E+04 -0.1785151E-04 -0.4148483E-04 -0.4588679E+06 -0.9172874E+04
  0.8857143E+00  0.1107109E+06  0.2899270E+04  0.4306916E-03  0.1678467E-03 -0.4606342E+06 -0.1123802E+05
  0.9166667E+00  0.1112820E+06  0.3546264E+04  0.2996271E-02  0.3719330E-04 -0.4620497E+06 -0.1362550E+05
  0.9476191E+00  0.1118925E+06  0.4299709E+04  0.1094952E-02 -0.4358292E-03 -0.4635964E+06 -0.1637100E+05
  0.9785714E+00  0.1124789E+06  0.5168384E+04  0.2385717E-02  0.5722046E-03 -0.4649165E+06 -0.1949105E+05
  0.1009524E+01  0.1131830E+06  0.6167060E+04  0.1209187E-03 -0.1764297E-02 -0.4664495E+06 -0.2302315E+05
  0.1040476E+01  0.1137971E+06  0.7298702E+04  0.2053128E-03 -0.6504059E-03 -0.4677859E+06 -0.2697235E+05
  0.1071429E+01  0.1142507E+06  0.8566830E+04 -0.9256999E-03 -0.1033783E-02 -0.4683626E+06 -0.3131797E+05
  0.1102381E+01  0.1147795E+06  0.9992921E+04 -0.1453375E-02 -0.7190704E-03 -0.4692113E+06 -0.3612930E+05
  0.1133333E+01  0.1151857E+06  0.1157280E+05  0.7405001E-03  0.3643036E-03 -0.4694552E+06 -0.4135504E+05
  0.1164286E+01  0.1156713E+06  0.1332813E+05  0.1441628E-03  0.5702972E-03 -0.4697985E+06 -0.4705014E+05
  0.1195238E+01  0.1160543E+06  0.1525505E+05  0.1455360E-02 -0.8583069E-03 -0.4699938E+06 -0.5320692E+05
  0.1226190E+01  0.1162244E+06  0.1733666E+05  0.1095077E-02 -0.1399994E-02 -0.4693324E+06 -0.5970124E+05
  0.1257143E+01  0.1163054E+06  0.1958724E+05 -0.5583329E-03 -0.6752014E-03 -0.4685665E+06 -0.6660569E+05
  0.1288095E+01  0.1164248E+06  0.2202856E+05  0.1160909E-02  0.1716614E-03 -0.4675987E+06 -0.7389373E+05
  0.1319048E+01  0.1163723E+06  0.2461172E+05 -0.1526981E-02 -0.1472473E-02 -0.4660060E+06 -0.8139860E+05
  0.1350000E+01  0.1163082E+06  0.2736627E+05  0.3842954E-03 -0.9002686E-03 -0.4642520E+06 -0.8918619E+05
  0.1380952E+01  0.1160574E+06  0.3026720E+05  0.2917060E-02 -0.3395081E-03 -0.4621818E+06 -0.9723331E+05
  0.1411905E+01  0.1153705E+06  0.3321604E+05 -0.1210410E-02 -0.3585815E-03 -0.4589819E+06 -0.1051621E+06
  0.1442857E+01  0.1147856E+06  0.3633507E+05  0.3024564E-02 -0.2899170E-03 -0.4558760E+06 -0.1132820E+06
  0.1473810E+01  0.1141116E+06  0.3956170E+05  0.3727187E-03  0.1247406E-02 -0.4525466E+06 -0.1214072E+06
  0.1504762E+01  0.1132092E+06  0.4281876E+05 -0.2028067E-04 -0.8621216E-03 -0.4484665E+06 -0.1292262E+06
  0.1535714E+01  0.1122777E+06  0.4617105E+05  0.5345544E-02 -0.1640320E-03 -0.4444115E+06 -0.1370278E+06
  0.1566667E+01  0.1112679E+06  0.4956779E+05  0.3311482E-03  0.3623962E-03 -0.4402169E+06 -0.1445959E+06
  0.1597619E+01  0.1100508E+06  0.5295429E+05  0.9550956E-04  0.4577637E-04 -0.4357926E+06 -0.1519696E+06
  0.1628572E+01  0.1085569E+06  0.5612995E+05 -0.1817670E-02  0.6561279E-03 -0.4304027E+06 -0.1581092E+06
  0.1659524E+01  0.1070139E+06  0.5927813E+05 -0.1140140E-02 -0.5149841E-03 -0.4251613E+06 -0.1639855E+06
  0.1690476E+01  0.1054462E+06  0.6237528E+05  0.1715002E-02 -0.2365112E-03 -0.4200787E+06 -0.1694420E+06
  0.1721429E+01  0.1036769E+06  0.6520889E+05  0.1542341E-02 -0.2059937E-03 -0.4144653E+06 -0.1737219E+06
  0.1752381E+01  0.1019039E+06  0.6794600E+05  0.2194280E-02  0.1716614E-03 -0.4090648E+06 -0.1775294E+06
  0.1783333E+01  0.1001065E+06  0.7050138E+05 -0.3080279E-03  0.1907349E-03 -0.4037330E+06 -0.1805420E+06
  0.1814286E+01  0.9830066E+05  0.7290935E+05  0.8410357E-03  0.2670288E-03 -0.3986848E+06 -0.1830669E+06
  0.1845238E+01  0.9639664E+05  0.7506353E+05  0.1538086E-02  0.4692078E-03 -0.3937108E+06 -0.1850204E+06
  0.1876190E+01  0.9438006E+05  0.7668730E+05 -0.4066429E-03 -0.3814697E-05 -0.3883974E+06 -0.1848629E+06
  0.1907143E+01  0.9241689E+05  0.7813224E+05  0.8640933E-03  0.3929138E-03 -0.3835072E+06 -0.1844256E+06
  0.1938095E+01  0.9052447E+05  0.7941302E+05  0.4723851E-04  0.3929138E-03 -0.3791014E+06 -0.1836615E+06
  0.1969048E+01  0.8867285E+05  0.8039309E+05  0.1270889E-02  0.4901886E-03 -0.3749223E+06 -0.1820520E+06
  0.2000000E+01  0.8681223E+05  0.8094522E+05 -0.7934570E-03  0.3070831E-03 -0.3708124E+06 -0.1791207E+06
Zone t="Motion of body    1 in DoF   2",I=    64,F=POINT
  0.5000000E-01  0.3175735E-02  0.7867813E-05  0.1706861E+05  0.1887529E+02 -0.7781982E-02 -0.2574921E-04
  0.8095238E-01  0.2839145E-02  0.3504753E-04  0.1696676E+05  0.3115818E+02 -0.8105109E-02 -0.6651878E-04
  0.1119048E+00  0.2923113E-02 -0.3385544E-04  0.1690699E+05  0.4432357E+02 -0.9476682E-02  0.1566410E-03
  0.1428571E+00  0.1255035E-02 -0.3767014E-04  0.1686791E+05  0.5879214E+02  0.5981445E-02 -0.1788139E-03
  0.1738095E+00  0.2052098E-02  0.1621246E-04  0.1684654E+05  0.7497152E+02 -0.9832513E-02 -0.1401901E-03
  0.2047619E+00  0.2421889E-02 -0.5483627E-04  0.1683294E+05  0.9360654E+02 -0.1505297E-01  0.1196861E-03
  0.2357143E+00 -0.8900960E-03  0.1049042E-04  0.1681389E+05  0.1154458E+03  0.9774872E-02  0.1096725E-03
  0.2666667E+00  0.2260208E-02  0.2384186E-04  0.1682315E+05  0.1409248E+03 -0.2265930E-01 -0.2737045E-03
  0.2976190E+00  0.1512451E-02  0.2861023E-05  0.1680055E+05  0.1718805E+03 -0.5742188E-02 -0.4959106E-04
  0.3285715E+00  0.3378494E-02  0.9441376E-04  0.1681121E+05  0.2083423E+03 -0.1133131E-01 -0.1869202E-03
  0.3595238E+00  0.1485458E-03 -0.1564026E-03  0.1678229E+05  0.2521266E+03 -0.1027088E-01  0.6141663E-03
  0.3904762E+00  0.1416555E-02  0.1182556E-03  0.1677569E+05  0.3038812E+03  0.7893631E-02 -0.5359650E-03
  0.4214286E+00  0.2625029E-03 -0.3242493E-04  0.1673262E+05  0.3614315E+03 -0.2389681E-02  0.1575470E-02
  0.4523810E+00  0.2588774E-02  0.3814697E-05  0.1668772E+05  0.4287285E+03 -0.3305535E-02 -0.1079559E-02
  0.4833333E+00  0.1104947E-03  0.2441406E-03  0.1663230E+05  0.4952557E+03 -0.6945379E-03 -0.2250671E-03
  0.5142857E+00  0.1884037E-02 -0.1754761E-03  0.1653934E+05  0.5666876E+03 -0.7832846E-02  0.1098633E-02
  0.5452381E+00  0.5149342E-02 -0.4730225E-03  0.1647639E+05  0.6358077E+03 -0.3246324E-02  0.2174377E-02
  0.5761905E+00  0.9533589E-03 -0.2670288E-04  0.1635764E+05  0.6995951E+03  0.6355727E-03  0.1373291E-02
  0.6071429E+00  0.6458955E-02 -0.7095337E-03  0.1624935E+05  0.7626547E+03 -0.1648667E-01  0.1216888E-02
  0.6380953E+00  0.3706519E-03  0.3890991E-03  0.1617472E+05  0.8154957E+03 -0.6695648E-03  0.1659393E-02
  0.6690477E+00  0.3626270E-02 -0.9918213E-04  0.1604265E+05  0.8610505E+03 -0.1660330E-01 -0.1029968E-02
  0.7000000E+00  0.3520420E-02 -0.1068115E-02  0.1593437E+05  0.9018276E+03 -0.1377651E-01 -0.1838684E-02
  0.7309524E+00  0.1325576E-02 -0.3051758E-03  0.1586597E+05  0.9337402E+03 -0.9018092E-02  0.3990173E-02
  0.7619048E+00  0.1642227E-02  0.1831055E-03  0.1574563E+05  0.9541703E+03 -0.7530211E-02  0.3547668E-03
  0.7928572E+00  0.4185857E-03 -0.2059937E-03  0.1564391E+05  0.9677107E+03 -0.7698127E-02  0.1979828E-02
  0.8238096E+00  0.2569959E-02 -0.1182556E-02  0.1557078E+05  0.9750012E+03 -0.1015018E-01  0.8918762E-02
  0.8547620E+00  0.1847631E-02 -0.1052856E-02  0.1551251E+05  0.9740571E+03 -0.9711220E-02 -0.1480103E-02
  0.8857143E+00  0.9690562E-03  0.7019043E-03  0.1541441E+05  0.9584675E+03 -0.8269279E-02  0.3318787E-03
  0.9166667E+00  0.1835216E-02  0.1205444E-02  0.1534827E+05  0.9388093E+03 -0.1298384E-01 -0.1033783E-02
  0.9476191E+00  0.6461024E-03 -0.6103516E-03  0.1530403E+05  0.9166006E+03 -0.3542493E-02  0.1903534E-02
  0.9785714E+00  0.3177058E-03 -0.7476807E-03  0.1529205E+05  0.8954398E+03 -0.1216248E-01  0.2479553E-03
  0.1009524E+01  0.1481254E-02  0.3204346E-03  0.1522230E+05  0.8468776E+03 -0.8464310E-02  0.2388000E-02
  0.1040476E+01  0.7983367E-03  0.3662109E-03  0.1517800E+05  0.8006382E+03 -0.2111788E-02 -0.2750397E-02
  0.1071429E+01  0.2418614E-02 -0.7019043E-03  0.1515309E+05  0.7560371E+03 -0.1407064E-01  0.3688812E-02
  0.1102381E+01  0.2776119E-02 -0.6103516E-03  0.1515040E+05  0.7175512E+03 -0.1218067E-01 -0.1106262E-03
  0.1133333E+01 -0.4653370E-03 -0.2441406E-03  0.1516513E+05  0.6850535E+03  0.7755055E-02  0.2639771E-02
  0.1164286E+01  0.0000000E+00  0.1144409E-02  0.1513495E+05  0.6141620E+03 -0.2935678E-02 -0.5302429E-02
  0.1195238E+01  0.1862287E-02 -0.1831055E-03  0.1512312E+05  0.5540276E+03 -0.9804532E-02  0.3494263E-02
  0.1226190E+01  0.2109268E-02 -0.2899170E-03  0.1512449E+05  0.5014946E+03 -0.9855697E-02 -0.3162384E-02
  0.1257143E+01  0.6645376E-03 -0.1525879E-04  0.1513789E+05  0.4612195E+03 -0.1223477E-01 -0.7591248E-03
  0.1288095E+01  0.1812440E-02  0.4577637E-03  0.1516614E+05  0.4369717E+03 -0.1127740E-01  0.2576828E-02
  0.1319048E+01  0.1217536E-02 -0.5950928E-03  0.1518312E+05  0.3942068E+03 -0.1693560E-01  0.3360748E-02
  0.1350000E+01  0.8392334E-03  0.6103516E-03  0.1518826E+05  0.3286484E+03 -0.5244502E-02 -0.4978180E-03
  0.1380952E+01  0.1011026E-02 -0.6179810E-03  0.1519972E+05  0.2764023E+03 -0.7778826E-02  0.9098053E-03
  0.1411905E+01  0.1237429E-02 -0.1220703E-03  0.1521547E+05  0.2349048E+03 -0.6052053E-02  0.9193420E-03
  0.1442857E+01 -0.1163294E-03 -0.2822876E-03  0.1523678E+05  0.2086255E+03 -0.8460318E-04  0.8783340E-03
  0.1473810E+01  0.7299075E-03  0.3356934E-03  0.1526235E+05  0.1986312E+03 -0.4141319E-02 -0.4014969E-03
  0.1504762E+01 -0.3549117E-04 -0.7629395E-04  0.1529156E+05  0.2096684E+03 -0.3893888E-02 -0.1380920E-02
  0.1535714E+01  0.7849404E-03  0.8010864E-03  0.1530691E+05  0.1508139E+03 -0.7471838E-02 -0.8268356E-03
  0.1566667E+01 -0.4723731E-03  0.6408691E-03  0.1532497E+05  0.1092048E+03  0.9427983E-02  0.1015186E-02
  0.1597619E+01  0.1824233E-02 -0.2365112E-03  0.1534243E+05  0.7921590E+02 -0.8099210E-02  0.1459122E-03
  0.1628572E+01  0.1189918E-02  0.1113892E-02  0.1536006E+05  0.5723941E+02 -0.5996436E-02 -0.1414776E-02
  0.1659524E+01  0.7125876E-03  0.6713867E-03  0.1537700E+05  0.4814797E+02 -0.7429301E-02 -0.1532793E-02
  0.1690476E+01  0.1417133E-02  0.2212524E-03  0.1539269E+05  0.5001517E+02 -0.1574191E-01 -0.6058216E-03
  0.1721429E+01  0.1227668E-02  0.1945496E-03  0.1540695E+05  0.6593164E+02 -0.1021136E-01 -0.5254745E-03
  0.1752381E+01  0.8272089E-03  0.6866455E-04  0.1542176E+05  0.6557081E+02 -0.2647068E-02 -0.8707047E-03
  0.1783333E+01  0.8427986E-03  0.9155273E-04  0.1543998E+05  0.3415651E+02 -0.6708163E-02 -0.5290508E-03
  0.1814286E+01  0.1379299E-02  0.2059937E-03  0.1545536E+05  0.1371341E+02 -0.1197635E-01 -0.1817942E-03
  0.1845238E+01  0.7111580E-03  0.1945496E-03  0.1546809E+05  0.3067174E+01 -0.5556955E-02 -0.1746267E-03
  0.1876190E+01  0.1524911E-02  0.3166199E-03  0.1547961E+05 -0.5147052E+01 -0.1372826E-01 -0.1046479E-02
  0.1907143E+01  0.1132122E-02 -0.2670288E-04  0.1548899E+05 -0.5054924E+01 -0.1856200E-02 -0.9378791E-04
  0.1938095E+01  0.1267567E-02  0.1525879E-04  0.1549628E+05 -0.1886829E+01 -0.8691886E-02 -0.3039986E-03
  0.1969048E+01  0.1019036E-02  0.4119873E-03  0.1550157E+05  0.8551607E+01 -0.3967654E-02 -0.7383227E-03
  0.2000000E+01  0.1525879E-04  0.1621246E-03  0.1550421E+05  0.2266413E+02  0.9155273E-03 -0.6377697E-03
Zone t="Motion of body    1 in DoF   3",I=    64,F=POINT
  0.5000000E-01 -0.4345352E+06 -0.3412603E-01 -0.1594543E-01 -0.2002275E-04  0.2331668E+07  0.1497853E+00
  0.8095238E-01 -0.4364059E+06 -0.1450927E+00 -0.1130946E-02  0.1321489E-05  0.2336022E+07  0.6317357E+00
  0.1119048E+00 -0.4367009E+06 -0.4042910E+00 -0.8181308E-03  0.9430212E-04  0.2336466E+07  0.1759729E+01
  0.1428571E+00 -0.4371697E+06 -0.9060486E+00 -0.1516724E-01 -0.6632460E-04  0.2337700E+07  0.3942097E+01
  0.1738095E+00 -0.4373838E+06 -0.1795544E+01  0.5267417E-03  0.2334118E-03  0.2338297E+07  0.7799902E+01
  0.2047619E+00 -0.4376742E+06 -0.3292641E+01  0.6110613E-02  0.3131488E-03  0.2339351E+07  0.1427905E+02
  0.2357143E+00 -0.4380055E+06 -0.5746835E+01  0.3430915E-02  0.4465878E-03  0.2340306E+07  0.2487453E+02
  0.2666667E+00 -0.4382030E+06 -0.9701233E+01  0.1338959E-01  0.8020289E-03  0.2341061E+07  0.4189338E+02
  0.2976190E+00 -0.4387804E+06 -0.1610536E+02  0.2450684E-01  0.1219697E-02  0.2342694E+07  0.6937154E+02
  0.3285715E+00 -0.4390118E+06 -0.2630573E+02 -0.1708984E-01 -0.4086196E-03  0.2343624E+07  0.1130018E+03
  0.3595238E+00 -0.4397342E+06 -0.4264218E+02 -0.8658099E-02 -0.1019239E-04  0.2345799E+07  0.1826020E+03
  0.3904762E+00 -0.4401663E+06 -0.6846664E+02 -0.6252381E-02  0.7609129E-03  0.2347408E+07  0.2922840E+03
  0.4214286E+00 -0.4409112E+06 -0.1084359E+03  0.2215886E-01  0.2155185E-02  0.2349466E+07  0.4610090E+03
  0.4523810E+00 -0.4415003E+06 -0.1700788E+03  0.1511102E-01  0.2527893E-02  0.2351700E+07  0.7204950E+03
  0.4833333E+00 -0.4423405E+06 -0.2598341E+03 -0.1022865E-01  0.1707792E-02  0.2354387E+07  0.1095712E+04
  0.5142857E+00 -0.4433844E+06 -0.3903673E+03 -0.3560384E-03  0.1797199E-02  0.2357636E+07  0.1638868E+04
  0.5452381E+00 -0.4442815E+06 -0.5716301E+03 -0.5373226E-02  0.1884937E-02  0.2360728E+07  0.2388336E+04
  0.5761905E+00 -0.4455715E+06 -0.8169921E+03 -0.3071934E-02 -0.6814003E-03  0.2364551E+07  0.3394741E+04
  0.6071429E+00 -0.4466739E+06 -0.1144929E+04  0.1678826E-01  0.5361557E-02  0.2368410E+07  0.4733000E+04
  0.6380953E+00 -0.4480347E+06 -0.1567918E+04 -0.1989564E-01 -0.1707554E-02  0.2372778E+07  0.6444429E+04
  0.6690477E+00 -0.4496297E+06 -0.2109280E+04  0.1158582E-01  0.3351688E-02  0.2377443E+07  0.8614930E+04
  0.7000000E+00 -0.4508337E+06 -0.2790967E+04 -0.4359654E-02  0.4758835E-03  0.2381362E+07  0.1132716E+05
  0.7309524E+00 -0.4522628E+06 -0.3633467E+04  0.2797279E-01  0.9852409E-02  0.2385733E+07  0.1464697E+05
  0.7619048E+00 -0.4540812E+06 -0.4667625E+04 -0.2403259E-01 -0.2956390E-02  0.2390776E+07  0.1867749E+05
  0.7928572E+00 -0.4556913E+06 -0.5915075E+04 -0.3387176E-02  0.4215240E-02  0.2395583E+07  0.2349927E+05
  0.8238096E+00 -0.4573906E+06 -0.7406364E+04  0.1370645E-01  0.7953644E-02  0.2400508E+07  0.2920031E+05
  0.8547620E+00 -0.4588127E+06 -0.9165450E+04  0.1063950E-01  0.5739212E-02  0.2404316E+07  0.3583770E+05
  0.8857143E+00 -0.4605873E+06 -0.1123095E+05 -0.3996818E-02  0.3128052E-03  0.2408566E+07  0.4353081E+05
  0.9166667E+00 -0.4619983E+06 -0.1361527E+05 -0.2350408E-01 -0.3372192E-02  0.2412055E+07  0.5231023E+05
  0.9476191E+00 -0.4635253E+06 -0.1635548E+05 -0.1178684E-01  0.2441406E-02  0.2415725E+07  0.6226853E+05
  0.9785714E+00 -0.4648346E+06 -0.1947105E+05 -0.1284857E-01 -0.9994507E-03  0.2418336E+07  0.7342188E+05
  0.1009524E+01 -0.4663730E+06 -0.2300317E+05  0.2418374E-03  0.6435394E-02  0.2421032E+07  0.8586792E+05
  0.1040476E+01 -0.4677038E+06 -0.2694405E+05  0.4692863E-03  0.8460999E-02  0.2423260E+07  0.9956069E+05
  0.1071429E+01 -0.4682755E+06 -0.3128360E+05  0.7861328E-02  0.1011658E-01  0.2422853E+07  0.1143515E+06
  0.1102381E+01 -0.4690962E+06 -0.3608171E+05  0.1450607E-01  0.6507874E-02  0.2422903E+07  0.1304290E+06
  0.1133333E+01 -0.4693428E+06 -0.4130165E+05 -0.5385455E-03  0.1518250E-02  0.2420963E+07  0.1475520E+06
  0.1164286E+01 -0.4696908E+06 -0.4699698E+05 -0.1677531E-02 -0.2326965E-02  0.2418763E+07  0.1658645E+06
  0.1195238E+01 -0.4698783E+06 -0.5313644E+05 -0.2859655E-02 -0.2342224E-02  0.2416276E+07  0.1852766E+06
  0.1226190E+01 -0.4692070E+06 -0.5961534E+05 -0.6670017E-02 -0.1991272E-02  0.2410889E+07  0.2052278E+06
  0.1257143E+01 -0.4684197E+06 -0.6648852E+05  0.2534346E-01  0.7949829E-02  0.2405419E+07  0.2259990E+06
  0.1288095E+01 -0.4674366E+06 -0.7375631E+05 -0.1990130E-02 -0.1495361E-02  0.2398723E+07  0.2472904E+06
  0.1319048E+01 -0.4658537E+06 -0.8125133E+05 -0.5830289E-02  0.3280640E-02  0.2390238E+07  0.2685465E+06
  0.1350000E+01 -0.4640956E+06 -0.8903184E+05 -0.2803096E-02 -0.7171631E-03  0.2380828E+07  0.2899507E+06
  0.1380952E+01 -0.4620249E+06 -0.9704423E+05 -0.1591123E-01 -0.6576538E-02  0.2371233E+07  0.3115163E+06
  0.1411905E+01 -0.4587232E+06 -0.1048346E+06  0.9942657E-02  0.9613037E-03  0.2358235E+07  0.3316165E+06
  0.1442857E+01 -0.4556188E+06 -0.1129108E+06 -0.1920492E-01 -0.4272461E-02  0.2345967E+07  0.3516898E+06
  0.1473810E+01 -0.4522638E+06 -0.1209631E+06 -0.1068460E-01 -0.9918213E-03  0.2332834E+07  0.3707667E+06
  0.1504762E+01 -0.4481981E+06 -0.1287505E+06  0.5354097E-02  0.5142212E-02  0.2317923E+07  0.3879748E+06
  0.1535714E+01 -0.4441579E+06 -0.1365254E+06 -0.3592841E-01 -0.3051758E-04  0.2303524E+07  0.4045531E+06
  0.1566667E+01 -0.4399600E+06 -0.1440353E+06  0.4051695E-02 -0.6256104E-03  0.2288466E+07  0.4193114E+06
  0.1597619E+01 -0.4355700E+06 -0.1513574E+06 -0.1489949E-01 -0.7171631E-03  0.2274252E+07  0.4334869E+06
  0.1628572E+01 -0.4301934E+06 -0.1574488E+06  0.6446169E-02  0.1190186E-02  0.2257095E+07  0.4424217E+06
  0.1659524E+01 -0.4249736E+06 -0.1632803E+06  0.1324034E-01  0.2792358E-02  0.2241470E+07  0.4505806E+06
  0.1690476E+01 -0.4198936E+06 -0.1686287E+06 -0.2094107E-02 -0.4577637E-03  0.2226433E+07  0.4565843E+06
  0.1721429E+01 -0.4142966E+06 -0.1728605E+06 -0.1333150E-01 -0.8392334E-04  0.2210661E+07  0.4588493E+06
  0.1752381E+01 -0.4089287E+06 -0.1766566E+06 -0.1762390E-01 -0.8392334E-03  0.2196106E+07  0.4595879E+06
  0.1783333E+01 -0.4036116E+06 -0.1796194E+06 -0.9856893E-02 -0.1022339E-02  0.2181927E+07  0.4578766E+06
  0.1814286E+01 -0.3985849E+06 -0.1820581E+06 -0.7333831E-02 -0.6103516E-04  0.2168895E+07  0.4543685E+06
  0.1845238E+01 -0.3936636E+06 -0.1840003E+06 -0.2619708E-01 -0.5264282E-03  0.2157396E+07  0.4508900E+06
  0.1876190E+01 -0.3883776E+06 -0.1838113E+06  0.1886823E-02 -0.3433228E-03  0.2144882E+07  0.4398795E+06
  0.1907143E+01 -0.3835187E+06 -0.1833837E+06  0.4224456E-02 -0.5111694E-03  0.2134387E+07  0.4297822E+06
  0.1938095E+01 -0.3791474E+06 -0.1825498E+06 -0.1725780E-01 -0.4501343E-03  0.2125500E+07  0.4185202E+06
  0.1969048E+01 -0.3749967E+06 -0.1808618E+06 -0.8741238E-02 -0.1117706E-02  0.2117407E+07  0.4055527E+06
  0.2000000E+01 -0.3709130E+06 -0.1779488E+06 -0.5004883E-02 -0.2746582E-03  0.2109924E+07  0.3892268E+06
