VARIABLES="w (rad/s)"
"A   1   1" "B   1   1"
"A   1   2" "B   1   2"
"A   1   3" "B   1   3"
Zone t="Motion of body    1 in DoF   1",I=    64,F=POINT
  0.5000000E-01  0.1720848E+06  0.9937578E-02 -0.9574890E-02 -0.2593018E-04 -0.2848513E+06 -0.1490784E-01
  0.8095238E-01  0.1730785E+06  0.4363728E-01  0.6361568E-02  0.1500159E-04 -0.2865914E+06 -0.6583689E-01
  0.1119048E+00  0.1735380E+06  0.1229088E+00 -0.2457801E-01 -0.7365597E-04 -0.2872031E+06 -0.1849519E+00
  0.1428571E+00  0.1739254E+06  0.2771457E+00 -0.1028061E-01 -0.2975378E-04 -0.2876147E+06 -0.4168172E+00
  0.1738095E+00  0.1742570E+06  0.5515795E+00 -0.1931386E-02  0.8456199E-04 -0.2879440E+06 -0.8276217E+00
  0.2047619E+00  0.1746172E+06  0.1019942E+01  0.8793321E-02 -0.5047699E-04 -0.2882861E+06 -0.1529728E+01
  0.2357143E+00  0.1747605E+06  0.1797113E+01  0.4123572E-01  0.5790219E-03 -0.2886232E+06 -0.2694970E+01
  0.2666667E+00  0.1753689E+06  0.3072605E+01  0.7724761E-03  0.1988760E-03 -0.2890836E+06 -0.4595714E+01
  0.2976190E+00  0.1756374E+06  0.5159838E+01 -0.4511719E-02  0.1399536E-03 -0.2894899E+06 -0.7711630E+01
  0.3285715E+00  0.1760321E+06  0.8552173E+01 -0.3385460E-01 -0.4371405E-03 -0.2901422E+06 -0.1276873E+02
  0.3595238E+00  0.1766068E+06  0.1407723E+02 -0.2930597E-01 -0.3131330E-03 -0.2907106E+06 -0.2097052E+02
  0.3904762E+00  0.1772700E+06  0.2300942E+02 -0.1668604E-01 -0.3740825E-03 -0.2912687E+06 -0.3418778E+02
  0.4214286E+00  0.1778647E+06  0.3712491E+02 -0.1086219E-03 -0.3518909E-03 -0.2921726E+06 -0.5507093E+02
  0.4523810E+00  0.1786352E+06  0.5941034E+02 -0.2880538E-01 -0.2117932E-02 -0.2930248E+06 -0.8791325E+02
  0.4833333E+00  0.1794855E+06  0.9275880E+02  0.8965854E-02  0.4127771E-03 -0.2940147E+06 -0.1368996E+03
  0.5142857E+00  0.1804125E+06  0.1425454E+03 -0.1097785E-01 -0.1032650E-02 -0.2950462E+06 -0.2097730E+03
  0.5452381E+00  0.1814825E+06  0.2139895E+03  0.1707119E-01  0.3940105E-02 -0.2965023E+06 -0.3141798E+03
  0.5761905E+00  0.1824359E+06  0.3135024E+03 -0.2595255E-02 -0.1612425E-02 -0.2977505E+06 -0.4590894E+03
  0.6071429E+00  0.1837684E+06  0.4516628E+03 -0.1495361E-01 -0.4215002E-02 -0.2991832E+06 -0.6589976E+03
  0.6380953E+00  0.1851649E+06  0.6365939E+03 -0.7652169E-03 -0.3210306E-02 -0.3007970E+06 -0.9255172E+03
  0.6690477E+00  0.1865268E+06  0.8819792E+03 -0.3854337E-01 -0.3873587E-02 -0.3026654E+06 -0.1278711E+04
  0.7000000E+00  0.1879309E+06  0.1203840E+04  0.6757463E-02  0.1047850E-02 -0.3043896E+06 -0.1739391E+04
  0.7309524E+00  0.1897308E+06  0.1620445E+04 -0.1636617E-01 -0.7213593E-02 -0.3065541E+06 -0.2332292E+04
  0.7619048E+00  0.1915078E+06  0.2152857E+04  0.1241684E-01  0.3824711E-02 -0.3086831E+06 -0.3086334E+04
  0.7928572E+00  0.1934504E+06  0.2828115E+04  0.2255551E-01  0.1266956E-02 -0.3109268E+06 -0.4036761E+04
  0.8238096E+00  0.1956662E+06  0.3677684E+04  0.1407689E-01  0.4896164E-02 -0.3135213E+06 -0.5225748E+04
  0.8547620E+00  0.1977051E+06  0.4729130E+04 -0.3184709E-01 -0.1997375E-01 -0.3161257E+06 -0.6694036E+04
  0.8857143E+00  0.1998828E+06  0.6026011E+04  0.3893452E-02  0.2441406E-03 -0.3188798E+06 -0.8495291E+04
  0.9166667E+00  0.2022765E+06  0.7613083E+04  0.1015403E-01  0.4407883E-02 -0.3216012E+06 -0.1067912E+05
  0.9476191E+00  0.2050380E+06  0.9548756E+04  0.7729075E-02  0.7085800E-02 -0.3246896E+06 -0.1332242E+05
  0.9785714E+00  0.2076682E+06  0.1187752E+05 -0.1344110E-01 -0.1480484E-01 -0.3277655E+06 -0.1648882E+05
  0.1009524E+01  0.2102302E+06  0.1465636E+05  0.2569523E-01  0.1776886E-01 -0.3306003E+06 -0.2023667E+05
  0.1040476E+01  0.2129588E+06  0.1796842E+05  0.2381628E-01  0.7598877E-02 -0.3337496E+06 -0.2468047E+05
  0.1071429E+01  0.2156064E+06  0.2186384E+05  0.1031087E-01  0.5680084E-02 -0.3366932E+06 -0.2986801E+05
  0.1102381E+01  0.2183338E+06  0.2643295E+05 -0.6422533E-02 -0.1383209E-01 -0.3397218E+06 -0.3590986E+05
  0.1133333E+01  0.2208135E+06  0.3171962E+05 -0.1626407E-01 -0.1109314E-01 -0.3423124E+06 -0.4284309E+05
  0.1164286E+01  0.2230872E+06  0.3779861E+05 -0.9803070E-02  0.1480103E-02 -0.3444916E+06 -0.5073503E+05
  0.1195238E+01  0.2253477E+06  0.4477468E+05 -0.2961786E-02 -0.3814697E-03 -0.3466716E+06 -0.5972955E+05
  0.1226190E+01  0.2271278E+06  0.5263873E+05  0.3484337E-03  0.3454590E-01 -0.3480246E+06 -0.6974671E+05
  0.1257143E+01  0.2283184E+06  0.6133760E+05 -0.8787675E-02 -0.2066040E-01 -0.3486003E+06 -0.8073000E+05
  0.1288095E+01  0.2295825E+06  0.7123069E+05 -0.5591317E-02  0.1170349E-01 -0.3492239E+06 -0.9309571E+05
  0.1319048E+01  0.2297743E+06  0.8186570E+05 -0.2452423E-02  0.1708984E-02 -0.3485476E+06 -0.1062745E+06
  0.1350000E+01  0.2292487E+06  0.9334991E+05 -0.3662109E-02 -0.3997803E-02 -0.3470212E+06 -0.1203752E+06
  0.1380952E+01  0.2280772E+06  0.1056108E+06  0.4419787E-02  0.1342773E-02 -0.3446228E+06 -0.1352413E+06
  0.1411905E+01  0.2244326E+06  0.1167070E+06 -0.8861934E-02 -0.5645752E-02 -0.3396706E+06 -0.1486454E+06
  0.1442857E+01  0.2216473E+06  0.1297124E+06  0.2580397E-02  0.1861572E-02 -0.3350362E+06 -0.1639137E+06
  0.1473810E+01  0.2180831E+06  0.1429539E+06 -0.1366635E-01 -0.1193237E-01 -0.3295257E+06 -0.1792156E+06
  0.1504762E+01  0.2135730E+06  0.1561619E+06 -0.5678587E-03  0.5889893E-02 -0.3229678E+06 -0.1942307E+06
  0.1535714E+01  0.2081243E+06  0.1689372E+06 -0.6756450E-03 -0.1330566E-01 -0.3152639E+06 -0.2083978E+06
  0.1566667E+01  0.2020669E+06  0.1812980E+06 -0.1831055E-02  0.1452637E-01 -0.3069938E+06 -0.2218069E+06
  0.1597619E+01  0.1954387E+06  0.1929257E+06  0.1910191E-03 -0.1049805E-01 -0.2981042E+06 -0.2340315E+06
  0.1628572E+01  0.1882799E+06  0.2034587E+06  0.4010117E-02  0.4882812E-03 -0.2886412E+06 -0.2446093E+06
  0.1659524E+01  0.1808862E+06  0.2129589E+06 -0.1037160E-01 -0.1074219E-01 -0.2790978E+06 -0.2537635E+06
  0.1690476E+01  0.1733613E+06  0.2213213E+06  0.1133706E-01  0.1196289E-01 -0.2696309E+06 -0.2614440E+06
  0.1721429E+01  0.1656492E+06  0.2283106E+06 -0.1205508E-02 -0.1940918E-01 -0.2601460E+06 -0.2673611E+06
  0.1752381E+01  0.1579202E+06  0.2337858E+06  0.8010865E-03  0.2508545E-01 -0.2507056E+06 -0.2712172E+06
  0.1783333E+01  0.1504052E+06  0.2380263E+06  0.2447111E-02  0.6530762E-02 -0.2416573E+06 -0.2735008E+06
  0.1814286E+01  0.1432643E+06  0.2412575E+06  0.3734198E-02 -0.1110840E-01 -0.2332719E+06 -0.2746464E+06
  0.1845238E+01  0.1364571E+06  0.2433231E+06  0.1076660E-01 -0.2276611E-01 -0.2253567E+06 -0.2742925E+06
  0.1876190E+01  0.1299916E+06  0.2442224E+06 -0.1691634E-02 -0.2679443E-01 -0.2178892E+06 -0.2724260E+06
  0.1907143E+01  0.1239866E+06  0.2443229E+06 -0.2144231E-02 -0.1812744E-01 -0.2111076E+06 -0.2697004E+06
  0.1938095E+01  0.1184742E+06  0.2437520E+06 -0.9290241E-03 -0.8178711E-02 -0.2050253E+06 -0.2662870E+06
  0.1969048E+01  0.1133021E+06  0.2424811E+06  0.2882749E-02  0.8239746E-02 -0.1995247E+06 -0.2622658E+06
  0.2000000E+01  0.1085044E+06  0.2404917E+06  0.1937866E-02  0.9521484E-02 -0.1945161E+06 -0.2574292E+06
Zone t="Motion of body    1 in DoF   2",I=    64,F=POINT
  0.5000000E-01 -0.1716614E-02  0.1204014E-04  0.4484481E+05  0.1186275E+03  0.4396439E-02  0.4708767E-05
  0.8095238E-01  0.1121521E-01  0.5722046E-05  0.4436976E+05  0.1968549E+03 -0.2274850E-01 -0.7629395E-05
  0.1119048E+00  0.4704252E-02 -0.3957748E-04  0.4411536E+05  0.2822417E+03 -0.1193107E-02  0.2359152E-03
  0.1428571E+00 -0.1260376E-01  0.4720688E-04  0.4400178E+05  0.3781327E+03  0.1359177E-01 -0.2202988E-03
  0.1738095E+00 -0.3511612E-03 -0.4768372E-04  0.4400268E+05  0.4888044E+03  0.9163111E-02  0.1479387E-03
  0.2047619E+00  0.7079368E-03 -0.0000000E+00  0.4410054E+05  0.6195318E+03  0.1380477E-01 -0.4615784E-03
  0.2357143E+00 -0.6667628E-02  0.8869171E-04  0.4426395E+05  0.7778366E+03  0.1072970E-01 -0.6351471E-03
  0.2666667E+00  0.2620697E-01 -0.4901886E-03  0.4450320E+05  0.9703519E+03  0.1573563E-01  0.3385544E-04
  0.2976190E+00 -0.2460937E-02  0.1468658E-03  0.4476727E+05  0.1211088E+04  0.1127930E-02 -0.4038811E-03
  0.3285715E+00 -0.3529424E-02 -0.3051758E-03  0.4509176E+05  0.1508483E+04 -0.2498461E-01 -0.2908707E-03
  0.3595238E+00  0.1532144E-01 -0.6484985E-04  0.4539400E+05  0.1879745E+04 -0.6270756E-02 -0.3719330E-04
  0.3904762E+00 -0.3126191E-03 -0.1029968E-03  0.4571434E+05  0.2339082E+04 -0.2058401E-01  0.7057190E-04
  0.4214286E+00 -0.3331071E-02  0.7019043E-03  0.4592076E+05  0.2883656E+04 -0.1493551E-01 -0.1659393E-03
  0.4523810E+00 -0.3372995E-03 -0.8201599E-03  0.4608500E+05  0.3542117E+04 -0.1075985E-01 -0.5712509E-03
  0.4833333E+00  0.8839574E-03  0.7476807E-03  0.4609357E+05  0.4265261E+04 -0.2429304E-01 -0.4005432E-03
  0.5142857E+00  0.3560384E-03  0.1831055E-03  0.4598999E+05  0.5086232E+04  0.1237234E-01  0.3299713E-03
  0.5452381E+00 -0.4029919E-02  0.8850098E-03  0.4580369E+05  0.5965332E+04 -0.2311607E-01  0.1371384E-02
  0.5761905E+00 -0.5667190E-02  0.2319336E-02  0.4549560E+05  0.6889469E+04 -0.5720154E-02 -0.4053116E-02
  0.6071429E+00 -0.1311897E-01 -0.3051758E-03  0.4508208E+05  0.7878455E+04  0.1244040E-01  0.4104614E-02
  0.6380953E+00  0.1319999E-01 -0.4821777E-02  0.4463622E+05  0.8882442E+04 -0.1190869E-01 -0.2956390E-02
  0.6690477E+00  0.3512236E-02 -0.9613037E-03  0.4411712E+05  0.9921932E+04 -0.9453390E-02  0.4997253E-03
  0.7000000E+00  0.1107352E-01 -0.3662109E-03  0.4352129E+05  0.1100064E+05 -0.8108956E-02 -0.4844666E-03
  0.7309524E+00  0.1837019E-02 -0.4074097E-02  0.4290314E+05  0.1209062E+05 -0.8861529E-02  0.2563477E-02
  0.7619048E+00 -0.6208419E-02  0.3646851E-02  0.4222328E+05  0.1319809E+05  0.2775764E-01  0.5710602E-02
  0.7928572E+00 -0.1539625E-02  0.9460449E-03  0.4149233E+05  0.1431857E+05 -0.2078494E-02 -0.1013565E-01
  0.8238096E+00 -0.1189127E-01 -0.5187988E-03  0.4073695E+05  0.1544306E+05  0.5454796E-02 -0.6317139E-02
  0.8547620E+00  0.6462246E-02  0.2838135E-02  0.3995231E+05  0.1656555E+05  0.1621809E-01  0.5294800E-02
  0.8857143E+00 -0.1219719E-01 -0.1403809E-02  0.3914286E+05  0.1767957E+05  0.1678836E-01  0.4562378E-02
  0.9166667E+00  0.2896396E-02  0.7019043E-03  0.3831023E+05  0.1878062E+05 -0.1526434E-01 -0.4585266E-02
  0.9476191E+00 -0.8115528E-02  0.1068115E-02  0.3745528E+05  0.1986235E+05  0.1244703E-01 -0.4173279E-02
  0.9785714E+00 -0.4989735E-02 -0.9460449E-03  0.3658195E+05  0.2092055E+05  0.7476807E-02  0.1007080E-01
  0.1009524E+01  0.5683179E-02  0.1434326E-02  0.3569795E+05  0.2195078E+05 -0.1528866E-01  0.3280640E-03
  0.1040476E+01  0.1378529E-02 -0.5981445E-02  0.3481629E+05  0.2294772E+05 -0.9767022E-02 -0.3280640E-03
  0.1071429E+01  0.2990723E-02  0.1251221E-02  0.3394009E+05  0.2390965E+05 -0.1173503E-01  0.6584167E-02
  0.1102381E+01  0.7003883E-02  0.6713867E-03  0.3306998E+05  0.2483101E+05  0.1842326E-01  0.3433228E-02
  0.1133333E+01 -0.3823673E-02  0.4028320E-02  0.3219860E+05  0.2571453E+05 -0.2293531E-01  0.1358032E-02
  0.1164286E+01 -0.7181928E-02 -0.1220703E-01  0.3134099E+05  0.2655668E+05  0.7830661E-02  0.9002686E-02
  0.1195238E+01 -0.4774603E-02  0.6347656E-02  0.3049574E+05  0.2735147E+05 -0.4915032E-03  0.3555298E-02
  0.1226190E+01 -0.3235456E-03  0.2014160E-02  0.2966715E+05  0.2810603E+05 -0.7024673E-02 -0.6668091E-02
  0.1257143E+01 -0.9831515E-02  0.7934570E-03  0.2885507E+05  0.2882822E+05  0.1227726E-01  0.1118469E-01
  0.1288095E+01 -0.2061206E-02  0.4455566E-02  0.2806692E+05  0.2946857E+05 -0.1130109E-01  0.1693726E-01
  0.1319048E+01  0.8676026E-02 -0.4211426E-02  0.2729265E+05  0.3008678E+05  0.4320661E-02  0.8239746E-03
  0.1350000E+01  0.4295066E-02 -0.2197266E-02  0.2654810E+05  0.3065881E+05  0.1106545E-01  0.7308960E-02
  0.1380952E+01 -0.1215442E-02  0.3051758E-02  0.2582635E+05  0.3118137E+05 -0.1199420E-01 -0.1055908E-01
  0.1411905E+01 -0.9445525E-02  0.2014160E-02  0.2510491E+05  0.3173307E+05  0.4830834E-02  0.8926392E-02
  0.1442857E+01 -0.9983176E-02 -0.1220703E-03  0.2442675E+05  0.3218474E+05  0.4071529E-02 -0.4364014E-02
  0.1473810E+01  0.2836803E-02 -0.4882812E-02  0.2377495E+05  0.3259471E+05  0.4948876E-02 -0.3097534E-02
  0.1504762E+01 -0.6834585E-02 -0.2868652E-02  0.2314296E+05  0.3297978E+05  0.7858759E-03  0.3967285E-02
  0.1535714E+01 -0.5365416E-03 -0.1220703E-02  0.2252310E+05  0.3332512E+05 -0.1155055E-01  0.1908875E-01
  0.1566667E+01 -0.3623151E-02  0.1892090E-02  0.2193320E+05  0.3363390E+05 -0.2727103E-03  0.1400757E-01
  0.1597619E+01 -0.7010402E-02 -0.6103516E-03  0.2136022E+05  0.3390794E+05 -0.2105986E-02 -0.2287292E-01
  0.1628572E+01 -0.2248663E-02 -0.7141113E-02  0.2080916E+05  0.3415960E+05  0.1611542E-02 -0.9460449E-02
  0.1659524E+01 -0.2758404E-02 -0.5310059E-02  0.2028112E+05  0.3437305E+05 -0.5052476E-02  0.7781982E-02
  0.1690476E+01 -0.3339741E-03 -0.3662109E-03  0.1977326E+05  0.3455147E+05 -0.8432845E-02 -0.1312256E-02
  0.1721429E+01 -0.4786575E-03 -0.1245117E-01  0.1927805E+05  0.3471564E+05 -0.1201076E-02 -0.3173828E-02
  0.1752381E+01  0.1227752E-02  0.2197266E-02  0.1878707E+05  0.3484591E+05  0.9121066E-02 -0.1509094E-01
  0.1783333E+01 -0.4945559E-02  0.7141113E-02  0.1831227E+05  0.3495119E+05 -0.2059937E-02  0.3311157E-02
  0.1814286E+01 -0.6627361E-02  0.5615234E-02  0.1785696E+05  0.3502329E+05  0.7912043E-02  0.1129150E-01
  0.1845238E+01 -0.5722341E-02 -0.4943848E-02  0.1740774E+05  0.3505723E+05  0.1906069E-02 -0.1907349E-02
  0.1876190E+01  0.1451715E-02  0.2014160E-02  0.1696687E+05  0.3506654E+05  0.4776021E-02  0.2899170E-02
  0.1907143E+01  0.1440155E-03  0.6713867E-03  0.1653861E+05  0.3503072E+05  0.1869202E-02 -0.1129150E-02
  0.1938095E+01 -0.3657048E-02 -0.3967285E-02  0.1612460E+05  0.3493574E+05 -0.9155414E-02  0.6011963E-02
  0.1969048E+01 -0.1735849E-02 -0.1525879E-02  0.1572586E+05  0.3481038E+05  0.3680929E-04 -0.9002686E-03
  0.2000000E+01  0.1031876E-02 -0.4943848E-02  0.1533214E+05  0.3464750E+05  0.3735065E-02 -0.5523682E-02
Zone t="Motion of body    1 in DoF   3",I=    64,F=POINT
  0.5000000E-01 -0.2841284E+06 -0.1474184E-01 -0.1615524E-01 -0.9444331E-04  0.6269334E+06  0.2203481E-01
  0.8095238E-01 -0.2860919E+06 -0.6498281E-01 -0.3180784E-01 -0.1436459E-03  0.6299566E+06  0.9842181E-01
  0.1119048E+00 -0.2868483E+06 -0.1829891E+00 -0.2282244E-01 -0.2010584E-03  0.6306072E+06  0.2751489E+00
  0.1428571E+00 -0.2873148E+06 -0.4112964E+00 -0.3417969E-02  0.1181061E-03  0.6310561E+06  0.6195635E+00
  0.1738095E+00 -0.2876800E+06 -0.8166777E+00 -0.4123949E-01 -0.3749036E-03  0.6314155E+06  0.1226751E+01
  0.2047619E+00 -0.2880738E+06 -0.1509986E+01  0.2803802E-01  0.4252440E-03  0.6318099E+06  0.2265934E+01
  0.2357143E+00 -0.2883294E+06 -0.2659109E+01 -0.4903620E-02 -0.4558917E-04  0.6322268E+06  0.3987062E+01
  0.2666667E+00 -0.2888838E+06 -0.4539919E+01  0.6752014E-02 -0.2666796E-03  0.6328006E+06  0.6792404E+01
  0.2976190E+00 -0.2892338E+06 -0.7613649E+01  0.5849854E-01  0.9384640E-03  0.6332750E+06  0.1138031E+02
  0.3285715E+00 -0.2898335E+06 -0.1260034E+02  0.1973691E-01 -0.1147687E-03  0.6340289E+06  0.1881096E+02
  0.3595238E+00 -0.2904168E+06 -0.2070290E+02  0.2238798E-01  0.1396220E-02  0.6347476E+06  0.3084301E+02
  0.3904762E+00 -0.2910465E+06 -0.3376919E+02  0.2325104E-02  0.3128648E-03  0.6353908E+06  0.5016985E+02
  0.4214286E+00 -0.2918524E+06 -0.5436956E+02  0.1091650E-01  0.2340496E-02  0.6365338E+06  0.8064208E+02
  0.4523810E+00 -0.2927159E+06 -0.8680602E+02  0.1369436E-01  0.2253637E-02  0.6375206E+06  0.1284392E+03
  0.4833333E+00 -0.2936978E+06 -0.1352019E+03 -0.7955616E-02 -0.1223415E-02  0.6387524E+06  0.1995345E+03
  0.5142857E+00 -0.2947231E+06 -0.2072141E+03 -0.4865859E-02 -0.1413107E-02  0.6400315E+06  0.3049332E+03
  0.5452381E+00 -0.2961468E+06 -0.3101917E+03 -0.3545770E-01 -0.5108774E-02  0.6417995E+06  0.4554114E+03
  0.5761905E+00 -0.2973349E+06 -0.4531422E+03  0.4014701E-01  0.5548954E-02  0.6433701E+06  0.6635781E+03
  0.6071429E+00 -0.2988101E+06 -0.6508320E+03  0.6069407E-01  0.9807944E-02  0.6450762E+06  0.9496077E+03
  0.6380953E+00 -0.3004349E+06 -0.9142958E+03  0.2558694E-01  0.8394957E-02  0.6470158E+06  0.1329280E+04
  0.6690477E+00 -0.3022275E+06 -0.1262303E+04 -0.7526221E-02  0.3716946E-02  0.6494016E+06  0.1830102E+04
  0.7000000E+00 -0.3038757E+06 -0.1716796E+04 -0.1320975E-01 -0.3598690E-02  0.6514524E+06  0.2480568E+04
  0.7309524E+00 -0.3060623E+06 -0.2302235E+04  0.2507113E-01  0.2413750E-02  0.6540814E+06  0.3313601E+04
  0.7619048E+00 -0.3081557E+06 -0.3046588E+04 -0.2289104E-01  0.4062653E-03  0.6566964E+06  0.4367552E+04
  0.7928572E+00 -0.3103771E+06 -0.3985860E+04 -0.1616607E-02 -0.5149841E-04  0.6594469E+06  0.5689349E+04
  0.8238096E+00 -0.3130098E+06 -0.5160694E+04 -0.3296957E-02 -0.8973122E-02  0.6624482E+06  0.7332919E+04
  0.8547620E+00 -0.3154912E+06 -0.6606413E+04  0.5537537E-01  0.2098846E-01  0.6655797E+06  0.9351362E+04
  0.8857143E+00 -0.3181323E+06 -0.8379354E+04 -0.5147626E-01 -0.2260971E-01  0.6689036E+06  0.1181280E+05
  0.9166667E+00 -0.3208461E+06 -0.1053643E+05  0.3528942E-02 -0.2269745E-03  0.6721096E+06  0.1477986E+05
  0.9476191E+00 -0.3239962E+06 -0.1314977E+05 -0.5281534E-01 -0.2408981E-01  0.6755911E+06  0.1834652E+05
  0.9785714E+00 -0.3270051E+06 -0.1627279E+05 -0.7422232E-02 -0.1895142E-01  0.6791795E+06  0.2259018E+05
  0.1009524E+01 -0.3297932E+06 -0.1997363E+05 -0.2590683E-01 -0.8319855E-02  0.6823352E+06  0.2757859E+05
  0.1040476E+01 -0.3328830E+06 -0.2435280E+05  0.3519647E-03  0.1106262E-01  0.6858546E+06  0.3344864E+05
  0.1071429E+01 -0.3357518E+06 -0.2946476E+05  0.1179199E-01  0.8453369E-02  0.6890229E+06  0.4025167E+05
  0.1102381E+01 -0.3387143E+06 -0.3541295E+05  0.1882466E-02 -0.9742737E-02  0.6921437E+06  0.4810862E+05
  0.1133333E+01 -0.3412523E+06 -0.4224342E+05  0.1559089E-01  0.7530212E-02  0.6947118E+06  0.5705712E+05
  0.1164286E+01 -0.3434153E+06 -0.5003484E+05  0.9829281E-02 -0.2441406E-03  0.6967236E+06  0.6715732E+05
  0.1195238E+01 -0.3455664E+06 -0.5889473E+05 -0.4738857E-01 -0.4243469E-01  0.6986525E+06  0.7856417E+05
  0.1226190E+01 -0.3469227E+06 -0.6879271E+05 -0.6898987E-01 -0.5920410E-01  0.6994768E+06  0.9114745E+05
  0.1257143E+01 -0.3475200E+06 -0.7963007E+05 -0.1636158E-01  0.1593018E-01  0.6991539E+06  0.1048067E+06
  0.1288095E+01 -0.3481320E+06 -0.9182472E+05  0.1426260E-01  0.1547241E-01  0.6987779E+06  0.1200042E+06
  0.1319048E+01 -0.3474235E+06 -0.1047858E+06  0.2207181E-01  0.1327515E-01  0.6967874E+06  0.1360171E+06
  0.1350000E+01 -0.3458319E+06 -0.1186287E+06  0.2893518E-02 -0.2905273E-01  0.6938411E+06  0.1529697E+06
  0.1380952E+01 -0.3434112E+06 -0.1332218E+06 -0.2165696E-01 -0.3198242E-01  0.6897313E+06  0.1705930E+06
  0.1411905E+01 -0.3393630E+06 -0.1470120E+06 -0.1007234E-01 -0.2508545E-01  0.6837961E+06  0.1872310E+06
  0.1442857E+01 -0.3348402E+06 -0.1621576E+06  0.3680239E-02 -0.1330566E-01  0.6768855E+06  0.2049006E+06
  0.1473810E+01 -0.3294270E+06 -0.1773130E+06  0.1805615E-01 -0.4028320E-02  0.6689506E+06  0.2222667E+06
  0.1504762E+01 -0.3229279E+06 -0.1921416E+06 -0.2916360E-01 -0.5706787E-01  0.6599041E+06  0.2389454E+06
  0.1535714E+01 -0.3153140E+06 -0.2061713E+06  0.1160520E-01  0.4681396E-01  0.6495910E+06  0.2542994E+06
  0.1566667E+01 -0.3071088E+06 -0.2194376E+06 -0.2606331E-01 -0.1708984E-01  0.6388147E+06  0.2684537E+06
  0.1597619E+01 -0.2983174E+06 -0.2315243E+06 -0.9856586E-02 -0.1525879E-02  0.6273035E+06  0.2808027E+06
  0.1628572E+01 -0.2889887E+06 -0.2420472E+06 -0.2342358E-02 -0.8239746E-02  0.6153149E+06  0.2909410E+06
  0.1659524E+01 -0.2795600E+06 -0.2510860E+06 -0.5406471E-02  0.1184082E-01  0.6033696E+06  0.2991195E+06
  0.1690476E+01 -0.2701789E+06 -0.2585617E+06 -0.8051482E-02 -0.1440430E-01  0.5916911E+06  0.3053421E+06
  0.1721429E+01 -0.2607773E+06 -0.2643184E+06  0.3545611E-02 -0.2941895E-01  0.5803924E+06  0.3094533E+06
  0.1752381E+01 -0.2514383E+06 -0.2681066E+06  0.1239943E-01  0.1287842E-01  0.5691799E+06  0.3109425E+06
  0.1783333E+01 -0.2425101E+06 -0.2704285E+06 -0.1293717E-01 -0.4846191E-01  0.5586920E+06  0.3106221E+06
  0.1814286E+01 -0.2342370E+06 -0.2715601E+06 -0.1398642E-01 -0.1623535E-01  0.5492152E+06  0.3090104E+06
  0.1845238E+01 -0.2264324E+06 -0.2712423E+06 -0.4126370E-02 -0.5859375E-02  0.5403512E+06  0.3055803E+06
  0.1876190E+01 -0.2190704E+06 -0.2695524E+06  0.9279590E-02  0.1550293E-01  0.5321634E+06  0.3004818E+06
  0.1907143E+01 -0.2123742E+06 -0.2669322E+06 -0.8120877E-02 -0.2868652E-01  0.5248558E+06  0.2944323E+06
  0.1938095E+01 -0.2063707E+06 -0.2634957E+06  0.1167185E-02  0.7934570E-02  0.5183487E+06  0.2875359E+06
  0.1969048E+01 -0.2009334E+06 -0.2594368E+06 -0.4995091E-02  0.7202148E-02  0.5127940E+06  0.2802495E+06
  0.2000000E+01 -0.1959787E+06 -0.2546488E+06 -0.4881859E-02  0.1715088E-01  0.5079181E+06  0.2722570E+06
