VARIABLES="w (rad/s)"
"abs(F   1   1)" "angle(F   1   1)"
"abs(F   1   2)" "angle(F   1   2)"
"abs(F   1   3)" "angle(F   1   3)"
Zone t="Diffraction force - beta =   0.000 deg",I=    64,F=POINT
  0.5000000E-01  0.3774612E+04 -0.1570795E+01  0.5826109E+06 -0.3900335E-04  0.4099969E+03  0.1570854E+01
  0.8095238E-01  0.6151111E+04 -0.1570791E+01  0.5812297E+06 -0.1048648E-03  0.6788387E+03  0.1570810E+01
  0.1119048E+00  0.8574968E+04 -0.1570792E+01  0.5792051E+06 -0.2080616E-03  0.9385603E+03  0.1570780E+01
  0.1428571E+00  0.1111633E+05 -0.1570791E+01  0.5765374E+06 -0.3563349E-03  0.1251962E+04  0.1570831E+01
  0.1738095E+00  0.1374568E+05 -0.1570785E+01  0.5732248E+06 -0.5613549E-03  0.1570849E+04  0.1570796E+01
  0.2047619E+00  0.1654573E+05 -0.1570777E+01  0.5692561E+06 -0.8399814E-03  0.1935721E+04  0.1570801E+01
  0.2357143E+00  0.1951624E+05 -0.1570765E+01  0.5646288E+06 -0.1217049E-02  0.2333526E+04  0.1570855E+01
  0.2666667E+00  0.2270788E+05 -0.1570751E+01  0.5593508E+06 -0.1722296E-02  0.2779635E+04  0.1570850E+01
  0.2976190E+00  0.2620736E+05 -0.1570727E+01  0.5533969E+06 -0.2406896E-02  0.3310062E+04  0.1570855E+01
  0.3285715E+00  0.3004842E+05 -0.1570693E+01  0.5468052E+06 -0.3321347E-02  0.3904806E+04  0.1570898E+01
  0.3595238E+00  0.3423184E+05 -0.1570640E+01  0.5395542E+06 -0.4546912E-02  0.4564482E+04  0.1570955E+01
  0.3904762E+00  0.3895591E+05 -0.1570563E+01  0.5316851E+06 -0.6173327E-02  0.5385226E+04  0.1571030E+01
  0.4214286E+00  0.4417802E+05 -0.1570447E+01  0.5232665E+06 -0.8252951E-02  0.6345638E+04  0.1571140E+01
  0.4523810E+00  0.4988470E+05 -0.1570277E+01  0.5142850E+06 -0.1094401E-01  0.7368211E+04  0.1571318E+01
  0.4833333E+00  0.5618673E+05 -0.1570039E+01  0.5049000E+06 -0.1416050E-01  0.8624056E+04  0.1571551E+01
  0.5142857E+00  0.6310293E+05 -0.1569707E+01  0.4950406E+06 -0.1808542E-01  0.1008261E+05  0.1571885E+01
  0.5452381E+00  0.7056971E+05 -0.1569261E+01  0.4849323E+06 -0.2265227E-01  0.1170550E+05  0.1572337E+01
  0.5761905E+00  0.7838827E+05 -0.1568676E+01  0.4744486E+06 -0.2785561E-01  0.1344456E+05  0.1572920E+01
  0.6071429E+00  0.8668145E+05 -0.1567915E+01  0.4637195E+06 -0.3385513E-01  0.1536766E+05  0.1573689E+01
  0.6380953E+00  0.9567687E+05 -0.1566956E+01  0.4527784E+06 -0.4046991E-01  0.1773524E+05  0.1574651E+01
  0.6690477E+00  0.1049588E+06 -0.1565753E+01  0.4415834E+06 -0.4784947E-01  0.2021326E+05  0.1575859E+01
  0.7000000E+00  0.1145608E+06 -0.1564259E+01  0.4302748E+06 -0.5608040E-01  0.2282236E+05  0.1577365E+01
  0.7309524E+00  0.1246224E+06 -0.1562440E+01  0.4188944E+06 -0.6506864E-01  0.2573745E+05  0.1579200E+01
  0.7619048E+00  0.1349466E+06 -0.1560237E+01  0.4073651E+06 -0.7489140E-01  0.2887209E+05  0.1581420E+01
  0.7928572E+00  0.1458751E+06 -0.1557594E+01  0.3957053E+06 -0.8556608E-01  0.3246987E+05  0.1584071E+01
  0.8238096E+00  0.1571993E+06 -0.1554454E+01  0.3842681E+06 -0.9716181E-01  0.3619804E+05  0.1587242E+01
  0.8547620E+00  0.1688152E+06 -0.1550759E+01  0.3727642E+06 -0.1096525E+00  0.4038105E+05  0.1590982E+01
  0.8857143E+00  0.1805573E+06 -0.1546443E+01  0.3612650E+06 -0.1230176E+00  0.4465907E+05  0.1595368E+01
  0.9166667E+00  0.1925255E+06 -0.1541444E+01  0.3496882E+06 -0.1372575E+00  0.4922385E+05  0.1600449E+01
  0.9476191E+00  0.2048230E+06 -0.1535718E+01  0.3385116E+06 -0.1524864E+00  0.5393550E+05  0.1606262E+01
  0.9785714E+00  0.2176133E+06 -0.1529211E+01  0.3273978E+06 -0.1686599E+00  0.5938810E+05  0.1612793E+01
  0.1009524E+01  0.2305313E+06 -0.1521850E+01  0.3163698E+06 -0.1857506E+00  0.6511035E+05  0.1620249E+01
  0.1040476E+01  0.2434305E+06 -0.1513574E+01  0.3054164E+06 -0.2037392E+00  0.7097779E+05  0.1628690E+01
  0.1071429E+01  0.2563310E+06 -0.1504368E+01  0.2947020E+06 -0.2227371E+00  0.7707750E+05  0.1638122E+01
  0.1102381E+01  0.2691579E+06 -0.1494229E+01  0.2843467E+06 -0.2427109E+00  0.8314959E+05  0.1648554E+01
  0.1133333E+01  0.2817835E+06 -0.1483133E+01  0.2741280E+06 -0.2637374E+00  0.8978266E+05  0.1659977E+01
  0.1164286E+01  0.2939641E+06 -0.1471128E+01  0.2640532E+06 -0.2857232E+00  0.9635833E+05  0.1672387E+01
  0.1195238E+01  0.3056420E+06 -0.1458266E+01  0.2541242E+06 -0.3086867E+00  0.1029238E+06  0.1685644E+01
  0.1226190E+01  0.3170370E+06 -0.1444714E+01  0.2443840E+06 -0.3327380E+00  0.1097871E+06  0.1699349E+01
  0.1257143E+01  0.3279218E+06 -0.1430528E+01  0.2351859E+06 -0.3580286E+00  0.1163681E+06  0.1713729E+01
  0.1288095E+01  0.3382697E+06 -0.1415859E+01  0.2262145E+06 -0.3839860E+00  0.1232579E+06  0.1728991E+01
  0.1319048E+01  0.3473861E+06 -0.1400798E+01  0.2174353E+06 -0.4113146E+00  0.1299206E+06  0.1744705E+01
  0.1350000E+01  0.3553690E+06 -0.1385626E+01  0.2088571E+06 -0.4397210E+00  0.1362368E+06  0.1760600E+01
  0.1380952E+01  0.3620908E+06 -0.1370534E+01  0.2004512E+06 -0.4692608E+00  0.1421230E+06  0.1776569E+01
  0.1411905E+01  0.3672472E+06 -0.1355805E+01  0.1923322E+06 -0.4997631E+00  0.1475667E+06  0.1791893E+01
  0.1442857E+01  0.3717566E+06 -0.1342084E+01  0.1848153E+06 -0.5313272E+00  0.1524392E+06  0.1806004E+01
  0.1473810E+01  0.3748790E+06 -0.1329258E+01  0.1775934E+06 -0.5639831E+00  0.1567263E+06  0.1819636E+01
  0.1504762E+01  0.3767227E+06 -0.1317593E+01  0.1706011E+06 -0.5980781E+00  0.1610682E+06  0.1832477E+01
  0.1535714E+01  0.3770068E+06 -0.1307469E+01  0.1638756E+06 -0.6331136E+00  0.1645121E+06  0.1843772E+01
  0.1566667E+01  0.3760112E+06 -0.1299157E+01  0.1574035E+06 -0.6690115E+00  0.1672884E+06  0.1853203E+01
  0.1597619E+01  0.3738903E+06 -0.1292867E+01  0.1511952E+06 -0.7055407E+00  0.1695329E+06  0.1860241E+01
  0.1628572E+01  0.3706368E+06 -0.1288747E+01  0.1452915E+06 -0.7429287E+00  0.1713371E+06  0.1865690E+01
  0.1659524E+01  0.3664864E+06 -0.1287266E+01  0.1399921E+06 -0.7798947E+00  0.1719703E+06  0.1867937E+01
  0.1690476E+01  0.3615032E+06 -0.1288337E+01  0.1349851E+06 -0.8165776E+00  0.1719687E+06  0.1867567E+01
  0.1721429E+01  0.3559439E+06 -0.1291964E+01  0.1301943E+06 -0.8532243E+00  0.1720004E+06  0.1864839E+01
  0.1752381E+01  0.3495978E+06 -0.1298401E+01  0.1255732E+06 -0.8892210E+00  0.1714529E+06  0.1859343E+01
  0.1783333E+01  0.3427081E+06 -0.1307655E+01  0.1210655E+06 -0.9243708E+00  0.1704730E+06  0.1851132E+01
  0.1814286E+01  0.3353288E+06 -0.1319808E+01  0.1166572E+06 -0.9582695E+00  0.1689538E+06  0.1839856E+01
  0.1845238E+01  0.3276225E+06 -0.1334861E+01  0.1122692E+06 -0.9906339E+00  0.1671052E+06  0.1825271E+01
  0.1876190E+01  0.3197953E+06 -0.1352924E+01  0.1078536E+06 -0.1022428E+01  0.1651919E+06  0.1807520E+01
  0.1907143E+01  0.3120120E+06 -0.1374292E+01  0.1036232E+06 -0.1051882E+01  0.1625718E+06  0.1784877E+01
  0.1938095E+01  0.3042255E+06 -0.1398576E+01  0.9938070E+05 -0.1079948E+01  0.1596636E+06  0.1758766E+01
  0.1969048E+01  0.2965400E+06 -0.1425684E+01  0.9505806E+05 -0.1107664E+01  0.1567324E+06  0.1729363E+01
  0.2000000E+01  0.2891335E+06 -0.1455354E+01  0.9062484E+05 -0.1136497E+01  0.1541925E+06  0.1698078E+01
