VARIABLES="w (rad/s)"
"abs(F   1   1)" "angle(F   1   1)"
"abs(F   1   2)" "angle(F   1   2)"
"abs(F   1   3)" "angle(F   1   3)"
Zone t="Diffraction force - beta =   0.000 deg",I=    64,F=POINT
  0.5000000E-01  0.3070273E+03 -0.1570796E+01  0.8292403E+02 -0.3104642E+01  0.3803389E+01 -0.1570794E+01
  0.8095238E-01  0.5012133E+03 -0.1570795E+01  0.2159012E+03 -0.3103446E+01  0.6202870E+01 -0.1570792E+01
  0.1119048E+00  0.6983074E+03 -0.1570793E+01  0.4111768E+03 -0.3101868E+01  0.8707368E+01 -0.1570790E+01
  0.1428571E+00  0.9060240E+03 -0.1570791E+01  0.6689572E+03 -0.3099799E+01  0.1136216E+02 -0.1570786E+01
  0.1738095E+00  0.1119353E+04 -0.1570788E+01  0.9905579E+03 -0.3097154E+01  0.1395882E+02 -0.1570781E+01
  0.2047619E+00  0.1349172E+04 -0.1570783E+01  0.1377363E+04 -0.3093814E+01  0.1698797E+02 -0.1570774E+01
  0.2357143E+00  0.1586724E+04 -0.1570775E+01  0.1830551E+04 -0.3089557E+01  0.2002422E+02 -0.1570764E+01
  0.2666667E+00  0.1848698E+04 -0.1570765E+01  0.2352947E+04 -0.3084354E+01  0.2333132E+02 -0.1570749E+01
  0.2976190E+00  0.2133468E+04 -0.1570749E+01  0.2944768E+04 -0.3077760E+01  0.2728822E+02 -0.1570729E+01
  0.3285715E+00  0.2439920E+04 -0.1570725E+01  0.3610095E+04 -0.3069823E+01  0.3139388E+02 -0.1570698E+01
  0.3595238E+00  0.2778467E+04 -0.1570689E+01  0.4346949E+04 -0.3060108E+01  0.3577011E+02 -0.1570653E+01
  0.3904762E+00  0.3160881E+04 -0.1570636E+01  0.5159402E+04 -0.3048525E+01  0.4110538E+02 -0.1570585E+01
  0.4214286E+00  0.3580042E+04 -0.1570557E+01  0.6036322E+04 -0.3035392E+01  0.4713347E+02 -0.1570485E+01
  0.4523810E+00  0.4034744E+04 -0.1570440E+01  0.6987030E+04 -0.3020175E+01  0.5365257E+02 -0.1570336E+01
  0.4833333E+00  0.4545271E+04 -0.1570278E+01  0.7993739E+04 -0.3004493E+01  0.6111682E+02 -0.1570134E+01
  0.5142857E+00  0.5107545E+04 -0.1570051E+01  0.9057392E+04 -0.2987393E+01  0.7069463E+02 -0.1569864E+01
  0.5452381E+00  0.5694714E+04 -0.1569746E+01  0.1017588E+05 -0.2970117E+01  0.7860206E+02 -0.1569473E+01
  0.5761905E+00  0.6306466E+04 -0.1569343E+01  0.1134127E+05 -0.2952864E+01  0.8748586E+02 -0.1568966E+01
  0.6071429E+00  0.6982926E+04 -0.1568823E+01  0.1255325E+05 -0.2935034E+01  0.9894743E+02 -0.1568336E+01
  0.6380953E+00  0.7699043E+04 -0.1568172E+01  0.1381178E+05 -0.2917900E+01  0.1107591E+03 -0.1567543E+01
  0.6690477E+00  0.8433358E+04 -0.1567351E+01  0.1510537E+05 -0.2900610E+01  0.1235787E+03 -0.1566556E+01
  0.7000000E+00  0.9177172E+04 -0.1566326E+01  0.1643687E+05 -0.2883125E+01  0.1348465E+03 -0.1565268E+01
  0.7309524E+00  0.9958092E+04 -0.1565080E+01  0.1780763E+05 -0.2866045E+01  0.1475293E+03 -0.1563721E+01
  0.7619048E+00  0.1078479E+05 -0.1563579E+01  0.1920249E+05 -0.2848908E+01  0.1630001E+03 -0.1561927E+01
  0.7928572E+00  0.1165482E+05 -0.1561788E+01  0.2062147E+05 -0.2831791E+01  0.1806341E+03 -0.1559844E+01
  0.8238096E+00  0.1254907E+05 -0.1559660E+01  0.2205998E+05 -0.2814755E+01  0.1981056E+03 -0.1557332E+01
  0.8547620E+00  0.1344328E+05 -0.1557136E+01  0.2351447E+05 -0.2797867E+01  0.2135980E+03 -0.1554223E+01
  0.8857143E+00  0.1433304E+05 -0.1554160E+01  0.2498140E+05 -0.2781152E+01  0.2299380E+03 -0.1550582E+01
  0.9166667E+00  0.1527236E+05 -0.1550733E+01  0.2646208E+05 -0.2764736E+01  0.2499568E+03 -0.1546567E+01
  0.9476191E+00  0.1625362E+05 -0.1546810E+01  0.2794096E+05 -0.2748421E+01  0.2706527E+03 -0.1541951E+01
  0.9785714E+00  0.1726765E+05 -0.1542339E+01  0.2941572E+05 -0.2732284E+01  0.2924077E+03 -0.1536690E+01
  0.1009524E+01  0.1829356E+05 -0.1537251E+01  0.3087849E+05 -0.2716255E+01  0.3167608E+03 -0.1530872E+01
  0.1040476E+01  0.1933601E+05 -0.1531501E+01  0.3233563E+05 -0.2700572E+01  0.3431821E+03 -0.1524418E+01
  0.1071429E+01  0.2036997E+05 -0.1525007E+01  0.3378145E+05 -0.2685223E+01  0.3666355E+03 -0.1516774E+01
  0.1102381E+01  0.2138571E+05 -0.1517697E+01  0.3521158E+05 -0.2670186E+01  0.3883671E+03 -0.1507930E+01
  0.1133333E+01  0.2241182E+05 -0.1509591E+01  0.3662167E+05 -0.2655441E+01  0.4121629E+03 -0.1498301E+01
  0.1164286E+01  0.2345374E+05 -0.1500681E+01  0.3800598E+05 -0.2640913E+01  0.4403885E+03 -0.1488215E+01
  0.1195238E+01  0.2451777E+05 -0.1490962E+01  0.3936473E+05 -0.2626721E+01  0.4714502E+03 -0.1477475E+01
  0.1226190E+01  0.2558884E+05 -0.1480383E+01  0.4069490E+05 -0.2612904E+01  0.5034550E+03 -0.1465758E+01
  0.1257143E+01  0.2662049E+05 -0.1468780E+01  0.4199988E+05 -0.2598984E+01  0.5338098E+03 -0.1452681E+01
  0.1288095E+01  0.2767467E+05 -0.1456379E+01  0.4324430E+05 -0.2586030E+01  0.5657657E+03 -0.1438774E+01
  0.1319048E+01  0.2866435E+05 -0.1442847E+01  0.4446045E+05 -0.2573020E+01  0.5969806E+03 -0.1423508E+01
  0.1350000E+01  0.2958564E+05 -0.1428177E+01  0.4563568E+05 -0.2560348E+01  0.6269990E+03 -0.1406782E+01
  0.1380952E+01  0.3045432E+05 -0.1412416E+01  0.4677528E+05 -0.2548245E+01  0.6566987E+03 -0.1388759E+01
  0.1411905E+01  0.3108829E+05 -0.1395712E+01  0.4784151E+05 -0.2536332E+01  0.6731052E+03 -0.1367906E+01
  0.1442857E+01  0.3185108E+05 -0.1378066E+01  0.4889354E+05 -0.2524891E+01  0.7018199E+03 -0.1347780E+01
  0.1473810E+01  0.3254675E+05 -0.1359503E+01  0.4989644E+05 -0.2513725E+01  0.7293102E+03 -0.1326690E+01
  0.1504762E+01  0.3317227E+05 -0.1340078E+01  0.5084829E+05 -0.2502850E+01  0.7567375E+03 -0.1304694E+01
  0.1535714E+01  0.3370221E+05 -0.1319715E+01  0.5174548E+05 -0.2492149E+01  0.7842724E+03 -0.1281840E+01
  0.1566667E+01  0.3412817E+05 -0.1298434E+01  0.5259128E+05 -0.2481815E+01  0.8110312E+03 -0.1258236E+01
  0.1597619E+01  0.3444767E+05 -0.1276306E+01  0.5338563E+05 -0.2471880E+01  0.8367711E+03 -0.1233951E+01
  0.1628572E+01  0.3465056E+05 -0.1253430E+01  0.5412664E+05 -0.2462335E+01  0.8605071E+03 -0.1209289E+01
  0.1659524E+01  0.3473609E+05 -0.1230005E+01  0.5481243E+05 -0.2453087E+01  0.8790953E+03 -0.1183156E+01
  0.1690476E+01  0.3468153E+05 -0.1205952E+01  0.5544055E+05 -0.2444104E+01  0.8925820E+03 -0.1155878E+01
  0.1721429E+01  0.3449266E+05 -0.1181415E+01  0.5601092E+05 -0.2435410E+01  0.9020070E+03 -0.1127708E+01
  0.1752381E+01  0.3416611E+05 -0.1156456E+01  0.5652236E+05 -0.2426984E+01  0.9092407E+03 -0.1099057E+01
  0.1783333E+01  0.3368552E+05 -0.1130961E+01  0.5697428E+05 -0.2418779E+01  0.9144664E+03 -0.1070383E+01
  0.1814286E+01  0.3306227E+05 -0.1105176E+01  0.5737015E+05 -0.2410959E+01  0.9162930E+03 -0.1042161E+01
  0.1845238E+01  0.3229868E+05 -0.1079303E+01  0.5770809E+05 -0.2403496E+01  0.9148077E+03 -0.1014282E+01
  0.1876190E+01  0.3139086E+05 -0.1053329E+01  0.5798642E+05 -0.2396361E+01  0.9079347E+03 -0.9861577E+00
  0.1907143E+01  0.3034324E+05 -0.1027307E+01  0.5820411E+05 -0.2389545E+01  0.8939328E+03 -0.9570931E+00
  0.1938095E+01  0.2915163E+05 -0.1001115E+01  0.5836127E+05 -0.2382989E+01  0.8745590E+03 -0.9272509E+00
  0.1969048E+01  0.2782183E+05 -0.9747600E+00  0.5846041E+05 -0.2376710E+01  0.8481398E+03 -0.8958713E+00
  0.2000000E+01  0.2636463E+05 -0.9483850E+00  0.5849990E+05 -0.2370733E+01  0.8177482E+03 -0.8651491E+00
