VARIABLES="w (rad/s)"
"abs(F   1   1)" "angle(F   1   1)"
"abs(F   1   2)" "angle(F   1   2)"
"abs(F   1   3)" "angle(F   1   3)"
Zone t="Diffraction force - beta =   0.000 deg",I=    64,F=POINT
  0.5000000E-01  0.2292731E+04 -0.1570795E+01  0.1510982E+03 -0.3087487E+01  0.4218028E+04  0.1570798E+01
  0.8095238E-01  0.3756205E+04 -0.1570792E+01  0.3913984E+03 -0.3085509E+01  0.6904386E+04  0.1570800E+01
  0.1119048E+00  0.5242109E+04 -0.1570788E+01  0.7433337E+03 -0.3083115E+01  0.9627605E+04  0.1570803E+01
  0.1428571E+00  0.6776482E+04 -0.1570782E+01  0.1208012E+04 -0.3080120E+01  0.1243319E+05  0.1570808E+01
  0.1738095E+00  0.8375025E+04 -0.1570773E+01  0.1787294E+04 -0.3076344E+01  0.1534001E+05  0.1570816E+01
  0.2047619E+00  0.1005497E+05 -0.1570760E+01  0.2485297E+04 -0.3071646E+01  0.1838972E+05  0.1570827E+01
  0.2357143E+00  0.1182929E+05 -0.1570740E+01  0.3304779E+04 -0.3065714E+01  0.2161301E+05  0.1570843E+01
  0.2666667E+00  0.1374992E+05 -0.1570712E+01  0.4250509E+04 -0.3058522E+01  0.2504649E+05  0.1570866E+01
  0.2976190E+00  0.1580506E+05 -0.1570670E+01  0.5325617E+04 -0.3049457E+01  0.2874749E+05  0.1570901E+01
  0.3285715E+00  0.1804965E+05 -0.1570608E+01  0.6538715E+04 -0.3038685E+01  0.3277040E+05  0.1570953E+01
  0.3595238E+00  0.2052586E+05 -0.1570514E+01  0.7881510E+04 -0.3025501E+01  0.3714442E+05  0.1571030E+01
  0.3904762E+00  0.2325056E+05 -0.1570375E+01  0.9368845E+04 -0.3009990E+01  0.4193938E+05  0.1571144E+01
  0.4214286E+00  0.2623959E+05 -0.1570171E+01  0.1097640E+05 -0.2992582E+01  0.4721648E+05  0.1571313E+01
  0.4523810E+00  0.2953284E+05 -0.1569872E+01  0.1271578E+05 -0.2972454E+01  0.5294640E+05  0.1571559E+01
  0.4833333E+00  0.3314019E+05 -0.1569457E+01  0.1454791E+05 -0.2951946E+01  0.5916020E+05  0.1571901E+01
  0.5142857E+00  0.3702329E+05 -0.1568881E+01  0.1648329E+05 -0.2929768E+01  0.6585023E+05  0.1572374E+01
  0.5452381E+00  0.4117217E+05 -0.1568114E+01  0.1852073E+05 -0.2907807E+01  0.7295799E+05  0.1573004E+01
  0.5761905E+00  0.4554931E+05 -0.1567116E+01  0.2062199E+05 -0.2886002E+01  0.8037013E+05  0.1573822E+01
  0.6071429E+00  0.5019467E+05 -0.1565829E+01  0.2279087E+05 -0.2863584E+01  0.8807520E+05  0.1574878E+01
  0.6380953E+00  0.5503619E+05 -0.1564225E+01  0.2504389E+05 -0.2842549E+01  0.9609051E+05  0.1576191E+01
  0.6690477E+00  0.6002145E+05 -0.1562231E+01  0.2735809E+05 -0.2821757E+01  0.1043072E+06  0.1577819E+01
  0.7000000E+00  0.6515312E+05 -0.1559779E+01  0.2972172E+05 -0.2800864E+01  0.1126585E+06  0.1579818E+01
  0.7309524E+00  0.7052062E+05 -0.1556830E+01  0.3213819E+05 -0.2780743E+01  0.1211911E+06  0.1582222E+01
  0.7619048E+00  0.7600312E+05 -0.1553295E+01  0.3458067E+05 -0.2760822E+01  0.1297684E+06  0.1585099E+01
  0.7928572E+00  0.8162643E+05 -0.1549102E+01  0.3705299E+05 -0.2741229E+01  0.1384759E+06  0.1588506E+01
  0.8238096E+00  0.8736493E+05 -0.1544177E+01  0.3956463E+05 -0.2722261E+01  0.1472325E+06  0.1592499E+01
  0.8547620E+00  0.9314345E+05 -0.1538438E+01  0.4209906E+05 -0.2703875E+01  0.1560091E+06  0.1597135E+01
  0.8857143E+00  0.9901299E+05 -0.1531817E+01  0.4463674E+05 -0.2685904E+01  0.1647387E+06  0.1602474E+01
  0.9166667E+00  0.1049690E+06 -0.1524249E+01  0.4716990E+05 -0.2668357E+01  0.1733209E+06  0.1608569E+01
  0.9476191E+00  0.1110272E+06 -0.1515671E+01  0.4969152E+05 -0.2651314E+01  0.1817960E+06  0.1615469E+01
  0.9785714E+00  0.1170862E+06 -0.1505992E+01  0.5219366E+05 -0.2634799E+01  0.1902163E+06  0.1623224E+01
  0.1009524E+01  0.1230195E+06 -0.1495129E+01  0.5467783E+05 -0.2618874E+01  0.1983123E+06  0.1631887E+01
  0.1040476E+01  0.1289305E+06 -0.1483073E+01  0.5714868E+05 -0.2603736E+01  0.2062237E+06  0.1641463E+01
  0.1071429E+01  0.1346799E+06 -0.1469759E+01  0.5960101E+05 -0.2589375E+01  0.2137047E+06  0.1651983E+01
  0.1102381E+01  0.1403138E+06 -0.1455217E+01  0.6201966E+05 -0.2575638E+01  0.2207844E+06  0.1663422E+01
  0.1133333E+01  0.1457259E+06 -0.1439398E+01  0.6438620E+05 -0.2562315E+01  0.2273816E+06  0.1675785E+01
  0.1164286E+01  0.1508425E+06 -0.1422304E+01  0.6669920E+05 -0.2549488E+01  0.2333115E+06  0.1689055E+01
  0.1195238E+01  0.1557558E+06 -0.1404025E+01  0.6896570E+05 -0.2537427E+01  0.2387815E+06  0.1703143E+01
  0.1226190E+01  0.1601923E+06 -0.1384500E+01  0.7118201E+05 -0.2526064E+01  0.2434238E+06  0.1718033E+01
  0.1257143E+01  0.1641184E+06 -0.1363776E+01  0.7336866E+05 -0.2515255E+01  0.2473241E+06  0.1733627E+01
  0.1288095E+01  0.1677165E+06 -0.1342206E+01  0.7548809E+05 -0.2505893E+01  0.2506101E+06  0.1749667E+01
  0.1319048E+01  0.1705329E+06 -0.1319555E+01  0.7755925E+05 -0.2496794E+01  0.2528210E+06  0.1766171E+01
  0.1350000E+01  0.1727383E+06 -0.1296134E+01  0.7958941E+05 -0.2488587E+01  0.2541774E+06  0.1782899E+01
  0.1380952E+01  0.1743341E+06 -0.1272210E+01  0.8156642E+05 -0.2481167E+01  0.2546542E+06  0.1799605E+01
  0.1411905E+01  0.1742724E+06 -0.1248997E+01  0.8340354E+05 -0.2473997E+01  0.2535565E+06  0.1814858E+01
  0.1442857E+01  0.1743773E+06 -0.1224614E+01  0.8527324E+05 -0.2467733E+01  0.2519536E+06  0.1830856E+01
  0.1473810E+01  0.1737799E+06 -0.1200317E+01  0.8708832E+05 -0.2462059E+01  0.2494555E+06  0.1846164E+01
  0.1504762E+01  0.1723941E+06 -0.1176126E+01  0.8885323E+05 -0.2456953E+01  0.2461305E+06  0.1860670E+01
  0.1535714E+01  0.1701462E+06 -0.1152294E+01  0.9055367E+05 -0.2452274E+01  0.2417231E+06  0.1874024E+01
  0.1566667E+01  0.1672688E+06 -0.1129097E+01  0.9224066E+05 -0.2448482E+01  0.2368198E+06  0.1886081E+01
  0.1597619E+01  0.1636610E+06 -0.1106837E+01  0.9388659E+05 -0.2445243E+01  0.2311287E+06  0.1896450E+01
  0.1628572E+01  0.1592954E+06 -0.1085604E+01  0.9549840E+05 -0.2442414E+01  0.2246843E+06  0.1904975E+01
  0.1659524E+01  0.1543478E+06 -0.1065763E+01  0.9710716E+05 -0.2440123E+01  0.2177943E+06  0.1911426E+01
  0.1690476E+01  0.1488447E+06 -0.1047611E+01  0.9869719E+05 -0.2438332E+01  0.2104552E+06  0.1915470E+01
  0.1721429E+01  0.1428196E+06 -0.1031014E+01  0.1002673E+06 -0.2436509E+01  0.2029246E+06  0.1917258E+01
  0.1752381E+01  0.1362619E+06 -0.1016402E+01  0.1018108E+06 -0.2434683E+01  0.1950187E+06  0.1916266E+01
  0.1783333E+01  0.1292801E+06 -0.1003969E+01  0.1033362E+06 -0.2432732E+01  0.1869570E+06  0.1912488E+01
  0.1814286E+01  0.1220211E+06 -0.9941104E+00  0.1048750E+06 -0.2430710E+01  0.1790066E+06  0.1905905E+01
  0.1845238E+01  0.1144516E+06 -0.9872540E+00  0.1063922E+06 -0.2428395E+01  0.1710077E+06  0.1896091E+01
  0.1876190E+01  0.1065868E+06 -0.9836439E+00  0.1078806E+06 -0.2425422E+01  0.1630280E+06  0.1883019E+01
  0.1907143E+01  0.9858919E+05 -0.9840344E+00  0.1093710E+06 -0.2422126E+01  0.1553122E+06  0.1866794E+01
  0.1938095E+01  0.9045259E+05 -0.9893352E+00  0.1108113E+06 -0.2418065E+01  0.1477492E+06  0.1846941E+01
  0.1969048E+01  0.8227797E+05 -0.1000319E+01  0.1121891E+06 -0.2412880E+01  0.1405460E+06  0.1823927E+01
  0.2000000E+01  0.7409975E+05 -0.1018271E+01  0.1134675E+06 -0.2406274E+01  0.1337431E+06  0.1798062E+01
