VARIABLES="w (rad/s)"
"abs(F   1   1)" "angle(F   1   1)"
"abs(F   1   2)" "angle(F   1   2)"
"abs(F   1   3)" "angle(F   1   3)"
Zone t="Diffraction force - beta =   0.000 deg",I=    64,F=POINT
  0.5000000E-01  0.3872980E+04 -0.1570804E+01  0.3389343E+06 -0.2410854E-04  0.5909746E+04  0.1570803E+01
  0.8095238E-01  0.6330493E+04 -0.1570796E+01  0.3382932E+06 -0.6485314E-04  0.9657889E+04  0.1570799E+01
  0.1119048E+00  0.8833443E+04 -0.1570790E+01  0.3373513E+06 -0.1287793E-03  0.1346408E+05  0.1570799E+01
  0.1428571E+00  0.1141787E+05 -0.1570789E+01  0.3361083E+06 -0.2208021E-03  0.1738304E+05  0.1570800E+01
  0.1738095E+00  0.1411066E+05 -0.1570781E+01  0.3345626E+06 -0.3483200E-03  0.2144399E+05  0.1570812E+01
  0.2047619E+00  0.1694182E+05 -0.1570776E+01  0.3327112E+06 -0.5220663E-03  0.2570039E+05  0.1570818E+01
  0.2357143E+00  0.1993907E+05 -0.1570763E+01  0.3305529E+06 -0.7578880E-03  0.3019652E+05  0.1570834E+01
  0.2666667E+00  0.2317135E+05 -0.1570747E+01  0.3280852E+06 -0.1074980E-02  0.3498462E+05  0.1570846E+01
  0.2976190E+00  0.2664626E+05 -0.1570723E+01  0.3253074E+06 -0.1506218E-02  0.4013971E+05  0.1570871E+01
  0.3285715E+00  0.3044024E+05 -0.1570685E+01  0.3222152E+06 -0.2084617E-02  0.4573550E+05  0.1570909E+01
  0.3595238E+00  0.3461815E+05 -0.1570630E+01  0.3188219E+06 -0.2863419E-02  0.5182100E+05  0.1570963E+01
  0.3904762E+00  0.3921857E+05 -0.1570546E+01  0.3151205E+06 -0.3901403E-02  0.5848421E+05  0.1571046E+01
  0.4214286E+00  0.4427538E+05 -0.1570427E+01  0.3111429E+06 -0.5237331E-02  0.6579976E+05  0.1571167E+01
  0.4523810E+00  0.4983924E+05 -0.1570249E+01  0.3068898E+06 -0.6974861E-02  0.7374359E+05  0.1571345E+01
  0.4833333E+00  0.5592156E+05 -0.1570002E+01  0.3024065E+06 -0.9068890E-02  0.8234196E+05  0.1571588E+01
  0.5142857E+00  0.6247627E+05 -0.1569661E+01  0.2976970E+06 -0.1164134E-01  0.9157255E+05  0.1571930E+01
  0.5452381E+00  0.6947879E+05 -0.1569206E+01  0.2927682E+06 -0.1465560E-01  0.1013550E+06  0.1572386E+01
  0.5761905E+00  0.7687399E+05 -0.1568616E+01  0.2876671E+06 -0.1812469E-01  0.1115515E+06  0.1572976E+01
  0.6071429E+00  0.8468420E+05 -0.1567852E+01  0.2824040E+06 -0.2215010E-01  0.1221258E+06  0.1573739E+01
  0.6380953E+00  0.9282177E+05 -0.1566900E+01  0.2769605E+06 -0.2664263E-01  0.1330731E+06  0.1574692E+01
  0.6690477E+00  0.1012208E+06 -0.1565717E+01  0.2713743E+06 -0.3170204E-01  0.1442647E+06  0.1575874E+01
  0.7000000E+00  0.1098727E+06 -0.1564263E+01  0.2656702E+06 -0.3739430E-01  0.1556162E+06  0.1577328E+01
  0.7309524E+00  0.1188569E+06 -0.1562510E+01  0.2598459E+06 -0.4368215E-01  0.1671584E+06  0.1579080E+01
  0.7619048E+00  0.1280432E+06 -0.1560409E+01  0.2539416E+06 -0.5062947E-01  0.1787399E+06  0.1581179E+01
  0.7928572E+00  0.1374488E+06 -0.1557914E+01  0.2479628E+06 -0.5827366E-01  0.1904320E+06  0.1583674E+01
  0.8238096E+00  0.1470393E+06 -0.1554981E+01  0.2419053E+06 -0.6664036E-01  0.2021399E+06  0.1586603E+01
  0.8547620E+00  0.1567303E+06 -0.1551568E+01  0.2357926E+06 -0.7575202E-01  0.2138208E+06  0.1590013E+01
  0.8857143E+00  0.1665640E+06 -0.1547629E+01  0.2296542E+06 -0.8564097E-01  0.2253946E+06  0.1593947E+01
  0.9166667E+00  0.1765260E+06 -0.1543124E+01  0.2235053E+06 -0.9633704E-01  0.2367481E+06  0.1598447E+01
  0.9476191E+00  0.1866222E+06 -0.1538011E+01  0.2173573E+06 -0.1078582E+00  0.2479083E+06  0.1603550E+01
  0.9785714E+00  0.1967408E+06 -0.1532246E+01  0.2112243E+06 -0.1202261E+00  0.2589154E+06  0.1609306E+01
  0.1009524E+01  0.2067439E+06 -0.1525800E+01  0.2051089E+06 -0.1334825E+00  0.2694874E+06  0.1615739E+01
  0.1040476E+01  0.2167235E+06 -0.1518652E+01  0.1990077E+06 -0.1476510E+00  0.2797518E+06  0.1622870E+01
  0.1071429E+01  0.2265275E+06 -0.1510792E+01  0.1929300E+06 -0.1627730E+00  0.2894512E+06  0.1630708E+01
  0.1102381E+01  0.2361897E+06 -0.1502233E+01  0.1868982E+06 -0.1788906E+00  0.2986039E+06  0.1639238E+01
  0.1133333E+01  0.2455899E+06 -0.1492974E+01  0.1809402E+06 -0.1960484E+00  0.3071176E+06  0.1648463E+01
  0.1164286E+01  0.2546403E+06 -0.1483043E+01  0.1750594E+06 -0.2142804E+00  0.3147975E+06  0.1658351E+01
  0.1195238E+01  0.2634192E+06 -0.1472485E+01  0.1692431E+06 -0.2336069E+00  0.3218424E+06  0.1668858E+01
  0.1226190E+01  0.2716378E+06 -0.1461348E+01  0.1634997E+06 -0.2541010E+00  0.3278759E+06  0.1679931E+01
  0.1257143E+01  0.2792482E+06 -0.1449699E+01  0.1578298E+06 -0.2759820E+00  0.3329772E+06  0.1691500E+01
  0.1288095E+01  0.2864224E+06 -0.1437714E+01  0.1522086E+06 -0.2988972E+00  0.3372704E+06  0.1703387E+01
  0.1319048E+01  0.2926904E+06 -0.1425437E+01  0.1466966E+06 -0.3233784E+00  0.3402898E+06  0.1715534E+01
  0.1350000E+01  0.2982145E+06 -0.1413040E+01  0.1412576E+06 -0.3493952E+00  0.3422561E+06  0.1727781E+01
  0.1380952E+01  0.3029902E+06 -0.1400719E+01  0.1359097E+06 -0.3770346E+00  0.3431458E+06  0.1739926E+01
  0.1411905E+01  0.3059996E+06 -0.1389684E+01  0.1307382E+06 -0.4060135E+00  0.3422891E+06  0.1750770E+01
  0.1442857E+01  0.3090001E+06 -0.1378125E+01  0.1256194E+06 -0.4374042E+00  0.3407213E+06  0.1762108E+01
  0.1473810E+01  0.3111552E+06 -0.1367181E+01  0.1206279E+06 -0.4709134E+00  0.3380791E+06  0.1772792E+01
  0.1504762E+01  0.3123788E+06 -0.1356972E+01  0.1157737E+06 -0.5067584E+00  0.3344383E+06  0.1782737E+01
  0.1535714E+01  0.3126069E+06 -0.1347760E+01  0.1110845E+06 -0.5450523E+00  0.3295566E+06  0.1791605E+01
  0.1566667E+01  0.3120816E+06 -0.1339625E+01  0.1065177E+06 -0.5863138E+00  0.3240294E+06  0.1799412E+01
  0.1597619E+01  0.3107202E+06 -0.1332857E+01  0.1021266E+06 -0.6306486E+00  0.3175811E+06  0.1805790E+01
  0.1628572E+01  0.3085088E+06 -0.1327596E+01  0.9794106E+05 -0.6783875E+00  0.3102572E+06  0.1810617E+01
  0.1659524E+01  0.3056425E+06 -0.1323963E+01  0.9396636E+05 -0.7300563E+00  0.3023765E+06  0.1813811E+01
  0.1690476E+01  0.3021692E+06 -0.1322124E+01  0.9023552E+05 -0.7857456E+00  0.2939488E+06  0.1815135E+01
  0.1721429E+01  0.2981265E+06 -0.1322027E+01  0.8682997E+05 -0.8456368E+00  0.2852326E+06  0.1814794E+01
  0.1752381E+01  0.2935317E+06 -0.1323920E+01  0.8377873E+05 -0.9096335E+00  0.2760596E+06  0.1812366E+01
  0.1783333E+01  0.2885049E+06 -0.1327799E+01  0.8112556E+05 -0.9776604E+00  0.2666508E+06  0.1807949E+01
  0.1814286E+01  0.2832061E+06 -0.1333656E+01  0.7890123E+05 -0.1049759E+01  0.2572729E+06  0.1801666E+01
  0.1845238E+01  0.2776211E+06 -0.1341648E+01  0.7715220E+05 -0.1124872E+01  0.2477745E+06  0.1793197E+01
  0.1876190E+01  0.2717688E+06 -0.1351775E+01  0.7593198E+05 -0.1201900E+01  0.2382207E+06  0.1782593E+01
  0.1907143E+01  0.2658168E+06 -0.1363974E+01  0.7522584E+05 -0.1280286E+01  0.2288503E+06  0.1770074E+01
  0.1938095E+01  0.2597673E+06 -0.1378360E+01  0.7505409E+05 -0.1357971E+01  0.2195557E+06  0.1755320E+01
  0.1969048E+01  0.2537022E+06 -0.1394750E+01  0.7541961E+05 -0.1433300E+01  0.2105321E+06  0.1738770E+01
  0.2000000E+01  0.2476379E+06 -0.1413098E+01  0.7628447E+05 -0.1504460E+01  0.2018136E+06  0.1720674E+01
