VARIABLES="w (rad/s)"
"A   1   1" "B   1   1"
"A   1   2" "B   1   2"
"A   1   3" "B   1   3"
Zone t="Motion of body    1 in DoF   1",I=    64,F=POINT
  0.5000000E-01  0.1459016E+06  0.1093423E-01 -0.1209259E-01 -0.2396925E-04 -0.2684673E+06 -0.1676030E-01
  0.8095238E-01  0.1468130E+06  0.4794344E-01 -0.5042132E-02 -0.2664527E-04 -0.2699818E+06 -0.7348672E-01
  0.1119048E+00  0.1469859E+06  0.1343826E+00  0.1455591E-01  0.7476623E-04 -0.2701842E+06 -0.2048679E+00
  0.1428571E+00  0.1471806E+06  0.3020560E+00 -0.2291107E-01 -0.1494498E-03 -0.2704178E+06 -0.4594549E+00
  0.1738095E+00  0.1473944E+06  0.6012297E+00 -0.1136884E-01 -0.1709643E-03 -0.2705334E+06 -0.9129416E+00
  0.2047619E+00  0.1476168E+06  0.1108442E+01  0.4322140E-02  0.1284340E-04 -0.2707584E+06 -0.1682058E+01
  0.2357143E+00  0.1477554E+06  0.1948834E+01 -0.2783573E-01 -0.6137709E-03 -0.2709947E+06 -0.2951025E+01
  0.2666667E+00  0.1481529E+06  0.3322104E+01  0.1736641E-01  0.1320755E-03 -0.2712013E+06 -0.5016169E+01
  0.2976190E+00  0.1483551E+06  0.5561778E+01  0.3024902E-02  0.6096624E-04 -0.2714985E+06 -0.8378040E+01
  0.3285715E+00  0.1486412E+06  0.9186186E+01  0.7848324E-02  0.2024062E-03 -0.2718924E+06 -0.1380065E+02
  0.3595238E+00  0.1490655E+06  0.1506298E+02  0.6917991E-02  0.4927255E-03 -0.2721862E+06 -0.2254874E+02
  0.3904762E+00  0.1495057E+06  0.2451040E+02 -0.6877619E-02  0.8858442E-03 -0.2725529E+06 -0.3654824E+02
  0.4214286E+00  0.1499152E+06  0.3934811E+02  0.6119032E-02  0.1600236E-03 -0.2731102E+06 -0.5846507E+02
  0.4523810E+00  0.1504388E+06  0.6263467E+02 -0.2192447E-01 -0.1277208E-02 -0.2735678E+06 -0.9266963E+02
  0.4833333E+00  0.1510941E+06  0.9725602E+02 -0.3567399E-02 -0.5964637E-03 -0.2741342E+06 -0.1431794E+03
  0.5142857E+00  0.1517490E+06  0.1485348E+03 -0.4450480E-03  0.9266734E-03 -0.2748847E+06 -0.2176787E+03
  0.5452381E+00  0.1524581E+06  0.2214394E+03 -0.7416171E-02 -0.1118779E-02 -0.2757409E+06 -0.3229810E+03
  0.5761905E+00  0.1531788E+06  0.3222683E+03 -0.1287035E-01 -0.7640123E-03 -0.2764964E+06 -0.4675388E+03
  0.6071429E+00  0.1541189E+06  0.4607387E+03  0.1156077E-02 -0.4552603E-03 -0.2773214E+06 -0.6643373E+03
  0.6380953E+00  0.1551069E+06  0.6441569E+03 -0.5452170E-02  0.4754066E-03 -0.2783913E+06 -0.9232914E+03
  0.6690477E+00  0.1560586E+06  0.8848408E+03 -0.2691194E-02 -0.4651546E-03 -0.2794991E+06 -0.1260786E+04
  0.7000000E+00  0.1570368E+06  0.1197024E+04  0.7498604E-02  0.4914284E-02 -0.2805808E+06 -0.1694911E+04
  0.7309524E+00  0.1582768E+06  0.1595324E+04 -0.7473327E-02 -0.9975433E-03 -0.2818236E+06 -0.2242907E+04
  0.7619048E+00  0.1595159E+06  0.2097810E+04  0.6328582E-02  0.2099037E-02 -0.2829908E+06 -0.2927250E+04
  0.7928572E+00  0.1608444E+06  0.2725585E+04 -0.5427179E-02 -0.3340721E-02 -0.2843252E+06 -0.3774529E+04
  0.8238096E+00  0.1622303E+06  0.3500879E+04 -0.1222467E-02  0.1218796E-02 -0.2857088E+06 -0.4810314E+04
  0.8547620E+00  0.1635712E+06  0.4446800E+04 -0.1346004E-01 -0.8178711E-02 -0.2871449E+06 -0.6062926E+04
  0.8857143E+00  0.1649806E+06  0.5591896E+04  0.1305857E-01  0.3665924E-02 -0.2885671E+06 -0.7561664E+04
  0.9166667E+00  0.1664644E+06  0.6965585E+04 -0.6558505E-02 -0.2033234E-02 -0.2898688E+06 -0.9334291E+04
  0.9476191E+00  0.1680634E+06  0.8600890E+04 -0.1056307E-01 -0.1015472E-01 -0.2911628E+06 -0.1141462E+05
  0.9785714E+00  0.1696522E+06  0.1052957E+05 -0.1939760E-01  0.9765625E-03 -0.2925672E+06 -0.1384246E+05
  0.1009524E+01  0.1710771E+06  0.1277807E+05  0.1178957E-01  0.5935669E-02 -0.2937399E+06 -0.1663611E+05
  0.1040476E+01  0.1725155E+06  0.1538382E+05 -0.1214278E-01 -0.9223938E-02 -0.2949180E+06 -0.1983079E+05
  0.1071429E+01  0.1738052E+06  0.1836973E+05 -0.1207682E-01 -0.7896423E-02 -0.2958324E+06 -0.2343578E+05
  0.1102381E+01  0.1750330E+06  0.2176313E+05  0.2270033E-02 -0.1296997E-03 -0.2965541E+06 -0.2746515E+05
  0.1133333E+01  0.1760986E+06  0.2558462E+05  0.1857982E-01  0.1632690E-01 -0.2970496E+06 -0.3193015E+05
  0.1164286E+01  0.1769389E+06  0.2984526E+05 -0.1189998E-01  0.8987427E-02 -0.2971377E+06 -0.3681253E+05
  0.1195238E+01  0.1776921E+06  0.3456757E+05  0.1353230E-01  0.1423645E-01 -0.2970871E+06 -0.4212639E+05
  0.1226190E+01  0.1780772E+06  0.3972629E+05 -0.1692392E-02 -0.9155273E-04 -0.2965478E+06 -0.4781275E+05
  0.1257143E+01  0.1781004E+06  0.4530951E+05  0.6942749E-02  0.1275635E-01 -0.2956388E+06 -0.5385125E+05
  0.1288095E+01  0.1779869E+06  0.5130187E+05 -0.6538997E-02 -0.7720947E-02 -0.2945373E+06 -0.6018622E+05
  0.1319048E+01  0.1772946E+06  0.5761899E+05  0.7912535E-02  0.1129150E-01 -0.2928111E+06 -0.6670398E+05
  0.1350000E+01  0.1762448E+06  0.6423072E+05  0.4747179E-02 -0.4852295E-02 -0.2907272E+06 -0.7335802E+05
  0.1380952E+01  0.1748714E+06  0.7106237E+05 -0.1325936E-03  0.3875732E-02 -0.2882810E+06 -0.8003534E+05
  0.1411905E+01  0.1723798E+06  0.7741547E+05 -0.4409352E-02 -0.1678467E-02 -0.2849812E+06 -0.8605565E+05
  0.1442857E+01  0.1702220E+06  0.8434992E+05 -0.2918810E-02  0.1556396E-02 -0.2816365E+06 -0.9235837E+05
  0.1473810E+01  0.1677569E+06  0.9124428E+05  0.9939165E-03 -0.4241943E-02 -0.2779813E+06 -0.9835647E+05
  0.1504762E+01  0.1649392E+06  0.9802028E+05 -0.6976550E-02 -0.2258301E-02 -0.2741360E+06 -0.1040265E+06
  0.1535714E+01  0.1617206E+06  0.1045272E+06  0.5126953E-02 -0.7507324E-02 -0.2698392E+06 -0.1091038E+06
  0.1566667E+01  0.1583609E+06  0.1108009E+06 -0.5142536E-02 -0.1287842E-01 -0.2656574E+06 -0.1137856E+06
  0.1597619E+01  0.1547813E+06  0.1166722E+06 -0.1016222E-01 -0.1678467E-01 -0.2612908E+06 -0.1177878E+06
  0.1628572E+01  0.1509727E+06  0.1220688E+06 -0.3860206E-02 -0.5920410E-02 -0.2567779E+06 -0.1210726E+06
  0.1659524E+01  0.1471146E+06  0.1270012E+06 -0.7318965E-02  0.7324219E-02 -0.2523694E+06 -0.1237224E+06
  0.1690476E+01  0.1432347E+06  0.1314016E+06 -0.2491266E-02  0.3356934E-02 -0.2480079E+06 -0.1256204E+06
  0.1721429E+01  0.1393460E+06  0.1353265E+06  0.4254733E-03 -0.2441406E-03 -0.2439100E+06 -0.1270140E+06
  0.1752381E+01  0.1354298E+06  0.1386555E+06  0.1741492E-02  0.1226807E-01 -0.2398476E+06 -0.1276276E+06
  0.1783333E+01  0.1315658E+06  0.1414495E+06 -0.5955206E-02 -0.9155273E-02 -0.2359654E+06 -0.1276256E+06
  0.1814286E+01  0.1278781E+06  0.1437977E+06  0.2691314E-03 -0.1770020E-02 -0.2324692E+06 -0.1272141E+06
  0.1845238E+01  0.1243062E+06  0.1456104E+06 -0.1098160E-01 -0.1647949E-02 -0.2291410E+06 -0.1261743E+06
  0.1876190E+01  0.1208135E+06  0.1469022E+06  0.7742480E-02  0.5249023E-02 -0.2259713E+06 -0.1245748E+06
  0.1907143E+01  0.1175379E+06  0.1478031E+06 -0.4096442E-02  0.4272461E-02 -0.2231625E+06 -0.1226733E+06
  0.1938095E+01  0.1144337E+06  0.1482409E+06  0.1265992E-01  0.3417969E-02 -0.2205404E+06 -0.1202445E+06
  0.1969048E+01  0.1115368E+06  0.1483739E+06 -0.2278301E-02 -0.5371094E-02 -0.2182662E+06 -0.1176370E+06
  0.2000000E+01  0.1088118E+06  0.1482460E+06  0.2532959E-02  0.1281738E-02 -0.2163294E+06 -0.1150249E+06
Zone t="Motion of body    1 in DoF   2",I=    64,F=POINT
  0.5000000E-01 -0.9689331E-02 -0.2408028E-04  0.6023299E+05  0.1631757E+03  0.3433228E-02 -0.3528595E-04
  0.8095238E-01 -0.4146800E-02  0.1430511E-04  0.5951238E+05  0.2706004E+03 -0.4995009E-02  0.3647804E-04
  0.1119048E+00  0.1568084E-02  0.4768372E-05  0.5913536E+05  0.3875905E+03  0.1227196E-02  0.1659393E-03
  0.1428571E+00 -0.5340576E-03  0.1096725E-03  0.5895430E+05  0.5186135E+03  0.3492737E-01  0.1034737E-03
  0.1738095E+00 -0.5706369E-03 -0.5531311E-04  0.5890597E+05  0.6692715E+03  0.5794159E-02  0.1735687E-03
  0.2047619E+00 -0.9240438E-02  0.9632111E-04  0.5899333E+05  0.8466426E+03 -0.2310110E-02  0.2832413E-03
  0.2357143E+00 -0.1553622E-02  0.1850128E-03  0.5916267E+05  0.1060602E+04  0.6408691E-02  0.4444122E-03
  0.2666667E+00  0.3032684E-02 -0.1068115E-03  0.5941052E+05  0.1319516E+04 -0.3026962E-01 -0.4119873E-03
  0.2976190E+00  0.3076172E-03 -0.5168915E-03  0.5970014E+05  0.1642128E+04  0.7946777E-02 -0.1049042E-03
  0.3285715E+00  0.1360686E-01 -0.1544952E-03  0.6006132E+05  0.2038405E+04 -0.1630037E-01  0.5893707E-03
  0.3595238E+00 -0.4201725E-02 -0.2403259E-03  0.6036215E+05  0.2530953E+04 -0.4880791E-02  0.1001358E-02
  0.3904762E+00  0.6174226E-02 -0.4959106E-03  0.6068913E+05  0.3136660E+04  0.1055089E-01  0.4425049E-03
  0.4214286E+00  0.2136230E-01 -0.1182556E-03  0.6086467E+05  0.3849951E+04  0.3012447E-01  0.1495361E-02
  0.4523810E+00  0.4722193E-03  0.3890991E-03  0.6096325E+05  0.4707850E+04  0.4587274E-02 -0.1182556E-02
  0.4833333E+00  0.1035493E-01  0.1831055E-03  0.6084026E+05  0.5640721E+04  0.1887880E-01 -0.5645752E-03
  0.5142857E+00 -0.6408692E-02  0.6637573E-03  0.6057259E+05  0.6692493E+04 -0.1097785E-01  0.1083374E-02
  0.5452381E+00 -0.1455249E-02  0.1220703E-03  0.6020614E+05  0.7806626E+04  0.1936600E-01  0.2990723E-02
  0.5761905E+00 -0.2436362E-02  0.1068115E-02  0.5965709E+05  0.8964914E+04  0.4888613E-01  0.1167297E-02
  0.6071429E+00 -0.4574046E-02  0.1525879E-02  0.5897127E+05  0.1019248E+05 -0.1950253E-01 -0.1129150E-02
  0.6380953E+00  0.6313039E-02  0.4119873E-03  0.5825314E+05  0.1142138E+05  0.9756515E-02  0.4226685E-02
  0.6690477E+00 -0.1687698E-02  0.1831055E-03  0.5744804E+05  0.1267713E+05 -0.3229433E-01 -0.7934570E-03
  0.7000000E+00 -0.2659389E-02  0.3051758E-03  0.5655425E+05  0.1396384E+05  0.3317697E-01 -0.5020142E-02
  0.7309524E+00 -0.6680069E-02 -0.1525879E-02  0.5562440E+05  0.1524470E+05 -0.2630277E-02 -0.1525879E-04
  0.7619048E+00  0.1506042E-01 -0.3067017E-02  0.5461821E+05  0.1652627E+05 -0.1678276E-01 -0.4852295E-02
  0.7928572E+00  0.7852090E-02  0.1312256E-02  0.5356449E+05  0.1780168E+05  0.2963779E-02 -0.1101685E-01
  0.8238096E+00 -0.2963557E-02  0.6103516E-04  0.5249922E+05  0.1905980E+05  0.1811474E-01  0.8422852E-02
  0.8547620E+00 -0.7569039E-02 -0.1586914E-02  0.5141647E+05  0.2029077E+05  0.1260316E-01  0.2563477E-02
  0.8857143E+00 -0.3032069E-02 -0.2288818E-02  0.5030591E+05  0.2148942E+05  0.5857406E-02 -0.6225586E-02
  0.9166667E+00 -0.9321733E-03  0.8239746E-03  0.4917432E+05  0.2264947E+05  0.2590110E-01 -0.2258301E-02
  0.9476191E+00 -0.8952845E-02 -0.2166748E-02  0.4803029E+05  0.2376282E+05 -0.9983389E-02 -0.4760742E-02
  0.9785714E+00 -0.4927364E-02  0.8239746E-03  0.4688220E+05  0.2482258E+05  0.6549028E-02 -0.1425171E-01
  0.1009524E+01  0.0000000E+00 -0.1525879E-02  0.4574006E+05  0.2582741E+05 -0.3567102E-02  0.2990723E-02
  0.1040476E+01 -0.2698396E-02  0.1037598E-02  0.4462009E+05  0.2676834E+05  0.4810185E-02 -0.2319336E-02
  0.1071429E+01 -0.4101563E-02 -0.6835938E-02  0.4352556E+05  0.2764422E+05  0.2164714E-02 -0.2990723E-02
  0.1102381E+01 -0.8858666E-03  0.3540039E-02  0.4245446E+05  0.2845301E+05 -0.7806699E-02  0.7934570E-03
  0.1133333E+01  0.1330207E-01  0.2319336E-02  0.4140072E+05  0.2919687E+05  0.9532255E-02  0.3662109E-02
  0.1164286E+01 -0.3355061E-02 -0.2441406E-02  0.4036878E+05  0.2987473E+05  0.1113985E-01  0.1800537E-02
  0.1195238E+01 -0.6434224E-02 -0.7324219E-03  0.3937078E+05  0.3047688E+05 -0.8272573E-02  0.8544922E-03
  0.1226190E+01 -0.2538589E-02 -0.7934570E-03  0.3840907E+05  0.3101049E+05  0.1343959E-02  0.5493164E-03
  0.1257143E+01  0.9904341E-02  0.4577637E-02  0.3749378E+05  0.3148854E+05 -0.2121665E-01 -0.3051758E-02
  0.1288095E+01  0.2369202E-03  0.2197266E-02  0.3662779E+05  0.3186401E+05 -0.6728534E-02 -0.8483887E-02
  0.1319048E+01 -0.3100233E-02  0.4760742E-02  0.3579466E+05  0.3219475E+05  0.1897158E-02  0.4394531E-02
  0.1350000E+01 -0.6013093E-02 -0.2380371E-02  0.3501601E+05  0.3245980E+05  0.1051161E-01 -0.3479004E-02
  0.1380952E+01  0.9502543E-03  0.1104736E-01  0.3428245E+05  0.3265612E+05  0.9215256E-02 -0.1525879E-02
  0.1411905E+01  0.5922365E-02 -0.6530762E-02  0.3361403E+05  0.3287152E+05  0.1080724E-02 -0.1068115E-01
  0.1442857E+01 -0.2622699E-02  0.5859375E-02  0.3297081E+05  0.3297241E+05  0.1013123E-01  0.9460449E-02
  0.1473810E+01 -0.4886756E-02  0.2746582E-02  0.3236546E+05  0.3302179E+05  0.2408177E-01  0.1556396E-01
  0.1504762E+01  0.1663015E-02  0.4638672E-02  0.3180996E+05  0.3303211E+05 -0.1764418E-01 -0.4272461E-03
  0.1535714E+01  0.3537200E-02  0.9094238E-02  0.3128180E+05  0.3300613E+05  0.7551326E-03 -0.6164551E-02
  0.1566667E+01 -0.5259412E-03 -0.6164551E-02  0.3081624E+05  0.3293935E+05  0.7246301E-02  0.2929688E-02
  0.1597619E+01 -0.7850885E-02 -0.5615234E-02  0.3038717E+05  0.3283707E+05  0.1434554E-01 -0.2075195E-02
  0.1628572E+01  0.5902742E-02  0.3784180E-02  0.2999523E+05  0.3271834E+05 -0.2005058E-01 -0.2014160E-02
  0.1659524E+01  0.3107802E-02 -0.8239746E-02  0.2965351E+05  0.3258665E+05  0.5939763E-02 -0.7690430E-02
  0.1690476E+01  0.6607270E-02 -0.3173828E-02  0.2934814E+05  0.3243065E+05  0.8304219E-03  0.3967285E-02
  0.1721429E+01 -0.6523924E-02 -0.4211426E-02  0.2908047E+05  0.3228191E+05 -0.4166093E-02 -0.9521484E-02
  0.1752381E+01  0.5990734E-02  0.5187988E-02  0.2883615E+05  0.3213775E+05 -0.7819301E-02  0.3601074E-02
  0.1783333E+01 -0.4415066E-02 -0.7812500E-02  0.2861846E+05  0.3200910E+05  0.2222935E-01  0.7934570E-03
  0.1814286E+01 -0.2960446E-02  0.3906250E-02  0.2843601E+05  0.3189303E+05  0.1126988E-01 -0.4882812E-03
  0.1845238E+01 -0.4465411E-03 -0.2502441E-02  0.2827254E+05  0.3179371E+05  0.1872165E-01 -0.1263428E-01
  0.1876190E+01 -0.2195871E-02 -0.1770020E-02  0.2811852E+05  0.3173327E+05 -0.1663983E-01 -0.2014160E-02
  0.1907143E+01  0.9601036E-03 -0.3601074E-02  0.2799081E+05  0.3170390E+05 -0.5168558E-02  0.1000977E-01
  0.1938095E+01  0.6455930E-03 -0.6103516E-03  0.2786839E+05  0.3170414E+05  0.2235956E-02  0.9399414E-02
  0.1969048E+01  0.1735849E-02  0.1336670E-01  0.2775061E+05  0.3174309E+05 -0.7268867E-02  0.6103516E-03
  0.2000000E+01 -0.1846313E-02  0.4760742E-02  0.2762684E+05  0.3184443E+05  0.2578735E-02  0.2014160E-02
Zone t="Motion of body    1 in DoF   3",I=    64,F=POINT
  0.5000000E-01 -0.2664549E+06 -0.1630097E-01 -0.8106232E-02  0.3480195E-04  0.7926052E+06  0.2523523E-01
  0.8095238E-01 -0.2683228E+06 -0.7102453E-01  0.3331577E-01  0.9733482E-04  0.7944512E+06  0.1092609E+00
  0.1119048E+00 -0.2685679E+06 -0.1986309E+00 -0.2345308E-01 -0.1794887E-03  0.7946291E+06  0.3032895E+00
  0.1428571E+00 -0.2688179E+06 -0.4456854E+00 -0.3722382E-01 -0.2616743E-03  0.7947988E+06  0.6765053E+00
  0.1738095E+00 -0.2689360E+06 -0.8865947E+00  0.1958821E-01  0.1237076E-03  0.7949831E+06  0.1346973E+01
  0.2047619E+00 -0.2691752E+06 -0.1632177E+01 -0.3385056E-01 -0.4080241E-03  0.7951572E+06  0.2476840E+01
  0.2357143E+00 -0.2693744E+06 -0.2862428E+01  0.1356183E-01  0.3807247E-03  0.7954261E+06  0.4336289E+01
  0.2666667E+00 -0.2696047E+06 -0.4867972E+01  0.1896858E-01  0.2476573E-03  0.7957484E+06  0.7350423E+01
  0.2976190E+00 -0.2698685E+06 -0.8126250E+01 -0.2695496E-01 -0.1230534E-02  0.7959576E+06  0.1223759E+02
  0.3285715E+00 -0.2702390E+06 -0.1338162E+02 -0.1380423E-01 -0.8801557E-03  0.7963459E+06  0.2010498E+02
  0.3595238E+00 -0.2705222E+06 -0.2187238E+02  0.5156662E-02  0.4584119E-03  0.7967059E+06  0.3274435E+02
  0.3904762E+00 -0.2708899E+06 -0.3545881E+02 -0.1139106E-01 -0.2328753E-03  0.7970898E+06  0.5287085E+02
  0.4214286E+00 -0.2713895E+06 -0.5668752E+02  0.4105907E-01  0.2271056E-02  0.7976867E+06  0.8422552E+02
  0.4523810E+00 -0.2718131E+06 -0.8987206E+02  0.4924573E-01  0.3205627E-02  0.7982652E+06  0.1329759E+03
  0.4833333E+00 -0.2723840E+06 -0.1389106E+03  0.3109636E-01  0.2755523E-02  0.7988502E+06  0.2044960E+03
  0.5142857E+00 -0.2731062E+06 -0.2111428E+03  0.2956603E-01  0.3985703E-02  0.7996608E+06  0.3094282E+03
  0.5452381E+00 -0.2739304E+06 -0.3131466E+03  0.4120873E-01  0.3263831E-02  0.8005549E+06  0.4567542E+03
  0.5761905E+00 -0.2746364E+06 -0.4532593E+03  0.6666892E-01  0.1274276E-01  0.8014348E+06  0.6575771E+03
  0.6071429E+00 -0.2754547E+06 -0.6443829E+03 -0.2266917E-01 -0.3608465E-02  0.8024013E+06  0.9292109E+03
  0.6380953E+00 -0.2765110E+06 -0.8953824E+03 -0.4586519E-01 -0.8739710E-02  0.8034466E+06  0.1283371E+04
  0.6690477E+00 -0.2775609E+06 -0.1221996E+04  0.3484868E-01  0.8656025E-02  0.8045860E+06  0.1741151E+04
  0.7000000E+00 -0.2785637E+06 -0.1642224E+04 -0.3808158E-01 -0.1521063E-01  0.8058419E+06  0.2325400E+04
  0.7309524E+00 -0.2797931E+06 -0.2173453E+04 -0.1002010E-02  0.4949570E-03  0.8071761E+06  0.3055676E+04
  0.7619048E+00 -0.2809248E+06 -0.2837221E+04 -0.4602241E-01 -0.1204491E-01  0.8083893E+06  0.3958930E+04
  0.7928572E+00 -0.2822183E+06 -0.3657928E+04 -0.2240155E-01  0.7791519E-03  0.8097081E+06  0.5065522E+04
  0.8238096E+00 -0.2835536E+06 -0.4660566E+04  0.8723970E-02  0.4970551E-02  0.8109886E+06  0.6403608E+04
  0.8547620E+00 -0.2849068E+06 -0.5870282E+04  0.8229544E-02  0.1321793E-02  0.8123782E+06  0.8003649E+04
  0.8857143E+00 -0.2862552E+06 -0.7318607E+04 -0.1791677E-01 -0.2437592E-02  0.8137748E+06  0.9896418E+04
  0.9166667E+00 -0.2875124E+06 -0.9036044E+04 -0.1588024E-01  0.7724762E-02  0.8150178E+06  0.1210843E+05
  0.9476191E+00 -0.2888009E+06 -0.1105437E+05  0.2309061E-01  0.1042557E-01  0.8160764E+06  0.1466979E+05
  0.9785714E+00 -0.2901623E+06 -0.1340188E+05 -0.5482472E-01 -0.2297592E-01  0.8172187E+06  0.1761677E+05
  0.1009524E+01 -0.2912660E+06 -0.1610068E+05  0.7194663E-02  0.3936768E-02  0.8180366E+06  0.2096014E+05
  0.1040476E+01 -0.2923739E+06 -0.1918079E+05  0.4141452E-01  0.2649689E-01  0.8187422E+06  0.2472325E+05
  0.1071429E+01 -0.2932262E+06 -0.2265957E+05  0.3050537E-01  0.6675720E-02  0.8192284E+06  0.2890628E+05
  0.1102381E+01 -0.2939097E+06 -0.2654861E+05 -0.6671683E-02 -0.5371094E-02  0.8192643E+06  0.3350179E+05
  0.1133333E+01 -0.2943783E+06 -0.3085993E+05 -0.3592099E-01 -0.2894592E-01  0.8191895E+06  0.3850882E+05
  0.1164286E+01 -0.2944642E+06 -0.3558413E+05 -0.1549095E-01  0.5813599E-02  0.8186115E+06  0.4388442E+05
  0.1195238E+01 -0.2944180E+06 -0.4071294E+05 -0.2678373E-01 -0.1696777E-01  0.8176705E+06  0.4960265E+05
  0.1226190E+01 -0.2938894E+06 -0.4620958E+05  0.3733218E-03  0.2206421E-01  0.8163103E+06  0.5559812E+05
  0.1257143E+01 -0.2929788E+06 -0.5201061E+05 -0.3932606E-01 -0.4290771E-01  0.8143921E+06  0.6179739E+05
  0.1288095E+01 -0.2918839E+06 -0.5810309E+05  0.1627642E-01 -0.1068115E-02  0.8121859E+06  0.6814754E+05
  0.1319048E+01 -0.2901709E+06 -0.6435799E+05 -0.2399210E-01 -0.2618408E-01  0.8094192E+06  0.7448936E+05
  0.1350000E+01 -0.2881215E+06 -0.7073384E+05 -0.2002857E-01 -0.3448486E-02  0.8063668E+06  0.8077520E+05
  0.1380952E+01 -0.2857192E+06 -0.7711512E+05  0.1080638E-01  0.7324219E-03  0.8028499E+06  0.8683968E+05
  0.1411905E+01 -0.2834936E+06 -0.8359842E+05 -0.3847376E-02 -0.2471924E-01  0.7993392E+06  0.9290361E+05
  0.1442857E+01 -0.2802559E+06 -0.8973822E+05  0.1324040E-01  0.3482056E-01  0.7951778E+06  0.9823082E+05
  0.1473810E+01 -0.2767108E+06 -0.9555089E+05  0.3000386E-01  0.1702881E-01  0.7904848E+06  0.1029367E+06
  0.1504762E+01 -0.2729704E+06 -0.1010276E+06 -0.1001865E-01 -0.2069092E-01  0.7860007E+06  0.1071468E+06
  0.1535714E+01 -0.2688117E+06 -0.1059729E+06 -0.3179506E-02 -0.1055908E-01  0.7810249E+06  0.1105124E+06
  0.1566667E+01 -0.2647461E+06 -0.1104627E+06 -0.1129800E-01 -0.1617432E-01  0.7764422E+06  0.1133359E+06
  0.1597619E+01 -0.2604979E+06 -0.1142943E+06  0.2636064E-02 -0.1159668E-02  0.7716136E+06  0.1152363E+06
  0.1628572E+01 -0.2561374E+06 -0.1175201E+06  0.5190665E-02  0.3088379E-01  0.7669875E+06  0.1163601E+06
  0.1659524E+01 -0.2518669E+06 -0.1201155E+06 -0.1110717E-01 -0.9460449E-02  0.7626514E+06  0.1167857E+06
  0.1690476E+01 -0.2476393E+06 -0.1219485E+06 -0.1418036E-01 -0.3356934E-02  0.7582041E+06  0.1162307E+06
  0.1721429E+01 -0.2436583E+06 -0.1232417E+06  0.1931472E-01  0.3302002E-01  0.7543928E+06  0.1152605E+06
  0.1752381E+01 -0.2397275E+06 -0.1238349E+06 -0.1789383E-01  0.3540039E-02  0.7507124E+06  0.1135169E+06
  0.1783333E+01 -0.2359803E+06 -0.1238623E+06 -0.1292006E-02  0.3210449E-01  0.7473715E+06  0.1112364E+06
  0.1814286E+01 -0.2325877E+06 -0.1233947E+06  0.9045338E-02 -0.8361816E-02  0.7445290E+06  0.1085615E+06
  0.1845238E+01 -0.2293559E+06 -0.1223222E+06 -0.7399196E-02  0.3173828E-02  0.7417919E+06  0.1052267E+06
  0.1876190E+01 -0.2262956E+06 -0.1208344E+06  0.2961377E-02 -0.7507324E-02  0.7394754E+06  0.1015975E+06
  0.1907143E+01 -0.2235704E+06 -0.1189955E+06  0.2617883E-01  0.1776123E-01  0.7376193E+06  0.9785796E+05
  0.1938095E+01 -0.2210285E+06 -0.1166185E+06 -0.1001063E-01 -0.2185059E-01  0.7357816E+06  0.9350755E+05
  0.1969048E+01 -0.2188191E+06 -0.1139766E+06  0.1245316E-01  0.3845215E-02  0.7342791E+06  0.8897731E+05
  0.2000000E+01 -0.2169395E+06 -0.1113516E+06 -0.2502441E-02  0.7995605E-02  0.7334876E+06  0.8506938E+05
