VARIABLES="w (rad/s)"
"abs(F   1   1)" "angle(F   1   1)"
"abs(F   1   2)" "angle(F   1   2)"
"abs(F   1   3)" "angle(F   1   3)"
Zone t="Diffraction force - beta =   0.000 deg",I=    64,F=POINT
  0.5000000E-01  0.1369818E+04 -0.1570792E+01  0.5982061E+06 -0.3858632E-04  0.4879729E+04 -0.1570807E+01
  0.8095238E-01  0.2231918E+04 -0.1570787E+01  0.5972089E+06 -0.1038181E-03  0.7950123E+04 -0.1570794E+01
  0.1119048E+00  0.3115264E+04 -0.1570792E+01  0.5957455E+06 -0.2062076E-03  0.1109695E+05 -0.1570799E+01
  0.1428571E+00  0.4026408E+04 -0.1570793E+01  0.5938154E+06 -0.3535620E-03  0.1434545E+05 -0.1570794E+01
  0.1738095E+00  0.4977762E+04 -0.1570790E+01  0.5914041E+06 -0.5579825E-03  0.1774120E+05 -0.1570795E+01
  0.2047619E+00  0.5977495E+04 -0.1570785E+01  0.5885124E+06 -0.8364320E-03  0.2131239E+05 -0.1570790E+01
  0.2357143E+00  0.7041974E+04 -0.1570788E+01  0.5851264E+06 -0.1214462E-02  0.2511928E+05 -0.1570783E+01
  0.2666667E+00  0.8184183E+04 -0.1570783E+01  0.5812233E+06 -0.1723301E-02  0.2920951E+05 -0.1570786E+01
  0.2976190E+00  0.9420399E+04 -0.1570776E+01  0.5768187E+06 -0.2414670E-02  0.3364150E+05 -0.1570773E+01
  0.3285715E+00  0.1077235E+05 -0.1570760E+01  0.5718836E+06 -0.3342922E-02  0.3849475E+05 -0.1570764E+01
  0.3595238E+00  0.1226029E+05 -0.1570745E+01  0.5664063E+06 -0.4591051E-02  0.4384644E+05 -0.1570747E+01
  0.3904762E+00  0.1389657E+05 -0.1570722E+01  0.5604079E+06 -0.6256397E-02  0.4973729E+05 -0.1570722E+01
  0.4214286E+00  0.1570273E+05 -0.1570685E+01  0.5539892E+06 -0.8395540E-02  0.5624706E+05 -0.1570687E+01
  0.4523810E+00  0.1769401E+05 -0.1570636E+01  0.5470376E+06 -0.1117196E-01  0.6344110E+05 -0.1570633E+01
  0.4833333E+00  0.1985975E+05 -0.1570561E+01  0.5396956E+06 -0.1451684E-01  0.7127498E+05 -0.1570561E+01
  0.5142857E+00  0.2219630E+05 -0.1570462E+01  0.5320342E+06 -0.1861419E-01  0.7974323E+05 -0.1570463E+01
  0.5452381E+00  0.2469446E+05 -0.1570333E+01  0.5240598E+06 -0.2340809E-01  0.8881163E+05 -0.1570334E+01
  0.5761905E+00  0.2734431E+05 -0.1570169E+01  0.5157315E+06 -0.2890972E-01  0.9845860E+05 -0.1570169E+01
  0.6071429E+00  0.3012028E+05 -0.1569960E+01  0.5071484E+06 -0.3526747E-01  0.1085867E+06 -0.1569960E+01
  0.6380953E+00  0.3300500E+05 -0.1569705E+01  0.4983172E+06 -0.4234051E-01  0.1191392E+06 -0.1569705E+01
  0.6690477E+00  0.3599164E+05 -0.1569396E+01  0.4893512E+06 -0.5028298E-01  0.1300932E+06 -0.1569396E+01
  0.7000000E+00  0.3907071E+05 -0.1569026E+01  0.4802191E+06 -0.5917403E-01  0.1414127E+06 -0.1569027E+01
  0.7309524E+00  0.4222906E+05 -0.1568594E+01  0.4708548E+06 -0.6893506E-01  0.1530532E+06 -0.1568594E+01
  0.7619048E+00  0.4545245E+05 -0.1568094E+01  0.4613786E+06 -0.7965948E-01  0.1649722E+06 -0.1568094E+01
  0.7928572E+00  0.4873514E+05 -0.1567524E+01  0.4518551E+06 -0.9139892E-01  0.1771614E+06 -0.1567524E+01
  0.8238096E+00  0.5205949E+05 -0.1566885E+01  0.4423554E+06 -0.1041787E+00  0.1895391E+06 -0.1566885E+01
  0.8547620E+00  0.5541972E+05 -0.1566179E+01  0.4328432E+06 -0.1180092E+00  0.2020947E+06 -0.1566180E+01
  0.8857143E+00  0.5880530E+05 -0.1565412E+01  0.4232976E+06 -0.1328829E+00  0.2147912E+06 -0.1565412E+01
  0.9166667E+00  0.6220334E+05 -0.1564593E+01  0.4137199E+06 -0.1488082E+00  0.2275852E+06 -0.1564595E+01
  0.9476191E+00  0.6559010E+05 -0.1563738E+01  0.4042325E+06 -0.1658179E+00  0.2403811E+06 -0.1563738E+01
  0.9785714E+00  0.6895267E+05 -0.1562864E+01  0.3948439E+06 -0.1839216E+00  0.2531487E+06 -0.1562866E+01
  0.1009524E+01  0.7228145E+05 -0.1561998E+01  0.3855792E+06 -0.2031367E+00  0.2658507E+06 -0.1562001E+01
  0.1040476E+01  0.7555750E+05 -0.1561170E+01  0.3764803E+06 -0.2234752E+00  0.2784129E+06 -0.1561174E+01
  0.1071429E+01  0.7876685E+05 -0.1560418E+01  0.3675201E+06 -0.2449128E+00  0.2907862E+06 -0.1560421E+01
  0.1102381E+01  0.8189296E+05 -0.1559785E+01  0.3586815E+06 -0.2674326E+00  0.3029030E+06 -0.1559788E+01
  0.1133333E+01  0.8491705E+05 -0.1559320E+01  0.3499599E+06 -0.2910030E+00  0.3146981E+06 -0.1559323E+01
  0.1164286E+01  0.8782159E+05 -0.1559082E+01  0.3413421E+06 -0.3156215E+00  0.3261023E+06 -0.1559085E+01
  0.1195238E+01  0.9058718E+05 -0.1559135E+01  0.3328948E+06 -0.3413041E+00  0.3370382E+06 -0.1559138E+01
  0.1226190E+01  0.9319998E+05 -0.1559552E+01  0.3246131E+06 -0.3680498E+00  0.3474549E+06 -0.1559555E+01
  0.1257143E+01  0.9564901E+05 -0.1560395E+01  0.3165108E+06 -0.3961946E+00  0.3573097E+06 -0.1560398E+01
  0.1288095E+01  0.9791859E+05 -0.1561794E+01  0.3086801E+06 -0.4248041E+00  0.3665498E+06 -0.1561796E+01
  0.1319048E+01  0.1000033E+06 -0.1563790E+01  0.3010201E+06 -0.4547831E+00  0.3751418E+06 -0.1563792E+01
  0.1350000E+01  0.1018886E+06 -0.1566487E+01  0.2935268E+06 -0.4857723E+00  0.3830308E+06 -0.1566488E+01
  0.1380952E+01  0.1035661E+06 -0.1569973E+01  0.2861803E+06 -0.5177026E+00  0.3901736E+06 -0.1569973E+01
  0.1411905E+01  0.1055791E+06 -0.1572573E+01  0.2819920E+06 -0.5390544E+00  0.3987954E+06 -0.1572574E+01
  0.1442857E+01  0.1069143E+06 -0.1577501E+01  0.2750078E+06 -0.5723403E+00  0.4047462E+06 -0.1577501E+01
  0.1473810E+01  0.1080356E+06 -0.1583436E+01  0.2682008E+06 -0.6065990E+00  0.4099167E+06 -0.1583436E+01
  0.1504762E+01  0.1089445E+06 -0.1590460E+01  0.2615923E+06 -0.6418560E+00  0.4143063E+06 -0.1590459E+01
  0.1535714E+01  0.1096412E+06 -0.1598652E+01  0.2551577E+06 -0.6780843E+00  0.4179111E+06 -0.1598651E+01
  0.1566667E+01  0.1101318E+06 -0.1608086E+01  0.2488961E+06 -0.7152648E+00  0.4207424E+06 -0.1608086E+01
  0.1597619E+01  0.1104203E+06 -0.1618826E+01  0.2428028E+06 -0.7533900E+00  0.4228108E+06 -0.1618827E+01
  0.1628572E+01  0.1105279E+06 -0.1630941E+01  0.2369261E+06 -0.7925324E+00  0.4242145E+06 -0.1630944E+01
  0.1659524E+01  0.1104581E+06 -0.1644488E+01  0.2312205E+06 -0.8326265E+00  0.4249545E+06 -0.1644494E+01
  0.1690476E+01  0.1102197E+06 -0.1659507E+01  0.2256706E+06 -0.8736513E+00  0.4250465E+06 -0.1659515E+01
  0.1721429E+01  0.1098204E+06 -0.1676016E+01  0.2202684E+06 -0.9155701E+00  0.4245126E+06 -0.1676026E+01
  0.1752381E+01  0.1092709E+06 -0.1694056E+01  0.2149925E+06 -0.9583279E+00  0.4233882E+06 -0.1694067E+01
  0.1783333E+01  0.1085796E+06 -0.1713633E+01  0.2098366E+06 -0.1001923E+01  0.4216988E+06 -0.1713644E+01
  0.1814286E+01  0.1077621E+06 -0.1734764E+01  0.2048095E+06 -0.1046379E+01  0.4194983E+06 -0.1734779E+01
  0.1845238E+01  0.1068291E+06 -0.1757465E+01  0.1999077E+06 -0.1091679E+01  0.4168299E+06 -0.1757485E+01
  0.1876190E+01  0.1058052E+06 -0.1781767E+01  0.1951743E+06 -0.1137956E+01  0.4138044E+06 -0.1781795E+01
  0.1907143E+01  0.1046969E+06 -0.1807678E+01  0.1905823E+06 -0.1185137E+01  0.4104420E+06 -0.1807715E+01
  0.1938095E+01  0.1035145E+06 -0.1835202E+01  0.1861237E+06 -0.1233287E+01  0.4067703E+06 -0.1835246E+01
  0.1969048E+01  0.1022671E+06 -0.1864295E+01  0.1817938E+06 -0.1282302E+01  0.4028108E+06 -0.1864355E+01
  0.2000000E+01  0.1009578E+06 -0.1894938E+01  0.1775674E+06 -0.1332127E+01  0.3985793E+06 -0.1895013E+01
