VARIABLES="w (rad/s)"
"A   1   1" "B   1   1"
"A   1   2" "B   1   2"
"A   1   3" "B   1   3"
Zone t="Motion of body    1 in DoF   1",I=    64,F=POINT
  0.5000000E-01  0.5578115E+05  0.1975058E-02 -0.5817413E-03 -0.2001325E-05 -0.8333330E+05 -0.2895185E-02
  0.8095238E-01  0.5611090E+05  0.8631013E-02 -0.8835512E-03 -0.3467936E-05 -0.8387638E+05 -0.1274313E-01
  0.1119048E+00  0.5639297E+05  0.2433136E-01  0.1994194E-02  0.7237250E-05 -0.8424348E+05 -0.3592246E-01
  0.1428571E+00  0.5650821E+05  0.5490343E-01 -0.3004074E-02 -0.3157867E-04 -0.8447199E+05 -0.8105010E-01
  0.1738095E+00  0.5666670E+05  0.1095337E+00  0.3687192E-02  0.3807229E-04 -0.8459667E+05 -0.1615016E+00
  0.2047619E+00  0.5671400E+05  0.2025189E+00 -0.1611488E-02 -0.1038460E-04 -0.8468586E+05 -0.2985912E+00
  0.2357143E+00  0.5682016E+05  0.3568140E+00  0.2103863E-02  0.2236548E-04 -0.8481916E+05 -0.5256680E+00
  0.2666667E+00  0.5689374E+05  0.6095580E+00  0.0000000E+00 -0.1062918E-04 -0.8489742E+05 -0.8975160E+00
  0.2976190E+00  0.5708025E+05  0.1025019E+01 -0.4229736E-03  0.2975669E-04 -0.8511323E+05 -0.1508049E+01
  0.3285715E+00  0.5716406E+05  0.1699145E+01  0.1660222E-02 -0.3088918E-04 -0.8524070E+05 -0.2498637E+01
  0.3595238E+00  0.5733088E+05  0.2797673E+01  0.2355512E-02  0.1774728E-04 -0.8544822E+05 -0.4110742E+01
  0.3904762E+00  0.5745418E+05  0.4571030E+01 -0.5080060E-02 -0.2159923E-03 -0.8560441E+05 -0.6711375E+01
  0.4214286E+00  0.5771804E+05  0.7384006E+01  0.6336276E-04  0.1403689E-04 -0.8594963E+05 -0.1083091E+02
  0.4523810E+00  0.5791382E+05  0.1181418E+02 -0.3996999E-02 -0.3866777E-03 -0.8612803E+05 -0.1730468E+02
  0.4833333E+00  0.5816631E+05  0.1845024E+02  0.2399313E-02  0.9588152E-04 -0.8642350E+05 -0.2699006E+02
  0.5142857E+00  0.5841042E+05  0.2834241E+02  0.3412035E-03 -0.2503395E-04 -0.8676366E+05 -0.4142180E+02
  0.5452381E+00  0.5868854E+05  0.4252296E+02 -0.5233299E-02 -0.4407465E-03 -0.8717792E+05 -0.6209446E+02
  0.5761905E+00  0.5906293E+05  0.6236303E+02  0.2105334E-02  0.1868010E-03 -0.8758071E+05 -0.9089629E+02
  0.6071429E+00  0.5936644E+05  0.8973969E+02  0.2387552E-03 -0.1486838E-03 -0.8794610E+05 -0.1306066E+03
  0.6380953E+00  0.5972047E+05  0.1263582E+03 -0.1279347E-02 -0.5557537E-03 -0.8842755E+05 -0.1836656E+03
  0.6690477E+00  0.6015148E+05  0.1750159E+03 -0.1322790E-02  0.5960464E-05 -0.8903841E+05 -0.2540866E+03
  0.7000000E+00  0.6054404E+05  0.2387426E+03 -0.2212524E-02 -0.4351139E-03 -0.8951473E+05 -0.3459984E+03
  0.7309524E+00  0.6102051E+05  0.3209789E+03  0.1148137E-03 -0.8249283E-04 -0.9007670E+05 -0.4642273E+03
  0.7619048E+00  0.6157660E+05  0.4262560E+03  0.3394603E-02  0.3364086E-03 -0.9078083E+05 -0.6153165E+03
  0.7928572E+00  0.6206469E+05  0.5589668E+03 -0.1645475E-02 -0.3674030E-03 -0.9141782E+05 -0.8054769E+03
  0.8238096E+00  0.6263059E+05  0.7253773E+03  0.2889468E-02  0.3876686E-03 -0.9220043E+05 -0.1043619E+04
  0.8547620E+00  0.6320767E+05  0.9316048E+03 -0.5176937E-03 -0.2574921E-03 -0.9294821E+05 -0.1337699E+04
  0.8857143E+00  0.6391579E+05  0.1186524E+04  0.8786109E-03  0.4620552E-03 -0.9383713E+05 -0.1699841E+04
  0.9166667E+00  0.6456861E+05  0.1497003E+04  0.2446955E-02  0.1832008E-02 -0.9459245E+05 -0.2138869E+04
  0.9476191E+00  0.6529440E+05  0.1874145E+04 -0.7246007E-03 -0.9584427E-03 -0.9553482E+05 -0.2671846E+04
  0.9785714E+00  0.6603141E+05  0.2327852E+04 -0.3118585E-02 -0.1585960E-02 -0.9645927E+05 -0.3310536E+04
  0.1009524E+01  0.6685484E+05  0.2871933E+04 -0.1828896E-02 -0.4367828E-03 -0.9750020E+05 -0.4074063E+04
  0.1040476E+01  0.6767449E+05  0.3517876E+04 -0.1759824E-03 -0.2326965E-03 -0.9858443E+05 -0.4979232E+04
  0.1071429E+01  0.6845945E+05  0.4278766E+04 -0.1167806E-02 -0.4577637E-03 -0.9955242E+05 -0.6039888E+04
  0.1102381E+01  0.6937088E+05  0.5177412E+04 -0.2214666E-03  0.1779556E-02 -0.1007268E+06 -0.7289724E+04
  0.1133333E+01  0.7024178E+05  0.6225209E+04 -0.1615636E-03  0.7324219E-03 -0.1017083E+06 -0.8734621E+04
  0.1164286E+01  0.7119374E+05  0.7447029E+04 -0.2123125E-02 -0.6656647E-03 -0.1028226E+06 -0.1041401E+05
  0.1195238E+01  0.7211847E+05  0.8857286E+04 -0.1187267E-02 -0.2239227E-02 -0.1039655E+06 -0.1234981E+05
  0.1226190E+01  0.7296317E+05  0.1046951E+05  0.8710843E-03  0.3814697E-03 -0.1049222E+06 -0.1454754E+05
  0.1257143E+01  0.7371288E+05  0.1229475E+05 -0.2488223E-02 -0.3402710E-02 -0.1058364E+06 -0.1703413E+05
  0.1288095E+01  0.7464724E+05  0.1440651E+05 -0.2748274E-02 -0.2452850E-02 -0.1069256E+06 -0.1989145E+05
  0.1319048E+01  0.7541938E+05  0.1676385E+05 -0.1793045E-02 -0.4196167E-03 -0.1077749E+06 -0.2306387E+05
  0.1350000E+01  0.7617780E+05  0.1941429E+05 -0.8251049E-03 -0.1129150E-02 -0.1086154E+06 -0.2661689E+05
  0.1380952E+01  0.7680938E+05  0.2235927E+05 -0.1204392E-02 -0.1525879E-04 -0.1092850E+06 -0.3054582E+05
  0.1411905E+01  0.7718968E+05  0.2558554E+05  0.4322895E-04 -0.4272461E-03 -0.1095631E+06 -0.3481600E+05
  0.1442857E+01  0.7756297E+05  0.2914759E+05 -0.4653175E-03 -0.3890991E-03 -0.1097855E+06 -0.3949359E+05
  0.1473810E+01  0.7782355E+05  0.3303664E+05 -0.1697941E-02 -0.3555298E-02 -0.1098984E+06 -0.4458291E+05
  0.1504762E+01  0.7782197E+05  0.3719855E+05 -0.2129470E-02 -0.5783081E-02 -0.1096071E+06 -0.4997729E+05
  0.1535714E+01  0.7766644E+05  0.4165380E+05 -0.7551326E-03 -0.1113892E-02 -0.1091164E+06 -0.5571319E+05
  0.1566667E+01  0.7732094E+05  0.4637927E+05 -0.1753137E-02 -0.2212524E-02 -0.1084128E+06 -0.6176960E+05
  0.1597619E+01  0.7666680E+05  0.5128420E+05 -0.1337134E-03  0.1129150E-02 -0.1073084E+06 -0.6800466E+05
  0.1628572E+01  0.7569593E+05  0.5629720E+05 -0.5809048E-03  0.2532959E-02 -0.1057356E+06 -0.7428891E+05
  0.1659524E+01  0.7452113E+05  0.6143830E+05  0.6436275E-04  0.3997803E-02 -0.1039325E+06 -0.8068804E+05
  0.1690476E+01  0.7313837E+05  0.6665160E+05 -0.1805265E-04 -0.8392334E-03 -0.1019305E+06 -0.8714962E+05
  0.1721429E+01  0.7145422E+05  0.7177909E+05 -0.9927710E-03 -0.1724243E-02 -0.9947238E+05 -0.9337398E+05
  0.1752381E+01  0.6957405E+05  0.7681826E+05  0.5224477E-03 -0.1602173E-02 -0.9674344E+05 -0.9937559E+05
  0.1783333E+01  0.6750927E+05  0.8171748E+05  0.6331684E-03  0.2731323E-02 -0.9378778E+05 -0.1051052E+06
  0.1814286E+01  0.6527573E+05  0.8640707E+05  0.1631609E-02  0.1922607E-02 -0.9068590E+05 -0.1105236E+06
  0.1845238E+01  0.6282723E+05  0.9073617E+05 -0.1835780E-02 -0.0000000E+00 -0.8734548E+05 -0.1154088E+06
  0.1876190E+01  0.6022428E+05  0.9464522E+05 -0.1520844E-02 -0.3051758E-02 -0.8379902E+05 -0.1196347E+06
  0.1907143E+01  0.5755720E+05  0.9818417E+05 -0.1760190E-03 -0.3143311E-02 -0.8022830E+05 -0.1233481E+06
  0.1938095E+01  0.5486773E+05  0.1013474E+06  0.6298468E-04  0.3128052E-02 -0.7672591E+05 -0.1266060E+06
  0.1969048E+01  0.5217236E+05  0.1040591E+06  0.6199460E-03  0.3051758E-03 -0.7323057E+05 -0.1292082E+06
  0.2000000E+01  0.4944895E+05  0.1062331E+06  0.2365112E-03 -0.3875732E-02 -0.6970383E+05 -0.1310330E+06
Zone t="Motion of body    1 in DoF   2",I=    64,F=POINT
  0.5000000E-01  0.1010895E-02 -0.9596348E-05  0.2452385E+05  0.3044857E+02 -0.2670288E-02  0.9894371E-05
  0.8095238E-01  0.1731760E-02  0.8344650E-06  0.2442567E+05  0.5047423E+02 -0.1036700E-02 -0.1668930E-05
  0.1119048E+00  0.2045327E-03 -0.1502037E-04  0.2431269E+05  0.7225099E+02  0.8181308E-03  0.1740456E-04
  0.1428571E+00 -0.1722336E-02 -0.4768372E-06  0.2428994E+05  0.9662624E+02 -0.1495361E-02  0.1358986E-04
  0.1738095E+00  0.2227679E-02  0.1120567E-04  0.2424734E+05  0.1245850E+03 -0.1360749E-02  0.3528595E-04
  0.2047619E+00  0.1723267E-02 -0.2789497E-04  0.2424404E+05  0.1574616E+03 -0.6222392E-02  0.4196167E-04
  0.2357143E+00 -0.5664247E-03 -0.1859665E-04  0.2431300E+05  0.1970402E+03 -0.3430915E-02  0.4768372E-06
  0.2666667E+00  0.1215935E-02 -0.6389618E-04  0.2430006E+05  0.2448331E+03 -0.2288818E-02 -0.3004074E-04
  0.2976190E+00  0.2691651E-02 -0.4482269E-04  0.2439080E+05  0.3043029E+03 -0.5332031E-02 -0.6103516E-04
  0.3285715E+00  0.2426479E-02 -0.9155273E-04  0.2439437E+05  0.3772191E+03 -0.4179581E-02  0.1821518E-03
  0.3595238E+00  0.1188367E-02  0.2384186E-04  0.2450107E+05  0.4676529E+03 -0.3140683E-02  0.7247925E-04
  0.3904762E+00  0.3165268E-02 -0.4768372E-05  0.2448463E+05  0.5786667E+03  0.1641250E-02  0.1716614E-03
  0.4214286E+00 -0.6336276E-03  0.9346008E-04  0.2453161E+05  0.7091122E+03 -0.2498303E-02  0.3585815E-03
  0.4523810E+00  0.8263838E-03 -0.1468658E-03  0.2451060E+05  0.8659937E+03 -0.4587274E-02 -0.2079010E-03
  0.4833333E+00  0.4419787E-03 -0.3242493E-04  0.2446549E+05  0.1035474E+04 -0.2715012E-02  0.6179810E-03
  0.5142857E+00  0.1053280E-02  0.3719330E-03  0.2442616E+05  0.1226050E+04 -0.1127455E-02 -0.7247925E-04
  0.5452381E+00  0.3414237E-02  0.1640320E-03  0.2428919E+05  0.1427515E+04 -0.2070931E-02 -0.7209778E-03
  0.5761905E+00  0.3733989E-02  0.1144409E-04  0.2421725E+05  0.1634729E+04 -0.1112252E-02 -0.8087158E-03
  0.6071429E+00  0.5529067E-03  0.5531311E-03  0.2404169E+05  0.1854374E+04 -0.3317440E-02 -0.1220703E-03
  0.6380953E+00  0.3467389E-03  0.4577637E-03  0.2386197E+05  0.2071358E+04 -0.2582607E-02  0.3738403E-03
  0.6690477E+00 -0.1060513E-02 -0.9536743E-04  0.2374751E+05  0.2290683E+04 -0.9578827E-03 -0.5187988E-03
  0.7000000E+00  0.3062657E-02  0.3738403E-03  0.2351573E+05  0.2514335E+04 -0.2397810E-02  0.3433228E-03
  0.7309524E+00  0.6680069E-03  0.6179810E-03  0.2329018E+05  0.2733848E+04 -0.2379774E-02  0.1106262E-02
  0.7619048E+00  0.2373218E-02 -0.5111694E-03  0.2311329E+05  0.2949370E+04 -0.3765106E-02 -0.5340576E-03
  0.7928572E+00  0.9045299E-03  0.6713867E-03  0.2291143E+05  0.3159591E+04 -0.4426423E-02 -0.1388550E-02
  0.8238096E+00  0.2815379E-02 -0.3051758E-04  0.2264074E+05  0.3365137E+04 -0.4334202E-02  0.8773804E-03
  0.8547620E+00  0.1785151E-02  0.1296997E-02  0.2240322E+05  0.3560119E+04 -0.5284046E-02  0.5416870E-03
  0.8857143E+00 -0.1033660E-03  0.5187988E-03  0.2221244E+05  0.3743534E+04  0.6891066E-04 -0.6027222E-03
  0.9166667E+00  0.9238503E-03 -0.8316040E-03  0.2198419E+05  0.3913303E+04  0.2330433E-03  0.2136230E-03
  0.9476191E+00  0.1264026E-02 -0.4119873E-03  0.2170892E+05  0.4072616E+04 -0.6473100E-02  0.1373291E-02
  0.9785714E+00  0.3095195E-02  0.1464844E-02  0.2145928E+05  0.4215627E+04 -0.1808779E-02  0.3356934E-03
  0.1009524E+01  0.3090985E-02 -0.5493164E-03  0.2125193E+05  0.4341611E+04 -0.8827066E-02 -0.1220703E-03
  0.1040476E+01  0.2346432E-02 -0.1342773E-02  0.2109483E+05  0.4449227E+04 -0.2727727E-02  0.1037598E-02
  0.1071429E+01  0.1908366E-02  0.1159668E-02  0.2081095E+05  0.4537427E+04 -0.4158529E-02 -0.1266479E-02
  0.1102381E+01  0.9273916E-03  0.5798340E-03  0.2056764E+05  0.4611226E+04 -0.2214666E-03 -0.1571655E-02
  0.1133333E+01  0.2113791E-02 -0.1388550E-02  0.2035374E+05  0.4664952E+04 -0.6354837E-02  0.1083374E-02
  0.1164286E+01  0.2208312E-02  0.7171631E-03  0.2018231E+05  0.4701647E+04 -0.1572685E-02  0.7629395E-04
  0.1195238E+01  0.1780901E-02  0.7629395E-04  0.2006232E+05  0.4721423E+04 -0.2093676E-02 -0.1937866E-02
  0.1226190E+01  0.1107521E-02 -0.1358032E-02  0.1984124E+05  0.4711220E+04 -0.3086127E-02  0.2304077E-02
  0.1257143E+01  0.1335144E-02  0.1922607E-02  0.1964429E+05  0.4692015E+04 -0.1553622E-02 -0.2899170E-02
  0.1288095E+01  0.2902272E-02  0.1007080E-02  0.1946805E+05  0.4652436E+04 -0.6207309E-02  0.3707886E-02
  0.1319048E+01  0.3166749E-02  0.1770020E-02  0.1933036E+05  0.4600491E+04 -0.4858574E-02 -0.6225586E-02
  0.1350000E+01 -0.8759675E-04  0.6256104E-03  0.1923077E+05  0.4538191E+04  0.9946469E-03 -0.4425049E-03
  0.1380952E+01  0.2383923E-02 -0.2288818E-03  0.1918132E+05  0.4469597E+04 -0.4684974E-02 -0.1876831E-02
  0.1411905E+01  0.7024704E-03  0.1220703E-02  0.1903304E+05  0.4355550E+04 -0.3588002E-02  0.5340576E-03
  0.1442857E+01  0.1062828E-02 -0.2441406E-03  0.1890499E+05  0.4239637E+04 -0.4526271E-02 -0.8850098E-03
  0.1473810E+01  0.2005951E-03 -0.5950928E-03  0.1879751E+05  0.4115812E+04 -0.6626110E-03  0.2593994E-03
  0.1504762E+01  0.1276415E-02  0.7629395E-04  0.1871981E+05  0.3986063E+04 -0.3731643E-02  0.9155273E-04
  0.1535714E+01  0.1557771E-02 -0.2166748E-02  0.1867316E+05  0.3858116E+04 -0.3735919E-02  0.4211426E-02
  0.1566667E+01  0.1193107E-02  0.1068115E-03  0.1865881E+05  0.3736169E+04 -0.2025848E-02  0.1266479E-02
  0.1597619E+01  0.9765852E-03 -0.1052856E-02  0.1868293E+05  0.3625864E+04 -0.2024803E-02  0.3479004E-02
  0.1628572E+01  0.1789561E-02  0.5340576E-03  0.1860875E+05  0.3431711E+04 -0.5059493E-02 -0.5722046E-03
  0.1659524E+01  0.1884909E-02  0.7629395E-04  0.1855467E+05  0.3251929E+04 -0.3273306E-02  0.1220703E-02
  0.1690476E+01  0.6972837E-03 -0.1739502E-02  0.1851974E+05  0.3081910E+04 -0.2780108E-02  0.1045227E-02
  0.1721429E+01  0.1358412E-02 -0.1983643E-03  0.1850111E+05  0.2912075E+04 -0.3261962E-02  0.5493164E-03
  0.1752381E+01  0.1367072E-02 -0.4577637E-04  0.1850682E+05  0.2758224E+04 -0.1915642E-02  0.2166748E-02
  0.1783333E+01  0.1343344E-02 -0.1678467E-03  0.1852944E+05  0.2624537E+04 -0.3285631E-02  0.3105164E-02
  0.1814286E+01  0.8115994E-03 -0.1464844E-02  0.1857252E+05  0.2514036E+04 -0.1951203E-02  0.8544922E-03
  0.1845238E+01  0.2145878E-02  0.2563477E-02  0.1863738E+05  0.2430179E+04 -0.4002331E-02 -0.5004883E-02
  0.1876190E+01  0.9352786E-03  0.9155273E-03  0.1863326E+05  0.2221609E+04 -0.2765171E-02 -0.3417969E-02
  0.1907143E+01  0.9200993E-03  0.3097534E-02  0.1863562E+05  0.2027724E+04 -0.1792193E-02 -0.8392334E-03
  0.1938095E+01  0.1007755E-02  0.5035400E-03  0.1865136E+05  0.1868021E+04 -0.2267449E-02 -0.2227783E-02
  0.1969048E+01  0.1042284E-02  0.1068115E-02  0.1867265E+05  0.1710880E+04 -0.2727762E-02  0.8277893E-03
  0.2000000E+01  0.1510620E-02  0.3341675E-02  0.1870738E+05  0.1577662E+04 -0.3814697E-02 -0.3131866E-02
Zone t="Motion of body    1 in DoF   3",I=    64,F=POINT
  0.5000000E-01 -0.8346201E+05 -0.2899649E-02 -0.3089905E-02 -0.7724073E-05  0.1499600E+06  0.4221908E-02
  0.8095238E-01 -0.8398792E+05 -0.1279778E-01 -0.9984128E-02 -0.2537276E-04  0.1509217E+06  0.1889906E-01
  0.1119048E+00 -0.8436409E+05 -0.3600521E-01  0.4261098E-05  0.8353716E-05  0.1513145E+06  0.5318636E-01
  0.1428571E+00 -0.8458377E+05 -0.8131279E-01  0.2326488E-02  0.4643021E-05  0.1516548E+06  0.1200340E+00
  0.1738095E+00 -0.8472962E+05 -0.1621021E+00 -0.6255058E-03 -0.1977378E-04  0.1517446E+06  0.2389683E+00
  0.2047619E+00 -0.8481798E+05 -0.2995604E+00 -0.6869782E-02 -0.3159617E-04  0.1518905E+06  0.4415881E+00
  0.2357143E+00 -0.8494496E+05 -0.5276096E+00  0.1205675E-02 -0.5712686E-04  0.1520612E+06  0.7772822E+00
  0.2666667E+00 -0.8502786E+05 -0.9009933E+00  0.1019239E-02  0.4366878E-04  0.1521416E+06  0.1326801E+01
  0.2976190E+00 -0.8524745E+05 -0.1513649E+01 -0.5774231E-02 -0.1417138E-03  0.1524255E+06  0.2226932E+01
  0.3285715E+00 -0.8537502E+05 -0.2507246E+01 -0.6948553E-02 -0.1056492E-04  0.1525788E+06  0.3687041E+01
  0.3595238E+00 -0.8557620E+05 -0.4125557E+01 -0.1708277E-02  0.3170408E-04  0.1528607E+06  0.6062587E+01
  0.3904762E+00 -0.8574045E+05 -0.6734712E+01  0.5055637E-02  0.4489459E-03  0.1530440E+06  0.9888457E+01
  0.4214286E+00 -0.8608368E+05 -0.1086858E+02  0.2127178E-03  0.2397560E-03  0.1535044E+06  0.1594241E+02
  0.4523810E+00 -0.8627484E+05 -0.1737222E+02  0.1019488E-01  0.6865337E-03  0.1536918E+06  0.2544578E+02
  0.4833333E+00 -0.8657666E+05 -0.2709931E+02  0.1194921E-01  0.1123086E-02  0.1540684E+06  0.3964281E+02
  0.5142857E+00 -0.8690002E+05 -0.4157998E+02 -0.2544191E-02 -0.2330542E-04  0.1545012E+06  0.6076843E+02
  0.5452381E+00 -0.8731762E+05 -0.6230544E+02  0.1359398E-01  0.1454204E-02  0.1550776E+06  0.9098072E+02
  0.5761905E+00 -0.8773723E+05 -0.9125359E+02 -0.2694563E-02 -0.1502633E-03  0.1555755E+06  0.1330043E+03
  0.6071429E+00 -0.8809979E+05 -0.1311306E+03  0.8972167E-02  0.1134753E-02  0.1560223E+06  0.1908490E+03
  0.6380953E+00 -0.8858191E+05 -0.1843601E+03  0.3186411E-02  0.4454851E-03  0.1566874E+06  0.2679736E+03
  0.6690477E+00 -0.8918171E+05 -0.2549557E+03 -0.4230648E-02 -0.1876354E-03  0.1575076E+06  0.3701398E+03
  0.7000000E+00 -0.8965952E+05 -0.3472206E+03  0.7122584E-02  0.1478195E-02  0.1580795E+06  0.5032134E+03
  0.7309524E+00 -0.9024273E+05 -0.4659997E+03 -0.1539547E-02  0.1873970E-03  0.1588043E+06  0.6739682E+03
  0.7619048E+00 -0.9094805E+05 -0.6177049E+03 -0.1847505E-02  0.9903908E-03  0.1597108E+06  0.8916813E+03
  0.7928572E+00 -0.9156965E+05 -0.8084670E+03 -0.4691046E-02  0.1435280E-03  0.1605344E+06  0.1165010E+04
  0.8238096E+00 -0.9235680E+05 -0.1047065E+04 -0.4269374E-02 -0.1040459E-02  0.1615881E+06  0.1506444E+04
  0.8547620E+00 -0.9309916E+05 -0.1341963E+04  0.4748501E-02  0.2511501E-02  0.1625750E+06  0.1926939E+04
  0.8857143E+00 -0.9399738E+05 -0.1705437E+04 -0.1636628E-03 -0.2319336E-02  0.1636983E+06  0.2443247E+04
  0.9166667E+00 -0.9475716E+05 -0.2146733E+04 -0.2829812E-03  0.1859665E-02  0.1646099E+06  0.3067167E+04
  0.9476191E+00 -0.9570938E+05 -0.2681161E+04  0.2487796E-02  0.3065109E-02  0.1658473E+06  0.3822342E+04
  0.9785714E+00 -0.9663471E+05 -0.3321964E+04 -0.2619611E-02 -0.1831055E-02  0.1670299E+06  0.4724306E+04
  0.1009524E+01 -0.9767416E+05 -0.4087863E+04  0.2214324E-02  0.2220154E-02  0.1683373E+06  0.5798957E+04
  0.1040476E+01 -0.9874265E+05 -0.4994143E+04 -0.9239074E-03  0.2559662E-02  0.1697693E+06  0.7068772E+04
  0.1071429E+01 -0.9970408E+05 -0.6057518E+04 -0.3118897E-02 -0.3795624E-02  0.1709180E+06  0.8550714E+04
  0.1102381E+01 -0.1008894E+06 -0.7308934E+04  0.2076250E-04 -0.9689331E-03  0.1724274E+06  0.1029080E+05
  0.1133333E+01 -0.1018909E+06 -0.8761629E+04 -0.4739200E-02 -0.3677368E-02  0.1736056E+06  0.1229348E+05
  0.1164286E+01 -0.1030154E+06 -0.1044850E+05  0.4206932E-02  0.5516052E-02  0.1749220E+06  0.1461124E+05
  0.1195238E+01 -0.1041483E+06 -0.1238786E+05 -0.4506510E-02 -0.1167297E-02  0.1763490E+06  0.1727260E+05
  0.1226190E+01 -0.1050995E+06 -0.1459340E+05  0.7715318E-02  0.4451752E-02  0.1773885E+06  0.2027741E+05
  0.1257143E+01 -0.1060131E+06 -0.1708130E+05  0.2124093E-02  0.1708984E-02  0.1784961E+06  0.2366568E+05
  0.1288095E+01 -0.1071002E+06 -0.1994303E+05  0.2073052E-02  0.2731323E-02  0.1797291E+06  0.2753550E+05
  0.1319048E+01 -0.1079477E+06 -0.2312324E+05  0.8097624E-04 -0.1808167E-02  0.1806757E+06  0.3181350E+05
  0.1350000E+01 -0.1087785E+06 -0.2667930E+05 -0.3390842E-02 -0.4844666E-02  0.1815272E+06  0.3657708E+05
  0.1380952E+01 -0.1094366E+06 -0.3060977E+05  0.3171197E-02  0.4730225E-02  0.1822166E+06  0.4181731E+05
  0.1411905E+01 -0.1096884E+06 -0.3487922E+05 -0.1394134E-02 -0.6866455E-03  0.1822364E+06  0.4746106E+05
  0.1442857E+01 -0.1099294E+06 -0.3957112E+05 -0.3500457E-02 -0.1739502E-02  0.1822409E+06  0.5361562E+05
  0.1473810E+01 -0.1100449E+06 -0.4466207E+05 -0.3323409E-02  0.3128052E-02  0.1820938E+06  0.6026913E+05
  0.1504762E+01 -0.1097493E+06 -0.5006757E+05  0.6388410E-02  0.6668091E-02  0.1813895E+06  0.6726664E+05
  0.1535714E+01 -0.1092517E+06 -0.5581120E+05 -0.2642964E-02 -0.1678467E-02  0.1804035E+06  0.7464943E+05
  0.1566667E+01 -0.1085329E+06 -0.6185864E+05  0.1996629E-02  0.4394531E-02  0.1791377E+06  0.8238487E+05
  0.1597619E+01 -0.1074065E+06 -0.6808024E+05 -0.4226298E-02 -0.5386353E-02  0.1773981E+06  0.9027784E+05
  0.1628572E+01 -0.1058117E+06 -0.7435980E+05  0.3982008E-03  0.1190186E-02  0.1749210E+06  0.9811844E+05
  0.1659524E+01 -0.1040063E+06 -0.8075028E+05 -0.2887129E-02 -0.7553101E-02  0.1722363E+06  0.1060450E+06
  0.1690476E+01 -0.1019960E+06 -0.8717240E+05 -0.1141830E-02  0.2548218E-02  0.1693569E+06  0.1139738E+06
  0.1721429E+01 -0.9953074E+05 -0.9338288E+05 -0.2344535E-02 -0.3021240E-02  0.1658370E+06  0.1214685E+06
  0.1752381E+01 -0.9680427E+05 -0.9939970E+05  0.3402441E-02 -0.2410889E-02  0.1620403E+06  0.1285907E+06
  0.1783333E+01 -0.9385386E+05 -0.1051412E+06 -0.2222507E-02 -0.2899170E-02  0.1578985E+06  0.1352291E+06
  0.1814286E+01 -0.9075270E+05 -0.1105515E+06 -0.3854046E-02 -0.1403809E-02  0.1536720E+06  0.1413994E+06
  0.1845238E+01 -0.8740135E+05 -0.1154188E+06  0.7935924E-03 -0.9155273E-04  0.1492139E+06  0.1468033E+06
  0.1876190E+01 -0.8383918E+05 -0.1196358E+06  0.3037622E-02  0.3997803E-02  0.1444120E+06  0.1512022E+06
  0.1907143E+01 -0.8026735E+05 -0.1233409E+06 -0.4150448E-03  0.1342773E-02  0.1396834E+06  0.1549218E+06
  0.1938095E+01 -0.7677737E+05 -0.1265621E+06 -0.6731488E-03 -0.3601074E-02  0.1351937E+06  0.1580798E+06
  0.1969048E+01 -0.7329028E+05 -0.1291320E+06 -0.2816880E-02  0.2288818E-02  0.1306957E+06  0.1602957E+06
  0.2000000E+01 -0.6976151E+05 -0.1309493E+06  0.2098083E-02  0.3143311E-02  0.1262242E+06  0.1614890E+06
