VARIABLES="w (rad/s)"
"abs(F   1   1)" "angle(F   1   1)"
"abs(F   1   2)" "angle(F   1   2)"
"abs(F   1   3)" "angle(F   1   3)"
Zone t="Diffraction force - beta =   0.000 deg",I=    64,F=POINT
  0.5000000E-01  0.6048420E+03 -0.1570796E+01  0.2826008E+02 -0.3121667E+01  0.1333891E+04  0.1570797E+01
  0.8095238E-01  0.9957905E+03 -0.1570795E+01  0.7374555E+02 -0.3121114E+01  0.2195907E+04  0.1570798E+01
  0.1119048E+00  0.1393916E+04 -0.1570793E+01  0.1403680E+03 -0.3120327E+01  0.3072155E+04  0.1570800E+01
  0.1428571E+00  0.1802936E+04 -0.1570790E+01  0.2282534E+03 -0.3119297E+01  0.3972508E+04  0.1570802E+01
  0.1738095E+00  0.2232594E+04 -0.1570786E+01  0.3375829E+03 -0.3117991E+01  0.4911307E+04  0.1570806E+01
  0.2047619E+00  0.2680464E+04 -0.1570781E+01  0.4670548E+03 -0.3116246E+01  0.5893438E+04  0.1570812E+01
  0.2357143E+00  0.3159094E+04 -0.1570773E+01  0.6182133E+03 -0.3114075E+01  0.6938507E+04  0.1570820E+01
  0.2666667E+00  0.3672424E+04 -0.1570761E+01  0.7897148E+03 -0.3111402E+01  0.8056173E+04  0.1570832E+01
  0.2976190E+00  0.4229655E+04 -0.1570743E+01  0.9818217E+03 -0.3108008E+01  0.9267373E+04  0.1570850E+01
  0.3285715E+00  0.4836244E+04 -0.1570717E+01  0.1193442E+04 -0.3103914E+01  0.1058792E+05  0.1570877E+01
  0.3595238E+00  0.5504621E+04 -0.1570678E+01  0.1424571E+04 -0.3098920E+01  0.1203092E+05  0.1570916E+01
  0.3904762E+00  0.6244768E+04 -0.1570619E+01  0.1671862E+04 -0.3092913E+01  0.1362372E+05  0.1570976E+01
  0.4214286E+00  0.7064628E+04 -0.1570534E+01  0.1937612E+04 -0.3086259E+01  0.1539214E+05  0.1571063E+01
  0.4523810E+00  0.7963963E+04 -0.1570408E+01  0.2212071E+04 -0.3078269E+01  0.1731673E+05  0.1571190E+01
  0.4833333E+00  0.8955661E+04 -0.1570234E+01  0.2504249E+04 -0.3070420E+01  0.1942486E+05  0.1571367E+01
  0.5142857E+00  0.1001952E+05 -0.1569991E+01  0.2796415E+04 -0.3061547E+01  0.2169466E+05  0.1571613E+01
  0.5452381E+00  0.1116632E+05 -0.1569668E+01  0.3099762E+04 -0.3052763E+01  0.2413182E+05  0.1571940E+01
  0.5761905E+00  0.1238552E+05 -0.1569248E+01  0.3410623E+04 -0.3044200E+01  0.2669375E+05  0.1572366E+01
  0.6071429E+00  0.1367145E+05 -0.1568704E+01  0.3715467E+04 -0.3035014E+01  0.2939090E+05  0.1572917E+01
  0.6380953E+00  0.1502696E+05 -0.1568026E+01  0.4031220E+04 -0.3026586E+01  0.3220821E+05  0.1573604E+01
  0.6690477E+00  0.1642282E+05 -0.1567182E+01  0.4344991E+04 -0.3018116E+01  0.3512776E+05  0.1574458E+01
  0.7000000E+00  0.1788580E+05 -0.1566143E+01  0.4648258E+04 -0.3009259E+01  0.3815878E+05  0.1575509E+01
  0.7309524E+00  0.1940707E+05 -0.1564889E+01  0.4957161E+04 -0.3000913E+01  0.4125130E+05  0.1576780E+01
  0.7619048E+00  0.2098209E+05 -0.1563384E+01  0.5267485E+04 -0.2992830E+01  0.4445033E+05  0.1578304E+01
  0.7928572E+00  0.2258652E+05 -0.1561589E+01  0.5551684E+04 -0.2984226E+01  0.4769992E+05  0.1580120E+01
  0.8238096E+00  0.2424676E+05 -0.1559474E+01  0.5834779E+04 -0.2975874E+01  0.5103879E+05  0.1582258E+01
  0.8547620E+00  0.2597358E+05 -0.1557010E+01  0.6118454E+04 -0.2967933E+01  0.5448607E+05  0.1584749E+01
  0.8857143E+00  0.2772034E+05 -0.1554145E+01  0.6386857E+04 -0.2959990E+01  0.5793297E+05  0.1587644E+01
  0.9166667E+00  0.2951805E+05 -0.1550849E+01  0.6631558E+04 -0.2951838E+01  0.6144070E+05  0.1590977E+01
  0.9476191E+00  0.3135345E+05 -0.1547078E+01  0.6867601E+04 -0.2943881E+01  0.6498014E+05  0.1594790E+01
  0.9785714E+00  0.3325068E+05 -0.1542803E+01  0.7097812E+04 -0.2936259E+01  0.6858980E+05  0.1599115E+01
  0.1009524E+01  0.3517649E+05 -0.1537970E+01  0.7323306E+04 -0.2928996E+01  0.7226230E+05  0.1603993E+01
  0.1040476E+01  0.3709190E+05 -0.1532521E+01  0.7502095E+04 -0.2921204E+01  0.7586416E+05  0.1609491E+01
  0.1071429E+01  0.3907889E+05 -0.1526454E+01  0.7669725E+04 -0.2913554E+01  0.7961037E+05  0.1615597E+01
  0.1102381E+01  0.4106938E+05 -0.1519712E+01  0.7826352E+04 -0.2906130E+01  0.8324005E+05  0.1622401E+01
  0.1133333E+01  0.4312610E+05 -0.1512293E+01  0.7974159E+04 -0.2899014E+01  0.8691591E+05  0.1629899E+01
  0.1164286E+01  0.4518564E+05 -0.1504112E+01  0.8115063E+04 -0.2892176E+01  0.9058629E+05  0.1638148E+01
  0.1195238E+01  0.4720452E+05 -0.1495117E+01  0.8202336E+04 -0.2885010E+01  0.9409202E+05  0.1647226E+01
  0.1226190E+01  0.4927856E+05 -0.1485328E+01  0.8276116E+04 -0.2877892E+01  0.9769101E+05  0.1657085E+01
  0.1257143E+01  0.5126972E+05 -0.1474663E+01  0.8336753E+04 -0.2870777E+01  0.1010767E+06  0.1667818E+01
  0.1288095E+01  0.5339169E+05 -0.1463162E+01  0.8385329E+04 -0.2864045E+01  0.1045943E+06  0.1679419E+01
  0.1319048E+01  0.5546850E+05 -0.1450781E+01  0.8424537E+04 -0.2857391E+01  0.1080102E+06  0.1691874E+01
  0.1350000E+01  0.5747973E+05 -0.1437433E+01  0.8446736E+04 -0.2850812E+01  0.1112854E+06  0.1705270E+01
  0.1380952E+01  0.5942274E+05 -0.1423179E+01  0.8424146E+04 -0.2844422E+01  0.1142767E+06  0.1719612E+01
  0.1411905E+01  0.6123601E+05 -0.1408046E+01  0.8384777E+04 -0.2837971E+01  0.1171278E+06  0.1734723E+01
  0.1442857E+01  0.6312342E+05 -0.1391996E+01  0.8335555E+04 -0.2831547E+01  0.1198740E+06  0.1750867E+01
  0.1473810E+01  0.6495309E+05 -0.1375016E+01  0.8273176E+04 -0.2825125E+01  0.1224170E+06  0.1767963E+01
  0.1504762E+01  0.6673318E+05 -0.1357157E+01  0.8203419E+04 -0.2818856E+01  0.1247994E+06  0.1785935E+01
  0.1535714E+01  0.6842258E+05 -0.1338340E+01  0.8123996E+04 -0.2812551E+01  0.1270002E+06  0.1804825E+01
  0.1566667E+01  0.6997269E+05 -0.1318569E+01  0.8020377E+04 -0.2806604E+01  0.1288755E+06  0.1824665E+01
  0.1597619E+01  0.7137993E+05 -0.1297875E+01  0.7891470E+04 -0.2801098E+01  0.1304092E+06  0.1845440E+01
  0.1628572E+01  0.7272661E+05 -0.1276344E+01  0.7747328E+04 -0.2795345E+01  0.1318514E+06  0.1866987E+01
  0.1659524E+01  0.7392827E+05 -0.1254009E+01  0.7597590E+04 -0.2789655E+01  0.1329706E+06  0.1889328E+01
  0.1690476E+01  0.7495145E+05 -0.1230890E+01  0.7437527E+04 -0.2783873E+01  0.1336872E+06  0.1912456E+01
  0.1721429E+01  0.7586687E+05 -0.1207275E+01  0.7272738E+04 -0.2778180E+01  0.1341433E+06  0.1936103E+01
  0.1752381E+01  0.7665992E+05 -0.1183254E+01  0.7106053E+04 -0.2772526E+01  0.1343044E+06  0.1960155E+01
  0.1783333E+01  0.7723187E+05 -0.1158498E+01  0.6930713E+04 -0.2766680E+01  0.1341094E+06  0.1984891E+01
  0.1814286E+01  0.7759141E+05 -0.1133367E+01  0.6738045E+04 -0.2761907E+01  0.1334309E+06  0.2010040E+01
  0.1845238E+01  0.7775382E+05 -0.1107778E+01  0.6539194E+04 -0.2757506E+01  0.1323925E+06  0.2035664E+01
  0.1876190E+01  0.7778742E+05 -0.1081801E+01  0.6327333E+04 -0.2752954E+01  0.1312157E+06  0.2061569E+01
  0.1907143E+01  0.7764878E+05 -0.1055630E+01  0.6116157E+04 -0.2748448E+01  0.1297385E+06  0.2087626E+01
  0.1938095E+01  0.7724135E+05 -0.1029266E+01  0.5902757E+04 -0.2743967E+01  0.1277151E+06  0.2113940E+01
  0.1969048E+01  0.7670760E+05 -0.1002930E+01  0.5688692E+04 -0.2739552E+01  0.1255138E+06  0.2140223E+01
  0.2000000E+01  0.7602079E+05 -0.9768739E+00  0.5479252E+04 -0.2735170E+01  0.1230434E+06  0.2166197E+01
