VARIABLES="w (rad/s)"
"abs(F   1   1)" "angle(F   1   1)"
"abs(F   1   2)" "angle(F   1   2)"
"abs(F   1   3)" "angle(F   1   3)"
Zone t="Diffraction force - beta =   0.000 deg",I=    64,F=POINT
  0.5000000E-01  0.2370469E+04 -0.1570793E+01  0.2752973E+03 -0.3101115E+01  0.5359850E+04  0.1570799E+01
  0.8095238E-01  0.3886088E+04 -0.1570788E+01  0.7131827E+03 -0.3099752E+01  0.8787713E+04  0.1570804E+01
  0.1119048E+00  0.5419359E+04 -0.1570780E+01  0.1354057E+04 -0.3098131E+01  0.1225834E+05  0.1570812E+01
  0.1428571E+00  0.7026260E+04 -0.1570767E+01  0.2196365E+04 -0.3096049E+01  0.1586793E+05  0.1570824E+01
  0.1738095E+00  0.8675543E+04 -0.1570749E+01  0.3241453E+04 -0.3093465E+01  0.1960153E+05  0.1570841E+01
  0.2047619E+00  0.1043662E+05 -0.1570722E+01  0.4494226E+04 -0.3090246E+01  0.2356308E+05  0.1570866E+01
  0.2357143E+00  0.1231715E+05 -0.1570683E+01  0.5933006E+04 -0.3085990E+01  0.2779695E+05  0.1570903E+01
  0.2666667E+00  0.1431409E+05 -0.1570626E+01  0.7593176E+04 -0.3081093E+01  0.3229680E+05  0.1570956E+01
  0.2976190E+00  0.1653578E+05 -0.1570542E+01  0.9422894E+04 -0.3074625E+01  0.3727054E+05  0.1571035E+01
  0.3285715E+00  0.1891527E+05 -0.1570418E+01  0.1148140E+05 -0.3067260E+01  0.4260565E+05  0.1571153E+01
  0.3595238E+00  0.2157951E+05 -0.1570231E+01  0.1366937E+05 -0.3057914E+01  0.4861318E+05  0.1571328E+01
  0.3904762E+00  0.2450675E+05 -0.1569954E+01  0.1608702E+05 -0.3047343E+01  0.5513641E+05  0.1571590E+01
  0.4214286E+00  0.2783452E+05 -0.1569551E+01  0.1856123E+05 -0.3035117E+01  0.6251839E+05  0.1571970E+01
  0.4523810E+00  0.3139724E+05 -0.1568957E+01  0.2120765E+05 -0.3021187E+01  0.7051145E+05  0.1572529E+01
  0.4833333E+00  0.3535448E+05 -0.1568141E+01  0.2389899E+05 -0.3007312E+01  0.7928799E+05  0.1573299E+01
  0.5142857E+00  0.3977393E+05 -0.1567016E+01  0.2662300E+05 -0.2992042E+01  0.8909612E+05  0.1574360E+01
  0.5452381E+00  0.4441290E+05 -0.1565516E+01  0.2946819E+05 -0.2977650E+01  0.9931218E+05  0.1575776E+01
  0.5761905E+00  0.4946577E+05 -0.1563584E+01  0.3215530E+05 -0.2962735E+01  0.1105320E+06  0.1577598E+01
  0.6071429E+00  0.5472592E+05 -0.1561093E+01  0.3490848E+05 -0.2947892E+01  0.1221507E+06  0.1579948E+01
  0.6380953E+00  0.6035800E+05 -0.1558012E+01  0.3767793E+05 -0.2934654E+01  0.1343860E+06  0.1582863E+01
  0.6690477E+00  0.6644250E+05 -0.1554235E+01  0.4026462E+05 -0.2920734E+01  0.1476389E+06  0.1586439E+01
  0.7000000E+00  0.7256715E+05 -0.1549579E+01  0.4285752E+05 -0.2907336E+01  0.1609317E+06  0.1590845E+01
  0.7309524E+00  0.7891022E+05 -0.1543990E+01  0.4545786E+05 -0.2895360E+01  0.1748002E+06  0.1596126E+01
  0.7619048E+00  0.8575747E+05 -0.1537398E+01  0.4776014E+05 -0.2882375E+01  0.1895373E+06  0.1602371E+01
  0.7928572E+00  0.9287871E+05 -0.1529641E+01  0.5002313E+05 -0.2870091E+01  0.2048144E+06  0.1609723E+01
  0.8238096E+00  0.1001074E+06 -0.1520549E+01  0.5227432E+05 -0.2859024E+01  0.2200485E+06  0.1618366E+01
  0.8547620E+00  0.1075817E+06 -0.1510044E+01  0.5428137E+05 -0.2847797E+01  0.2356940E+06  0.1628364E+01
  0.8857143E+00  0.1154952E+06 -0.1498071E+01  0.5605295E+05 -0.2836273E+01  0.2524454E+06  0.1639740E+01
  0.9166667E+00  0.1232611E+06 -0.1484330E+01  0.5776683E+05 -0.2825783E+01  0.2689303E+06  0.1652771E+01
  0.9476191E+00  0.1311054E+06 -0.1468846E+01  0.5940568E+05 -0.2816303E+01  0.2852201E+06  0.1667490E+01
  0.9785714E+00  0.1392068E+06 -0.1451638E+01  0.6081826E+05 -0.2806979E+01  0.3017099E+06  0.1683887E+01
  0.1009524E+01  0.1475851E+06 -0.1432644E+01  0.6187257E+05 -0.2796915E+01  0.3185169E+06  0.1702041E+01
  0.1040476E+01  0.1559682E+06 -0.1411673E+01  0.6283300E+05 -0.2787499E+01  0.3355773E+06  0.1722022E+01
  0.1071429E+01  0.1639418E+06 -0.1388518E+01  0.6367530E+05 -0.2778998E+01  0.3512727E+06  0.1744153E+01
  0.1102381E+01  0.1716696E+06 -0.1363223E+01  0.6446129E+05 -0.2771613E+01  0.3664632E+06  0.1768305E+01
  0.1133333E+01  0.1791065E+06 -0.1335865E+01  0.6489582E+05 -0.2763804E+01  0.3808496E+06  0.1794423E+01
  0.1164286E+01  0.1862635E+06 -0.1306574E+01  0.6504036E+05 -0.2755753E+01  0.3946086E+06  0.1822348E+01
  0.1195238E+01  0.1931009E+06 -0.1275660E+01  0.6507714E+05 -0.2748032E+01  0.4078087E+06  0.1851711E+01
  0.1226190E+01  0.1990457E+06 -0.1242948E+01  0.6499665E+05 -0.2741100E+01  0.4184428E+06  0.1882871E+01
  0.1257143E+01  0.2040760E+06 -0.1208385E+01  0.6483007E+05 -0.2734760E+01  0.4269598E+06  0.1915822E+01
  0.1288095E+01  0.2085477E+06 -0.1172671E+01  0.6458171E+05 -0.2729667E+01  0.4342522E+06  0.1949855E+01
  0.1319048E+01  0.2119515E+06 -0.1135574E+01  0.6383834E+05 -0.2723309E+01  0.4389322E+06  0.1985175E+01
  0.1350000E+01  0.2145437E+06 -0.1097550E+01  0.6300321E+05 -0.2717429E+01  0.4422658E+06  0.2021206E+01
  0.1380952E+01  0.2161226E+06 -0.1059046E+01  0.6206983E+05 -0.2711862E+01  0.4436036E+06  0.2057530E+01
  0.1411905E+01  0.2158522E+06 -0.1018916E+01  0.6104568E+05 -0.2706555E+01  0.4412266E+06  0.2095007E+01
  0.1442857E+01  0.2147613E+06 -0.9796456E+00  0.5996548E+05 -0.2702154E+01  0.4363674E+06  0.2132018E+01
  0.1473810E+01  0.2125409E+06 -0.9402609E+00  0.5884525E+05 -0.2698400E+01  0.4294921E+06  0.2168928E+01
  0.1504762E+01  0.2092159E+06 -0.9012129E+00  0.5746926E+05 -0.2694687E+01  0.4202297E+06  0.2205334E+01
  0.1535714E+01  0.2049533E+06 -0.8632053E+00  0.5588246E+05 -0.2691146E+01  0.4089139E+06  0.2240559E+01
  0.1566667E+01  0.2000039E+06 -0.8262783E+00  0.5426399E+05 -0.2687884E+01  0.3969911E+06  0.2274349E+01
  0.1597619E+01  0.1939009E+06 -0.7900049E+00  0.5258388E+05 -0.2684836E+01  0.3827802E+06  0.2307311E+01
  0.1628572E+01  0.1867973E+06 -0.7546560E+00  0.5088214E+05 -0.2682287E+01  0.3665032E+06  0.2339147E+01
  0.1659524E+01  0.1788122E+06 -0.7204237E+00  0.4917264E+05 -0.2680237E+01  0.3484007E+06  0.2369679E+01
  0.1690476E+01  0.1702952E+06 -0.6874833E+00  0.4745137E+05 -0.2678684E+01  0.3296813E+06  0.2398548E+01
  0.1721429E+01  0.1612750E+06 -0.6558983E+00  0.4568965E+05 -0.2677673E+01  0.3101971E+06  0.2425643E+01
  0.1752381E+01  0.1518432E+06 -0.6259487E+00  0.4374326E+05 -0.2677036E+01  0.2899134E+06  0.2450575E+01
  0.1783333E+01  0.1421529E+06 -0.5974653E+00  0.4180710E+05 -0.2676912E+01  0.2695796E+06  0.2473514E+01
  0.1814286E+01  0.1324251E+06 -0.5705545E+00  0.3986793E+05 -0.2677235E+01  0.2499426E+06  0.2494252E+01
  0.1845238E+01  0.1222420E+06 -0.5444590E+00  0.3794902E+05 -0.2677851E+01  0.2294200E+06  0.2513429E+01
  0.1876190E+01  0.1118804E+06 -0.5195633E+00  0.3605913E+05 -0.2678995E+01  0.2087283E+06  0.2530378E+01
  0.1907143E+01  0.1013507E+06 -0.4957620E+00  0.3422191E+05 -0.2680548E+01  0.1878252E+06  0.2544914E+01
  0.1938095E+01  0.9091036E+05 -0.4728622E+00  0.3241643E+05 -0.2682834E+01  0.1675984E+06  0.2557098E+01
  0.1969048E+01  0.8052995E+05 -0.4505732E+00  0.3064071E+05 -0.2685926E+01  0.1478758E+06  0.2566468E+01
  0.2000000E+01  0.7025671E+05 -0.4292190E+00  0.2884903E+05 -0.2689797E+01  0.1285968E+06  0.2571560E+01
