VARIABLES="w (rad/s)"
"abs(F   1   1)" "angle(F   1   1)"
"abs(F   1   2)" "angle(F   1   2)"
"abs(F   1   3)" "angle(F   1   3)"
Zone t="Diffraction force - beta =   0.000 deg",I=    64,F=POINT
  0.5000000E-01  0.8593797E+04 -0.1570785E+01  0.6946629E+06 -0.4690716E-04  0.1173727E+05  0.1570809E+01
  0.8095238E-01  0.1402426E+05 -0.1570787E+01  0.6924646E+06 -0.1260233E-03  0.1914930E+05  0.1570801E+01
  0.1119048E+00  0.1958336E+05 -0.1570784E+01  0.6892358E+06 -0.2497307E-03  0.2675836E+05  0.1570802E+01
  0.1428571E+00  0.2533871E+05 -0.1570778E+01  0.6849882E+06 -0.4271383E-03  0.3463373E+05  0.1570813E+01
  0.1738095E+00  0.3135471E+05 -0.1570764E+01  0.6797204E+06 -0.6715165E-03  0.4288138E+05  0.1570828E+01
  0.2047619E+00  0.3766477E+05 -0.1570750E+01  0.6734194E+06 -0.1002691E-02  0.5153006E+05  0.1570843E+01
  0.2357143E+00  0.4438186E+05 -0.1570729E+01  0.6661053E+06 -0.1449226E-02  0.6081100E+05  0.1570862E+01
  0.2666667E+00  0.5167984E+05 -0.1570695E+01  0.6577770E+06 -0.2044214E-02  0.7083605E+05  0.1570903E+01
  0.2976190E+00  0.5954967E+05 -0.1570640E+01  0.6484360E+06 -0.2847969E-02  0.8172692E+05  0.1570956E+01
  0.3285715E+00  0.6815041E+05 -0.1570563E+01  0.6381245E+06 -0.3914436E-02  0.9362720E+05  0.1571028E+01
  0.3595238E+00  0.7769041E+05 -0.1570445E+01  0.6268709E+06 -0.5338290E-02  0.1069040E+06  0.1571147E+01
  0.3904762E+00  0.8821928E+05 -0.1570273E+01  0.6146972E+06 -0.7214440E-02  0.1214881E+06  0.1571321E+01
  0.4214286E+00  0.9991629E+05 -0.1570015E+01  0.6017995E+06 -0.9599517E-02  0.1378727E+06  0.1571579E+01
  0.4523810E+00  0.1127030E+06 -0.1569638E+01  0.5880592E+06 -0.1267650E-01  0.1558057E+06  0.1571955E+01
  0.4833333E+00  0.1270093E+06 -0.1569111E+01  0.5739024E+06 -0.1631670E-01  0.1758424E+06  0.1572481E+01
  0.5142857E+00  0.1423387E+06 -0.1568378E+01  0.5590730E+06 -0.2074360E-01  0.1973800E+06  0.1573216E+01
  0.5452381E+00  0.1588499E+06 -0.1567396E+01  0.5439831E+06 -0.2585242E-01  0.2205321E+06  0.1574196E+01
  0.5761905E+00  0.1764037E+06 -0.1566113E+01  0.5285043E+06 -0.3163090E-01  0.2455379E+06  0.1575482E+01
  0.6071429E+00  0.1951650E+06 -0.1564445E+01  0.5126127E+06 -0.3826863E-01  0.2720969E+06  0.1577149E+01
  0.6380953E+00  0.2150089E+06 -0.1562351E+01  0.4967241E+06 -0.4551675E-01  0.3001806E+06  0.1579244E+01
  0.6690477E+00  0.2354981E+06 -0.1559735E+01  0.4805468E+06 -0.5356710E-01  0.3293648E+06  0.1581861E+01
  0.7000000E+00  0.2566990E+06 -0.1556498E+01  0.4641221E+06 -0.6249658E-01  0.3598573E+06  0.1585101E+01
  0.7309524E+00  0.2789981E+06 -0.1552571E+01  0.4479685E+06 -0.7218298E-01  0.3917138E+06  0.1589031E+01
  0.7619048E+00  0.3024238E+06 -0.1547829E+01  0.4316750E+06 -0.8274034E-01  0.4254449E+06  0.1593776E+01
  0.7928572E+00  0.3262768E+06 -0.1542158E+01  0.4152448E+06 -0.9416428E-01  0.4597672E+06  0.1599452E+01
  0.8238096E+00  0.3508003E+06 -0.1535453E+01  0.3991327E+06 -0.1064996E+00  0.4948756E+06  0.1606165E+01
  0.8547620E+00  0.3761368E+06 -0.1527608E+01  0.3832608E+06 -0.1197712E+00  0.5316995E+06  0.1614023E+01
  0.8857143E+00  0.4015598E+06 -0.1518510E+01  0.3674667E+06 -0.1339692E+00  0.5687515E+06  0.1623137E+01
  0.9166667E+00  0.4273788E+06 -0.1508058E+01  0.3515915E+06 -0.1490994E+00  0.6065208E+06  0.1633608E+01
  0.9476191E+00  0.4538919E+06 -0.1496166E+01  0.3362954E+06 -0.1651502E+00  0.6446536E+06  0.1645504E+01
  0.9785714E+00  0.4807531E+06 -0.1482726E+01  0.3214575E+06 -0.1821942E+00  0.6836188E+06  0.1658968E+01
  0.1009524E+01  0.5070358E+06 -0.1467682E+01  0.3067831E+06 -0.2003429E+00  0.7222084E+06  0.1674053E+01
  0.1040476E+01  0.5324834E+06 -0.1451051E+01  0.2922878E+06 -0.2195414E+00  0.7592639E+06  0.1690740E+01
  0.1071429E+01  0.5570172E+06 -0.1432860E+01  0.2779089E+06 -0.2398933E+00  0.7955183E+06  0.1709006E+01
  0.1102381E+01  0.5802212E+06 -0.1413269E+01  0.2645581E+06 -0.2610710E+00  0.8288953E+06  0.1728654E+01
  0.1133333E+01  0.6023104E+06 -0.1392386E+01  0.2515174E+06 -0.2835256E+00  0.8617513E+06  0.1749629E+01
  0.1164286E+01  0.6221447E+06 -0.1370455E+01  0.2387537E+06 -0.3073104E+00  0.8911851E+06  0.1771643E+01
  0.1195238E+01  0.6398272E+06 -0.1347776E+01  0.2263025E+06 -0.3323053E+00  0.9166288E+06  0.1794367E+01
  0.1226190E+01  0.6548404E+06 -0.1324579E+01  0.2140784E+06 -0.3588219E+00  0.9388512E+06  0.1817699E+01
  0.1257143E+01  0.6664338E+06 -0.1301255E+01  0.2026464E+06 -0.3863587E+00  0.9555055E+06  0.1841157E+01
  0.1288095E+01  0.6754324E+06 -0.1278514E+01  0.1918861E+06 -0.4145807E+00  0.9677958E+06  0.1864006E+01
  0.1319048E+01  0.6812146E+06 -0.1256478E+01  0.1815308E+06 -0.4448124E+00  0.9766984E+06  0.1886276E+01
  0.1350000E+01  0.6831708E+06 -0.1235898E+01  0.1715492E+06 -0.4764878E+00  0.9792925E+06  0.1907043E+01
  0.1380952E+01  0.6819086E+06 -0.1217129E+01  0.1619252E+06 -0.5095518E+00  0.9767041E+06  0.1925947E+01
  0.1411905E+01  0.6767706E+06 -0.1200342E+01  0.1527078E+06 -0.5446259E+00  0.9695716E+06  0.1943055E+01
  0.1442857E+01  0.6695510E+06 -0.1186178E+01  0.1441333E+06 -0.5804021E+00  0.9584072E+06  0.1957476E+01
  0.1473810E+01  0.6598546E+06 -0.1175032E+01  0.1363396E+06 -0.6158612E+00  0.9425376E+06  0.1968693E+01
  0.1504762E+01  0.6484572E+06 -0.1166741E+01  0.1289352E+06 -0.6526647E+00  0.9252999E+06  0.1977278E+01
  0.1535714E+01  0.6351964E+06 -0.1161664E+01  0.1219736E+06 -0.6901649E+00  0.9053720E+06  0.1982750E+01
  0.1566667E+01  0.6201429E+06 -0.1160109E+01  0.1154007E+06 -0.7280220E+00  0.8822775E+06  0.1984597E+01
  0.1597619E+01  0.6037862E+06 -0.1162108E+01  0.1091578E+06 -0.7660303E+00  0.8570186E+06  0.1982916E+01
  0.1628572E+01  0.5866729E+06 -0.1167431E+01  0.1032176E+06 -0.8038990E+00  0.8310389E+06  0.1978078E+01
  0.1659524E+01  0.5690514E+06 -0.1176267E+01  0.9762073E+05 -0.8397115E+00  0.8039951E+06  0.1969564E+01
  0.1690476E+01  0.5511736E+06 -0.1188903E+01  0.9241337E+05 -0.8715097E+00  0.7756661E+06  0.1956686E+01
  0.1721429E+01  0.5333544E+06 -0.1204903E+01  0.8731009E+05 -0.9021996E+00  0.7477916E+06  0.1940697E+01
  0.1752381E+01  0.5158039E+06 -0.1223874E+01  0.8234601E+05 -0.9318452E+00  0.7210202E+06  0.1922257E+01
  0.1783333E+01  0.4981462E+06 -0.1246442E+01  0.7741348E+05 -0.9605788E+00  0.6937192E+06  0.1899908E+01
  0.1814286E+01  0.4808965E+06 -0.1272484E+01  0.7247869E+05 -0.9890012E+00  0.6668333E+06  0.1873826E+01
  0.1845238E+01  0.4641015E+06 -0.1301934E+01  0.6759218E+05 -0.1017127E+01  0.6405926E+06  0.1844267E+01
  0.1876190E+01  0.4479240E+06 -0.1334444E+01  0.6280497E+05 -0.1045336E+01  0.6154866E+06  0.1811949E+01
  0.1907143E+01  0.4324636E+06 -0.1369950E+01  0.5810816E+05 -0.1073442E+01  0.5914398E+06  0.1776560E+01
  0.1938095E+01  0.4178736E+06 -0.1408697E+01  0.5358109E+05 -0.1100884E+01  0.5681217E+06  0.1736653E+01
  0.1969048E+01  0.4041494E+06 -0.1450217E+01  0.4918300E+05 -0.1128651E+01  0.5460666E+06  0.1693573E+01
  0.2000000E+01  0.3913746E+06 -0.1493780E+01  0.4492820E+05 -0.1160766E+01  0.5257650E+06  0.1649308E+01
