VARIABLES="w (rad/s)"
"A   1   1" "B   1   1"
"A   1   2" "B   1   2"
"A   1   3" "B   1   3"
Zone t="Motion of body    1 in DoF   1",I=    64,F=POINT
  0.5000000E-01  0.2435483E+06  0.4977330E-01 -0.6942749E-02 -0.4149508E-04 -0.4030723E+06 -0.6797505E-01
  0.8095238E-01  0.2445800E+06  0.2194575E+00  0.2761392E-01  0.2044641E-03 -0.4041125E+06 -0.3000039E+00
  0.1119048E+00  0.2451993E+06  0.6158370E+00  0.8113131E-02  0.5793944E-04 -0.4052048E+06 -0.8415298E+00
  0.1428571E+00  0.2459762E+06  0.1388934E+01 -0.2082825E-02  0.6279908E-05 -0.4061587E+06 -0.1899048E+01
  0.1738095E+00  0.2468894E+06  0.2767840E+01  0.1931386E-02 -0.2925098E-04 -0.4074023E+06 -0.3785626E+01
  0.2047619E+00  0.2473455E+06  0.5110226E+01  0.6259652E-02  0.1509450E-03 -0.4077755E+06 -0.6992452E+01
  0.2357143E+00  0.2479531E+06  0.9007069E+01  0.8998062E-02  0.3928691E-03 -0.4091266E+06 -0.1234232E+02
  0.2666667E+00  0.2495218E+06  0.1540666E+02  0.6351470E-02  0.6467998E-03 -0.4108545E+06 -0.2111830E+02
  0.2976190E+00  0.2506150E+06  0.2588518E+02 -0.3840088E-01 -0.1553044E-02 -0.4125410E+06 -0.3552720E+02
  0.3285715E+00  0.2517326E+06  0.4290331E+02 -0.4272460E-02 -0.3099144E-03 -0.4140053E+06 -0.5894844E+02
  0.3595238E+00  0.2534575E+06  0.7064715E+02 -0.1697666E-03 -0.5438924E-03 -0.4166593E+06 -0.9722066E+02
  0.3904762E+00  0.2551382E+06  0.1154860E+03 -0.1516202E-01 -0.1436710E-02 -0.4185762E+06 -0.1590529E+03
  0.4214286E+00  0.2572246E+06  0.1864443E+03 -0.8255263E-02 -0.1401901E-03 -0.4219325E+06 -0.2573091E+03
  0.4523810E+00  0.2589049E+06  0.2981435E+03  0.1571816E-01  0.1539707E-02 -0.4245469E+06 -0.4122191E+03
  0.4833333E+00  0.2621436E+06  0.4663187E+03  0.1426960E-01  0.2055168E-02 -0.4290062E+06 -0.6457114E+03
  0.5142857E+00  0.2646837E+06  0.7165836E+03  0.5518596E-02  0.1328945E-02 -0.4325375E+06 -0.9938406E+03
  0.5452381E+00  0.2675837E+06  0.1075537E+04  0.9627030E-02  0.3095150E-02 -0.4362338E+06 -0.1493477E+04
  0.5761905E+00  0.2706254E+06  0.1576453E+04 -0.1800789E-02 -0.8773804E-03 -0.4412242E+06 -0.2194847E+04
  0.6071429E+00  0.2745366E+06  0.2272144E+04  0.2714269E-02  0.2641678E-02 -0.4466268E+06 -0.3168666E+04
  0.6380953E+00  0.2790249E+06  0.3205516E+04 -0.1492173E-01 -0.4852295E-02 -0.4526953E+06 -0.4476647E+04
  0.6690477E+00  0.2830831E+06  0.4440840E+04  0.1350158E-01  0.8628845E-02 -0.4584523E+06 -0.6213314E+04
  0.7000000E+00  0.2871464E+06  0.6058624E+04  0.1116071E-01  0.4364014E-02 -0.4646487E+06 -0.8497532E+04
  0.7309524E+00  0.2921664E+06  0.8147991E+04 -0.1920520E-02  0.5607605E-02 -0.4716082E+06 -0.1144582E+05
  0.7619048E+00  0.2980973E+06  0.1083074E+05  0.1874542E-01  0.7919312E-02 -0.4802325E+06 -0.1524433E+05
  0.7928572E+00  0.3036252E+06  0.1421118E+05  0.5696614E-02 -0.2868652E-02 -0.4880250E+06 -0.2003780E+05
  0.8238096E+00  0.3093565E+06  0.1843337E+05 -0.3852624E-02  0.1831055E-02 -0.4957232E+06 -0.2602283E+05
  0.8547620E+00  0.3155772E+06  0.2366040E+05 -0.8568724E-03  0.1846313E-02 -0.5049574E+06 -0.3347600E+05
  0.8857143E+00  0.3212144E+06  0.3002088E+05 -0.9992045E-02 -0.9155273E-03 -0.5133530E+06 -0.4256459E+05
  0.9166667E+00  0.3268656E+06  0.3771046E+05  0.5326705E-03 -0.1922607E-02 -0.5217856E+06 -0.5357899E+05
  0.9476191E+00  0.3329944E+06  0.4695273E+05  0.1416997E-01  0.3234863E-02 -0.5299551E+06 -0.6675530E+05
  0.9785714E+00  0.3391462E+06  0.5794731E+05  0.4864992E-02  0.4302979E-02 -0.5386082E+06 -0.8249514E+05
  0.1009524E+01  0.3441989E+06  0.7078059E+05  0.1741230E-01  0.2233887E-01 -0.5462092E+06 -0.1009571E+06
  0.1040476E+01  0.3480069E+06  0.8553982E+05 -0.3402326E-02 -0.1617432E-01 -0.5515199E+06 -0.1221698E+06
  0.1071429E+01  0.3506561E+06  0.1023171E+06 -0.6722006E-02 -0.3588867E-01 -0.5556759E+06 -0.1464104E+06
  0.1102381E+01  0.3518449E+06  0.1210439E+06  0.1350947E-01  0.2026367E-01 -0.5567532E+06 -0.1732797E+06
  0.1133333E+01  0.3519468E+06  0.1417715E+06  0.1055549E-01  0.3051758E-03 -0.5574115E+06 -0.2033127E+06
  0.1164286E+01  0.3498865E+06  0.1641140E+06  0.1279117E-01  0.1800537E-01 -0.5547691E+06 -0.2356683E+06
  0.1195238E+01  0.3459812E+06  0.1878513E+06  0.8068313E-02  0.6103516E-03 -0.5485489E+06 -0.2697755E+06
  0.1226190E+01  0.3399412E+06  0.2126077E+06  0.3882547E-02 -0.5432129E-02 -0.5398537E+06 -0.3056432E+06
  0.1257143E+01  0.3313319E+06  0.2377267E+06 -0.5923184E-02 -0.2636719E-01 -0.5269693E+06 -0.3418467E+06
  0.1288095E+01  0.3212711E+06  0.2627974E+06 -0.2558738E-02  0.6591797E-02 -0.5115951E+06 -0.3777185E+06
  0.1319048E+01  0.3093215E+06  0.2873353E+06 -0.9254427E-03  0.1428223E-01 -0.4946552E+06 -0.4134471E+06
  0.1350000E+01  0.2953198E+06  0.3102852E+06 -0.5380136E-02 -0.1831055E-01 -0.4741666E+06 -0.4465086E+06
  0.1380952E+01  0.2800592E+06  0.3314282E+06  0.7027462E-02 -0.1953125E-02 -0.4514591E+06 -0.4766208E+06
  0.1411905E+01  0.2632029E+06  0.3501120E+06 -0.2680195E-02  0.4638672E-02 -0.4272958E+06 -0.5038819E+06
  0.1442857E+01  0.2464171E+06  0.3666468E+06 -0.3807143E-03 -0.7446289E-02 -0.4025932E+06 -0.5274482E+06
  0.1473810E+01  0.2295313E+06  0.3804728E+06 -0.9939165E-03  0.5493164E-02 -0.3771722E+06 -0.5462556E+06
  0.1504762E+01  0.2130945E+06  0.3921078E+06 -0.5678587E-03  0.2319336E-02 -0.3532712E+06 -0.5627106E+06
  0.1535714E+01  0.1970081E+06  0.4011866E+06 -0.6458371E-02  0.2172852E-01 -0.3300157E+06 -0.5755708E+06
  0.1566667E+01  0.1813396E+06  0.4075030E+06  0.9661735E-02 -0.5126953E-02 -0.3070504E+06 -0.5839194E+06
  0.1597619E+01  0.1663219E+06  0.4113258E+06 -0.1337134E-03  0.1037598E-01 -0.2848355E+06 -0.5884329E+06
  0.1628572E+01  0.1522168E+06  0.4132731E+06 -0.7270679E-02  0.2197266E-02 -0.2642582E+06 -0.5906060E+06
  0.1659524E+01  0.1391324E+06  0.4134589E+06  0.1199906E-02  0.9765625E-03 -0.2450919E+06 -0.5898218E+06
  0.1690476E+01  0.1271255E+06  0.4118977E+06  0.2423568E-02  0.6958008E-02 -0.2271937E+06 -0.5853659E+06
  0.1721429E+01  0.1162387E+06  0.4091827E+06 -0.1876958E-02 -0.9033203E-02 -0.2111621E+06 -0.5797746E+06
  0.1752381E+01  0.1063379E+06  0.4058412E+06  0.3583120E-02 -0.4272461E-02 -0.1970764E+06 -0.5744192E+06
  0.1783333E+01  0.9704615E+05  0.4010642E+06  0.9780956E-03 -0.1367188E-01 -0.1837746E+06 -0.5664108E+06
  0.1814286E+01  0.8869859E+05  0.3953638E+06 -0.3718429E-02 -0.9826660E-02 -0.1717510E+06 -0.5566373E+06
  0.1845238E+01  0.8106770E+05  0.3886684E+06 -0.8359208E-02  0.3845215E-02 -0.1606777E+06 -0.5452491E+06
  0.1876190E+01  0.7412102E+05  0.3814165E+06 -0.2058629E-02  0.1452637E-01 -0.1507421E+06 -0.5336183E+06
  0.1907143E+01  0.6790477E+05  0.3738018E+06 -0.3008325E-02 -0.1562500E-01 -0.1419028E+06 -0.5214682E+06
  0.1938095E+01  0.6239398E+05  0.3655408E+06  0.3398712E-02  0.7995605E-02 -0.1340652E+06 -0.5069954E+06
  0.1969048E+01  0.5756998E+05  0.3569984E+06  0.2876937E-03 -0.2288818E-02 -0.1272856E+06 -0.4919652E+06
  0.2000000E+01  0.5325752E+05  0.3484522E+06 -0.2023697E-02 -0.2685547E-02 -0.1213859E+06 -0.4783168E+06
Zone t="Motion of body    1 in DoF   2",I=    64,F=POINT
  0.5000000E-01 -0.8392334E-02 -0.1020432E-03  0.2568305E+06  0.6518716E+03 -0.1831055E-02 -0.2670288E-04
  0.8095238E-01  0.3675573E-02  0.5722046E-05  0.2529983E+06  0.1078200E+04 -0.5730124E-01  0.8392334E-04
  0.1119048E+00  0.4499719E-02 -0.1354218E-03  0.2513563E+06  0.1538296E+04 -0.1636262E-02  0.2212524E-03
  0.1428571E+00  0.7904053E-02  0.1258850E-03  0.2499772E+06  0.2048092E+04 -0.2990722E-01 -0.2822876E-03
  0.1738095E+00 -0.3160450E-02 -0.6103516E-04  0.2491253E+06  0.2625633E+04 -0.1685574E-01 -0.1373291E-03
  0.2047619E+00 -0.5961573E-02 -0.3585815E-03  0.2489852E+06  0.3296388E+04  0.3576944E-02 -0.5187988E-03
  0.2357143E+00  0.5308209E-02 -0.3585815E-03  0.2489041E+06  0.4092733E+04 -0.3728693E-01  0.2593994E-03
  0.2666667E+00 -0.4119873E-02  0.6713867E-03  0.2489976E+06  0.5037351E+04 -0.3204346E-01 -0.3662109E-03
  0.2976190E+00 -0.2871094E-02  0.2517700E-03  0.2493288E+06  0.6196171E+04 -0.4101562E-02  0.7934570E-03
  0.3285715E+00  0.3436544E-02  0.5493164E-03  0.2495198E+06  0.7587094E+04 -0.4978345E-01  0.8239746E-03
  0.3595238E+00 -0.3310450E-01  0.1708984E-02  0.2496017E+06  0.9282812E+04 -0.9506932E-02 -0.1007080E-02
  0.3904762E+00  0.5158214E-02 -0.2441406E-03  0.2496603E+06  0.1131607E+05 -0.8753334E-02 -0.9765625E-03
  0.4214286E+00 -0.2346233E-01 -0.7934570E-03  0.2487760E+06  0.1364221E+05  0.1737950E-01 -0.1892090E-02
  0.4523810E+00  0.5666632E-02  0.2746582E-03  0.2481674E+06  0.1637616E+05 -0.3453947E-01  0.4394531E-02
  0.4833333E+00  0.5808863E-02 -0.4882812E-03  0.2459710E+06  0.1921810E+05 -0.3939924E-01 -0.2990723E-02
  0.5142857E+00 -0.1186795E-01 -0.6134033E-02  0.2440637E+06  0.2231873E+05 -0.2848307E-02  0.2441406E-03
  0.5452381E+00  0.2574671E-02  0.3753662E-02  0.2409413E+06  0.2545842E+05 -0.3850812E-01 -0.4394531E-02
  0.5761905E+00 -0.1578339E-01  0.8544922E-03  0.2376640E+06  0.2854213E+05 -0.5084581E-02 -0.2197266E-02
  0.6071429E+00  0.1166130E-01 -0.3112793E-02  0.2345850E+06  0.3166789E+05 -0.4021139E-02 -0.2441406E-03
  0.6380953E+00 -0.2869563E-03  0.6164551E-02  0.2304698E+06  0.3456831E+05 -0.6121735E-02  0.6835938E-02
  0.6690477E+00  0.1167705E-01  0.2441406E-03  0.2266590E+06  0.3733988E+05 -0.2262428E-01  0.4516602E-02
  0.7000000E+00  0.6975446E-03  0.7934570E-03  0.2231822E+06  0.3997212E+05 -0.1604353E-01 -0.3662109E-02
  0.7309524E+00  0.1619917E-01 -0.2258301E-02  0.2187493E+06  0.4237537E+05 -0.1803618E-01 -0.1342773E-01
  0.7619048E+00 -0.5287170E-02 -0.3662109E-02  0.2147623E+06  0.4456136E+05 -0.1025391E-01  0.1416016E-01
  0.7928572E+00 -0.1224002E-01 -0.3051758E-02  0.2112803E+06  0.4646624E+05 -0.7390202E-02  0.7324219E-02
  0.8238096E+00  0.6223469E-02 -0.3906250E-02  0.2073521E+06  0.4813473E+05 -0.2015219E-01  0.1538086E-01
  0.8547620E+00  0.8497317E-02 -0.5249023E-02  0.2033380E+06  0.4955204E+05 -0.1085372E-01 -0.1000977E-01
  0.8857143E+00  0.7235619E-02  0.5981445E-02  0.1997237E+06  0.5066073E+05 -0.1212828E-01 -0.9765625E-03
  0.9166667E+00 -0.7057883E-02 -0.7080078E-02  0.1969022E+06  0.5141620E+05 -0.3089488E-01  0.2612305E-01
  0.9476191E+00 -0.9017254E-02  0.4760742E-02  0.1936125E+06  0.5190832E+05 -0.5667988E-02  0.2929688E-02
  0.9785714E+00  0.4989735E-02  0.4028320E-02  0.1902112E+06  0.5215032E+05 -0.8482550E-02  0.1074219E-01
  0.1009524E+01  0.2116078E-02  0.5126953E-02  0.1873424E+06  0.5213290E+05 -0.1741230E-01 -0.2368164E-01
  0.1040476E+01 -0.5866079E-03  0.9765625E-02  0.1849913E+06  0.5180952E+05 -0.4692863E-03  0.2441406E-03
  0.1071429E+01  0.1039632E-01 -0.4272461E-02  0.1832913E+06  0.5121926E+05 -0.2734375E-02 -0.4882812E-03
  0.1102381E+01  0.1744050E-02 -0.6225586E-02  0.1806053E+06  0.5032997E+05 -0.1816026E-01  0.4882812E-02
  0.1133333E+01  0.7606955E-02 -0.1672363E-01  0.1784203E+06  0.4929380E+05 -0.3446691E-02  0.2832031E-01
  0.1164286E+01  0.4508364E-02  0.7934570E-02  0.1767209E+06  0.4809958E+05 -0.1887222E-01 -0.1855469E-01
  0.1195238E+01  0.1340463E-03  0.3662109E-03  0.1754549E+06  0.4672639E+05 -0.3880960E-01  0.1684570E-01
  0.1226190E+01  0.5394501E-02  0.1318359E-01  0.1747814E+06  0.4528146E+05 -0.1752124E-01 -0.3417969E-02
  0.1257143E+01  0.6451173E-02  0.7812500E-02  0.1736952E+06  0.4356410E+05 -0.1087535E-01  0.4296875E-01
  0.1288095E+01 -0.3115501E-02 -0.7202148E-02  0.1724287E+06  0.4153669E+05 -0.1440475E-01  0.1977539E-01
  0.1319048E+01  0.5784017E-04 -0.3906250E-02  0.1716328E+06  0.3971138E+05  0.7403542E-03  0.1733398E-01
  0.1350000E+01  0.3955982E-02  0.2661133E-01  0.1711407E+06  0.3781192E+05  0.0000000E+00 -0.4248047E-01
  0.1380952E+01  0.5303745E-02  0.1525879E-01  0.1710057E+06  0.3590761E+05 -0.1803273E-01 -0.1904297E-01
  0.1411905E+01  0.5727835E-02  0.9155273E-02  0.1712348E+06  0.3418657E+05 -0.1590825E-01  0.4150391E-02
  0.1442857E+01 -0.7191271E-03 -0.1403809E-01  0.1713228E+06  0.3223813E+05 -0.1590540E-01  0.3088379E-01
  0.1473810E+01  0.4141319E-03  0.5981445E-02  0.1710247E+06  0.2980110E+05 -0.2816097E-01 -0.2368164E-01
  0.1504762E+01 -0.2393119E-02 -0.8544922E-03  0.1710607E+06  0.2775950E+05 -0.9734721E-03 -0.5615234E-02
  0.1535714E+01  0.5484647E-02  0.1757812E-01  0.1712634E+06  0.2588524E+05 -0.8902616E-02 -0.2526855E-01
  0.1566667E+01  0.3545234E-02  0.9033203E-02  0.1716288E+06  0.2407301E+05 -0.1246675E-01 -0.1916504E-01
  0.1597619E+01  0.3285529E-02 -0.1379395E-01  0.1721746E+06  0.2241270E+05 -0.2658986E-01  0.2441406E-02
  0.1628572E+01 -0.5321837E-02  0.7324219E-02  0.1728528E+06  0.2103088E+05  0.1798931E-02  0.6469727E-02
  0.1659524E+01  0.4744454E-02  0.3710938E-01  0.1734873E+06  0.1954879E+05 -0.1883070E-01 -0.4248047E-01
  0.1690476E+01 -0.4440952E-02  0.5737305E-02  0.1738956E+06  0.1753610E+05  0.1444212E-01 -0.2136230E-02
  0.1721429E+01  0.1560069E-02 -0.8544922E-03  0.1744195E+06  0.1576448E+05  0.5672977E-03  0.7263184E-02
  0.1752381E+01  0.1072759E-01  0.8056641E-02  0.1749592E+06  0.1441021E+05 -0.2507749E-01 -0.7812500E-02
  0.1783333E+01 -0.1985069E-02 -0.6958008E-02  0.1755666E+06  0.1317882E+05 -0.5476051E-02  0.8056641E-02
  0.1814286E+01  0.0000000E+00 -0.4882812E-03  0.1762199E+06  0.1204554E+05  0.0000000E+00  0.1678467E-01
  0.1845238E+01 -0.7938508E-03  0.2197266E-02  0.1768845E+06  0.1104744E+05 -0.3175403E-02 -0.2746582E-02
  0.1876190E+01 -0.1886823E-02 -0.3906250E-02  0.1775414E+06  0.1013782E+05 -0.8328046E-02  0.1538086E-01
  0.1907143E+01  0.2560276E-02  0.6530762E-02  0.1781899E+06  0.9196285E+04 -0.3072332E-02 -0.2047729E-01
  0.1938095E+01 -0.4534897E-02 -0.9765625E-02  0.1787550E+06  0.8148686E+04 -0.6046529E-02  0.9918213E-02
  0.1969048E+01 -0.1983827E-02 -0.8361816E-02  0.1793032E+06  0.7198283E+04 -0.1239892E-01  0.8209229E-02
  0.2000000E+01  0.1770020E-02 -0.2746582E-02  0.1798278E+06  0.6661446E+04 -0.1416016E-01 -0.1007080E-02
Zone t="Motion of body    1 in DoF   3",I=    64,F=POINT
  0.5000000E-01 -0.4009705E+06 -0.6704910E-01 -0.9368896E-01 -0.3376328E-03  0.1087709E+07  0.9167583E-01
  0.8095238E-01 -0.4021806E+06 -0.2956442E+00 -0.8425544E-01 -0.4766819E-03  0.1088873E+07  0.4039575E+00
  0.1119048E+00 -0.4031599E+06 -0.8300160E+00  0.1840794E-01  0.1258049E-03  0.1091401E+07  0.1134364E+01
  0.1428571E+00 -0.4042074E+06 -0.1873094E+01 -0.3866577E-01 -0.4180912E-03  0.1091942E+07  0.2561244E+01
  0.1738095E+00 -0.4056182E+06 -0.3735718E+01  0.2027956E-01  0.4505664E-03  0.1093234E+07  0.5109932E+01
  0.2047619E+00 -0.4058349E+06 -0.6902126E+01 -0.4277429E-01 -0.6014593E-03  0.1093088E+07  0.9445255E+01
  0.2357143E+00 -0.4071319E+06 -0.1217429E+02 -0.1450047E-01 -0.2731904E-03  0.1096104E+07  0.1668211E+02
  0.2666667E+00 -0.4089832E+06 -0.2084586E+02  0.6523132E-02  0.1228079E-02  0.1097434E+07  0.2857558E+02
  0.2976190E+00 -0.4105854E+06 -0.3506073E+02 -0.1630371E-01 -0.2231598E-03  0.1100704E+07  0.4812880E+02
  0.3285715E+00 -0.4120382E+06 -0.5818719E+02  0.1801864E-01  0.2732277E-03  0.1101950E+07  0.7995685E+02
  0.3595238E+00 -0.4147156E+06 -0.9593510E+02 -0.4609165E-01 -0.2571762E-02  0.1106207E+07  0.1320191E+03
  0.3904762E+00 -0.4165922E+06 -0.1570514E+03  0.1656881E-01  0.1218796E-02  0.1107861E+07  0.2162976E+03
  0.4214286E+00 -0.4200076E+06 -0.2539416E+03 -0.8255263E-01 -0.3463507E-02  0.1113508E+07  0.3504638E+03
  0.4523810E+00 -0.4222610E+06 -0.4067293E+03 -0.1202136E+00 -0.7842541E-02  0.1118384E+07  0.5623383E+03
  0.4833333E+00 -0.4270884E+06 -0.6372130E+03 -0.1185766E+00 -0.1349735E-01  0.1123329E+07  0.8823337E+03
  0.5142857E+00 -0.4302919E+06 -0.9809609E+03 -0.1627096E+00 -0.2549601E-01  0.1129590E+07  0.1360518E+04
  0.5452381E+00 -0.4340856E+06 -0.1474894E+04  0.1399278E-01 -0.3896713E-02  0.1132692E+07  0.2048037E+04
  0.5761905E+00 -0.4390283E+06 -0.2165517E+04 -0.1130260E+00 -0.1206589E-01  0.1140737E+07  0.3014992E+04
  0.6071429E+00 -0.4441367E+06 -0.3127798E+04  0.2111098E-01  0.5245209E-03  0.1149693E+07  0.4361913E+04
  0.6380953E+00 -0.4505319E+06 -0.4420375E+04  0.3739997E-01 -0.8476257E-02  0.1156050E+07  0.6173224E+04
  0.6690477E+00 -0.4561571E+06 -0.6135403E+04 -0.2526986E-01 -0.1623917E-01  0.1164414E+07  0.8584345E+04
  0.7000000E+00 -0.4618361E+06 -0.8387787E+04  0.4359654E-02  0.1060486E-02  0.1175569E+07  0.1176506E+05
  0.7309524E+00 -0.4690026E+06 -0.1129917E+05 -0.1912170E-01 -0.1664734E-01  0.1182821E+07  0.1587238E+05
  0.7619048E+00 -0.4777502E+06 -0.1504764E+05 -0.3524780E-01 -0.2202606E-01  0.1195548E+07  0.2117868E+05
  0.7928572E+00 -0.4851975E+06 -0.1978655E+05  0.4957594E-01  0.3689575E-01  0.1207750E+07  0.2790007E+05
  0.8238096E+00 -0.4928664E+06 -0.2571356E+05  0.2963557E-03 -0.9704590E-02  0.1217152E+07  0.3630088E+05
  0.8547620E+00 -0.5021583E+06 -0.3306121E+05 -0.3306099E-01 -0.1661682E-01  0.1230253E+07  0.4677894E+05
  0.8857143E+00 -0.5103163E+06 -0.4201812E+05 -0.1584945E-02  0.5645752E-03  0.1242558E+07  0.5957718E+05
  0.9166667E+00 -0.5183340E+06 -0.5287934E+05 -0.3142755E-01 -0.2319336E-02  0.1256291E+07  0.7513754E+05
  0.9476191E+00 -0.5266311E+06 -0.6594394E+05 -0.4637445E-01 -0.1083374E-01  0.1266389E+07  0.9374755E+05
  0.9785714E+00 -0.5355098E+06 -0.8151232E+05  0.3000079E-01  0.3512573E-01  0.1277437E+07  0.1160294E+06
  0.1009524E+01 -0.5430675E+06 -0.9972275E+05 -0.3990318E-01 -0.1269531E-01  0.1289179E+07  0.1422382E+06
  0.1040476E+01 -0.5481549E+06 -0.1207107E+06 -0.7332599E-02 -0.2929688E-02  0.1296980E+07  0.1724174E+06
  0.1071429E+01 -0.5518857E+06 -0.1446513E+06  0.3406576E-01 -0.1831055E-02  0.1305601E+07  0.2070486E+06
  0.1102381E+01 -0.5530553E+06 -0.1712457E+06 -0.5492373E-01 -0.8349609E-01  0.1303571E+07  0.2451452E+06
  0.1133333E+01 -0.5537481E+06 -0.2007571E+06  0.2369600E-02 -0.1586914E-01  0.1304669E+07  0.2879007E+06
  0.1164286E+01 -0.5511298E+06 -0.2325836E+06 -0.7056113E-01 -0.4626465E-01  0.1301575E+07  0.3339912E+06
  0.1195238E+01 -0.5450482E+06 -0.2664275E+06 -0.3850321E-01 -0.3173828E-01  0.1292102E+07  0.3826013E+06
  0.1226190E+01 -0.5362824E+06 -0.3018998E+06 -0.2588365E-02 -0.1220703E-02  0.1281661E+07  0.4341046E+06
  0.1257143E+01 -0.5234923E+06 -0.3377179E+06  0.1330289E-01  0.5517578E-01  0.1262098E+07  0.4857007E+06
  0.1288095E+01 -0.5085002E+06 -0.3733398E+06 -0.2435540E-01 -0.2429199E-01  0.1236938E+07  0.5364412E+06
  0.1319048E+01 -0.4919271E+06 -0.4083657E+06  0.1776850E-01  0.3210449E-01  0.1213835E+07  0.5875406E+06
  0.1350000E+01 -0.4717015E+06 -0.4409793E+06  0.1971209E-01 -0.3576660E-01  0.1184489E+07  0.6345381E+06
  0.1380952E+01 -0.4491767E+06 -0.4709319E+06 -0.2545797E-01 -0.5651855E-01  0.1151344E+07  0.6772003E+06
  0.1411905E+01 -0.4249578E+06 -0.4976939E+06 -0.1729158E-03 -0.5981445E-02  0.1118708E+07  0.7166897E+06
  0.1442857E+01 -0.4004466E+06 -0.5210272E+06 -0.1421334E-01 -0.3417969E-01  0.1083154E+07  0.7500091E+06
  0.1473810E+01 -0.3753780E+06 -0.5397828E+06 -0.2998315E-01 -0.7568359E-02  0.1042310E+07  0.7744624E+06
  0.1504762E+01 -0.3520039E+06 -0.5559434E+06 -0.8112267E-03 -0.9033203E-02  0.1008051E+07  0.7972843E+06
  0.1535714E+01 -0.3292983E+06 -0.5684981E+06 -0.9697492E-02 -0.1159668E-01  0.9758009E+06  0.8154094E+06
  0.1566667E+01 -0.3066281E+06 -0.5767067E+06 -0.1963514E-01  0.2062988E-01  0.9427311E+06  0.8261771E+06
  0.1597619E+01 -0.2844544E+06 -0.5811540E+06 -0.4767837E-01 -0.2770996E-01  0.9105690E+06  0.8314882E+06
  0.1628572E+01 -0.2639777E+06 -0.5833275E+06 -0.1499109E-01 -0.1220703E-02  0.8828877E+06  0.8349902E+06
  0.1659524E+01 -0.2449061E+06 -0.5827485E+06 -0.2059608E-02  0.1611328E-01  0.8561909E+06  0.8333506E+06
  0.1690476E+01 -0.2271675E+06 -0.5785744E+06 -0.1646402E-01 -0.5737305E-01  0.8271148E+06  0.8218098E+06
  0.1721429E+01 -0.2113656E+06 -0.5731041E+06 -0.5672977E-02 -0.9765625E-03  0.8023434E+06  0.8102176E+06
  0.1752381E+01 -0.1979164E+06 -0.5676747E+06 -0.5572775E-02  0.1257324E-01  0.7835237E+06  0.8024099E+06
  0.1783333E+01 -0.1849224E+06 -0.5597274E+06 -0.1834477E-01  0.3247070E-01  0.7654228E+06  0.7900370E+06
  0.1814286E+01 -0.1730302E+06 -0.5500656E+06  0.2502922E-01  0.2453613E-01  0.7484136E+06  0.7738938E+06
  0.1845238E+01 -0.1619112E+06 -0.5388049E+06 -0.3704637E-02  0.1074219E-01  0.7328791E+06  0.7559691E+06
  0.1876190E+01 -0.1520101E+06 -0.5273788E+06 -0.2706615E-01 -0.3979492E-01  0.7203922E+06  0.7406972E+06
  0.1907143E+01 -0.1431095E+06 -0.5155688E+06  0.1100919E-01  0.1043701E-01  0.7095282E+06  0.7253784E+06
  0.1938095E+01 -0.1352844E+06 -0.5012002E+06 -0.3023265E-01 -0.1635742E-01  0.6968188E+06  0.6972135E+06
  0.1969048E+01 -0.1285068E+06 -0.4861161E+06 -0.2380593E-01 -0.1159668E-01  0.6854498E+06  0.6661628E+06
  0.2000000E+01 -0.1229248E+06 -0.4728120E+06 -0.6591797E-02  0.8911133E-02  0.6777656E+06  0.6456476E+06
