VARIABLES="w (rad/s)"
"A   1   1" "B   1   1"
"A   1   2" "B   1   2"
"A   1   3" "B   1   3"
Zone t="Motion of body    1 in DoF   1",I=    64,F=POINT
  0.5000000E-01  0.7170705E+05  0.4879910E-02 -0.3204346E-02  0.2982004E-05 -0.1424970E+06 -0.9416295E-02
  0.8095238E-01  0.7235445E+05  0.2158837E-01 -0.3015855E-02 -0.6223112E-05 -0.1438565E+06 -0.4185071E-01
  0.1119048E+00  0.7245516E+05  0.6065644E-01  0.1261285E-02  0.9640411E-05 -0.1440762E+06 -0.1175167E+00
  0.1428571E+00  0.7264502E+05  0.1364298E+00 -0.1735687E-02  0.8743256E-05 -0.1444149E+06 -0.2641478E+00
  0.1738095E+00  0.7278134E+05  0.2714081E+00 -0.1316854E-02 -0.4558126E-05 -0.1445839E+06 -0.5249807E+00
  0.2047619E+00  0.7287838E+05  0.5007493E+00 -0.5514455E-02 -0.1031044E-03 -0.1447407E+06 -0.9684108E+00
  0.2357143E+00  0.7303333E+05  0.8816971E+00 -0.1488888E-02 -0.5418994E-04 -0.1450284E+06 -0.1704325E+01
  0.2666667E+00  0.7316246E+05  0.1503966E+01 -0.5149841E-03 -0.3186893E-04 -0.1451777E+06 -0.2904693E+01
  0.2976190E+00  0.7333922E+05  0.2522197E+01 -0.9741211E-03 -0.8929893E-04 -0.1454860E+06 -0.4868047E+01
  0.3285715E+00  0.7348427E+05  0.4170749E+01 -0.4086701E-02 -0.1169965E-03 -0.1457801E+06 -0.8044664E+01
  0.3595238E+00  0.7379587E+05  0.6850784E+01 -0.5008116E-02 -0.9378418E-04 -0.1462306E+06 -0.1319824E+02
  0.3904762E+00  0.7398575E+05  0.1116106E+02  0.4103125E-03  0.1018643E-03 -0.1464911E+06 -0.2147778E+02
  0.4214286E+00  0.7427951E+05  0.1795577E+02  0.2606925E-02  0.6610155E-04 -0.1470640E+06 -0.3452272E+02
  0.4523810E+00  0.7455807E+05  0.2862907E+02 -0.3912674E-02 -0.3770590E-03 -0.1475079E+06 -0.5497697E+02
  0.4833333E+00  0.7495166E+05  0.4454258E+02 -0.1673205E-02 -0.1516044E-03 -0.1480556E+06 -0.8539090E+02
  0.5142857E+00  0.7532238E+05  0.6815970E+02 -0.7447137E-02 -0.6598830E-03 -0.1486254E+06 -0.1304686E+03
  0.5452381E+00  0.7567630E+05  0.1017941E+03 -0.5373226E-02 -0.1595020E-03 -0.1493910E+06 -0.1946768E+03
  0.5761905E+00  0.7620941E+05  0.1485762E+03 -0.1059288E-02 -0.5114079E-04 -0.1502701E+06 -0.2836646E+03
  0.6071429E+00  0.7670476E+05  0.2128441E+03 -0.1357135E-02 -0.4910231E-03 -0.1509724E+06 -0.4055328E+03
  0.6380953E+00  0.7724565E+05  0.2982384E+03 -0.2343477E-02 -0.1024961E-02 -0.1518526E+06 -0.5671607E+03
  0.6690477E+00  0.7785875E+05  0.4108517E+03  0.3101715E-02 -0.9584427E-04 -0.1529637E+06 -0.7800367E+03
  0.7000000E+00  0.7839137E+05  0.5571489E+03 -0.3640311E-02 -0.7228851E-03 -0.1539114E+06 -0.1055955E+04
  0.7309524E+00  0.7910307E+05  0.7445739E+03  0.2379774E-02  0.8025169E-03 -0.1550743E+06 -0.1408015E+04
  0.7619048E+00  0.7993838E+05  0.9826451E+03 -0.1241684E-02 -0.8010864E-03 -0.1563853E+06 -0.1853456E+04
  0.7928572E+00  0.8067648E+05  0.1280441E+04 -0.2501891E-02 -0.1230240E-02 -0.1575429E+06 -0.2409042E+04
  0.8238096E+00  0.8149573E+05  0.1650398E+04 -0.5964158E-02 -0.1205444E-02 -0.1589641E+06 -0.3098080E+04
  0.8547620E+00  0.8227678E+05  0.2103882E+04 -0.7854663E-03 -0.7591248E-03 -0.1603110E+06 -0.3940143E+04
  0.8857143E+00  0.8322986E+05  0.2657562E+04  0.3032069E-02  0.3290176E-02 -0.1619545E+06 -0.4964688E+04
  0.9166667E+00  0.8414181E+05  0.3324589E+04  0.2330433E-02  0.3814697E-05 -0.1633419E+06 -0.6191166E+04
  0.9476191E+00  0.8515651E+05  0.4125483E+04  0.2672972E-02  0.8106232E-03 -0.1649672E+06 -0.7659041E+04
  0.9785714E+00  0.8614195E+05  0.5076492E+04  0.0000000E+00  0.1121521E-02 -0.1664761E+06 -0.9393251E+04
  0.1009524E+01  0.8720423E+05  0.6200787E+04  0.6650529E-03  0.5645752E-03 -0.1681242E+06 -0.1143487E+05
  0.1040476E+01  0.8821684E+05  0.7516055E+04 -0.7039295E-03  0.1369476E-02 -0.1697827E+06 -0.1381718E+05
  0.1071429E+01  0.8911864E+05  0.9039340E+04 -0.2421061E-02 -0.2841949E-02 -0.1711524E+06 -0.1655994E+05
  0.1102381E+01  0.9012073E+05  0.1080172E+05 -0.2325400E-02 -0.2784729E-02 -0.1728402E+06 -0.1972712E+05
  0.1133333E+01  0.9102028E+05  0.1280954E+05 -0.2692727E-03  0.2670288E-02 -0.1740802E+06 -0.2329788E+05
  0.1164286E+01  0.9198313E+05  0.1509931E+05  0.1834799E-03 -0.1449585E-02 -0.1753958E+06 -0.2734593E+05
  0.1195238E+01  0.9283727E+05  0.1768098E+05 -0.1966013E-02 -0.5500793E-02 -0.1765625E+06 -0.3188821E+05
  0.1226190E+01  0.9348629E+05  0.2055794E+05 -0.4678967E-02 -0.2655029E-02 -0.1772168E+06 -0.3690120E+05
  0.1257143E+01  0.9397651E+05  0.2374820E+05 -0.2815940E-02  0.1419067E-02 -0.1777599E+06 -0.4244852E+05
  0.1288095E+01  0.9448505E+05  0.2729152E+05 -0.1042449E-02 -0.2441406E-03 -0.1782207E+06 -0.4855352E+05
  0.1319048E+01  0.9469643E+05  0.3113627E+05 -0.8097624E-03 -0.2731323E-02 -0.1781853E+06 -0.5513510E+05
  0.1350000E+01  0.9478380E+05  0.3530658E+05 -0.1130281E-02 -0.3356934E-02 -0.1779575E+06 -0.6222884E+05
  0.1380952E+01  0.9458678E+05  0.3975779E+05 -0.1856311E-02 -0.9918213E-03 -0.1773043E+06 -0.6975532E+05
  0.1411905E+01  0.9395797E+05  0.4439165E+05 -0.1794001E-02 -0.1831055E-03 -0.1757961E+06 -0.7748014E+05
  0.1442857E+01  0.9326516E+05  0.4929277E+05  0.7402779E-03  0.1678467E-02 -0.1741342E+06 -0.8556788E+05
  0.1473810E+01  0.9235645E+05  0.5438589E+05  0.4141319E-03 -0.8239746E-03 -0.1721281E+06 -0.9389186E+05
  0.1504762E+01  0.9106173E+05  0.5955654E+05 -0.1399366E-02 -0.2960205E-02 -0.1693772E+06 -0.1021989E+06
  0.1535714E+01  0.8955052E+05  0.6480996E+05 -0.1808344E-02  0.5798340E-03 -0.1663130E+06 -0.1105452E+06
  0.1566667E+01  0.8781845E+05  0.7008451E+05 -0.2649185E-02 -0.1037598E-02 -0.1629499E+06 -0.1188322E+06
  0.1597619E+01  0.8575340E+05  0.7523556E+05 -0.2865287E-03 -0.3356934E-03 -0.1590784E+06 -0.1267937E+06
  0.1628572E+01  0.8341244E+05  0.8015445E+05 -0.2585963E-02 -0.1251221E-02 -0.1546078E+06 -0.1341112E+06
  0.1659524E+01  0.8092600E+05  0.8489452E+05 -0.1471149E-02  0.9155273E-04 -0.1500362E+06 -0.1410742E+06
  0.1690476E+01  0.7833495E+05  0.8940947E+05 -0.7221061E-04  0.4638672E-02 -0.1454197E+06 -0.1476031E+06
  0.1721429E+01  0.7551509E+05  0.9350309E+05 -0.1010499E-02 -0.3021240E-02 -0.1403773E+06 -0.1532242E+06
  0.1752381E+01  0.7261462E+05  0.9723690E+05 -0.2890877E-02 -0.3143311E-02 -0.1352890E+06 -0.1581673E+06
  0.1783333E+01  0.6969023E+05  0.1005814E+06 -0.1214999E-02 -0.4516602E-02 -0.1302201E+06 -0.1623556E+06
  0.1814286E+01  0.6679536E+05  0.1035334E+06 -0.1648430E-02 -0.3326416E-02 -0.1253214E+06 -0.1658671E+06
  0.1845238E+01  0.6384379E+05  0.1059620E+06 -0.6615424E-04  0.1373291E-02 -0.1203848E+06 -0.1684263E+06
  0.1876190E+01  0.6089004E+05  0.1078589E+06 -0.2000683E-02 -0.4577637E-03 -0.1154159E+06 -0.1699026E+06
  0.1907143E+01  0.5802044E+05  0.1093525E+06 -0.1600173E-02 -0.1281738E-02 -0.1107043E+06 -0.1707545E+06
  0.1938095E+01  0.5528089E+05  0.1105110E+06 -0.3290950E-02  0.8850098E-03 -0.1063671E+06 -0.1711846E+06
  0.1969048E+01  0.5266467E+05  0.1112442E+06 -0.5114555E-03 -0.3417969E-02 -0.1022518E+06 -0.1708285E+06
  0.2000000E+01  0.5012086E+05  0.1114885E+06 -0.2182007E-02 -0.1983643E-02 -0.9826322E+05 -0.1695902E+06
Zone t="Motion of body    1 in DoF   2",I=    64,F=POINT
  0.5000000E-01 -0.4272461E-02  0.3337860E-05  0.4241207E+05  0.6108969E+02  0.2899170E-02 -0.9107590E-04
  0.8095238E-01  0.6008148E-02 -0.1382828E-04  0.4218009E+05  0.1011487E+03 -0.9424546E-03  0.7152557E-05
  0.1119048E+00  0.3085035E-02 -0.1192093E-05  0.4195267E+05  0.1445362E+03 -0.7908598E-02  0.1115799E-03
  0.1428571E+00  0.2763748E-02  0.2861023E-05  0.4188442E+05  0.1928574E+03  0.2990722E-02 -0.1001358E-03
  0.1738095E+00 -0.4510226E-02 -0.8630753E-04  0.4178707E+05  0.2479082E+03  0.1246622E-01 -0.1611710E-03
  0.2047619E+00  0.2962157E-02  0.1144409E-04  0.4175857E+05  0.3122659E+03 -0.1207219E-01 -0.1144409E-03
  0.2357143E+00 -0.1650723E-02 -0.5006790E-04  0.4185390E+05  0.3891792E+03  0.0000000E+00  0.2498627E-03
  0.2666667E+00  0.2503395E-02 -0.5531311E-04  0.4180768E+05  0.4812289E+03 -0.1190185E-01  0.5168915E-03
  0.2976190E+00  0.2845459E-02 -0.1411438E-03  0.4193632E+05  0.5949838E+03 -0.2050781E-02  0.1602173E-03
  0.3285715E+00 -0.4748468E-02  0.3261566E-03  0.4191299E+05  0.7330295E+03  0.2600628E-02 -0.7972717E-03
  0.3595238E+00  0.3756087E-02  0.7438660E-04  0.4206109E+05  0.9027739E+03 -0.1358133E-01 -0.4196167E-03
  0.3904762E+00  0.1074628E-02  0.5187988E-03  0.4198929E+05  0.1108919E+04 -0.5158214E-02 -0.2319336E-02
  0.4214286E+00  0.2751754E-02 -0.2059937E-03  0.4201818E+05  0.1347783E+04 -0.1013804E-01 -0.1144409E-03
  0.4523810E+00 -0.2209312E-02 -0.1792908E-03  0.4192244E+05  0.1632615E+04 -0.9444387E-02  0.1815796E-02
  0.4833333E+00  0.4340862E-02 -0.2784729E-03  0.4177748E+05  0.1933783E+04  0.3788389E-03  0.1045227E-02
  0.5142857E+00 -0.1379649E-02  0.2822876E-03  0.4163339E+05  0.2267897E+04 -0.6646051E-02 -0.2197266E-02
  0.5452381E+00  0.5177328E-03  0.5340576E-04  0.4132135E+05  0.2613726E+04 -0.3806035E-02 -0.8087158E-03
  0.5761905E+00  0.2303951E-02 -0.9193420E-03  0.4112155E+05  0.2960493E+04 -0.1249960E-01  0.1724243E-02
  0.6071429E+00 -0.1935173E-02  0.4196167E-03  0.4073657E+05  0.3321506E+04 -0.1085708E-01  0.2304077E-02
  0.6380953E+00  0.9840211E-02 -0.2059937E-03  0.4035216E+05  0.3665632E+04 -0.1568695E-01 -0.2090454E-02
  0.6690477E+00 -0.2166639E-03  0.1541138E-02  0.4008774E+05  0.4003212E+04 -0.1094723E-02  0.4852295E-02
  0.7000000E+00  0.1155308E-02 -0.8621216E-03  0.3961705E+05  0.4337450E+04 -0.5929129E-02 -0.2838135E-02
  0.7309524E+00  0.1878769E-02  0.5645752E-03  0.3917015E+05  0.4652183E+04 -0.4175043E-02 -0.1251221E-02
  0.7619048E+00  0.3124237E-02  0.1159668E-02  0.3881938E+05  0.4948341E+04 -0.1746368E-01 -0.3967285E-03
  0.7928572E+00 -0.7361334E-02 -0.4501343E-03  0.3842768E+05  0.5222814E+04 -0.7698127E-03  0.8850098E-03
  0.8238096E+00  0.2648679E-02  0.3646851E-02  0.3792799E+05  0.5477920E+04 -0.6223469E-02 -0.8117676E-02
  0.8547620E+00 -0.1508452E-02  0.3356934E-03  0.3749752E+05  0.5703342E+04 -0.5712482E-03 -0.2624512E-02
  0.8857143E+00  0.3617810E-03  0.8544922E-03  0.3716417E+05  0.5900369E+04 -0.1571163E-01  0.1800537E-02
  0.9166667E+00  0.2979625E-02  0.1113892E-02  0.3677179E+05  0.6061536E+04 -0.1145241E-01 -0.5157471E-02
  0.9476191E+00  0.1497508E-02 -0.1647949E-02  0.3631120E+05  0.6196639E+04  0.4379809E-02 -0.2166748E-02
  0.9785714E+00 -0.8576108E-03 -0.5035400E-03  0.3590861E+05  0.6297429E+04  0.4490762E-02  0.6713867E-03
  0.1009524E+01  0.2063175E-02 -0.2166748E-02  0.3559585E+05  0.6366522E+04 -0.1124544E-01  0.2532959E-02
  0.1040476E+01  0.5866079E-04  0.3021240E-02  0.3538686E+05  0.6404569E+04 -0.4810185E-02 -0.3875732E-02
  0.1071429E+01  0.7263184E-03 -0.3479004E-02  0.3495198E+05  0.6390889E+04 -0.2848307E-02 -0.5493164E-02
  0.1102381E+01  0.1017362E-02 -0.1098633E-02  0.3460284E+05  0.6357747E+04 -0.5979599E-02  0.4669189E-02
  0.1133333E+01  0.2113791E-02  0.2075195E-02  0.3431842E+05  0.6294827E+04 -0.6139419E-02  0.7415771E-02
  0.1164286E+01  0.2372133E-02 -0.3784180E-02  0.3411796E+05  0.6212424E+04 -0.5661666E-02  0.2288818E-02
  0.1195238E+01  0.2406451E-02 -0.2227783E-02  0.3402186E+05  0.6117254E+04 -0.6229963E-02  0.2807617E-02
  0.1226190E+01 -0.5039845E-03 -0.2212524E-02  0.3373883E+05  0.5944117E+04 -0.6172254E-02 -0.2105713E-02
  0.1257143E+01  0.1911683E-02  0.8850098E-03  0.3350758E+05  0.5770665E+04 -0.7573908E-02 -0.5065918E-02
  0.1288095E+01  0.3627840E-03  0.2838135E-02  0.3331744E+05  0.5574368E+04 -0.1137217E-02  0.8850098E-03
  0.1319048E+01 -0.8466355E-03 -0.1708984E-02  0.3320045E+05  0.5376694E+04 -0.8328984E-02 -0.3326416E-02
  0.1350000E+01  0.1545306E-02  0.1419067E-02  0.3315028E+05  0.5185202E+04 -0.4521123E-02 -0.9155273E-03
  0.1380952E+01  0.2502014E-02  0.2075195E-02  0.3318868E+05  0.5013955E+04 -0.3889413E-02 -0.7507324E-02
  0.1411905E+01  0.3405630E-02  0.2624512E-02  0.3305238E+05  0.4718537E+04 -0.8127042E-02  0.1617432E-02
  0.1442857E+01  0.6213046E-04  0.3219604E-02  0.3295269E+05  0.4444380E+04 -0.3045715E-02  0.9460449E-03
  0.1473810E+01  0.1413225E-02  0.5386353E-02  0.3288411E+05  0.4173667E+04 -0.2319138E-02 -0.7446289E-02
  0.1504762E+01  0.3042100E-03 -0.5432129E-02  0.3286544E+05  0.3918520E+04 -0.3569398E-02  0.3570557E-02
  0.1535714E+01  0.1761148E-02 -0.2410889E-02  0.3289161E+05  0.3693761E+04 -0.3020530E-02  0.1051331E-01
  0.1566667E+01  0.9447463E-03 -0.2075195E-02  0.3296194E+05  0.3508870E+04 -0.4519199E-02  0.3936768E-02
  0.1597619E+01  0.1045830E-02  0.2807617E-02  0.3308561E+05  0.3376241E+04 -0.9474549E-02 -0.8407593E-02
  0.1628572E+01  0.1611542E-02 -0.7934570E-03  0.3306356E+05  0.3033379E+04 -0.8844743E-02 -0.3494263E-02
  0.1659524E+01  0.3999685E-03 -0.1998901E-02  0.3306895E+05  0.2745513E+04 -0.4560561E-02  0.4013062E-02
  0.1690476E+01  0.2346845E-02 -0.1785278E-02  0.3309379E+05  0.2489620E+04 -0.9531800E-02  0.5172729E-02
  0.1721429E+01  0.8908347E-03  0.9155273E-04  0.3313924E+05  0.2251091E+04 -0.2978313E-02  0.1846313E-02
  0.1752381E+01  0.1271289E-02 -0.1998901E-02  0.3321398E+05  0.2061660E+04 -0.4318901E-02  0.4272461E-02
  0.1783333E+01 -0.1343344E-02 -0.1953125E-02  0.3329864E+05  0.1919688E+04  0.6845064E-03 -0.2624512E-02
  0.1814286E+01  0.1774585E-02  0.1220703E-02  0.3340037E+05  0.1831761E+04  0.2153051E-02 -0.4768372E-02
  0.1845238E+01  0.4093293E-03 -0.1312256E-02  0.3352073E+05  0.1799636E+04 -0.2513861E-02 -0.3433228E-03
  0.1876190E+01  0.4119292E-02  0.1724243E-02  0.3357659E+05  0.1523304E+04 -0.9629303E-02 -0.2059937E-02
  0.1907143E+01  0.4840523E-03 -0.4165649E-02  0.3363505E+05  0.1291911E+04  0.3584387E-02  0.1525879E-02
  0.1938095E+01 -0.1259694E-03  0.1098633E-02  0.3369887E+05  0.1123734E+04 -0.3779081E-02 -0.6332397E-03
  0.1969048E+01  0.1084905E-02  0.3738403E-02  0.3376463E+05  0.9625434E+03 -0.4215633E-02 -0.6713867E-03
  0.2000000E+01  0.4577637E-03  0.9155273E-03  0.3384102E+05  0.8513689E+03 -0.3417969E-02 -0.2040863E-02
Zone t="Motion of body    1 in DoF   3",I=    64,F=POINT
  0.5000000E-01 -0.1425171E+06 -0.9416422E-02  0.1182795E-01  0.4076936E-04  0.3556230E+06  0.1820484E-01
  0.8095238E-01 -0.1438202E+06 -0.4173467E-01 -0.9414238E-02 -0.8946954E-04  0.3585610E+06  0.8095321E-01
  0.1119048E+00 -0.1440327E+06 -0.1172024E+00  0.1078271E-01  0.3716466E-04  0.3587818E+06  0.2271124E+00
  0.1428571E+00 -0.1443849E+06 -0.2635739E+00  0.2150750E-01  0.1487511E-03  0.3594231E+06  0.5103485E+00
  0.1738095E+00 -0.1445618E+06 -0.5239361E+00  0.2091878E-01  0.1905491E-03  0.3595852E+06  0.1013504E+01
  0.2047619E+00 -0.1447288E+06 -0.9663609E+00  0.1674597E-01  0.3467668E-03  0.3598623E+06  0.1868917E+01
  0.2357143E+00 -0.1449996E+06 -0.1700753E+01 -0.1039592E-01 -0.1151618E-03  0.3604373E+06  0.3288237E+01
  0.2666667E+00 -0.1451589E+06 -0.2898675E+01  0.8879900E-02 -0.8938462E-04  0.3605533E+06  0.5598778E+01
  0.2976190E+00 -0.1454528E+06 -0.4857596E+01 -0.3412628E-02 -0.8087605E-05  0.3611292E+06  0.9375829E+01
  0.3285715E+00 -0.1457620E+06 -0.8025616E+01 -0.8359161E-03 -0.5262345E-04  0.3616497E+06  0.1548067E+02
  0.3595238E+00 -0.1461994E+06 -0.1317092E+02  0.1601907E-01  0.6388575E-03  0.3623891E+06  0.2537428E+02
  0.3904762E+00 -0.1464810E+06 -0.2143579E+02 -0.1195035E-01 -0.8447617E-03  0.3627069E+06  0.4124922E+02
  0.4214286E+00 -0.1470468E+06 -0.3444616E+02 -0.5044128E-02 -0.6377399E-03  0.3638314E+06  0.6622620E+02
  0.4523810E+00 -0.1474808E+06 -0.5485864E+02  0.5282954E-02  0.2118349E-03  0.3644938E+06  0.1053464E+03
  0.4833333E+00 -0.1480342E+06 -0.8523682E+02  0.1196499E-01  0.7675886E-03  0.3653083E+06  0.1634040E+03
  0.5142857E+00 -0.1485812E+06 -0.1302532E+03  0.1202001E-01  0.8451939E-04  0.3662042E+06  0.2493270E+03
  0.5452381E+00 -0.1493779E+06 -0.1942427E+03 -0.1088288E-01 -0.1265526E-02  0.3677314E+06  0.3714816E+03
  0.5761905E+00 -0.1502443E+06 -0.2830620E+03  0.6461655E-02  0.5435944E-03  0.3692067E+06  0.5404283E+03
  0.6071429E+00 -0.1509374E+06 -0.4048355E+03  0.8626601E-02  0.1150846E-02  0.3702005E+06  0.7713489E+03
  0.6380953E+00 -0.1518319E+06 -0.5662204E+03  0.3407606E-03  0.4286766E-03  0.3717502E+06  0.1076787E+04
  0.6690477E+00 -0.1529371E+06 -0.7785477E+03  0.1282879E-02  0.6289482E-03  0.3737643E+06  0.1478146E+04
  0.7000000E+00 -0.1538676E+06 -0.1053687E+04  0.1495906E-01  0.2377510E-02  0.3753285E+06  0.1997053E+04
  0.7309524E+00 -0.1550472E+06 -0.1405111E+04 -0.6627881E-02 -0.4527092E-02  0.3772545E+06  0.2657107E+04
  0.7619048E+00 -0.1563573E+06 -0.1850224E+04  0.1228166E-01  0.3336906E-02  0.3793657E+06  0.3489873E+04
  0.7928572E+00 -0.1574861E+06 -0.2405280E+04 -0.3136987E-02 -0.8811951E-03  0.3812279E+06  0.4525313E+04
  0.8238096E+00 -0.1589425E+06 -0.3092557E+04  0.8751753E-02  0.3704071E-02  0.3837157E+06  0.5805254E+04
  0.8547620E+00 -0.1602721E+06 -0.3932258E+04  0.5114457E-02 -0.3700256E-03  0.3860873E+06  0.7364380E+04
  0.8857143E+00 -0.1619108E+06 -0.4953580E+04 -0.5064934E-02 -0.6328583E-02  0.3888412E+06  0.9253957E+04
  0.9166667E+00 -0.1632652E+06 -0.6178927E+04 -0.1506459E-02 -0.4833221E-02  0.3909128E+06  0.1150642E+05
  0.9476191E+00 -0.1649265E+06 -0.7644407E+04 -0.6722685E-02 -0.4348755E-02  0.3935627E+06  0.1419182E+05
  0.9785714E+00 -0.1664356E+06 -0.9377218E+04  0.2064503E-01  0.1036835E-01  0.3959419E+06  0.1735105E+05
  0.1009524E+01 -0.1680817E+06 -0.1141682E+05 -0.1055771E-01 -0.5531311E-02  0.3985073E+06  0.2105388E+05
  0.1040476E+01 -0.1697196E+06 -0.1379236E+05 -0.5015498E-02 -0.8628845E-02  0.4013186E+06  0.2535568E+05
  0.1071429E+01 -0.1710720E+06 -0.1652939E+05 -0.6052653E-02 -0.3654480E-02  0.4032434E+06  0.3028133E+05
  0.1102381E+01 -0.1727867E+06 -0.1968055E+05  0.1147474E-01  0.1815796E-02  0.4060163E+06  0.3594189E+05
  0.1133333E+01 -0.1740113E+06 -0.2324670E+05  0.2423455E-02 -0.1225281E-01  0.4077245E+06  0.4228069E+05
  0.1164286E+01 -0.1753310E+06 -0.2729141E+05 -0.7483359E-02 -0.9811401E-02  0.4094222E+06  0.4942630E+05
  0.1195238E+01 -0.1764910E+06 -0.3182587E+05  0.1604726E-01  0.3234863E-02  0.4110513E+06  0.5739948E+05
  0.1226190E+01 -0.1771284E+06 -0.3684123E+05  0.5064733E-02  0.8590698E-02  0.4113496E+06  0.6612537E+05
  0.1257143E+01 -0.1776943E+06 -0.4237193E+05  0.4078258E-02 -0.3952026E-02  0.4118642E+06  0.7573537E+05
  0.1288095E+01 -0.1781711E+06 -0.4846938E+05 -0.4619944E-03 -0.6866455E-02  0.4119902E+06  0.8622668E+05
  0.1319048E+01 -0.1781212E+06 -0.5503875E+05 -0.4106652E-02 -0.1831055E-02  0.4114198E+06  0.9746477E+05
  0.1350000E+01 -0.1778894E+06 -0.6210643E+05  0.1638907E-02  0.1080322E-01  0.4103178E+06  0.1094654E+06
  0.1380952E+01 -0.1772197E+06 -0.6959111E+05  0.3497157E-02  0.4974365E-02  0.4087556E+06  0.1221051E+06
  0.1411905E+01 -0.1756510E+06 -0.7725854E+05  0.8035180E-02  0.2807617E-02  0.4052100E+06  0.1348317E+06
  0.1442857E+01 -0.1740200E+06 -0.8532120E+05 -0.5694852E-02 -0.6652832E-02  0.4016731E+06  0.1480985E+06
  0.1473810E+01 -0.1720501E+06 -0.9360885E+05 -0.3105989E-04 -0.4150391E-02  0.3975291E+06  0.1615842E+06
  0.1504762E+01 -0.1692949E+06 -0.1019023E+06  0.1533726E-02  0.7934570E-02  0.3921293E+06  0.1748571E+06
  0.1535714E+01 -0.1662325E+06 -0.1102233E+06  0.5264193E-02 -0.2075195E-02  0.3862396E+06  0.1880081E+06
  0.1566667E+01 -0.1628803E+06 -0.1184645E+06  0.7268215E-03  0.7141113E-02  0.3799016E+06  0.2008579E+06
  0.1597619E+01 -0.1590058E+06 -0.1263744E+06  0.1105523E-01  0.6835938E-02  0.3729546E+06  0.2129962E+06
  0.1628572E+01 -0.1545132E+06 -0.1336788E+06  0.3026326E-02  0.1037598E-02  0.3645451E+06  0.2236164E+06
  0.1659524E+01 -0.1499771E+06 -0.1406263E+06  0.7659168E-02  0.3417969E-02  0.3563747E+06  0.2336302E+06
  0.1690476E+01 -0.1454226E+06 -0.1471201E+06  0.5009611E-02  0.6530762E-02  0.3483602E+06  0.2428046E+06
  0.1721429E+01 -0.1403928E+06 -0.1527247E+06  0.1487384E-01  0.5981445E-02  0.3395529E+06  0.2501884E+06
  0.1752381E+01 -0.1353043E+06 -0.1576562E+06  0.1413221E-01  0.2868652E-02  0.3310135E+06  0.2564645E+06
  0.1783333E+01 -0.1302544E+06 -0.1618172E+06  0.5578727E-02 -0.0000000E+00  0.3223598E+06  0.2611709E+06
  0.1814286E+01 -0.1253883E+06 -0.1653012E+06  0.1641702E-01  0.5432129E-02  0.3142914E+06  0.2647808E+06
  0.1845238E+01 -0.1204599E+06 -0.1678419E+06 -0.2133474E-02 -0.6835938E-02  0.3063625E+06  0.2668194E+06
  0.1876190E+01 -0.1154674E+06 -0.1693102E+06  0.4098960E-02  0.2563477E-02  0.2980435E+06  0.2665609E+06
  0.1907143E+01 -0.1107702E+06 -0.1701725E+06 -0.2416261E-02 -0.4516602E-02  0.2904361E+06  0.2654986E+06
  0.1938095E+01 -0.1065001E+06 -0.1706160E+06  0.1094359E-01  0.1312256E-02  0.2838365E+06  0.2640959E+06
  0.1969048E+01 -0.1024282E+06 -0.1702550E+06  0.2355795E-02  0.5676270E-02  0.2774869E+06  0.2611164E+06
  0.2000000E+01 -0.9843780E+05 -0.1690261E+06 -0.3707886E-02  0.2227783E-02  0.2714915E+06  0.2568822E+06
