VARIABLES="w (rad/s)"
"abs(F   1   1)" "angle(F   1   1)"
"abs(F   1   2)" "angle(F   1   2)"
"abs(F   1   3)" "angle(F   1   3)"
Zone t="Diffraction force - beta =   0.000 deg",I=    64,F=POINT
  0.5000000E-01  0.5383957E+03 -0.1570795E+01  0.3935274E+03 -0.3100045E+01  0.1296410E+03 -0.1570785E+01
  0.8095238E-01  0.8779597E+03 -0.1570792E+01  0.1021351E+04 -0.3098618E+01  0.2021912E+03 -0.1570766E+01
  0.1119048E+00  0.1226614E+04 -0.1570788E+01  0.1943430E+04 -0.3096884E+01  0.2675224E+03 -0.1570731E+01
  0.1428571E+00  0.1578656E+04 -0.1570781E+01  0.3156873E+04 -0.3094607E+01  0.3438247E+03 -0.1570680E+01
  0.1738095E+00  0.1968229E+04 -0.1570772E+01  0.4667374E+04 -0.3091719E+01  0.3978928E+03 -0.1570594E+01
  0.2047619E+00  0.2361071E+04 -0.1570759E+01  0.6483064E+04 -0.3088118E+01  0.4628272E+03 -0.1570472E+01
  0.2357143E+00  0.2789003E+04 -0.1570739E+01  0.8601097E+04 -0.3083514E+01  0.4996870E+03 -0.1570255E+01
  0.2666667E+00  0.3255100E+04 -0.1570710E+01  0.1103642E+05 -0.3077937E+01  0.5449019E+03 -0.1569929E+01
  0.2976190E+00  0.3754759E+04 -0.1570666E+01  0.1378723E+05 -0.3070896E+01  0.5783715E+03 -0.1569389E+01
  0.3285715E+00  0.4296359E+04 -0.1570602E+01  0.1686549E+05 -0.3062476E+01  0.5758636E+03 -0.1568388E+01
  0.3595238E+00  0.4919188E+04 -0.1570506E+01  0.2025212E+05 -0.3052194E+01  0.5713801E+03 -0.1566683E+01
  0.3904762E+00  0.5596902E+04 -0.1570362E+01  0.2397713E+05 -0.3040066E+01  0.5553839E+03 -0.1563630E+01
  0.4214286E+00  0.6324953E+04 -0.1570150E+01  0.2794310E+05 -0.3026352E+01  0.5034390E+03 -0.1557573E+01
  0.4523810E+00  0.7182320E+04 -0.1569843E+01  0.3223442E+05 -0.3010676E+01  0.3640469E+03 -0.1540452E+01
  0.4833333E+00  0.8132644E+04 -0.1569420E+01  0.3668504E+05 -0.2994539E+01  0.2489893E+03 -0.1498814E+01
  0.5142857E+00  0.9107141E+04 -0.1568823E+01  0.4136916E+05 -0.2977220E+01  0.8356571E+02 -0.1222372E+01
  0.5452381E+00  0.1013176E+05 -0.1568022E+01  0.4621905E+05 -0.2959905E+01  0.1830654E+03  0.1326387E+01
  0.5761905E+00  0.1134660E+05 -0.1567010E+01  0.5119298E+05 -0.2942793E+01  0.5715696E+03  0.1453457E+01
  0.6071429E+00  0.1258879E+05 -0.1565694E+01  0.5632380E+05 -0.2925443E+01  0.9919037E+03  0.1470850E+01
  0.6380953E+00  0.1388221E+05 -0.1564051E+01  0.6151966E+05 -0.2908895E+01  0.1425046E+04  0.1470382E+01
  0.6690477E+00  0.1516294E+05 -0.1561983E+01  0.6681044E+05 -0.2892579E+01  0.2024356E+04  0.1470917E+01
  0.7000000E+00  0.1655014E+05 -0.1559474E+01  0.7218600E+05 -0.2876408E+01  0.2857176E+04  0.1472741E+01
  0.7309524E+00  0.1809638E+05 -0.1556526E+01  0.7755500E+05 -0.2860650E+01  0.3691870E+04  0.1467553E+01
  0.7619048E+00  0.1966397E+05 -0.1552988E+01  0.8293718E+05 -0.2845191E+01  0.4647229E+04  0.1461065E+01
  0.7928572E+00  0.2122643E+05 -0.1548760E+01  0.8832388E+05 -0.2830140E+01  0.5750430E+04  0.1453949E+01
  0.8238096E+00  0.2274983E+05 -0.1543738E+01  0.9369717E+05 -0.2815564E+01  0.7009409E+04  0.1446282E+01
  0.8547620E+00  0.2431685E+05 -0.1537934E+01  0.9894125E+05 -0.2801001E+01  0.8390988E+04  0.1437461E+01
  0.8857143E+00  0.2604747E+05 -0.1531494E+01  0.1041237E+06 -0.2786951E+01  0.1018393E+05  0.1432035E+01
  0.9166667E+00  0.2781211E+05 -0.1524201E+01  0.1092646E+06 -0.2773741E+01  0.1207132E+05  0.1424944E+01
  0.9476191E+00  0.2954568E+05 -0.1515898E+01  0.1142625E+06 -0.2760903E+01  0.1418160E+05  0.1418051E+01
  0.9785714E+00  0.3129297E+05 -0.1506609E+01  0.1190061E+06 -0.2747916E+01  0.1632118E+05  0.1409299E+01
  0.1009524E+01  0.3297604E+05 -0.1496169E+01  0.1236285E+06 -0.2735564E+01  0.1881816E+05  0.1402390E+01
  0.1040476E+01  0.3450761E+05 -0.1484393E+01  0.1280986E+06 -0.2723913E+01  0.2160058E+05  0.1396344E+01
  0.1071429E+01  0.3595825E+05 -0.1471431E+01  0.1323984E+06 -0.2712996E+01  0.2476353E+05  0.1391806E+01
  0.1102381E+01  0.3744810E+05 -0.1457854E+01  0.1364514E+06 -0.2702339E+01  0.2827848E+05  0.1388377E+01
  0.1133333E+01  0.3897230E+05 -0.1443750E+01  0.1402014E+06 -0.2691741E+01  0.3193781E+05  0.1385020E+01
  0.1164286E+01  0.4032888E+05 -0.1428430E+01  0.1437426E+06 -0.2681767E+01  0.3602141E+05  0.1383953E+01
  0.1195238E+01  0.4145993E+05 -0.1411838E+01  0.1470489E+06 -0.2672491E+01  0.4045113E+05  0.1384300E+01
  0.1226190E+01  0.4240339E+05 -0.1394215E+01  0.1500906E+06 -0.2663865E+01  0.4527602E+05  0.1386280E+01
  0.1257143E+01  0.4310506E+05 -0.1375749E+01  0.1529442E+06 -0.2655679E+01  0.5053041E+05  0.1389664E+01
  0.1288095E+01  0.4374342E+05 -0.1358164E+01  0.1552924E+06 -0.2647659E+01  0.5584438E+05  0.1393122E+01
  0.1319048E+01  0.4407204E+05 -0.1339846E+01  0.1573962E+06 -0.2639911E+01  0.6146016E+05  0.1398538E+01
  0.1350000E+01  0.4409550E+05 -0.1321214E+01  0.1592339E+06 -0.2632839E+01  0.6754032E+05  0.1405865E+01
  0.1380952E+01  0.4377172E+05 -0.1302345E+01  0.1607661E+06 -0.2626533E+01  0.7392969E+05  0.1414759E+01
  0.1411905E+01  0.4307801E+05 -0.1282596E+01  0.1618778E+06 -0.2620904E+01  0.8054823E+05  0.1423928E+01
  0.1442857E+01  0.4211168E+05 -0.1265776E+01  0.1628025E+06 -0.2616025E+01  0.8758458E+05  0.1434619E+01
  0.1473810E+01  0.4078154E+05 -0.1250312E+01  0.1633421E+06 -0.2610871E+01  0.9441954E+05  0.1446116E+01
  0.1504762E+01  0.3910266E+05 -0.1237036E+01  0.1635292E+06 -0.2606194E+01  0.1013039E+06  0.1458256E+01
  0.1535714E+01  0.3711158E+05 -0.1227074E+01  0.1634004E+06 -0.2602136E+01  0.1084809E+06  0.1471452E+01
  0.1566667E+01  0.3470911E+05 -0.1221672E+01  0.1629726E+06 -0.2598851E+01  0.1156979E+06  0.1484954E+01
  0.1597619E+01  0.3195071E+05 -0.1221971E+01  0.1622434E+06 -0.2596482E+01  0.1229576E+06  0.1498978E+01
  0.1628572E+01  0.2883912E+05 -0.1229810E+01  0.1612138E+06 -0.2594962E+01  0.1301993E+06  0.1513435E+01
  0.1659524E+01  0.2540049E+05 -0.1249815E+01  0.1599164E+06 -0.2594345E+01  0.1374250E+06  0.1527762E+01
  0.1690476E+01  0.2175345E+05 -0.1292470E+01  0.1582581E+06 -0.2594087E+01  0.1442375E+06  0.1541552E+01
  0.1721429E+01  0.1795817E+05 -0.1372127E+01  0.1562820E+06 -0.2594185E+01  0.1504852E+06  0.1554877E+01
  0.1752381E+01  0.1419151E+05 -0.1518068E+01  0.1540600E+06 -0.2595128E+01  0.1564259E+06  0.1568106E+01
  0.1783333E+01  0.1096769E+05 -0.1790966E+01  0.1516367E+06 -0.2596924E+01  0.1623115E+06  0.1581199E+01
  0.1814286E+01  0.9274739E+04 -0.2258694E+01  0.1490253E+06 -0.2599782E+01  0.1678204E+06  0.1593553E+01
  0.1845238E+01  0.1033835E+05 -0.2788160E+01  0.1462217E+06 -0.2603621E+01  0.1729400E+06  0.1605560E+01
  0.1876190E+01  0.1380650E+05  0.3140083E+01  0.1432438E+06 -0.2608467E+01  0.1776749E+06  0.1616724E+01
  0.1907143E+01  0.1853845E+05  0.2947317E+01  0.1401415E+06 -0.2614188E+01  0.1820864E+06  0.1626848E+01
  0.1938095E+01  0.2393257E+05  0.2841260E+01  0.1368947E+06 -0.2620083E+01  0.1859581E+06  0.1636172E+01
  0.1969048E+01  0.2978783E+05  0.2779816E+01  0.1334332E+06 -0.2625504E+01  0.1886452E+06  0.1644493E+01
  0.2000000E+01  0.3590007E+05  0.2743193E+01  0.1298447E+06 -0.2631577E+01  0.1907324E+06  0.1651509E+01
