VARIABLES="w (rad/s)"
"abs(F   1   1)" "angle(F   1   1)"
"abs(F   1   2)" "angle(F   1   2)"
"abs(F   1   3)" "angle(F   1   3)"
Zone t="Diffraction force - beta =   0.000 deg",I=    64,F=POINT
  0.5000000E-01  0.3444607E+04 -0.1570780E+01  0.4478116E+06 -0.3143003E-04  0.1673260E+04  0.1570785E+01
  0.8095238E-01  0.5627398E+04 -0.1570788E+01  0.4469867E+06 -0.8455393E-04  0.2746166E+04  0.1570798E+01
  0.1119048E+00  0.7856053E+04 -0.1570792E+01  0.4457771E+06 -0.1679083E-03  0.3826773E+04  0.1570818E+01
  0.1428571E+00  0.1015661E+05 -0.1570790E+01  0.4441798E+06 -0.2878782E-03  0.4936636E+04  0.1570796E+01
  0.1738095E+00  0.1255467E+05 -0.1570784E+01  0.4421932E+06 -0.4541865E-03  0.6081207E+04  0.1570791E+01
  0.2047619E+00  0.1507787E+05 -0.1570775E+01  0.4398087E+06 -0.6807146E-03  0.7279666E+04  0.1570818E+01
  0.2357143E+00  0.1775852E+05 -0.1570768E+01  0.4370259E+06 -0.9881944E-03  0.8537951E+04  0.1570830E+01
  0.2666667E+00  0.2064047E+05 -0.1570752E+01  0.4338375E+06 -0.1401730E-02  0.9872514E+04  0.1570845E+01
  0.2976190E+00  0.2376022E+05 -0.1570728E+01  0.4302351E+06 -0.1963805E-02  0.1130129E+05  0.1570863E+01
  0.3285715E+00  0.2716171E+05 -0.1570700E+01  0.4262192E+06 -0.2717877E-02  0.1284602E+05  0.1570898E+01
  0.3595238E+00  0.3091180E+05 -0.1570647E+01  0.4218018E+06 -0.3732574E-02  0.1451072E+05  0.1570941E+01
  0.3904762E+00  0.3503857E+05 -0.1570575E+01  0.4169668E+06 -0.5085048E-02  0.1633595E+05  0.1571021E+01
  0.4214286E+00  0.3960346E+05 -0.1570469E+01  0.4117627E+06 -0.6824001E-02  0.1830574E+05  0.1571123E+01
  0.4523810E+00  0.4461805E+05 -0.1570311E+01  0.4061985E+06 -0.9083821E-02  0.2043835E+05  0.1571283E+01
  0.4833333E+00  0.5011759E+05 -0.1570093E+01  0.4003226E+06 -0.1180557E-01  0.2271624E+05  0.1571498E+01
  0.5142857E+00  0.5604971E+05 -0.1569788E+01  0.3941504E+06 -0.1514429E-01  0.2516909E+05  0.1571806E+01
  0.5452381E+00  0.6237865E+05 -0.1569383E+01  0.3877039E+06 -0.1905284E-01  0.2773347E+05  0.1572209E+01
  0.5761905E+00  0.6910093E+05 -0.1568855E+01  0.3810325E+06 -0.2354605E-01  0.3034585E+05  0.1572737E+01
  0.6071429E+00  0.7619377E+05 -0.1568173E+01  0.3741607E+06 -0.2875167E-01  0.3302934E+05  0.1573419E+01
  0.6380953E+00  0.8359102E+05 -0.1567324E+01  0.3670467E+06 -0.3454906E-01  0.3579455E+05  0.1574268E+01
  0.6690477E+00  0.9126053E+05 -0.1566266E+01  0.3597495E+06 -0.4106597E-01  0.3855677E+05  0.1575320E+01
  0.7000000E+00  0.9916896E+05 -0.1564967E+01  0.3523362E+06 -0.4838613E-01  0.4133749E+05  0.1576622E+01
  0.7309524E+00  0.1073772E+06 -0.1563400E+01  0.3447714E+06 -0.5645476E-01  0.4406375E+05  0.1578186E+01
  0.7619048E+00  0.1158147E+06 -0.1561523E+01  0.3370911E+06 -0.6534752E-01  0.4671690E+05  0.1580059E+01
  0.7928572E+00  0.1244638E+06 -0.1559296E+01  0.3293298E+06 -0.7510924E-01  0.4939631E+05  0.1582281E+01
  0.8238096E+00  0.1332282E+06 -0.1556680E+01  0.3215008E+06 -0.8576694E-01  0.5197992E+05  0.1584891E+01
  0.8547620E+00  0.1421621E+06 -0.1553642E+01  0.3136044E+06 -0.9734411E-01  0.5447523E+05  0.1587918E+01
  0.8857143E+00  0.1512382E+06 -0.1550142E+01  0.3056930E+06 -0.1098753E+00  0.5682587E+05  0.1591407E+01
  0.9166667E+00  0.1604635E+06 -0.1546149E+01  0.2977848E+06 -0.1233924E+00  0.5906365E+05  0.1595383E+01
  0.9476191E+00  0.1697201E+06 -0.1541632E+01  0.2899060E+06 -0.1379212E+00  0.6108279E+05  0.1599878E+01
  0.9785714E+00  0.1790495E+06 -0.1536562E+01  0.2820410E+06 -0.1534709E+00  0.6300394E+05  0.1604922E+01
  0.1009524E+01  0.1883245E+06 -0.1530919E+01  0.2741998E+06 -0.1700779E+00  0.6473735E+05  0.1610526E+01
  0.1040476E+01  0.1975408E+06 -0.1524699E+01  0.2664003E+06 -0.1877729E+00  0.6627534E+05  0.1616689E+01
  0.1071429E+01  0.2066016E+06 -0.1517898E+01  0.2586665E+06 -0.2066106E+00  0.6758370E+05  0.1623414E+01
  0.1102381E+01  0.2154969E+06 -0.1510538E+01  0.2510193E+06 -0.2266336E+00  0.6864333E+05  0.1630684E+01
  0.1133333E+01  0.2241894E+06 -0.1502659E+01  0.2434772E+06 -0.2478771E+00  0.6938301E+05  0.1638450E+01
  0.1164286E+01  0.2325868E+06 -0.1494297E+01  0.2360053E+06 -0.2704043E+00  0.6982098E+05  0.1646679E+01
  0.1195238E+01  0.2406499E+06 -0.1485524E+01  0.2286359E+06 -0.2942252E+00  0.6996077E+05  0.1655268E+01
  0.1226190E+01  0.2482618E+06 -0.1476389E+01  0.2213647E+06 -0.3194154E+00  0.6987922E+05  0.1664175E+01
  0.1257143E+01  0.2552533E+06 -0.1466932E+01  0.2142287E+06 -0.3462620E+00  0.6944923E+05  0.1673318E+01
  0.1288095E+01  0.2618282E+06 -0.1457474E+01  0.2071696E+06 -0.3742067E+00  0.6876610E+05  0.1682406E+01
  0.1319048E+01  0.2676581E+06 -0.1447970E+01  0.2002327E+06 -0.4040101E+00  0.6769166E+05  0.1691418E+01
  0.1350000E+01  0.2728267E+06 -0.1438656E+01  0.1934188E+06 -0.4356212E+00  0.6633227E+05  0.1700175E+01
  0.1380952E+01  0.2772836E+06 -0.1429711E+01  0.1867523E+06 -0.4690856E+00  0.6465537E+05  0.1708439E+01
  0.1411905E+01  0.2804309E+06 -0.1422062E+01  0.1804045E+06 -0.5024332E+00  0.6287109E+05  0.1715387E+01
  0.1442857E+01  0.2833168E+06 -0.1414327E+01  0.1741205E+06 -0.5399954E+00  0.6055341E+05  0.1722154E+01
  0.1473810E+01  0.2854797E+06 -0.1407456E+01  0.1679893E+06 -0.5799786E+00  0.5808684E+05  0.1727993E+01
  0.1504762E+01  0.2868583E+06 -0.1401659E+01  0.1620740E+06 -0.6224905E+00  0.5535811E+05  0.1732519E+01
  0.1535714E+01  0.2874455E+06 -0.1397064E+01  0.1563828E+06 -0.6677811E+00  0.5244321E+05  0.1735594E+01
  0.1566667E+01  0.2873135E+06 -0.1393856E+01  0.1509502E+06 -0.7161261E+00  0.4939500E+05  0.1737116E+01
  0.1597619E+01  0.2865012E+06 -0.1392214E+01  0.1458224E+06 -0.7675753E+00  0.4622330E+05  0.1736792E+01
  0.1628572E+01  0.2850367E+06 -0.1392185E+01  0.1410637E+06 -0.8224097E+00  0.4302793E+05  0.1734754E+01
  0.1659524E+01  0.2829154E+06 -0.1393963E+01  0.1367325E+06 -0.8804857E+00  0.3965479E+05  0.1730244E+01
  0.1690476E+01  0.2803128E+06 -0.1397609E+01  0.1328295E+06 -0.9419503E+00  0.3634200E+05  0.1723815E+01
  0.1721429E+01  0.2772652E+06 -0.1403230E+01  0.1294278E+06 -0.1006588E+01  0.3304978E+05  0.1715230E+01
  0.1752381E+01  0.2737627E+06 -0.1410867E+01  0.1266128E+06 -0.1073923E+01  0.2974493E+05  0.1704062E+01
  0.1783333E+01  0.2699513E+06 -0.1420549E+01  0.1243894E+06 -0.1143473E+01  0.2654564E+05  0.1691077E+01
  0.1814286E+01  0.2658351E+06 -0.1432395E+01  0.1228109E+06 -0.1214313E+01  0.2334456E+05  0.1674997E+01
  0.1845238E+01  0.2615225E+06 -0.1446341E+01  0.1218850E+06 -0.1285815E+01  0.2025255E+05  0.1656853E+01
  0.1876190E+01  0.2570529E+06 -0.1462313E+01  0.1216362E+06 -0.1356381E+01  0.1731843E+05  0.1637878E+01
  0.1907143E+01  0.2524299E+06 -0.1480427E+01  0.1220060E+06 -0.1424917E+01  0.1440171E+05  0.1615458E+01
  0.1938095E+01  0.2477555E+06 -0.1500559E+01  0.1229339E+06 -0.1490526E+01  0.1162634E+05  0.1592707E+01
  0.1969048E+01  0.2430850E+06 -0.1522696E+01  0.1243191E+06 -0.1552642E+01  0.8984821E+04  0.1571333E+01
  0.2000000E+01  0.2384121E+06 -0.1546849E+01  0.1260084E+06 -0.1610385E+01  0.6412053E+04  0.1550822E+01
