VARIABLES="w (rad/s)"
"abs(F   1   1)" "angle(F   1   1)"
"abs(F   1   2)" "angle(F   1   2)"
"abs(F   1   3)" "angle(F   1   3)"
Zone t="Diffraction force - beta =   0.000 deg",I=    64,F=POINT
  0.5000000E-01  0.2693033E+04 -0.1570810E+01  0.5301102E+06 -0.3716790E-04  0.2068713E+04 -0.1570792E+01
  0.8095238E-01  0.4392213E+04 -0.1570787E+01  0.5291251E+06 -0.9998625E-04  0.3362594E+04 -0.1570794E+01
  0.1119048E+00  0.6131775E+04 -0.1570793E+01  0.5276799E+06 -0.1985530E-03  0.4698427E+04 -0.1570795E+01
  0.1428571E+00  0.7925702E+04 -0.1570790E+01  0.5257715E+06 -0.3403823E-03  0.6077701E+04 -0.1570790E+01
  0.1738095E+00  0.9798432E+04 -0.1570785E+01  0.5233961E+06 -0.5369998E-03  0.7528274E+04 -0.1570786E+01
  0.2047619E+00  0.1176532E+05 -0.1570777E+01  0.5205436E+06 -0.8047426E-03  0.9050361E+04 -0.1570782E+01
  0.2357143E+00  0.1386062E+05 -0.1570773E+01  0.5172114E+06 -0.1168070E-02  0.1069653E+05 -0.1570775E+01
  0.2666667E+00  0.1610710E+05 -0.1570764E+01  0.5133863E+06 -0.1656692E-02  0.1245752E+05 -0.1570763E+01
  0.2976190E+00  0.1853618E+05 -0.1570744E+01  0.5090638E+06 -0.2320471E-02  0.1437018E+05 -0.1570745E+01
  0.3285715E+00  0.2119941E+05 -0.1570718E+01  0.5042328E+06 -0.3210801E-02  0.1650434E+05 -0.1570719E+01
  0.3595238E+00  0.2412166E+05 -0.1570682E+01  0.4989131E+06 -0.4408037E-02  0.1884253E+05 -0.1570681E+01
  0.3904762E+00  0.2733738E+05 -0.1570624E+01  0.4930758E+06 -0.6003489E-02  0.2141737E+05 -0.1570624E+01
  0.4214286E+00  0.3089762E+05 -0.1570542E+01  0.4868095E+06 -0.8052950E-02  0.2431888E+05 -0.1570541E+01
  0.4523810E+00  0.3481610E+05 -0.1570420E+01  0.4800853E+06 -0.1071364E-01  0.2754708E+05 -0.1570420E+01
  0.4833333E+00  0.3908084E+05 -0.1570252E+01  0.4729908E+06 -0.1391578E-01  0.3105537E+05 -0.1570251E+01
  0.5142857E+00  0.4368824E+05 -0.1570019E+01  0.4655417E+06 -0.1783928E-01  0.3487420E+05 -0.1570019E+01
  0.5452381E+00  0.4861946E+05 -0.1569710E+01  0.4577804E+06 -0.2242818E-01  0.3902339E+05 -0.1569709E+01
  0.5761905E+00  0.5384663E+05 -0.1569308E+01  0.4497527E+06 -0.2769682E-01  0.4345784E+05 -0.1569307E+01
  0.6071429E+00  0.5933332E+05 -0.1568792E+01  0.4414722E+06 -0.3379064E-01  0.4815907E+05 -0.1568791E+01
  0.6380953E+00  0.6503741E+05 -0.1568151E+01  0.4329110E+06 -0.4056701E-01  0.5306148E+05 -0.1568150E+01
  0.6690477E+00  0.7095822E+05 -0.1567359E+01  0.4241703E+06 -0.4817701E-01  0.5823284E+05 -0.1567358E+01
  0.7000000E+00  0.7707392E+05 -0.1566393E+01  0.4152918E+06 -0.5670962E-01  0.6367952E+05 -0.1566390E+01
  0.7309524E+00  0.8337382E+05 -0.1565235E+01  0.4062259E+06 -0.6609292E-01  0.6933346E+05 -0.1565232E+01
  0.7619048E+00  0.8981936E+05 -0.1563859E+01  0.3970383E+06 -0.7641453E-01  0.7517198E+05 -0.1563854E+01
  0.7928572E+00  0.9638698E+05 -0.1562242E+01  0.3877589E+06 -0.8772545E-01  0.8119959E+05 -0.1562235E+01
  0.8238096E+00  0.1030637E+06 -0.1560362E+01  0.3784208E+06 -0.1000525E+00  0.8740479E+05 -0.1560353E+01
  0.8547620E+00  0.1098202E+06 -0.1558203E+01  0.3690442E+06 -0.1134232E+00  0.9381894E+05 -0.1558189E+01
  0.8857143E+00  0.1166706E+06 -0.1555748E+01  0.3596637E+06 -0.1278607E+00  0.1003951E+06 -0.1555729E+01
  0.9166667E+00  0.1235588E+06 -0.1552985E+01  0.3502661E+06 -0.1433868E+00  0.1071444E+06 -0.1552960E+01
  0.9476191E+00  0.1304601E+06 -0.1549906E+01  0.3409099E+06 -0.1600291E+00  0.1139784E+06 -0.1549875E+01
  0.9785714E+00  0.1373175E+06 -0.1546509E+01  0.3315828E+06 -0.1778030E+00  0.1208681E+06 -0.1546467E+01
  0.1009524E+01  0.1441215E+06 -0.1542804E+01  0.3223118E+06 -0.1967496E+00  0.1278057E+06 -0.1542748E+01
  0.1040476E+01  0.1508271E+06 -0.1538808E+01  0.3131224E+06 -0.2169059E+00  0.1348020E+06 -0.1538735E+01
  0.1071429E+01  0.1573989E+06 -0.1534552E+01  0.3040112E+06 -0.2382965E+00  0.1418224E+06 -0.1534457E+01
  0.1102381E+01  0.1638088E+06 -0.1530074E+01  0.2950160E+06 -0.2609731E+00  0.1487886E+06 -0.1529955E+01
  0.1133333E+01  0.1699895E+06 -0.1525423E+01  0.2861357E+06 -0.2849644E+00  0.1556706E+06 -0.1525276E+01
  0.1164286E+01  0.1759240E+06 -0.1520669E+01  0.2773332E+06 -0.3102849E+00  0.1624274E+06 -0.1520484E+01
  0.1195238E+01  0.1815449E+06 -0.1515883E+01  0.2686549E+06 -0.3369978E+00  0.1689975E+06 -0.1515653E+01
  0.1226190E+01  0.1868079E+06 -0.1511156E+01  0.2600577E+06 -0.3651458E+00  0.1753293E+06 -0.1510870E+01
  0.1257143E+01  0.1916735E+06 -0.1506539E+01  0.2516168E+06 -0.3951351E+00  0.1813621E+06 -0.1506190E+01
  0.1288095E+01  0.1961268E+06 -0.1502333E+01  0.2432895E+06 -0.4262046E+00  0.1870792E+06 -0.1501915E+01
  0.1319048E+01  0.2000913E+06 -0.1498482E+01  0.2351606E+06 -0.4593505E+00  0.1924651E+06 -0.1497994E+01
  0.1350000E+01  0.2035908E+06 -0.1495205E+01  0.2271492E+06 -0.4943066E+00  0.1974544E+06 -0.1494635E+01
  0.1380952E+01  0.2065778E+06 -0.1492630E+01  0.2192999E+06 -0.5312133E+00  0.2020273E+06 -0.1491979E+01
  0.1411905E+01  0.2090607E+06 -0.1490864E+01  0.2119105E+06 -0.5658957E+00  0.2061436E+06 -0.1490141E+01
  0.1442857E+01  0.2110629E+06 -0.1490043E+01  0.2043830E+06 -0.6070079E+00  0.2099002E+06 -0.1489235E+01
  0.1473810E+01  0.2125532E+06 -0.1490339E+01  0.1970586E+06 -0.6507061E+00  0.2131466E+06 -0.1489454E+01
  0.1504762E+01  0.2135163E+06 -0.1491891E+01  0.1899956E+06 -0.6971459E+00  0.2159158E+06 -0.1490937E+01
  0.1535714E+01  0.2139826E+06 -0.1494834E+01  0.1831938E+06 -0.7465872E+00  0.2181905E+06 -0.1493825E+01
  0.1566667E+01  0.2139915E+06 -0.1499318E+01  0.1766977E+06 -0.7991679E+00  0.2199821E+06 -0.1498276E+01
  0.1597619E+01  0.2135357E+06 -0.1505409E+01  0.1705542E+06 -0.8552584E+00  0.2213040E+06 -0.1504370E+01
  0.1628572E+01  0.2126714E+06 -0.1513227E+01  0.1648068E+06 -0.9149544E+00  0.2221588E+06 -0.1512237E+01
  0.1659524E+01  0.2114156E+06 -0.1522889E+01  0.1595547E+06 -0.9782107E+00  0.2226214E+06 -0.1521966E+01
  0.1690476E+01  0.2098282E+06 -0.1534421E+01  0.1548220E+06 -0.1045296E+01  0.2226660E+06 -0.1533640E+01
  0.1721429E+01  0.2079394E+06 -0.1547869E+01  0.1507056E+06 -0.1115861E+01  0.2223178E+06 -0.1547328E+01
  0.1752381E+01  0.2057809E+06 -0.1563308E+01  0.1473092E+06 -0.1189433E+01  0.2216753E+06 -0.1563088E+01
  0.1783333E+01  0.2034148E+06 -0.1580769E+01  0.1446098E+06 -0.1265755E+01  0.2207306E+06 -0.1580972E+01
  0.1814286E+01  0.2008670E+06 -0.1600297E+01  0.1426835E+06 -0.1343816E+01  0.2195568E+06 -0.1601020E+01
  0.1845238E+01  0.1981642E+06 -0.1621806E+01  0.1415791E+06 -0.1422287E+01  0.2181510E+06 -0.1623213E+01
  0.1876190E+01  0.1953592E+06 -0.1645308E+01  0.1412535E+06 -0.1500251E+01  0.2165347E+06 -0.1647579E+01
  0.1907143E+01  0.1924671E+06 -0.1670874E+01  0.1416814E+06 -0.1576441E+01  0.2148248E+06 -0.1674115E+01
  0.1938095E+01  0.1895355E+06 -0.1698428E+01  0.1427742E+06 -0.1650082E+01  0.2130158E+06 -0.1702797E+01
  0.1969048E+01  0.1866048E+06 -0.1727845E+01  0.1444165E+06 -0.1719725E+01  0.2111164E+06 -0.1733649E+01
  0.2000000E+01  0.1836713E+06 -0.1759115E+01  0.1464683E+06 -0.1785214E+01  0.2091820E+06 -0.1766539E+01
