VARIABLES="w (rad/s)"
"abs(F   1   1)" "angle(F   1   1)"
"abs(F   1   2)" "angle(F   1   2)"
"abs(F   1   3)" "angle(F   1   3)"
Zone t="Diffraction force - beta =   0.000 deg",I=    64,F=POINT
  0.5000000E-01  0.1735893E+04 -0.1570795E+01  0.3159248E+03 -0.3088296E+01  0.7971330E+03  0.1570797E+01
  0.8095238E-01  0.2838678E+04 -0.1570793E+01  0.8186581E+03 -0.3086356E+01  0.1313979E+04  0.1570798E+01
  0.1119048E+00  0.3966643E+04 -0.1570789E+01  0.1555196E+04 -0.3083997E+01  0.1837325E+04  0.1570799E+01
  0.1428571E+00  0.5133553E+04 -0.1570784E+01  0.2527166E+04 -0.3081026E+01  0.2368185E+04  0.1570801E+01
  0.1738095E+00  0.6343521E+04 -0.1570776E+01  0.3740146E+04 -0.3077292E+01  0.2925511E+04  0.1570805E+01
  0.2047619E+00  0.7622364E+04 -0.1570764E+01  0.5200349E+04 -0.3072626E+01  0.3501086E+04  0.1570810E+01
  0.2357143E+00  0.8976376E+04 -0.1570747E+01  0.6917494E+04 -0.3066770E+01  0.4118515E+04  0.1570816E+01
  0.2666667E+00  0.1043341E+05 -0.1570723E+01  0.8896748E+04 -0.3059621E+01  0.4771130E+04  0.1570826E+01
  0.2976190E+00  0.1201852E+05 -0.1570686E+01  0.1114883E+05 -0.3050650E+01  0.5464647E+04  0.1570841E+01
  0.3285715E+00  0.1374143E+05 -0.1570631E+01  0.1369025E+05 -0.3039970E+01  0.6231317E+04  0.1570863E+01
  0.3595238E+00  0.1563560E+05 -0.1570548E+01  0.1650626E+05 -0.3026937E+01  0.7064017E+04  0.1570897E+01
  0.3904762E+00  0.1773130E+05 -0.1570424E+01  0.1961764E+05 -0.3011519E+01  0.7968172E+04  0.1570945E+01
  0.4214286E+00  0.2006233E+05 -0.1570243E+01  0.2298490E+05 -0.2994282E+01  0.8949409E+04  0.1571015E+01
  0.4523810E+00  0.2260860E+05 -0.1569976E+01  0.2663320E+05 -0.2974416E+01  0.1004495E+05  0.1571117E+01
  0.4833333E+00  0.2540507E+05 -0.1569605E+01  0.3047679E+05 -0.2954149E+01  0.1119793E+05  0.1571257E+01
  0.5142857E+00  0.2844702E+05 -0.1569089E+01  0.3453035E+05 -0.2932231E+01  0.1242200E+05  0.1571447E+01
  0.5452381E+00  0.3167146E+05 -0.1568396E+01  0.3878495E+05 -0.2910445E+01  0.1376108E+05  0.1571699E+01
  0.5761905E+00  0.3510069E+05 -0.1567494E+01  0.4320552E+05 -0.2889034E+01  0.1515388E+05  0.1572020E+01
  0.6071429E+00  0.3875151E+05 -0.1566327E+01  0.4776206E+05 -0.2866992E+01  0.1656519E+05  0.1572426E+01
  0.6380953E+00  0.4255539E+05 -0.1564865E+01  0.5247727E+05 -0.2846224E+01  0.1801894E+05  0.1572921E+01
  0.6690477E+00  0.4652257E+05 -0.1563045E+01  0.5732932E+05 -0.2825768E+01  0.1949146E+05  0.1573518E+01
  0.7000000E+00  0.5062181E+05 -0.1560797E+01  0.6228948E+05 -0.2805272E+01  0.2106069E+05  0.1574241E+01
  0.7309524E+00  0.5483491E+05 -0.1558075E+01  0.6736857E+05 -0.2785604E+01  0.2259921E+05  0.1575082E+01
  0.7619048E+00  0.5923164E+05 -0.1554812E+01  0.7252618E+05 -0.2766269E+01  0.2410062E+05  0.1576048E+01
  0.7928572E+00  0.6376214E+05 -0.1550930E+01  0.7774146E+05 -0.2747193E+01  0.2561332E+05  0.1577150E+01
  0.8238096E+00  0.6837877E+05 -0.1546351E+01  0.8301458E+05 -0.2728572E+01  0.2711829E+05  0.1578388E+01
  0.8547620E+00  0.7308134E+05 -0.1541003E+01  0.8835434E+05 -0.2710640E+01  0.2867136E+05  0.1579773E+01
  0.8857143E+00  0.7784811E+05 -0.1534811E+01  0.9373141E+05 -0.2693302E+01  0.3018568E+05  0.1581277E+01
  0.9166667E+00  0.8270023E+05 -0.1527713E+01  0.9912330E+05 -0.2676482E+01  0.3165605E+05  0.1582884E+01
  0.9476191E+00  0.8760164E+05 -0.1519638E+01  0.1044944E+06 -0.2660021E+01  0.3305724E+05  0.1584550E+01
  0.9785714E+00  0.9253617E+05 -0.1510517E+01  0.1098419E+06 -0.2644046E+01  0.3441199E+05  0.1586251E+01
  0.1009524E+01  0.9747412E+05 -0.1500291E+01  0.1151697E+06 -0.2628669E+01  0.3571217E+05  0.1587934E+01
  0.1040476E+01  0.1023731E+06 -0.1488915E+01  0.1204802E+06 -0.2614036E+01  0.3690918E+05  0.1589501E+01
  0.1071429E+01  0.1071967E+06 -0.1476339E+01  0.1257543E+06 -0.2600065E+01  0.3816335E+05  0.1591016E+01
  0.1102381E+01  0.1118373E+06 -0.1462510E+01  0.1309805E+06 -0.2586681E+01  0.3934667E+05  0.1592312E+01
  0.1133333E+01  0.1163438E+06 -0.1447479E+01  0.1361487E+06 -0.2573890E+01  0.4044448E+05  0.1593266E+01
  0.1164286E+01  0.1206492E+06 -0.1431265E+01  0.1412540E+06 -0.2561663E+01  0.4140067E+05  0.1593724E+01
  0.1195238E+01  0.1246966E+06 -0.1413895E+01  0.1462910E+06 -0.2550017E+01  0.4224254E+05  0.1593541E+01
  0.1226190E+01  0.1284699E+06 -0.1395467E+01  0.1512497E+06 -0.2538924E+01  0.4303936E+05  0.1592732E+01
  0.1257143E+01  0.1317833E+06 -0.1375797E+01  0.1561774E+06 -0.2528166E+01  0.4379689E+05  0.1591180E+01
  0.1288095E+01  0.1347534E+06 -0.1355477E+01  0.1609121E+06 -0.2518390E+01  0.4439092E+05  0.1588490E+01
  0.1319048E+01  0.1372421E+06 -0.1334253E+01  0.1656191E+06 -0.2509110E+01  0.4497818E+05  0.1584830E+01
  0.1350000E+01  0.1391382E+06 -0.1312273E+01  0.1702387E+06 -0.2500343E+01  0.4554425E+05  0.1580232E+01
  0.1380952E+01  0.1404651E+06 -0.1289830E+01  0.1747710E+06 -0.2492316E+01  0.4607909E+05  0.1574514E+01
  0.1411905E+01  0.1404634E+06 -0.1268399E+01  0.1785288E+06 -0.2484324E+01  0.4681422E+05  0.1568544E+01
  0.1442857E+01  0.1405627E+06 -0.1245625E+01  0.1828744E+06 -0.2477061E+01  0.4731906E+05  0.1560963E+01
  0.1473810E+01  0.1399459E+06 -0.1222950E+01  0.1871188E+06 -0.2469934E+01  0.4769930E+05  0.1552045E+01
  0.1504762E+01  0.1387108E+06 -0.1200749E+01  0.1912628E+06 -0.2463258E+01  0.4814849E+05  0.1542639E+01
  0.1535714E+01  0.1368270E+06 -0.1179209E+01  0.1953188E+06 -0.2456880E+01  0.4862273E+05  0.1532741E+01
  0.1566667E+01  0.1342331E+06 -0.1158402E+01  0.1992764E+06 -0.2450783E+01  0.4909329E+05  0.1522620E+01
  0.1597619E+01  0.1310092E+06 -0.1138810E+01  0.2031244E+06 -0.2444929E+01  0.4960351E+05  0.1512442E+01
  0.1628572E+01  0.1271872E+06 -0.1120675E+01  0.2068670E+06 -0.2439291E+01  0.5016376E+05  0.1502822E+01
  0.1659524E+01  0.1227768E+06 -0.1104077E+01  0.2104960E+06 -0.2433680E+01  0.5082752E+05  0.1494335E+01
  0.1690476E+01  0.1177859E+06 -0.1089369E+01  0.2139943E+06 -0.2427952E+01  0.5150159E+05  0.1486725E+01
  0.1721429E+01  0.1123029E+06 -0.1076910E+01  0.2173423E+06 -0.2422141E+01  0.5225223E+05  0.1480754E+01
  0.1752381E+01  0.1064053E+06 -0.1067282E+01  0.2205319E+06 -0.2416266E+01  0.5307992E+05  0.1476773E+01
  0.1783333E+01  0.1000717E+06 -0.1060705E+01  0.2235345E+06 -0.2410167E+01  0.5391724E+05  0.1474392E+01
  0.1814286E+01  0.9336398E+05 -0.1057714E+01  0.2263186E+06 -0.2403929E+01  0.5479414E+05  0.1474072E+01
  0.1845238E+01  0.8636200E+05 -0.1059320E+01  0.2288547E+06 -0.2397515E+01  0.5569805E+05  0.1475925E+01
  0.1876190E+01  0.7912623E+05 -0.1066677E+01  0.2311144E+06 -0.2390844E+01  0.5662116E+05  0.1480019E+01
  0.1907143E+01  0.7171648E+05 -0.1080868E+01  0.2330587E+06 -0.2383862E+01  0.5759912E+05  0.1486633E+01
  0.1938095E+01  0.6417180E+05 -0.1104213E+01  0.2346605E+06 -0.2376783E+01  0.5856995E+05  0.1495327E+01
  0.1969048E+01  0.5657068E+05 -0.1139848E+01  0.2358763E+06 -0.2369425E+01  0.5952537E+05  0.1506033E+01
  0.2000000E+01  0.4906141E+05 -0.1193156E+01  0.2366783E+06 -0.2362246E+01  0.6052414E+05  0.1519162E+01
