VARIABLES="w (rad/s)"
"A   1   1" "B   1   1"
"A   1   2" "B   1   2"
"A   1   3" "B   1   3"
Zone t="Motion of body    1 in DoF   1",I=    64,F=POINT
  0.5000000E-01  0.7455827E+05  0.7417545E-02  0.2250671E-01  0.8296045E-04 -0.8538927E+05 -0.4661671E-02
  0.8095238E-01  0.7475123E+05  0.3253702E-01  0.1656364E-01  0.1102116E-03 -0.8543955E+05 -0.2034548E-01
  0.1119048E+00  0.7475657E+05  0.9128501E-01  0.9715304E-02  0.1346180E-03 -0.8548517E+05 -0.5704221E-01
  0.1428571E+00  0.7503702E+05  0.2059002E+00  0.1271057E-01  0.1738272E-03 -0.8574796E+05 -0.1291682E+00
  0.1738095E+00  0.7519833E+05  0.4102597E+00  0.2091604E-01  0.2924665E-03 -0.8589408E+05 -0.2581100E+00
  0.2047619E+00  0.7543731E+05  0.7579129E+00  0.1091713E-01  0.1995200E-03 -0.8605522E+05 -0.4785403E+00
  0.2357143E+00  0.7544326E+05  0.1335204E+01  0.1479178E-01  0.3747391E-03 -0.8611220E+05 -0.8459234E+00
  0.2666667E+00  0.7581270E+05  0.2282638E+01  0.1238823E-01  0.2897196E-03 -0.8645877E+05 -0.1452075E+01
  0.2976190E+00  0.7604780E+05  0.3834366E+01  0.1053589E-01  0.4321598E-03 -0.8666395E+05 -0.2450950E+01
  0.3285715E+00  0.7625754E+05  0.6353763E+01  0.5804973E-02  0.3347099E-03 -0.8679339E+05 -0.4081849E+01
  0.3595238E+00  0.7659286E+05  0.1045401E+02  0.1094995E-01  0.6550476E-03 -0.8713946E+05 -0.6757491E+01
  0.3904762E+00  0.7709302E+05  0.1709156E+02  0.2336827E-01  0.1374051E-02 -0.8745910E+05 -0.1111058E+02
  0.4214286E+00  0.7738747E+05  0.2754938E+02  0.1426567E-01  0.1338691E-02 -0.8776423E+05 -0.1803530E+02
  0.4523810E+00  0.7759984E+05  0.4399714E+02  0.2698396E-01  0.2825975E-02 -0.8784922E+05 -0.2896993E+02
  0.4833333E+00  0.7840410E+05  0.6872607E+02  0.1430117E-01  0.1723588E-02 -0.8870008E+05 -0.4566330E+02
  0.5142857E+00  0.7894755E+05  0.1054654E+03  0.1510196E-01  0.2219915E-02 -0.8915010E+05 -0.7061128E+02
  0.5452381E+00  0.7949508E+05  0.1580112E+03  0.1407673E-01  0.2741575E-02 -0.8959404E+05 -0.1066152E+03
  0.5761905E+00  0.7986485E+05  0.2309391E+03  0.2221856E-01  0.3507137E-02 -0.8993359E+05 -0.1570917E+03
  0.6071429E+00  0.8078062E+05  0.3320815E+03  0.1344568E-01  0.2354383E-02 -0.9064917E+05 -0.2277021E+03
  0.6380953E+00  0.8176144E+05  0.4671635E+03  0.1774347E-01  0.4650116E-02 -0.9156857E+05 -0.3233475E+03
  0.6690477E+00  0.8246023E+05  0.6451575E+03  0.2079974E-01  0.4891872E-02 -0.9217477E+05 -0.4506339E+03
  0.7000000E+00  0.8311837E+05  0.8772918E+03  0.8806501E-02  0.3323555E-02 -0.9266112E+05 -0.6179723E+03
  0.7309524E+00  0.8408109E+05  0.1175531E+04  0.1281738E-01  0.4432678E-02 -0.9360725E+05 -0.8360242E+03
  0.7619048E+00  0.8527101E+05  0.1555316E+04  0.8771895E-02  0.1525879E-02 -0.9464415E+05 -0.1116145E+04
  0.7928572E+00  0.8642649E+05  0.2032849E+04  0.2005362E-01  0.1057053E-01 -0.9569864E+05 -0.1473471E+04
  0.8238096E+00  0.8760630E+05  0.2627082E+04  0.7112536E-02  0.2464294E-02 -0.9656951E+05 -0.1920597E+04
  0.8547620E+00  0.8875634E+05  0.3358386E+04  0.1467394E-01  0.8438110E-02 -0.9776605E+05 -0.2482192E+04
  0.8857143E+00  0.8977673E+05  0.4246742E+04  0.1822687E-01  0.1022720E-01 -0.9870619E+05 -0.3169867E+04
  0.9166667E+00  0.9089436E+05  0.5317841E+04  0.2283825E-01  0.2088165E-01 -0.9980097E+05 -0.4008627E+04
  0.9476191E+00  0.9240216E+05  0.6602389E+04  0.1320384E-01  0.7579803E-02 -0.1009874E+06 -0.5012147E+04
  0.9785714E+00  0.9393016E+05  0.8131729E+04  0.8233064E-02  0.6973267E-02 -0.1025766E+06 -0.6239498E+04
  0.1009524E+01  0.9523773E+05  0.9925679E+04  0.1454047E-01  0.1303101E-01 -0.1037666E+06 -0.7688042E+04
  0.1040476E+01  0.9644229E+05  0.1201944E+05  0.8799119E-02  0.7087708E-02 -0.1050616E+06 -0.9413882E+04
  0.1071429E+01  0.9753831E+05  0.1443785E+05  0.4243978E-02  0.3242493E-02 -0.1061005E+06 -0.1141605E+05
  0.1102381E+01  0.9858252E+05  0.1720950E+05  0.1168237E-01  0.1130676E-01 -0.1071255E+06 -0.1373487E+05
  0.1133333E+01  0.9949874E+05  0.2034841E+05  0.8724437E-02  0.1139832E-01 -0.1082913E+06 -0.1640974E+05
  0.1164286E+01  0.1002609E+06  0.2384635E+05  0.2883256E-02  0.5737305E-02 -0.1091182E+06 -0.1938427E+05
  0.1195238E+01  0.1009535E+06  0.2773185E+05  0.4340548E-02  0.4043579E-02 -0.1099956E+06 -0.2273629E+05
  0.1226190E+01  0.1013809E+06  0.3201210E+05  0.3683442E-02  0.4699707E-02 -0.1106192E+06 -0.2648657E+05
  0.1257143E+01  0.1014663E+06  0.3666392E+05  0.5000721E-02  0.3692627E-02 -0.1106824E+06 -0.3053988E+05
  0.1288095E+01  0.1015257E+06  0.4170343E+05  0.5307013E-02  0.1364136E-01 -0.1111826E+06 -0.3508877E+05
  0.1319048E+01  0.1010176E+06  0.4701604E+05  0.4719758E-02  0.2807617E-02 -0.1110731E+06 -0.3991377E+05
  0.1350000E+01  0.1002268E+06  0.5254628E+05  0.7821542E-02  0.1156616E-01 -0.1105771E+06 -0.4492620E+05
  0.1380952E+01  0.9915109E+05  0.5828321E+05  0.4508183E-02  0.1007080E-01 -0.1099701E+06 -0.5025211E+05
  0.1411905E+01  0.9749823E+05  0.6410920E+05  0.3760918E-02 -0.4394531E-02 -0.1088365E+06 -0.5575981E+05
  0.1442857E+01  0.9572421E+05  0.7000434E+05  0.5626112E-02  0.5523682E-02 -0.1072509E+06 -0.6121993E+05
  0.1473810E+01  0.9370891E+05  0.7591848E+05  0.3105989E-02  0.1580811E-01 -0.1056886E+06 -0.6689470E+05
  0.1504762E+01  0.9142431E+05  0.8169688E+05  0.3082662E-02  0.9033203E-02 -0.1039747E+06 -0.7255469E+05
  0.1535714E+01  0.8882303E+05  0.8722491E+05  0.3417969E-02 -0.1708984E-02 -0.1018106E+06 -0.7796743E+05
  0.1566667E+01  0.8592571E+05  0.9247469E+05  0.6817757E-02  0.7446289E-02 -0.9925559E+05 -0.8319684E+05
  0.1597619E+01  0.8287698E+05  0.9744375E+05  0.3190019E-02  0.1129150E-01 -0.9666315E+05 -0.8835255E+05
  0.1628572E+01  0.7971922E+05  0.1020276E+06  0.3635339E-02  0.9521484E-02 -0.9388505E+05 -0.9313992E+05
  0.1659524E+01  0.7654632E+05  0.1061588E+06  0.6381107E-02  0.1306152E-01 -0.9087198E+05 -0.9724601E+05
  0.1690476E+01  0.7338504E+05  0.1099157E+06  0.5831006E-02  0.1983643E-01 -0.8793684E+05 -0.1011433E+06
  0.1721429E+01  0.7026709E+05  0.1133397E+06  0.5353872E-02  0.1214600E-01 -0.8521114E+05 -0.1050325E+06
  0.1752381E+01  0.6704502E+05  0.1162116E+06  0.3900943E-02  0.1049805E-01 -0.8223842E+05 -0.1083067E+06
  0.1783333E+01  0.6392707E+05  0.1186425E+06  0.5587284E-02  0.1281738E-02 -0.7928734E+05 -0.1110936E+06
  0.1814286E+01  0.6088535E+05  0.1206430E+06  0.2548338E-02  0.8911133E-02 -0.7636200E+05 -0.1135211E+06
  0.1845238E+01  0.5794156E+05  0.1222878E+06  0.5871188E-02  0.3417969E-02 -0.7354254E+05 -0.1157742E+06
  0.1876190E+01  0.5513432E+05  0.1235865E+06  0.2033214E-02  0.1245117E-01 -0.7080440E+05 -0.1176342E+06
  0.1907143E+01  0.5250661E+05  0.1245434E+06  0.4912530E-02  0.1501465E-01 -0.6813070E+05 -0.1187261E+06
  0.1938095E+01  0.5005755E+05  0.1252336E+06  0.5904814E-02  0.7263184E-02 -0.6562194E+05 -0.1195465E+06
  0.1969048E+01  0.4776935E+05  0.1257534E+06  0.3777796E-02  0.3417969E-02 -0.6337555E+05 -0.1206287E+06
  0.2000000E+01  0.4560433E+05  0.1260499E+06  0.5466461E-02 -0.3051758E-04 -0.6124996E+05 -0.1215439E+06
Zone t="Motion of body    1 in DoF   2",I=    64,F=POINT
  0.5000000E-01 -0.7019043E-02 -0.6437302E-05  0.1107986E+06  0.2159491E+03 -0.2502441E-01 -0.2861023E-04
  0.8095238E-01 -0.1135658E-01 -0.1144409E-04  0.1098062E+06  0.3576913E+03 -0.1357135E-01 -0.2288818E-04
  0.1119048E+00 -0.1084023E-01  0.1907349E-04  0.1092360E+06  0.5114249E+03 -0.1499906E-01 -0.5722046E-04
  0.1428571E+00 -0.1612854E-01 -0.4482269E-04  0.1089224E+06  0.6828106E+03 -0.5126953E-02 -0.8392334E-04
  0.1738095E+00 -0.1509993E-01  0.3910065E-04  0.1086121E+06  0.8785905E+03 -0.7725546E-02 -0.1907349E-04
  0.2047619E+00 -0.8346203E-02 -0.6103516E-04  0.1086163E+06  0.1107722E+04 -0.1371162E-01 -0.1640320E-03
  0.2357143E+00 -0.1139323E-01 -0.1144409E-04  0.1088160E+06  0.1382151E+04 -0.2330433E-02 -0.1754761E-03
  0.2666667E+00 -0.1201630E-01  0.8010864E-04  0.1088494E+06  0.1711534E+04 -0.8697510E-02 -0.1014709E-02
  0.2976190E+00 -0.2045654E-01  0.1754761E-03  0.1092400E+06  0.2118939E+04  0.2871094E-02 -0.3280640E-03
  0.3285715E+00 -0.1226010E-01  0.2288818E-04  0.1093174E+06  0.2614967E+04 -0.1523225E-01 -0.5340576E-03
  0.3595238E+00 -0.8700540E-02  0.4882812E-03  0.1096417E+06  0.3225869E+04 -0.1697667E-01 -0.1174927E-02
  0.3904762E+00 -0.1906976E-01  0.3204346E-03  0.1097107E+06  0.3969729E+04 -0.1250476E-02 -0.9155273E-03
  0.4214286E+00 -0.1658294E-01 -0.7629395E-05  0.1096948E+06  0.4834606E+04 -0.1564155E-01  0.3509521E-03
  0.4523810E+00 -0.1490864E-01 -0.6103516E-03  0.1095562E+06  0.5865359E+04 -0.2428557E-02 -0.4577637E-03
  0.4833333E+00 -0.1067063E-01 -0.1449585E-03  0.1090607E+06  0.6964207E+04 -0.6313981E-02 -0.4272461E-03
  0.5142857E+00 -0.1418220E-01 -0.1525879E-04  0.1086672E+06  0.8183849E+04 -0.1993815E-01 -0.3753662E-02
  0.5452381E+00 -0.1544803E-01  0.5493164E-03  0.1076434E+06  0.9455696E+04  0.4029919E-02 -0.2929688E-02
  0.5761905E+00 -0.1228774E-01  0.1052856E-02  0.1067570E+06  0.1074087E+05 -0.1694860E-02 -0.1586914E-02
  0.6071429E+00 -0.6735408E-02 -0.2151489E-02  0.1056502E+06  0.1208162E+05 -0.2814797E-02  0.6103516E-03
  0.6380953E+00 -0.8130429E-02 -0.1068115E-02  0.1043532E+06  0.1337829E+05 -0.7269560E-02 -0.1525879E-02
  0.6690477E+00 -0.1674014E-01 -0.1312256E-02  0.1032012E+06  0.1466103E+05  0.1277177E-01  0.3662109E-03
  0.7000000E+00 -0.1403809E-01  0.1831055E-03  0.1018253E+06  0.1594196E+05 -0.5929129E-02 -0.5126953E-02
  0.7309524E+00 -0.1365239E-01  0.1220703E-02  0.1002987E+06  0.1717116E+05  0.9018092E-02 -0.2258301E-02
  0.7619048E+00 -0.1494026E-01 -0.7324219E-03  0.9890928E+05  0.1834547E+05 -0.1313782E-01 -0.1953125E-02
  0.7928572E+00 -0.1547324E-01 -0.1129150E-02  0.9766071E+05  0.1945026E+05 -0.1847551E-02 -0.3784180E-02
  0.8238096E+00 -0.1563276E-01 -0.1983643E-02  0.9593840E+05  0.2050743E+05  0.5927113E-02 -0.1586914E-02
  0.8547620E+00 -0.2027931E-01  0.3479004E-02  0.9441177E+05  0.2148418E+05 -0.4855610E-02 -0.8178711E-02
  0.8857143E+00 -0.1746885E-01  0.3540039E-02  0.9301106E+05  0.2235605E+05  0.6891066E-02 -0.5493164E-02
  0.9166667E+00 -0.1771129E-01  0.9155273E-03  0.9179002E+05  0.2311439E+05 -0.5326705E-03 -0.4638672E-02
  0.9476191E+00 -0.2093291E-01 -0.5493164E-03  0.9014077E+05  0.2380360E+05 -0.7986710E-02 -0.4394531E-02
  0.9785714E+00 -0.1337873E-01 -0.3051758E-03  0.8867866E+05  0.2439232E+05  0.4740249E-02 -0.1135254E-01
  0.1009524E+01 -0.1701931E-01 -0.4760742E-02  0.8736394E+05  0.2485181E+05 -0.8222473E-02 -0.1953125E-02
  0.1040476E+01 -0.1366796E-01 -0.3295898E-02  0.8628319E+05  0.2518759E+05  0.5866079E-02  0.6225586E-02
  0.1071429E+01 -0.1549479E-01 -0.9399414E-02  0.8503033E+05  0.2541969E+05  0.1253255E-01 -0.2929688E-02
  0.1102381E+01 -0.1649927E-01 -0.1098633E-02  0.8369176E+05  0.2555292E+05  0.7086933E-02  0.9399414E-02
  0.1133333E+01 -0.1455419E-01  0.1464844E-02  0.8254791E+05  0.2559521E+05  0.4523782E-02 -0.1159668E-01
  0.1164286E+01 -0.1360372E-01 -0.6652832E-02  0.8156017E+05  0.2551218E+05  0.0000000E+00  0.1062012E-01
  0.1195238E+01 -0.1963460E-01 -0.2929688E-02  0.8080118E+05  0.2533599E+05  0.1409401E-01 -0.2563477E-02
  0.1226190E+01 -0.1605284E-01 -0.7629395E-02  0.8003310E+05  0.2504650E+05 -0.2787470E-02  0.8056641E-02
  0.1257143E+01 -0.1566974E-01 -0.7995605E-02  0.7901699E+05  0.2465969E+05  0.5049272E-02  0.3051758E-02
  0.1288095E+01 -0.1444029E-01 -0.1043701E-01  0.7822102E+05  0.2420626E+05  0.2084898E-02  0.2685547E-02
  0.1319048E+01 -0.1882987E-01 -0.1153564E-01  0.7755579E+05  0.2369341E+05  0.5922833E-02 -0.9521484E-02
  0.1350000E+01 -0.1958918E-01 -0.1312256E-01  0.7704927E+05  0.2311157E+05  0.5063657E-02  0.7934570E-02
  0.1380952E+01 -0.1534357E-01 -0.1019287E-01  0.7674795E+05  0.2250595E+05 -0.1944706E-02 -0.1464844E-02
  0.1411905E+01 -0.1475458E-01 -0.1330566E-01  0.7645423E+05  0.2181961E+05  0.3458316E-03  0.1330566E-01
  0.1442857E+01 -0.1701582E-01 -0.6164551E-02  0.7588784E+05  0.2097114E+05 -0.7445080E-02 -0.7690430E-02
  0.1473810E+01 -0.1565936E-01 -0.1690674E-01  0.7549005E+05  0.2014752E+05  0.8779597E-02  0.1586914E-02
  0.1504762E+01 -0.1370973E-01 -0.1190186E-01  0.7521748E+05  0.1935241E+05  0.9734721E-03  0.7324219E-03
  0.1535714E+01 -0.1375136E-01 -0.1074219E-01  0.7504726E+05  0.1853031E+05 -0.8425690E-02 -0.4882812E-03
  0.1566667E+01 -0.1514516E-01 -0.1538086E-01  0.7500157E+05  0.1771801E+05  0.7480053E-02  0.3662109E-02
  0.1597619E+01 -0.1311346E-01 -0.1544189E-01  0.7509172E+05  0.1697487E+05 -0.1833784E-02  0.3723145E-02
  0.1628572E+01 -0.1124332E-01 -0.1721191E-01  0.7517632E+05  0.1617923E+05 -0.7345634E-02  0.1275635E-01
  0.1659524E+01 -0.1195308E-01 -0.2227783E-01  0.7503596E+05  0.1514314E+05 -0.2500953E-02  0.1367188E-01
  0.1690476E+01 -0.1059691E-01 -0.1538086E-01  0.7498795E+05  0.1415271E+05  0.8232009E-02  0.9155273E-03
  0.1721429E+01 -0.9236316E-02 -0.1733398E-01  0.7502738E+05  0.1333195E+05 -0.5389329E-02  0.1684570E-01
  0.1752381E+01 -0.8951271E-02 -0.2270508E-01  0.7512810E+05  0.1252306E+05 -0.2925707E-02  0.1361084E-01
  0.1783333E+01 -0.8060063E-02 -0.2142334E-01  0.7528159E+05  0.1174317E+05 -0.6845064E-03  0.1397705E-01
  0.1814286E+01 -0.1032792E-01 -0.2008057E-01  0.7549625E+05  0.1105273E+05 -0.4306103E-02  0.2185059E-01
  0.1845238E+01 -0.1083276E-01 -0.2178955E-01  0.7575941E+05  0.1045775E+05  0.1323085E-02  0.1501465E-01
  0.1876190E+01 -0.7254509E-02 -0.1733398E-01  0.7602438E+05  0.9852872E+04 -0.3123017E-02  0.1513672E-01
  0.1907143E+01 -0.5808627E-02 -0.2191162E-01  0.7616637E+05  0.8975274E+04 -0.1075316E-01  0.1168823E-01
  0.1938095E+01 -0.2944534E-02 -0.1782227E-01  0.7633895E+05  0.8129720E+04 -0.6802346E-02  0.1358032E-01
  0.1969048E+01 -0.5378032E-02 -0.1403809E-01  0.7654488E+05  0.7484885E+04 -0.2479784E-02  0.6530762E-02
  0.2000000E+01 -0.6103516E-02 -0.1876831E-01  0.7676046E+05  0.6920122E+04 -0.1147461E-01  0.2059937E-01
Zone t="Motion of body    1 in DoF   3",I=    64,F=POINT
  0.5000000E-01 -0.8482761E+05 -0.4521263E-02 -0.1292419E+00 -0.4116470E-03  0.2984861E+06  0.2940737E-02
  0.8095238E-01 -0.8486772E+05 -0.1970843E-01 -0.9999443E-01 -0.6013356E-03  0.2989961E+06  0.1254817E-01
  0.1119048E+00 -0.8491562E+05 -0.5526093E-01 -0.1002210E+00 -0.8427232E-03  0.2991448E+06  0.3462814E-01
  0.1428571E+00 -0.8519653E+05 -0.1251517E+00 -0.1026459E+00 -0.1021739E-02  0.2995418E+06  0.7831588E-01
  0.1738095E+00 -0.8541977E+05 -0.2500021E+00 -0.1160588E+00 -0.1658391E-02  0.2990455E+06  0.1571013E+00
  0.2047619E+00 -0.8558234E+05 -0.4639007E+00 -0.8860388E-01 -0.1620478E-02  0.2991383E+06  0.2942553E+00
  0.2357143E+00 -0.8554895E+05 -0.8196850E+00 -0.1008560E+00 -0.2193048E-02  0.2997290E+06  0.5195359E+00
  0.2666667E+00 -0.8600466E+05 -0.1406605E+01 -0.1023102E+00 -0.2591265E-02  0.2995672E+06  0.8941138E+00
  0.2976190E+00 -0.8611461E+05 -0.2374457E+01 -0.1023340E+00 -0.3474640E-02  0.3003564E+06  0.1517783E+01
  0.3285715E+00 -0.8631309E+05 -0.3957371E+01 -0.9204366E-01 -0.3736127E-02  0.2998085E+06  0.2544745E+01
  0.3595238E+00 -0.8660454E+05 -0.6549134E+01 -0.7512175E-01 -0.4656225E-02  0.3005772E+06  0.4235975E+01
  0.3904762E+00 -0.8700526E+05 -0.1077733E+02 -0.1261418E+00 -0.7512093E-02  0.3002427E+06  0.7010253E+01
  0.4214286E+00 -0.8726574E+05 -0.1749299E+02 -0.9116996E-01 -0.7228389E-02  0.3007707E+06  0.1145566E+02
  0.4523810E+00 -0.8728145E+05 -0.2813098E+02 -0.1297929E+00 -0.1315120E-01  0.3005089E+06  0.1852323E+02
  0.4833333E+00 -0.8826124E+05 -0.4427818E+02 -0.8662783E-01 -0.1007923E-01  0.3014155E+06  0.2941527E+02
  0.5142857E+00 -0.8857314E+05 -0.6850302E+02 -0.8438111E-01 -0.1201147E-01  0.3025669E+06  0.4586285E+02
  0.5452381E+00 -0.8911509E+05 -0.1034607E+03 -0.9571059E-01 -0.1515150E-01  0.3021364E+06  0.6982250E+02
  0.5761905E+00 -0.8934287E+05 -0.1524846E+03 -0.9883155E-01 -0.1703537E-01  0.3026884E+06  0.1037327E+03
  0.6071429E+00 -0.9006480E+05 -0.2211890E+03 -0.8705766E-01 -0.2058840E-01  0.3031343E+06  0.1516594E+03
  0.6380953E+00 -0.9110127E+05 -0.3138880E+03 -0.8675646E-01 -0.1890898E-01  0.3038079E+06  0.2172383E+03
  0.6690477E+00 -0.9158375E+05 -0.4376953E+03 -0.7243417E-01 -0.2054119E-01  0.3047447E+06  0.3058349E+03
  0.7000000E+00 -0.9197416E+05 -0.6008767E+03 -0.7638113E-01 -0.2403450E-01  0.3049397E+06  0.4235328E+03
  0.7309524E+00 -0.9300497E+05 -0.8121249E+03 -0.9619299E-01 -0.2965927E-01  0.3055428E+06  0.5775151E+03
  0.7619048E+00 -0.9403321E+05 -0.1084403E+04 -0.9821319E-01 -0.2981091E-01  0.3065080E+06  0.7776965E+03
  0.7928572E+00 -0.9497609E+05 -0.1432189E+04 -0.9976772E-01 -0.4085636E-01  0.3083175E+06  0.1037847E+04
  0.8238096E+00 -0.9590793E+05 -0.1869391E+04 -0.7653385E-01 -0.2786064E-01  0.3079156E+06  0.1367106E+04
  0.8547620E+00 -0.9711770E+05 -0.2413757E+04 -0.9447017E-01 -0.4420662E-01  0.3092039E+06  0.1785398E+04
  0.8857143E+00 -0.9792046E+05 -0.3083727E+04 -0.6725680E-01 -0.4008293E-01  0.3102687E+06  0.2304232E+04
  0.9166667E+00 -0.9887805E+05 -0.3899996E+04 -0.9221857E-01 -0.5514908E-01  0.3119688E+06  0.2941322E+04
  0.9476191E+00 -0.1001916E+06 -0.4880942E+04 -0.1035696E+00 -0.5745697E-01  0.3117988E+06  0.3698893E+04
  0.9785714E+00 -0.1018510E+06 -0.6068582E+04 -0.5457523E-01 -0.3052521E-01  0.3135118E+06  0.4651729E+04
  0.1009524E+01 -0.1030005E+06 -0.7483768E+04 -0.7146296E-01 -0.5413818E-01  0.3145396E+06  0.5793992E+04
  0.1040476E+01 -0.1041553E+06 -0.9166166E+04 -0.5901276E-01 -0.3302002E-01  0.3166805E+06  0.7188517E+04
  0.1071429E+01 -0.1051379E+06 -0.1112773E+05 -0.5240886E-01 -0.4087067E-01  0.3173961E+06  0.8811463E+04
  0.1102381E+01 -0.1061711E+06 -0.1339529E+05 -0.5193393E-01 -0.4188538E-01  0.3176967E+06  0.1070529E+05
  0.1133333E+01 -0.1073227E+06 -0.1598634E+05 -0.5956313E-01 -0.6431580E-01  0.3190847E+06  0.1290995E+05
  0.1164286E+01 -0.1081185E+06 -0.1889201E+05 -0.2830833E-01 -0.3797913E-01  0.3198438E+06  0.1535757E+05
  0.1195238E+01 -0.1089495E+06 -0.2216656E+05 -0.4340548E-01 -0.4597473E-01  0.3214548E+06  0.1816951E+05
  0.1226190E+01 -0.1095189E+06 -0.2583913E+05 -0.4698877E-01 -0.4385376E-01  0.3225359E+06  0.2139013E+05
  0.1257143E+01 -0.1096501E+06 -0.2983703E+05 -0.3243186E-01 -0.2891541E-01  0.3214849E+06  0.2482351E+05
  0.1288095E+01 -0.1101994E+06 -0.3425296E+05 -0.4236133E-01 -0.5432129E-01  0.3223831E+06  0.2881451E+05
  0.1319048E+01 -0.1100842E+06 -0.3895255E+05 -0.4164492E-01 -0.3204346E-01  0.3226616E+06  0.3307914E+05
  0.1350000E+01 -0.1095806E+06 -0.4387031E+05 -0.5353009E-01 -0.5911255E-01  0.3224053E+06  0.3748941E+05
  0.1380952E+01 -0.1089419E+06 -0.4907989E+05 -0.4446306E-01 -0.3900146E-01  0.3229130E+06  0.4234916E+05
  0.1411905E+01 -0.1077278E+06 -0.5447909E+05 -0.3043318E-01 -0.2972412E-01  0.3226528E+06  0.4747633E+05
  0.1442857E+01 -0.1062204E+06 -0.5987345E+05 -0.5025429E-01 -0.4513550E-01  0.3201658E+06  0.5229684E+05
  0.1473810E+01 -0.1047499E+06 -0.6541873E+05 -0.3288207E-01 -0.4125977E-01  0.3187765E+06  0.5755678E+05
  0.1504762E+01 -0.1031513E+06 -0.7090318E+05 -0.3155672E-01 -0.4473877E-01  0.3178067E+06  0.6291872E+05
  0.1535714E+01 -0.1010564E+06 -0.7619664E+05 -0.5270031E-01 -0.1928711E-01  0.3161155E+06  0.6803357E+05
  0.1566667E+01 -0.9848481E+05 -0.8134071E+05 -0.3716651E-01 -0.2288818E-01  0.3140524E+06  0.7316817E+05
  0.1597619E+01 -0.9588097E+05 -0.8639363E+05 -0.3896790E-01 -0.2807617E-01  0.3126867E+06  0.7858290E+05
  0.1628572E+01 -0.9310822E+05 -0.9111578E+05 -0.3755268E-01 -0.2886963E-01  0.3107766E+06  0.8358289E+05
  0.1659524E+01 -0.9018531E+05 -0.9518640E+05 -0.4597339E-01 -0.3729248E-01  0.3069437E+06  0.8712060E+05
  0.1690476E+01 -0.8735584E+05 -0.9904030E+05 -0.3682741E-01 -0.3338623E-01  0.3037112E+06  0.9078661E+05
  0.1721429E+01 -0.8481715E+05 -0.1027727E+06 -0.4921308E-01 -0.3356934E-01  0.3016301E+06  0.9502538E+05
  0.1752381E+01 -0.8192963E+05 -0.1059498E+06 -0.4876179E-01 -0.2404785E-01  0.2990668E+06  0.9860854E+05
  0.1783333E+01 -0.7902273E+05 -0.1086837E+06 -0.3751095E-01 -0.2838135E-01  0.2963593E+06  0.1016198E+06
  0.1814286E+01 -0.7610206E+05 -0.1110819E+06 -0.3862036E-01 -0.1568604E-01  0.2938956E+06  0.1046168E+06
  0.1845238E+01 -0.7328900E+05 -0.1133030E+06 -0.3612021E-01 -0.2001953E-01  0.2919818E+06  0.1080602E+06
  0.1876190E+01 -0.7054974E+05 -0.1151754E+06 -0.4463312E-01 -0.2789307E-01  0.2899544E+06  0.1110180E+06
  0.1907143E+01 -0.6792349E+05 -0.1162698E+06 -0.4570093E-01 -0.2697754E-01  0.2864258E+06  0.1112059E+06
  0.1938095E+01 -0.6546291E+05 -0.1171045E+06 -0.4522300E-01 -0.1428223E-01  0.2830538E+06  0.1109862E+06
  0.1969048E+01 -0.6336712E+05 -0.1181670E+06 -0.3310512E-01 -0.1742554E-01  0.2809875E+06  0.1126957E+06
  0.2000000E+01 -0.6140429E+05 -0.1190827E+06 -0.4956055E-01 -0.1126099E-01  0.2792155E+06  0.1145771E+06
