VARIABLES="w (rad/s)"
"abs(F   1   1)" "angle(F   1   1)"
"abs(F   1   2)" "angle(F   1   2)"
"abs(F   1   3)" "angle(F   1   3)"
Zone t="Diffraction force - beta =   0.000 deg",I=    64,F=POINT
  0.5000000E-01  0.1843474E+04 -0.1570794E+01  0.2872637E+06 -0.1923727E-04  0.8345067E+03  0.1570805E+01
  0.8095238E-01  0.3003921E+04 -0.1570794E+01  0.2867019E+06 -0.5174150E-04  0.1362905E+04  0.1570787E+01
  0.1119048E+00  0.4196523E+04 -0.1570793E+01  0.2858782E+06 -0.1027163E-03  0.1904939E+04  0.1570787E+01
  0.1428571E+00  0.5427595E+04 -0.1570794E+01  0.2847914E+06 -0.1760781E-03  0.2469402E+04  0.1570787E+01
  0.1738095E+00  0.6722535E+04 -0.1570789E+01  0.2834431E+06 -0.2776796E-03  0.3066733E+04  0.1570802E+01
  0.2047619E+00  0.8075562E+04 -0.1570788E+01  0.2818278E+06 -0.4160246E-03  0.3691456E+04  0.1570796E+01
  0.2357143E+00  0.9534180E+04 -0.1570780E+01  0.2799441E+06 -0.6036811E-03  0.4377062E+04  0.1570812E+01
  0.2666667E+00  0.1109738E+05 -0.1570774E+01  0.2778008E+06 -0.8558168E-03  0.5111018E+04  0.1570818E+01
  0.2976190E+00  0.1278366E+05 -0.1570762E+01  0.2753802E+06 -0.1198377E-02  0.5911104E+04  0.1570828E+01
  0.3285715E+00  0.1465899E+05 -0.1570744E+01  0.2727089E+06 -0.1657584E-02  0.6809551E+04  0.1570847E+01
  0.3595238E+00  0.1671153E+05 -0.1570719E+01  0.2697628E+06 -0.2275113E-02  0.7801666E+04  0.1570873E+01
  0.3904762E+00  0.1897785E+05 -0.1570680E+01  0.2665736E+06 -0.3097377E-02  0.8893803E+04  0.1570912E+01
  0.4214286E+00  0.2150934E+05 -0.1570624E+01  0.2631413E+06 -0.4154476E-02  0.1014463E+05  0.1570968E+01
  0.4523810E+00  0.2431461E+05 -0.1570541E+01  0.2594743E+06 -0.5527747E-02  0.1152669E+05  0.1571055E+01
  0.4833333E+00  0.2737291E+05 -0.1570423E+01  0.2556172E+06 -0.7179003E-02  0.1306915E+05  0.1571171E+01
  0.5142857E+00  0.3065403E+05 -0.1570259E+01  0.2515285E+06 -0.9203340E-02  0.1472852E+05  0.1571335E+01
  0.5452381E+00  0.3427464E+05 -0.1570037E+01  0.2473225E+06 -0.1157364E-01  0.1657993E+05  0.1571556E+01
  0.5761905E+00  0.3810440E+05 -0.1569747E+01  0.2429116E+06 -0.1429178E-01  0.1856539E+05  0.1571846E+01
  0.6071429E+00  0.4212508E+05 -0.1569368E+01  0.2383613E+06 -0.1744292E-01  0.2065791E+05  0.1572224E+01
  0.6380953E+00  0.4634652E+05 -0.1568892E+01  0.2336946E+06 -0.2094312E-01  0.2290429E+05  0.1572703E+01
  0.6690477E+00  0.5075470E+05 -0.1568292E+01  0.2288582E+06 -0.2487335E-01  0.2527959E+05  0.1573302E+01
  0.7000000E+00  0.5542980E+05 -0.1567548E+01  0.2239353E+06 -0.2928582E-01  0.2781317E+05  0.1574047E+01
  0.7309524E+00  0.6030134E+05 -0.1566638E+01  0.2189468E+06 -0.3414087E-01  0.3051881E+05  0.1574959E+01
  0.7619048E+00  0.6526066E+05 -0.1565532E+01  0.2138346E+06 -0.3947987E-01  0.3329041E+05  0.1576066E+01
  0.7928572E+00  0.7035562E+05 -0.1564202E+01  0.2086048E+06 -0.4532174E-01  0.3620422E+05  0.1577400E+01
  0.8238096E+00  0.7562259E+05 -0.1562620E+01  0.2034441E+06 -0.5170141E-01  0.3917531E+05  0.1578987E+01
  0.8547620E+00  0.8117057E+05 -0.1560753E+01  0.1981990E+06 -0.5862142E-01  0.4245855E+05  0.1580853E+01
  0.8857143E+00  0.8684348E+05 -0.1558564E+01  0.1928840E+06 -0.6607744E-01  0.4581545E+05  0.1583047E+01
  0.9166667E+00  0.9263380E+05 -0.1556013E+01  0.1874973E+06 -0.7407230E-01  0.4932811E+05  0.1585609E+01
  0.9476191E+00  0.9853746E+05 -0.1553064E+01  0.1822591E+06 -0.8264966E-01  0.5284497E+05  0.1588572E+01
  0.9785714E+00  0.1045637E+06 -0.1549680E+01  0.1769857E+06 -0.9181403E-01  0.5661668E+05  0.1591977E+01
  0.1009524E+01  0.1106047E+06 -0.1545826E+01  0.1716958E+06 -0.1015348E+00  0.6038505E+05  0.1595852E+01
  0.1040476E+01  0.1167324E+06 -0.1541469E+01  0.1663643E+06 -0.1118310E+00  0.6433526E+05  0.1600231E+01
  0.1071429E+01  0.1230740E+06 -0.1536597E+01  0.1611483E+06 -0.1227097E+00  0.6839055E+05  0.1605097E+01
  0.1102381E+01  0.1295374E+06 -0.1531153E+01  0.1560391E+06 -0.1342050E+00  0.7254248E+05  0.1610557E+01
  0.1133333E+01  0.1360228E+06 -0.1525095E+01  0.1509471E+06 -0.1463306E+00  0.7690443E+05  0.1616662E+01
  0.1164286E+01  0.1424130E+06 -0.1518397E+01  0.1458781E+06 -0.1590198E+00  0.8119323E+05  0.1623420E+01
  0.1195238E+01  0.1487339E+06 -0.1511036E+01  0.1408153E+06 -0.1723151E+00  0.8558066E+05  0.1630880E+01
  0.1226190E+01  0.1549603E+06 -0.1503018E+01  0.1358395E+06 -0.1861823E+00  0.8993871E+05  0.1639002E+01
  0.1257143E+01  0.1609914E+06 -0.1494359E+01  0.1310914E+06 -0.2007373E+00  0.9404123E+05  0.1647760E+01
  0.1288095E+01  0.1670941E+06 -0.1485089E+01  0.1263720E+06 -0.2157255E+00  0.9849113E+05  0.1657166E+01
  0.1319048E+01  0.1728590E+06 -0.1475250E+01  0.1217176E+06 -0.2314627E+00  0.1027381E+06  0.1667117E+01
  0.1350000E+01  0.1784813E+06 -0.1464950E+01  0.1171198E+06 -0.2477499E+00  0.1068628E+06  0.1677433E+01
  0.1380952E+01  0.1838423E+06 -0.1454112E+01  0.1125403E+06 -0.2647678E+00  0.1109929E+06  0.1688395E+01
  0.1411905E+01  0.1886750E+06 -0.1442774E+01  0.1080796E+06 -0.2823890E+00  0.1148617E+06  0.1699932E+01
  0.1442857E+01  0.1932614E+06 -0.1431216E+01  0.1038846E+06 -0.3003515E+00  0.1183552E+06  0.1711648E+01
  0.1473810E+01  0.1974678E+06 -0.1419425E+01  0.9975592E+05 -0.3190303E+00  0.1217989E+06  0.1723684E+01
  0.1504762E+01  0.2011929E+06 -0.1407557E+01  0.9569973E+05 -0.3384604E+00  0.1250838E+06  0.1735888E+01
  0.1535714E+01  0.2043474E+06 -0.1395871E+01  0.9172151E+05 -0.3584508E+00  0.1279308E+06  0.1747813E+01
  0.1566667E+01  0.2069795E+06 -0.1384540E+01  0.8781221E+05 -0.3790433E+00  0.1304137E+06  0.1759281E+01
  0.1597619E+01  0.2090523E+06 -0.1373509E+01  0.8394852E+05 -0.4006300E+00  0.1326803E+06  0.1770673E+01
  0.1628572E+01  0.2105258E+06 -0.1363022E+01  0.8019916E+05 -0.4227926E+00  0.1345501E+06  0.1781606E+01
  0.1659524E+01  0.2113866E+06 -0.1353447E+01  0.7672840E+05 -0.4447070E+00  0.1357305E+06  0.1791449E+01
  0.1690476E+01  0.2116927E+06 -0.1344800E+01  0.7334364E+05 -0.4672225E+00  0.1365871E+06  0.1800406E+01
  0.1721429E+01  0.2115377E+06 -0.1337267E+01  0.7003067E+05 -0.4906936E+00  0.1373300E+06  0.1808373E+01
  0.1752381E+01  0.2107165E+06 -0.1331096E+01  0.6679812E+05 -0.5147615E+00  0.1375383E+06  0.1814916E+01
  0.1783333E+01  0.2093326E+06 -0.1326323E+01  0.6364200E+05 -0.5396675E+00  0.1373096E+06  0.1820136E+01
  0.1814286E+01  0.2074275E+06 -0.1323091E+01  0.6055839E+05 -0.5654990E+00  0.1367230E+06  0.1823926E+01
  0.1845238E+01  0.2050721E+06 -0.1321500E+01  0.5754537E+05 -0.5922806E+00  0.1358900E+06  0.1826231E+01
  0.1876190E+01  0.2023059E+06 -0.1321709E+01  0.5462051E+05 -0.6197468E+00  0.1347263E+06  0.1826674E+01
  0.1907143E+01  0.1991822E+06 -0.1324113E+01  0.5191475E+05 -0.6460556E+00  0.1329699E+06  0.1824273E+01
  0.1938095E+01  0.1957305E+06 -0.1328488E+01  0.4929843E+05 -0.6728812E+00  0.1309171E+06  0.1819851E+01
  0.1969048E+01  0.1920559E+06 -0.1334726E+01  0.4676061E+05 -0.7012104E+00  0.1288713E+06  0.1814146E+01
  0.2000000E+01  0.1881297E+06 -0.1343117E+01  0.4430281E+05 -0.7304583E+00  0.1266214E+06  0.1806298E+01
