VARIABLES="w (rad/s)"
"abs(F   1   1)" "angle(F   1   1)"
"abs(F   1   2)" "angle(F   1   2)"
"abs(F   1   3)" "angle(F   1   3)"
Zone t="Diffraction force - beta =   0.000 deg",I=    64,F=POINT
  0.5000000E-01  0.7121061E+04 -0.1570789E+01  0.4334199E+03 -0.3091958E+01  0.3079124E+05  0.1570804E+01
  0.8095238E-01  0.1162402E+05 -0.1570776E+01  0.1117946E+04 -0.3090237E+01  0.5021220E+05  0.1570817E+01
  0.1119048E+00  0.1622960E+05 -0.1570755E+01  0.2116787E+04 -0.3088369E+01  0.7004922E+05  0.1570838E+01
  0.1428571E+00  0.2096399E+05 -0.1570723E+01  0.3422798E+04 -0.3086010E+01  0.9043878E+05  0.1570870E+01
  0.1738095E+00  0.2591072E+05 -0.1570677E+01  0.5034037E+04 -0.3083164E+01  0.1116111E+06  0.1570916E+01
  0.2047619E+00  0.3110416E+05 -0.1570611E+01  0.6956517E+04 -0.3079656E+01  0.1337613E+06  0.1570982E+01
  0.2357143E+00  0.3658152E+05 -0.1570515E+01  0.9149296E+04 -0.3075046E+01  0.1570929E+06  0.1571078E+01
  0.2666667E+00  0.4247714E+05 -0.1570377E+01  0.1164688E+05 -0.3069802E+01  0.1819881E+06  0.1571216E+01
  0.2976190E+00  0.4882665E+05 -0.1570173E+01  0.1439109E+05 -0.3062964E+01  0.2088140E+06  0.1571420E+01
  0.3285715E+00  0.5576865E+05 -0.1569875E+01  0.1741300E+05 -0.3055217E+01  0.2379999E+06  0.1571719E+01
  0.3595238E+00  0.6338564E+05 -0.1569433E+01  0.2059907E+05 -0.3045566E+01  0.2697180E+06  0.1572161E+01
  0.3904762E+00  0.7181646E+05 -0.1568783E+01  0.2404301E+05 -0.3034645E+01  0.3047256E+06  0.1572812E+01
  0.4214286E+00  0.8104474E+05 -0.1567844E+01  0.2746721E+05 -0.3022240E+01  0.3430724E+06  0.1573750E+01
  0.4523810E+00  0.9134834E+05 -0.1566490E+01  0.3107210E+05 -0.3008089E+01  0.3851718E+06  0.1575106E+01
  0.4833333E+00  0.1024618E+06 -0.1564644E+01  0.3454539E+05 -0.2994234E+01  0.4303529E+06  0.1576953E+01
  0.5142857E+00  0.1145743E+06 -0.1562124E+01  0.3797960E+05 -0.2979093E+01  0.4792656E+06  0.1579475E+01
  0.5452381E+00  0.1275107E+06 -0.1558834E+01  0.4136233E+05 -0.2964774E+01  0.5315971E+06  0.1582762E+01
  0.5761905E+00  0.1412830E+06 -0.1554651E+01  0.4445456E+05 -0.2950534E+01  0.5863229E+06  0.1586944E+01
  0.6071429E+00  0.1560254E+06 -0.1549376E+01  0.4748779E+05 -0.2936179E+01  0.6440026E+06  0.1592228E+01
  0.6380953E+00  0.1710640E+06 -0.1542920E+01  0.5027424E+05 -0.2923392E+01  0.7024693E+06  0.1598685E+01
  0.6690477E+00  0.1868078E+06 -0.1535102E+01  0.5277136E+05 -0.2910440E+01  0.7637039E+06  0.1606487E+01
  0.7000000E+00  0.2033655E+06 -0.1525759E+01  0.5513895E+05 -0.2897836E+01  0.8268078E+06  0.1615821E+01
  0.7309524E+00  0.2200919E+06 -0.1514749E+01  0.5721853E+05 -0.2886228E+01  0.8890549E+06  0.1626834E+01
  0.7619048E+00  0.2374334E+06 -0.1501919E+01  0.5891242E+05 -0.2874330E+01  0.9531994E+06  0.1639651E+01
  0.7928572E+00  0.2549807E+06 -0.1487082E+01  0.6041777E+05 -0.2863000E+01  0.1016365E+07  0.1654497E+01
  0.8238096E+00  0.2729150E+06 -0.1470137E+01  0.6181637E+05 -0.2852574E+01  0.1080852E+07  0.1671406E+01
  0.8547620E+00  0.2903269E+06 -0.1450861E+01  0.6259295E+05 -0.2841749E+01  0.1142122E+07  0.1690623E+01
  0.8857143E+00  0.3080056E+06 -0.1429390E+01  0.6311576E+05 -0.2831046E+01  0.1202785E+07  0.1712033E+01
  0.9166667E+00  0.3255043E+06 -0.1405620E+01  0.6350448E+05 -0.2821259E+01  0.1260031E+07  0.1735811E+01
  0.9476191E+00  0.3426390E+06 -0.1379466E+01  0.6372193E+05 -0.2811853E+01  0.1315230E+07  0.1761923E+01
  0.9785714E+00  0.3584018E+06 -0.1350767E+01  0.6338682E+05 -0.2802652E+01  0.1363087E+07  0.1790602E+01
  0.1009524E+01  0.3735602E+06 -0.1319681E+01  0.6276143E+05 -0.2793255E+01  0.1408822E+07  0.1821567E+01
  0.1040476E+01  0.3870057E+06 -0.1286253E+01  0.6197502E+05 -0.2784325E+01  0.1445459E+07  0.1854939E+01
  0.1071429E+01  0.3994248E+06 -0.1250813E+01  0.6103478E+05 -0.2775583E+01  0.1478088E+07  0.1890191E+01
  0.1102381E+01  0.4095682E+06 -0.1213476E+01  0.5998527E+05 -0.2767282E+01  0.1501239E+07  0.1927291E+01
  0.1133333E+01  0.4172080E+06 -0.1174576E+01  0.5841477E+05 -0.2759766E+01  0.1512252E+07  0.1966058E+01
  0.1164286E+01  0.4231792E+06 -0.1134330E+01  0.5668397E+05 -0.2752154E+01  0.1517983E+07  0.2006068E+01
  0.1195238E+01  0.4261651E+06 -0.1092988E+01  0.5487204E+05 -0.2744861E+01  0.1510792E+07  0.2047246E+01
  0.1226190E+01  0.4270088E+06 -0.1051018E+01  0.5298174E+05 -0.2737879E+01  0.1496067E+07  0.2088952E+01
  0.1257143E+01  0.4250925E+06 -0.1008390E+01  0.5101450E+05 -0.2730602E+01  0.1472626E+07  0.2131111E+01
  0.1288095E+01  0.4204096E+06 -0.9665279E+00  0.4892832E+05 -0.2725059E+01  0.1437497E+07  0.2172671E+01
  0.1319048E+01  0.4130456E+06 -0.9246755E+00  0.4662359E+05 -0.2719746E+01  0.1393618E+07  0.2214209E+01
  0.1350000E+01  0.4038197E+06 -0.8833700E+00  0.4425690E+05 -0.2714690E+01  0.1345583E+07  0.2255029E+01
  0.1380952E+01  0.3918471E+06 -0.8430489E+00  0.4195198E+05 -0.2710096E+01  0.1286740E+07  0.2294991E+01
  0.1411905E+01  0.3772859E+06 -0.8037337E+00  0.3962457E+05 -0.2705748E+01  0.1222797E+07  0.2333225E+01
  0.1442857E+01  0.3625100E+06 -0.7662457E+00  0.3732030E+05 -0.2701599E+01  0.1158590E+07  0.2370039E+01
  0.1473810E+01  0.3457375E+06 -0.7300168E+00  0.3508650E+05 -0.2697846E+01  0.1088613E+07  0.2405533E+01
  0.1504762E+01  0.3274572E+06 -0.6954403E+00  0.3283822E+05 -0.2695800E+01  0.1014298E+07  0.2439305E+01
  0.1535714E+01  0.3086306E+06 -0.6621394E+00  0.3053790E+05 -0.2694379E+01  0.9416646E+06  0.2471747E+01
  0.1566667E+01  0.2892528E+06 -0.6307173E+00  0.2831669E+05 -0.2693408E+01  0.8690593E+06  0.2502120E+01
  0.1597619E+01  0.2691908E+06 -0.6013399E+00  0.2624742E+05 -0.2692775E+01  0.7946891E+06  0.2530497E+01
  0.1628572E+01  0.2491382E+06 -0.5736868E+00  0.2424188E+05 -0.2692857E+01  0.7230366E+06  0.2556967E+01
  0.1659524E+01  0.2291333E+06 -0.5475104E+00  0.2230434E+05 -0.2693539E+01  0.6543126E+06  0.2581835E+01
  0.1690476E+01  0.2087611E+06 -0.5225562E+00  0.2049346E+05 -0.2694284E+01  0.5859391E+06  0.2605371E+01
  0.1721429E+01  0.1884272E+06 -0.4992743E+00  0.1879953E+05 -0.2695910E+01  0.5190289E+06  0.2626814E+01
  0.1752381E+01  0.1683802E+06 -0.4772329E+00  0.1714234E+05 -0.2699450E+01  0.4551561E+06  0.2646975E+01
  0.1783333E+01  0.1488515E+06 -0.4557834E+00  0.1553022E+05 -0.2704957E+01  0.3955702E+06  0.2666590E+01
  0.1814286E+01  0.1297358E+06 -0.4360304E+00  0.1406360E+05 -0.2710748E+01  0.3384933E+06  0.2683816E+01
  0.1845238E+01  0.1110583E+06 -0.4175845E+00  0.1276880E+05 -0.2715534E+01  0.2840152E+06  0.2699118E+01
  0.1876190E+01  0.9304412E+05 -0.3998179E+00  0.1154592E+05 -0.2722167E+01  0.2334899E+06  0.2713208E+01
  0.1907143E+01  0.7571177E+05 -0.3823721E+00  0.1037607E+05 -0.2731503E+01  0.1867709E+06  0.2726363E+01
  0.1938095E+01  0.5880682E+05 -0.3640330E+00  0.9310367E+04 -0.2741695E+01  0.1424908E+06  0.2738994E+01
  0.1969048E+01  0.4257064E+05 -0.3443873E+00  0.8314326E+04 -0.2754405E+01  0.1013831E+06  0.2749766E+01
  0.2000000E+01  0.2697815E+05 -0.3203460E+00  0.7425153E+04 -0.2770169E+01  0.6309265E+05  0.2756134E+01
