VARIABLES="w (rad/s)"
"abs(F   1   1)" "angle(F   1   1)"
"abs(F   1   2)" "angle(F   1   2)"
"abs(F   1   3)" "angle(F   1   3)"
Zone t="Diffraction force - beta =   0.000 deg",I=    64,F=POINT
  0.5000000E-01  0.2279671E+04 -0.1570794E+01  0.3369467E+03 -0.3098860E+01  0.3704005E+04  0.1570799E+01
  0.8095238E-01  0.3731843E+04 -0.1570789E+01  0.8713755E+03 -0.3097308E+01  0.6056112E+04  0.1570802E+01
  0.1119048E+00  0.5207428E+04 -0.1570782E+01  0.1655364E+04 -0.3095565E+01  0.8460163E+04  0.1570809E+01
  0.1428571E+00  0.6760322E+04 -0.1570771E+01  0.2685130E+04 -0.3093291E+01  0.1096816E+05  0.1570818E+01
  0.1738095E+00  0.8358664E+04 -0.1570754E+01  0.3963839E+04 -0.3090460E+01  0.1357173E+05  0.1570832E+01
  0.2047619E+00  0.1006796E+05 -0.1570731E+01  0.5500086E+04 -0.3086964E+01  0.1633890E+05  0.1570852E+01
  0.2357143E+00  0.1188524E+05 -0.1570696E+01  0.7272372E+04 -0.3082377E+01  0.1928858E+05  0.1570881E+01
  0.2666667E+00  0.1383151E+05 -0.1570646E+01  0.9311642E+04 -0.3076983E+01  0.2246881E+05  0.1570924E+01
  0.2976190E+00  0.1598439E+05 -0.1570571E+01  0.1158756E+05 -0.3070041E+01  0.2595975E+05  0.1570987E+01
  0.3285715E+00  0.1834354E+05 -0.1570460E+01  0.1413073E+05 -0.3061923E+01  0.2977627E+05  0.1571081E+01
  0.3595238E+00  0.2090844E+05 -0.1570293E+01  0.1688060E+05 -0.3051847E+01  0.3397817E+05  0.1571223E+01
  0.3904762E+00  0.2382527E+05 -0.1570045E+01  0.1991115E+05 -0.3040276E+01  0.3869946E+05  0.1571434E+01
  0.4214286E+00  0.2707841E+05 -0.1569682E+01  0.2304493E+05 -0.3026921E+01  0.4396150E+05  0.1571743E+01
  0.4523810E+00  0.3060821E+05 -0.1569147E+01  0.2645328E+05 -0.3011937E+01  0.4975437E+05  0.1572198E+01
  0.4833333E+00  0.3455107E+05 -0.1568409E+01  0.2987202E+05 -0.2996442E+01  0.5618814E+05  0.1572827E+01
  0.5142857E+00  0.3892484E+05 -0.1567386E+01  0.3343699E+05 -0.2979882E+01  0.6327062E+05  0.1573700E+01
  0.5452381E+00  0.4362914E+05 -0.1566023E+01  0.3708483E+05 -0.2963627E+01  0.7082656E+05  0.1574868E+01
  0.5761905E+00  0.4856630E+05 -0.1564245E+01  0.4068570E+05 -0.2947354E+01  0.7888070E+05  0.1576390E+01
  0.6071429E+00  0.5384851E+05 -0.1561951E+01  0.4442286E+05 -0.2931271E+01  0.8756057E+05  0.1578352E+01
  0.6380953E+00  0.5969644E+05 -0.1559118E+01  0.4806628E+05 -0.2915938E+01  0.9690920E+05  0.1580793E+01
  0.6690477E+00  0.6572654E+05 -0.1555589E+01  0.5165599E+05 -0.2900658E+01  0.1065670E+06  0.1583839E+01
  0.7000000E+00  0.7200505E+05 -0.1551244E+01  0.5531803E+05 -0.2886075E+01  0.1168034E+06  0.1587584E+01
  0.7309524E+00  0.7863026E+05 -0.1546020E+01  0.5882690E+05 -0.2871808E+01  0.1274440E+06  0.1592106E+01
  0.7619048E+00  0.8548680E+05 -0.1539757E+01  0.6220405E+05 -0.2857519E+01  0.1385286E+06  0.1597529E+01
  0.7928572E+00  0.9290225E+05 -0.1532393E+01  0.6556106E+05 -0.2844035E+01  0.1504235E+06  0.1603930E+01
  0.8238096E+00  0.1005574E+06 -0.1523730E+01  0.6889884E+05 -0.2831717E+01  0.1625233E+06  0.1611500E+01
  0.8547620E+00  0.1085601E+06 -0.1513678E+01  0.7183508E+05 -0.2818208E+01  0.1752178E+06  0.1620300E+01
  0.8857143E+00  0.1166137E+06 -0.1502016E+01  0.7467071E+05 -0.2805461E+01  0.1879912E+06  0.1630522E+01
  0.9166667E+00  0.1249449E+06 -0.1488694E+01  0.7748297E+05 -0.2793953E+01  0.2014437E+06  0.1642187E+01
  0.9476191E+00  0.1333844E+06 -0.1473558E+01  0.8022345E+05 -0.2783658E+01  0.2147818E+06  0.1655500E+01
  0.9785714E+00  0.1423842E+06 -0.1456715E+01  0.8243009E+05 -0.2771666E+01  0.2288503E+06  0.1670372E+01
  0.1009524E+01  0.1514998E+06 -0.1437885E+01  0.8450695E+05 -0.2760493E+01  0.2430000E+06  0.1687050E+01
  0.1040476E+01  0.1605545E+06 -0.1416881E+01  0.8644623E+05 -0.2750172E+01  0.2570477E+06  0.1705697E+01
  0.1071429E+01  0.1695912E+06 -0.1393703E+01  0.8828389E+05 -0.2740981E+01  0.2711981E+06  0.1726267E+01
  0.1102381E+01  0.1783881E+06 -0.1368255E+01  0.8991644E+05 -0.2732539E+01  0.2847182E+06  0.1748919E+01
  0.1133333E+01  0.1870712E+06 -0.1340689E+01  0.9105247E+05 -0.2722688E+01  0.2981742E+06  0.1773445E+01
  0.1164286E+01  0.1951506E+06 -0.1310838E+01  0.9204690E+05 -0.2713638E+01  0.3106366E+06  0.1799987E+01
  0.1195238E+01  0.2026330E+06 -0.1278832E+01  0.9288610E+05 -0.2705200E+01  0.3220451E+06  0.1828430E+01
  0.1226190E+01  0.2098090E+06 -0.1245167E+01  0.9359925E+05 -0.2697691E+01  0.3331876E+06  0.1858240E+01
  0.1257143E+01  0.2160243E+06 -0.1209587E+01  0.9417898E+05 -0.2691175E+01  0.3422802E+06  0.1889791E+01
  0.1288095E+01  0.2218312E+06 -0.1172815E+01  0.9425726E+05 -0.2683970E+01  0.3506002E+06  0.1922491E+01
  0.1319048E+01  0.2263750E+06 -0.1134359E+01  0.9408822E+05 -0.2676429E+01  0.3572467E+06  0.1956462E+01
  0.1350000E+01  0.2295794E+06 -0.1094706E+01  0.9376469E+05 -0.2669564E+01  0.3616011E+06  0.1991358E+01
  0.1380952E+01  0.2315215E+06 -0.1054110E+01  0.9331728E+05 -0.2663251E+01  0.3640486E+06  0.2026870E+01
  0.1411905E+01  0.2320302E+06 -0.1012726E+01  0.9273380E+05 -0.2657348E+01  0.3649055E+06  0.2062482E+01
  0.1442857E+01  0.2313626E+06 -0.9718695E+00  0.9201888E+05 -0.2652592E+01  0.3631193E+06  0.2097615E+01
  0.1473810E+01  0.2293932E+06 -0.9310652E+00  0.9101758E+05 -0.2647824E+01  0.3592224E+06  0.2132417E+01
  0.1504762E+01  0.2262786E+06 -0.8908466E+00  0.8964698E+05 -0.2642104E+01  0.3537632E+06  0.2166214E+01
  0.1535714E+01  0.2216968E+06 -0.8509895E+00  0.8819600E+05 -0.2636741E+01  0.3463036E+06  0.2199070E+01
  0.1566667E+01  0.2157304E+06 -0.8119980E+00  0.8661455E+05 -0.2631953E+01  0.3364515E+06  0.2230568E+01
  0.1597619E+01  0.2088120E+06 -0.7744228E+00  0.8490634E+05 -0.2627478E+01  0.3253950E+06  0.2260043E+01
  0.1628572E+01  0.2009573E+06 -0.7379864E+00  0.8312127E+05 -0.2623432E+01  0.3132764E+06  0.2287677E+01
  0.1659524E+01  0.1919660E+06 -0.7026809E+00  0.8125918E+05 -0.2619861E+01  0.2992106E+06  0.2313432E+01
  0.1690476E+01  0.1822347E+06 -0.6688773E+00  0.7926895E+05 -0.2616665E+01  0.2840305E+06  0.2336782E+01
  0.1721429E+01  0.1719457E+06 -0.6369722E+00  0.7692066E+05 -0.2612873E+01  0.2679777E+06  0.2357132E+01
  0.1752381E+01  0.1610944E+06 -0.6064697E+00  0.7451567E+05 -0.2609447E+01  0.2514803E+06  0.2374736E+01
  0.1783333E+01  0.1496535E+06 -0.5771925E+00  0.7206574E+05 -0.2606388E+01  0.2342011E+06  0.2389463E+01
  0.1814286E+01  0.1376257E+06 -0.5488474E+00  0.6954967E+05 -0.2603467E+01  0.2159805E+06  0.2401118E+01
  0.1845238E+01  0.1253813E+06 -0.5218989E+00  0.6696952E+05 -0.2600911E+01  0.1978562E+06  0.2408862E+01
  0.1876190E+01  0.1129781E+06 -0.4963279E+00  0.6435982E+05 -0.2599330E+01  0.1798767E+06  0.2411998E+01
  0.1907143E+01  0.1002988E+06 -0.4718139E+00  0.6173766E+05 -0.2598594E+01  0.1615445E+06  0.2409306E+01
  0.1938095E+01  0.8751297E+05 -0.4477697E+00  0.5908607E+05 -0.2598382E+01  0.1432943E+06  0.2399835E+01
  0.1969048E+01  0.7470648E+05 -0.4244532E+00  0.5632426E+05 -0.2598783E+01  0.1252083E+06  0.2380935E+01
  0.2000000E+01  0.6194575E+05 -0.4024339E+00  0.5353755E+05 -0.2599536E+01  0.1075657E+06  0.2348428E+01
