VARIABLES="w (rad/s)"
"abs(F   1   1)" "angle(F   1   1)"
"abs(F   1   2)" "angle(F   1   2)"
"abs(F   1   3)" "angle(F   1   3)"
Zone t="Diffraction force - beta =   0.000 deg",I=    64,F=POINT
  0.5000000E-01  0.4600310E+04 -0.1570791E+01  0.3279751E+03 -0.3097149E+01  0.1601298E+05  0.1570801E+01
  0.8095238E-01  0.7515510E+04 -0.1570783E+01  0.8490249E+03 -0.3095706E+01  0.2614678E+05  0.1570810E+01
  0.1119048E+00  0.1048945E+05 -0.1570768E+01  0.1610487E+04 -0.3094023E+01  0.3648476E+05  0.1570824E+01
  0.1428571E+00  0.1356956E+05 -0.1570747E+01  0.2607179E+04 -0.3091832E+01  0.4713771E+05  0.1570845E+01
  0.1738095E+00  0.1677194E+05 -0.1570716E+01  0.3834686E+04 -0.3089089E+01  0.5823702E+05  0.1570876E+01
  0.2047619E+00  0.2016493E+05 -0.1570672E+01  0.5300800E+04 -0.3085718E+01  0.6989017E+05  0.1570920E+01
  0.2357143E+00  0.2372236E+05 -0.1570607E+01  0.6999283E+04 -0.3081501E+01  0.8217816E+05  0.1570984E+01
  0.2666667E+00  0.2759446E+05 -0.1570513E+01  0.8910124E+04 -0.3076368E+01  0.9541402E+05  0.1571077E+01
  0.2976190E+00  0.3173544E+05 -0.1570375E+01  0.1105737E+05 -0.3070014E+01  0.1095412E+06  0.1571214E+01
  0.3285715E+00  0.3631400E+05 -0.1570171E+01  0.1338096E+05 -0.3062362E+01  0.1251897E+06  0.1571416E+01
  0.3595238E+00  0.4128741E+05 -0.1569867E+01  0.1591008E+05 -0.3053220E+01  0.1420737E+06  0.1571717E+01
  0.3904762E+00  0.4686384E+05 -0.1569418E+01  0.1858203E+05 -0.3042408E+01  0.1608321E+06  0.1572162E+01
  0.4214286E+00  0.5296719E+05 -0.1568767E+01  0.2136064E+05 -0.3030535E+01  0.1814024E+06  0.1572807E+01
  0.4523810E+00  0.5974907E+05 -0.1567822E+01  0.2424716E+05 -0.3016677E+01  0.2041550E+06  0.1573744E+01
  0.4833333E+00  0.6712459E+05 -0.1566528E+01  0.2710263E+05 -0.3003000E+01  0.2286431E+06  0.1575027E+01
  0.5142857E+00  0.7514820E+05 -0.1564749E+01  0.3006193E+05 -0.2988678E+01  0.2550990E+06  0.1576792E+01
  0.5452381E+00  0.8389742E+05 -0.1562418E+01  0.3281922E+05 -0.2973790E+01  0.2840482E+06  0.1579101E+01
  0.5761905E+00  0.9297649E+05 -0.1559418E+01  0.3559200E+05 -0.2960032E+01  0.3141146E+06  0.1582067E+01
  0.6071429E+00  0.1027961E+06 -0.1555613E+01  0.3827914E+05 -0.2945847E+01  0.3456289E+06  0.1585847E+01
  0.6380953E+00  0.1130731E+06 -0.1550940E+01  0.4077407E+05 -0.2932588E+01  0.3786940E+06  0.1590480E+01
  0.6690477E+00  0.1237011E+06 -0.1545219E+01  0.4323945E+05 -0.2920105E+01  0.4127722E+06  0.1596148E+01
  0.7000000E+00  0.1348485E+06 -0.1538310E+01  0.4553382E+05 -0.2907598E+01  0.4480102E+06  0.1603001E+01
  0.7309524E+00  0.1464374E+06 -0.1530129E+01  0.4756508E+05 -0.2895255E+01  0.4848098E+06  0.1611091E+01
  0.7619048E+00  0.1582666E+06 -0.1520488E+01  0.4950279E+05 -0.2883673E+01  0.5213455E+06  0.1620652E+01
  0.7928572E+00  0.1705103E+06 -0.1509266E+01  0.5139480E+05 -0.2873217E+01  0.5584188E+06  0.1631802E+01
  0.8238096E+00  0.1833188E+06 -0.1496369E+01  0.5278811E+05 -0.2861586E+01  0.5972555E+06  0.1644592E+01
  0.8547620E+00  0.1959285E+06 -0.1481545E+01  0.5406088E+05 -0.2850765E+01  0.6349166E+06  0.1659291E+01
  0.8857143E+00  0.2087091E+06 -0.1464729E+01  0.5520177E+05 -0.2840453E+01  0.6731822E+06  0.1675918E+01
  0.9166667E+00  0.2214903E+06 -0.1445898E+01  0.5630362E+05 -0.2831585E+01  0.7099997E+06  0.1694590E+01
  0.9476191E+00  0.2347298E+06 -0.1425130E+01  0.5680724E+05 -0.2821402E+01  0.7477121E+06  0.1715173E+01
  0.9785714E+00  0.2474335E+06 -0.1402098E+01  0.5718203E+05 -0.2811797E+01  0.7827788E+06  0.1738030E+01
  0.1009524E+01  0.2596434E+06 -0.1376780E+01  0.5740118E+05 -0.2802604E+01  0.8156032E+06  0.1763159E+01
  0.1040476E+01  0.2714197E+06 -0.1349241E+01  0.5752433E+05 -0.2794148E+01  0.8465142E+06  0.1790474E+01
  0.1071429E+01  0.2826855E+06 -0.1319598E+01  0.5739518E+05 -0.2786245E+01  0.8747569E+06  0.1819910E+01
  0.1102381E+01  0.2932805E+06 -0.1287830E+01  0.5685455E+05 -0.2777784E+01  0.9014373E+06  0.1851310E+01
  0.1133333E+01  0.3022819E+06 -0.1253906E+01  0.5620412E+05 -0.2769745E+01  0.9224259E+06  0.1884817E+01
  0.1164286E+01  0.3100545E+06 -0.1218393E+01  0.5541720E+05 -0.2761948E+01  0.9384004E+06  0.1919964E+01
  0.1195238E+01  0.3165677E+06 -0.1181393E+01  0.5454631E+05 -0.2754563E+01  0.9501263E+06  0.1956558E+01
  0.1226190E+01  0.3215674E+06 -0.1143258E+01  0.5360388E+05 -0.2748076E+01  0.9558174E+06  0.1994395E+01
  0.1257143E+01  0.3252204E+06 -0.1103926E+01  0.5219182E+05 -0.2741484E+01  0.9584611E+06  0.2033167E+01
  0.1288095E+01  0.3268496E+06 -0.1063861E+01  0.5073568E+05 -0.2735368E+01  0.9548711E+06  0.2072669E+01
  0.1319048E+01  0.3261372E+06 -0.1023191E+01  0.4920678E+05 -0.2729339E+01  0.9433614E+06  0.2112772E+01
  0.1350000E+01  0.3238735E+06 -0.9826052E+00  0.4758165E+05 -0.2723431E+01  0.9275058E+06  0.2152804E+01
  0.1380952E+01  0.3198826E+06 -0.9422857E+00  0.4595016E+05 -0.2718016E+01  0.9065875E+06  0.2192536E+01
  0.1411905E+01  0.3130936E+06 -0.9021596E+00  0.4432655E+05 -0.2713141E+01  0.8783769E+06  0.2231608E+01
  0.1442857E+01  0.3061376E+06 -0.8631355E+00  0.4240661E+05 -0.2709594E+01  0.8497247E+06  0.2269773E+01
  0.1473810E+01  0.2974043E+06 -0.8247204E+00  0.4045968E+05 -0.2705852E+01  0.8168846E+06  0.2307261E+01
  0.1504762E+01  0.2871788E+06 -0.7877254E+00  0.3853686E+05 -0.2702428E+01  0.7797709E+06  0.2343302E+01
  0.1535714E+01  0.2755971E+06 -0.7520512E+00  0.3660907E+05 -0.2699311E+01  0.7388178E+06  0.2378108E+01
  0.1566667E+01  0.2631973E+06 -0.7174309E+00  0.3467341E+05 -0.2696604E+01  0.6972963E+06  0.2411750E+01
  0.1597619E+01  0.2499107E+06 -0.6844184E+00  0.3280624E+05 -0.2694142E+01  0.6537269E+06  0.2443613E+01
  0.1628572E+01  0.2360727E+06 -0.6533458E+00  0.3102082E+05 -0.2691953E+01  0.6091576E+06  0.2473439E+01
  0.1659524E+01  0.2220262E+06 -0.6238406E+00  0.2912883E+05 -0.2692199E+01  0.5656562E+06  0.2501386E+01
  0.1690476E+01  0.2075857E+06 -0.5956388E+00  0.2722798E+05 -0.2692757E+01  0.5224548E+06  0.2528007E+01
  0.1721429E+01  0.1926580E+06 -0.5687909E+00  0.2541389E+05 -0.2693301E+01  0.4786749E+06  0.2553151E+01
  0.1752381E+01  0.1774111E+06 -0.5436010E+00  0.2370128E+05 -0.2694053E+01  0.4342618E+06  0.2576418E+01
  0.1783333E+01  0.1622397E+06 -0.5196694E+00  0.2201775E+05 -0.2696080E+01  0.3912652E+06  0.2598369E+01
  0.1814286E+01  0.1472107E+06 -0.4965623E+00  0.2039979E+05 -0.2698857E+01  0.3501029E+06  0.2619375E+01
  0.1845238E+01  0.1322690E+06 -0.4750095E+00  0.1889100E+05 -0.2701758E+01  0.3098042E+06  0.2638187E+01
  0.1876190E+01  0.1176102E+06 -0.4548807E+00  0.1746977E+05 -0.2705121E+01  0.2711779E+06  0.2655092E+01
  0.1907143E+01  0.1033531E+06 -0.4356797E+00  0.1607717E+05 -0.2710932E+01  0.2348718E+06  0.2670511E+01
  0.1938095E+01  0.8946987E+05 -0.4170863E+00  0.1469289E+05 -0.2719007E+01  0.2007515E+06  0.2684670E+01
  0.1969048E+01  0.7573019E+05 -0.3986138E+00  0.1341068E+05 -0.2727563E+01  0.1676043E+06  0.2697823E+01
  0.2000000E+01  0.6240368E+05 -0.3805866E+00  0.1219538E+05 -0.2737938E+01  0.1362734E+06  0.2708812E+01
