VARIABLES="w (rad/s)"
"abs(F   1   1)" "angle(F   1   1)"
"abs(F   1   2)" "angle(F   1   2)"
"abs(F   1   3)" "angle(F   1   3)"
Zone t="Diffraction force - beta =   0.000 deg",I=    64,F=POINT
  0.5000000E-01  0.1298423E+04 -0.1570796E+01  0.2727007E+06 -0.1873834E-04  0.1772122E+02 -0.1570631E+01
  0.8095238E-01  0.2116507E+04 -0.1570807E+01  0.2722885E+06 -0.5042316E-04  0.2885163E+02 -0.1570658E+01
  0.1119048E+00  0.2956138E+04 -0.1570793E+01  0.2716827E+06 -0.1001660E-03  0.4011402E+02 -0.1570723E+01
  0.1428571E+00  0.3820467E+04 -0.1570799E+01  0.2708832E+06 -0.1718331E-03  0.5214019E+02 -0.1570733E+01
  0.1738095E+00  0.4730109E+04 -0.1570792E+01  0.2698883E+06 -0.2712807E-03  0.6478960E+02 -0.1570763E+01
  0.2047619E+00  0.5681458E+04 -0.1570791E+01  0.2686960E+06 -0.4069162E-03  0.7839690E+02 -0.1570747E+01
  0.2357143E+00  0.6698543E+04 -0.1570788E+01  0.2673041E+06 -0.5912667E-03  0.9269496E+02 -0.1570755E+01
  0.2666667E+00  0.7796122E+04 -0.1570778E+01  0.2657114E+06 -0.8396572E-03  0.1088278E+03 -0.1570760E+01
  0.2976190E+00  0.8981119E+04 -0.1570772E+01  0.2639149E+06 -0.1177793E-02  0.1263957E+03 -0.1570754E+01
  0.3285715E+00  0.1027737E+05 -0.1570759E+01  0.2619132E+06 -0.1632452E-02  0.1454231E+03 -0.1570736E+01
  0.3595238E+00  0.1171799E+05 -0.1570741E+01  0.2597093E+06 -0.2245406E-02  0.1674667E+03 -0.1570725E+01
  0.3904762E+00  0.1330121E+05 -0.1570714E+01  0.2573023E+06 -0.3064328E-02  0.1921800E+03 -0.1570703E+01
  0.4214286E+00  0.1504808E+05 -0.1570676E+01  0.2547072E+06 -0.4120406E-02  0.2197845E+03 -0.1570666E+01
  0.4523810E+00  0.1698863E+05 -0.1570615E+01  0.2519247E+06 -0.5495483E-02  0.2510502E+03 -0.1570602E+01
  0.4833333E+00  0.1912241E+05 -0.1570533E+01  0.2489776E+06 -0.7157458E-02  0.2878262E+03 -0.1570523E+01
  0.5142857E+00  0.2141077E+05 -0.1570416E+01  0.2458727E+06 -0.9201210E-02  0.3244051E+03 -0.1570409E+01
  0.5452381E+00  0.2385800E+05 -0.1570263E+01  0.2426183E+06 -0.1160233E-01  0.3661328E+03 -0.1570256E+01
  0.5761905E+00  0.2649779E+05 -0.1570062E+01  0.2392259E+06 -0.1437083E-01  0.4132187E+03 -0.1570054E+01
  0.6071429E+00  0.2928600E+05 -0.1569797E+01  0.2357170E+06 -0.1758837E-01  0.4642529E+03 -0.1569791E+01
  0.6380953E+00  0.3218632E+05 -0.1569465E+01  0.2320740E+06 -0.2118312E-01  0.5183059E+03 -0.1569459E+01
  0.6690477E+00  0.3518243E+05 -0.1569052E+01  0.2283203E+06 -0.2523842E-01  0.5725040E+03 -0.1569050E+01
  0.7000000E+00  0.3832399E+05 -0.1568539E+01  0.2244783E+06 -0.2980547E-01  0.6332415E+03 -0.1568537E+01
  0.7309524E+00  0.4160366E+05 -0.1567918E+01  0.2205377E+06 -0.3485274E-01  0.7010191E+03 -0.1567915E+01
  0.7619048E+00  0.4500076E+05 -0.1567166E+01  0.2165185E+06 -0.4043080E-01  0.7732225E+03 -0.1567163E+01
  0.7928572E+00  0.4847443E+05 -0.1566265E+01  0.2124379E+06 -0.4656916E-01  0.8461962E+03 -0.1566263E+01
  0.8238096E+00  0.5199305E+05 -0.1565197E+01  0.2083040E+06 -0.5328500E-01  0.9203711E+03 -0.1565193E+01
  0.8547620E+00  0.5561738E+05 -0.1563942E+01  0.2041121E+06 -0.6059072E-01  0.1003113E+04 -0.1563939E+01
  0.8857143E+00  0.5936667E+05 -0.1562483E+01  0.1998852E+06 -0.6850472E-01  0.1090878E+04 -0.1562484E+01
  0.9166667E+00  0.6321061E+05 -0.1560796E+01  0.1956367E+06 -0.7704183E-01  0.1182977E+04 -0.1560800E+01
  0.9476191E+00  0.6711869E+05 -0.1558860E+01  0.1913875E+06 -0.8621703E-01  0.1282445E+04 -0.1558865E+01
  0.9785714E+00  0.7109088E+05 -0.1556652E+01  0.1871266E+06 -0.9603210E-01  0.1388773E+04 -0.1556657E+01
  0.1009524E+01  0.7508448E+05 -0.1554152E+01  0.1828651E+06 -0.1064957E+00  0.1493085E+04 -0.1554148E+01
  0.1040476E+01  0.7907827E+05 -0.1551337E+01  0.1786129E+06 -0.1176213E+00  0.1597957E+04 -0.1551327E+01
  0.1071429E+01  0.8311984E+05 -0.1548203E+01  0.1743794E+06 -0.1294225E+00  0.1710885E+04 -0.1548199E+01
  0.1102381E+01  0.8720712E+05 -0.1544739E+01  0.1701737E+06 -0.1419057E+00  0.1833838E+04 -0.1544761E+01
  0.1133333E+01  0.9134177E+05 -0.1540934E+01  0.1659998E+06 -0.1550670E+00  0.1964562E+04 -0.1540970E+01
  0.1164286E+01  0.9547555E+05 -0.1536777E+01  0.1618619E+06 -0.1689080E+00  0.2096901E+04 -0.1536817E+01
  0.1195238E+01  0.9958316E+05 -0.1532261E+01  0.1577736E+06 -0.1834309E+00  0.2233016E+04 -0.1532310E+01
  0.1226190E+01  0.1036425E+06 -0.1527383E+01  0.1537296E+06 -0.1986340E+00  0.2372939E+04 -0.1527426E+01
  0.1257143E+01  0.1075661E+06 -0.1522123E+01  0.1497480E+06 -0.2146959E+00  0.2512865E+04 -0.1522134E+01
  0.1288095E+01  0.1114481E+06 -0.1516562E+01  0.1458131E+06 -0.2311080E+00  0.2657552E+04 -0.1516511E+01
  0.1319048E+01  0.1151857E+06 -0.1510666E+01  0.1419267E+06 -0.2483723E+00  0.2804825E+04 -0.1510591E+01
  0.1350000E+01  0.1188271E+06 -0.1504527E+01  0.1380983E+06 -0.2663330E+00  0.2952635E+04 -0.1504452E+01
  0.1380952E+01  0.1223430E+06 -0.1498181E+01  0.1343308E+06 -0.2849660E+00  0.3102135E+04 -0.1498176E+01
  0.1411905E+01  0.1254505E+06 -0.1492036E+01  0.1306817E+06 -0.3040048E+00  0.3231277E+04 -0.1492078E+01
  0.1442857E+01  0.1286087E+06 -0.1485448E+01  0.1270695E+06 -0.3240389E+00  0.3384697E+04 -0.1485443E+01
  0.1473810E+01  0.1315533E+06 -0.1478809E+01  0.1235233E+06 -0.3447533E+00  0.3539069E+04 -0.1478763E+01
  0.1504762E+01  0.1342723E+06 -0.1472193E+01  0.1200412E+06 -0.3661506E+00  0.3694110E+04 -0.1472093E+01
  0.1535714E+01  0.1367468E+06 -0.1465717E+01  0.1166232E+06 -0.3882282E+00  0.3846980E+04 -0.1465646E+01
  0.1566667E+01  0.1389654E+06 -0.1459492E+01  0.1132813E+06 -0.4109930E+00  0.3993472E+04 -0.1459430E+01
  0.1597619E+01  0.1408945E+06 -0.1453604E+01  0.1100138E+06 -0.4344507E+00  0.4131345E+04 -0.1453635E+01
  0.1628572E+01  0.1425422E+06 -0.1448154E+01  0.1068203E+06 -0.4585932E+00  0.4266312E+04 -0.1448194E+01
  0.1659524E+01  0.1438881E+06 -0.1443230E+01  0.1037115E+06 -0.4834371E+00  0.4398732E+04 -0.1443179E+01
  0.1690476E+01  0.1449307E+06 -0.1438934E+01  0.1006697E+06 -0.5089628E+00  0.4527737E+04 -0.1438810E+01
  0.1721429E+01  0.1456865E+06 -0.1435416E+01  0.9769693E+05 -0.5351741E+00  0.4653145E+04 -0.1435315E+01
  0.1752381E+01  0.1461531E+06 -0.1432776E+01  0.9478805E+05 -0.5620632E+00  0.4772059E+04 -0.1432633E+01
  0.1783333E+01  0.1463346E+06 -0.1431100E+01  0.9194955E+05 -0.5896282E+00  0.4880575E+04 -0.1431030E+01
  0.1814286E+01  0.1462335E+06 -0.1430466E+01  0.8918479E+05 -0.6178648E+00  0.4980852E+04 -0.1430424E+01
  0.1845238E+01  0.1458560E+06 -0.1430955E+01  0.8649097E+05 -0.6468160E+00  0.5069955E+04 -0.1430898E+01
  0.1876190E+01  0.1452285E+06 -0.1432661E+01  0.8386643E+05 -0.6764597E+00  0.5154024E+04 -0.1432633E+01
  0.1907143E+01  0.1443695E+06 -0.1435657E+01  0.8131741E+05 -0.7067869E+00  0.5232739E+04 -0.1435645E+01
  0.1938095E+01  0.1432884E+06 -0.1439988E+01  0.7883502E+05 -0.7377948E+00  0.5305994E+04 -0.1439995E+01
  0.1969048E+01  0.1420073E+06 -0.1445703E+01  0.7641288E+05 -0.7695225E+00  0.5372181E+04 -0.1445695E+01
  0.2000000E+01  0.1405449E+06 -0.1452847E+01  0.7405147E+05 -0.8019302E+00  0.5431265E+04 -0.1452720E+01
