VARIABLES="w (rad/s)"
"A   1   1" "B   1   1"
"A   1   2" "B   1   2"
"A   1   3" "B   1   3"
Zone t="Motion of body    1 in DoF   1",I=    64,F=POINT
  0.5000000E-01  0.3046355E+05  0.1318292E-02 -0.5846024E-02 -0.9003523E-05  0.4450767E+03  0.2445930E-04
  0.8095238E-01  0.3051223E+05  0.5748549E-02 -0.3451740E-02 -0.4882284E-05  0.4433274E+03  0.1077023E-03
  0.1119048E+00  0.3060686E+05  0.1618281E-01  0.8522196E-04  0.1053999E-04  0.4399670E+03  0.2989163E-03
  0.1428571E+00  0.3057366E+05  0.3640878E-01 -0.3878593E-02 -0.6428832E-05  0.4401008E+03  0.6754861E-03
  0.1738095E+00  0.3071124E+05  0.7262965E-01  0.3967024E-02  0.3001909E-04  0.4444981E+03  0.1354123E-02
  0.2047619E+00  0.3067993E+05  0.1340493E+00  0.3521054E-02  0.5853781E-04  0.4451838E+03  0.2504127E-02
  0.2357143E+00  0.3076397E+05  0.2364265E+00 -0.1278501E-02 -0.4556344E-04  0.4446707E+03  0.4429841E-02
  0.2666667E+00  0.3085765E+05  0.4041927E+00  0.3926754E-02  0.6565149E-04  0.4506749E+03  0.7636623E-02
  0.2976190E+00  0.3088272E+05  0.6787134E+00 -0.5915222E-02 -0.1025642E-03  0.4516672E+03  0.1287301E-01
  0.3285715E+00  0.3094235E+05  0.1125065E+01  0.3976407E-02  0.1208268E-03  0.4523339E+03  0.2144256E-01
  0.3595238E+00  0.3108957E+05  0.1852620E+01 -0.5045252E-02 -0.1011570E-03  0.4580464E+03  0.3558111E-01
  0.3904762E+00  0.3114233E+05  0.3026077E+01 -0.7297701E-02 -0.1409855E-03  0.4620873E+03  0.5856217E-01
  0.4214286E+00  0.3121572E+05  0.4878525E+01 -0.2941842E-02 -0.7704832E-04  0.4652910E+03  0.9517026E-01
  0.4523810E+00  0.3137857E+05  0.7804051E+01 -0.7968701E-02 -0.4953500E-03  0.4734814E+03  0.1537192E+00
  0.4833333E+00  0.3157299E+05  0.1218331E+02  0.4814411E-03  0.1779944E-03  0.4864341E+03  0.2431602E+00
  0.5142857E+00  0.3163301E+05  0.1867952E+02 -0.1817279E-02  0.8120015E-04  0.4813679E+03  0.3744071E+00
  0.5452381E+00  0.3174671E+05  0.2797814E+02 -0.2735588E-02 -0.5208403E-03  0.4895324E+03  0.5674055E+00
  0.5761905E+00  0.3197631E+05  0.4097313E+02 -0.6627169E-02 -0.2946779E-03  0.4988990E+03  0.8402981E+00
  0.6071429E+00  0.3220425E+05  0.5890416E+02 -0.2921609E-02 -0.4439652E-03  0.5105610E+03  0.1223369E+01
  0.6380953E+00  0.3235993E+05  0.8275970E+02  0.4794562E-02  0.3413409E-03  0.5153481E+03  0.1736998E+01
  0.6690477E+00  0.3249674E+05  0.1142630E+03  0.5929749E-03  0.4736781E-03  0.5161002E+03  0.2418795E+01
  0.7000000E+00  0.3272694E+05  0.1555308E+03 -0.9264264E-04  0.4615784E-03  0.5264083E+03  0.3334438E+01
  0.7309524E+00  0.3302796E+05  0.2085791E+03 -0.1169534E-01 -0.2863407E-02  0.5430804E+03  0.4543126E+01
  0.7619048E+00  0.3334123E+05  0.2761023E+03 -0.9002208E-02 -0.1870394E-02  0.5571601E+03  0.6100324E+01
  0.7928572E+00  0.3360147E+05  0.3609171E+03 -0.1982268E-02  0.8641481E-03  0.5631078E+03  0.8062624E+01
  0.8238096E+00  0.3380485E+05  0.4662190E+03 -0.7436675E-02 -0.1746774E-02  0.5690571E+03  0.1054203E+02
  0.8547620E+00  0.3409433E+05  0.5962193E+03 -0.6872830E-02 -0.3296375E-02  0.5826923E+03  0.1368379E+02
  0.8857143E+00  0.3444806E+05  0.7553071E+03 -0.1955340E-02 -0.1290202E-02  0.5972735E+03  0.1758423E+02
  0.9166667E+00  0.3483375E+05  0.9482576E+03 -0.5401611E-02 -0.5812645E-03  0.6127145E+03  0.2240371E+02
  0.9476191E+00  0.3521631E+05  0.1180173E+04  0.8856232E-03 -0.3027916E-03  0.6322418E+03  0.2836037E+02
  0.9785714E+00  0.3560324E+05  0.1456909E+04  0.2915877E-02  0.2520323E-02  0.6517727E+03  0.3561579E+02
  0.1009524E+01  0.3595123E+05  0.1783942E+04 -0.3620004E-02 -0.7405281E-03  0.6628156E+03  0.4421552E+02
  0.1040476E+01  0.3627552E+05  0.2167646E+04  0.1627837E-02 -0.2632141E-03  0.6729005E+03  0.5444455E+02
  0.1071429E+01  0.3663648E+05  0.2615153E+04  0.1075236E-02  0.1105785E-02  0.6893454E+03  0.6671469E+02
  0.1102381E+01  0.3703266E+05  0.3133469E+04 -0.4567750E-02 -0.1102448E-02  0.7101935E+03  0.8129102E+02
  0.1133333E+01  0.3746131E+05  0.3730181E+04 -0.2982196E-02  0.1447678E-02  0.7340109E+03  0.9854924E+02
  0.1164286E+01  0.3788436E+05  0.4411911E+04 -0.2411450E-02 -0.8115768E-03  0.7558945E+03  0.1185676E+03
  0.1195238E+01  0.3828017E+05  0.5185551E+04 -0.1838350E-02 -0.1814842E-02  0.7762554E+03  0.1416930E+03
  0.1226190E+01  0.3864078E+05  0.6057700E+04  0.1636394E-02  0.3509521E-02  0.7962921E+03  0.1684016E+03
  0.1257143E+01  0.3890202E+05  0.7033612E+04  0.2913041E-03  0.6580353E-03  0.8115488E+03  0.1988893E+03
  0.1288095E+01  0.3918151E+05  0.8115727E+04  0.1794670E-02  0.3059387E-02  0.8296417E+03  0.2336771E+03
  0.1319048E+01  0.3939507E+05  0.9308858E+04 -0.1648445E-02 -0.5235672E-02  0.8462117E+03  0.2727208E+03
  0.1350000E+01  0.3958545E+05  0.1061255E+05 -0.7968479E-03  0.2456665E-02  0.8625109E+03  0.3162165E+03
  0.1380952E+01  0.3973202E+05  0.1202660E+05 -0.1701618E-02  0.1897812E-02  0.8766466E+03  0.3641087E+03
  0.1411905E+01  0.3964748E+05  0.1347677E+05 -0.2961183E-02 -0.4858017E-02  0.8743339E+03  0.4136089E+03
  0.1442857E+01  0.3966245E+05  0.1509462E+05 -0.2125655E-02 -0.5552292E-02  0.8880049E+03  0.4720403E+03
  0.1473810E+01  0.3960940E+05  0.1681101E+05 -0.3913546E-02 -0.5449295E-02  0.9005300E+03  0.5359268E+03
  0.1504762E+01  0.3948020E+05  0.1861587E+05  0.2494522E-02  0.9521484E-02  0.9118881E+03  0.6049543E+03
  0.1535714E+01  0.3927732E+05  0.2049294E+05  0.1808344E-02  0.2273560E-02  0.9180768E+03  0.6781535E+03
  0.1566667E+01  0.3898599E+05  0.2242618E+05 -0.2727103E-02 -0.4829407E-02  0.9206509E+03  0.7551778E+03
  0.1597619E+01  0.3861483E+05  0.2440230E+05  0.1700070E-02 -0.3040314E-02  0.9190774E+03  0.8357214E+03
  0.1628572E+01  0.3816502E+05  0.2640650E+05 -0.1976950E-02 -0.7522583E-02  0.9158390E+03  0.9209531E+03
  0.1659524E+01  0.3762386E+05  0.2842118E+05  0.1756184E-02 -0.2841949E-02  0.9106749E+03  0.1010502E+04
  0.1690476E+01  0.3701405E+05  0.3042720E+05 -0.6318428E-04 -0.3684998E-02  0.9033521E+03  0.1102556E+04
  0.1721429E+01  0.3634084E+05  0.3240320E+05 -0.1657573E-02  0.1628876E-02  0.8943052E+03  0.1197337E+04
  0.1752381E+01  0.3560695E+05  0.3433111E+05 -0.1227752E-02 -0.5348206E-02  0.8810119E+03  0.1292631E+04
  0.1783333E+01  0.3481981E+05  0.3619638E+05 -0.8641894E-03  0.3524780E-02  0.8637231E+03  0.1387763E+04
  0.1814286E+01  0.3397576E+05  0.3798454E+05 -0.2270796E-02  0.3761292E-02  0.8426732E+03  0.1483106E+04
  0.1845238E+01  0.3309356E+05  0.3968415E+05 -0.1819241E-02 -0.3398895E-02  0.8190667E+03  0.1577808E+04
  0.1876190E+01  0.3218358E+05  0.4128375E+05 -0.4391743E-03  0.7144928E-02  0.7943245E+03  0.1671950E+04
  0.1907143E+01  0.3124261E+05  0.4277355E+05 -0.4080440E-02  0.3738403E-03  0.7688388E+03  0.1765637E+04
  0.1938095E+01  0.3029274E+05  0.4414823E+05 -0.1613982E-02  0.3887177E-02  0.7411066E+03  0.1857033E+04
  0.1969048E+01  0.2933683E+05  0.4540241E+05 -0.6276953E-03 -0.3925323E-02  0.7109286E+03  0.1946396E+04
  0.2000000E+01  0.2838679E+05  0.4653366E+05 -0.2510071E-02 -0.7450104E-02  0.6806836E+03  0.2033620E+04
Zone t="Motion of body    1 in DoF   2",I=    64,F=POINT
  0.5000000E-01 -0.7920265E-02  0.1347065E-04  0.5206089E+05  0.1108238E+03 -0.3013611E-02 -0.1178682E-04
  0.8095238E-01 -0.4246936E-02 -0.4087389E-04  0.5171755E+05  0.1839002E+03 -0.2862706E-02 -0.1683831E-04
  0.1119048E+00  0.1619217E-03  0.3594160E-04  0.5147757E+05  0.2636606E+03 -0.2701536E-02 -0.2700090E-04
  0.1428571E+00  0.3337860E-04  0.2816319E-04  0.5136754E+05  0.3532157E+03 -0.3751755E-02 -0.2765656E-04
  0.1738095E+00 -0.2244139E-02 -0.1955032E-04  0.5135760E+05  0.4565739E+03 -0.3983485E-02 -0.3927946E-04
  0.2047619E+00 -0.4350086E-02  0.4547834E-04  0.5143732E+05  0.5786415E+03 -0.3763243E-02 -0.4422665E-04
  0.2357143E+00 -0.1048695E-01 -0.3802776E-04  0.5159080E+05  0.7264323E+03 -0.2937317E-02 -0.5722046E-04
  0.2666667E+00 -0.4384518E-02 -0.4816055E-04  0.5179311E+05  0.9061672E+03 -0.3461838E-02 -0.6306171E-04
  0.2976190E+00  0.1570129E-02 -0.2622604E-04  0.5204529E+05  0.1130840E+04 -0.2871094E-02 -0.8416176E-04
  0.3285715E+00  0.1683442E-02  0.1295805E-03  0.5233234E+05  0.1408423E+04 -0.3668743E-02 -0.1084805E-03
  0.3595238E+00 -0.4562479E-03 -0.9822845E-04  0.5260826E+05  0.1754830E+04 -0.2875423E-02 -0.1392365E-03
  0.3904762E+00 -0.2823341E-02  0.1311302E-04  0.5288638E+05  0.2183500E+04 -0.3409502E-02 -0.1530647E-03
  0.4214286E+00  0.5711700E-02 -0.2510548E-03  0.5307483E+05  0.2691465E+04 -0.3466848E-02 -0.2079010E-03
  0.4523810E+00  0.7403724E-02 -0.2107620E-03  0.5320409E+05  0.3305592E+04 -0.3811485E-02 -0.2746582E-03
  0.4833333E+00  0.8208176E-03  0.6427765E-03  0.5320503E+05  0.3979653E+04 -0.3235915E-02 -0.3194809E-03
  0.5142857E+00  0.3263686E-03 -0.5655289E-03  0.5308870E+05  0.4744732E+04 -0.2536774E-02 -0.3576279E-03
  0.5452381E+00 -0.1252354E-02  0.6089211E-03  0.5288670E+05  0.5563935E+04 -0.3414237E-02 -0.4806519E-03
  0.5761905E+00  0.2813733E-02 -0.1630783E-02  0.5258622E+05  0.6424268E+04 -0.4131222E-02 -0.5445480E-03
  0.6071429E+00 -0.5152085E-03 -0.6475449E-03  0.5216871E+05  0.7345281E+04 -0.3405402E-02 -0.5006790E-03
  0.6380953E+00 -0.1793477E-03  0.4415512E-03  0.5173289E+05  0.8278082E+04 -0.3288041E-02 -0.6542206E-03
  0.6690477E+00  0.8489805E-02 -0.9536743E-06  0.5122560E+05  0.9243582E+04 -0.3295572E-02 -0.7610321E-03
  0.7000000E+00  0.8719308E-04 -0.1864433E-02  0.5063400E+05  0.1024517E+05 -0.2430507E-02 -0.7820129E-03
  0.7309524E+00  0.4540359E-02  0.6055832E-03  0.5002345E+05  0.1125541E+05 -0.4310732E-02 -0.6275177E-03
  0.7619048E+00  0.1216650E-02  0.1926422E-03  0.4936431E+05  0.1227946E+05 -0.2943992E-02 -0.8964539E-03
  0.7928572E+00  0.1106606E-03  0.3318787E-03  0.4864946E+05  0.1331410E+05 -0.3031137E-02 -0.1146317E-02
  0.8238096E+00 -0.9006433E-02 -0.2246857E-02  0.4789728E+05  0.1435144E+05 -0.2333801E-02 -0.1056671E-02
  0.8547620E+00  0.4953793E-03 -0.3566742E-03  0.4713466E+05  0.1538222E+05 -0.3052608E-02 -0.1539230E-02
  0.8857143E+00 -0.1580638E-02  0.3067017E-02  0.4634059E+05  0.1640299E+05 -0.3032069E-02 -0.1337051E-02
  0.9166667E+00 -0.8281360E-02  0.8640289E-03  0.4551860E+05  0.1740781E+05 -0.3021240E-02 -0.1373291E-02
  0.9476191E+00 -0.2350927E-02  0.3681183E-03  0.4466762E+05  0.1839198E+05 -0.2391183E-02 -0.1644135E-02
  0.9785714E+00  0.5551081E-02 -0.4579544E-02  0.4381198E+05  0.1934711E+05 -0.2970452E-02 -0.1468658E-02
  0.1009524E+01 -0.4587354E-02  0.5126953E-02  0.4294740E+05  0.2027019E+05 -0.3083427E-02 -0.1087189E-02
  0.1040476E+01 -0.1253874E-02 -0.7534027E-03  0.4207685E+05  0.2115697E+05 -0.2097123E-02 -0.1747131E-02
  0.1071429E+01 -0.7462565E-02  0.6523132E-03  0.4120164E+05  0.2200549E+05 -0.2335612E-02 -0.1716614E-02
  0.1102381E+01  0.2283875E-03  0.3387451E-02  0.4033505E+05  0.2281125E+05 -0.1923991E-02 -0.2021790E-02
  0.1133333E+01 -0.1575246E-02  0.8316040E-03  0.3947773E+05  0.2356933E+05 -0.2329209E-02 -0.1819611E-02
  0.1164286E+01  0.1133644E-02 -0.6332397E-03  0.3862979E+05  0.2427933E+05 -0.1887222E-02 -0.2040863E-02
  0.1195238E+01 -0.3332009E-02  0.1638412E-02  0.3779043E+05  0.2493873E+05 -0.2566030E-02 -0.2117157E-02
  0.1226190E+01  0.4100318E-02  0.3952026E-02  0.3696287E+05  0.2554644E+05 -0.2165267E-02 -0.1903534E-02
  0.1257143E+01 -0.2973730E-02  0.5226135E-03  0.3615667E+05  0.2612071E+05 -0.1905615E-02 -0.2529144E-02
  0.1288095E+01  0.1480751E-03 -0.1132965E-02  0.3536590E+05  0.2660168E+05 -0.1966438E-02 -0.2445221E-02
  0.1319048E+01 -0.3181210E-02  0.3768921E-02  0.3460499E+05  0.2704436E+05 -0.1839317E-02 -0.2643585E-02
  0.1350000E+01  0.1757586E-02 -0.4241943E-02  0.3386686E+05  0.2743388E+05 -0.1650210E-02 -0.2502441E-02
  0.1380952E+01  0.2259616E-02 -0.1007080E-02  0.3315589E+05  0.2776665E+05 -0.1596648E-02 -0.2105713E-02
  0.1411905E+01 -0.3566388E-03  0.4051208E-02  0.3246689E+05  0.2807979E+05 -0.1707543E-02 -0.2269745E-02
  0.1442857E+01 -0.7640725E-02  0.1483917E-02  0.3179881E+05  0.2831635E+05 -0.1395953E-02 -0.2712250E-02
  0.1473810E+01 -0.5161119E-02  0.2033234E-02  0.3116231E+05  0.2850126E+05 -0.1511581E-02 -0.2948761E-02
  0.1504762E+01  0.5267904E-02  0.6093979E-02  0.3055629E+05  0.2863211E+05 -0.1450068E-02 -0.2891541E-02
  0.1535714E+01 -0.3338481E-02 -0.5008698E-02  0.2997843E+05  0.2871485E+05 -0.1232058E-02 -0.3131866E-02
  0.1566667E+01 -0.2702754E-02  0.7171631E-03  0.2942730E+05  0.2875094E+05 -0.2059937E-02 -0.2388000E-02
  0.1597619E+01 -0.1208196E-02  0.2437592E-02  0.2890286E+05  0.2874202E+05 -0.1485174E-02 -0.2357483E-02
  0.1628572E+01  0.1025953E-02  0.3242493E-04  0.2840301E+05  0.2869143E+05 -0.1124332E-02 -0.3227234E-02
  0.1659524E+01 -0.7355743E-04 -0.6332397E-03  0.2792742E+05  0.2860023E+05 -0.1296450E-02 -0.3002167E-02
  0.1690476E+01 -0.2288173E-02 -0.8945465E-03  0.2748517E+05  0.2846891E+05 -0.1281738E-02 -0.2914429E-02
  0.1721429E+01  0.7667384E-03 -0.3454208E-02  0.2707307E+05  0.2829992E+05 -0.1170052E-02 -0.3055573E-02
  0.1752381E+01 -0.1327888E-02  0.2319336E-02  0.2668893E+05  0.2809193E+05 -0.1036188E-02 -0.3173828E-02
  0.1783333E+01  0.7016191E-03  0.1140594E-02  0.2632703E+05  0.2785320E+05 -0.1214999E-02 -0.3131866E-02
  0.1814286E+01 -0.1791406E-02 -0.6193161E-02  0.2599106E+05  0.2758232E+05 -0.9251392E-03 -0.3723145E-02
  0.1845238E+01 -0.2100397E-02  0.1010895E-03  0.2567896E+05  0.2728252E+05 -0.1182507E-02 -0.2822876E-02
  0.1876190E+01 -0.1337855E-02 -0.4861832E-02  0.2538810E+05  0.2695677E+05 -0.8376843E-03 -0.3276825E-02
  0.1907143E+01 -0.5440587E-03  0.2157211E-02  0.2511606E+05  0.2660686E+05 -0.1064115E-02 -0.3326416E-02
  0.1938095E+01 -0.1086486E-02 -0.2567291E-02  0.2487115E+05  0.2623312E+05 -0.1180963E-02 -0.3299713E-02
  0.1969048E+01 -0.2390667E-02 -0.7495880E-03  0.2465045E+05  0.2584351E+05 -0.6896899E-03 -0.2824783E-02
  0.2000000E+01 -0.4573822E-02 -0.6465912E-03  0.2445182E+05  0.2543140E+05 -0.9613037E-03 -0.3536224E-02
Zone t="Motion of body    1 in DoF   3",I=    64,F=POINT
  0.5000000E-01  0.4559566E+03  0.2543965E-04 -0.2244711E-02 -0.6753403E-05  0.6787928E+03  0.6639253E-06
  0.8095238E-01  0.4541175E+03  0.1100834E-03 -0.8393736E-03 -0.7090480E-05  0.6779584E+03  0.1868211E-05
  0.1119048E+00  0.4496490E+03  0.3095246E-03 -0.2459719E-02 -0.1797880E-04  0.6801667E+03  0.6001174E-05
  0.1428571E+00  0.4498442E+03  0.7009400E-03 -0.1411915E-02 -0.1355989E-04  0.6751955E+03  0.1485606E-04
  0.1738095E+00  0.4536311E+03  0.1401074E-02 -0.1105609E-02 -0.1681247E-04  0.6738884E+03  0.2610384E-04
  0.2047619E+00  0.4553664E+03  0.2589595E-02 -0.2545312E-02 -0.3548138E-04  0.6776703E+03  0.4675877E-04
  0.2357143E+00  0.4537621E+03  0.4595884E-02 -0.2252550E-02 -0.4514037E-04  0.6751002E+03  0.9198730E-04
  0.2666667E+00  0.4600060E+03  0.7904370E-02 -0.2117157E-02 -0.4986639E-04  0.6741281E+03  0.1531943E-03
  0.2976190E+00  0.4616124E+03  0.1333521E-01 -0.4331474E-02 -0.1232821E-03  0.6765179E+03  0.2545384E-03
  0.3285715E+00  0.4614360E+03  0.2224176E-01 -0.2451150E-02 -0.9502687E-04  0.6736157E+03  0.4285438E-03
  0.3595238E+00  0.4671784E+03  0.3687786E-01 -0.3535921E-02 -0.1510896E-03  0.6747189E+03  0.6972885E-03
  0.3904762E+00  0.4719575E+03  0.6068564E-01 -0.3491320E-02 -0.1824578E-03  0.6754786E+03  0.1160805E-02
  0.4214286E+00  0.4751843E+03  0.9861609E-01 -0.1819416E-02 -0.1438060E-03  0.6752999E+03  0.1910031E-02
  0.4523810E+00  0.4837658E+03  0.1590262E+00 -0.2179798E-02 -0.2049927E-03  0.6774316E+03  0.3122591E-02
  0.4833333E+00  0.4972815E+03  0.2505461E+00  0.1351587E-03 -0.4960725E-04  0.6763472E+03  0.4980932E-02
  0.5142857E+00  0.4916667E+03  0.3878668E+00 -0.3358258E-02 -0.3794979E-03  0.6778365E+03  0.7746823E-02
  0.5452381E+00  0.5001853E+03  0.5864997E+00 -0.1175393E-02 -0.1944795E-03  0.6767803E+03  0.1188672E-01
  0.5761905E+00  0.5095095E+03  0.8678547E+00 -0.1952234E-02 -0.3546886E-03  0.6769989E+03  0.1780095E-01
  0.6071429E+00  0.5219333E+03  0.1260489E+01 -0.1974442E-02 -0.3846353E-03  0.6801513E+03  0.2615173E-01
  0.6380953E+00  0.5263145E+03  0.1791590E+01 -0.3288041E-02 -0.6796871E-03  0.6771801E+03  0.3759901E-01
  0.6690477E+00  0.5269633E+03  0.2504378E+01 -0.8595286E-03 -0.2434193E-03  0.6781035E+03  0.5305300E-01
  0.7000000E+00  0.5376758E+03  0.3448722E+01 -0.1553127E-02 -0.4795305E-03  0.6801968E+03  0.7403128E-01
  0.7309524E+00  0.5545460E+03  0.4680385E+01 -0.3054305E-02 -0.1008544E-02  0.6791843E+03  0.1020302E+00
  0.7619048E+00  0.5690983E+03  0.6276561E+01 -0.2718687E-02 -0.9876788E-03  0.6800834E+03  0.1386749E+00
  0.7928572E+00  0.5751725E+03  0.8320122E+01  0.3620525E-03  0.1299568E-04  0.6819056E+03  0.1859003E+00
  0.8238096E+00  0.5811887E+03  0.1089934E+02 -0.1963356E-02 -0.9180680E-03  0.6820377E+03  0.2464968E+00
  0.8547620E+00  0.5947387E+03  0.1412878E+02 -0.1212787E-02 -0.5855449E-03  0.6800579E+03  0.3237697E+00
  0.8857143E+00  0.6099787E+03  0.1815633E+02 -0.2645523E-02 -0.1431722E-02  0.6814935E+03  0.4222076E+00
  0.9166667E+00  0.6255873E+03  0.2312339E+02 -0.1537670E-02 -0.1101118E-02  0.6841618E+03  0.5463205E+00
  0.9476191E+00  0.6455522E+03  0.2919355E+02 -0.1754138E-02 -0.1487553E-02  0.6858415E+03  0.7020035E+00
  0.9785714E+00  0.6652094E+03  0.3658477E+02 -0.1103199E-02 -0.9135082E-03  0.6846157E+03  0.8940292E+00
  0.1009524E+01  0.6763416E+03  0.4555026E+02 -0.3334711E-02 -0.2570689E-02  0.6841414E+03  0.1129891E+01
  0.1040476E+01  0.6874508E+03  0.5629044E+02 -0.1913808E-02 -0.2102062E-02  0.6868416E+03  0.1416349E+01
  0.1071429E+01  0.7042144E+03  0.6897760E+02 -0.1042302E-02 -0.1350760E-02  0.6882911E+03  0.1757174E+01
  0.1102381E+01  0.7253434E+03  0.8389394E+02 -0.3366120E-02 -0.3002465E-02  0.6886800E+03  0.2176247E+01
  0.1133333E+01  0.7485618E+03  0.1014185E+03 -0.1096445E-02 -0.7770509E-03  0.6874907E+03  0.2672585E+01
  0.1164286E+01  0.7707499E+03  0.1219370E+03 -0.1492412E-02 -0.1523644E-02  0.6887253E+03  0.3274524E+01
  0.1195238E+01  0.7923641E+03  0.1458158E+03 -0.1146575E-02 -0.1301199E-02  0.6923041E+03  0.3987530E+01
  0.1226190E+01  0.8128924E+03  0.1733105E+03 -0.2551033E-03 -0.6478429E-03  0.6944463E+03  0.4827762E+01
  0.1257143E+01  0.8283560E+03  0.2049334E+03 -0.7191571E-03 -0.1035094E-02  0.6953032E+03  0.5813540E+01
  0.1288095E+01  0.8462592E+03  0.2408024E+03 -0.6159925E-03 -0.1409650E-02  0.6940320E+03  0.6943643E+01
  0.1319048E+01  0.8627073E+03  0.2810412E+03 -0.1435882E-02 -0.1944840E-02  0.6935717E+03  0.8242132E+01
  0.1350000E+01  0.8801174E+03  0.3262090E+03 -0.1908761E-02 -0.3292263E-02  0.6950274E+03  0.9675999E+01
  0.1380952E+01  0.8959127E+03  0.3763329E+03 -0.1022076E-03 -0.4085898E-03  0.6981253E+03  0.1139806E+02
  0.1411905E+01  0.8560898E+03  0.4141638E+03 -0.1902074E-02 -0.4195213E-02  0.6954579E+03  0.1271912E+02
  0.1442857E+01  0.8690978E+03  0.4724702E+03 -0.1072081E-02 -0.2486289E-02  0.6970710E+03  0.1480519E+02
  0.1473810E+01  0.8813578E+03  0.5361899E+03 -0.1263102E-02 -0.3006101E-02  0.6972948E+03  0.1714211E+02
  0.1504762E+01  0.8926827E+03  0.6047183E+03 -0.1129380E-02 -0.2255797E-02  0.6969847E+03  0.1954924E+02
  0.1535714E+01  0.8987758E+03  0.6783586E+03 -0.1958625E-02 -0.3576040E-02  0.6970990E+03  0.2233079E+02
  0.1566667E+01  0.9025864E+03  0.7567930E+03 -0.8376101E-03 -0.3781438E-02  0.6985582E+03  0.2528660E+02
  0.1597619E+01  0.9017302E+03  0.8392690E+03 -0.8440657E-03 -0.2229452E-02  0.7014516E+03  0.2883479E+02
  0.1628572E+01  0.8980942E+03  0.9257833E+03 -0.1393703E-02 -0.4446387E-02  0.7028272E+03  0.3248727E+02
  0.1659524E+01  0.8918557E+03  0.1015218E+04 -0.1383799E-02 -0.3058553E-02  0.7038423E+03  0.3642127E+02
  0.1690476E+01  0.8839518E+03  0.1106726E+04 -0.8811950E-03 -0.2129436E-02  0.7039874E+03  0.4037316E+02
  0.1721429E+01  0.8740859E+03  0.1200539E+04 -0.9240748E-03 -0.4582405E-02  0.7018969E+03  0.4420921E+02
  0.1752381E+01  0.8598498E+03  0.1295218E+04 -0.1676186E-03 -0.1820564E-02  0.7003354E+03  0.4804947E+02
  0.1783333E+01  0.8427422E+03  0.1391692E+04 -0.6385162E-03 -0.2037048E-02  0.7000645E+03  0.5260182E+02
  0.1814286E+01  0.8226017E+03  0.1490026E+04 -0.7054186E-03 -0.3858328E-02  0.7014197E+03  0.5759452E+02
  0.1845238E+01  0.7989609E+03  0.1586703E+04 -0.2387754E-03 -0.3142595E-02  0.7043539E+03  0.6323481E+02
  0.1876190E+01  0.7738845E+03  0.1682021E+04 -0.1103019E-02 -0.2467394E-02  0.7058870E+03  0.6902560E+02
  0.1907143E+01  0.7480253E+03  0.1774273E+04 -0.9491025E-03 -0.5052805E-02  0.7065234E+03  0.7427570E+02
  0.1938095E+01  0.7200836E+03  0.1864325E+04 -0.9841357E-03 -0.5294800E-02  0.7066374E+03  0.7952828E+02
  0.1969048E+01  0.6894854E+03  0.1953383E+04 -0.2218244E-03 -0.6485224E-02  0.7038213E+03  0.8394027E+02
  0.2000000E+01  0.6582325E+03  0.2038851E+04 -0.5197525E-03 -0.3726244E-02  0.7009305E+03  0.8784052E+02
