VARIABLES="w (rad/s)"
"A   1   1" "B   1   1"
"A   1   2" "B   1   2"
"A   1   3" "B   1   3"
Zone t="Motion of body    1 in DoF   1",I=    64,F=POINT
  0.5000000E-01  0.1417624E+06  0.2011748E-01 -0.1430511E-01 -0.1818292E-04 -0.1819495E+06 -0.1799191E-01
  0.8095238E-01  0.1423073E+06  0.8862934E-01 -0.3487082E-02 -0.1876114E-04 -0.1822172E+06 -0.7909277E-01
  0.1119048E+00  0.1426293E+06  0.2487915E+00 -0.1097659E-01 -0.9711063E-04 -0.1826936E+06 -0.2222399E+00
  0.1428571E+00  0.1429997E+06  0.5610802E+00 -0.4272461E-03 -0.1381198E-04 -0.1829520E+06 -0.5019965E+00
  0.1738095E+00  0.1432702E+06  0.1117693E+01 -0.1158832E-01 -0.1528636E-03 -0.1835376E+06 -0.1002042E+01
  0.2047619E+00  0.1440262E+06  0.2067212E+01  0.9463998E-02  0.2263617E-03 -0.1841492E+06 -0.1856370E+01
  0.2357143E+00  0.1439729E+06  0.3640920E+01 -0.2200965E-02 -0.1049452E-03 -0.1840405E+06 -0.3273923E+01
  0.2666667E+00  0.1446782E+06  0.6226479E+01  0.1316070E-02  0.5204603E-04 -0.1849263E+06 -0.5614861E+01
  0.2976190E+00  0.1454581E+06  0.1047140E+02 -0.6357422E-02 -0.4848689E-03 -0.1854836E+06 -0.9460027E+01
  0.3285715E+00  0.1459173E+06  0.1735794E+02 -0.7709004E-02 -0.4083216E-03 -0.1861232E+06 -0.1573803E+02
  0.3595238E+00  0.1466679E+06  0.2857670E+02  0.1778306E-01  0.8195639E-03 -0.1868945E+06 -0.2598987E+02
  0.3904762E+00  0.1478263E+06  0.4676775E+02 -0.1367708E-02 -0.3105700E-03 -0.1881995E+06 -0.4269824E+02
  0.4214286E+00  0.1485982E+06  0.7545532E+02  0.2063816E-02  0.3980398E-03 -0.1890314E+06 -0.6915180E+02
  0.4523810E+00  0.1495080E+06  0.1207144E+03  0.1248008E-01  0.6217957E-03 -0.1899809E+06 -0.1110418E+03
  0.4833333E+00  0.1509027E+06  0.1886434E+03 -0.1187029E-01 -0.7710457E-03 -0.1914974E+06 -0.1743040E+03
  0.5142857E+00  0.1524385E+06  0.2900876E+03  0.1673381E-01  0.2414703E-02 -0.1927933E+06 -0.2689459E+03
  0.5452381E+00  0.1537495E+06  0.4352317E+03 -0.1903018E-02  0.4615784E-03 -0.1943583E+06 -0.4055352E+03
  0.5761905E+00  0.1548687E+06  0.6372104E+03 -0.1912014E-01 -0.3063679E-02 -0.1956327E+06 -0.5966327E+03
  0.6071429E+00  0.1571562E+06  0.9187092E+03  0.1196289E-01  0.2480507E-02 -0.1979878E+06 -0.8641786E+03
  0.6380953E+00  0.1591904E+06  0.1294604E+04 -0.6217387E-03  0.4396439E-03 -0.2001026E+06 -0.1223715E+04
  0.6690477E+00  0.1610691E+06  0.1792282E+04 -0.1824538E-03  0.2964020E-02 -0.2020730E+06 -0.1702751E+04
  0.7000000E+00  0.1632836E+06  0.2445622E+04 -0.1630511E-01 -0.4644394E-02 -0.2043739E+06 -0.2334909E+04
  0.7309524E+00  0.1653026E+06  0.3282828E+04  0.1661667E-01  0.7831573E-02 -0.2065875E+06 -0.3150675E+04
  0.7619048E+00  0.1680918E+06  0.4357029E+04  0.1121521E-02  0.3707886E-02 -0.2097284E+06 -0.4205728E+04
  0.7928572E+00  0.1710925E+06  0.5715633E+04  0.4464914E-02  0.9078979E-03 -0.2125061E+06 -0.5539885E+04
  0.8238096E+00  0.1741208E+06  0.7413290E+04  0.1370645E-01  0.7148743E-02 -0.2160333E+06 -0.7230140E+04
  0.8547620E+00  0.1768543E+06  0.9502092E+04 -0.3641707E-02 -0.1907349E-02 -0.2189968E+06 -0.9318652E+04
  0.8857143E+00  0.1795969E+06  0.1205368E+05  0.1378213E-03 -0.1056671E-01 -0.2220479E+06 -0.1188801E+05
  0.9166667E+00  0.1825529E+06  0.1514435E+05  0.3062855E-02 -0.7019043E-03 -0.2250140E+06 -0.1500301E+05
  0.9476191E+00  0.1860448E+06  0.1887236E+05 -0.2254314E-02 -0.4806519E-02 -0.2291505E+06 -0.1880573E+05
  0.9785714E+00  0.1893090E+06  0.2330319E+05 -0.5363965E-02 -0.7537842E-02 -0.2326835E+06 -0.2333950E+05
  0.1009524E+01  0.1923938E+06  0.2852762E+05 -0.1015717E-01 -0.1164246E-01 -0.2363590E+06 -0.2874954E+05
  0.1040476E+01  0.1951502E+06  0.3460900E+05  0.3050361E-02  0.7110596E-02 -0.2391666E+06 -0.3503128E+05
  0.1071429E+01  0.1977557E+06  0.4164079E+05  0.6494141E-02  0.1327515E-01 -0.2423180E+06 -0.4239182E+05
  0.1102381E+01  0.1996738E+06  0.4962179E+05  0.3543466E-02  0.2899170E-02 -0.2448282E+06 -0.5080670E+05
  0.1133333E+01  0.2009026E+06  0.5857094E+05 -0.1125560E-01 -0.1010132E-01 -0.2464200E+06 -0.6027348E+05
  0.1164286E+01  0.2016238E+06  0.6850823E+05  0.2725987E-02 -0.8941650E-02 -0.2478214E+06 -0.7091734E+05
  0.1195238E+01  0.2019778E+06  0.7940895E+05  0.5872506E-02  0.1159668E-01 -0.2482084E+06 -0.8247191E+05
  0.1226190E+01  0.2016445E+06  0.9124417E+05  0.3683442E-02 -0.1281738E-02 -0.2479865E+06 -0.9513345E+05
  0.1257143E+01  0.2002454E+06  0.1038652E+06  0.4223910E-02 -0.8117676E-02 -0.2471735E+06 -0.1088966E+06
  0.1288095E+01  0.1979400E+06  0.1170376E+06  0.8908199E-02  0.2148438E-01 -0.2450473E+06 -0.1232606E+06
  0.1319048E+01  0.1943982E+06  0.1305672E+06  0.1110531E-02  0.9948730E-02 -0.2416204E+06 -0.1381718E+06
  0.1350000E+01  0.1899607E+06  0.1442378E+06  0.2034505E-02 -0.1788330E-01 -0.2373750E+06 -0.1534331E+06
  0.1380952E+01  0.1847766E+06  0.1577638E+06  0.3403236E-02  0.1464844E-01 -0.2316325E+06 -0.1681795E+06
  0.1411905E+01  0.1784404E+06  0.1708500E+06 -0.2118218E-02  0.5554199E-02 -0.2248459E+06 -0.1826802E+06
  0.1442857E+01  0.1718535E+06  0.1836675E+06 -0.1353651E-02 -0.9643555E-02 -0.2182529E+06 -0.1973602E+06
  0.1473810E+01  0.1643914E+06  0.1955155E+06  0.7868506E-03  0.2032471E-01 -0.2103745E+06 -0.2108971E+06
  0.1504762E+01  0.1563945E+06  0.2063049E+06  0.1095156E-02 -0.1098633E-01 -0.2016738E+06 -0.2232469E+06
  0.1535714E+01  0.1482294E+06  0.2160904E+06  0.7034656E-02  0.2441406E-02 -0.1929579E+06 -0.2347388E+06
  0.1566667E+01  0.1399065E+06  0.2246962E+06  0.6058064E-02  0.2331543E-01 -0.1839374E+06 -0.2449806E+06
  0.1597619E+01  0.1315846E+06  0.2320230E+06 -0.2922592E-02  0.2111816E-01 -0.1744762E+06 -0.2532718E+06
  0.1628572E+01  0.1234491E+06  0.2382102E+06  0.2754613E-02  0.1049805E-01 -0.1652880E+06 -0.2604520E+06
  0.1659524E+01  0.1156409E+06  0.2434900E+06 -0.4873180E-02  0.1831055E-01 -0.1568352E+06 -0.2671781E+06
  0.1690476E+01  0.1079119E+06  0.2474258E+06 -0.1218554E-02 -0.2410889E-01 -0.1482438E+06 -0.2721507E+06
  0.1721429E+01  0.1004515E+06  0.2502226E+06 -0.4041996E-02 -0.1293945E-01 -0.1397719E+06 -0.2757318E+06
  0.1752381E+01  0.9333565E+05  0.2519847E+06 -0.5137402E-03 -0.1220703E-03 -0.1316230E+06 -0.2782421E+06
  0.1783333E+01  0.8663178E+05  0.2529059E+06 -0.2284540E-02  0.5249023E-02 -0.1239846E+06 -0.2799930E+06
  0.1814286E+01  0.8041295E+05  0.2531529E+06 -0.5130318E-02  0.7934570E-02 -0.1168305E+06 -0.2806678E+06
  0.1845238E+01  0.7462541E+05  0.2527370E+06 -0.3206413E-02  0.2929688E-02 -0.1100148E+06 -0.2799523E+06
  0.1876190E+01  0.6928905E+05  0.2518153E+06  0.6953593E-03 -0.1037598E-02 -0.1037442E+06 -0.2788744E+06
  0.1907143E+01  0.6440653E+05  0.2506161E+06 -0.8394656E-03  0.2624512E-02 -0.9818420E+05 -0.2781501E+06
  0.1938095E+01  0.5975782E+05  0.2487467E+06  0.9585482E-03  0.9155273E-03 -0.9285075E+05 -0.2764723E+06
  0.1969048E+01  0.5540705E+05  0.2463608E+06  0.8802264E-02 -0.5615234E-02 -0.8776604E+05 -0.2739349E+06
  0.2000000E+01  0.5134531E+05  0.2434477E+06  0.7495880E-03 -0.4394531E-02 -0.8286638E+05 -0.2704812E+06
Zone t="Motion of body    1 in DoF   2",I=    64,F=POINT
  0.5000000E-01  0.2822876E-02 -0.7152557E-05  0.1874128E+06  0.4262790E+03  0.0000000E+00  0.1144409E-04
  0.8095238E-01  0.2073400E-02  0.1335144E-04  0.1855458E+06  0.7056273E+03  0.1130946E-01  0.1144409E-03
  0.1119048E+00  0.6817757E-03  0.4482269E-04  0.1842334E+06  0.1007996E+04 -0.8726729E-02 -0.1258850E-03
  0.1428571E+00 -0.3417969E-02 -0.3242493E-04  0.1835631E+06  0.1344093E+04  0.1281738E-01  0.1449585E-03
  0.1738095E+00  0.5618579E-02  0.1010895E-03  0.1833594E+06  0.1726641E+04 -0.1615341E-01 -0.7629395E-05
  0.2047619E+00  0.2533669E-02 -0.1144409E-04  0.1830171E+06  0.2173016E+04  0.1311546E-01  0.1831055E-03
  0.2357143E+00  0.3560384E-02 -0.2098083E-03  0.1832045E+06  0.2705370E+04 -0.3625118E-02  0.3356934E-03
  0.2666667E+00 -0.1144409E-03 -0.1449585E-03  0.1833374E+06  0.3341233E+04 -0.3204345E-02  0.6561279E-03
  0.2976190E+00 -0.6870117E-02  0.3051758E-04  0.1837019E+06  0.4124714E+04 -0.1230469E-02  0.1525879E-03
  0.3285715E+00 -0.2043351E-02 -0.3814697E-03  0.1839684E+06  0.5072736E+04 -0.2080503E-01  0.9002686E-03
  0.3595238E+00  0.7639499E-03 -0.2670288E-03  0.1843472E+06  0.6234623E+04  0.5432533E-02  0.8239746E-03
  0.3904762E+00  0.4611131E-02  0.3051758E-03  0.1843559E+06  0.7641369E+04 -0.1500572E-01 -0.5493164E-03
  0.4214286E+00  0.1882779E-02 -0.4577637E-04  0.1843963E+06  0.9261149E+04  0.3475900E-02 -0.1190186E-02
  0.4523810E+00  0.2428557E-02  0.7629395E-04  0.1835925E+06  0.1118655E+05 -0.1619038E-01 -0.1831055E-03
  0.4833333E+00 -0.1641635E-02 -0.2593994E-03  0.1828627E+06  0.1320808E+05  0.5051185E-03  0.3662109E-03
  0.5142857E+00  0.1780192E-02  0.2136230E-03  0.1812895E+06  0.1544560E+05 -0.4272461E-01 -0.8544922E-03
  0.5452381E+00  0.5709053E-02 -0.1007080E-02  0.1795392E+06  0.1774041E+05 -0.1208976E-01  0.6835938E-02
  0.5761905E+00  0.6461655E-02  0.4272461E-03  0.1778463E+06  0.2002686E+05 -0.1186402E-01  0.1831055E-02
  0.6071429E+00 -0.9248620E-02 -0.1403809E-02  0.1752017E+06  0.2240770E+05  0.4423253E-02 -0.1464844E-02
  0.6380953E+00  0.1147825E-02 -0.6103516E-03  0.1729433E+06  0.2464262E+05  0.7652169E-02  0.3662109E-03
  0.6690477E+00 -0.1222441E-01  0.4394531E-02  0.1706154E+06  0.2682436E+05  0.1605594E-01 -0.4028320E-02
  0.7000000E+00 -0.2877371E-02  0.2441406E-02  0.1676133E+06  0.2899469E+05 -0.5231584E-02  0.8178711E-02
  0.7309524E+00 -0.1093861E-01 -0.7263184E-02  0.1649784E+06  0.3099909E+05  0.1803618E-01  0.8422852E-02
  0.7619048E+00  0.8010864E-03  0.3784180E-02  0.1626898E+06  0.3286046E+05  0.6408691E-02 -0.4516602E-02
  0.7928572E+00  0.3079251E-02  0.6347656E-02  0.1595393E+06  0.3463204E+05 -0.3387176E-01 -0.1306152E-01
  0.8238096E+00  0.1926312E-02  0.2014160E-02  0.1567046E+06  0.3624796E+05  0.1185423E-02  0.4272461E-02
  0.8547620E+00  0.9996844E-02 -0.5126953E-02  0.1541557E+06  0.3765226E+05  0.9139972E-02 -0.4150391E-02
  0.8857143E+00  0.9165118E-02 -0.5798340E-02  0.1517561E+06  0.3886054E+05 -0.7717994E-02  0.3051758E-02
  0.9166667E+00 -0.7590554E-02  0.5981445E-02  0.1489072E+06  0.3991155E+05  0.1384943E-01  0.2197266E-02
  0.9476191E+00  0.2705176E-02  0.3417969E-02  0.1463439E+06  0.4078911E+05  0.2576358E-02 -0.6835938E-02
  0.9785714E+00 -0.8607293E-02 -0.3662109E-03  0.1440377E+06  0.4142823E+05  0.1796305E-01 -0.6347656E-02
  0.1009524E+01  0.4232155E-02 -0.8544922E-02  0.1421559E+06  0.4183439E+05  0.4836748E-02  0.1391602E-01
  0.1040476E+01 -0.2639736E-02  0.7324219E-03  0.1397756E+06  0.4206475E+05 -0.1877145E-02  0.1513672E-01
  0.1071429E+01 -0.5440267E-02  0.1171875E-01  0.1375404E+06  0.4212011E+05  0.1868490E-01 -0.2514648E-01
  0.1102381E+01 -0.8221949E-02 -0.8544922E-02  0.1356443E+06  0.4199054E+05  0.3543466E-02  0.4394531E-02
  0.1133333E+01  0.4631491E-02  0.1904297E-01  0.1340491E+06  0.4166152E+05  0.1163258E-01  0.6591797E-02
  0.1164286E+01 -0.5923780E-02  0.6835938E-02  0.1328665E+06  0.4115696E+05  0.3355061E-02 -0.1489258E-01
  0.1195238E+01 -0.6829980E-02  0.9765625E-03  0.1312918E+06  0.4047522E+05  0.7353399E-02 -0.4296875E-01
  0.1226190E+01  0.4243425E-02 -0.1342773E-02  0.1297543E+06  0.3964066E+05 -0.6371359E-02  0.3662109E-02
  0.1257143E+01  0.2803802E-02  0.1025391E-01  0.1285460E+06  0.3877492E+05  0.8156516E-02 -0.7568359E-02
  0.1288095E+01 -0.7460025E-02  0.7812500E-02  0.1275904E+06  0.3770674E+05  0.3790723E-02  0.2038574E-01
  0.1319048E+01  0.3195398E-02  0.3295898E-02  0.1269384E+06  0.3659449E+05  0.3701771E-03 -0.8666992E-02
  0.1350000E+01 -0.4786739E-02  0.3662109E-03  0.1266090E+06  0.3542952E+05  0.3616898E-02 -0.2331543E-01
  0.1380952E+01 -0.3767869E-02 -0.6225586E-02  0.1257742E+06  0.3399636E+05  0.4596579E-02  0.6225586E-02
  0.1411905E+01  0.2636966E-02  0.2685547E-02  0.1250503E+06  0.3248295E+05  0.1659992E-01 -0.1562500E-01
  0.1442857E+01 -0.6133731E-03 -0.4028320E-02  0.1246030E+06  0.3109948E+05  0.1353651E-01  0.1062012E-01
  0.1473810E+01 -0.1159569E-02  0.8666992E-02  0.1243379E+06  0.2966670E+05 -0.1027047E-01 -0.1867676E-01
  0.1504762E+01  0.2636487E-02 -0.3662109E-03  0.1242723E+06  0.2821994E+05 -0.3244907E-02 -0.6103516E-03
  0.1535714E+01 -0.3040402E-02 -0.6591797E-02  0.1244236E+06  0.2691946E+05  0.8266714E-02  0.5493164E-02
  0.1566667E+01 -0.1870013E-02  0.1123047E-01  0.1246578E+06  0.2560376E+05  0.8103390E-02 -0.1916504E-01
  0.1597619E+01 -0.2005701E-02 -0.1110840E-01  0.1245202E+06  0.2388224E+05 -0.1069707E-01  0.1257324E-01
  0.1628572E+01 -0.3747772E-03 -0.1281738E-01  0.1245151E+06  0.2221091E+05  0.2998218E-03  0.2221680E-01
  0.1659524E+01 -0.5332914E-02 -0.7690430E-02  0.1246429E+06  0.2081822E+05  0.1500572E-01  0.4272461E-02
  0.1690476E+01  0.1805265E-02  0.2197266E-02  0.1248739E+06  0.1948506E+05 -0.1039833E-01 -0.2502441E-01
  0.1721429E+01  0.1099139E-02  0.1196289E-01  0.1251967E+06  0.1820199E+05  0.1701893E-02 -0.1568604E-01
  0.1752381E+01  0.1637003E-02 -0.1257324E-01  0.1256014E+06  0.1705579E+05  0.1950471E-02  0.1934814E-01
  0.1783333E+01  0.7529571E-03  0.1538086E-01  0.1260661E+06  0.1604503E+05  0.3833236E-02 -0.1049805E-01
  0.1814286E+01 -0.1076526E-02  0.5920410E-02  0.1264878E+06  0.1495075E+05  0.5382628E-02  0.6103516E-04
  0.1845238E+01  0.1025391E-02  0.3845215E-02  0.1268063E+06  0.1357751E+05  0.1428931E-01 -0.6164551E-02
  0.1876190E+01 -0.1236194E-02  0.8178711E-02  0.1271823E+06  0.1234034E+05 -0.1041006E-02 -0.8544922E-03
  0.1907143E+01  0.7040760E-03 -0.1281738E-02  0.1275669E+06  0.1137616E+05 -0.9473022E-02 -0.7507324E-02
  0.1938095E+01 -0.3149234E-02  0.1153564E-01  0.1279651E+06  0.1052408E+05  0.1486439E-01 -0.1239014E-01
  0.1969048E+01 -0.2293800E-02  0.5187988E-02  0.1283882E+06  0.9724408E+04  0.3223719E-02 -0.7934570E-03
  0.2000000E+01 -0.3021240E-02  0.7934570E-03  0.1288354E+06  0.8968791E+04  0.9765625E-03 -0.2593994E-02
Zone t="Motion of body    1 in DoF   3",I=    64,F=POINT
  0.5000000E-01 -0.1810124E+06 -0.1773965E-01 -0.2639771E-01 -0.9195180E-04  0.5235688E+06  0.1605615E-01
  0.8095238E-01 -0.1812862E+06 -0.7782259E-01  0.9990019E-02  0.1437141E-04  0.5238241E+06  0.6979788E-01
  0.1119048E+00 -0.1818970E+06 -0.2182296E+00 -0.5454206E-03  0.7609488E-04  0.5241872E+06  0.1950126E+00
  0.1428571E+00 -0.1821188E+06 -0.4933807E+00 -0.2349854E-02  0.1035975E-03  0.5244536E+06  0.4413863E+00
  0.1738095E+00 -0.1826229E+06 -0.9847057E+00 -0.1589004E-01 -0.2419231E-03  0.5261429E+06  0.8834103E+00
  0.2047619E+00 -0.1834333E+06 -0.1824844E+01  0.2295206E-01  0.1639090E-03  0.5259151E+06  0.1639758E+01
  0.2357143E+00 -0.1831515E+06 -0.3219305E+01  0.2848307E-02 -0.7819384E-04  0.5257831E+06  0.2895969E+01
  0.2666667E+00 -0.1841427E+06 -0.5518570E+01 -0.1293182E-01  0.1154840E-04  0.5266631E+06  0.4974748E+01
  0.2976190E+00 -0.1846651E+06 -0.9305526E+01  0.1989258E-01  0.7307529E-03  0.5269896E+06  0.8409790E+01
  0.3285715E+00 -0.1853295E+06 -0.1547137E+02  0.1532513E-01  0.1253471E-02  0.5278696E+06  0.1403118E+02
  0.3595238E+00 -0.1860078E+06 -0.2555528E+02 -0.4880791E-01 -0.3539652E-02  0.5289207E+06  0.2325090E+02
  0.3904762E+00 -0.1874870E+06 -0.4196836E+02  0.5470834E-02 -0.1010001E-03  0.5300789E+06  0.3832295E+02
  0.4214286E+00 -0.1880459E+06 -0.6798018E+02 -0.2085540E-01 -0.2642393E-02  0.5319684E+06  0.6230408E+02
  0.4523810E+00 -0.1891739E+06 -0.1091484E+03 -0.4978541E-01 -0.3195226E-02  0.5319576E+06  0.1004012E+03
  0.4833333E+00 -0.1905794E+06 -0.1713184E+03  0.2677128E-01  0.1255274E-03  0.5342626E+06  0.1582817E+03
  0.5142857E+00 -0.1919668E+06 -0.2645883E+03 -0.5328709E-01 -0.5059958E-02  0.5343385E+06  0.2452976E+03
  0.5452381E+00 -0.1935139E+06 -0.3987400E+03  0.5932937E-02 -0.1772881E-02  0.5363409E+06  0.3715521E+03
  0.5761905E+00 -0.1944962E+06 -0.5865622E+03  0.9321732E-02 -0.1215935E-02  0.5388154E+06  0.5492512E+03
  0.6071429E+00 -0.1971576E+06 -0.8496556E+03 -0.1226447E-01 -0.4325867E-02  0.5400771E+06  0.7992241E+03
  0.6380953E+00 -0.1991882E+06 -0.1203297E+04 -0.7365212E-02  0.3549576E-02  0.5424945E+06  0.1137384E+04
  0.6690477E+00 -0.2009379E+06 -0.1674789E+04 -0.2554354E-02  0.2910614E-02  0.5451991E+06  0.1591272E+04
  0.7000000E+00 -0.2033865E+06 -0.2296408E+04  0.1482282E-01  0.1363564E-01  0.5466609E+06  0.2192743E+04
  0.7309524E+00 -0.2054808E+06 -0.3097973E+04 -0.4650998E-01 -0.1081848E-01  0.5490752E+06  0.2973468E+04
  0.7619048E+00 -0.2084244E+06 -0.4134976E+04 -0.1602173E-01 -0.2933502E-02  0.5539982E+06  0.3991023E+04
  0.7928572E+00 -0.2113913E+06 -0.5453096E+04 -0.2340231E-01 -0.8930206E-02  0.5548389E+06  0.5284904E+04
  0.8238096E+00 -0.2149548E+06 -0.7110791E+04 -0.2296756E-01 -0.9357452E-02  0.5590484E+06  0.6935042E+04
  0.8547620E+00 -0.2177063E+06 -0.9165969E+04  0.2277852E-01 -0.1808167E-02  0.5626046E+06  0.8990645E+04
  0.8857143E+00 -0.2205030E+06 -0.1169417E+05 -0.8131457E-02  0.1220703E-03  0.5667952E+06  0.1153644E+05
  0.9166667E+00 -0.2235527E+06 -0.1476554E+05 -0.1198509E-02  0.1413727E-01  0.5682529E+06  0.1462873E+05
  0.9476191E+00 -0.2278041E+06 -0.1849084E+05 -0.4895081E-02 -0.3952026E-02  0.5731591E+06  0.1842034E+05
  0.9785714E+00 -0.2312808E+06 -0.2296017E+05  0.1771356E-01  0.1449585E-02  0.5770081E+06  0.2299143E+05
  0.1009524E+01 -0.2347244E+06 -0.2828383E+05  0.2660212E-01  0.3158569E-02  0.5826564E+06  0.2850932E+05
  0.1040476E+01 -0.2375717E+06 -0.3449607E+05 -0.1536913E-01 -0.1885986E-01  0.5843250E+06  0.3491656E+05
  0.1071429E+01 -0.2407485E+06 -0.4172645E+05 -0.2722982E-01 -0.3894043E-01  0.5876119E+06  0.4248701E+05
  0.1102381E+01 -0.2431721E+06 -0.4998060E+05  0.9744532E-02  0.2786255E-01  0.5908380E+06  0.5119218E+05
  0.1133333E+01 -0.2445739E+06 -0.5929936E+05  0.2509622E-01  0.1556396E-01  0.5929256E+06  0.6104962E+05
  0.1164286E+01 -0.2457174E+06 -0.6974372E+05 -0.9436109E-02  0.1220703E-03  0.5962851E+06  0.7224938E+05
  0.1195238E+01 -0.2462602E+06 -0.8118392E+05 -0.4595874E-02 -0.8483887E-02  0.5958246E+06  0.8429939E+05
  0.1226190E+01 -0.2462245E+06 -0.9370241E+05 -0.1085122E-01 -0.1037598E-02  0.5948066E+06  0.9764368E+05
  0.1257143E+01 -0.2454829E+06 -0.1071597E+06 -0.1272028E-01 -0.2624512E-01  0.5949402E+06  0.1123290E+06
  0.1288095E+01 -0.2433635E+06 -0.1213079E+06 -0.3241068E-01  0.4516602E-02  0.5930492E+06  0.1277407E+06
  0.1319048E+01 -0.2398157E+06 -0.1359838E+06 -0.4719758E-02 -0.6774902E-02  0.5903834E+06  0.1439683E+06
  0.1350000E+01 -0.2354610E+06 -0.1509984E+06 -0.1898872E-02 -0.1306152E-01  0.5878633E+06  0.1608228E+06
  0.1380952E+01 -0.2299434E+06 -0.1656676E+06 -0.8574387E-02 -0.8728027E-02  0.5803096E+06  0.1765765E+06
  0.1411905E+01 -0.2233032E+06 -0.1800878E+06  0.9596826E-02 -0.1043701E-01  0.5720569E+06  0.1923726E+06
  0.1442857E+01 -0.2169248E+06 -0.1943749E+06  0.9644764E-02 -0.1867676E-01  0.5659993E+06  0.2087859E+06
  0.1473810E+01 -0.2091458E+06 -0.2076324E+06 -0.2087225E-01 -0.4589844E-01  0.5578819E+06  0.2239174E+06
  0.1504762E+01 -0.2004634E+06 -0.2198094E+06 -0.5516342E-02  0.2868652E-01  0.5485401E+06  0.2378296E+06
  0.1535714E+01 -0.1917973E+06 -0.2311338E+06 -0.1923601E-01 -0.1367188E-01  0.5405067E+06  0.2513402E+06
  0.1566667E+01 -0.1828079E+06 -0.2412811E+06 -0.1527177E-01 -0.2429199E-01  0.5319400E+06  0.2636802E+06
  0.1597619E+01 -0.1735141E+06 -0.2495211E+06 -0.2261666E-01 -0.1708984E-02  0.5197165E+06  0.2723298E+06
  0.1628572E+01 -0.1645118E+06 -0.2566561E+06 -0.2443548E-01 -0.1306152E-01  0.5084470E+06  0.2801298E+06
  0.1659524E+01 -0.1564103E+06 -0.2631343E+06 -0.2942297E-03 -0.1110840E-01  0.4998567E+06  0.2883999E+06
  0.1690476E+01 -0.1480129E+06 -0.2680079E+06  0.6643375E-02  0.1501465E-01  0.4907189E+06  0.2945670E+06
  0.1721429E+01 -0.1396176E+06 -0.2715109E+06  0.2127367E-01  0.1110840E-01  0.4812399E+06  0.2989785E+06
  0.1752381E+01 -0.1314656E+06 -0.2739648E+06  0.2647068E-02  0.6286621E-02  0.4725467E+06  0.3027834E+06
  0.1783333E+01 -0.1238348E+06 -0.2757073E+06  0.3422532E-02  0.3356934E-02  0.4651418E+06  0.3065658E+06
  0.1814286E+01 -0.1166917E+06 -0.2764838E+06  0.2556748E-02 -0.5859375E-02  0.4575063E+06  0.3082773E+06
  0.1845238E+01 -0.1099538E+06 -0.2758050E+06  0.1455393E-01  0.1531982E-01  0.4480689E+06  0.3054917E+06
  0.1876190E+01 -0.1038019E+06 -0.2747231E+06  0.1301257E-02  0.4089355E-02  0.4397815E+06  0.3029428E+06
  0.1907143E+01 -0.9859341E+05 -0.2739663E+06 -0.9345009E-02  0.3051758E-02  0.4339073E+06  0.3031465E+06
  0.1938095E+01 -0.9349068E+05 -0.2723605E+06  0.4408928E-02  0.4699707E-02  0.4283021E+06  0.3022962E+06
  0.1969048E+01 -0.8851252E+05 -0.2698443E+06 -0.1624258E-01 -0.5493164E-03  0.4225582E+06  0.2996656E+06
  0.2000000E+01 -0.8356295E+05 -0.2663146E+06  0.6103516E-03 -0.4272461E-02  0.4166025E+06  0.2953213E+06
