VARIABLES="w (rad/s)"
"abs(F   1   1)" "angle(F   1   1)"
"abs(F   1   2)" "angle(F   1   2)"
"abs(F   1   3)" "angle(F   1   3)"
Zone t="Diffraction force - beta =   0.000 deg",I=    64,F=POINT
  0.5000000E-01  0.9904184E+02 -0.1570796E+01  0.2647981E+02 -0.3116029E+01  0.8557314E+00 -0.1570796E+01
  0.8095238E-01  0.1614549E+03 -0.1570796E+01  0.6906729E+02 -0.3115227E+01  0.1391956E+01 -0.1570796E+01
  0.1119048E+00  0.2252426E+03 -0.1570795E+01  0.1319305E+03 -0.3114187E+01  0.1920730E+01 -0.1570795E+01
  0.1428571E+00  0.2913462E+03 -0.1570795E+01  0.2150027E+03 -0.3112760E+01  0.2507395E+01 -0.1570794E+01
  0.1738095E+00  0.3612607E+03 -0.1570793E+01  0.3186101E+03 -0.3110894E+01  0.3077751E+01 -0.1570794E+01
  0.2047619E+00  0.4343958E+03 -0.1570792E+01  0.4430437E+03 -0.3108509E+01  0.3746726E+01 -0.1570792E+01
  0.2357143E+00  0.5116793E+03 -0.1570790E+01  0.5888624E+03 -0.3105462E+01  0.4385097E+01 -0.1570788E+01
  0.2666667E+00  0.5973810E+03 -0.1570786E+01  0.7565928E+03 -0.3101698E+01  0.5141129E+01 -0.1570784E+01
  0.2976190E+00  0.6882682E+03 -0.1570781E+01  0.9465751E+03 -0.3096924E+01  0.5977167E+01 -0.1570777E+01
  0.3285715E+00  0.7873669E+03 -0.1570773E+01  0.1159941E+04 -0.3091132E+01  0.6830712E+01 -0.1570768E+01
  0.3595238E+00  0.8998495E+03 -0.1570761E+01  0.1396110E+04 -0.3084014E+01  0.7821049E+01 -0.1570752E+01
  0.3904762E+00  0.1023239E+04 -0.1570744E+01  0.1655999E+04 -0.3075454E+01  0.9016554E+01 -0.1570730E+01
  0.4214286E+00  0.1157991E+04 -0.1570718E+01  0.1938612E+04 -0.3065746E+01  0.1023701E+02 -0.1570696E+01
  0.4523810E+00  0.1307494E+04 -0.1570679E+01  0.2244125E+04 -0.3054380E+01  0.1157075E+02 -0.1570647E+01
  0.4833333E+00  0.1475958E+04 -0.1570626E+01  0.2570354E+04 -0.3042599E+01  0.1319519E+02 -0.1570579E+01
  0.5142857E+00  0.1656156E+04 -0.1570550E+01  0.2916236E+04 -0.3029673E+01  0.1497560E+02 -0.1570485E+01
  0.5452381E+00  0.1845967E+04 -0.1570447E+01  0.3283350E+04 -0.3016536E+01  0.1681434E+02 -0.1570355E+01
  0.5761905E+00  0.2053379E+04 -0.1570313E+01  0.3668714E+04 -0.3003297E+01  0.1884691E+02 -0.1570187E+01
  0.6071429E+00  0.2276159E+04 -0.1570138E+01  0.4070854E+04 -0.2989468E+01  0.2134775E+02 -0.1569974E+01
  0.6380953E+00  0.2510360E+04 -0.1569916E+01  0.4493187E+04 -0.2976060E+01  0.2394966E+02 -0.1569705E+01
  0.6690477E+00  0.2745383E+04 -0.1569634E+01  0.4931957E+04 -0.2962450E+01  0.2590590E+02 -0.1569336E+01
  0.7000000E+00  0.2991250E+04 -0.1569281E+01  0.5386232E+04 -0.2948512E+01  0.2852636E+02 -0.1568899E+01
  0.7309524E+00  0.3257256E+04 -0.1568853E+01  0.5858619E+04 -0.2934747E+01  0.3160509E+02 -0.1568382E+01
  0.7619048E+00  0.3535608E+04 -0.1568332E+01  0.6344669E+04 -0.2920834E+01  0.3474205E+02 -0.1567744E+01
  0.7928572E+00  0.3820949E+04 -0.1567701E+01  0.6842505E+04 -0.2906731E+01  0.3818841E+02 -0.1566991E+01
  0.8238096E+00  0.4109553E+04 -0.1566941E+01  0.7354444E+04 -0.2892622E+01  0.4144287E+02 -0.1566059E+01
  0.8547620E+00  0.4401525E+04 -0.1566035E+01  0.7879158E+04 -0.2878539E+01  0.4444410E+02 -0.1564916E+01
  0.8857143E+00  0.4708914E+04 -0.1564972E+01  0.8414617E+04 -0.2864449E+01  0.4786633E+02 -0.1563596E+01
  0.9166667E+00  0.5030133E+04 -0.1563732E+01  0.8957666E+04 -0.2850292E+01  0.5201049E+02 -0.1562117E+01
  0.9476191E+00  0.5366291E+04 -0.1562297E+01  0.9508837E+04 -0.2836169E+01  0.5667611E+02 -0.1560447E+01
  0.9785714E+00  0.5712087E+04 -0.1560640E+01  0.1006701E+05 -0.2822110E+01  0.6135913E+02 -0.1558500E+01
  0.1009524E+01  0.6060966E+04 -0.1558729E+01  0.1063023E+05 -0.2808097E+01  0.6582626E+02 -0.1556207E+01
  0.1040476E+01  0.6407319E+04 -0.1556529E+01  0.1119726E+05 -0.2794142E+01  0.6990689E+02 -0.1553484E+01
  0.1071429E+01  0.6754636E+04 -0.1554017E+01  0.1176848E+05 -0.2780323E+01  0.7434451E+02 -0.1550420E+01
  0.1102381E+01  0.7119280E+04 -0.1551196E+01  0.1234390E+05 -0.2766699E+01  0.7968050E+02 -0.1547114E+01
  0.1133333E+01  0.7498640E+04 -0.1548041E+01  0.1291956E+05 -0.2753171E+01  0.8518635E+02 -0.1543413E+01
  0.1164286E+01  0.7888511E+04 -0.1544519E+01  0.1349450E+05 -0.2739760E+01  0.9082765E+02 -0.1539254E+01
  0.1195238E+01  0.8285836E+04 -0.1540598E+01  0.1406658E+05 -0.2726439E+01  0.9688779E+02 -0.1534685E+01
  0.1226190E+01  0.8686572E+04 -0.1536241E+01  0.1463587E+05 -0.2713269E+01  0.1035854E+03 -0.1529743E+01
  0.1257143E+01  0.9083202E+04 -0.1531398E+01  0.1520361E+05 -0.2699921E+01  0.1104075E+03 -0.1524264E+01
  0.1288095E+01  0.9495296E+04 -0.1526095E+01  0.1576573E+05 -0.2687592E+01  0.1170116E+03 -0.1518099E+01
  0.1319048E+01  0.9892470E+04 -0.1520215E+01  0.1632352E+05 -0.2675058E+01  0.1228908E+03 -0.1511021E+01
  0.1350000E+01  0.1028710E+05 -0.1513768E+01  0.1687559E+05 -0.2662758E+01  0.1288434E+03 -0.1503265E+01
  0.1380952E+01  0.1069051E+05 -0.1506791E+01  0.1742151E+05 -0.2650709E+01  0.1356340E+03 -0.1495105E+01
  0.1411905E+01  0.1103764E+05 -0.1499281E+01  0.1794827E+05 -0.2638658E+01  0.1399248E+03 -0.1485524E+01
  0.1442857E+01  0.1144982E+05 -0.1491194E+01  0.1847571E+05 -0.2626922E+01  0.1481022E+03 -0.1476503E+01
  0.1473810E+01  0.1186450E+05 -0.1482521E+01  0.1899374E+05 -0.2615435E+01  0.1565999E+03 -0.1466857E+01
  0.1504762E+01  0.1227550E+05 -0.1473219E+01  0.1950049E+05 -0.2604126E+01  0.1647762E+03 -0.1456322E+01
  0.1535714E+01  0.1267843E+05 -0.1463250E+01  0.1999542E+05 -0.2593020E+01  0.1729596E+03 -0.1445006E+01
  0.1566667E+01  0.1307195E+05 -0.1452598E+01  0.2047829E+05 -0.2582136E+01  0.1811800E+03 -0.1432906E+01
  0.1597619E+01  0.1344959E+05 -0.1441212E+01  0.2094762E+05 -0.2571414E+01  0.1893478E+03 -0.1419923E+01
  0.1628572E+01  0.1380466E+05 -0.1429040E+01  0.2140412E+05 -0.2560940E+01  0.1971761E+03 -0.1405884E+01
  0.1659524E+01  0.1414227E+05 -0.1416117E+01  0.2184866E+05 -0.2550776E+01  0.2049508E+03 -0.1390955E+01
  0.1690476E+01  0.1446162E+05 -0.1402464E+01  0.2228047E+05 -0.2540936E+01  0.2130368E+03 -0.1375524E+01
  0.1721429E+01  0.1476685E+05 -0.1388194E+01  0.2269865E+05 -0.2531354E+01  0.2206677E+03 -0.1359188E+01
  0.1752381E+01  0.1505656E+05 -0.1373336E+01  0.2310139E+05 -0.2521961E+01  0.2285755E+03 -0.1342501E+01
  0.1783333E+01  0.1532187E+05 -0.1357830E+01  0.2348822E+05 -0.2512755E+01  0.2357307E+03 -0.1324817E+01
  0.1814286E+01  0.1556533E+05 -0.1341747E+01  0.2385848E+05 -0.2503751E+01  0.2430401E+03 -0.1306592E+01
  0.1845238E+01  0.1577902E+05 -0.1325029E+01  0.2421118E+05 -0.2494859E+01  0.2503979E+03 -0.1287787E+01
  0.1876190E+01  0.1595812E+05 -0.1307655E+01  0.2454697E+05 -0.2486191E+01  0.2575858E+03 -0.1268398E+01
  0.1907143E+01  0.1610420E+05 -0.1289692E+01  0.2486645E+05 -0.2477791E+01  0.2646093E+03 -0.1248603E+01
  0.1938095E+01  0.1621478E+05 -0.1271159E+01  0.2516915E+05 -0.2469673E+01  0.2714257E+03 -0.1228431E+01
  0.1969048E+01  0.1628723E+05 -0.1252145E+01  0.2545451E+05 -0.2461816E+01  0.2775895E+03 -0.1207894E+01
  0.2000000E+01  0.1632211E+05 -0.1232764E+01  0.2572206E+05 -0.2454151E+01  0.2825141E+03 -0.1186188E+01
