VARIABLES="w (rad/s)"
"A   1   1" "B   1   1"
"A   1   2" "B   1   2"
"A   1   3" "B   1   3"
Zone t="Motion of body    1 in DoF   1",I=    64,F=POINT
  0.5000000E-01  0.1306892E+06  0.2401921E-01 -0.1686096E-01 -0.6205562E-04  0.3090614E+04  0.7185517E-03
  0.8095238E-01  0.1310663E+06  0.1057990E+00  0.1130946E-02 -0.2991845E-04  0.3089870E+04  0.3199872E-02
  0.1119048E+00  0.1315180E+06  0.2968117E+00  0.7840420E-03  0.1026636E-03  0.3084489E+04  0.8953643E-02
  0.1428571E+00  0.1314162E+06  0.6676828E+00  0.4833221E-02 -0.1901509E-03  0.3080263E+04  0.2020052E-01
  0.1738095E+00  0.1319680E+06  0.1329396E+01  0.1402450E-01  0.2393385E-03  0.3114982E+04  0.4047666E-01
  0.2047619E+00  0.1320629E+06  0.2449575E+01 -0.6110613E-02 -0.1809741E-03  0.3116991E+04  0.7492141E-01
  0.2357143E+00  0.1325009E+06  0.4312488E+01 -0.7217869E-02  0.9870157E-04  0.3138874E+04  0.1327652E+00
  0.2666667E+00  0.1330532E+06  0.7354960E+01  0.4205704E-02  0.2743863E-03  0.3184341E+04  0.2285426E+00
  0.2976190E+00  0.1332926E+06  0.1231783E+02  0.2758301E-01  0.1409344E-02  0.3208786E+04  0.3861728E+00
  0.3285715E+00  0.1339525E+06  0.2036777E+02 -0.9311178E-02 -0.1441687E-03  0.3252515E+04  0.6452705E+00
  0.3595238E+00  0.1348544E+06  0.3343556E+02  0.2181502E-01  0.9082183E-03  0.3349281E+04  0.1075097E+01
  0.3904762E+00  0.1352572E+06  0.5441935E+02  0.1219214E-01  0.1115024E-02  0.3328330E+04  0.1762297E+01
  0.4214286E+00  0.1359457E+06  0.8741136E+02  0.3331071E-02 -0.3910661E-03  0.3398466E+04  0.2872107E+01
  0.4523810E+00  0.1371628E+06  0.1393551E+03 -0.1089477E-01 -0.1547903E-02  0.3477478E+04  0.4642040E+01
  0.4833333E+00  0.1382473E+06  0.2165529E+03  0.1335407E-01  0.2783060E-02  0.3566005E+04  0.7331056E+01
  0.5142857E+00  0.1389939E+06  0.3306426E+03  0.4658170E-02  0.1258850E-02  0.3585002E+04  0.1132499E+02
  0.5452381E+00  0.1401514E+06  0.4930932E+03 -0.5988908E-02 -0.1528382E-02  0.3653892E+04  0.1713866E+02
  0.5761905E+00  0.1417616E+06  0.7185901E+03 -0.7865211E-02  0.2064824E-02  0.3794357E+04  0.2547587E+02
  0.6071429E+00  0.1434155E+06  0.1027752E+04 -0.4599178E-02 -0.3755093E-03  0.3903050E+04  0.3705565E+02
  0.6380953E+00  0.1446168E+06  0.1435562E+04  0.2199998E-01  0.7147551E-02  0.3942038E+04  0.5249668E+02
  0.6690477E+00  0.1460952E+06  0.1970752E+04  0.1076478E-01  0.1491547E-02  0.4053305E+04  0.7342586E+02
  0.7000000E+00  0.1480336E+06  0.2665573E+04 -0.5275181E-02  0.4854202E-03  0.4180319E+04  0.1011110E+03
  0.7309524E+00  0.1501300E+06  0.3548767E+04 -0.3674038E-02  0.5375862E-02  0.4332011E+04  0.1373265E+03
  0.7619048E+00  0.1522754E+06  0.4660622E+04  0.1602173E-02 -0.2370834E-02  0.4514266E+04  0.1844103E+03
  0.7928572E+00  0.1541968E+06  0.6040476E+04 -0.8275487E-02 -0.6413460E-02  0.4618951E+04  0.2433303E+03
  0.8238096E+00  0.1560165E+06  0.7732005E+04 -0.5853024E-02 -0.8316040E-03  0.4716771E+04  0.3169170E+03
  0.8547620E+00  0.1580480E+06  0.9782606E+04 -0.2284993E-02  0.3437042E-02  0.4883696E+04  0.4093643E+03
  0.8857143E+00  0.1603617E+06  0.1224514E+05  0.1540153E-01  0.4812241E-02  0.5092021E+04  0.5242809E+03
  0.9166667E+00  0.1626658E+06  0.1516694E+05  0.1531428E-01  0.6332397E-02  0.5284814E+04  0.6636574E+03
  0.9476191E+00  0.1647970E+06  0.1859586E+05 -0.2566697E-01 -0.1190186E-02  0.5467694E+04  0.8313000E+03
  0.9785714E+00  0.1665513E+06  0.2257249E+05  0.8201878E-02  0.1319504E-01  0.5628209E+04  0.1031495E+04
  0.1009524E+01  0.1679552E+06  0.2713189E+05 -0.1771459E-01 -0.9223938E-02  0.5773419E+04  0.1268124E+04
  0.1040476E+01  0.1691168E+06  0.3229195E+05  0.9180414E-02  0.6004333E-02  0.5916000E+04  0.1542749E+04
  0.1071429E+01  0.1700552E+06  0.3805461E+05  0.4187012E-02  0.2009583E-01  0.6056368E+04  0.1856811E+04
  0.1102381E+01  0.1706812E+06  0.4441623E+05 -0.6007283E-02 -0.2087402E-01  0.6183685E+04  0.2214352E+04
  0.1133333E+01  0.1707886E+06  0.5135173E+05  0.5520091E-02  0.2516937E-01  0.6306686E+04  0.2621684E+04
  0.1164286E+01  0.1704115E+06  0.5882388E+05  0.1449491E-01  0.1849365E-01  0.6414863E+04  0.3077503E+04
  0.1195238E+01  0.1694986E+06  0.6675038E+05  0.3651167E-02  0.6332397E-03  0.6496147E+04  0.3575697E+04
  0.1226190E+01  0.1680198E+06  0.7501888E+05 -0.9308157E-02 -0.2198792E-01  0.6525371E+04  0.4109478E+04
  0.1257143E+01  0.1659276E+06  0.8358364E+05 -0.1138514E-01  0.6240845E-02  0.6503179E+04  0.4677262E+04
  0.1288095E+01  0.1633208E+06  0.9217242E+05  0.4738404E-03  0.7202148E-02  0.6473748E+04  0.5281503E+04
  0.1319048E+01  0.1601152E+06  0.1008300E+06 -0.5436976E-02  0.5798340E-02  0.6413183E+04  0.5918864E+04
  0.1350000E+01  0.1564628E+06  0.1093513E+06 -0.1143844E-01  0.1802063E-01  0.6331466E+04  0.6579009E+04
  0.1380952E+01  0.1524024E+06  0.1176082E+06 -0.1193343E-02  0.1469421E-01  0.6206309E+04  0.7244743E+04
  0.1411905E+01  0.1474200E+06  0.1249560E+06 -0.1318483E-02 -0.4806519E-02  0.5944210E+04  0.7858810E+04
  0.1442857E+01  0.1426575E+06  0.1323765E+06 -0.8819882E-02 -0.2423096E-01  0.5739276E+04  0.8519390E+04
  0.1473810E+01  0.1376936E+06  0.1392620E+06 -0.8883129E-02  0.3607178E-01  0.5520054E+04  0.9175585E+04
  0.1504762E+01  0.1325400E+06  0.1455463E+06 -0.6226165E-02  0.8789062E-02  0.5289004E+04  0.9823924E+04
  0.1535714E+01  0.1273271E+06  0.1511916E+06  0.1589753E-03 -0.1049805E-01  0.5030954E+04  0.1045334E+05
  0.1566667E+01  0.1221243E+06  0.1561675E+06  0.5804833E-02  0.2047729E-01  0.4763603E+04  0.1106594E+05
  0.1597619E+01  0.1170052E+06  0.1604740E+06  0.1547255E-02  0.1831055E-02  0.4472658E+04  0.1164818E+05
  0.1628572E+01  0.1119890E+06  0.1641155E+06 -0.2286141E-02  0.3361511E-01  0.4174849E+04  0.1219175E+05
  0.1659524E+01  0.1070897E+06  0.1671286E+06 -0.1875715E-02  0.9628296E-02  0.3863131E+04  0.1269154E+05
  0.1690476E+01  0.1023908E+06  0.1695451E+06 -0.1209528E-02  0.9918213E-02  0.3558818E+04  0.1316842E+05
  0.1721429E+01  0.9784016E+05  0.1713963E+06 -0.1599070E-01  0.1374817E-01  0.3252870E+04  0.1363055E+05
  0.1752381E+01  0.9352748E+05  0.1727145E+06 -0.7418757E-02  0.1545715E-01  0.2955874E+04  0.1406562E+05
  0.1783333E+01  0.8946738E+05  0.1735514E+06 -0.4791545E-02  0.1795959E-01  0.2663579E+04  0.1447533E+05
  0.1814286E+01  0.8565808E+05  0.1739419E+06 -0.2169872E-02  0.1411438E-01  0.2381200E+04  0.1486246E+05
  0.1845238E+01  0.8209397E+05  0.1739260E+06 -0.1194084E-01 -0.1293945E-01  0.2093646E+04  0.1521267E+05
  0.1876190E+01  0.7876141E+05  0.1735326E+06  0.4424274E-02  0.6179810E-02  0.1820887E+04  0.1552893E+05
  0.1907143E+01  0.7564312E+05  0.1728338E+06 -0.9313005E-02 -0.6683350E-02  0.1547473E+04  0.1581357E+05
  0.1938095E+01  0.7276074E+05  0.1718803E+06 -0.9132779E-02 -0.3524780E-02  0.1282631E+04  0.1606696E+05
  0.1969048E+01  0.7007024E+05  0.1706690E+06 -0.1122102E-01 -0.1525879E-04  0.1027161E+04  0.1630963E+05
  0.2000000E+01  0.6756225E+05  0.1692536E+06 -0.2822876E-02 -0.1602173E-02  0.7802279E+03  0.1654604E+05
Zone t="Motion of body    1 in DoF   2",I=    64,F=POINT
  0.5000000E-01  0.2975464E-02  0.1218915E-03  0.2283842E+06  0.7710620E+03  0.4806519E-02  0.1621246E-04
  0.8095238E-01 -0.3385768E-01 -0.1682043E-03  0.2245385E+06  0.1277024E+04  0.5183500E-02  0.6866455E-04
  0.1119048E+00 -0.7363177E-02  0.1652241E-03  0.2224511E+06  0.1825619E+04  0.7431355E-02  0.4959106E-04
  0.1428571E+00  0.8918762E-02  0.4386902E-04  0.2212498E+06  0.2436711E+04  0.4699707E-02  0.7295609E-04
  0.1738095E+00  0.1975281E-03 -0.7238388E-03  0.2206723E+06  0.3134522E+04  0.6233111E-02  0.4768372E-04
  0.2047619E+00 -0.5808808E-01 -0.2431870E-03  0.2206834E+06  0.3950195E+04  0.8867840E-02  0.1430511E-04
  0.2357143E+00 -0.7250236E-02 -0.4887581E-03  0.2209975E+06  0.4926344E+04  0.8027047E-02  0.9346008E-04
  0.2666667E+00 -0.2798080E-01 -0.9155273E-03  0.2215944E+06  0.6096307E+04  0.7438659E-02  0.1525879E-03
  0.2976190E+00  0.4793701E-02 -0.2193451E-03  0.2223980E+06  0.7541696E+04  0.7792969E-02 -0.1735687E-03
  0.3285715E+00 -0.2184992E-01 -0.4072189E-03  0.2233150E+06  0.9297187E+04  0.8637801E-02  0.5340576E-04
  0.3595238E+00  0.1277494E-01 -0.1239777E-04  0.2240205E+06  0.1145598E+05  0.5262766E-02  0.9155273E-04
  0.3904762E+00  0.1887438E-01  0.1735687E-03  0.2247093E+06  0.1407733E+05  0.9300417E-02  0.9536743E-04
  0.4214286E+00 -0.2110885E-01  0.2012253E-02  0.2245740E+06  0.1711885E+05  0.5431094E-02  0.3547668E-03
  0.4523810E+00  0.1059121E-01  0.3890991E-03  0.2241158E+06  0.2073169E+05  0.6071392E-02  0.1449585E-03
  0.4833333E+00 -0.1565867E-01 -0.6752014E-03  0.2226716E+06  0.2457366E+05  0.7513638E-02  0.3585815E-03
  0.5142857E+00 -0.6230672E-02  0.2056122E-02  0.2205829E+06  0.2883798E+05  0.4984538E-02 -0.5874634E-03
  0.5452381E+00 -0.3405842E-01 -0.3070831E-02  0.2179075E+06  0.3325650E+05  0.9403146E-02 -0.3204346E-03
  0.5761905E+00  0.9215803E-02 -0.1163483E-02  0.2146437E+06  0.3773215E+05  0.9798411E-02  0.5722046E-03
  0.6071429E+00 -0.1744169E-01 -0.1739502E-02  0.2108393E+06  0.4238425E+05  0.7338579E-02  0.3890991E-03
  0.6380953E+00 -0.5810866E-02 -0.2166748E-02  0.2069036E+06  0.4688532E+05  0.9086950E-02  0.2746582E-03
  0.6690477E+00  0.9282339E-02 -0.2956390E-02  0.2026892E+06  0.5136050E+05  0.5108708E-02 -0.2288818E-03
  0.7000000E+00 -0.1870291E-01 -0.1047516E-01  0.1981553E+06  0.5583183E+05  0.3226144E-02 -0.3356934E-03
  0.7309524E+00 -0.3235658E-01 -0.8628845E-02  0.1935685E+06  0.6012558E+05  0.2421525E-02 -0.4272461E-03
  0.7619048E+00 -0.1183605E-01 -0.6355286E-02  0.1888851E+06  0.6427304E+05  0.1105499E-01  0.9765625E-03
  0.7928572E+00 -0.1734003E-01  0.1545715E-01  0.1841087E+06  0.6825854E+05  0.7313221E-02 -0.4730225E-03
  0.8238096E+00 -0.8649881E-02  0.1847839E-01  0.1793112E+06  0.7204671E+05  0.4593513E-02  0.6866455E-03
  0.8547620E+00 -0.5337601E-02 -0.2189636E-02  0.1745408E+06  0.7560882E+05  0.6569355E-02 -0.7629395E-04
  0.8857143E+00 -0.2616882E-01 -0.1277924E-01  0.1698525E+06  0.7891802E+05  0.6753244E-02 -0.7019043E-03
  0.9166667E+00 -0.1481490E-02  0.3616333E-02  0.1652382E+06  0.8195723E+05  0.7856889E-02 -0.3051758E-03
  0.9476191E+00 -0.8163835E-02 -0.3051758E-04  0.1606611E+06  0.8472515E+05  0.1017661E-01 -0.3097534E-02
  0.9785714E+00  0.7827648E-02  0.3097534E-02  0.1561551E+06  0.8721316E+05  0.8295435E-02 -0.3906250E-02
  0.1009524E+01 -0.1602173E-01 -0.3746033E-02  0.1518288E+06  0.8940087E+05  0.9008444E-02 -0.3311157E-02
  0.1040476E+01 -0.8667132E-02  0.9819031E-02  0.1476822E+06  0.9127699E+05  0.5748758E-02  0.2288818E-03
  0.1071429E+01 -0.1632080E-01  0.1628876E-01  0.1436929E+06  0.9286342E+05  0.7690430E-02 -0.9918213E-03
  0.1102381E+01 -0.6560950E-02 -0.3196716E-02  0.1398766E+06  0.9416245E+05  0.6865466E-02 -0.3967285E-03
  0.1133333E+01 -0.9747674E-02 -0.3585815E-03  0.1361957E+06  0.9519293E+05  0.5062328E-02 -0.4257202E-02
  0.1164286E+01 -0.2883256E-02 -0.6263733E-02  0.1327556E+06  0.9593166E+05  0.4298672E-02 -0.1068115E-02
  0.1195238E+01 -0.9983260E-02  0.1747131E-02  0.1295138E+06  0.9638481E+05  0.3574569E-02  0.1480103E-02
  0.1226190E+01 -0.1480843E-01 -0.6423950E-02  0.1264698E+06  0.9658065E+05  0.5326058E-02 -0.5645752E-02
  0.1257143E+01  0.1869202E-02 -0.2337646E-01  0.1236206E+06  0.9657688E+05  0.3495650E-02 -0.4882812E-02
  0.1288095E+01 -0.2357356E-01 -0.7209778E-02  0.1209094E+06  0.9626130E+05  0.7676214E-02 -0.1373291E-03
  0.1319048E+01 -0.9717149E-02 -0.7827759E-02  0.1184062E+06  0.9576659E+05  0.5598929E-02 -0.4669189E-02
  0.1350000E+01 -0.8341472E-02  0.1822662E-01  0.1161262E+06  0.9506337E+05  0.7233796E-02 -0.3784180E-02
  0.1380952E+01 -0.7027462E-02  0.6126404E-02  0.1140477E+06  0.9413413E+05  0.5259547E-02 -0.2136230E-02
  0.1411905E+01 -0.1902074E-01 -0.9284973E-02  0.1121079E+06  0.9322966E+05  0.5187473E-02 -0.6958008E-02
  0.1442857E+01 -0.2032592E-01  0.5447388E-02  0.1103608E+06  0.9198553E+05  0.6091429E-02 -0.4638672E-02
  0.1473810E+01 -0.4514038E-02 -0.1280212E-01  0.1087629E+06  0.9059598E+05  0.6460458E-02 -0.2624512E-02
  0.1504762E+01 -0.3244907E-02 -0.1177979E-01  0.1073064E+06  0.8906929E+05  0.7301041E-02 -0.4760742E-02
  0.1535714E+01 -0.1041288E-01 -0.2258301E-02  0.1060354E+06  0.8743809E+05  0.6319267E-02 -0.4150391E-02
  0.1566667E+01 -0.1521334E-01 -0.2700806E-02  0.1049224E+06  0.8569321E+05  0.5103578E-02 -0.6301880E-02
  0.1597619E+01 -0.8519453E-02 -0.1401520E-01  0.1039382E+06  0.8384500E+05  0.7182319E-02 -0.4547119E-02
  0.1628572E+01 -0.1225522E-01 -0.1219559E-01  0.1030663E+06  0.8190988E+05  0.6108869E-02 -0.7369995E-02
  0.1659524E+01 -0.1919849E-01 -0.7015228E-02  0.1023274E+06  0.7990786E+05  0.7024735E-02 -0.7644653E-02
  0.1690476E+01 -0.1846786E-01 -0.5226135E-03  0.1016940E+06  0.7784948E+05  0.5957375E-02 -0.4623413E-02
  0.1721429E+01  0.7853528E-02 -0.1764297E-01  0.1011361E+06  0.7575727E+05  0.8580378E-02 -0.7965088E-02
  0.1752381E+01  0.2716728E-02 -0.9296417E-02  0.1007012E+06  0.7360748E+05  0.7418757E-02 -0.7537842E-02
  0.1783333E+01 -0.1052429E-01 -0.3132629E-01  0.1003571E+06  0.7145609E+05  0.7358444E-02 -0.8338928E-02
  0.1814286E+01 -0.4020150E-02 -0.1640320E-01  0.1001000E+06  0.6925085E+05  0.8073943E-02 -0.1051331E-01
  0.1845238E+01 -0.9096207E-02 -0.2804947E-01  0.9990766E+05  0.6701080E+05  0.6450038E-02 -0.1003265E-01
  0.1876190E+01 -0.5709266E-02 -0.3395081E-03  0.9976915E+05  0.6473587E+05  0.9759429E-02 -0.7072449E-02
  0.1907143E+01 -0.6704723E-02 -0.2851105E-01  0.9969350E+05  0.6245032E+05  0.7328791E-02 -0.8270264E-02
  0.1938095E+01  0.2676849E-02  0.1163101E-01  0.9966584E+05  0.6015954E+05  0.8062040E-02 -0.4432678E-02
  0.1969048E+01 -0.9500672E-02 -0.2389908E-01  0.9967009E+05  0.5784419E+05  0.7191374E-02 -0.5363464E-02
  0.2000000E+01 -0.1382446E-01 -0.1675034E-01  0.9971696E+05  0.5549875E+05  0.8300781E-02 -0.1187134E-01
Zone t="Motion of body    1 in DoF   3",I=    64,F=POINT
  0.5000000E-01  0.3167281E+04  0.7440208E-03  0.1105309E-01  0.3632895E-04  0.7680027E+04  0.1902764E-04
  0.8095238E-01  0.3160997E+04  0.3303047E-02  0.1238739E-01  0.6474913E-04  0.7623471E+04  0.1021640E-03
  0.1119048E+00  0.3148460E+04  0.9261694E-02  0.1003915E-01  0.9394167E-04  0.7627108E+04  0.2767154E-03
  0.1428571E+00  0.3145809E+04  0.2090702E-01 -0.7390022E-02 -0.1045795E-03  0.7643529E+04  0.6363522E-03
  0.1738095E+00  0.3178979E+04  0.4190095E-01  0.5371668E-02  0.9524543E-04  0.7630673E+04  0.1315598E-02
  0.2047619E+00  0.3183971E+04  0.7763857E-01  0.1183000E-02 -0.1153050E-05  0.7650562E+04  0.2410096E-02
  0.2357143E+00  0.3200396E+04  0.1376221E+00 -0.8633931E-02 -0.2429241E-03  0.7618485E+04  0.4251811E-02
  0.2666667E+00  0.3250731E+04  0.2367032E+00  0.5457401E-02  0.9720441E-04  0.7646898E+04  0.7256567E-02
  0.2976190E+00  0.3276855E+04  0.3998735E+00 -0.8696594E-02 -0.3518756E-03  0.7637461E+04  0.1244013E-01
  0.3285715E+00  0.3322177E+04  0.6680056E+00 -0.2200085E-02 -0.2903227E-03  0.7659264E+04  0.2111280E-01
  0.3595238E+00  0.3424085E+04  0.1108409E+01  0.1687056E-02  0.2747076E-04  0.7656757E+04  0.3557762E-01
  0.3904762E+00  0.3400615E+04  0.1826985E+01  0.1009173E-01  0.6506066E-03  0.7668641E+04  0.5901114E-01
  0.4214286E+00  0.3472553E+04  0.2969900E+01 -0.3774610E-02 -0.5901656E-03  0.7655891E+04  0.9749347E-01
  0.4523810E+00  0.3552752E+04  0.4794923E+01 -0.1854304E-01 -0.2162246E-02  0.7677354E+04  0.1598263E+00
  0.4833333E+00  0.3645177E+04  0.7558289E+01 -0.4569744E-02 -0.9031631E-03  0.7686664E+04  0.2555429E+00
  0.5142857E+00  0.3660829E+04  0.1171241E+02 -0.2573861E-02 -0.4872549E-03  0.7663351E+04  0.4013739E+00
  0.5452381E+00  0.3732173E+04  0.1773289E+02  0.7598077E-02  0.9527542E-03  0.7694479E+04  0.6168777E+00
  0.5761905E+00  0.3874197E+04  0.2624326E+02  0.5461952E-02  0.1134023E-02  0.7682970E+04  0.9308162E+00
  0.6071429E+00  0.3987929E+04  0.3815635E+02 -0.2199061E-03 -0.3727376E-03  0.7709511E+04  0.1376176E+01
  0.6380953E+00  0.4025914E+04  0.5427604E+02  0.7036408E-02  0.2004817E-02  0.7719217E+04  0.1985848E+01
  0.6690477E+00  0.4137372E+04  0.7581712E+02 -0.2075412E-02 -0.9958148E-03  0.7696349E+04  0.2819978E+01
  0.7000000E+00  0.4269117E+04  0.1044096E+03 -0.5029950E-02 -0.1745641E-02  0.7718704E+04  0.3958781E+01
  0.7309524E+00  0.4422875E+04  0.1415576E+03 -0.1638704E-02 -0.8578897E-03  0.7753210E+04  0.5484259E+01
  0.7619048E+00  0.4608521E+04  0.1894396E+03 -0.3364563E-02 -0.1807362E-02  0.7751401E+04  0.7495415E+01
  0.7928572E+00  0.4713375E+04  0.2507228E+03  0.7505674E-02  0.9787679E-03  0.7742293E+04  0.1010926E+02
  0.8238096E+00  0.4818498E+04  0.3278225E+03 -0.5843763E-02 -0.4453063E-02  0.7777809E+04  0.1347429E+02
  0.8547620E+00  0.4988867E+04  0.4227918E+03 -0.1901185E-02 -0.1124322E-02  0.7797888E+04  0.1766684E+02
  0.8857143E+00  0.5194488E+04  0.5396536E+03  0.6193345E-02  0.5297065E-02  0.7781943E+04  0.2304811E+02
  0.9166667E+00  0.5389349E+04  0.6825406E+03 -0.3803600E-02 -0.4325151E-02  0.7798525E+04  0.2985544E+02
  0.9476191E+00  0.5581869E+04  0.8553275E+03  0.6537509E-02  0.4330397E-02  0.7849981E+04  0.3829575E+02
  0.9785714E+00  0.5743679E+04  0.1061807E+04  0.5870736E-02  0.2422333E-02  0.7867608E+04  0.4864278E+02
  0.1009524E+01  0.5889065E+04  0.1306834E+04  0.9975794E-03 -0.4185438E-02  0.7853367E+04  0.6119417E+02
  0.1040476E+01  0.6030959E+04  0.1590641E+04 -0.1848548E-01 -0.2318907E-01  0.7849804E+04  0.7604700E+02
  0.1071429E+01  0.6186833E+04  0.1918081E+04  0.4628500E-02 -0.2417564E-03  0.7879503E+04  0.9319076E+02
  0.1102381E+01  0.6319548E+04  0.2289669E+04  0.9626878E-02  0.9206772E-02  0.7922629E+04  0.1142561E+03
  0.1133333E+01  0.6437983E+04  0.2708041E+04 -0.1265582E-02 -0.8104324E-02  0.7942869E+04  0.1385413E+03
  0.1164286E+01  0.6545336E+04  0.3175917E+04  0.1015692E-02  0.7556438E-02  0.7939592E+04  0.1663297E+03
  0.1195238E+01  0.6624859E+04  0.3685843E+04  0.1002156E-02 -0.2576351E-02  0.7939516E+04  0.1965742E+03
  0.1226190E+01  0.6660989E+04  0.4242510E+04 -0.1113744E-02 -0.1135445E-01  0.7956444E+04  0.2305682E+03
  0.1257143E+01  0.6644868E+04  0.4842487E+04 -0.1013496E-02  0.8658409E-02  0.7995255E+04  0.2721955E+03
  0.1288095E+01  0.6605124E+04  0.5465146E+04  0.4258641E-02  0.7762909E-03  0.8011425E+04  0.3156876E+03
  0.1319048E+01  0.6533064E+04  0.6116204E+04  0.1746773E-02 -0.3035545E-02  0.8022321E+04  0.3612326E+03
  0.1350000E+01  0.6440161E+04  0.6786972E+04  0.3413448E-02 -0.1317024E-02  0.7996513E+04  0.4071474E+03
  0.1380952E+01  0.6302573E+04  0.7466675E+04  0.1950231E-02  0.8952141E-02  0.7978227E+04  0.4527961E+03
  0.1411905E+01  0.5800591E+04  0.7886187E+04  0.3323225E-02 -0.3743172E-02  0.7928353E+04  0.4900833E+03
  0.1442857E+01  0.5599991E+04  0.8566771E+04 -0.8143057E-03 -0.1168537E-01  0.7962805E+04  0.5507217E+03
  0.1473810E+01  0.5377641E+04  0.9230690E+04  0.1356282E-02 -0.7679939E-02  0.7987443E+04  0.6163844E+03
  0.1504762E+01  0.5144038E+04  0.9869184E+04 -0.2737890E-02 -0.1625443E-01  0.7998879E+04  0.6768321E+03
  0.1535714E+01  0.4883386E+04  0.1049278E+05 -0.1023403E-02 -0.7286072E-02  0.7980187E+04  0.7323597E+03
  0.1566667E+01  0.4608579E+04  0.1109555E+05  0.9155273E-03 -0.1233101E-01  0.7935416E+04  0.7755923E+03
  0.1597619E+01  0.4302423E+04  0.1167327E+05 -0.1556806E-02 -0.1070404E-01  0.7897535E+04  0.8244513E+03
  0.1628572E+01  0.4002280E+04  0.1223072E+05 -0.1405415E-02 -0.2779579E-01  0.7887579E+04  0.8846211E+03
  0.1659524E+01  0.3689896E+04  0.1276678E+05  0.1728600E-02 -0.6614685E-02  0.7904288E+04  0.9613423E+03
  0.1690476E+01  0.3374414E+04  0.1324900E+05 -0.4332636E-03 -0.6485939E-02  0.7929038E+04  0.1050760E+04
  0.1721429E+01  0.3059918E+04  0.1370090E+05  0.8775387E-03 -0.7750511E-02  0.7920667E+04  0.1118216E+04
  0.1752381E+01  0.2757902E+04  0.1411192E+05  0.2760265E-02 -0.1277351E-01  0.7914045E+04  0.1184300E+04
  0.1783333E+01  0.2463461E+04  0.1451054E+05  0.2019294E-02 -0.3993988E-02  0.7866452E+04  0.1213676E+04
  0.1814286E+01  0.2178566E+04  0.1487443E+05  0.3086601E-02  0.2342224E-02  0.7822717E+04  0.1231329E+04
  0.1845238E+01  0.1882730E+04  0.1521694E+05 -0.2480784E-04 -0.1313400E-01  0.7789459E+04  0.1258437E+04
  0.1876190E+01  0.1610442E+04  0.1554703E+05  0.6237902E-02 -0.7162094E-02  0.7776191E+04  0.1310697E+04
  0.1907143E+01  0.1333111E+04  0.1586934E+05  0.3512379E-02 -0.9817123E-02  0.7783404E+04  0.1400137E+04
  0.1938095E+01  0.1056546E+04  0.1611785E+05  0.9054048E-03 -0.4897118E-02  0.7809494E+04  0.1530262E+04
  0.1969048E+01  0.7830428E+03  0.1636183E+05  0.6400942E-02 -0.1193237E-01  0.7801606E+04  0.1634720E+04
  0.2000000E+01  0.5295329E+03  0.1656664E+05  0.2891541E-02 -0.8079529E-02  0.7785633E+04  0.1713108E+04
