VARIABLES="w (rad/s)"
"A   1   1" "B   1   1"
"A   1   2" "B   1   2"
"A   1   3" "B   1   3"
Zone t="Motion of body    1 in DoF   1",I=    64,F=POINT
  0.5000000E-01  0.5673537E+05  0.3021331E-02 -0.7953644E-02 -0.7758386E-05 -0.7057770E+05 -0.2372699E-02
  0.8095238E-01  0.5705442E+05  0.1320448E-01  0.6832796E-03 -0.7317292E-05 -0.7095976E+05 -0.1025148E-01
  0.1119048E+00  0.5720679E+05  0.3712069E-01  0.6476869E-03  0.1478045E-04 -0.7093710E+05 -0.2867061E-01
  0.1428571E+00  0.5722693E+05  0.8331384E-01  0.2042770E-02  0.1576188E-04 -0.7096825E+05 -0.6402982E-01
  0.1738095E+00  0.5731734E+05  0.1657573E+00  0.3709140E-02  0.3147387E-04 -0.7096491E+05 -0.1270190E+00
  0.2047619E+00  0.5732395E+05  0.3054712E+00  0.1136425E-02  0.1629291E-04 -0.7100296E+05 -0.2338123E+00
  0.2357143E+00  0.5742389E+05  0.5370531E+00 -0.2152414E-02 -0.9199674E-04 -0.7096781E+05 -0.4090756E+00
  0.2666667E+00  0.5748824E+05  0.9145535E+00 -0.1173019E-02 -0.5601114E-04 -0.7100839E+05 -0.6931468E+00
  0.2976190E+00  0.5753431E+05  0.1530172E+01 -0.1794434E-03  0.7236656E-04 -0.7104177E+05 -0.1153709E+01
  0.3285715E+00  0.5766238E+05  0.2527040E+01  0.2670288E-02 -0.5793478E-04 -0.7100434E+05 -0.1892124E+01
  0.3595238E+00  0.5778324E+05  0.4139935E+01  0.3331671E-02  0.1464039E-04 -0.7102820E+05 -0.3079180E+01
  0.3904762E+00  0.5783071E+05  0.6726913E+01 -0.3028497E-02 -0.2426878E-03 -0.7111059E+05 -0.4970844E+01
  0.4214286E+00  0.5797818E+05  0.1078953E+02  0.1068115E-02  0.2228878E-03 -0.7109274E+05 -0.7901203E+01
  0.4523810E+00  0.5817726E+05  0.1716065E+02 -0.9781686E-03  0.5401671E-04 -0.7107795E+05 -0.1244914E+02
  0.4833333E+00  0.5833484E+05  0.2660115E+02 -0.8681725E-02 -0.5715191E-03 -0.7116155E+05 -0.1912225E+02
  0.5142857E+00  0.5846350E+05  0.4053952E+02  0.9791057E-03 -0.5021691E-04 -0.7123418E+05 -0.2887195E+02
  0.5452381E+00  0.5868970E+05  0.6033401E+02 -0.1553198E-02 -0.6268322E-03 -0.7121927E+05 -0.4246479E+02
  0.5761905E+00  0.5893880E+05  0.8767415E+02  0.3919364E-02 -0.6306171E-04 -0.7124827E+05 -0.6096630E+02
  0.6071429E+00  0.5916645E+05  0.1250154E+03 -0.5629595E-02 -0.5939007E-03 -0.7136336E+05 -0.8594555E+02
  0.6380953E+00  0.5938106E+05  0.1742453E+03 -0.1281738E-01 -0.2255440E-02 -0.7146153E+05 -0.1183232E+03
  0.6690477E+00  0.5964175E+05  0.2386711E+03 -0.6135010E-02 -0.7253885E-03 -0.7151258E+05 -0.1598456E+03
  0.7000000E+00  0.5997375E+05  0.3220663E+03  0.8719307E-03 -0.2033710E-03 -0.7154438E+05 -0.2124641E+03
  0.7309524E+00  0.6032129E+05  0.4277887E+03  0.1208675E-01  0.1525879E-02 -0.7160468E+05 -0.2778224E+03
  0.7619048E+00  0.6064404E+05  0.5604766E+03 -0.8892058E-02 -0.2028465E-02 -0.7172580E+05 -0.3583911E+03
  0.7928572E+00  0.6095550E+05  0.7251080E+03 -0.7986806E-02 -0.3015518E-02 -0.7185181E+05 -0.4562692E+03
  0.8238096E+00  0.6129984E+05  0.9272069E+03  0.6112335E-02  0.3838539E-03 -0.7192441E+05 -0.5732515E+03
  0.8547620E+00  0.6169459E+05  0.1172770E+04  0.2231438E-02  0.2149105E-02 -0.7194374E+05 -0.7112128E+03
  0.8857143E+00  0.6210868E+05  0.1468342E+04  0.4737608E-02  0.8583069E-05 -0.7197845E+05 -0.8728306E+03
  0.9166667E+00  0.6253579E+05  0.1820807E+04 -0.7657137E-03  0.7343292E-03 -0.7203543E+05 -0.1060227E+04
  0.9476191E+00  0.6293762E+05  0.2236977E+04 -0.2318722E-02 -0.6752014E-03 -0.7210255E+05 -0.1275102E+04
  0.9785714E+00  0.6332471E+05  0.2724044E+04 -0.7578161E-02 -0.1296997E-02 -0.7216064E+05 -0.1518569E+04
  0.1009524E+01  0.6370332E+05  0.3288988E+04  0.6771448E-02  0.2115250E-02 -0.7220957E+05 -0.1791656E+04
  0.1040476E+01  0.6406755E+05  0.3938450E+04  0.4927506E-02  0.3376007E-02 -0.7219011E+05 -0.2093245E+04
  0.1071429E+01  0.6445165E+05  0.4679702E+04  0.5639649E-02  0.6523132E-02 -0.7212577E+05 -0.2422888E+04
  0.1102381E+01  0.6481945E+05  0.5518608E+04  0.1439533E-02 -0.1712799E-02 -0.7202815E+05 -0.2779648E+04
  0.1133333E+01  0.6515991E+05  0.6460353E+04  0.8158964E-02  0.3425598E-02 -0.7191112E+05 -0.3161567E+04
  0.1164286E+01  0.6546193E+05  0.7509598E+04  0.3224004E-02  0.8430481E-03 -0.7181360E+05 -0.3567734E+04
  0.1195238E+01  0.6567905E+05  0.8667513E+04 -0.3217112E-02 -0.4463196E-03 -0.7167871E+05 -0.3991220E+04
  0.1226190E+01  0.6584935E+05  0.9935323E+04 -0.2538589E-02 -0.7400513E-03 -0.7152320E+05 -0.4427071E+04
  0.1257143E+01  0.6591672E+05  0.1131383E+05 -0.2233332E-02  0.1251221E-02 -0.7132688E+05 -0.4871082E+04
  0.1288095E+01  0.6597655E+05  0.1278762E+05 -0.3719647E-02 -0.4486084E-02 -0.7107688E+05 -0.5307737E+04
  0.1319048E+01  0.6593871E+05  0.1436062E+05 -0.5830289E-02 -0.3067017E-02 -0.7076089E+05 -0.5733654E+04
  0.1350000E+01  0.6583391E+05  0.1602385E+05 -0.1853660E-02 -0.3540039E-02 -0.7043608E+05 -0.6144246E+04
  0.1380952E+01  0.6564153E+05  0.1776623E+05  0.1325936E-02  0.1068115E-03 -0.7007312E+05 -0.6526800E+04
  0.1411905E+01  0.6522121E+05  0.1949113E+05 -0.3328629E-02 -0.1983643E-03 -0.6975449E+05 -0.6855556E+04
  0.1442857E+01  0.6486593E+05  0.2134612E+05  0.5203096E-02  0.3814697E-03 -0.6935079E+05 -0.7156728E+04
  0.1473810E+01  0.6443199E+05  0.2323621E+05 -0.4679691E-02 -0.6103516E-03 -0.6892827E+05 -0.7405065E+04
  0.1504762E+01  0.6391250E+05  0.2514225E+05  0.6084201E-03 -0.1724243E-02 -0.6848355E+05 -0.7591052E+04
  0.1535714E+01  0.6331754E+05  0.2704932E+05  0.4153229E-02  0.2243042E-02 -0.6804095E+05 -0.7711422E+04
  0.1566667E+01  0.6263873E+05  0.2893860E+05  0.8181308E-03  0.1083374E-02 -0.6759461E+05 -0.7759343E+04
  0.1597619E+01  0.6189508E+05  0.3079552E+05 -0.2807981E-02  0.4104614E-02 -0.6716701E+05 -0.7736810E+04
  0.1628572E+01  0.6109388E+05  0.3259697E+05  0.1218026E-02 -0.1770020E-02 -0.6673158E+05 -0.7627392E+04
  0.1659524E+01  0.6023784E+05  0.3433368E+05 -0.9010785E-03  0.6500244E-02 -0.6632143E+05 -0.7445850E+04
  0.1690476E+01  0.5933746E+05  0.3598853E+05 -0.2473213E-02  0.1586914E-02 -0.6592330E+05 -0.7182570E+04
  0.1721429E+01  0.5840469E+05  0.3755089E+05  0.6204819E-03  0.1220703E-03 -0.6555579E+05 -0.6846730E+04
  0.1752381E+01  0.5744345E+05  0.3900564E+05 -0.2647068E-02  0.1678467E-02 -0.6519484E+05 -0.6424595E+04
  0.1783333E+01  0.5648050E+05  0.4036524E+05 -0.6554149E-02 -0.8331299E-02 -0.6490977E+05 -0.5959891E+04
  0.1814286E+01  0.5547921E+05  0.4159905E+05 -0.3044549E-02 -0.3051758E-02 -0.6461125E+05 -0.5405321E+04
  0.1845238E+01  0.5449589E+05  0.4272814E+05 -0.7276966E-03 -0.1403809E-02 -0.6438511E+05 -0.4822645E+04
  0.1876190E+01  0.5351917E+05  0.4372881E+05  0.1594040E-02 -0.1373291E-02 -0.6416893E+05 -0.4162094E+04
  0.1907143E+01  0.5255629E+05  0.4461633E+05  0.1552168E-02 -0.3112793E-02 -0.6400325E+05 -0.3476851E+04
  0.1938095E+01  0.5160078E+05  0.4538244E+05  0.1259694E-03 -0.5249023E-02 -0.6385611E+05 -0.2742153E+04
  0.1969048E+01  0.5068006E+05  0.4603702E+05 -0.3642183E-02 -0.6439209E-02 -0.6375614E+05 -0.1987290E+04
  0.2000000E+01  0.4978304E+05  0.4657739E+05  0.1525879E-03 -0.4150391E-02 -0.6368529E+05 -0.1208901E+04
Zone t="Motion of body    1 in DoF   2",I=    64,F=POINT
  0.5000000E-01 -0.1144409E-03  0.4172325E-06  0.3901371E+05  0.9088865E+02  0.6370544E-02  0.1716614E-04
  0.8095238E-01 -0.2261891E-02  0.9298325E-05  0.3863350E+05  0.1507696E+03  0.1932032E-02  0.1287460E-04
  0.1119048E+00  0.2488481E-02  0.4076958E-04  0.3842425E+05  0.2160449E+03  0.8181308E-03 -0.2336502E-04
  0.1428571E+00  0.1441955E-02  0.2813339E-04  0.3833870E+05  0.2892726E+03  0.6942748E-03 -0.1573563E-04
  0.1738095E+00 -0.8274235E-02 -0.1621246E-04  0.3831865E+05  0.3736073E+03  0.3511612E-02  0.1134872E-03
  0.2047619E+00 -0.2384629E-02  0.3719330E-04  0.3838812E+05  0.4730597E+03 -0.1322724E-01  0.3910065E-04
  0.2357143E+00 -0.8642022E-02 -0.4768372E-06  0.3847821E+05  0.5932747E+03 -0.5243475E-02 -0.1144409E-04
  0.2666667E+00  0.7467269E-02  0.1649857E-03  0.3864011E+05  0.7390762E+03  0.4749298E-02 -0.5340576E-04
  0.2976190E+00  0.2973633E-02 -0.5722046E-04  0.3883051E+05  0.9211193E+03 -0.2614746E-02  0.1182556E-03
  0.3285715E+00  0.2136230E-02 -0.1020432E-03  0.3903037E+05  0.1145393E+04 -0.4690418E-02 -0.4158020E-03
  0.3595238E+00  0.6260145E-02  0.3433228E-04  0.3922903E+05  0.1424784E+04 -0.9676699E-02 -0.2307892E-03
  0.3904762E+00 -0.5470834E-03 -0.3147125E-03  0.3944642E+05  0.1769297E+04  0.3790506E-02 -0.1487732E-03
  0.4214286E+00  0.9051823E-03  0.7438660E-04  0.3955803E+05  0.2176831E+04 -0.7169044E-02 -0.2822876E-03
  0.4523810E+00  0.7454319E-02  0.1010895E-03  0.3962496E+05  0.2668333E+04 -0.7218210E-02  0.2670288E-04
  0.4833333E+00  0.2967571E-02 -0.3814697E-04  0.3960716E+05  0.3205162E+04  0.9660392E-02 -0.1190186E-02
  0.5142857E+00  0.6230672E-02 -0.3585815E-03  0.3949743E+05  0.3812922E+04  0.4272461E-02  0.1495361E-02
  0.5452381E+00  0.4757544E-03 -0.6217957E-03  0.3929199E+05  0.4460802E+04  0.4869486E-02  0.2746582E-03
  0.5761905E+00  0.3124899E-02  0.3509521E-03  0.3899469E+05  0.5137756E+04  0.9533589E-03 -0.1647949E-02
  0.6071429E+00  0.4046272E-02  0.3471375E-03  0.3864249E+05  0.5858435E+04 -0.5931180E-02  0.1907349E-02
  0.6380953E+00  0.9804341E-03  0.8316040E-03  0.3827737E+05  0.6584855E+04 -0.1052173E-02 -0.2136230E-02
  0.6690477E+00 -0.2942068E-02  0.8163452E-03  0.3783147E+05  0.7332726E+04 -0.5656069E-02 -0.2593994E-03
  0.7000000E+00 -0.2049037E-02  0.2593994E-03  0.3731943E+05  0.8104001E+04 -0.5362374E-02  0.1708984E-02
  0.7309524E+00 -0.4175043E-04 -0.1937866E-02  0.3679185E+05  0.8877020E+04 -0.8642339E-02  0.3356934E-03
  0.7619048E+00 -0.9252547E-02  0.8773804E-03  0.3624075E+05  0.9654343E+04 -0.2082824E-02 -0.9002686E-03
  0.7928572E+00 -0.8121524E-02  0.6179810E-03  0.3566112E+05  0.1043332E+05 -0.3310195E-02 -0.1022339E-02
  0.8238096E+00 -0.4482379E-02  0.1808167E-02  0.3504880E+05  0.1120843E+05  0.2074490E-02 -0.9002686E-03
  0.8547620E+00 -0.6997791E-02 -0.3204346E-03  0.3441154E+05  0.1197419E+05 -0.6497948E-02 -0.6408691E-03
  0.8857143E+00  0.1033660E-02  0.1068115E-03  0.3374916E+05  0.1272573E+05 -0.3100980E-02  0.6500244E-02
  0.9166667E+00  0.4294655E-02 -0.5035400E-03  0.3307750E+05  0.1345668E+05  0.1078658E-01 -0.4486084E-02
  0.9476191E+00  0.4701854E-02 -0.1144409E-02  0.3239829E+05  0.1416296E+05  0.2640767E-02  0.3326416E-02
  0.9785714E+00 -0.1060319E-02  0.6256104E-03  0.3172407E+05  0.1483906E+05  0.2307753E-02  0.9765625E-03
  0.1009524E+01 -0.2539293E-02 -0.1724243E-02  0.3104636E+05  0.1548392E+05  0.2539293E-02 -0.6591797E-02
  0.1040476E+01  0.8535145E-02 -0.5493164E-03  0.3035977E+05  0.1609618E+05  0.1695297E-01  0.8544922E-03
  0.1071429E+01 -0.2563477E-03  0.2349854E-02  0.2967493E+05  0.1667330E+05  0.3361003E-02  0.8880615E-02
  0.1102381E+01  0.4429333E-02 -0.6713867E-03  0.2899410E+05  0.1721135E+05 -0.4816900E-02 -0.1892090E-02
  0.1133333E+01  0.1615636E-03  0.1129150E-02  0.2832492E+05  0.1770670E+05  0.2962000E-02  0.4272461E-03
  0.1164286E+01 -0.6081048E-02 -0.1449585E-02  0.2767389E+05  0.1815644E+05 -0.2725987E-02 -0.4272461E-03
  0.1195238E+01 -0.2783057E-02  0.2609253E-02  0.2703800E+05  0.1856134E+05 -0.3983091E-02  0.1922607E-02
  0.1226190E+01 -0.6296695E-02 -0.2029419E-02  0.2643016E+05  0.1891558E+05  0.1518175E-01 -0.1983643E-02
  0.1257143E+01  0.8496371E-03 -0.1770020E-02  0.2583507E+05  0.1923427E+05  0.6311590E-03  0.1892090E-02
  0.1288095E+01  0.1326753E-02 -0.8850098E-03  0.2526890E+05  0.1948718E+05 -0.1374137E-02 -0.6591797E-02
  0.1319048E+01  0.2174790E-02 -0.2593994E-02  0.2471853E+05  0.1970576E+05 -0.5552656E-03  0.4119873E-02
  0.1350000E+01  0.4295066E-03 -0.3417969E-02  0.2419071E+05  0.1988269E+05  0.1003689E-01 -0.1525879E-02
  0.1380952E+01  0.3602127E-02 -0.2777100E-02  0.2368685E+05  0.2001421E+05 -0.3314840E-03 -0.3723145E-02
  0.1411905E+01 -0.4301280E-02  0.2990723E-02  0.2322864E+05  0.2013980E+05 -0.7348921E-02 -0.9155273E-03
  0.1442857E+01  0.1480556E-03  0.4791260E-02  0.2277471E+05  0.2018590E+05 -0.1417103E-02  0.1159668E-02
  0.1473810E+01  0.2422672E-02 -0.1800537E-02  0.2234920E+05  0.2018938E+05 -0.1532288E-02  0.1159668E-02
  0.1504762E+01 -0.2311996E-02 -0.1953125E-02  0.2195366E+05  0.2015357E+05  0.1237121E-01 -0.1647949E-02
  0.1535714E+01  0.3060274E-02  0.2441406E-02  0.2158496E+05  0.2007878E+05 -0.1041288E-01 -0.2685547E-02
  0.1566667E+01 -0.2590748E-02 -0.6103516E-03  0.2124138E+05  0.1996981E+05  0.1655741E-02 -0.1220703E-02
  0.1597619E+01 -0.2960796E-02 -0.1159668E-02  0.2092794E+05  0.1982674E+05 -0.1020042E-01  0.1708984E-02
  0.1628572E+01 -0.2183078E-02 -0.5187988E-03  0.2064036E+05  0.1964559E+05  0.2604702E-02 -0.3784180E-02
  0.1659524E+01  0.2068803E-02 -0.6408691E-03  0.2038178E+05  0.1943911E+05 -0.2206723E-03  0.2136230E-02
  0.1690476E+01 -0.8575009E-03 -0.9460449E-03  0.2015168E+05  0.1921289E+05 -0.1480317E-02  0.8361816E-02
  0.1721429E+01  0.3102410E-03 -0.1556396E-02  0.1995174E+05  0.1896419E+05  0.1129277E-01 -0.1525879E-02
  0.1752381E+01 -0.6356447E-03  0.1556396E-02  0.1978240E+05  0.1869455E+05  0.4249241E-02  0.1464844E-02
  0.1783333E+01 -0.7615134E-03 -0.9460449E-03  0.1964318E+05  0.1841259E+05  0.5185136E-02  0.2075195E-02
  0.1814286E+01 -0.3187525E-02  0.2838135E-02  0.1952247E+05  0.1812514E+05 -0.7905735E-03  0.2319336E-02
  0.1845238E+01 -0.2480784E-03  0.3967285E-03  0.1943410E+05  0.1783329E+05  0.7938508E-03  0.8544922E-03
  0.1876190E+01 -0.2098277E-02 -0.1708984E-02  0.1937037E+05  0.1753128E+05 -0.3708583E-02  0.6103516E-04
  0.1907143E+01  0.1912206E-02 -0.2044678E-02  0.1933264E+05  0.1723922E+05 -0.5248567E-02 -0.6103516E-03
  0.1938095E+01  0.3999528E-02 -0.7019043E-03  0.1931075E+05  0.1696878E+05 -0.2692595E-02  0.6103516E-03
  0.1969048E+01  0.2107816E-02  0.1098633E-02  0.1931354E+05  0.1671382E+05  0.1255391E-02  0.6713867E-03
  0.2000000E+01 -0.3662109E-03 -0.1617432E-02  0.1933496E+05  0.1648613E+05  0.2410889E-02 -0.5493164E-03
Zone t="Motion of body    1 in DoF   3",I=    64,F=POINT
  0.5000000E-01 -0.6971515E+05 -0.2205858E-02  0.1462936E-01  0.3839083E-04  0.2388363E+06  0.1942575E-02
  0.8095238E-01 -0.7017229E+05 -0.9482060E-02  0.2233028E-01  0.1231947E-03  0.2391092E+06  0.7490933E-02
  0.1119048E+00 -0.7016862E+05 -0.2661486E-01  0.1864656E-01  0.1023219E-03  0.2391331E+06  0.2068496E-01
  0.1428571E+00 -0.7018921E+05 -0.5933556E-01  0.5841255E-02  0.6478050E-04  0.2391801E+06  0.4501355E-01
  0.1738095E+00 -0.7019718E+05 -0.1179367E+00  0.1810675E-02  0.6055867E-04  0.2391546E+06  0.9003035E-01
  0.2047619E+00 -0.7022220E+05 -0.2167533E+00  0.3260235E-02  0.4664192E-04  0.2391831E+06  0.1663515E+00
  0.2357143E+00 -0.7018602E+05 -0.3792539E+00 -0.1917752E-02  0.3710412E-04  0.2392214E+06  0.2893173E+00
  0.2666667E+00 -0.7023045E+05 -0.6421764E+00 -0.4513263E-02  0.4946929E-04  0.2391720E+06  0.4871607E+00
  0.2976190E+00 -0.7024946E+05 -0.1068706E+01  0.4960327E-02  0.1508486E-03  0.2392041E+06  0.8055826E+00
  0.3285715E+00 -0.7020727E+05 -0.1753509E+01  0.2925707E-02 -0.2549496E-04  0.2392597E+06  0.1313509E+01
  0.3595238E+00 -0.7023573E+05 -0.2852849E+01 -0.2527401E-01 -0.9614918E-03  0.2392276E+06  0.2122116E+01
  0.3904762E+00 -0.7030636E+05 -0.4597347E+01 -0.5265677E-02  0.3059208E-04  0.2391947E+06  0.3396351E+01
  0.4214286E+00 -0.7027323E+05 -0.7311374E+01 -0.1802218E-01 -0.4225858E-03  0.2392760E+06  0.5350966E+01
  0.4523810E+00 -0.7025939E+05 -0.1152943E+02  0.8820383E-02  0.2453625E-03  0.2393137E+06  0.8365899E+01
  0.4833333E+00 -0.7034558E+05 -0.1769003E+02  0.7450498E-02  0.4538968E-03  0.2392547E+06  0.1271574E+02
  0.5142857E+00 -0.7039420E+05 -0.2668305E+02  0.1735687E-01  0.2642900E-02  0.2393197E+06  0.1900283E+02
  0.5452381E+00 -0.7036278E+05 -0.3927667E+02  0.1826757E-01  0.1060784E-02  0.2394663E+06  0.2764547E+02
  0.5761905E+00 -0.7039652E+05 -0.5638945E+02  0.2129830E-01  0.3026664E-02  0.2394395E+06  0.3920705E+02
  0.6071429E+00 -0.7051048E+05 -0.7939133E+02  0.1501016E-01  0.2437085E-02  0.2393895E+06  0.5462048E+02
  0.6380953E+00 -0.7058642E+05 -0.1091640E+03  0.2070868E-01  0.3181815E-02  0.2394430E+06  0.7413118E+02
  0.6690477E+00 -0.7061603E+05 -0.1474325E+03  0.9487599E-02  0.8559227E-03  0.2395603E+06  0.9873203E+02
  0.7000000E+00 -0.7063941E+05 -0.1960170E+03  0.1060486E-01  0.2635717E-02  0.2396367E+06  0.1293109E+03
  0.7309524E+00 -0.7069884E+05 -0.2562366E+03  0.1200325E-02  0.1069069E-02  0.2396442E+06  0.1663784E+03
  0.7619048E+00 -0.7081306E+05 -0.3299841E+03  0.3630924E-01  0.9180307E-02  0.2395813E+06  0.2110178E+03
  0.7928572E+00 -0.7091583E+05 -0.4193425E+03  0.3820196E-02  0.1987457E-02  0.2396046E+06  0.2639205E+03
  0.8238096E+00 -0.7096218E+05 -0.5264827E+03 -0.1221541E-01 -0.7415533E-02  0.2397160E+06  0.3254833E+03
  0.8547620E+00 -0.7096630E+05 -0.6532836E+03 -0.8524095E-02 -0.2053738E-02  0.2397952E+06  0.3959635E+03
  0.8857143E+00 -0.7099220E+05 -0.8014628E+03 -0.3531671E-02 -0.1724243E-02  0.2398212E+06  0.4760006E+03
  0.9166667E+00 -0.7104401E+05 -0.9724543E+03 -0.9413285E-02 -0.1657963E-02  0.2397881E+06  0.5658019E+03
  0.9476191E+00 -0.7109962E+05 -0.1167414E+04 -0.9178277E-03  0.1173019E-03  0.2397505E+06  0.6653447E+03
  0.9785714E+00 -0.7113912E+05 -0.1387515E+04  0.1840745E-01  0.4882812E-02  0.2397159E+06  0.7739165E+03
  0.1009524E+01 -0.7116514E+05 -0.1633790E+04 -0.2682884E-02 -0.1584053E-02  0.2397108E+06  0.8903804E+03
  0.1040476E+01 -0.7112725E+05 -0.1907040E+04  0.1363863E-02 -0.2746582E-03  0.2397502E+06  0.1013043E+04
  0.1071429E+01 -0.7105164E+05 -0.2206049E+04  0.9712728E-02  0.4747391E-02  0.2397546E+06  0.1139930E+04
  0.1102381E+01 -0.7094767E+05 -0.2529120E+04  0.1123943E-01  0.3904343E-02  0.2397328E+06  0.1269812E+04
  0.1133333E+01 -0.7082980E+05 -0.2873021E+04  0.5257551E-02  0.1546860E-02  0.2396557E+06  0.1400924E+04
  0.1164286E+01 -0.7072891E+05 -0.3233246E+04  0.1493395E-01  0.1226616E-01  0.2395358E+06  0.1531721E+04
  0.1195238E+01 -0.7059105E+05 -0.3606176E+04  0.1225566E-02 -0.2370834E-02  0.2394117E+06  0.1659808E+04
  0.1226190E+01 -0.7042742E+05 -0.3985896E+04  0.4902960E-02  0.5741119E-02  0.2392739E+06  0.1780237E+04
  0.1257143E+01 -0.7022305E+05 -0.4369021E+04  0.2093749E-02  0.1447678E-02  0.2391886E+06  0.1888918E+04
  0.1288095E+01 -0.6997414E+05 -0.4753021E+04 -0.6621920E-02 -0.1044846E-01  0.2391228E+06  0.1981510E+04
  0.1319048E+01 -0.6966391E+05 -0.5123059E+04 -0.1503845E-02 -0.3974915E-02  0.2390206E+06  0.2053366E+04
  0.1350000E+01 -0.6934583E+05 -0.5472331E+04  0.1306604E-01  0.1256561E-01  0.2389251E+06  0.2105258E+04
  0.1380952E+01 -0.6899680E+05 -0.5793119E+04  0.1756865E-02 -0.5142212E-02  0.2388234E+06  0.2136432E+04
  0.1411905E+01 -0.6906920E+05 -0.6264385E+04 -0.1113145E-01 -0.3459930E-02  0.2384847E+06  0.2209359E+04
  0.1442857E+01 -0.6868534E+05 -0.6522619E+04 -0.3637937E-02 -0.3181458E-02  0.2383601E+06  0.2188865E+04
  0.1473810E+01 -0.6828395E+05 -0.6730601E+04  0.1615114E-02  0.4413605E-02  0.2382375E+06  0.2136670E+04
  0.1504762E+01 -0.6786545E+05 -0.6882811E+04  0.1519022E-01  0.1112366E-01  0.2381422E+06  0.2059128E+04
  0.1535714E+01 -0.6744648E+05 -0.6966256E+04  0.8147483E-03 -0.2952576E-02  0.2380251E+06  0.1952030E+04
  0.1566667E+01 -0.6702796E+05 -0.6983538E+04  0.5103578E-02  0.3498077E-02  0.2379498E+06  0.1828732E+04
  0.1597619E+01 -0.6662777E+05 -0.6932756E+04  0.7736274E-03  0.2895355E-02  0.2379211E+06  0.1692074E+04
  0.1628572E+01 -0.6621638E+05 -0.6795440E+04  0.5855895E-02  0.4890442E-02  0.2378418E+06  0.1517150E+04
  0.1659524E+01 -0.6583070E+05 -0.6594230E+04 -0.7153460E-02 -0.4234314E-02  0.2378431E+06  0.1342807E+04
  0.1690476E+01 -0.6545473E+05 -0.6315599E+04 -0.3357793E-02 -0.7087708E-02  0.2378465E+06  0.1152322E+04
  0.1721429E+01 -0.6510434E+05 -0.5965272E+04 -0.6905077E-02 -0.3139496E-02  0.2378871E+06  0.9676591E+03
  0.1752381E+01 -0.6476169E+05 -0.5535162E+04 -0.3970603E-02  0.2044678E-02  0.2379048E+06  0.7663505E+03
  0.1783333E+01 -0.6448668E+05 -0.5046860E+04  0.1038739E-01  0.7934570E-02  0.2379660E+06  0.5762406E+03
  0.1814286E+01 -0.6421007E+05 -0.4498563E+04 -0.7636604E-02 -0.3978729E-02  0.2380308E+06  0.3927605E+03
  0.1845238E+01 -0.6399622E+05 -0.3909722E+04  0.3010018E-02  0.2979279E-02  0.2381597E+06  0.2519835E+03
  0.1876190E+01 -0.6378808E+05 -0.3240151E+04  0.5627937E-02  0.3566742E-03  0.2382136E+06  0.5789162E+02
  0.1907143E+01 -0.6362859E+05 -0.2552228E+04 -0.5712617E-02 -0.1399994E-02  0.2383496E+06 -0.6767497E+02
  0.1938095E+01 -0.6348875E+05 -0.1826050E+04  0.3149234E-02  0.3553391E-02  0.2384760E+06 -0.1949581E+03
  0.1969048E+01 -0.6338657E+05 -0.1064174E+04  0.6307950E-02  0.6456375E-03  0.2386032E+06 -0.3074391E+03
  0.2000000E+01 -0.6331484E+05 -0.2861966E+03 -0.5676270E-02  0.9059906E-03  0.2387666E+06 -0.3485846E+03
