VARIABLES="w (rad/s)"
"abs(F   1   1)" "angle(F   1   1)"
"abs(F   1   2)" "angle(F   1   2)"
"abs(F   1   3)" "angle(F   1   3)"
Zone t="Diffraction force - beta =   0.000 deg",I=    64,F=POINT
  0.5000000E-01  0.1103989E+04 -0.1570785E+01  0.2815249E+06 -0.1904931E-04  0.2374115E+03 -0.1570765E+01
  0.8095238E-01  0.1801022E+04 -0.1570803E+01  0.2811511E+06 -0.5126898E-04  0.3842780E+03 -0.1570745E+01
  0.1119048E+00  0.2513814E+04 -0.1570790E+01  0.2806009E+06 -0.1018812E-03  0.5357063E+03 -0.1570779E+01
  0.1428571E+00  0.3251893E+04 -0.1570793E+01  0.2798749E+06 -0.1748189E-03  0.6951080E+03 -0.1570764E+01
  0.1738095E+00  0.4020344E+04 -0.1570780E+01  0.2789700E+06 -0.2761341E-03  0.8646846E+03 -0.1570782E+01
  0.2047619E+00  0.4831248E+04 -0.1570788E+01  0.2778856E+06 -0.4143937E-03  0.1044884E+04 -0.1570780E+01
  0.2357143E+00  0.5690852E+04 -0.1570788E+01  0.2766159E+06 -0.6024707E-03  0.1237527E+04 -0.1570782E+01
  0.2666667E+00  0.6618983E+04 -0.1570784E+01  0.2751612E+06 -0.8562162E-03  0.1455096E+04 -0.1570777E+01
  0.2976190E+00  0.7623279E+04 -0.1570773E+01  0.2735191E+06 -0.1201856E-02  0.1687685E+04 -0.1570771E+01
  0.3285715E+00  0.8716148E+04 -0.1570766E+01  0.2716810E+06 -0.1667250E-02  0.1943777E+04 -0.1570760E+01
  0.3595238E+00  0.9926181E+04 -0.1570749E+01  0.2696548E+06 -0.2295261E-02  0.2242559E+04 -0.1570747E+01
  0.3904762E+00  0.1126382E+05 -0.1570729E+01  0.2674377E+06 -0.3135722E-02  0.2575988E+04 -0.1570726E+01
  0.4214286E+00  0.1273303E+05 -0.1570698E+01  0.2650411E+06 -0.4220317E-02  0.2937578E+04 -0.1570691E+01
  0.4523810E+00  0.1434883E+05 -0.1570649E+01  0.2624602E+06 -0.5633978E-02  0.3350312E+04 -0.1570644E+01
  0.4833333E+00  0.1613230E+05 -0.1570581E+01  0.2597261E+06 -0.7346777E-02  0.3832409E+04 -0.1570578E+01
  0.5142857E+00  0.1805743E+05 -0.1570484E+01  0.2568448E+06 -0.9454654E-02  0.4347502E+04 -0.1570483E+01
  0.5452381E+00  0.2010686E+05 -0.1570359E+01  0.2538064E+06 -0.1193445E-01  0.4901201E+04 -0.1570357E+01
  0.5761905E+00  0.2228382E+05 -0.1570195E+01  0.2506346E+06 -0.1480039E-01  0.5518617E+04 -0.1570193E+01
  0.6071429E+00  0.2458281E+05 -0.1569985E+01  0.2473587E+06 -0.1813429E-01  0.6188541E+04 -0.1569984E+01
  0.6380953E+00  0.2699112E+05 -0.1569719E+01  0.2439548E+06 -0.2187017E-01  0.6903306E+04 -0.1569717E+01
  0.6690477E+00  0.2948706E+05 -0.1569390E+01  0.2404315E+06 -0.2608901E-01  0.7656390E+04 -0.1569388E+01
  0.7000000E+00  0.3205632E+05 -0.1568982E+01  0.2368117E+06 -0.3084515E-01  0.8452492E+04 -0.1568982E+01
  0.7309524E+00  0.3471789E+05 -0.1568492E+01  0.2330948E+06 -0.3611423E-01  0.9313031E+04 -0.1568491E+01
  0.7619048E+00  0.3746966E+05 -0.1567902E+01  0.2293110E+06 -0.4195113E-01  0.1024255E+05 -0.1567902E+01
  0.7928572E+00  0.4029404E+05 -0.1567203E+01  0.2254710E+06 -0.4838576E-01  0.1120770E+05 -0.1567203E+01
  0.8238096E+00  0.4317213E+05 -0.1566378E+01  0.2215645E+06 -0.5543232E-01  0.1221502E+05 -0.1566378E+01
  0.8547620E+00  0.4609935E+05 -0.1565416E+01  0.2175923E+06 -0.6310784E-01  0.1326868E+05 -0.1565416E+01
  0.8857143E+00  0.4908002E+05 -0.1564305E+01  0.2135744E+06 -0.7143418E-01  0.1438543E+05 -0.1564306E+01
  0.9166667E+00  0.5210978E+05 -0.1563033E+01  0.2095388E+06 -0.8043566E-01  0.1555619E+05 -0.1563036E+01
  0.9476191E+00  0.5518367E+05 -0.1561587E+01  0.2055051E+06 -0.9013054E-01  0.1679369E+05 -0.1561593E+01
  0.9785714E+00  0.5830095E+05 -0.1559959E+01  0.2014710E+06 -0.1005224E+00  0.1808462E+05 -0.1559968E+01
  0.1009524E+01  0.6144213E+05 -0.1558136E+01  0.1974303E+06 -0.1116134E+00  0.1942526E+05 -0.1558147E+01
  0.1040476E+01  0.6458638E+05 -0.1556110E+01  0.1933894E+06 -0.1234121E+00  0.2079308E+05 -0.1556119E+01
  0.1071429E+01  0.6771710E+05 -0.1553875E+01  0.1893555E+06 -0.1359317E+00  0.2219923E+05 -0.1553882E+01
  0.1102381E+01  0.7084334E+05 -0.1551435E+01  0.1853330E+06 -0.1491821E+00  0.2365573E+05 -0.1551441E+01
  0.1133333E+01  0.7395242E+05 -0.1548791E+01  0.1813484E+06 -0.1631811E+00  0.2516956E+05 -0.1548802E+01
  0.1164286E+01  0.7704646E+05 -0.1545953E+01  0.1773973E+06 -0.1779293E+00  0.2673906E+05 -0.1545975E+01
  0.1195238E+01  0.8010580E+05 -0.1542929E+01  0.1735061E+06 -0.1934398E+00  0.2833972E+05 -0.1542966E+01
  0.1226190E+01  0.8311003E+05 -0.1539732E+01  0.1696676E+06 -0.2097031E+00  0.2996273E+05 -0.1539782E+01
  0.1257143E+01  0.8602854E+05 -0.1536354E+01  0.1658773E+06 -0.2269148E+00  0.3159884E+05 -0.1536415E+01
  0.1288095E+01  0.8890198E+05 -0.1532893E+01  0.1621338E+06 -0.2444264E+00  0.3326464E+05 -0.1532952E+01
  0.1319048E+01  0.9164884E+05 -0.1529303E+01  0.1584325E+06 -0.2628802E+00  0.3492834E+05 -0.1529348E+01
  0.1350000E+01  0.9428666E+05 -0.1525655E+01  0.1547720E+06 -0.2820506E+00  0.3659473E+05 -0.1525680E+01
  0.1380952E+01  0.9679859E+05 -0.1521999E+01  0.1511615E+06 -0.3019377E+00  0.3825736E+05 -0.1522003E+01
  0.1411905E+01  0.9880446E+05 -0.1519244E+01  0.1481793E+06 -0.3188568E+00  0.3964724E+05 -0.1519235E+01
  0.1442857E+01  0.1010286E+06 -0.1515768E+01  0.1447221E+06 -0.3400404E+00  0.4129502E+05 -0.1515749E+01
  0.1473810E+01  0.1031079E+06 -0.1512455E+01  0.1413275E+06 -0.3619556E+00  0.4291488E+05 -0.1512430E+01
  0.1504762E+01  0.1050165E+06 -0.1509364E+01  0.1380049E+06 -0.3846071E+00  0.4450545E+05 -0.1509328E+01
  0.1535714E+01  0.1067484E+06 -0.1506567E+01  0.1347483E+06 -0.4079700E+00  0.4605570E+05 -0.1506514E+01
  0.1566667E+01  0.1082942E+06 -0.1504149E+01  0.1315617E+06 -0.4320313E+00  0.4755924E+05 -0.1504078E+01
  0.1597619E+01  0.1096499E+06 -0.1502184E+01  0.1284382E+06 -0.4567912E+00  0.4900284E+05 -0.1502097E+01
  0.1628572E+01  0.1108072E+06 -0.1500746E+01  0.1253792E+06 -0.4822827E+00  0.5038052E+05 -0.1500650E+01
  0.1659524E+01  0.1117563E+06 -0.1499918E+01  0.1223974E+06 -0.5084975E+00  0.5170015E+05 -0.1499807E+01
  0.1690476E+01  0.1125130E+06 -0.1499783E+01  0.1194700E+06 -0.5353978E+00  0.5293821E+05 -0.1499670E+01
  0.1721429E+01  0.1130698E+06 -0.1500426E+01  0.1166047E+06 -0.5629852E+00  0.5410175E+05 -0.1500299E+01
  0.1752381E+01  0.1134212E+06 -0.1501897E+01  0.1138174E+06 -0.5913022E+00  0.5518189E+05 -0.1501760E+01
  0.1783333E+01  0.1135835E+06 -0.1504289E+01  0.1110851E+06 -0.6202888E+00  0.5617202E+05 -0.1504145E+01
  0.1814286E+01  0.1135582E+06 -0.1507675E+01  0.1084236E+06 -0.6499643E+00  0.5707962E+05 -0.1507516E+01
  0.1845238E+01  0.1133572E+06 -0.1512106E+01  0.1058275E+06 -0.6803523E+00  0.5789696E+05 -0.1511940E+01
  0.1876190E+01  0.1129878E+06 -0.1517625E+01  0.1033006E+06 -0.7114864E+00  0.5861973E+05 -0.1517468E+01
  0.1907143E+01  0.1124525E+06 -0.1524294E+01  0.1008503E+06 -0.7432960E+00  0.5926425E+05 -0.1524121E+01
  0.1938095E+01  0.1117749E+06 -0.1532154E+01  0.9845295E+05 -0.7757919E+00  0.5981800E+05 -0.1531983E+01
  0.1969048E+01  0.1109637E+06 -0.1541250E+01  0.9611248E+05 -0.8089558E+00  0.6029159E+05 -0.1541078E+01
  0.2000000E+01  0.1100258E+06 -0.1551601E+01  0.9382755E+05 -0.8427482E+00  0.6068398E+05 -0.1551432E+01
