VARIABLES="w (rad/s)"
"A   1   1" "B   1   1"
"A   1   2" "B   1   2"
"A   1   3" "B   1   3"
Zone t="Motion of body    1 in DoF   1",I=    64,F=POINT
  0.5000000E-01  0.2571872E+05  0.5442384E-03 -0.1525879E-02 -0.8324697E-05 -0.4605671E+05 -0.9225278E-03
  0.8095238E-01  0.2590246E+05  0.2256187E-02 -0.1013139E-02 -0.7463036E-05 -0.4639121E+05 -0.3842960E-02
  0.1119048E+00  0.2604830E+05  0.6402830E-02  0.1107886E-02  0.3837977E-05 -0.4655536E+05 -0.1079283E-01
  0.1428571E+00  0.2607311E+05  0.1422724E-01  0.3217697E-02  0.1168723E-04 -0.4658925E+05 -0.2375684E-01
  0.1738095E+00  0.2610516E+05  0.2833916E-01 -0.1141274E-02 -0.2139503E-04 -0.4660838E+05 -0.4730095E-01
  0.2047619E+00  0.2611608E+05  0.5245014E-01 -0.1210945E-02 -0.3781461E-04 -0.4663073E+05 -0.8754715E-01
  0.2357143E+00  0.2613842E+05  0.9230986E-01 -0.2654104E-02 -0.5292543E-04 -0.4664925E+05 -0.1538568E+00
  0.2666667E+00  0.2619219E+05  0.1574688E+00 -0.1287460E-03 -0.1695403E-04 -0.4667632E+05 -0.2618479E+00
  0.2976190E+00  0.2618646E+05  0.2637245E+00  0.9228516E-03 -0.2109003E-04 -0.4669850E+05 -0.4377024E+00
  0.3285715E+00  0.2620925E+05  0.4357660E+00  0.8475261E-03 -0.4507741E-04 -0.4672195E+05 -0.7213836E+00
  0.3595238E+00  0.2628243E+05  0.7153232E+00  0.2620773E-02  0.3992580E-04 -0.4675814E+05 -0.1180197E+01
  0.3904762E+00  0.2630548E+05  0.1164607E+01  0.9183185E-03  0.5293172E-05 -0.4678998E+05 -0.1915537E+01
  0.4214286E+00  0.2631979E+05  0.1870551E+01 -0.1375877E-02 -0.1024567E-03 -0.4681664E+05 -0.3066410E+01
  0.4523810E+00  0.2641586E+05  0.2982131E+01  0.3001966E-02  0.7479265E-04 -0.4690320E+05 -0.4868212E+01
  0.4833333E+00  0.2646054E+05  0.4632628E+01  0.1610065E-02  0.2960116E-04 -0.4694737E+05 -0.7532746E+01
  0.5142857E+00  0.2652934E+05  0.7081285E+01  0.2699958E-02  0.2189986E-03 -0.4701328E+05 -0.1146525E+02
  0.5452381E+00  0.2655228E+05  0.1055602E+02  0.2616649E-02  0.6134063E-04 -0.4705081E+05 -0.1702098E+02
  0.5761905E+00  0.2663825E+05  0.1538090E+02  0.2899800E-02  0.2165735E-03 -0.4712786E+05 -0.2467558E+02
  0.6071429E+00  0.2675454E+05  0.2201101E+02  0.3996007E-02  0.2257377E-03 -0.4725049E+05 -0.3512862E+02
  0.6380953E+00  0.2680785E+05  0.3076948E+02 -0.5499996E-03 -0.2397597E-03 -0.4731027E+05 -0.4885931E+02
  0.6690477E+00  0.2686465E+05  0.4227307E+02  0.4675380E-03 -0.3287196E-04 -0.4738647E+05 -0.6677983E+02
  0.7000000E+00  0.2698771E+05  0.5726839E+02  0.2103533E-02 -0.1496673E-03 -0.4751923E+05 -0.8993484E+02
  0.7309524E+00  0.2709256E+05  0.7636142E+02  0.2692903E-02  0.2776980E-03 -0.4761373E+05 -0.1191710E+03
  0.7619048E+00  0.2720363E+05  0.1004927E+03  0.1401901E-02 -0.4774332E-04 -0.4773144E+05 -0.1558436E+03
  0.7928572E+00  0.2735246E+05  0.1307353E+03  0.1712833E-02 -0.2062321E-04 -0.4787862E+05 -0.2013600E+03
  0.8238096E+00  0.2744162E+05  0.1679849E+03  0.2296756E-02  0.5435944E-03 -0.4799676E+05 -0.2571050E+03
  0.8547620E+00  0.2753941E+05  0.2135831E+03  0.1963666E-02  0.3200769E-03 -0.4811493E+05 -0.3247121E+03
  0.8857143E+00  0.2767822E+05  0.2690967E+03  0.1757222E-02  0.4611015E-03 -0.4824427E+05 -0.4060499E+03
  0.9166667E+00  0.2787461E+05  0.3362745E+03 -0.1564719E-02 -0.1575232E-02 -0.4842977E+05 -0.5033586E+03
  0.9476191E+00  0.2802711E+05  0.4163195E+03  0.1739042E-02 -0.5562305E-03 -0.4858992E+05 -0.6183770E+03
  0.9785714E+00  0.2816769E+05  0.5111719E+03  0.2042673E-02 -0.5238056E-03 -0.4872521E+05 -0.7531907E+03
  0.1009524E+01  0.2831762E+05  0.6229612E+03  0.2690441E-02  0.5125999E-03 -0.4887831E+05 -0.9104331E+03
  0.1040476E+01  0.2847552E+05  0.7537923E+03  0.2639735E-03 -0.8773804E-04 -0.4902986E+05 -0.1092271E+04
  0.1071429E+01  0.2865240E+05  0.9060917E+03  0.1466878E-02 -0.3271103E-03 -0.4921423E+05 -0.1301687E+04
  0.1102381E+01  0.2881675E+05  0.1081883E+04 -0.1231908E-02 -0.1427650E-02 -0.4935854E+05 -0.1540169E+04
  0.1133333E+01  0.2899927E+05  0.1284281E+04 -0.4981546E-03 -0.6494522E-03 -0.4951443E+05 -0.1811190E+04
  0.1164286E+01  0.2918772E+05  0.1515786E+04  0.2345922E-02  0.1336098E-02 -0.4967636E+05 -0.2117321E+04
  0.1195238E+01  0.2938285E+05  0.1779131E+04  0.8681096E-03 -0.7486343E-03 -0.4982308E+05 -0.2460302E+04
  0.1226190E+01  0.2959327E+05  0.2077462E+04 -0.3235456E-03 -0.6351471E-03 -0.5000012E+05 -0.2844086E+04
  0.1257143E+01  0.2974118E+05  0.2410461E+04  0.1687136E-02  0.1003265E-02 -0.5011749E+05 -0.3267408E+04
  0.1288095E+01  0.2990440E+05  0.2784616E+04  0.1326753E-02 -0.5722046E-04 -0.5021855E+05 -0.3734517E+04
  0.1319048E+01  0.3005099E+05  0.3200060E+04  0.5552656E-03 -0.1447678E-02 -0.5033084E+05 -0.4247521E+04
  0.1350000E+01  0.3019055E+05  0.3659425E+04 -0.6555628E-03 -0.2813339E-02 -0.5039891E+05 -0.4804026E+04
  0.1380952E+01  0.3035051E+05  0.4167171E+04 -0.6629681E-03 -0.1762390E-02 -0.5046513E+05 -0.5407998E+04
  0.1411905E+01  0.3036980E+05  0.4689258E+04 -0.2204676E-02 -0.4158020E-02 -0.5046732E+05 -0.6026584E+04
  0.1442857E+01  0.3050216E+05  0.5291726E+04  0.3045715E-02  0.2731323E-02 -0.5051244E+05 -0.6723519E+04
  0.1473810E+01  0.3059743E+05  0.5942596E+04  0.2733270E-02 -0.2555847E-03 -0.5049104E+05 -0.7460480E+04
  0.1504762E+01  0.3067947E+05  0.6645885E+04  0.8112267E-04 -0.1338959E-02 -0.5046064E+05 -0.8243985E+04
  0.1535714E+01  0.3074993E+05  0.7402290E+04  0.1391034E-02 -0.5645752E-03 -0.5042811E+05 -0.9072890E+04
  0.1566667E+01  0.3077428E+05  0.8205265E+04  0.9934446E-03  0.2670288E-03 -0.5030636E+05 -0.9928747E+04
  0.1597619E+01  0.3079098E+05  0.9059922E+04  0.6112612E-03 -0.8010864E-03 -0.5017955E+05 -0.1082163E+05
  0.1628572E+01  0.3079142E+05  0.9963343E+04  0.1499109E-03 -0.3059387E-02 -0.5004789E+05 -0.1174718E+05
  0.1659524E+01  0.3072540E+05  0.1090616E+05  0.7355743E-03 -0.2166748E-02 -0.4985920E+05 -0.1269412E+05
  0.1690476E+01  0.3062310E+05  0.1188466E+05 -0.3610530E-04 -0.1716614E-02 -0.4960816E+05 -0.1364620E+05
  0.1721429E+01  0.3048898E+05  0.1289697E+05 -0.4254733E-03 -0.1426697E-02 -0.4931306E+05 -0.1460384E+05
  0.1752381E+01  0.3034024E+05  0.1394560E+05  0.1010066E-02  0.1129150E-02 -0.4902549E+05 -0.1557869E+05
  0.1783333E+01  0.3016107E+05  0.1501753E+05  0.1831055E-02  0.4272461E-03 -0.4869971E+05 -0.1654404E+05
  0.1814286E+01  0.2994023E+05  0.1610227E+05 -0.3364143E-04 -0.9918213E-03 -0.4831664E+05 -0.1748344E+05
  0.1845238E+01  0.2969911E+05  0.1720109E+05 -0.1984627E-03 -0.1205444E-02 -0.4792777E+05 -0.1840818E+05
  0.1876190E+01  0.2943942E+05  0.1830672E+05 -0.4879714E-03 -0.2288818E-02 -0.4753691E+05 -0.1930962E+05
  0.1907143E+01  0.2911983E+05  0.1940106E+05  0.1488161E-02 -0.3158569E-02 -0.4710763E+05 -0.2017260E+05
  0.1938095E+01  0.2876860E+05  0.2047804E+05  0.1558871E-02  0.3051758E-04 -0.4664746E+05 -0.2098082E+05
  0.1969048E+01  0.2836937E+05  0.2151721E+05  0.5889487E-03 -0.1983643E-03 -0.4612479E+05 -0.2169976E+05
  0.2000000E+01  0.2796099E+05  0.2253687E+05  0.1342773E-02 -0.2624512E-02 -0.4561876E+05 -0.2238189E+05
Zone t="Motion of body    1 in DoF   2",I=    64,F=POINT
  0.5000000E-01 -0.1296997E-02  0.2980232E-05  0.7710405E+04  0.1676340E+02  0.3128052E-02  0.3226101E-05
  0.8095238E-01 -0.2591750E-03 -0.1311302E-05  0.7655047E+04  0.2782893E+02  0.1446079E-02  0.1590699E-04
  0.1119048E+00 -0.8181308E-03  0.7510185E-05  0.7626542E+04  0.3992204E+02  0.3577192E-02 -0.6526709E-05
  0.1428571E+00 -0.3471374E-03  0.1192093E-05  0.7616755E+04  0.5353316E+02 -0.7994175E-02 -0.2861023E-05
  0.1738095E+00  0.2304495E-02 -0.2050400E-04  0.7617953E+04  0.6927150E+02  0.9080808E-03  0.4464388E-04
  0.2047619E+00 -0.1453134E-02  0.2145767E-04  0.7637620E+04  0.8791032E+02 -0.4210361E-02 -0.3606081E-05
  0.2357143E+00  0.2330433E-02  0.2384186E-04  0.7665578E+04  0.1105435E+03 -0.5037134E-03 -0.8252263E-04
  0.2666667E+00  0.1459122E-02 -0.4529953E-04  0.7703867E+04  0.1381486E+03  0.5471706E-03  0.6490946E-04
  0.2976190E+00  0.4152832E-02  0.4625320E-04  0.7750522E+04  0.1727856E+03  0.7674408E-02  0.4744530E-04
  0.3285715E+00 -0.1160995E-03 -0.1430511E-04  0.7803230E+04  0.2157364E+03 -0.1480268E-03  0.1083016E-03
  0.3595238E+00  0.2376733E-02 -0.9155273E-04  0.7854771E+04  0.2695793E+03  0.1880696E-02  0.7259846E-04
  0.3904762E+00  0.1094167E-02  0.5245209E-04  0.7909124E+04  0.3364639E+03 -0.1746271E-02  0.1416206E-03
  0.4214286E+00  0.2534511E-03 -0.6484985E-04  0.7951831E+04  0.4162712E+03  0.1844309E-02  0.1763105E-03
  0.4523810E+00  0.2023797E-03  0.7820129E-04  0.7986568E+04  0.5132370E+03  0.7776862E-02 -0.2980232E-04
  0.4833333E+00  0.1231226E-02  0.1678467E-03  0.7997908E+04  0.6206127E+03  0.1681098E-02  0.3573895E-03
  0.5142857E+00  0.2314250E-02  0.4577637E-04  0.7998351E+04  0.7433192E+03  0.3979471E-02  0.3626347E-03
  0.5452381E+00  0.1063451E-02  0.6103516E-04  0.7983309E+04  0.8759196E+03 -0.4435710E-02 -0.2923012E-03
  0.5761905E+00  0.8739124E-03  0.3890991E-03  0.7950134E+04  0.1016615E+04  0.2221194E-02 -0.1101494E-03
  0.6071429E+00  0.8544921E-03  0.1907349E-04  0.7903679E+04  0.1168389E+04 -0.3455667E-03  0.2551079E-03
  0.6380953E+00  0.4495649E-02 -0.4959106E-04  0.7851495E+04  0.1324575E+04  0.6611952E-02  0.3523827E-03
  0.6690477E+00  0.4789413E-03  0.3585815E-03  0.7789749E+04  0.1487988E+04  0.2360496E-02  0.2784729E-03
  0.7000000E+00  0.1155308E-02 -0.2670288E-03  0.7715724E+04  0.1659251E+04 -0.1397814E-02 -0.5631447E-03
  0.7309524E+00  0.2859904E-02  0.5722046E-03  0.7632080E+04  0.1834885E+04 -0.3191298E-02  0.1201630E-03
  0.7619048E+00  0.1522064E-02  0.6103516E-04  0.7541030E+04  0.2015340E+04  0.3537297E-02  0.5817413E-04
  0.7928572E+00  0.3849063E-03  0.1068115E-03  0.7444591E+04  0.2200049E+04 -0.8588223E-03  0.1679420E-02
  0.8238096E+00 -0.8520225E-03  0.3051758E-03  0.7340502E+04  0.2388126E+04  0.1268773E-02 -0.2241135E-03
  0.8547620E+00  0.1249605E-02  0.2136230E-03  0.7230738E+04  0.2578305E+04 -0.1030924E-02  0.1955986E-02
  0.8857143E+00 -0.6546513E-03 -0.1068115E-03  0.7113011E+04  0.2769836E+04  0.2584150E-03  0.3423691E-03
  0.9166667E+00  0.4327947E-03 -0.1525879E-03  0.6991064E+04  0.2961326E+04 -0.1373291E-03 -0.3128052E-03
  0.9476191E+00 -0.1288179E-03  0.5340576E-03  0.6861486E+04  0.3152292E+04  0.1795400E-02  0.3385544E-03
  0.9785714E+00  0.2370124E-02 -0.9002686E-03  0.6727810E+04  0.3341589E+04 -0.8946439E-03  0.5359650E-03
  0.1009524E+01  0.3869399E-02 -0.4272461E-03  0.6592463E+04  0.3528081E+04 -0.3068312E-02  0.1228333E-02
  0.1040476E+01  0.6159383E-03 -0.1220703E-02  0.6455253E+04  0.3711118E+04  0.4511381E-02  0.3742218E-02
  0.1071429E+01  0.9399414E-03  0.6561279E-03  0.6316328E+04  0.3889763E+04  0.8188884E-04 -0.1144409E-04
  0.1102381E+01  0.2353083E-02  0.1052856E-02  0.6173055E+04  0.4064046E+04 -0.2256192E-02  0.1907349E-02
  0.1133333E+01 -0.1023236E-02  0.3509521E-03  0.6028759E+04  0.4232644E+04 -0.4072750E-03  0.2222061E-02
  0.1164286E+01  0.1677531E-02  0.3204346E-03  0.5883649E+04  0.4394741E+04  0.2542507E-02 -0.6027222E-03
  0.1195238E+01  0.1557491E-02 -0.1525879E-03  0.5738783E+04  0.4549876E+04  0.4043731E-02  0.1386642E-02
  0.1226190E+01  0.1767057E-02  0.1007080E-02  0.5596329E+04  0.4696793E+04  0.4377198E-02  0.2613068E-02
  0.1257143E+01  0.1529347E-02 -0.3967285E-03  0.5454195E+04  0.4839639E+04 -0.8951534E-03  0.1735687E-02
  0.1288095E+01  0.3435343E-02 -0.1861572E-02  0.5313490E+04  0.4968374E+04 -0.3571572E-02  0.1079559E-02
  0.1319048E+01 -0.1087395E-02 -0.3051758E-03  0.5176859E+04  0.5091399E+04 -0.6102138E-03 -0.4138947E-03
  0.1350000E+01  0.4069010E-03 -0.4577637E-03  0.5040751E+04  0.5206346E+04  0.1438282E-02 -0.3599167E-02
  0.1380952E+01 -0.5745724E-03 -0.1037598E-02  0.4908858E+04  0.5312010E+04  0.3491632E-02 -0.1277924E-03
  0.1411905E+01  0.1448170E-02  0.3051758E-04  0.4768187E+04  0.5403285E+04  0.3247574E-02 -0.2864838E-02
  0.1442857E+01  0.7402779E-03  0.3967285E-03  0.4642235E+04  0.5492048E+04 -0.1019204E-02  0.9574890E-03
  0.1473810E+01 -0.5590781E-03  0.7324219E-03  0.4516426E+04  0.5572064E+04  0.8735594E-03 -0.7019043E-03
  0.1504762E+01 -0.2839294E-03 -0.1220703E-02  0.4396764E+04  0.5643377E+04  0.3561793E-03  0.2685547E-02
  0.1535714E+01  0.9935955E-03  0.1251221E-02  0.4282108E+04  0.5704870E+04  0.3093808E-02  0.2868652E-02
  0.1566667E+01  0.2921896E-02  0.2410889E-02  0.4169505E+04  0.5758471E+04 -0.1335550E-02  0.1014709E-02
  0.1597619E+01  0.4393440E-03 -0.9765625E-03  0.4063418E+04  0.5802788E+04  0.5085884E-03 -0.3902435E-02
  0.1628572E+01  0.5809048E-03  0.1617432E-02  0.3962142E+04  0.5837760E+04  0.1589290E-02  0.3318787E-02
  0.1659524E+01 -0.7355743E-03  0.7934570E-03  0.3865287E+04  0.5866816E+04  0.1293002E-02  0.1266479E-02
  0.1690476E+01  0.5415795E-03  0.2166748E-02  0.3770697E+04  0.5888261E+04 -0.2087338E-03  0.3944397E-02
  0.1721429E+01  0.7977624E-03 -0.4882812E-03  0.3680255E+04  0.5903433E+04 -0.5462457E-03  0.1487732E-03
  0.1752381E+01  0.1776322E-02  0.8544922E-03  0.3595871E+04  0.5911337E+04 -0.4549649E-03 -0.1869202E-02
  0.1783333E+01  0.1950843E-02 -0.1159668E-02  0.3514570E+04  0.5912421E+04 -0.2471710E-02  0.5683899E-03
  0.1814286E+01  0.9251392E-03  0.1831055E-03  0.3436191E+04  0.5907114E+04 -0.3081344E-02 -0.1441956E-02
  0.1845238E+01  0.6615423E-03  0.9155273E-03  0.3363271E+04  0.5895101E+04  0.7907499E-03  0.2346039E-02
  0.1876190E+01  0.1610306E-02  0.2258301E-02  0.3295068E+04  0.5875487E+04 -0.1950869E-02  0.1926422E-02
  0.1907143E+01 -0.2880311E-03  0.7324219E-03  0.3230874E+04  0.5852965E+04  0.8470914E-03  0.3253937E-02
  0.1938095E+01  0.6062275E-03 -0.1312256E-02  0.3170136E+04  0.5825591E+04  0.4015274E-03 -0.2094269E-02
  0.1969048E+01  0.1402628E-02  0.5493164E-03  0.3110755E+04  0.5792851E+04 -0.1610891E-02  0.1945496E-02
  0.2000000E+01  0.1831055E-03  0.8239746E-03  0.3057181E+04  0.5757004E+04  0.1022339E-02  0.4272461E-03
Zone t="Motion of body    1 in DoF   3",I=    64,F=POINT
  0.5000000E-01 -0.4596207E+05 -0.9245616E-03  0.9450912E-02  0.3217201E-04  0.1338272E+06  0.1585335E-02
  0.8095238E-01 -0.4631337E+05 -0.3815338E-02  0.6956493E-02  0.2188347E-04  0.1342848E+06  0.6603973E-02
  0.1119048E+00 -0.4649279E+05 -0.1075668E-01  0.3528189E-02  0.2356968E-04  0.1344184E+06  0.1800680E-01
  0.1428571E+00 -0.4652941E+05 -0.2364859E-01  0.1729011E-02  0.9249896E-05  0.1344350E+06  0.3934063E-01
  0.1738095E+00 -0.4654825E+05 -0.4708907E-01  0.4790058E-02  0.6766571E-04  0.1344680E+06  0.7854667E-01
  0.2047619E+00 -0.4657130E+05 -0.8714405E-01  0.3455850E-02  0.6381312E-04  0.1344797E+06  0.1454391E+00
  0.2357143E+00 -0.4658962E+05 -0.1531564E+00  0.1065688E-01  0.1828754E-03  0.1345005E+06  0.2552492E+00
  0.2666667E+00 -0.4661866E+05 -0.2607203E+00  0.4506111E-02  0.8440891E-04  0.1345297E+06  0.4334001E+00
  0.2976190E+00 -0.4663798E+05 -0.4355811E+00  0.3492737E-02  0.1535011E-03  0.1345518E+06  0.7228124E+00
  0.3285715E+00 -0.4666005E+05 -0.7178663E+00 -0.1944666E-02 -0.4404876E-04  0.1345796E+06  0.1188561E+01
  0.3595238E+00 -0.4669868E+05 -0.1175214E+01  0.6451133E-02  0.2008658E-03  0.1346194E+06  0.1939458E+01
  0.3904762E+00 -0.4672976E+05 -0.1907044E+01 -0.9476265E-03 -0.1641922E-05  0.1346520E+06  0.3136769E+01
  0.4214286E+00 -0.4675165E+05 -0.3051794E+01  0.3783662E-02  0.2704319E-03  0.1346979E+06  0.5002061E+01
  0.4523810E+00 -0.4684284E+05 -0.4847114E+01 -0.1416658E-02 -0.1943111E-04  0.1347782E+06  0.7913239E+01
  0.4833333E+00 -0.4688538E+05 -0.7499159E+01  0.7158476E-02  0.5589984E-03  0.1348372E+06  0.1219429E+02
  0.5142857E+00 -0.4695212E+05 -0.1141580E+02 -0.1290639E-02 -0.2931952E-03  0.1348970E+06  0.1848321E+02
  0.5452381E+00 -0.4698477E+05 -0.1694013E+02  0.1399278E-03 -0.1031607E-03  0.1349557E+06  0.2731481E+02
  0.5761905E+00 -0.4706304E+05 -0.2456464E+02 -0.8408097E-03 -0.1458824E-04  0.1350474E+06  0.3940791E+02
  0.6071429E+00 -0.4718904E+05 -0.3497797E+02 -0.3505931E-02 -0.3495365E-03  0.1351728E+06  0.5582824E+02
  0.6380953E+00 -0.4724501E+05 -0.4863782E+02 -0.1685868E-02 -0.5028248E-03  0.1352548E+06  0.7723427E+02
  0.6690477E+00 -0.4731735E+05 -0.6644856E+02  0.2668387E-02  0.5282164E-03  0.1353507E+06  0.1049717E+03
  0.7000000E+00 -0.4745225E+05 -0.8949950E+02  0.4643031E-02  0.2598763E-03  0.1354896E+06  0.1405563E+03
  0.7309524E+00 -0.4754688E+05 -0.1186163E+03  0.5145740E-02  0.1472712E-02  0.1355953E+06  0.1851131E+03
  0.7619048E+00 -0.4766355E+05 -0.1551095E+03  0.3064155E-02  0.1145005E-02  0.1357337E+06  0.2405394E+03
  0.7928572E+00 -0.4781318E+05 -0.2004579E+03 -0.4137743E-02 -0.1142859E-02  0.1358794E+06  0.3087411E+03
  0.8238096E+00 -0.4792614E+05 -0.2558022E+03 -0.1852223E-04  0.2287626E-03  0.1360216E+06  0.3915066E+03
  0.8547620E+00 -0.4803987E+05 -0.3229337E+03 -0.1678042E-02  0.4909039E-03  0.1361687E+06  0.4909574E+03
  0.8857143E+00 -0.4816928E+05 -0.4038911E+03  0.1576331E-02  0.5030632E-03  0.1363071E+06  0.6094393E+03
  0.9166667E+00 -0.4835929E+05 -0.5008867E+03 -0.2496893E-04 -0.4148483E-04  0.1364769E+06  0.7497335E+03
  0.9476191E+00 -0.4851776E+05 -0.6152352E+03  0.3357317E-02  0.2801418E-02  0.1366483E+06  0.9137824E+03
  0.9785714E+00 -0.4865049E+05 -0.7492784E+03  0.1707425E-02  0.7705688E-03  0.1367954E+06  0.1103960E+04
  0.1009524E+01 -0.4880024E+05 -0.9054587E+03 -0.2267226E-04 -0.2942085E-03  0.1369531E+06  0.1323215E+04
  0.1040476E+01 -0.4894986E+05 -0.1086131E+04  0.4472885E-03 -0.4882812E-03  0.1370941E+06  0.1573802E+04
  0.1071429E+01 -0.4913200E+05 -0.1293965E+04 -0.6266276E-03 -0.3213882E-03  0.1372628E+06  0.1858862E+04
  0.1102381E+01 -0.4927472E+05 -0.1530956E+04  0.5758133E-02  0.2932549E-02  0.1373885E+06  0.2179369E+04
  0.1133333E+01 -0.4943031E+05 -0.1800477E+04  0.1871446E-02  0.1548767E-02  0.1375302E+06  0.2538924E+04
  0.1164286E+01 -0.4959131E+05 -0.2104639E+04  0.6814968E-03  0.8144379E-03  0.1376591E+06  0.2939391E+04
  0.1195238E+01 -0.4973913E+05 -0.2446077E+04  0.3842662E-02  0.3406525E-02  0.1377630E+06  0.3381935E+04
  0.1226190E+01 -0.4991521E+05 -0.2827265E+04 -0.4355421E-03 -0.1081467E-02  0.1378778E+06  0.3869681E+04
  0.1257143E+01 -0.5002838E+05 -0.3246535E+04  0.1735687E-02  0.1176834E-02  0.1379538E+06  0.4399790E+04
  0.1288095E+01 -0.5012666E+05 -0.3710415E+04  0.2238896E-02  0.3572464E-02  0.1379862E+06  0.4975268E+04
  0.1319048E+01 -0.5023317E+05 -0.4217548E+04  0.4523101E-02  0.3391266E-02  0.1380421E+06  0.5597270E+04
  0.1350000E+01 -0.5029976E+05 -0.4769593E+04  0.2950032E-02  0.3662109E-03  0.1380291E+06  0.6260577E+04
  0.1380952E+01 -0.5036786E+05 -0.5370417E+04  0.1878410E-02  0.2010345E-02  0.1380000E+06  0.6968228E+04
  0.1411905E+01 -0.5043817E+05 -0.6001203E+04  0.1869652E-02  0.1758575E-02  0.1379591E+06  0.7709946E+04
  0.1442857E+01 -0.5048195E+05 -0.6693904E+04 -0.3701389E-03 -0.3627777E-02  0.1379086E+06  0.8501201E+04
  0.1473810E+01 -0.5046100E+05 -0.7427477E+04 -0.4037786E-03  0.1258850E-02  0.1377558E+06  0.9318916E+04
  0.1504762E+01 -0.5043044E+05 -0.8206809E+04 -0.4461747E-03 -0.2128601E-02  0.1376137E+06  0.1017338E+05
  0.1535714E+01 -0.5039450E+05 -0.9028116E+04 -0.6160292E-03  0.1022339E-02  0.1374602E+06  0.1105685E+05
  0.1566667E+01 -0.5027477E+05 -0.9881044E+04  0.1383031E-02  0.1922607E-02  0.1372000E+06  0.1194728E+05
  0.1597619E+01 -0.5014919E+05 -0.1076996E+05  0.4011401E-03  0.3952026E-02  0.1369322E+06  0.1285533E+05
  0.1628572E+01 -0.5001549E+05 -0.1168652E+05  0.5096971E-02  0.6416321E-02  0.1366381E+06  0.1376871E+05
  0.1659524E+01 -0.4982402E+05 -0.1262189E+05  0.2050414E-02  0.3616333E-02  0.1363229E+06  0.1468219E+05
  0.1690476E+01 -0.4957402E+05 -0.1356657E+05  0.2039950E-02  0.2883911E-02  0.1359261E+06  0.1556740E+05
  0.1721429E+01 -0.4928266E+05 -0.1452062E+05  0.6293459E-03 -0.1831055E-03  0.1354942E+06  0.1643072E+05
  0.1752381E+01 -0.4899570E+05 -0.1548557E+05 -0.6443522E-03  0.1525879E-04  0.1350840E+06  0.1728286E+05
  0.1783333E+01 -0.4867150E+05 -0.1644176E+05  0.1694153E-02  0.1144409E-02  0.1346284E+06  0.1809072E+05
  0.1814286E+01 -0.4829320E+05 -0.1737712E+05 -0.1093346E-03  0.2410889E-02  0.1341170E+06  0.1883956E+05
  0.1845238E+01 -0.4790787E+05 -0.1829445E+05  0.8269279E-03  0.2395630E-02  0.1336085E+06  0.1954597E+05
  0.1876190E+01 -0.4751763E+05 -0.1918121E+05  0.3090486E-02  0.2120972E-02  0.1330908E+06  0.2018869E+05
  0.1907143E+01 -0.4709001E+05 -0.2002869E+05  0.2544275E-02  0.1831055E-02  0.1325827E+06  0.2077683E+05
  0.1938095E+01 -0.4663298E+05 -0.2082435E+05  0.1590363E-02  0.1983643E-02  0.1320546E+06  0.2128380E+05
  0.1969048E+01 -0.4611814E+05 -0.2154447E+05  0.2720013E-02  0.1861572E-02  0.1314667E+06  0.2166458E+05
  0.2000000E+01 -0.4561839E+05 -0.2222485E+05 -0.6484985E-03  0.2822876E-02  0.1309295E+06  0.2200478E+05
