VARIABLES="w (rad/s)"
"abs(F   1   1)" "angle(F   1   1)"
"abs(F   1   2)" "angle(F   1   2)"
"abs(F   1   3)" "angle(F   1   3)"
Zone t="Diffraction force - beta =   0.000 deg",I=    64,F=POINT
  0.5000000E-01  0.1670526E+04 -0.1570794E+01  0.1148726E+03 -0.3110592E+01  0.4233234E+04  0.1570798E+01
  0.8095238E-01  0.2746688E+04 -0.1570791E+01  0.2980286E+03 -0.3109585E+01  0.6957004E+04  0.1570801E+01
  0.1119048E+00  0.3841100E+04 -0.1570786E+01  0.5671225E+03 -0.3108407E+01  0.9723734E+04  0.1570807E+01
  0.1428571E+00  0.4966889E+04 -0.1570778E+01  0.9199705E+03 -0.3106799E+01  0.1257058E+05  0.1570814E+01
  0.1738095E+00  0.6140759E+04 -0.1570767E+01  0.1356865E+04 -0.3104775E+01  0.1552595E+05  0.1570825E+01
  0.2047619E+00  0.7382084E+04 -0.1570751E+01  0.1880129E+04 -0.3102253E+01  0.1864104E+05  0.1570842E+01
  0.2357143E+00  0.8697192E+04 -0.1570727E+01  0.2485296E+04 -0.3099003E+01  0.2195456E+05  0.1570866E+01
  0.2666667E+00  0.1011051E+05 -0.1570692E+01  0.3173682E+04 -0.3095086E+01  0.2549067E+05  0.1570900E+01
  0.2976190E+00  0.1165554E+05 -0.1570640E+01  0.3944083E+04 -0.3090116E+01  0.2934186E+05  0.1570952E+01
  0.3285715E+00  0.1332688E+05 -0.1570564E+01  0.4791909E+04 -0.3084180E+01  0.3352052E+05  0.1571028E+01
  0.3595238E+00  0.1518710E+05 -0.1570449E+01  0.5711735E+04 -0.3076914E+01  0.3811658E+05  0.1571142E+01
  0.3904762E+00  0.1721984E+05 -0.1570278E+01  0.6705068E+04 -0.3068385E+01  0.4315509E+05  0.1571312E+01
  0.4214286E+00  0.1948515E+05 -0.1570029E+01  0.7741111E+04 -0.3058734E+01  0.4878365E+05  0.1571559E+01
  0.4523810E+00  0.2200109E+05 -0.1569666E+01  0.8850264E+04 -0.3047696E+01  0.5495112E+05  0.1571921E+01
  0.4833333E+00  0.2473456E+05 -0.1569163E+01  0.9952786E+04 -0.3036303E+01  0.6164138E+05  0.1572421E+01
  0.5142857E+00  0.2773118E+05 -0.1568468E+01  0.1111503E+05 -0.3024291E+01  0.6896091E+05  0.1573113E+01
  0.5452381E+00  0.3090076E+05 -0.1567543E+01  0.1225955E+05 -0.3012033E+01  0.7673077E+05  0.1574032E+01
  0.5761905E+00  0.3432089E+05 -0.1566349E+01  0.1340960E+05 -0.3000111E+01  0.8496021E+05  0.1575221E+01
  0.6071429E+00  0.3797177E+05 -0.1564815E+01  0.1459615E+05 -0.2988244E+01  0.9372648E+05  0.1576748E+01
  0.6380953E+00  0.4174670E+05 -0.1562904E+01  0.1570508E+05 -0.2976480E+01  0.1027850E+06  0.1578648E+01
  0.6690477E+00  0.4569903E+05 -0.1560544E+01  0.1682658E+05 -0.2965177E+01  0.1122335E+06  0.1580994E+01
  0.7000000E+00  0.4987701E+05 -0.1557664E+01  0.1796722E+05 -0.2954321E+01  0.1221561E+06  0.1583856E+01
  0.7309524E+00  0.5417226E+05 -0.1554199E+01  0.1898950E+05 -0.2942989E+01  0.1321848E+06  0.1587306E+01
  0.7619048E+00  0.5865446E+05 -0.1550070E+01  0.2000266E+05 -0.2932152E+01  0.1425793E+06  0.1591417E+01
  0.7928572E+00  0.6335074E+05 -0.1545204E+01  0.2101528E+05 -0.2921961E+01  0.1534393E+06  0.1596259E+01
  0.8238096E+00  0.6806934E+05 -0.1539479E+01  0.2193909E+05 -0.2911659E+01  0.1642850E+06  0.1601950E+01
  0.8547620E+00  0.7299212E+05 -0.1532857E+01  0.2278150E+05 -0.2901194E+01  0.1756948E+06  0.1608513E+01
  0.8857143E+00  0.7802858E+05 -0.1525245E+01  0.2358733E+05 -0.2891232E+01  0.1869452E+06  0.1616093E+01
  0.9166667E+00  0.8332233E+05 -0.1516598E+01  0.2438416E+05 -0.2882078E+01  0.1987039E+06  0.1624699E+01
  0.9476191E+00  0.8857795E+05 -0.1506746E+01  0.2506411E+05 -0.2872811E+01  0.2102122E+06  0.1634508E+01
  0.9785714E+00  0.9397383E+05 -0.1495660E+01  0.2562959E+05 -0.2863172E+01  0.2220167E+06  0.1645530E+01
  0.1009524E+01  0.9941691E+05 -0.1483247E+01  0.2614480E+05 -0.2853975E+01  0.2337264E+06  0.1657879E+01
  0.1040476E+01  0.1049905E+06 -0.1469487E+01  0.2662353E+05 -0.2845319E+01  0.2456168E+06  0.1671560E+01
  0.1071429E+01  0.1105349E+06 -0.1454253E+01  0.2707763E+05 -0.2837318E+01  0.2575012E+06  0.1686653E+01
  0.1102381E+01  0.1159810E+06 -0.1437562E+01  0.2733110E+05 -0.2828778E+01  0.2686182E+06  0.1703257E+01
  0.1133333E+01  0.1215241E+06 -0.1419414E+01  0.2751598E+05 -0.2820201E+01  0.2799225E+06  0.1721282E+01
  0.1164286E+01  0.1269271E+06 -0.1399714E+01  0.2764771E+05 -0.2812080E+01  0.2904822E+06  0.1740910E+01
  0.1195238E+01  0.1322871E+06 -0.1378501E+01  0.2773593E+05 -0.2804343E+01  0.3007947E+06  0.1762036E+01
  0.1226190E+01  0.1374969E+06 -0.1355724E+01  0.2778989E+05 -0.2797062E+01  0.3107198E+06  0.1784674E+01
  0.1257143E+01  0.1421583E+06 -0.1331200E+01  0.2772449E+05 -0.2789815E+01  0.3192295E+06  0.1809026E+01
  0.1288095E+01  0.1468094E+06 -0.1305274E+01  0.2752672E+05 -0.2782688E+01  0.3274079E+06  0.1834822E+01
  0.1319048E+01  0.1510921E+06 -0.1277826E+01  0.2727420E+05 -0.2775411E+01  0.3349540E+06  0.1861990E+01
  0.1350000E+01  0.1548032E+06 -0.1248963E+01  0.2698550E+05 -0.2768500E+01  0.3408023E+06  0.1890628E+01
  0.1380952E+01  0.1582681E+06 -0.1219192E+01  0.2665839E+05 -0.2761873E+01  0.3458405E+06  0.1920183E+01
  0.1411905E+01  0.1607651E+06 -0.1188374E+01  0.2629327E+05 -0.2755543E+01  0.3491822E+06  0.1950479E+01
  0.1442857E+01  0.1630529E+06 -0.1156529E+01  0.2587252E+05 -0.2749587E+01  0.3513675E+06  0.1982050E+01
  0.1473810E+01  0.1646141E+06 -0.1123760E+01  0.2532093E+05 -0.2744007E+01  0.3516975E+06  0.2014581E+01
  0.1504762E+01  0.1657148E+06 -0.1090259E+01  0.2472472E+05 -0.2738172E+01  0.3513760E+06  0.2047678E+01
  0.1535714E+01  0.1661098E+06 -0.1056289E+01  0.2410298E+05 -0.2732633E+01  0.3493290E+06  0.2081235E+01
  0.1566667E+01  0.1658156E+06 -0.1022113E+01  0.2347061E+05 -0.2727364E+01  0.3456298E+06  0.2115072E+01
  0.1597619E+01  0.1650235E+06 -0.9882079E+00  0.2280818E+05 -0.2722148E+01  0.3408733E+06  0.2148569E+01
  0.1628572E+01  0.1636148E+06 -0.9543767E+00  0.2213417E+05 -0.2717057E+01  0.3349918E+06  0.2181915E+01
  0.1659524E+01  0.1614225E+06 -0.9207064E+00  0.2144879E+05 -0.2712399E+01  0.3274141E+06  0.2215111E+01
  0.1690476E+01  0.1584887E+06 -0.8874207E+00  0.2068444E+05 -0.2708956E+01  0.3181215E+06  0.2247950E+01
  0.1721429E+01  0.1551113E+06 -0.8544810E+00  0.1989277E+05 -0.2705153E+01  0.3083396E+06  0.2280370E+01
  0.1752381E+01  0.1513270E+06 -0.8222500E+00  0.1908924E+05 -0.2701547E+01  0.2980391E+06  0.2311929E+01
  0.1783333E+01  0.1468982E+06 -0.7910975E+00  0.1829937E+05 -0.2698242E+01  0.2861390E+06  0.2342541E+01
  0.1814286E+01  0.1421502E+06 -0.7610186E+00  0.1752355E+05 -0.2695197E+01  0.2738252E+06  0.2372122E+01
  0.1845238E+01  0.1371085E+06 -0.7319208E+00  0.1673611E+05 -0.2692294E+01  0.2612585E+06  0.2400485E+01
  0.1876190E+01  0.1317718E+06 -0.7037208E+00  0.1595985E+05 -0.2689597E+01  0.2485054E+06  0.2427854E+01
  0.1907143E+01  0.1259960E+06 -0.6763325E+00  0.1520642E+05 -0.2687008E+01  0.2349984E+06  0.2454346E+01
  0.1938095E+01  0.1199626E+06 -0.6502085E+00  0.1444868E+05 -0.2685748E+01  0.2210609E+06  0.2479460E+01
  0.1969048E+01  0.1137761E+06 -0.6252183E+00  0.1368436E+05 -0.2684891E+01  0.2070980E+06  0.2503474E+01
  0.2000000E+01  0.1075438E+06 -0.6010497E+00  0.1291402E+05 -0.2684484E+01  0.1935512E+06  0.2526622E+01
