VARIABLES="w (rad/s)"
"A   1   1" "B   1   1"
"A   1   2" "B   1   2"
"A   1   3" "B   1   3"
Zone t="Motion of body    1 in DoF   1",I=    64,F=POINT
  0.5000000E-01  0.3257978E+05  0.1412619E-02  0.8621216E-02  0.8294441E-05  0.4729617E+04  0.9386760E-03
  0.8095238E-01  0.3272271E+05  0.6207362E-02 -0.2120523E-03  0.1998838E-04  0.4582709E+04  0.4073919E-02
  0.1119048E+00  0.3279173E+05  0.1745928E-01  0.3323657E-02 -0.4583489E-05  0.4629605E+04  0.1147352E-01
  0.1428571E+00  0.3281790E+05  0.3924780E-01 -0.7877349E-03 -0.2169746E-04  0.4663514E+04  0.2594625E-01
  0.1738095E+00  0.3285234E+05  0.7809570E-01  0.5168654E-02  0.6155128E-04  0.4682363E+04  0.5178178E-01
  0.2047619E+00  0.3287125E+05  0.1440174E+00  0.2570929E-02  0.4633842E-04  0.4712582E+04  0.9560722E-01
  0.2357143E+00  0.3291956E+05  0.2534603E+00  0.2783573E-02 -0.4668720E-04  0.4781085E+04  0.1688947E+00
  0.2666667E+00  0.3295096E+05  0.4320388E+00  0.4220009E-02  0.8840347E-04  0.4780643E+04  0.2888648E+00
  0.2976190E+00  0.3298884E+05  0.7239286E+00  0.2409668E-02  0.8661347E-04  0.4845188E+04  0.4862607E+00
  0.3285715E+00  0.3305558E+05  0.1196978E+01 -0.1753102E-02 -0.5263556E-04  0.4944144E+04  0.8082243E+00
  0.3595238E+00  0.3310790E+05  0.1963242E+01 -0.3289229E-02 -0.5036965E-04  0.4972162E+04  0.1332029E+01
  0.3904762E+00  0.3314818E+05  0.3196498E+01  0.1055089E-02  0.1025125E-03  0.5008245E+04  0.2180070E+01
  0.4214286E+00  0.3323548E+05  0.5135093E+01  0.3095723E-02  0.5814806E-04  0.5141159E+04  0.3527119E+01
  0.4523810E+00  0.3332960E+05  0.8177824E+01 -0.2428557E-02 -0.1754537E-03  0.5248409E+04  0.5654335E+01
  0.4833333E+00  0.3339971E+05  0.1269683E+02  0.1641635E-02  0.3192052E-03  0.5282563E+04  0.8834723E+01
  0.5142857E+00  0.3348729E+05  0.1938842E+02  0.3723569E-02  0.3146231E-03  0.5385217E+04  0.1358806E+02
  0.5452381E+00  0.3361071E+05  0.2890551E+02  0.2294815E-02  0.4838705E-03  0.5554192E+04  0.2042552E+02
  0.5761905E+00  0.3373875E+05  0.4207750E+02  0.3032211E-02  0.2313852E-03  0.5695580E+04  0.2997690E+02
  0.6071429E+00  0.3385772E+05  0.6010702E+02  0.1595890E-02 -0.3582239E-03  0.5785884E+04  0.4314728E+02
  0.6380953E+00  0.3397632E+05  0.8394030E+02 -0.1817390E-02  0.3497005E-03  0.5884773E+04  0.6074632E+02
  0.6690477E+00  0.3411816E+05  0.1152004E+03  0.2451723E-02 -0.1716614E-03  0.6058952E+04  0.8413447E+02
  0.7000000E+00  0.3429100E+05  0.1557267E+03 -0.3182547E-02  0.1045465E-02  0.6269613E+04  0.1148216E+03
  0.7309524E+00  0.3447249E+05  0.2072082E+03  0.2045771E-02  0.4744530E-04  0.6453358E+04  0.1542170E+03
  0.7619048E+00  0.3463644E+05  0.2719693E+03  0.8811950E-03  0.1034021E-02  0.6591945E+04  0.2042818E+03
  0.7928572E+00  0.3480721E+05  0.3525330E+03 -0.2059249E-02 -0.3719330E-04  0.6754498E+04  0.2673258E+03
  0.8238096E+00  0.3499855E+05  0.4516445E+03  0.3778535E-02  0.7977486E-03  0.6969991E+04  0.3459601E+03
  0.8547620E+00  0.3520723E+05  0.5722662E+03  0.6283730E-02  0.6127357E-03  0.7216672E+04  0.4429700E+03
  0.8857143E+00  0.3543031E+05  0.7177323E+03  0.5771268E-02  0.1088142E-02  0.7477198E+04  0.5615356E+03
  0.9166667E+00  0.3565395E+05  0.8915003E+03 -0.6541859E-02 -0.2645493E-02  0.7727035E+04  0.7050286E+03
  0.9476191E+00  0.3587289E+05  0.1097179E+04  0.4009458E-02  0.3528595E-04  0.7950418E+04  0.8769674E+03
  0.9785714E+00  0.3608871E+05  0.1338426E+04  0.1138283E-02 -0.2298355E-03  0.8166772E+04  0.1081203E+04
  0.1009524E+01  0.3629214E+05  0.1618741E+04  0.6091280E-02  0.2673149E-02  0.8402697E+04  0.1321965E+04
  0.1040476E+01  0.3650755E+05  0.1941852E+04  0.3138352E-02 -0.2136230E-03  0.8677040E+04  0.1603643E+04
  0.1071429E+01  0.3672210E+05  0.2311268E+04 -0.2278646E-03 -0.1399994E-02  0.8965021E+04  0.1930469E+04
  0.1102381E+01  0.3693080E+05  0.2730264E+04 -0.1661000E-03 -0.5626678E-03  0.9254771E+04  0.2306842E+04
  0.1133333E+01  0.3713159E+05  0.3202060E+04 -0.2100328E-02  0.1974106E-02  0.9522068E+04  0.2736778E+04
  0.1164286E+01  0.3730152E+05  0.3729028E+04 -0.1179514E-03  0.2277374E-02  0.9760913E+04  0.3224724E+04
  0.1195238E+01  0.3745115E+05  0.4312898E+04 -0.3344775E-02 -0.7820129E-03  0.9973727E+04  0.3773645E+04
  0.1226190E+01  0.3756870E+05  0.4954343E+04  0.4828296E-02  0.1194000E-02  0.1016171E+05  0.4386110E+04
  0.1257143E+01  0.3764918E+05  0.5656853E+04  0.1844926E-02  0.3776550E-03  0.1031692E+05  0.5066878E+04
  0.1288095E+01  0.3771638E+05  0.6407234E+04  0.2037514E-02  0.3334045E-02  0.1048850E+05  0.5807586E+04
  0.1319048E+01  0.3773890E+05  0.7215689E+04 -0.4372717E-02 -0.1213074E-02  0.1061632E+05  0.6618275E+04
  0.1350000E+01  0.3772697E+05  0.8075292E+04  0.8590133E-03 -0.4104614E-02  0.1071227E+05  0.7495286E+04
  0.1380952E+01  0.3768194E+05  0.8980912E+04  0.6629681E-03 -0.4867554E-02  0.1078690E+05  0.8436483E+04
  0.1411905E+01  0.3749026E+05  0.9887969E+04  0.5619763E-03 -0.7019043E-03  0.1065566E+05  0.9399565E+04
  0.1442857E+01  0.3736697E+05  0.1086879E+05  0.4082104E-02  0.2471924E-02  0.1065076E+05  0.1045572E+05
  0.1473810E+01  0.3719843E+05  0.1187741E+05 -0.1760061E-02 -0.1747131E-02  0.1060745E+05  0.1156363E+05
  0.1504762E+01  0.3699545E+05  0.1290796E+05  0.4482028E-02  0.3524780E-02  0.1050768E+05  0.1271510E+05
  0.1535714E+01  0.3673871E+05  0.1395074E+05 -0.2265398E-02  0.1358032E-02  0.1037211E+05  0.1390702E+05
  0.1566667E+01  0.3645223E+05  0.1499845E+05 -0.5376288E-02 -0.9307861E-03  0.1018508E+05  0.1512648E+05
  0.1597619E+01  0.3612732E+05  0.1604156E+05  0.1184319E-02  0.1083374E-02  0.9958710E+04  0.1636732E+05
  0.1628572E+01  0.3576502E+05  0.1707334E+05  0.9369432E-03 -0.4348755E-02  0.9688194E+04  0.1762123E+05
  0.1659524E+01  0.3537493E+05  0.1808495E+05  0.3199748E-02  0.2227783E-02  0.9376077E+04  0.1887791E+05
  0.1690476E+01  0.3495605E+05  0.1906971E+05  0.1372001E-02  0.4852295E-02  0.9025916E+04  0.2013187E+05
  0.1721429E+01  0.3451458E+05  0.2002101E+05 -0.1985542E-02  0.4684448E-02  0.8643381E+04  0.2137540E+05
  0.1752381E+01  0.3405424E+05  0.2093464E+05  0.0000000E+00 -0.2288818E-03  0.8225016E+04  0.2259983E+05
  0.1783333E+01  0.3357403E+05  0.2180597E+05 -0.4107039E-03  0.6134033E-02  0.7780617E+04  0.2380145E+05
  0.1814286E+01  0.3308861E+05  0.2262907E+05  0.3633274E-02  0.2258301E-02  0.7311081E+04  0.2496869E+05
  0.1845238E+01  0.3259317E+05  0.2340059E+05  0.8103893E-03  0.3051758E-04  0.6824242E+04  0.2609985E+05
  0.1876190E+01  0.3209040E+05  0.2412231E+05  0.2049480E-02  0.1831055E-02  0.6315982E+04  0.2718935E+05
  0.1907143E+01  0.3159065E+05  0.2478868E+05 -0.1824197E-02  0.6103516E-04  0.5795280E+04  0.2823059E+05
  0.1938095E+01  0.3109208E+05  0.2540107E+05  0.4723851E-03  0.4211426E-02  0.5263497E+04  0.2922469E+05
  0.1969048E+01  0.3059601E+05  0.2595524E+05 -0.4649595E-03 -0.6927490E-02  0.4732030E+04  0.3017218E+05
  0.2000000E+01  0.3011253E+05  0.2646138E+05  0.3158569E-02  0.4577637E-03  0.4185878E+04  0.3106310E+05
Zone t="Motion of body    1 in DoF   2",I=    64,F=POINT
  0.5000000E-01 -0.4100800E-02  0.4768372E-06  0.4940436E+05  0.1034996E+03 -0.4959106E-02 -0.5483627E-05
  0.8095238E-01 -0.7139094E-02 -0.1788139E-05  0.4899632E+05  0.1717502E+03 -0.9424546E-04  0.4291534E-05
  0.1119048E+00 -0.6510958E-02  0.1466274E-04  0.4876151E+05  0.2462449E+03 -0.5454206E-03  0.2384186E-04
  0.1428571E+00 -0.2349854E-02  0.2551079E-04  0.4868145E+05  0.3299143E+03  0.2136230E-02 -0.1621246E-04
  0.1738095E+00 -0.2436181E-02 -0.6675720E-05  0.4866865E+05  0.4264902E+03 -0.1668015E-02 -0.2574921E-04
  0.2047619E+00  0.2570929E-02  0.7081032E-04  0.4876726E+05  0.5405465E+03 -0.3651464E-02 -0.2193451E-04
  0.2357143E+00 -0.3576567E-02  0.2861023E-05  0.4889097E+05  0.6786815E+03 -0.3236713E-02 -0.1716614E-04
  0.2666667E+00 -0.5464553E-02  0.1478195E-04  0.4909430E+05  0.8466816E+03  0.9727477E-03 -0.5149841E-04
  0.2976190E+00 -0.2255859E-02  0.3671646E-04  0.4934116E+05  0.1056723E+04 -0.2717285E-02 -0.0000000E+00
  0.3285715E+00 -0.2623848E-02  0.1049042E-04  0.4960067E+05  0.1316280E+04 -0.4551099E-02 -0.2670288E-04
  0.3595238E+00 -0.1973537E-02  0.1621246E-04  0.4985505E+05  0.1640237E+04  0.9337165E-03 -0.1678467E-03
  0.3904762E+00 -0.1621711E-02 -0.3719330E-04  0.5013994E+05  0.2040980E+04  0.0000000E+00  0.6866455E-04
  0.4214286E+00  0.3077620E-03 -0.3623962E-04  0.5031031E+05  0.2516265E+04 -0.5793167E-03 -0.1907349E-03
  0.4523810E+00 -0.4384894E-03  0.3929138E-03  0.5042425E+05  0.3090837E+04  0.2765856E-02  0.7629395E-04
  0.4833333E+00 -0.5840433E-02 -0.2841949E-03  0.5043396E+05  0.3721569E+04  0.1515356E-02 -0.2059937E-03
  0.5142857E+00  0.4153782E-03 -0.7343292E-03  0.5035251E+05  0.4437499E+04  0.3382365E-02 -0.1144409E-03
  0.5452381E+00 -0.4561645E-02 -0.2174377E-03  0.5016392E+05  0.5204456E+04  0.2070931E-02  0.9918213E-04
  0.5761905E+00  0.2277469E-02  0.6866455E-04  0.4986679E+05  0.6010382E+04  0.4819759E-02  0.6637573E-03
  0.6071429E+00  0.2010570E-03  0.6103516E-04  0.4950327E+05  0.6872201E+04  0.0000000E+00  0.7629395E-04
  0.6380953E+00 -0.2893476E-02 -0.1106262E-03  0.4911329E+05  0.7746375E+04 -0.1530434E-02  0.1525879E-04
  0.6690477E+00 -0.2805228E-02  0.6103516E-04  0.4864103E+05  0.8651619E+04 -0.1003496E-02  0.4577637E-04
  0.7000000E+00 -0.1155308E-02  0.2212524E-03  0.4809132E+05  0.9590803E+04  0.1831055E-02  0.6103516E-04
  0.7309524E+00  0.5218803E-02  0.3967285E-03  0.4751848E+05  0.1053880E+05  0.2505026E-03 -0.6103516E-04
  0.7619048E+00  0.5667686E-02 -0.3738403E-03  0.4691006E+05  0.1149973E+05  0.2403259E-02  0.5493164E-03
  0.7928572E+00  0.4407178E-02  0.1602173E-03  0.4626529E+05  0.1247012E+05  0.1231700E-02 -0.4272461E-03
  0.8238096E+00  0.7112536E-02  0.1029968E-02  0.4558096E+05  0.1344320E+05  0.2370845E-02  0.9155273E-04
  0.8547620E+00  0.3195420E-02  0.6103516E-04  0.4486425E+05  0.1441329E+05  0.2427805E-02 -0.9155273E-04
  0.8857143E+00 -0.3927907E-02 -0.8392334E-04  0.4411711E+05  0.1537452E+05 -0.2067320E-02  0.1220703E-03
  0.9166667E+00 -0.3329190E-04 -0.7858276E-03  0.4335282E+05  0.1631992E+05 -0.2330433E-02 -0.3662109E-03
  0.9476191E+00  0.2656869E-02  0.2700806E-02  0.4257366E+05  0.1724396E+05 -0.4122173E-02 -0.9155273E-03
  0.9785714E+00 -0.1231841E-02  0.8544922E-03  0.4178716E+05  0.1814130E+05  0.1122691E-02  0.1342773E-02
  0.1009524E+01  0.1375450E-02 -0.1815796E-02  0.4098800E+05  0.1901062E+05 -0.2902049E-02 -0.4272461E-03
  0.1040476E+01  0.7127286E-02 -0.1251221E-02  0.4018386E+05  0.1984519E+05 -0.9972334E-03  0.1037598E-02
  0.1071429E+01 -0.4671224E-02 -0.3967285E-03  0.3937435E+05  0.2064592E+05 -0.4101563E-02  0.7324219E-03
  0.1102381E+01 -0.9689166E-03  0.1678467E-03  0.3856634E+05  0.2140697E+05  0.2989800E-02  0.7629395E-03
  0.1133333E+01 -0.3365910E-03  0.1434326E-02  0.3776031E+05  0.2212410E+05  0.1992618E-02  0.9155273E-03
  0.1164286E+01  0.7208139E-03 -0.1144409E-02  0.3696649E+05  0.2279432E+05 -0.5242283E-04  0.6103516E-04
  0.1195238E+01  0.1723453E-02 -0.1342773E-02  0.3619147E+05  0.2341215E+05 -0.1021305E-02  0.1403809E-02
  0.1226190E+01  0.8959724E-03  0.4730225E-03  0.3543409E+05  0.2397813E+05  0.4181204E-02  0.1342773E-02
  0.1257143E+01 -0.3155795E-03  0.3356934E-03  0.3469158E+05  0.2450705E+05  0.4855069E-04  0.3662109E-03
  0.1288095E+01  0.3719647E-02  0.3509521E-03  0.3396871E+05  0.2495177E+05 -0.3790723E-03  0.7324219E-03
  0.1319048E+01  0.2718488E-02 -0.4119873E-03  0.3326365E+05  0.2535889E+05 -0.4164492E-03 -0.5493164E-03
  0.1350000E+01 -0.1616301E-02 -0.1632690E-02  0.3258608E+05  0.2571654E+05  0.1853660E-02 -0.1037598E-02
  0.1380952E+01  0.7734628E-03  0.9613037E-03  0.3193445E+05  0.2601605E+05 -0.4861766E-03 -0.1831055E-03
  0.1411905E+01  0.4214822E-02  0.6256104E-03  0.3131009E+05  0.2627369E+05 -0.6484342E-03  0.7324219E-03
  0.1442857E+01  0.3807143E-03  0.1998901E-02  0.3070287E+05  0.2647212E+05 -0.2199683E-02 -0.1281738E-02
  0.1473810E+01  0.5383714E-03  0.4760742E-02  0.3012181E+05  0.2661841E+05 -0.1532288E-02  0.4882812E-03
  0.1504762E+01  0.2585785E-02 -0.2044678E-02  0.2957031E+05  0.2671235E+05 -0.2555364E-02  0.5493164E-03
  0.1535714E+01 -0.1450649E-02  0.1495361E-02  0.2904221E+05  0.2676062E+05  0.3020530E-02  0.5493164E-03
  0.1566667E+01  0.1402510E-02  0.1083374E-02  0.2854843E+05  0.2675386E+05 -0.1597303E-02 -0.1342773E-02
  0.1597619E+01 -0.1146115E-03 -0.3662109E-03  0.2808641E+05  0.2669601E+05 -0.1833784E-02  0.1525879E-02
  0.1628572E+01  0.9331954E-02 -0.7629395E-04  0.2764882E+05  0.2659242E+05  0.7120768E-03 -0.7934570E-03
  0.1659524E+01  0.3411226E-02 -0.7476807E-03  0.2724651E+05  0.2643794E+05  0.9194679E-03 -0.1281738E-02
  0.1690476E+01  0.3150187E-02  0.1541138E-02  0.2688417E+05  0.2625249E+05  0.1444212E-02  0.2258301E-02
  0.1721429E+01 -0.1772805E-04  0.1419067E-02  0.2655303E+05  0.2602744E+05 -0.1524613E-02  0.2441406E-03
  0.1752381E+01 -0.8272089E-03 -0.6103516E-03  0.2625762E+05  0.2576870E+05 -0.2020131E-02 -0.9155273E-03
  0.1783333E+01 -0.7871824E-03 -0.1464844E-02  0.2599420E+05  0.2548392E+05 -0.3080279E-02  0.1159668E-02
  0.1814286E+01 -0.3439836E-02 -0.1129150E-02  0.2576903E+05  0.2516555E+05 -0.8073942E-03  0.9155273E-03
  0.1845238E+01  0.6284652E-03 -0.3265381E-02  0.2558047E+05  0.2482471E+05 -0.8600050E-03 -0.3540039E-02
  0.1876190E+01  0.9271457E-03 -0.8850098E-03  0.2541818E+05  0.2447269E+05  0.9759429E-03 -0.1708984E-02
  0.1907143E+01  0.1744188E-02  0.6103516E-04  0.2529476E+05  0.2410134E+05  0.2592280E-02  0.7934570E-03
  0.1938095E+01 -0.1409282E-02 -0.1800537E-02  0.2520528E+05  0.2374424E+05 -0.1039247E-02  0.6103516E-03
  0.1969048E+01 -0.1991577E-02 -0.1678467E-02  0.2514687E+05  0.2339244E+05  0.1270889E-02 -0.1770020E-02
  0.2000000E+01  0.4348755E-03  0.9765625E-03  0.2511813E+05  0.2306175E+05 -0.8850098E-03 -0.1281738E-02
Zone t="Motion of body    1 in DoF   3",I=    64,F=POINT
  0.5000000E-01  0.4924860E+04  0.9638156E-03  0.1506805E-02  0.2373089E-05  0.7765857E+05  0.6950199E-03
  0.8095238E-01  0.4784648E+04  0.4196428E-02 -0.4947887E-02 -0.1683714E-04  0.7784166E+05  0.2800272E-02
  0.1119048E+00  0.4829252E+04  0.1182384E-01  0.7584754E-02  0.3847312E-04  0.7790252E+05  0.7826179E-02
  0.1428571E+00  0.4883243E+04  0.2668039E-01  0.7957458E-02  0.5047467E-04  0.7809818E+05  0.1752419E-01
  0.1738095E+00  0.4885690E+04  0.5326524E-01 -0.1505603E-01 -0.1245338E-03  0.7798085E+05  0.3497456E-01
  0.2047619E+00  0.4931783E+04  0.9836970E-01 -0.4340771E-02 -0.8569739E-04  0.7813393E+05  0.6522546E-01
  0.2357143E+00  0.4996579E+04  0.1736500E+00 -0.8642022E-02 -0.1267749E-03  0.7820757E+05  0.1158347E+00
  0.2666667E+00  0.4983681E+04  0.2971901E+00  0.4892349E-02  0.1184987E-03  0.7806655E+05  0.1989728E+00
  0.2976190E+00  0.5065837E+04  0.4998330E+00 -0.7690430E-02 -0.1658918E-03  0.7829012E+05  0.3360465E+00
  0.3285715E+00  0.5163738E+04  0.8301540E+00 -0.2809607E-02 -0.4750444E-04  0.7842270E+05  0.5606481E+00
  0.3595238E+00  0.5174455E+04  0.1368183E+01 -0.5241545E-02 -0.1766570E-03  0.7827984E+05  0.9280248E+00
  0.3904762E+00  0.5218237E+04  0.2239260E+01 -0.5392679E-02 -0.3484916E-03  0.7835583E+05  0.1527458E+01
  0.4214286E+00  0.5365858E+04  0.3617100E+01  0.8381988E-02  0.4168916E-03  0.7865808E+05  0.2483914E+01
  0.4523810E+00  0.5459452E+04  0.5794598E+01  0.2512882E-02  0.1216345E-03  0.7869084E+05  0.4005816E+01
  0.4833333E+00  0.5480583E+04  0.9056695E+01  0.1894194E-03 -0.1768768E-04  0.7855966E+05  0.6300303E+01
  0.5142857E+00  0.5601092E+04  0.1391632E+02 -0.2284580E-02 -0.2274439E-03  0.7881491E+05  0.9751095E+01
  0.5452381E+00  0.5782901E+04  0.2088787E+02  0.6464662E-02  0.7158220E-03  0.7914538E+05  0.1475825E+02
  0.5761905E+00  0.5911726E+04  0.3063493E+02  0.9003946E-02  0.1302004E-02  0.7922027E+05  0.2182415E+02
  0.6071429E+00  0.5993632E+04  0.4409749E+02  0.6509219E-02  0.7130504E-03  0.7920615E+05  0.3166878E+02
  0.6380953E+00  0.6099973E+04  0.6206794E+02 -0.5332605E-02 -0.8352399E-03  0.7932557E+05  0.4491592E+02
  0.6690477E+00  0.6289568E+04  0.8585560E+02  0.1049110E-01  0.2119541E-02  0.7965069E+05  0.6269282E+02
  0.7000000E+00  0.6502374E+04  0.1170170E+03 -0.3901890E-02 -0.9829998E-03  0.7994754E+05  0.8627910E+02
  0.7309524E+00  0.6674777E+04  0.1570996E+03  0.1085511E-01  0.2609372E-02  0.8005813E+05  0.1169323E+03
  0.7619048E+00  0.6805303E+04  0.2081204E+03  0.1622200E-01  0.3957391E-02  0.8008223E+05  0.1563591E+03
  0.7928572E+00  0.6973658E+04  0.2722363E+03  0.7698127E-04 -0.2467632E-03  0.8026301E+05  0.2064514E+03
  0.8238096E+00  0.7202943E+04  0.3519167E+03  0.2945034E-02  0.8680820E-03  0.8061719E+05  0.2695117E+03
  0.8547620E+00  0.7457957E+04  0.4500389E+03  0.6783573E-03  0.1052856E-02  0.8097803E+05  0.3482132E+03
  0.8857143E+00  0.7714680E+04  0.5699292E+03  0.5478397E-02  0.3079891E-02  0.8127185E+05  0.4457325E+03
  0.9166667E+00  0.7956716E+04  0.7151652E+03  0.9721235E-02  0.4207611E-02  0.8149971E+05  0.5655758E+03
  0.9476191E+00  0.8175015E+04  0.8894824E+03 -0.1288179E-01 -0.5583763E-02  0.8167535E+05  0.7112210E+03
  0.9785714E+00  0.8391817E+04  0.1096492E+04 -0.7079187E-02 -0.4456520E-02  0.8186810E+05  0.8860368E+03
  0.1009524E+01  0.8633453E+04  0.1339514E+04 -0.9794416E-02 -0.4786491E-02  0.8218222E+05  0.1093835E+04
  0.1040476E+01  0.8917482E+04  0.1622924E+04  0.2962370E-02  0.2845764E-02  0.8260032E+05  0.1339483E+04
  0.1071429E+01  0.9211468E+04  0.1951138E+04 -0.5126953E-03 -0.7476807E-03  0.8303947E+05  0.1628188E+04
  0.1102381E+01  0.9499495E+04  0.2329004E+04  0.1115638E-01  0.6488800E-02  0.8343073E+05  0.1966018E+04
  0.1133333E+01  0.9761257E+04  0.2761783E+04  0.7808910E-03  0.1165390E-02  0.8373787E+05  0.2359369E+04
  0.1164286E+01  0.9990698E+04  0.3253233E+04 -0.9200207E-02 -0.6120682E-02  0.8398292E+05  0.2814288E+04
  0.1195238E+01  0.1020059E+05  0.3806633E+04  0.4953331E-02  0.3936768E-02  0.8420995E+05  0.3334412E+04
  0.1226190E+01  0.1038721E+05  0.4422552E+04  0.5251394E-02  0.2223969E-02  0.8446077E+05  0.3921085E+04
  0.1257143E+01  0.1054629E+05  0.5107203E+04  0.1432245E-02 -0.4615784E-03  0.8472535E+05  0.4581694E+04
  0.1288095E+01  0.1072190E+05  0.5846835E+04  0.3032579E-02  0.1888275E-02  0.8504512E+05  0.5307241E+04
  0.1319048E+01  0.1085590E+05  0.6657135E+04  0.1503845E-02  0.5569458E-03  0.8534220E+05  0.6114999E+04
  0.1350000E+01  0.1095441E+05  0.7533642E+04  0.4182038E-02  0.5470276E-02  0.8559110E+05  0.7003403E+04
  0.1380952E+01  0.1103074E+05  0.8473549E+04  0.4640777E-03  0.8926392E-03  0.8580508E+05  0.7971258E+04
  0.1411905E+01  0.1053748E+05  0.9259313E+04 -0.3242171E-03  0.3395081E-02  0.8514941E+05  0.8811688E+04
  0.1442857E+01  0.1053246E+05  0.1029383E+05 -0.4103255E-02 -0.2601624E-02  0.8528493E+05  0.9908696E+04
  0.1473810E+01  0.1048781E+05  0.1137709E+05 -0.1200982E-02 -0.5401611E-02  0.8537619E+05  0.1107835E+05
  0.1504762E+01  0.1039086E+05  0.1250669E+05 -0.1865822E-02 -0.1113892E-02  0.8540436E+05  0.1231834E+05
  0.1535714E+01  0.1025110E+05  0.1366964E+05 -0.8346202E-03 -0.1037598E-02  0.8538923E+05  0.1362127E+05
  0.1566667E+01  0.1006806E+05  0.1486255E+05 -0.4752950E-02  0.1922607E-02  0.8533680E+05  0.1498029E+05
  0.1597619E+01  0.9849381E+04  0.1607387E+05  0.1566357E-02  0.3494263E-02  0.8525931E+05  0.1638722E+05
  0.1628572E+01  0.9585896E+04  0.1729458E+05 -0.1948842E-02 -0.3799438E-02  0.8514244E+05  0.1783348E+05
  0.1659524E+01  0.9288685E+04  0.1851923E+05 -0.9194679E-03  0.4196167E-02  0.8499277E+05  0.1931467E+05
  0.1690476E+01  0.8952595E+04  0.1973943E+05 -0.5054742E-03 -0.3677368E-02  0.8479395E+05  0.2082295E+05
  0.1721429E+01  0.8586229E+04  0.2095165E+05 -0.1772805E-03 -0.4882812E-03  0.8453223E+05  0.2234624E+05
  0.1752381E+01  0.8184828E+04  0.2214501E+05 -0.1637003E-02 -0.6683350E-02  0.8423233E+05  0.2388161E+05
  0.1783333E+01  0.7754841E+04  0.2331197E+05 -0.6365910E-02 -0.6103516E-04  0.8389385E+05  0.2541735E+05
  0.1814286E+01  0.7307623E+04  0.2445209E+05  0.1312016E-02  0.2929688E-02  0.8351912E+05  0.2694799E+05
  0.1845238E+01  0.6844235E+04  0.2555344E+05  0.4630796E-03  0.2471924E-02  0.8312923E+05  0.2846529E+05
  0.1876190E+01  0.6358788E+04  0.2661318E+05 -0.2277200E-03 -0.1800537E-02  0.8270846E+05  0.2996296E+05
  0.1907143E+01  0.5867661E+04  0.2763104E+05 -0.3520380E-02 -0.1403809E-02  0.8226846E+05  0.3143464E+05
  0.1938095E+01  0.5363279E+04  0.2860249E+05 -0.2928788E-02 -0.2014160E-02  0.8180391E+05  0.3288504E+05
  0.1969048E+01  0.4861614E+04  0.2953031E+05  0.2479784E-03 -0.1556396E-02  0.8131724E+05  0.3429826E+05
  0.2000000E+01  0.4349060E+04  0.3041443E+05 -0.1800537E-02 -0.4272461E-03  0.8080502E+05  0.3567548E+05
