VARIABLES="w (rad/s)"
"abs(F   1   1)" "angle(F   1   1)"
"abs(F   1   2)" "angle(F   1   2)"
"abs(F   1   3)" "angle(F   1   3)"
Zone t="Diffraction force - beta =   0.000 deg",I=    64,F=POINT
  0.5000000E-01  0.1412238E+04 -0.1570795E+01  0.3071378E+03 -0.3090283E+01  0.2774308E+03  0.1570795E+01
  0.8095238E-01  0.2309222E+04 -0.1570793E+01  0.7962958E+03 -0.3088444E+01  0.4652251E+03  0.1570794E+01
  0.1119048E+00  0.3225224E+04 -0.1570789E+01  0.1512610E+04 -0.3086171E+01  0.6492450E+03  0.1570792E+01
  0.1428571E+00  0.4169748E+04 -0.1570784E+01  0.2459129E+04 -0.3083346E+01  0.8362516E+03  0.1570788E+01
  0.1738095E+00  0.5152329E+04 -0.1570776E+01  0.3637773E+04 -0.3079732E+01  0.1028028E+04  0.1570783E+01
  0.2047619E+00  0.6184462E+04 -0.1570765E+01  0.5059019E+04 -0.3075266E+01  0.1231351E+04  0.1570775E+01
  0.2357143E+00  0.7281745E+04 -0.1570748E+01  0.6726228E+04 -0.3069606E+01  0.1436422E+04  0.1570764E+01
  0.2666667E+00  0.8459723E+04 -0.1570724E+01  0.8648004E+04 -0.3062716E+01  0.1655856E+04  0.1570746E+01
  0.2976190E+00  0.9731425E+04 -0.1570688E+01  0.1083668E+05 -0.3054097E+01  0.1893430E+04  0.1570719E+01
  0.3285715E+00  0.1111763E+05 -0.1570633E+01  0.1329842E+05 -0.3043777E+01  0.2139440E+04  0.1570675E+01
  0.3595238E+00  0.1264441E+05 -0.1570552E+01  0.1602377E+05 -0.3031185E+01  0.2402402E+04  0.1570609E+01
  0.3904762E+00  0.1431943E+05 -0.1570431E+01  0.1904145E+05 -0.3016354E+01  0.2699377E+04  0.1570509E+01
  0.4214286E+00  0.1617560E+05 -0.1570253E+01  0.2230232E+05 -0.2999748E+01  0.3000443E+04  0.1570352E+01
  0.4523810E+00  0.1821035E+05 -0.1569992E+01  0.2581788E+05 -0.2980501E+01  0.3323734E+04  0.1570112E+01
  0.4833333E+00  0.2043962E+05 -0.1569630E+01  0.2953421E+05 -0.2960974E+01  0.3656044E+04  0.1569757E+01
  0.5142857E+00  0.2283729E+05 -0.1569125E+01  0.3346029E+05 -0.2939927E+01  0.4034268E+04  0.1569258E+01
  0.5452381E+00  0.2538259E+05 -0.1568451E+01  0.3756846E+05 -0.2918941E+01  0.4416798E+04  0.1568554E+01
  0.5761905E+00  0.2808901E+05 -0.1567575E+01  0.4181773E+05 -0.2898202E+01  0.4778735E+04  0.1567558E+01
  0.6071429E+00  0.3095109E+05 -0.1566443E+01  0.4621040E+05 -0.2876984E+01  0.5140339E+04  0.1566192E+01
  0.6380953E+00  0.3391528E+05 -0.1565029E+01  0.5076923E+05 -0.2857131E+01  0.5528333E+04  0.1564425E+01
  0.6690477E+00  0.3695775E+05 -0.1563268E+01  0.5544911E+05 -0.2837534E+01  0.5913366E+04  0.1562106E+01
  0.7000000E+00  0.4012124E+05 -0.1561104E+01  0.6021319E+05 -0.2817792E+01  0.6259586E+04  0.1559010E+01
  0.7309524E+00  0.4336898E+05 -0.1558495E+01  0.6507766E+05 -0.2798804E+01  0.6573502E+04  0.1554956E+01
  0.7619048E+00  0.4671329E+05 -0.1555373E+01  0.7003072E+05 -0.2780312E+01  0.6850303E+04  0.1549662E+01
  0.7928572E+00  0.5011981E+05 -0.1551669E+01  0.7504295E+05 -0.2762184E+01  0.7133168E+04  0.1543033E+01
  0.8238096E+00  0.5353407E+05 -0.1547306E+01  0.8010320E+05 -0.2744511E+01  0.7440069E+04  0.1534954E+01
  0.8547620E+00  0.5700372E+05 -0.1542241E+01  0.8520971E+05 -0.2727451E+01  0.7708609E+04  0.1524789E+01
  0.8857143E+00  0.6049010E+05 -0.1536401E+01  0.9032703E+05 -0.2710859E+01  0.7887375E+04  0.1511596E+01
  0.9166667E+00  0.6401438E+05 -0.1529747E+01  0.9544033E+05 -0.2694758E+01  0.8049307E+04  0.1495384E+01
  0.9476191E+00  0.6750609E+05 -0.1522199E+01  0.1005338E+06 -0.2679160E+01  0.8186553E+04  0.1475483E+01
  0.9785714E+00  0.7098730E+05 -0.1513728E+01  0.1056077E+06 -0.2664248E+01  0.8323335E+04  0.1451654E+01
  0.1009524E+01  0.7436984E+05 -0.1504257E+01  0.1106542E+06 -0.2650030E+01  0.8467547E+04  0.1423540E+01
  0.1040476E+01  0.7765907E+05 -0.1493777E+01  0.1156598E+06 -0.2636488E+01  0.8634535E+04  0.1391137E+01
  0.1071429E+01  0.8082284E+05 -0.1482266E+01  0.1206076E+06 -0.2623574E+01  0.8837550E+04  0.1354650E+01
  0.1102381E+01  0.8380322E+05 -0.1469714E+01  0.1254741E+06 -0.2611127E+01  0.8985975E+04  0.1310987E+01
  0.1133333E+01  0.8663671E+05 -0.1456185E+01  0.1302579E+06 -0.2599263E+01  0.9232359E+04  0.1265117E+01
  0.1164286E+01  0.8921527E+05 -0.1441666E+01  0.1349672E+06 -0.2588116E+01  0.9485632E+04  0.1213900E+01
  0.1195238E+01  0.9154054E+05 -0.1426229E+01  0.1395912E+06 -0.2577717E+01  0.9845202E+04  0.1162374E+01
  0.1226190E+01  0.9356529E+05 -0.1409943E+01  0.1441165E+06 -0.2568063E+01  0.1033398E+05  0.1113305E+01
  0.1257143E+01  0.9516966E+05 -0.1392633E+01  0.1485777E+06 -0.2558782E+01  0.1097700E+05  0.1069492E+01
  0.1288095E+01  0.9643692E+05 -0.1374985E+01  0.1528461E+06 -0.2550703E+01  0.1173461E+05  0.1031726E+01
  0.1319048E+01  0.9726820E+05 -0.1356689E+01  0.1570542E+06 -0.2543033E+01  0.1263761E+05  0.1002010E+01
  0.1350000E+01  0.9760139E+05 -0.1337987E+01  0.1611520E+06 -0.2536101E+01  0.1364245E+05  0.9787504E+00
  0.1380952E+01  0.9747066E+05 -0.1319217E+01  0.1651352E+06 -0.2529911E+01  0.1474793E+05  0.9629774E+00
  0.1411905E+01  0.9654483E+05 -0.1301096E+01  0.1683143E+06 -0.2524444E+01  0.1616557E+05  0.9699682E+00
  0.1442857E+01  0.9542109E+05 -0.1282547E+01  0.1720370E+06 -0.2519196E+01  0.1751483E+05  0.9713048E+00
  0.1473810E+01  0.9375526E+05 -0.1264484E+01  0.1756471E+06 -0.2514527E+01  0.1894777E+05  0.9791876E+00
  0.1504762E+01  0.9160170E+05 -0.1247290E+01  0.1791486E+06 -0.2510534E+01  0.2051044E+05  0.9958838E+00
  0.1535714E+01  0.8889701E+05 -0.1231118E+01  0.1825318E+06 -0.2507021E+01  0.2214666E+05  0.1018029E+01
  0.1566667E+01  0.8568196E+05 -0.1216385E+01  0.1858104E+06 -0.2504137E+01  0.2388172E+05  0.1046206E+01
  0.1597619E+01  0.8196592E+05 -0.1203519E+01  0.1889750E+06 -0.2501613E+01  0.2568592E+05  0.1078871E+01
  0.1628572E+01  0.7780333E+05 -0.1192996E+01  0.1920450E+06 -0.2499389E+01  0.2761193E+05  0.1117000E+01
  0.1659524E+01  0.7318323E+05 -0.1185304E+01  0.1950006E+06 -0.2497515E+01  0.2961934E+05  0.1158189E+01
  0.1690476E+01  0.6813212E+05 -0.1181085E+01  0.1978345E+06 -0.2495668E+01  0.3169321E+05  0.1201569E+01
  0.1721429E+01  0.6274531E+05 -0.1181671E+01  0.2005661E+06 -0.2494187E+01  0.3388833E+05  0.1247808E+01
  0.1752381E+01  0.5704486E+05 -0.1188555E+01  0.2031796E+06 -0.2492755E+01  0.3617046E+05  0.1295627E+01
  0.1783333E+01  0.5104152E+05 -0.1203506E+01  0.2056565E+06 -0.2491145E+01  0.3854399E+05  0.1344207E+01
  0.1814286E+01  0.4485118E+05 -0.1230344E+01  0.2080058E+06 -0.2489579E+01  0.4103822E+05  0.1393788E+01
  0.1845238E+01  0.3852827E+05 -0.1274991E+01  0.2101956E+06 -0.2487839E+01  0.4358902E+05  0.1443177E+01
  0.1876190E+01  0.3222927E+05 -0.1347407E+01  0.2122007E+06 -0.2485744E+01  0.4626293E+05  0.1492611E+01
  0.1907143E+01  0.2615174E+05 -0.1465838E+01  0.2139969E+06 -0.2483223E+01  0.4906871E+05  0.1541658E+01
  0.1938095E+01  0.2067622E+05 -0.1665293E+01  0.2155173E+06 -0.2480119E+01  0.5193639E+05  0.1589699E+01
  0.1969048E+01  0.1671144E+05 -0.1995855E+01  0.2167274E+06 -0.2476601E+01  0.5492521E+05  0.1636952E+01
  0.2000000E+01  0.1562024E+05 -0.2451978E+01  0.2175887E+06 -0.2472717E+01  0.5802247E+05  0.1682993E+01
