VARIABLES="w (rad/s)"
"A   1   1" "B   1   1"
"A   1   2" "B   1   2"
"A   1   3" "B   1   3"
Zone t="Motion of body    1 in DoF   1",I=    64,F=POINT
  0.5000000E-01  0.1361068E+06  0.2174632E-01  0.5912781E-02 -0.1442354E-04 -0.1214263E+06 -0.5728229E-02
  0.8095238E-01  0.1362970E+06  0.9581084E-01  0.5748973E-02  0.7853447E-04 -0.1202720E+06 -0.2525237E-01
  0.1119048E+00  0.1365085E+06  0.2688995E+00  0.4567897E-02 -0.1143245E-04 -0.1205173E+06 -0.7092921E-01
  0.1428571E+00  0.1366021E+06  0.6061076E+00  0.1068115E-02 -0.4242919E-04 -0.1205448E+06 -0.1607688E+00
  0.1738095E+00  0.1374122E+06  0.1209668E+01 -0.7242699E-02 -0.1825551E-03 -0.1211885E+06 -0.3249614E+00
  0.2047619E+00  0.1374344E+06  0.2233294E+01  0.4769259E-02  0.1374576E-03 -0.1211028E+06 -0.6061958E+00
  0.2357143E+00  0.1381711E+06  0.3943380E+01  0.1359419E-02  0.3188848E-04 -0.1215929E+06 -0.1083493E+01
  0.2666667E+00  0.1387309E+06  0.6743289E+01  0.1544952E-01  0.4121810E-03 -0.1218934E+06 -0.1878105E+01
  0.2976190E+00  0.1390472E+06  0.1132870E+02  0.4050293E-02  0.7313490E-04 -0.1221209E+06 -0.3205393E+01
  0.3285715E+00  0.1398453E+06  0.1880612E+02  0.1160995E-02 -0.7268786E-04 -0.1224826E+06 -0.5412686E+01
  0.3595238E+00  0.1410071E+06  0.3100995E+02  0.5602299E-02  0.3997982E-03 -0.1234126E+06 -0.9126096E+01
  0.3904762E+00  0.1416495E+06  0.5070534E+02 -0.1117613E-01 -0.1024127E-02 -0.1237268E+06 -0.1520595E+02
  0.4214286E+00  0.1424078E+06  0.8183707E+02  0.8689750E-03  0.2053976E-03 -0.1241620E+06 -0.2504995E+02
  0.4523810E+00  0.1438184E+06  0.1311701E+03 -0.1619038E-01 -0.2267003E-02 -0.1253005E+06 -0.4116853E+02
  0.4833333E+00  0.1454230E+06  0.2052080E+03 -0.1515356E-02 -0.2422333E-03 -0.1261338E+06 -0.6590044E+02
  0.5142857E+00  0.1464541E+06  0.3152562E+03  0.2029419E-01  0.4092693E-02 -0.1267429E+06 -0.1035480E+03
  0.5452381E+00  0.1475057E+06  0.4728066E+03 -0.5149342E-02 -0.1240730E-02 -0.1270313E+06 -0.1584536E+03
  0.5761905E+00  0.1497460E+06  0.6946014E+03  0.1800789E-02  0.2209187E-02 -0.1287817E+06 -0.2395182E+03
  0.6071429E+00  0.1516955E+06  0.1000993E+04 -0.2010570E-02  0.2107620E-03 -0.1302161E+06 -0.3548124E+03
  0.6380953E+00  0.1536009E+06  0.1410359E+04  0.1123912E-01  0.2248764E-02 -0.1309587E+06 -0.5107506E+03
  0.6690477E+00  0.1553829E+06  0.1952155E+04  0.1797170E-01  0.5571365E-02 -0.1321648E+06 -0.7252141E+03
  0.7000000E+00  0.1574699E+06  0.2662629E+04  0.7847377E-02 -0.1106262E-03 -0.1336926E+06 -0.1015954E+04
  0.7309524E+00  0.1604278E+06  0.3582313E+04  0.5511057E-02  0.4119873E-02 -0.1352478E+06 -0.1398759E+04
  0.7619048E+00  0.1634068E+06  0.4756963E+04  0.2611542E-01  0.1042175E-01 -0.1374831E+06 -0.1910867E+04
  0.7928572E+00  0.1660612E+06  0.6233903E+04 -0.6389445E-02 -0.2792358E-02 -0.1392705E+06 -0.2570788E+04
  0.8238096E+00  0.1686478E+06  0.8071731E+04 -0.4445335E-03 -0.2708435E-02 -0.1410076E+06 -0.3414330E+04
  0.8547620E+00  0.1714137E+06  0.1033664E+05  0.1013966E-01 -0.9689331E-03 -0.1426150E+06 -0.4472008E+04
  0.8857143E+00  0.1746779E+06  0.1310878E+05 -0.8269279E-02 -0.9544373E-02 -0.1451417E+06 -0.5817257E+04
  0.9166667E+00  0.1781118E+06  0.1646662E+05 -0.1418235E-01 -0.1397705E-01 -0.1477325E+06 -0.7493681E+04
  0.9476191E+00  0.1814024E+06  0.2049047E+05 -0.1996678E-02 -0.4135132E-02 -0.1504091E+06 -0.9577017E+04
  0.9785714E+00  0.1845195E+06  0.2525996E+05  0.4428390E-02  0.4882812E-02 -0.1524472E+06 -0.1206801E+05
  0.1009524E+01  0.1874181E+06  0.3085776E+05 -0.3022968E-03 -0.6713867E-02 -0.1551623E+06 -0.1513498E+05
  0.1040476E+01  0.1896638E+06  0.3731362E+05  0.7508581E-02  0.9033203E-02 -0.1571224E+06 -0.1872775E+05
  0.1071429E+01  0.1914968E+06  0.4470309E+05 -0.1583659E-01 -0.2014160E-01 -0.1592904E+06 -0.2300689E+05
  0.1102381E+01  0.1930501E+06  0.5304476E+05  0.1882466E-02  0.9613037E-02 -0.1610060E+06 -0.2788643E+05
  0.1133333E+01  0.1945674E+06  0.6238348E+05  0.5924000E-02  0.8178711E-02 -0.1625530E+06 -0.3337720E+05
  0.1164286E+01  0.1953647E+06  0.7271154E+05  0.6185894E-02  0.9643555E-02 -0.1644470E+06 -0.3982439E+05
  0.1195238E+01  0.1951129E+06  0.8389155E+05  0.7149138E-03 -0.2478027E-01 -0.1654307E+06 -0.4695091E+05
  0.1226190E+01  0.1939012E+06  0.9585541E+05 -0.3484337E-02 -0.8361816E-02 -0.1659763E+06 -0.5485915E+05
  0.1257143E+01  0.1916300E+06  0.1084439E+06  0.1068115E-01  0.1245117E-01 -0.1659536E+06 -0.6349393E+05
  0.1288095E+01  0.1888761E+06  0.1213871E+06  0.2843042E-03 -0.4028320E-02 -0.1648682E+06 -0.7219074E+05
  0.1319048E+01  0.1852548E+06  0.1346610E+06  0.3840587E-02  0.7873535E-02 -0.1637109E+06 -0.8155028E+05
  0.1350000E+01  0.1806088E+06  0.1479401E+06  0.8138021E-02  0.8544922E-02 -0.1620562E+06 -0.9144919E+05
  0.1380952E+01  0.1750000E+06  0.1609404E+06  0.4331391E-02  0.8666992E-02 -0.1594190E+06 -0.1013654E+06
  0.1411905E+01  0.1683370E+06  0.1734370E+06  0.1123953E-02  0.1025391E-01 -0.1560211E+06 -0.1113258E+06
  0.1442857E+01  0.1614027E+06  0.1853294E+06  0.5541509E-02  0.9521484E-02 -0.1525408E+06 -0.1213601E+06
  0.1473810E+01  0.1540444E+06  0.1962955E+06  0.3437295E-02 -0.2050781E-01 -0.1480360E+06 -0.1303592E+06
  0.1504762E+01  0.1463814E+06  0.2063612E+06  0.6489814E-03  0.1342773E-02 -0.1431632E+06 -0.1390282E+06
  0.1535714E+01  0.1386297E+06  0.2155653E+06  0.2464117E-02  0.6958008E-02 -0.1386034E+06 -0.1478452E+06
  0.1566667E+01  0.1306060E+06  0.2235004E+06  0.1295374E-01 -0.8422852E-02 -0.1334925E+06 -0.1557802E+06
  0.1597619E+01  0.1226706E+06  0.2303108E+06  0.2368637E-02 -0.8544922E-02 -0.1281662E+06 -0.1629041E+06
  0.1628572E+01  0.1148296E+06  0.2360753E+06  0.9931597E-02 -0.1342773E-02 -0.1227904E+06 -0.1697432E+06
  0.1659524E+01  0.1071644E+06  0.2408117E+06  0.1121751E-02 -0.1367188E-01 -0.1174233E+06 -0.1761847E+06
  0.1690476E+01  0.9983884E+05  0.2445215E+06 -0.6489928E-02 -0.2197266E-02 -0.1119165E+06 -0.1812026E+06
  0.1721429E+01  0.9291708E+05  0.2473527E+06 -0.1564501E-02  0.1391602E-01 -0.1064460E+06 -0.1849584E+06
  0.1752381E+01  0.8632701E+05  0.2495155E+06  0.7836715E-02 -0.1892090E-01 -0.1013599E+06 -0.1890504E+06
  0.1783333E+01  0.8009657E+05  0.2509294E+06 -0.5853399E-03  0.1037598E-01 -0.9648462E+05 -0.1929299E+06
  0.1814286E+01  0.7411956E+05  0.2514541E+06  0.1911254E-02  0.2392578E-01 -0.9156125E+05 -0.1957671E+06
  0.1845238E+01  0.6846524E+05  0.2514735E+06 -0.9468325E-03  0.8422852E-02 -0.8677041E+05 -0.1980530E+06
  0.1876190E+01  0.6309892E+05  0.2509543E+06  0.4310414E-03  0.1000977E-01 -0.8205653E+05 -0.2002159E+06
  0.1907143E+01  0.5804828E+05  0.2498885E+06  0.4480483E-03  0.1464844E-02 -0.7745639E+05 -0.2021349E+06
  0.1938095E+01  0.5335005E+05  0.2483539E+06  0.3180726E-02  0.1007080E-01 -0.7307071E+05 -0.2033261E+06
  0.1969048E+01  0.4898096E+05  0.2462947E+06  0.4293126E-02 -0.1605225E-01 -0.6891236E+05 -0.2030330E+06
  0.2000000E+01  0.4491584E+05  0.2438651E+06  0.7400513E-03 -0.5493164E-03 -0.6490502E+05 -0.2023701E+06
Zone t="Motion of body    1 in DoF   2",I=    64,F=POINT
  0.5000000E-01  0.2899170E-02  0.4768372E-06  0.2623144E+06  0.6471953E+03 -0.2075195E-01  0.4196167E-04
  0.8095238E-01 -0.2261891E-02  0.1029968E-03  0.2583425E+06  0.1071381E+04 -0.3166647E-01  0.2288818E-03
  0.1119048E+00 -0.4090654E-03  0.4959106E-04  0.2566515E+06  0.1530579E+04 -0.1309009E-01 -0.1831055E-03
  0.1428571E+00  0.3952026E-02 -0.6484985E-04  0.2554469E+06  0.2040877E+04  0.4272461E-02 -0.6866455E-04
  0.1738095E+00 -0.1492435E-02 -0.1468658E-03  0.2548383E+06  0.2622034E+04 -0.5899508E-01 -0.2288818E-03
  0.2047619E+00 -0.6706770E-02  0.1068115E-03  0.2548748E+06  0.3299662E+04 -0.3278865E-01  0.4272461E-03
  0.2357143E+00 -0.4790334E-02 -0.5722046E-04  0.2548493E+06  0.4108394E+04  0.3728693E-01  0.3051758E-03
  0.2666667E+00 -0.2746582E-02  0.2288818E-04  0.2552701E+06  0.5073986E+04  0.1190185E-01 -0.1068115E-03
  0.2976190E+00  0.5024414E-02 -0.4730225E-03  0.2556855E+06  0.6263828E+04 -0.2132813E-01 -0.9460449E-03
  0.3285715E+00  0.1950471E-02 -0.3967285E-03  0.2562857E+06  0.7702825E+04 -0.2229110E-02 -0.9765625E-03
  0.3595238E+00 -0.1001623E-01 -0.4119873E-03  0.2565651E+06  0.9467367E+04  0.1901386E-01 -0.1800537E-02
  0.3904762E+00 -0.5392679E-02  0.1205444E-02  0.2570800E+06  0.1160011E+05 -0.8753334E-02  0.1464844E-02
  0.4214286E+00 -0.8327677E-02  0.3204346E-03  0.2564315E+06  0.1406225E+05  0.2317267E-02 -0.0000000E+00
  0.4523810E+00 -0.2698396E-03  0.5645752E-03  0.2561597E+06  0.1697211E+05 -0.9714226E-02 -0.5493164E-03
  0.4833333E+00 -0.1224912E-01 -0.9002686E-03  0.2542980E+06  0.2004525E+05  0.2020474E-02  0.3051758E-03
  0.5142857E+00 -0.9850397E-02 -0.1098633E-02  0.2523685E+06  0.2343105E+05 -0.3512913E-01 -0.1708984E-02
  0.5452381E+00  0.1679133E-02  0.6408691E-03  0.2497896E+06  0.2690504E+05 -0.1343307E-01 -0.7324219E-03
  0.5761905E+00  0.4554937E-02 -0.7629395E-03  0.2466500E+06  0.3039332E+05  0.1355888E-01 -0.0000000E+00
  0.6071429E+00  0.8042279E-02  0.4577637E-03  0.2436016E+06  0.3397080E+05 -0.1608456E-01 -0.2563477E-02
  0.6380953E+00 -0.1147825E-02 -0.2685547E-02  0.2397455E+06  0.3737636E+05 -0.3443476E-01  0.3417969E-02
  0.6690477E+00  0.7845515E-02  0.1220703E-02  0.2358888E+06  0.4072069E+05  0.0000000E+00 -0.1953125E-02
  0.7000000E+00 -0.6103515E-03  0.2502441E-02  0.2322126E+06  0.4398441E+05 -0.9765624E-02 -0.1098633E-01
  0.7309524E+00  0.1503015E-02 -0.6591797E-02  0.2279965E+06  0.4705829E+05  0.2538426E-01  0.1782227E-01
  0.7619048E+00  0.8571624E-02  0.3662109E-03  0.2238078E+06  0.4996910E+05 -0.4870605E-01  0.1708984E-02
  0.7928572E+00  0.6928314E-02 -0.1831055E-02  0.2198434E+06  0.5265477E+05  0.1416455E-01  0.7080078E-02
  0.8238096E+00 -0.2667201E-02 -0.3112793E-02  0.2159290E+06  0.5510386E+05  0.1185423E-01 -0.0000000E+00
  0.8547620E+00  0.1213902E-02  0.7324219E-03  0.2116125E+06  0.5735638E+05 -0.3313240E-01  0.9765625E-02
  0.8857143E+00  0.4272461E-02  0.2258301E-02  0.2075391E+06  0.5934761E+05  0.1433342E-01  0.2197266E-02
  0.9166667E+00  0.3595525E-02  0.4455566E-02  0.2040236E+06  0.6099783E+05  0.3728693E-02 -0.9521484E-02
  0.9476191E+00 -0.5732397E-02 -0.1586914E-02  0.2005340E+06  0.6235305E+05  0.5152717E-03  0.2929688E-02
  0.9785714E+00 -0.1559292E-02 -0.3906250E-02  0.1966005E+06  0.6348072E+05  0.1297331E-01  0.8056641E-02
  0.1009524E+01 -0.5743639E-02 -0.8544922E-02  0.1930691E+06  0.6432853E+05  0.2902049E-02  0.2270508E-01
  0.1040476E+01 -0.3255674E-02  0.1464844E-02  0.1898672E+06  0.6484191E+05  0.2346432E-02 -0.7324219E-03
  0.1071429E+01  0.9712728E-02  0.5371094E-02  0.1871517E+06  0.6506096E+05  0.2597656E-01  0.7568359E-02
  0.1102381E+01  0.3958717E-02 -0.5371094E-02  0.1842888E+06  0.6501209E+05  0.6643999E-02 -0.1074219E-01
  0.1133333E+01  0.8616728E-03 -0.3784180E-02  0.1813569E+06  0.6474358E+05 -0.1335593E-01  0.9521484E-02
  0.1164286E+01  0.1572685E-02 -0.7324219E-03  0.1788440E+06  0.6425618E+05  0.6710122E-02  0.7324219E-02
  0.1195238E+01 -0.3689466E-02 -0.7080078E-02  0.1766400E+06  0.6348409E+05 -0.2124315E-01 -0.4321289E-01
  0.1226190E+01  0.3247900E-02 -0.4028320E-02  0.1748856E+06  0.6250104E+05 -0.8362409E-02 -0.4638672E-02
  0.1257143E+01  0.5322369E-02  0.7324219E-02  0.1734095E+06  0.6135408E+05 -0.8544922E-02  0.1025391E-01
  0.1288095E+01 -0.2671275E-02 -0.1159668E-01  0.1714205E+06  0.5985593E+05 -0.9097735E-02  0.2246094E-01
  0.1319048E+01  0.1735205E-03 -0.8911133E-02  0.1698261E+06  0.5834284E+05 -0.1998956E-01  0.2099609E-01
  0.1350000E+01 -0.9248521E-02 -0.1623535E-01  0.1685412E+06  0.5671372E+05 -0.2459491E-01  0.3198242E-01
  0.1380952E+01  0.4276144E-02 -0.1184082E-01  0.1675436E+06  0.5491510E+05  0.0000000E+00 -0.2148438E-01
  0.1411905E+01  0.2453243E-02 -0.2075195E-01  0.1668751E+06  0.5305618E+05  0.8991621E-02  0.2636719E-01
  0.1442857E+01 -0.1861270E-02 -0.1464844E-02  0.1665537E+06  0.5116954E+05  0.8460319E-02 -0.1123047E-01
  0.1473810E+01  0.2194899E-02  0.5126953E-02  0.1657951E+06  0.4899687E+05 -0.3313055E-02 -0.7324219E-03
  0.1504762E+01  0.4340063E-02  0.1953125E-02  0.1651454E+06  0.4670792E+05 -0.1525106E-01 -0.3076172E-01
  0.1535714E+01 -0.2762195E-02 -0.1403809E-01  0.1647856E+06  0.4461716E+05  0.1303597E-01  0.6103516E-02
  0.1566667E+01  0.3837423E-02 -0.1586914E-02  0.1646250E+06  0.4250457E+05 -0.1371343E-01  0.1220703E-02
  0.1597619E+01 -0.1432643E-02  0.4272461E-02  0.1646351E+06  0.4038124E+05  0.1619842E-01  0.3637695E-01
  0.1628572E+01 -0.1948842E-02  0.1953125E-02  0.1648345E+06  0.3840306E+05 -0.5996436E-02 -0.2246094E-01
  0.1659524E+01 -0.1986051E-02 -0.6958008E-02  0.1651929E+06  0.3648295E+05  0.8238432E-02 -0.5615234E-02
  0.1690476E+01  0.1083159E-02  0.4272461E-02  0.1654046E+06  0.3432410E+05  0.8954114E-02 -0.2941895E-01
  0.1721429E+01 -0.3049225E-02  0.1586914E-01  0.1655648E+06  0.3203160E+05  0.3120138E-02 -0.1599121E-01
  0.1752381E+01 -0.1811152E-02  0.1098633E-02  0.1658564E+06  0.3001384E+05  0.3622304E-02 -0.2148438E-01
  0.1783333E+01 -0.1060985E-02 -0.1367188E-01  0.1662276E+06  0.2814944E+05 -0.1615435E-01  0.6713867E-02
  0.1814286E+01 -0.8073942E-03 -0.1098633E-02  0.1666939E+06  0.2636341E+05 -0.1910833E-01  0.6713867E-02
  0.1845238E+01 -0.1389239E-02 -0.4699707E-02  0.1672182E+06  0.2467074E+05  0.4763105E-02 -0.4028320E-02
  0.1876190E+01 -0.1789229E-02 -0.1159668E-01  0.1677825E+06  0.2309919E+05 -0.1717659E-01  0.1574707E-01
  0.1907143E+01 -0.1440155E-02  0.7812500E-02  0.1683737E+06  0.2155301E+05 -0.1280138E-01 -0.1037598E-01
  0.1938095E+01  0.2015510E-02  0.1953125E-02  0.1689356E+06  0.1997788E+05 -0.1360469E-01 -0.2148438E-01
  0.1969048E+01  0.2479784E-03  0.1165771E-01  0.1694608E+06  0.1844398E+05  0.3471697E-02 -0.5615234E-02
  0.2000000E+01  0.1129150E-02  0.1525879E-02  0.1700122E+06  0.1705252E+05 -0.2929688E-02 -0.2502441E-02
Zone t="Motion of body    1 in DoF   3",I=    64,F=POINT
  0.5000000E-01 -0.1236671E+06 -0.6411344E-02 -0.8407593E-01 -0.1389670E-03  0.5932934E+06  0.1815639E-02
  0.8095238E-01 -0.1230642E+06 -0.2831789E-01 -0.3581328E-01 -0.1624210E-03  0.5866810E+06  0.7618100E-02
  0.1119048E+00 -0.1232635E+06 -0.7954057E-01 -0.5208766E-01 -0.2799819E-03  0.5879482E+06  0.2170186E-01
  0.1428571E+00 -0.1232631E+06 -0.1809182E+00  0.2563477E-02  0.2060318E-04  0.5874069E+06  0.4798611E-01
  0.1738095E+00 -0.1241028E+06 -0.3639615E+00 -0.2475686E-01 -0.4528635E-03  0.5878444E+06  0.9772237E-01
  0.2047619E+00 -0.1237643E+06 -0.6784163E+00 -0.7138984E-01 -0.1512309E-02  0.5882688E+06  0.1856297E+00
  0.2357143E+00 -0.1244613E+06 -0.1209047E+01 -0.4660866E-02 -0.2528261E-03  0.5880394E+06  0.3303566E+00
  0.2666667E+00 -0.1247325E+06 -0.2092664E+01 -0.5493164E-02 -0.4319847E-03  0.5882151E+06  0.5791465E+00
  0.2976190E+00 -0.1249219E+06 -0.3561191E+01 -0.3199219E-01 -0.4513152E-03  0.5884028E+06  0.1000723E+01
  0.3285715E+00 -0.1252838E+06 -0.6007276E+01  0.8173402E-02  0.5747527E-03  0.5884364E+06  0.1730641E+01
  0.3595238E+00 -0.1264332E+06 -0.1006287E+02 -0.7979033E-02 -0.1251288E-02  0.5891304E+06  0.2965407E+01
  0.3904762E+00 -0.1265321E+06 -0.1674504E+02 -0.4814333E-01 -0.2736717E-02  0.5900581E+06  0.5025778E+01
  0.4214286E+00 -0.1270961E+06 -0.2751698E+02 -0.7516634E-01 -0.5130798E-02  0.5893370E+06  0.8422699E+01
  0.4523810E+00 -0.1280649E+06 -0.4495286E+02 -0.2563476E-01  0.2574325E-03  0.5923608E+06  0.1410420E+02
  0.4833333E+00 -0.1293117E+06 -0.7174870E+02  0.1767915E-02  0.1097143E-02  0.5907289E+06  0.2303634E+02
  0.5142857E+00 -0.1296761E+06 -0.1124726E+03 -0.9969076E-01 -0.1083755E-01  0.5918786E+06  0.3696827E+02
  0.5452381E+00 -0.1298760E+06 -0.1722055E+03  0.2238844E-03 -0.4160404E-03  0.5909704E+06  0.5774581E+02
  0.5761905E+00 -0.1319948E+06 -0.2583201E+03 -0.6440470E-01 -0.1073909E-01  0.5923060E+06  0.8897684E+02
  0.6071429E+00 -0.1331307E+06 -0.3809830E+03  0.1588350E-01  0.8061886E-02  0.5956712E+06  0.1353225E+03
  0.6380953E+00 -0.1340718E+06 -0.5484188E+03 -0.3175650E-01 -0.9894371E-02  0.5935874E+06  0.1987706E+03
  0.6690477E+00 -0.1352696E+06 -0.7756323E+03 -0.1824538E-01 -0.5752563E-02  0.5943780E+06  0.2885224E+03
  0.7000000E+00 -0.1364561E+06 -0.1082229E+04 -0.4045759E-01 -0.1477623E-01  0.5975728E+06  0.4131548E+03
  0.7309524E+00 -0.1384062E+06 -0.1488237E+04  0.2688728E-01  0.2382946E-01  0.5963879E+06  0.5799615E+03
  0.7619048E+00 -0.1408334E+06 -0.2021406E+04 -0.4918670E-01 -0.1367378E-01  0.5980796E+06  0.8116757E+03
  0.7928572E+00 -0.1423990E+06 -0.2712275E+04  0.4310951E-02 -0.2958298E-02  0.6000734E+06  0.1120689E+04
  0.8238096E+00 -0.1438822E+06 -0.3595294E+04 -0.5734482E-01 -0.2415848E-01  0.6021659E+06  0.1524990E+04
  0.8547620E+00 -0.1456501E+06 -0.4702789E+04 -0.6026669E-01 -0.2471924E-01  0.6011679E+06  0.2038666E+04
  0.8857143E+00 -0.1483013E+06 -0.6086648E+04 -0.1240392E-02  0.1272202E-01  0.6031051E+06  0.2696768E+04
  0.9166667E+00 -0.1508796E+06 -0.7818439E+04  0.1997514E-01  0.2914429E-02  0.6058941E+06  0.3549010E+04
  0.9476191E+00 -0.1534021E+06 -0.9964307E+04 -0.5307298E-01 -0.3389740E-01  0.6093256E+06  0.4656094E+04
  0.9785714E+00 -0.1556525E+06 -0.1255551E+05 -0.1921048E-01 -0.5035400E-03  0.6084354E+06  0.5998432E+04
  0.1009524E+01 -0.1583287E+06 -0.1567553E+05  0.2200721E-01  0.2342224E-01  0.6107462E+06  0.7708738E+04
  0.1040476E+01 -0.1600831E+06 -0.1937518E+05 -0.2721861E-01  0.3753662E-02  0.6121330E+06  0.9760707E+04
  0.1071429E+01 -0.1618055E+06 -0.2374009E+05  0.5195313E-01  0.5036926E-01  0.6157706E+06  0.1229182E+05
  0.1102381E+01 -0.1633878E+06 -0.2874101E+05 -0.1948906E-01 -0.2539062E-01  0.6169426E+06  0.1515358E+05
  0.1133333E+01 -0.1652845E+06 -0.3440563E+05 -0.5363913E-01 -0.1434326E-01  0.6163662E+06  0.1833193E+05
  0.1164286E+01 -0.1672080E+06 -0.4088841E+05  0.4822901E-02 -0.1361084E-01  0.6186439E+06  0.2234735E+05
  0.1195238E+01 -0.1680502E+06 -0.4812618E+05 -0.3227325E-01 -0.1260376E-01  0.6199774E+06  0.2691218E+05
  0.1226190E+01 -0.1682660E+06 -0.5613501E+05  0.1991050E-02 -0.2151489E-01  0.6223018E+06  0.3217934E+05
  0.1257143E+01 -0.1678129E+06 -0.6482256E+05 -0.2893621E-01 -0.1766968E-01  0.6248597E+06  0.3813033E+05
  0.1288095E+01 -0.1668666E+06 -0.7374019E+05 -0.4700497E-01  0.8178711E-02  0.6221386E+06  0.4379359E+05
  0.1319048E+01 -0.1658415E+06 -0.8317706E+05 -0.9439516E-02  0.1403809E-02  0.6215418E+06  0.5017109E+05
  0.1350000E+01 -0.1640800E+06 -0.9297155E+05 -0.5606192E-01  0.1342773E-02  0.6216724E+06  0.5738311E+05
  0.1380952E+01 -0.1612222E+06 -0.1028780E+06  0.7425243E-02 -0.1757812E-01  0.6207065E+06  0.6475588E+05
  0.1411905E+01 -0.1574548E+06 -0.1130426E+06 -0.1037495E-01  0.1092529E-01  0.6201353E+06  0.7268127E+05
  0.1442857E+01 -0.1536424E+06 -0.1230405E+06 -0.9644764E-02 -0.4351807E-01  0.6208772E+06  0.8105361E+05
  0.1473810E+01 -0.1491193E+06 -0.1321212E+06  0.1656528E-03  0.1330566E-01  0.6165436E+06  0.8775741E+05
  0.1504762E+01 -0.1442437E+06 -0.1408104E+06 -0.1736025E-01  0.4888916E-01  0.6117154E+06  0.9449371E+05
  0.1535714E+01 -0.1397507E+06 -0.1492881E+06  0.4769258E-03  0.1629639E-01  0.6094259E+06  0.1021421E+06
  0.1566667E+01 -0.1345598E+06 -0.1569756E+06 -0.5921708E-02 -0.1062012E-01  0.6064192E+06  0.1092167E+06
  0.1597619E+01 -0.1291000E+06 -0.1639788E+06  0.1069707E-02  0.2246094E-01  0.6030338E+06  0.1157214E+06
  0.1628572E+01 -0.1235215E+06 -0.1705520E+06 -0.3807737E-01  0.1098633E-01  0.6005556E+06  0.1230095E+06
  0.1659524E+01 -0.1179313E+06 -0.1767313E+06 -0.1059227E-01  0.1507568E-01  0.5988931E+06  0.1308780E+06
  0.1690476E+01 -0.1123451E+06 -0.1816298E+06  0.1415328E-01 -0.2471924E-01  0.5943316E+06  0.1357981E+06
  0.1721429E+01 -0.1068994E+06 -0.1854428E+06 -0.1219690E-01  0.9460449E-02  0.5876880E+06  0.1378745E+06
  0.1752381E+01 -0.1019604E+06 -0.1893140E+06  0.3343665E-02  0.1165771E-01  0.5835722E+06  0.1424686E+06
  0.1783333E+01 -0.9731256E+05 -0.1927515E+06 -0.1533294E-01 -0.2563477E-01  0.5802957E+06  0.1478106E+06
  0.1814286E+01 -0.9240038E+05 -0.1952406E+06 -0.2153051E-01 -0.2844238E-01  0.5764203E+06  0.1516878E+06
  0.1845238E+01 -0.8753671E+05 -0.1973313E+06 -0.3413558E-01 -0.3662109E-03  0.5725803E+06  0.1550396E+06
  0.1876190E+01 -0.8277270E+05 -0.1992330E+06 -0.1483433E-01 -0.3533936E-01  0.5695052E+06  0.1599015E+06
  0.1907143E+01 -0.7811430E+05 -0.2008853E+06 -0.2585879E-01 -0.9033203E-02  0.5669500E+06  0.1659006E+06
  0.1938095E+01 -0.7367438E+05 -0.2019041E+06 -0.2116285E-01 -0.2697754E-01  0.5637904E+06  0.1700530E+06
  0.1969048E+01 -0.6954548E+05 -0.2014020E+06 -0.4190835E-01  0.2441406E-02  0.5584707E+06  0.1677007E+06
  0.2000000E+01 -0.6560514E+05 -0.2005170E+06 -0.1123047E-01 -0.2014160E-02  0.5534178E+06  0.1650167E+06
