VARIABLES="w (rad/s)"
"A   1   1" "B   1   1"
"A   1   2" "B   1   2"
"A   1   3" "B   1   3"
Zone t="Motion of body    1 in DoF   1",I=    64,F=POINT
  0.5000000E-01  0.2195318E+06  0.4268708E-01  0.6332397E-02  0.3219480E-04 -0.6828243E+06 -0.1310376E+00
  0.8095238E-01  0.2208814E+06  0.1877029E+00  0.4523782E-02  0.2444291E-04 -0.6861282E+06 -0.5760294E+00
  0.1119048E+00  0.2212276E+06  0.5261344E+00 -0.2018056E-01 -0.2141069E-03 -0.6871210E+06 -0.1613697E+01
  0.1428571E+00  0.2219124E+06  0.1182553E+01 -0.3417969E-02 -0.2892688E-04 -0.6881061E+06 -0.3622571E+01
  0.1738095E+00  0.2221518E+06  0.2348227E+01 -0.5267418E-02  0.2372451E-04 -0.6895252E+06 -0.7191805E+01
  0.2047619E+00  0.2226336E+06  0.4323012E+01 -0.5439936E-02  0.7934868E-06 -0.6901456E+06 -0.1322480E+02
  0.2357143E+00  0.2232781E+06  0.7594105E+01 -0.2265699E-01 -0.4924610E-03 -0.6917518E+06 -0.2320630E+02
  0.2666667E+00  0.2237974E+06  0.1291049E+02 -0.1682281E-01 -0.2471879E-03 -0.6931747E+06 -0.3940692E+02
  0.2976190E+00  0.2246795E+06  0.2158615E+02 -0.1333008E-01 -0.3862828E-03 -0.6951968E+06 -0.6578606E+02
  0.3285715E+00  0.2254139E+06  0.3556555E+02  0.1486073E-02 -0.3415346E-04 -0.6969365E+06 -0.1082148E+03
  0.3595238E+00  0.2264240E+06  0.5816613E+02 -0.2130571E-01 -0.9033084E-03 -0.7000834E+06 -0.1767516E+03
  0.3904762E+00  0.2273302E+06  0.9435673E+02 -0.8284405E-02 -0.3768802E-03 -0.7020844E+06 -0.2861489E+03
  0.4214286E+00  0.2289494E+06  0.1512043E+03  0.1593121E-02 -0.1096725E-04 -0.7061240E+06 -0.4575142E+03
  0.4523810E+00  0.2300865E+06  0.2399341E+03 -0.9039627E-02 -0.5958080E-03 -0.7093768E+06 -0.7246797E+03
  0.4833333E+00  0.2318077E+06  0.3714227E+03  0.4040948E-02  0.1293421E-02 -0.7138058E+06 -0.1119063E+04
  0.5142857E+00  0.2334433E+06  0.5654730E+03 -0.1186795E-02  0.1298904E-02 -0.7176272E+06 -0.1699051E+04
  0.5452381E+00  0.2353023E+06  0.8403494E+03  0.5932937E-02  0.4413605E-02 -0.7221250E+06 -0.2517671E+04
  0.5761905E+00  0.2376308E+06  0.1219890E+04 -0.2002054E-01 -0.3656387E-02 -0.7287349E+06 -0.3645530E+04
  0.6071429E+00  0.2396550E+06  0.1736752E+04 -0.5227481E-02  0.1421928E-02 -0.7344202E+06 -0.5176495E+04
  0.6380953E+00  0.2422054E+06  0.2419427E+04  0.1128695E-01  0.2872467E-02 -0.7401514E+06 -0.7183515E+04
  0.6690477E+00  0.2451363E+06  0.3313726E+04 -0.1642085E-02 -0.8621216E-03 -0.7477617E+06 -0.9805104E+04
  0.7000000E+00  0.2477420E+06  0.4466390E+04 -0.1325335E-01 -0.2685547E-02 -0.7544924E+06 -0.1316964E+05
  0.7309524E+00  0.2506143E+06  0.5926792E+04 -0.1085511E-01 -0.5180359E-02 -0.7616381E+06 -0.1740855E+05
  0.7619048E+00  0.2540505E+06  0.7764520E+04  0.2883911E-02  0.5432129E-02 -0.7709159E+06 -0.2272361E+05
  0.7928572E+00  0.2571982E+06  0.1003756E+05 -0.1100832E-01 -0.1403809E-02 -0.7782509E+06 -0.2924194E+05
  0.8238096E+00  0.2605558E+06  0.1282961E+05 -0.9927914E-02 -0.8010864E-03 -0.7864076E+06 -0.3720692E+05
  0.8547620E+00  0.2641474E+06  0.1622113E+05 -0.1663760E-01 -0.3959656E-02 -0.7945858E+06 -0.4680548E+05
  0.8857143E+00  0.2677578E+06  0.2029997E+05 -0.1006096E-01 -0.3326416E-02 -0.8036032E+06 -0.5830681E+05
  0.9166667E+00  0.2707997E+06  0.2512560E+05 -0.8256392E-02 -0.4058838E-02 -0.8105732E+06 -0.7180527E+05
  0.9476191E+00  0.2738649E+06  0.3080315E+05 -0.8501982E-02 -0.3417969E-02 -0.8180592E+06 -0.8760607E+05
  0.9785714E+00  0.2768451E+06  0.3739466E+05  0.1372177E-02  0.4623413E-02 -0.8237081E+06 -0.1057002E+06
  0.1009524E+01  0.2798701E+06  0.4501539E+05 -0.5441342E-02 -0.2105713E-02 -0.8299529E+06 -0.1264974E+06
  0.1040476E+01  0.2819406E+06  0.5364192E+05  0.4575542E-02  0.7995605E-02 -0.8330875E+06 -0.1497898E+06
  0.1071429E+01  0.2834413E+06  0.6335657E+05 -0.4215495E-02 -0.1342773E-02 -0.8348743E+06 -0.1758030E+06
  0.1102381E+01  0.2842481E+06  0.7415223E+05 -0.1018747E-01 -0.1031494E-01 -0.8345003E+06 -0.2043949E+06
  0.1133333E+01  0.2844390E+06  0.8602713E+05 -0.4308364E-03  0.1342773E-01 -0.8320894E+06 -0.2354582E+06
  0.1164286E+01  0.2839168E+06  0.9895255E+05 -0.3040524E-02 -0.2838135E-02 -0.8286672E+06 -0.2690914E+06
  0.1195238E+01  0.2819585E+06  0.1126099E+06 -0.6842746E-02  0.1647949E-02 -0.8209391E+06 -0.3040703E+06
  0.1226190E+01  0.2788554E+06  0.1268618E+06 -0.6869122E-02 -0.5249023E-02 -0.8096464E+06 -0.3398529E+06
  0.1257143E+01  0.2747155E+06  0.1416392E+06 -0.9418834E-02 -0.1214600E-01 -0.7963163E+06 -0.3765866E+06
  0.1288095E+01  0.2696035E+06  0.1565998E+06 -0.2843042E-02  0.4577637E-02 -0.7792725E+06 -0.4126516E+06
  0.1319048E+01  0.2636665E+06  0.1716964E+06 -0.7773719E-02  0.4333496E-02 -0.7609999E+06 -0.4486153E+06
  0.1350000E+01  0.2565696E+06  0.1864889E+06 -0.8680555E-02 -0.8666992E-02 -0.7404830E+06 -0.4833152E+06
  0.1380952E+01  0.2483406E+06  0.2004960E+06 -0.7602034E-02 -0.2624512E-02 -0.7168219E+06 -0.5149456E+06
  0.1411905E+01  0.2386854E+06  0.2129706E+06 -0.8127042E-02  0.1403809E-02 -0.6903554E+06 -0.5420828E+06
  0.1442857E+01  0.2293308E+06  0.2251079E+06 -0.3891747E-02 -0.5737305E-02 -0.6650707E+06 -0.5678350E+06
  0.1473810E+01  0.2192673E+06  0.2356282E+06 -0.3230229E-02  0.3845215E-02 -0.6374073E+06 -0.5880358E+06
  0.1504762E+01  0.2091738E+06  0.2449117E+06 -0.9329108E-02 -0.6713867E-02 -0.6103082E+06 -0.6046332E+06
  0.1535714E+01  0.1993358E+06  0.2530564E+06 -0.3537200E-02  0.1281738E-02 -0.5849086E+06 -0.6184411E+06
  0.1566667E+01  0.1892721E+06  0.2593378E+06 -0.3545234E-02 -0.1831055E-03 -0.5594816E+06 -0.6272589E+06
  0.1597619E+01  0.1793413E+06  0.2638414E+06 -0.2941694E-02 -0.7324219E-03 -0.5344336E+06 -0.6307523E+06
  0.1628572E+01  0.1697322E+06  0.2668187E+06 -0.2398574E-02 -0.2136230E-02 -0.5107573E+06 -0.6302863E+06
  0.1659524E+01  0.1607107E+06  0.2687032E+06 -0.8716555E-02 -0.4882812E-03 -0.4895946E+06 -0.6279212E+06
  0.1690476E+01  0.1521300E+06  0.2689967E+06 -0.7329376E-02  0.3051758E-03 -0.4694019E+06 -0.6207679E+06
  0.1721429E+01  0.1442087E+06  0.2680969E+06 -0.6949397E-02  0.2502441E-02 -0.4509198E+06 -0.6102841E+06
  0.1752381E+01  0.1370774E+06  0.2665541E+06 -0.4632370E-02  0.2197266E-02 -0.4350252E+06 -0.5989749E+06
  0.1783333E+01  0.1306084E+06  0.2643375E+06 -0.4209714E-02 -0.4516602E-02 -0.4213627E+06 -0.5870770E+06
  0.1814286E+01  0.1245028E+06  0.2608687E+06 -0.2994087E-02 -0.1159668E-02 -0.4086193E+06 -0.5719166E+06
  0.1845238E+01  0.1189354E+06  0.2564242E+06 -0.8004663E-02  0.3051758E-03 -0.3972061E+06 -0.5538689E+06
  0.1876190E+01  0.1139358E+06  0.2514243E+06 -0.1008474E-02  0.2441406E-03 -0.3874492E+06 -0.5349822E+06
  0.1907143E+01  0.1095105E+06  0.2463246E+06 -0.6720725E-03 -0.1525879E-02 -0.3795662E+06 -0.5173951E+06
  0.1938095E+01  0.1056300E+06  0.2408570E+06  0.1889540E-02 -0.9460449E-03 -0.3730109E+06 -0.4990579E+06
  0.1969048E+01  0.1021960E+06  0.2346651E+06 -0.6230457E-02 -0.2166748E-02 -0.3672820E+06 -0.4778972E+06
  0.2000000E+01  0.9931302E+05  0.2285859E+06 -0.7690430E-02 -0.1464844E-02 -0.3629681E+06 -0.4577136E+06
Zone t="Motion of body    1 in DoF   2",I=    64,F=POINT
  0.5000000E-01  0.5950928E-02  0.5435944E-04  0.1074411E+06  0.2077298E+03 -0.4394531E-01 -0.6294250E-04
  0.8095238E-01  0.1008426E-01 -0.8487701E-04  0.1062753E+06  0.3431194E+03 -0.6107106E-01 -0.1335144E-03
  0.1119048E+00  0.5045140E-02  0.1525879E-03  0.1056494E+06  0.4885334E+03 -0.3763402E-01  0.4272461E-03
  0.1428571E+00  0.6835937E-02  0.4577637E-04  0.1052231E+06  0.6487748E+03 -0.4016113E-01 -0.1411438E-03
  0.1738095E+00  0.1299296E-01  0.6866455E-04  0.1050080E+06  0.8286984E+03 -0.2106967E-01 -0.3890991E-03
  0.2047619E+00  0.9538517E-02  0.2670288E-03  0.1049566E+06  0.1036427E+04 -0.3040402E-01 -0.1289368E-02
  0.2357143E+00  0.8933327E-02  0.2212524E-03  0.1047007E+06  0.1280940E+04 -0.5489464E-01 -0.8392334E-04
  0.2666667E+00  0.2059937E-02 -0.1754761E-03  0.1048603E+06  0.1567546E+04 -0.4394531E-01  0.1678467E-03
  0.2976190E+00 -0.3178711E-02 -0.2136230E-03  0.1046201E+06  0.1917094E+04 -0.2542969E-01  0.1831055E-03
  0.3285715E+00  0.3622303E-02 -0.2288818E-03  0.1048420E+06  0.2330791E+04 -0.6390115E-01  0.2441406E-03
  0.3595238E+00  0.1527900E-02 -0.3967285E-03  0.1044976E+06  0.2831272E+04 -0.2105106E-01  0.2014160E-02
  0.3904762E+00  0.5783453E-02  0.1403809E-02  0.1045607E+06  0.3423060E+04 -0.5814715E-01 -0.2899170E-02
  0.4214286E+00  0.1078977E-01  0.3204346E-03  0.1040390E+06  0.4088997E+04 -0.3881422E-01 -0.3356934E-03
  0.4523810E+00  0.7420590E-02  0.1831055E-03  0.1036369E+06  0.4868426E+04 -0.4263466E-01 -0.7934570E-03
  0.4833333E+00  0.1313308E-01 -0.4882812E-03  0.1029746E+06  0.5649396E+04 -0.1818427E-01  0.2441406E-02
  0.5142857E+00 -0.8307563E-03 -0.2136230E-03  0.1020106E+06  0.6495465E+04 -0.1139323E-01 -0.6103516E-04
  0.5452381E+00  0.8955377E-03  0.1098633E-02  0.1013895E+06  0.7319761E+04 -0.8059839E-02 -0.5126953E-02
  0.5761905E+00 -0.1059288E-03 -0.1007080E-02  0.1000095E+06  0.8104384E+04  0.3050749E-01  0.6103516E-04
  0.6071429E+00  0.9148092E-02  0.5493164E-03  0.9886471E+05  0.8885031E+04 -0.4021139E-02 -0.2502441E-02
  0.6380953E+00  0.1195651E-01  0.1220703E-03  0.9791138E+05  0.9548129E+04 -0.1300869E-01  0.1342773E-02
  0.6690477E+00  0.2371900E-02 -0.1037598E-02  0.9648328E+05  0.1016041E+05 -0.3795040E-01 -0.6652832E-02
  0.7000000E+00 -0.3662109E-02  0.2929688E-02  0.9529342E+05  0.1071712E+05  0.2022879E-01  0.1708984E-02
  0.7309524E+00  0.7849080E-02  0.6958008E-02  0.9442918E+05  0.1115371E+05 -0.9352096E-02 -0.3173828E-02
  0.7619048E+00  0.1209640E-01 -0.2441406E-02  0.9302034E+05  0.1151003E+05 -0.4614257E-01  0.8544922E-02
  0.7928572E+00  0.7197749E-02 -0.2685547E-02  0.9184329E+05  0.1177757E+05 -0.2340231E-01  0.9765625E-03
  0.8238096E+00  0.4889868E-02  0.8056641E-02  0.9103616E+05  0.1196386E+05 -0.1837405E-01 -0.8422852E-02
  0.8547620E+00  0.1403128E-01  0.2990723E-02  0.9010795E+05  0.1202611E+05 -0.2513492E-01  0.1049805E-01
  0.8857143E+00  0.5650674E-02  0.4394531E-02  0.8899969E+05  0.1200227E+05 -0.2646169E-01  0.3051758E-02
  0.9166667E+00  0.9621360E-02 -0.4150391E-02  0.8816902E+05  0.1188803E+05 -0.4740767E-01  0.4882812E-03
  0.9476191E+00  0.6183260E-02 -0.8544922E-03  0.8765214E+05  0.1172811E+05 -0.2576358E-01  0.1953125E-02
  0.9785714E+00  0.4085346E-02  0.4272461E-02  0.8718713E+05  0.1146122E+05 -0.3243328E-01 -0.1477051E-01
  0.1009524E+01  0.6967941E-02 -0.4394531E-02  0.8636357E+05  0.1107916E+05 -0.2370007E-01 -0.2929688E-02
  0.1040476E+01  0.2199780E-02 -0.1831055E-02  0.8577619E+05  0.1064769E+05 -0.1267073E-01  0.1220703E-02
  0.1071429E+01  0.2834066E-02 -0.4638672E-02  0.8543736E+05  0.1022761E+05 -0.1868490E-01  0.1525879E-02
  0.1102381E+01  0.1000277E-01  0.7324219E-03  0.8537831E+05  0.9815869E+04 -0.3986400E-01 -0.6408691E-02
  0.1133333E+01  0.1932032E-02  0.2197266E-02  0.8520495E+05  0.9273915E+04 -0.2197266E-01 -0.4638672E-02
  0.1164286E+01  0.5949991E-02  0.2807617E-02  0.8481045E+05  0.8618324E+04 -0.3103432E-01 -0.1702881E-01
  0.1195238E+01  0.1072371E-02 -0.2563477E-02  0.8461053E+05  0.7989352E+04 -0.2287724E-01 -0.1196289E-01
  0.1226190E+01  0.5338502E-02 -0.1464844E-02  0.8456461E+05  0.7421470E+04 -0.3663532E-01  0.1403809E-02
  0.1257143E+01  0.7501082E-02 -0.4028320E-02  0.8470978E+05  0.6974087E+04 -0.3262606E-01  0.1531982E-01
  0.1288095E+01  0.3695955E-02  0.3784180E-02  0.8503775E+05  0.6608777E+04 -0.2880950E-01 -0.6347656E-02
  0.1319048E+01  0.6686324E-02  0.4882812E-02  0.8495852E+05  0.5852838E+04 -0.2517204E-01 -0.1007080E-01
  0.1350000E+01  0.6962529E-02 -0.1953125E-02  0.8496170E+05  0.5193677E+04 -0.1808449E-01  0.8666992E-02
  0.1380952E+01  0.1045280E-01  0.2441406E-03  0.8505659E+05  0.4591874E+04 -0.6293777E-01 -0.4730225E-02
  0.1411905E+01  0.8516102E-02 -0.5432129E-02  0.8520630E+05  0.4104351E+04 -0.4080813E-01  0.9063721E-02
  0.1442857E+01  0.7148969E-02 -0.4760742E-02  0.8546395E+05  0.3800709E+04 -0.4060953E-01  0.1394653E-01
  0.1473810E+01  0.8406878E-02  0.3295898E-02  0.8579433E+05  0.3608556E+04 -0.2584183E-01  0.1312256E-02
  0.1504762E+01  0.1103268E-01  0.9765625E-03  0.8607050E+05  0.3267255E+04 -0.4542870E-01  0.2716064E-02
  0.1535714E+01  0.5802598E-02 -0.9155273E-03  0.8617208E+05  0.2603320E+04 -0.3878997E-01  0.2166748E-02
  0.1566667E+01  0.8531936E-02  0.1586914E-02  0.8636099E+05  0.2198429E+04 -0.3927028E-01  0.1373291E-02
  0.1597619E+01  0.7717172E-02 -0.5432129E-02  0.8656352E+05  0.1816380E+04 -0.3850945E-01  0.2052307E-01
  0.1628572E+01  0.4010117E-02 -0.4699707E-02  0.8676630E+05  0.1544323E+04 -0.3717791E-01  0.5004883E-02
  0.1659524E+01  0.6877620E-02 -0.1953125E-02  0.8698670E+05  0.1440792E+04 -0.2177300E-01  0.5722046E-02
  0.1690476E+01  0.7690429E-02 -0.1586914E-02  0.8721449E+05  0.1413791E+04 -0.3523877E-01  0.3799438E-02
  0.1721429E+01  0.7764888E-02  0.2685547E-02  0.8744381E+05  0.1461229E+04 -0.3233597E-01 -0.6256104E-03
  0.1752381E+01  0.4911008E-02  0.6713867E-03  0.8763570E+05  0.1062810E+04 -0.2340566E-01  0.8010864E-03
  0.1783333E+01  0.5065348E-02  0.4211426E-02  0.8779807E+05  0.7645718E+03 -0.2080899E-01 -0.4531860E-02
  0.1814286E+01  0.7602962E-02  0.2319336E-02  0.8796295E+05  0.6279907E+03 -0.4144624E-01 -0.6645203E-02
  0.1845238E+01  0.8335434E-02  0.2441406E-03  0.8812531E+05  0.4889266E+03 -0.5821573E-01 -0.2296448E-02
  0.1876190E+01  0.6831600E-02  0.2685547E-02  0.8826560E+05  0.3983579E+03 -0.3487369E-01 -0.2418518E-02
  0.1907143E+01  0.8864957E-02 -0.5187988E-03  0.8839294E+05  0.4189825E+03 -0.4250059E-01 -0.1670837E-02
  0.1938095E+01  0.6676376E-02  0.2746582E-03  0.8851420E+05  0.4521267E+03 -0.1612408E-01  0.2288818E-03
  0.1969048E+01  0.8617249E-02 -0.2166748E-02  0.8863485E+05  0.4542342E+03 -0.3273315E-01  0.1354218E-02
  0.2000000E+01  0.7507324E-02 -0.3356934E-03  0.8876536E+05  0.3995632E+03 -0.2636719E-01 -0.1258850E-02
Zone t="Motion of body    1 in DoF   3",I=    64,F=POINT
  0.5000000E-01 -0.6834558E+06 -0.1309063E+00 -0.9227753E-01 -0.3748803E-03  0.2611923E+07  0.4023122E+00
  0.8095238E-01 -0.6867584E+06 -0.5756278E+00 -0.1387293E+00 -0.9708190E-03  0.2617640E+07  0.1766066E+01
  0.1119048E+00 -0.6877978E+06 -0.1612551E+01  0.3217981E-01  0.4493091E-03  0.2620810E+07  0.4945471E+01
  0.1428571E+00 -0.6888063E+06 -0.3621575E+01 -0.5500793E-02 -0.2926923E-03  0.2622102E+07  0.1109518E+02
  0.1738095E+00 -0.6901731E+06 -0.7186193E+01 -0.4600211E-01 -0.1004763E-02  0.2627070E+07  0.2201113E+02
  0.2047619E+00 -0.6907871E+06 -0.1321968E+02 -0.2828021E-01 -0.1514584E-02  0.2628301E+07  0.4044501E+02
  0.2357143E+00 -0.6924378E+06 -0.2319745E+02  0.8072361E-01  0.2277702E-02  0.2631890E+07  0.7088973E+02
  0.2666667E+00 -0.6937564E+06 -0.3938781E+02  0.4600525E-01  0.7620156E-03  0.2636095E+07  0.1202238E+03
  0.2976190E+00 -0.6958792E+06 -0.6576614E+02 -0.1702148E-01 -0.7164478E-04  0.2640464E+07  0.2004275E+03
  0.3285715E+00 -0.6975384E+06 -0.1081863E+03 -0.1625393E-01  0.3819466E-03  0.2645506E+07  0.3291755E+03
  0.3595238E+00 -0.7007551E+06 -0.1766379E+03  0.4991139E-01  0.2924442E-02  0.2653932E+07  0.5367474E+03
  0.3904762E+00 -0.7027020E+06 -0.2860109E+03  0.7967878E-01  0.8054495E-02  0.2659431E+07  0.8673665E+03
  0.4214286E+00 -0.7068315E+06 -0.4573741E+03  0.5785925E-01  0.5599499E-02  0.2669283E+07  0.1383916E+04
  0.4523810E+00 -0.7100944E+06 -0.7242797E+03  0.1124557E+00  0.1495266E-01  0.2679460E+07  0.2187595E+04
  0.4833333E+00 -0.7144399E+06 -0.1118463E+04 -0.2689756E-01 -0.6101608E-02  0.2689770E+07  0.3369803E+04
  0.5142857E+00 -0.7183327E+06 -0.1698544E+04 -0.3530714E-01 -0.6076813E-02  0.2699191E+07  0.5103474E+04
  0.5452381E+00 -0.7227102E+06 -0.2517437E+04 -0.2037348E-01 -0.1207924E-01  0.2711110E+07  0.7542189E+04
  0.5761905E+00 -0.7294643E+06 -0.3643886E+04  0.7208453E-01  0.5662918E-02  0.2728966E+07  0.1088938E+05
  0.6071429E+00 -0.7351272E+06 -0.5172437E+04  0.7534610E-01  0.7152557E-02  0.2745505E+07  0.1541724E+05
  0.6380953E+00 -0.7406986E+06 -0.7181647E+04 -0.2807389E-01 -0.1299667E-01  0.2758154E+07  0.2132287E+05
  0.6690477E+00 -0.7484801E+06 -0.9802143E+04 -0.5532913E-01 -0.1332855E-01  0.2777736E+07  0.2900377E+05
  0.7000000E+00 -0.7552261E+06 -0.1316430E+05  0.4403250E-01  0.2935028E-01  0.2796507E+07  0.3881698E+05
  0.7309524E+00 -0.7621813E+06 -0.1740196E+05 -0.2847379E-01 -0.7431030E-02  0.2814092E+07  0.5111420E+05
  0.7619048E+00 -0.7715613E+06 -0.2270616E+05  0.1538086E-01 -0.4760742E-02  0.2838172E+07  0.6645136E+05
  0.7928572E+00 -0.7789036E+06 -0.2922578E+05  0.9237752E-02 -0.7919312E-02  0.2855245E+07  0.8514105E+05
  0.8238096E+00 -0.7870481E+06 -0.3718793E+05  0.2911694E-01  0.1223755E-01  0.2876518E+07  0.1078485E+06
  0.8547620E+00 -0.7951434E+06 -0.4679607E+05  0.6340855E-01  0.6652832E-02  0.2894335E+07  0.1350257E+06
  0.8857143E+00 -0.8042789E+06 -0.5827848E+05 -0.6133049E-02  0.3784180E-02  0.2916719E+07  0.1673904E+06
  0.9166667E+00 -0.8112204E+06 -0.7176319E+05  0.1551403E-01  0.5065918E-02  0.2932273E+07  0.2050870E+06
  0.9476191E+00 -0.8186484E+06 -0.8751733E+05  0.1578019E-01  0.3662109E-02  0.2951138E+07  0.2489087E+06
  0.9785714E+00 -0.8241201E+06 -0.1056246E+06  0.1515632E-01 -0.1293945E-01  0.2960018E+07  0.2985515E+06
  0.1009524E+01 -0.8305262E+06 -0.1264040E+06 -0.3022968E-02 -0.3759766E-01  0.2971882E+07  0.3551925E+06
  0.1040476E+01 -0.8336625E+06 -0.1496926E+06  0.1454788E-01  0.1348877E-01  0.2974089E+07  0.4179851E+06
  0.1071429E+01 -0.8355202E+06 -0.1756890E+06 -0.2119141E-01 -0.9216309E-02  0.2974581E+07  0.4875022E+06
  0.1102381E+01 -0.8350661E+06 -0.2042599E+06  0.5614180E-01  0.3417969E-01  0.2968066E+07  0.5630352E+06
  0.1133333E+01 -0.8324990E+06 -0.2353218E+06  0.1717960E-01 -0.2319336E-02  0.2953884E+07  0.6440484E+06
  0.1164286E+01 -0.8292003E+06 -0.2688270E+06 -0.7601310E-02  0.4516602E-02  0.2939170E+07  0.7309947E+06
  0.1195238E+01 -0.8214600E+06 -0.3036756E+06  0.4708218E-01  0.4736328E-01  0.2911804E+07  0.8199206E+06
  0.1226190E+01 -0.8101880E+06 -0.3394205E+06  0.1508220E-01 -0.7934570E-02  0.2875222E+07  0.9091969E+06
  0.1257143E+01 -0.7968562E+06 -0.3759886E+06  0.2301303E-01  0.5493164E-02  0.2835981E+07  0.9997154E+06
  0.1288095E+01 -0.7796659E+06 -0.4121138E+06  0.1028234E-01 -0.2966309E-01  0.2782725E+07  0.1085910E+07
  0.1319048E+01 -0.7613969E+06 -0.4479833E+06  0.2975298E-01  0.2478027E-01  0.2727732E+07  0.1170202E+07
  0.1350000E+01 -0.7410586E+06 -0.4824966E+06  0.2942686E-01  0.1953125E-02  0.2670281E+07  0.1250221E+07
  0.1380952E+01 -0.7174298E+06 -0.5139610E+06  0.1247485E-01 -0.4516602E-02  0.2603601E+07  0.1319667E+07
  0.1411905E+01 -0.6911215E+06 -0.5409751E+06  0.1036414E-01 -0.1489258E-01  0.2532541E+07  0.1376522E+07
  0.1442857E+01 -0.6660361E+06 -0.5666619E+06  0.2584627E-01  0.1391602E-01  0.2468112E+07  0.1429554E+07
  0.1473810E+01 -0.6382488E+06 -0.5868170E+06  0.2998315E-01 -0.1831055E-02  0.2393847E+07  0.1464388E+07
  0.1504762E+01 -0.6109839E+06 -0.6032912E+06  0.5544735E-01  0.1647949E-01  0.2322246E+07  0.1488858E+07
  0.1535714E+01 -0.5858164E+06 -0.6169639E+06  0.4848746E-02  0.1049805E-01  0.2257379E+07  0.1506458E+07
  0.1566667E+01 -0.5606268E+06 -0.6257176E+06 -0.1998577E-01 -0.5249023E-02  0.2195469E+07  0.1512494E+07
  0.1597619E+01 -0.5356072E+06 -0.6290965E+06 -0.2368637E-02 -0.5737305E-02  0.2133320E+07  0.1502332E+07
  0.1628572E+01 -0.5119958E+06 -0.6287235E+06  0.1394171E-01  0.2941895E-01  0.2077030E+07  0.1483356E+07
  0.1659524E+01 -0.4910599E+06 -0.6264796E+06  0.3744073E-01  0.2685547E-02  0.2031167E+07  0.1463765E+07
  0.1690476E+01 -0.4708705E+06 -0.6192848E+06  0.1227580E-02 -0.7446289E-02  0.1985626E+07  0.1428940E+07
  0.1721429E+01 -0.4522175E+06 -0.6085805E+06  0.9856798E-02 -0.5737305E-02  0.1943350E+07  0.1383994E+07
  0.1752381E+01 -0.4363996E+06 -0.5971996E+06 -0.4040262E-02 -0.1464844E-02  0.1908940E+07  0.1339002E+07
  0.1783333E+01 -0.4230423E+06 -0.5854682E+06  0.1375858E-01  0.1586914E-02  0.1882192E+07  0.1297224E+07
  0.1814286E+01 -0.4104936E+06 -0.5704323E+06  0.3767840E-02  0.6103516E-03  0.1857404E+07  0.1247562E+07
  0.1845238E+01 -0.3990770E+06 -0.5522724E+06  0.4584488E-01  0.1062012E-01  0.1835201E+07  0.1187761E+07
  0.1876190E+01 -0.3893028E+06 -0.5335312E+06  0.1138600E-01  0.3906250E-02  0.1818277E+07  0.1129365E+07
  0.1907143E+01 -0.3815329E+06 -0.5163324E+06 -0.3008325E-02 -0.4516602E-02  0.1807975E+07  0.1081796E+07
  0.1938095E+01 -0.3750362E+06 -0.4981949E+06  0.2469000E-01  0.3051758E-02  0.1800335E+07  0.1031975E+07
  0.1969048E+01 -0.3692277E+06 -0.4767900E+06  0.3663881E-01  0.6774902E-02  0.1792794E+07  0.9684518E+06
  0.2000000E+01 -0.3648724E+06 -0.4563324E+06  0.1922607E-01  0.1220703E-03  0.1788778E+07  0.9089294E+06
