VARIABLES="w (rad/s)"
"A   1   1" "B   1   1"
"A   1   2" "B   1   2"
"A   1   3" "B   1   3"
Zone t="Motion of body    1 in DoF   1",I=    64,F=POINT
  0.5000000E-01  0.4668473E+05  0.3100885E-02  0.6790161E-02  0.5507510E-05  0.7847544E+03  0.6715392E-04
  0.8095238E-01  0.4685434E+05  0.1359472E-01 -0.7080190E-02 -0.3716455E-04  0.7809527E+03  0.2911075E-03
  0.1119048E+00  0.4703849E+05  0.3825614E-01  0.7380222E-02  0.3094525E-04  0.7869794E+03  0.8226457E-03
  0.1428571E+00  0.4714986E+05  0.8614561E-01  0.2937317E-02  0.2073069E-04  0.7817935E+03  0.1842554E-02
  0.1738095E+00  0.4719425E+05  0.1715898E+00 -0.3204346E-02 -0.2907819E-04  0.7911779E+03  0.3697395E-02
  0.2047619E+00  0.4726297E+05  0.3167359E+00 -0.4936928E-03  0.1778075E-04  0.7883779E+03  0.6835378E-02
  0.2357143E+00  0.4742565E+05  0.5584867E+00  0.7355429E-02  0.4929933E-04  0.7981252E+03  0.1213803E-01
  0.2666667E+00  0.4746696E+05  0.9534607E+00  0.2646446E-02  0.5807122E-04  0.8003832E+03  0.2084392E-01
  0.2976190E+00  0.4756854E+05  0.1600617E+01 -0.4562988E-02 -0.9130593E-04  0.8022224E+03  0.3514892E-01
  0.3285715E+00  0.4779873E+05  0.2653723E+01 -0.1462853E-02 -0.1426274E-04  0.8132711E+03  0.5874563E-01
  0.3595238E+00  0.4789463E+05  0.4361666E+01  0.6875549E-02  0.2604518E-03  0.8219746E+03  0.9740526E-01
  0.3904762E+00  0.4799163E+05  0.7117705E+01  0.9915886E-02  0.2082177E-03  0.8245319E+03  0.1600986E+00
  0.4214286E+00  0.4828525E+05  0.1147671E+02 -0.5313420E-02 -0.2579335E-03  0.8430286E+03  0.2612118E+00
  0.4523810E+00  0.4857377E+05  0.1834358E+02 -0.4207812E-02 -0.1989678E-03  0.8626825E+03  0.4226466E+00
  0.4833333E+00  0.4864777E+05  0.2855498E+02 -0.1831055E-02 -0.2725124E-03  0.8546246E+03  0.6617311E+00
  0.5142857E+00  0.4890927E+05  0.4377086E+02 -0.3708734E-03 -0.1329631E-03  0.8730316E+03  0.1027381E+01
  0.5452381E+00  0.4931201E+05  0.6556662E+02  0.1365695E-01  0.2029747E-02  0.8922390E+03  0.1557992E+01
  0.5761905E+00  0.4963680E+05  0.9586568E+02  0.7613630E-02  0.1133069E-02  0.9114400E+03  0.2309076E+01
  0.6071429E+00  0.4985644E+05  0.1374794E+03 -0.1960305E-02 -0.1071632E-02  0.9141814E+03  0.3342520E+01
  0.6380953E+00  0.5016891E+05  0.1928945E+03  0.7257604E-02  0.1581043E-02  0.9240148E+03  0.4742698E+01
  0.6690477E+00  0.5061407E+05  0.2662154E+03  0.1114109E-01  0.2070725E-02  0.9511708E+03  0.6650233E+01
  0.7000000E+00  0.5113640E+05  0.3620598E+03 -0.9242466E-02 -0.2294183E-02  0.9817899E+03  0.9193325E+01
  0.7309524E+00  0.5159671E+05  0.4845974E+03  0.3444410E-03 -0.1461864E-02  0.9986539E+03  0.1246618E+02
  0.7619048E+00  0.5193685E+05  0.6395831E+03 -0.1100492E-01 -0.4042745E-02  0.1007452E+04  0.1665576E+02
  0.7928572E+00  0.5239800E+05  0.8343008E+03 -0.8660393E-04 -0.9961128E-03  0.1032703E+04  0.2207626E+02
  0.8238096E+00  0.5297836E+05  0.1076415E+04 -0.8103475E-02 -0.2518892E-02  0.1060075E+04  0.2891989E+02
  0.8547620E+00  0.5361161E+05  0.1374206E+04 -0.1096083E-01 -0.3451824E-02  0.1089765E+04  0.3751272E+02
  0.8857143E+00  0.5424686E+05  0.1737002E+04 -0.5943545E-03 -0.5769730E-04  0.1127096E+04  0.4829111E+02
  0.9166667E+00  0.5487728E+05  0.2174979E+04 -0.5692916E-02 -0.5245686E-02  0.1161587E+04  0.6155256E+02
  0.9476191E+00  0.5543356E+05  0.2698080E+04  0.6956168E-02  0.5824089E-02  0.1180332E+04  0.7745919E+02
  0.9785714E+00  0.5599230E+05  0.3318220E+04 -0.1496921E-02  0.4601479E-03  0.1202849E+04  0.9669219E+02
  0.1009524E+01  0.5660480E+05  0.4047625E+04 -0.8539884E-02 -0.4432678E-02  0.1238988E+04  0.1200349E+03
  0.1040476E+01  0.5729442E+05  0.4899667E+04 -0.5719427E-02 -0.6647110E-03  0.1283400E+04  0.1481119E+03
  0.1071429E+01  0.5799881E+05  0.5886589E+04  0.1509603E-02 -0.1697540E-03  0.1324477E+04  0.1812523E+03
  0.1102381E+01  0.5867252E+05  0.7020609E+04 -0.1744050E-02 -0.4611015E-02  0.1365649E+04  0.2201393E+03
  0.1133333E+01  0.5929758E+05  0.8314064E+04  0.6274055E-02  0.7204056E-02  0.1404171E+04  0.2654965E+03
  0.1164286E+01  0.5980007E+05  0.9774967E+04 -0.5412657E-02 -0.3923416E-02  0.1438264E+04  0.3180500E+03
  0.1195238E+01  0.6022388E+05  0.1141358E+05 -0.3229878E-02  0.5302429E-03  0.1469134E+04  0.3784885E+03
  0.1226190E+01  0.6058261E+05  0.1323375E+05 -0.1829277E-02 -0.5214691E-02  0.1501369E+04  0.4471646E+03
  0.1257143E+01  0.6085899E+05  0.1524215E+05  0.2876628E-02 -0.5912781E-04  0.1529071E+04  0.5242817E+03
  0.1288095E+01  0.6112652E+05  0.1742060E+05 -0.3222115E-02 -0.1174927E-02  0.1558560E+04  0.6097816E+03
  0.1319048E+01  0.6126125E+05  0.1978411E+05  0.4210765E-02 -0.1171112E-02  0.1586551E+04  0.7059627E+03
  0.1350000E+01  0.6126107E+05  0.2231753E+05  0.1220703E-02 -0.4676819E-02  0.1612217E+04  0.8125295E+03
  0.1380952E+01  0.6114362E+05  0.2501238E+05 -0.3370088E-02 -0.2037048E-02  0.1635408E+04  0.9296697E+03
  0.1411905E+01  0.6061891E+05  0.2769901E+05 -0.5835908E-03  0.1206589E-01  0.1624705E+04  0.1046593E+04
  0.1442857E+01  0.6022611E+05  0.3062668E+05  0.2950536E-02  0.4692078E-03  0.1634309E+04  0.1179875E+04
  0.1473810E+01  0.5967109E+05  0.3363601E+05  0.1832534E-02 -0.4474640E-02  0.1633679E+04  0.1319398E+04
  0.1504762E+01  0.5898726E+05  0.3670334E+05  0.3701222E-02 -0.6374359E-02  0.1629245E+04  0.1467246E+04
  0.1535714E+01  0.5814119E+05  0.3979972E+05 -0.1530137E-02 -0.3379822E-02  0.1620662E+04  0.1623842E+04
  0.1566667E+01  0.5716212E+05  0.4289210E+05  0.3038771E-02  0.1019287E-01  0.1607473E+04  0.1786130E+04
  0.1597619E+01  0.5607105E+05  0.4594292E+05  0.1671417E-02  0.5493164E-03  0.1590772E+04  0.1953672E+04
  0.1628572E+01  0.5486936E+05  0.4891864E+05 -0.2529747E-03 -0.3990173E-02  0.1566674E+04  0.2122845E+04
  0.1659524E+01  0.5357267E+05  0.5179281E+05  0.6040904E-02  0.1091003E-01  0.1533961E+04  0.2291750E+04
  0.1690476E+01  0.5217602E+05  0.5453987E+05  0.1832344E-02 -0.1129150E-01  0.1493636E+04  0.2461005E+04
  0.1721429E+01  0.5071298E+05  0.5713925E+05  0.7268502E-03 -0.3974915E-02  0.1448659E+04  0.2629168E+04
  0.1752381E+01  0.4919877E+05  0.5957108E+05 -0.1671833E-02 -0.4135132E-02  0.1401081E+04  0.2796284E+04
  0.1783333E+01  0.4763952E+05  0.6181899E+05 -0.2156195E-02 -0.9613037E-03  0.1351276E+04  0.2961403E+04
  0.1814286E+01  0.4606543E+05  0.6387451E+05  0.3338912E-02 -0.1953125E-02  0.1296444E+04  0.3122341E+04
  0.1845238E+01  0.4448749E+05  0.6572777E+05 -0.8103893E-03  0.4875183E-02  0.1239109E+04  0.3280024E+04
  0.1876190E+01  0.4292605E+05  0.6737874E+05  0.2952227E-02  0.3059387E-02  0.1179629E+04  0.3432575E+04
  0.1907143E+01  0.4139101E+05  0.6882784E+05  0.2184236E-02 -0.6507874E-02  0.1115465E+04  0.3576490E+04
  0.1938095E+01  0.3987988E+05  0.7007749E+05 -0.1346298E-02 -0.1091003E-02  0.1050982E+04  0.3712851E+04
  0.1969048E+01  0.3840331E+05  0.7113890E+05 -0.1208895E-02  0.2227783E-02  0.9840579E+03  0.3839301E+04
  0.2000000E+01  0.3697854E+05  0.7202016E+05  0.1937866E-02 -0.1160431E-01  0.9189755E+03  0.3961294E+04
Zone t="Motion of body    1 in DoF   2",I=    64,F=POINT
  0.5000000E-01 -0.3242493E-02  0.2592802E-05  0.8061375E+05  0.1967233E+03 -0.1335144E-03 -0.2354383E-05
  0.8095238E-01  0.7610321E-02  0.2926588E-04  0.7981451E+05  0.3262865E+03 -0.1649296E-03  0.8046627E-05
  0.1119048E+00  0.6170070E-02 -0.5948544E-04  0.7934323E+05  0.4674708E+03 -0.5624649E-03  0.2622604E-05
  0.1428571E+00 -0.7556915E-02  0.2908707E-04  0.7910956E+05  0.6256794E+03  0.1068115E-02 -0.1668930E-05
  0.1738095E+00 -0.6880564E-02  0.5006790E-05  0.7905173E+05  0.8077917E+03 -0.7681650E-03  0.1072884E-04
  0.2047619E+00 -0.3632834E-02 -0.6318092E-05  0.7917226E+05  0.1022331E+04 -0.3539684E-03  0.5006790E-05
  0.2357143E+00  0.7646733E-02  0.3218651E-05  0.7936258E+05  0.1281350E+04  0.4855069E-04  0.3051758E-04
  0.2666667E+00  0.3089905E-02 -0.1463890E-03  0.7968023E+05  0.1595212E+04  0.1401901E-02  0.5722046E-05
  0.2976190E+00  0.1308655E-01  0.1893044E-03  0.8004754E+05  0.1986473E+04 -0.6921387E-03 -0.6055832E-04
  0.3285715E+00  0.2577408E-02  0.6532669E-04  0.8047708E+05  0.2467821E+04  0.2089790E-03  0.3099442E-04
  0.3595238E+00 -0.4010737E-02  0.1885891E-03  0.8086051E+05  0.3066401E+04 -0.5941833E-03  0.4339218E-04
  0.3904762E+00  0.5548988E-02  0.2670288E-03  0.8128819E+05  0.3803697E+04  0.1113705E-02  0.5722046E-05
  0.4214286E+00 -0.1357773E-02  0.6031990E-03  0.8148038E+05  0.4673085E+04  0.3620729E-04 -0.1144409E-04
  0.4523810E+00 -0.7327832E-02 -0.9393692E-03  0.8161123E+05  0.5719258E+04  0.1180548E-02 -0.3814697E-05
  0.4833333E+00  0.6953272E-02  0.9803772E-03  0.8148973E+05  0.6858882E+04 -0.1041807E-02 -0.4005432E-04
  0.5142857E+00  0.9687212E-02 -0.3786087E-03  0.8119086E+05  0.8145278E+04  0.9494358E-03  0.3051758E-04
  0.5452381E+00 -0.3917977E-02  0.3385544E-03  0.8071916E+05  0.9511601E+04  0.2518700E-03  0.8583069E-04
  0.5761905E+00  0.9401179E-03  0.1420975E-03  0.8004919E+05  0.1093427E+05  0.4104740E-03  0.1106262E-03
  0.6071429E+00 -0.7941750E-02  0.1568794E-02  0.7924332E+05  0.1244482E+05 -0.8042278E-03  0.1544952E-03
  0.6380953E+00  0.1524455E-01 -0.9250641E-03  0.7838355E+05  0.1395874E+05  0.9565211E-04  0.1258850E-03
  0.6690477E+00 -0.1334194E-02 -0.6122589E-03  0.7738491E+05  0.1551186E+05 -0.2280673E-04  0.2365112E-03
  0.7000000E+00  0.1130240E-01  0.2994537E-03  0.7628050E+05  0.1710598E+05  0.2179827E-03 -0.9155273E-04
  0.7309524E+00  0.1035411E-01 -0.1361847E-02  0.7513506E+05  0.1869469E+05 -0.1064636E-02 -0.7629395E-05
  0.7619048E+00 -0.2102852E-02  0.1907349E-05  0.7390627E+05  0.2028838E+05  0.7009506E-03  0.1678467E-03
  0.7928572E+00 -0.3108119E-02 -0.6294250E-04  0.7263275E+05  0.2187808E+05  0.8275487E-03  0.4501343E-03
  0.8238096E+00  0.1026131E-01 -0.6408691E-03  0.7130881E+05  0.2345272E+05 -0.1852223E-04 -0.4768372E-03
  0.8547620E+00 -0.4311139E-02 -0.5403519E-02  0.6994238E+05  0.2499955E+05  0.4819907E-03  0.3814697E-05
  0.8857143E+00 -0.3281870E-02  0.4812241E-02  0.6853960E+05  0.2650947E+05 -0.1791677E-02 -0.1106262E-03
  0.9166667E+00 -0.5834406E-02  0.2145767E-02  0.6713365E+05  0.2796951E+05 -0.3828569E-03  0.8392334E-04
  0.9476191E+00  0.3027221E-02 -0.3623962E-03  0.6570162E+05  0.2937693E+05  0.8373164E-03  0.7133484E-03
  0.9785714E+00  0.2019284E-02 -0.3139496E-02  0.6426018E+05  0.3072171E+05  0.8576108E-03  0.1907349E-03
  0.1009524E+01  0.4557124E-02  0.2174377E-02  0.6281235E+05  0.3200268E+05 -0.4534452E-04  0.7247925E-04
  0.1040476E+01 -0.7039295E-03  0.4386902E-02  0.6138676E+05  0.3320915E+05  0.2786388E-03  0.1525879E-03
  0.1071429E+01 -0.3489176E-03  0.1953125E-02  0.5997827E+05  0.3433583E+05  0.1039632E-02 -0.1602173E-03
  0.1102381E+01  0.2276954E-02  0.3765106E-02  0.5858496E+05  0.3538043E+05 -0.1384167E-03  0.1602173E-03
  0.1133333E+01  0.7216510E-02  0.4817963E-02  0.5720629E+05  0.3634062E+05  0.1615636E-03  0.3509521E-03
  0.1164286E+01  0.3728574E-02 -0.1144409E-04  0.5585655E+05  0.3721489E+05 -0.8256596E-03  0.8697510E-03
  0.1195238E+01  0.1276632E-02 -0.4379272E-02  0.5455174E+05  0.3799764E+05 -0.3574569E-03 -0.1831055E-03
  0.1226190E+01  0.4542083E-02 -0.1056671E-02  0.5329507E+05  0.3868393E+05 -0.1107521E-02  0.9689331E-03
  0.1257143E+01  0.1314510E-01 -0.2628326E-02  0.5208343E+05  0.3931032E+05 -0.1213767E-04  0.5569458E-03
  0.1288095E+01  0.1717671E-02  0.2464294E-02  0.5089819E+05  0.3979802E+05  0.1184601E-04  0.7171631E-03
  0.1319048E+01  0.4644566E-02  0.9971619E-02  0.4975677E+05  0.4022844E+05 -0.1272484E-03  0.5493164E-03
  0.1350000E+01  0.6499114E-02 -0.9841919E-03  0.4866323E+05  0.4057240E+05 -0.5312319E-03  0.8544922E-03
  0.1380952E+01  0.4027531E-02  0.3780365E-02  0.4762818E+05  0.4082516E+05 -0.4419787E-03 -0.1525879E-04
  0.1411905E+01  0.5684606E-02 -0.9174347E-02  0.4664629E+05  0.4104481E+05 -0.1621085E-03  0.5416870E-03
  0.1442857E+01  0.1348363E-02  0.2136230E-02  0.4570859E+05  0.4114173E+05 -0.4864683E-03 -0.2288818E-03
  0.1473810E+01  0.3173286E-02  0.1079559E-02  0.4482235E+05  0.4116213E+05 -0.4969583E-03  0.2670288E-03
  0.1504762E+01  0.2134540E-02 -0.3601074E-02  0.4398245E+05  0.4110901E+05 -0.2028067E-04 -0.9155273E-04
  0.1535714E+01  0.2190878E-02  0.7553101E-03  0.4317823E+05  0.4099298E+05 -0.1887831E-03  0.8773804E-03
  0.1566667E+01  0.9632516E-02 -0.1693726E-02  0.4243223E+05  0.4080641E+05 -0.7596929E-03  0.6790161E-03
  0.1597619E+01 -0.2072557E-02 -0.2880096E-02  0.4174148E+05  0.4055808E+05 -0.3438344E-03  0.7324219E-03
  0.1628572E+01  0.3611916E-02 -0.4268646E-02  0.4110096E+05  0.4024521E+05  0.5902742E-03 -0.3051758E-04
  0.1659524E+01  0.6312147E-02  0.2700806E-02  0.4050158E+05  0.3988033E+05 -0.4505393E-03  0.2174377E-03
  0.1690476E+01  0.4431926E-02 -0.2235413E-02  0.3994730E+05  0.3946218E+05 -0.8665273E-03  0.8010864E-03
  0.1721429E+01  0.1418244E-02 -0.1197815E-02  0.3943560E+05  0.3899682E+05 -0.8332186E-03  0.8506775E-03
  0.1752381E+01  0.1602173E-02 -0.2752304E-02  0.3895897E+05  0.3848988E+05 -0.4527880E-03  0.5912781E-03
  0.1783333E+01  0.3961581E-02  0.6704330E-02  0.3852027E+05  0.3794051E+05 -0.1540139E-03  0.3204346E-03
  0.1814286E+01  0.3473477E-02 -0.5256653E-02  0.3812971E+05  0.3735910E+05 -0.8578564E-03  0.3547668E-03
  0.1845238E+01 -0.3688099E-02  0.7238388E-02  0.3778057E+05  0.3674566E+05 -0.4217332E-03  0.2403259E-03
  0.1876190E+01  0.5936986E-03  0.1581192E-02  0.3746677E+05  0.3609536E+05 -0.3741114E-03  0.1071930E-02
  0.1907143E+01 -0.1760190E-03  0.8287430E-02  0.3718234E+05  0.3542300E+05 -0.8800950E-03  0.7209778E-03
  0.1938095E+01  0.1503759E-02  0.1277924E-03  0.3692830E+05  0.3472164E+05  0.9447702E-04  0.9727478E-03
  0.1969048E+01  0.5595013E-02  0.5922318E-02  0.3670782E+05  0.3400055E+05 -0.7594338E-03  0.1525879E-02
  0.2000000E+01  0.1922607E-02  0.1082993E-01  0.3651412E+05  0.3326225E+05 -0.2441406E-03  0.1258850E-03
Zone t="Motion of body    1 in DoF   3",I=    64,F=POINT
  0.5000000E-01  0.8024786E+03  0.6942554E-04  0.7345676E-02  0.1756444E-04  0.1368578E+04  0.1799230E-05
  0.8095238E-01  0.7977778E+03  0.3009554E-03  0.5158466E-02  0.1459517E-04  0.1370602E+04  0.5370597E-05
  0.1119048E+00  0.8049925E+03  0.8481317E-03  0.7427094E-02  0.4353854E-04  0.1381907E+04  0.2006666E-04
  0.1428571E+00  0.7969672E+03  0.1913054E-02  0.4990101E-02  0.2922445E-04  0.1376416E+04  0.4324849E-04
  0.1738095E+00  0.8095272E+03  0.3820389E-02  0.4342876E-02  0.3821109E-04  0.1390986E+04  0.7838414E-04
  0.2047619E+00  0.8047376E+03  0.7087550E-02  0.6718414E-02  0.7617054E-04  0.1383895E+04  0.1614339E-03
  0.2357143E+00  0.8145967E+03  0.1257537E-01  0.7351384E-02  0.9928551E-04  0.1382004E+04  0.2821029E-03
  0.2666667E+00  0.8180353E+03  0.2158581E-01  0.6887912E-02  0.1241475E-03  0.1386589E+04  0.4737081E-03
  0.2976190E+00  0.8183408E+03  0.3644731E-01  0.9653091E-02  0.2196829E-03  0.1380530E+04  0.8074423E-03
  0.3285715E+00  0.8297527E+03  0.6088240E-01  0.4192642E-02  0.1087463E-03  0.1383760E+04  0.1332458E-02
  0.3595238E+00  0.8397671E+03  0.1008419E+00  0.5029337E-02  0.1154154E-03  0.1384698E+04  0.2226833E-02
  0.3904762E+00  0.8422773E+03  0.1660250E+00  0.5033656E-02  0.1825617E-03  0.1385234E+04  0.3712900E-02
  0.4214286E+00  0.8614537E+03  0.2700508E+00  0.6483368E-02  0.3171014E-03  0.1388410E+04  0.6138840E-02
  0.4523810E+00  0.8820068E+03  0.4357144E+00  0.5795227E-02  0.3582691E-03  0.1386688E+04  0.9994827E-02
  0.4833333E+00  0.8730945E+03  0.6857327E+00  0.2044152E-02  0.5896459E-04  0.1389277E+04  0.1584492E-01
  0.5142857E+00  0.8916271E+03  0.1061743E+01  0.1257261E-02  0.4144316E-04  0.1385178E+04  0.2492071E-01
  0.5452381E+00  0.9115784E+03  0.1608097E+01  0.3945963E-02  0.2144258E-03  0.1391369E+04  0.3819397E-01
  0.5761905E+00  0.9316588E+03  0.2379271E+01  0.6612272E-02  0.8061221E-03  0.1392736E+04  0.5725063E-01
  0.6071429E+00  0.9333031E+03  0.3454533E+01  0.2445669E-02  0.9444915E-04  0.1387316E+04  0.8399697E-01
  0.6380953E+00  0.9437025E+03  0.4911458E+01  0.6153121E-02  0.9117294E-03  0.1393186E+04  0.1208068E+00
  0.6690477E+00  0.9711987E+03  0.6864640E+01  0.5201360E-02  0.7543359E-03  0.1392689E+04  0.1715585E+00
  0.7000000E+00  0.1002369E+04  0.9459927E+01  0.7128034E-02  0.1546366E-02  0.1392037E+04  0.2403759E+00
  0.7309524E+00  0.1020309E+04  0.1285041E+02  0.8368351E-02  0.2261769E-02  0.1398022E+04  0.3305310E+00
  0.7619048E+00  0.1028942E+04  0.1722027E+02  0.4263281E-02  0.8534640E-03  0.1398458E+04  0.4484095E+00
  0.7928572E+00  0.1054143E+04  0.2279288E+02  0.8383742E-02  0.2493847E-02  0.1394153E+04  0.6021380E+00
  0.8238096E+00  0.1082606E+04  0.2986040E+02  0.6936575E-02  0.2361268E-02  0.1396703E+04  0.8014677E+00
  0.8547620E+00  0.1112655E+04  0.3871181E+02  0.5337601E-02  0.1842000E-02  0.1402501E+04  0.1056998E+01
  0.8857143E+00  0.1150783E+04  0.4969496E+02  0.4545950E-02  0.1383044E-02  0.1405654E+04  0.1382488E+01
  0.9166667E+00  0.1185177E+04  0.6325027E+02  0.4862699E-02  0.1621366E-02  0.1402240E+04  0.1788924E+01
  0.9476191E+00  0.1204856E+04  0.7992665E+02  0.5462685E-02  0.2359062E-02  0.1403037E+04  0.2297566E+01
  0.9785714E+00  0.1228737E+04  0.1000422E+03  0.6921309E-02  0.3102198E-02  0.1408766E+04  0.2923638E+01
  0.1009524E+01  0.1265698E+04  0.1240154E+03  0.5091812E-02  0.2557099E-02  0.1412230E+04  0.3670841E+01
  0.1040476E+01  0.1310117E+04  0.1525934E+03  0.5657100E-02  0.2622843E-02  0.1410453E+04  0.4599197E+01
  0.1071429E+01  0.1350206E+04  0.1864953E+03  0.4948934E-02  0.2324194E-02  0.1410213E+04  0.5726089E+01
  0.1102381E+01  0.1393821E+04  0.2265555E+03  0.3583261E-02  0.2023190E-02  0.1415805E+04  0.7106574E+01
  0.1133333E+01  0.1433594E+04  0.2732737E+03  0.5037083E-02  0.2422631E-02  0.1422810E+04  0.8743090E+01
  0.1164286E+01  0.1467652E+04  0.3273988E+03  0.2752199E-02  0.1336336E-03  0.1425181E+04  0.1068231E+02
  0.1195238E+01  0.1498586E+04  0.3900391E+03  0.3188388E-02  0.2602816E-02  0.1422609E+04  0.1296489E+02
  0.1226190E+01  0.1530649E+04  0.4607521E+03  0.1183741E-02 -0.7134080E-03  0.1421526E+04  0.1558253E+02
  0.1257143E+01  0.1561047E+04  0.5413746E+03  0.3665577E-02  0.1545787E-02  0.1424453E+04  0.1853831E+02
  0.1288095E+01  0.1592858E+04  0.6303289E+03  0.5650547E-02  0.5195618E-02  0.1431654E+04  0.2208657E+02
  0.1319048E+01  0.1620745E+04  0.7297585E+03  0.4881711E-02  0.4577398E-02  0.1435458E+04  0.2607844E+02
  0.1350000E+01  0.1645580E+04  0.8390754E+03  0.2589755E-02 -0.1592040E-02  0.1439320E+04  0.3063115E+02
  0.1380952E+01  0.1668667E+04  0.9593733E+03  0.2687783E-02  0.2427220E-02  0.1438138E+04  0.3569870E+02
  0.1411905E+01  0.1590280E+04  0.1046105E+04  0.3936536E-02  0.1520753E-02  0.1427954E+04  0.3935050E+02
  0.1442857E+01  0.1600817E+04  0.1180670E+04  0.3860020E-02  0.3987312E-02  0.1429548E+04  0.4505643E+02
  0.1473810E+01  0.1602923E+04  0.1324177E+04  0.3118931E-02  0.2584457E-03  0.1434568E+04  0.5174484E+02
  0.1504762E+01  0.1598015E+04  0.1474381E+04  0.4000362E-02  0.3675222E-02  0.1440229E+04  0.5932717E+02
  0.1535714E+01  0.1587742E+04  0.1631598E+04  0.4500987E-02  0.5589724E-02  0.1441831E+04  0.6716033E+02
  0.1566667E+01  0.1573162E+04  0.1793154E+04  0.3265218E-02  0.2499342E-02  0.1443271E+04  0.7514818E+02
  0.1597619E+01  0.1555065E+04  0.1959338E+04  0.2948858E-02 -0.9677410E-03  0.1438972E+04  0.8322460E+02
  0.1628572E+01  0.1529168E+04  0.2127035E+04  0.4696427E-02  0.5635023E-02  0.1435649E+04  0.9102003E+02
  0.1659524E+01  0.1496701E+04  0.2298223E+04  0.3700858E-02 -0.1200199E-02  0.1434906E+04  0.1002538E+03
  0.1690476E+01  0.1458143E+04  0.2472905E+04  0.3409694E-02 -0.1353741E-02  0.1437878E+04  0.1104869E+03
  0.1721429E+01  0.1412828E+04  0.2643977E+04  0.3962220E-02  0.2534389E-02  0.1444380E+04  0.1221845E+03
  0.1752381E+01  0.1364681E+04  0.2812629E+04  0.3382849E-02  0.1464844E-02  0.1446947E+04  0.1338327E+03
  0.1783333E+01  0.1314323E+04  0.2975200E+04  0.2609681E-02 -0.2417564E-03  0.1448706E+04  0.1447765E+03
  0.1814286E+01  0.1259081E+04  0.3134456E+04  0.3204346E-02  0.3278732E-02  0.1447149E+04  0.1551832E+03
  0.1845238E+01  0.1200520E+04  0.3290830E+04  0.3340789E-02  0.1981258E-02  0.1439507E+04  0.1630113E+03
  0.1876190E+01  0.1137937E+04  0.3439559E+04  0.3928170E-02  0.8955002E-03  0.1433058E+04  0.1715816E+03
  0.1907143E+01  0.1071526E+04  0.3585266E+04  0.2750297E-02 -0.5149841E-03  0.1429536E+04  0.1807789E+03
  0.1938095E+01  0.1007009E+04  0.3726476E+04  0.4221942E-02  0.2725124E-02  0.1428968E+04  0.1925406E+03
  0.1969048E+01  0.9398845E+03  0.3862089E+04  0.2797506E-02  0.2249241E-02  0.1431757E+04  0.2067315E+03
  0.2000000E+01  0.8725157E+03  0.3985292E+04  0.4936218E-02  0.1070976E-02  0.1435895E+04  0.2229828E+03
