VARIABLES="w (rad/s)"
"abs(F   1   1)" "angle(F   1   1)"
"abs(F   1   2)" "angle(F   1   2)"
"abs(F   1   3)" "angle(F   1   3)"
Zone t="Diffraction force - beta =   0.000 deg",I=    64,F=POINT
  0.5000000E-01  0.2062364E+04 -0.1570769E+01  0.9095116E+05 -0.6224002E-05  0.7240601E+04  0.1570819E+01
  0.8095238E-01  0.3369743E+04 -0.1570790E+01  0.9064076E+05 -0.1671786E-04  0.1181559E+05  0.1570802E+01
  0.1119048E+00  0.4700207E+04 -0.1570798E+01  0.9018430E+05 -0.3311921E-04  0.1646812E+05  0.1570806E+01
  0.1428571E+00  0.6071738E+04 -0.1570786E+01  0.8958273E+05 -0.5663504E-04  0.2124966E+05  0.1570801E+01
  0.1738095E+00  0.7496402E+04 -0.1570790E+01  0.8883709E+05 -0.8897681E-04  0.2620002E+05  0.1570799E+01
  0.2047619E+00  0.8985981E+04 -0.1570784E+01  0.8794853E+05 -0.1328259E-03  0.3136755E+05  0.1570804E+01
  0.2357143E+00  0.1056480E+05 -0.1570779E+01  0.8691986E+05 -0.1919030E-03  0.3681804E+05  0.1570810E+01
  0.2666667E+00  0.1224813E+05 -0.1570771E+01  0.8575290E+05 -0.2705104E-03  0.4260904E+05  0.1570820E+01
  0.2976190E+00  0.1405951E+05 -0.1570763E+01  0.8445224E+05 -0.3767867E-03  0.4882141E+05  0.1570837E+01
  0.3285715E+00  0.1603244E+05 -0.1570744E+01  0.8302182E+05 -0.5176482E-03  0.5553781E+05  0.1570853E+01
  0.3595238E+00  0.1818048E+05 -0.1570710E+01  0.8146982E+05 -0.7059178E-03  0.6282805E+05  0.1570880E+01
  0.3904762E+00  0.2053643E+05 -0.1570672E+01  0.7980128E+05 -0.9539995E-03  0.7078083E+05  0.1570920E+01
  0.4214286E+00  0.2312659E+05 -0.1570612E+01  0.7803120E+05 -0.1269476E-02  0.7947819E+05  0.1570980E+01
  0.4523810E+00  0.2594614E+05 -0.1570525E+01  0.7616211E+05 -0.1678720E-02  0.8888966E+05  0.1571064E+01
  0.4833333E+00  0.2901978E+05 -0.1570405E+01  0.7421744E+05 -0.2162258E-02  0.9906295E+05  0.1571189E+01
  0.5142857E+00  0.3229763E+05 -0.1570240E+01  0.7219684E+05 -0.2753951E-02  0.1098682E+06  0.1571352E+01
  0.5452381E+00  0.3578868E+05 -0.1570023E+01  0.7011447E+05 -0.3438623E-02  0.1212648E+06  0.1571567E+01
  0.5761905E+00  0.3944218E+05 -0.1569741E+01  0.6798166E+05 -0.4215962E-02  0.1331012E+06  0.1571853E+01
  0.6071429E+00  0.4324757E+05 -0.1569377E+01  0.6579780E+05 -0.5117496E-02  0.1453152E+06  0.1572215E+01
  0.6380953E+00  0.4720902E+05 -0.1568928E+01  0.6358388E+05 -0.6104823E-02  0.1578619E+06  0.1572665E+01
  0.6690477E+00  0.5124202E+05 -0.1568374E+01  0.6133898E+05 -0.7211442E-02  0.1705627E+06  0.1573218E+01
  0.7000000E+00  0.5537436E+05 -0.1567695E+01  0.5906700E+05 -0.8454993E-02  0.1834091E+06  0.1573897E+01
  0.7309524E+00  0.5961814E+05 -0.1566882E+01  0.5678864E+05 -0.9809487E-02  0.1963418E+06  0.1574710E+01
  0.7619048E+00  0.6389443E+05 -0.1565913E+01  0.5450524E+05 -0.1130191E-01  0.2092627E+06  0.1575678E+01
  0.7928572E+00  0.6822316E+05 -0.1564769E+01  0.5221877E+05 -0.1294687E-01  0.2221607E+06  0.1576823E+01
  0.8238096E+00  0.7259375E+05 -0.1563429E+01  0.4993848E+05 -0.1474752E-01  0.2349495E+06  0.1578163E+01
  0.8547620E+00  0.7703231E+05 -0.1561876E+01  0.4768668E+05 -0.1668304E-01  0.2477154E+06  0.1579716E+01
  0.8857143E+00  0.8143598E+05 -0.1560087E+01  0.4545425E+05 -0.1879783E-01  0.2601540E+06  0.1581504E+01
  0.9166667E+00  0.8587158E+05 -0.1558042E+01  0.4324469E+05 -0.2110514E-01  0.2724325E+06  0.1583549E+01
  0.9476191E+00  0.9028609E+05 -0.1555722E+01  0.4106673E+05 -0.2361576E-01  0.2843454E+06  0.1585870E+01
  0.9785714E+00  0.9474516E+05 -0.1553101E+01  0.3894599E+05 -0.2624665E-01  0.2960748E+06  0.1588489E+01
  0.1009524E+01  0.9913206E+05 -0.1550160E+01  0.3686778E+05 -0.2910862E-01  0.3074163E+06  0.1591430E+01
  0.1040476E+01  0.1034482E+06 -0.1546880E+01  0.3483561E+05 -0.3221639E-01  0.3182652E+06  0.1594709E+01
  0.1071429E+01  0.1077447E+06 -0.1543239E+01  0.3285146E+05 -0.3560594E-01  0.3287939E+06  0.1598348E+01
  0.1102381E+01  0.1119836E+06 -0.1539228E+01  0.3093019E+05 -0.3918831E-01  0.3387415E+06  0.1602358E+01
  0.1133333E+01  0.1162090E+06 -0.1534822E+01  0.2907792E+05 -0.4292141E-01  0.3483027E+06  0.1606761E+01
  0.1164286E+01  0.1202949E+06 -0.1530004E+01  0.2728846E+05 -0.4694969E-01  0.3572236E+06  0.1611576E+01
  0.1195238E+01  0.1242380E+06 -0.1524765E+01  0.2556143E+05 -0.5130789E-01  0.3654021E+06  0.1616812E+01
  0.1226190E+01  0.1281373E+06 -0.1519073E+01  0.2389708E+05 -0.5604238E-01  0.3732054E+06  0.1622498E+01
  0.1257143E+01  0.1317941E+06 -0.1512965E+01  0.2229706E+05 -0.6126718E-01  0.3800008E+06  0.1628599E+01
  0.1288095E+01  0.1355295E+06 -0.1506340E+01  0.2078200E+05 -0.6626369E-01  0.3865600E+06  0.1635218E+01
  0.1319048E+01  0.1390602E+06 -0.1499260E+01  0.1933533E+05 -0.7168721E-01  0.3924052E+06  0.1642288E+01
  0.1350000E+01  0.1423657E+06 -0.1491715E+01  0.1795824E+05 -0.7749796E-01  0.3973790E+06  0.1649824E+01
  0.1380952E+01  0.1454793E+06 -0.1483734E+01  0.1664841E+05 -0.8372805E-01  0.4014535E+06  0.1657792E+01
  0.1411905E+01  0.1482990E+06 -0.1475287E+01  0.1540533E+05 -0.9045874E-01  0.4048430E+06  0.1666224E+01
  0.1442857E+01  0.1510232E+06 -0.1466427E+01  0.1422678E+05 -0.9780517E-01  0.4072634E+06  0.1675060E+01
  0.1473810E+01  0.1536097E+06 -0.1457106E+01  0.1312188E+05 -0.1049461E+00  0.4090477E+06  0.1684358E+01
  0.1504762E+01  0.1560465E+06 -0.1447350E+01  0.1207994E+05 -0.1124626E+00  0.4101983E+06  0.1694081E+01
  0.1535714E+01  0.1581765E+06 -0.1437150E+01  0.1110790E+05 -0.1201405E+00  0.4105136E+06  0.1704273E+01
  0.1566667E+01  0.1599884E+06 -0.1426644E+01  0.1019409E+05 -0.1284474E+00  0.4096853E+06  0.1714725E+01
  0.1597619E+01  0.1615715E+06 -0.1415747E+01  0.9340509E+04 -0.1371234E+00  0.4081492E+06  0.1725587E+01
  0.1628572E+01  0.1629584E+06 -0.1404466E+01  0.8541571E+04 -0.1465406E+00  0.4060786E+06  0.1736832E+01
  0.1659524E+01  0.1640005E+06 -0.1392996E+01  0.7796045E+04 -0.1567195E+00  0.4029063E+06  0.1748232E+01
  0.1690476E+01  0.1648271E+06 -0.1381255E+01  0.7105409E+04 -0.1668766E+00  0.3991251E+06  0.1759919E+01
  0.1721429E+01  0.1654256E+06 -0.1369403E+01  0.6462732E+04 -0.1771017E+00  0.3946474E+06  0.1771672E+01
  0.1752381E+01  0.1657573E+06 -0.1357434E+01  0.5870708E+04 -0.1875826E+00  0.3895775E+06  0.1783578E+01
  0.1783333E+01  0.1657493E+06 -0.1345421E+01  0.5327883E+04 -0.1977781E+00  0.3837329E+06  0.1795581E+01
  0.1814286E+01  0.1653656E+06 -0.1333679E+01  0.4824108E+04 -0.2092003E+00  0.3767786E+06  0.1807124E+01
  0.1845238E+01  0.1647616E+06 -0.1321896E+01  0.4362310E+04 -0.2204015E+00  0.3694591E+06  0.1818806E+01
  0.1876190E+01  0.1639401E+06 -0.1310143E+01  0.3936572E+04 -0.2328251E+00  0.3618425E+06  0.1830492E+01
  0.1907143E+01  0.1628087E+06 -0.1298762E+01  0.3544117E+04 -0.2466084E+00  0.3534896E+06  0.1841709E+01
  0.1938095E+01  0.1614309E+06 -0.1287713E+01  0.3187151E+04 -0.2602451E+00  0.3446489E+06  0.1852568E+01
  0.1969048E+01  0.1598726E+06 -0.1276974E+01  0.2858472E+04 -0.2734990E+00  0.3355793E+06  0.1863114E+01
  0.2000000E+01  0.1581825E+06 -0.1266644E+01  0.2556030E+04 -0.2899951E+00  0.3263890E+06  0.1873228E+01
