VARIABLES="w (rad/s)"
"abs(F   1   1)" "angle(F   1   1)"
"abs(F   1   2)" "angle(F   1   2)"
"abs(F   1   3)" "angle(F   1   3)"
Zone t="Diffraction force - beta =   0.000 deg",I=    64,F=POINT
  0.5000000E-01  0.2829081E+03 -0.1570796E+01  0.3235100E+02 -0.3104395E+01  0.2552538E+03  0.1570797E+01
  0.8095238E-01  0.4635796E+03 -0.1570795E+01  0.8435102E+02 -0.3103229E+01  0.4193622E+03  0.1570797E+01
  0.1119048E+00  0.6494094E+03 -0.1570795E+01  0.1606661E+03 -0.3101621E+01  0.5866247E+03  0.1570798E+01
  0.1428571E+00  0.8398585E+03 -0.1570793E+01  0.2617807E+03 -0.3099563E+01  0.7588193E+03  0.1570799E+01
  0.1738095E+00  0.1040119E+04 -0.1570791E+01  0.3877152E+03 -0.3096861E+01  0.9369401E+03  0.1570801E+01
  0.2047619E+00  0.1248813E+04 -0.1570788E+01  0.5398918E+03 -0.3093503E+01  0.1124453E+04  0.1570803E+01
  0.2357143E+00  0.1472375E+04 -0.1570784E+01  0.7181591E+03 -0.3089179E+01  0.1322601E+04  0.1570807E+01
  0.2666667E+00  0.1712914E+04 -0.1570778E+01  0.9239399E+03 -0.3083882E+01  0.1535187E+04  0.1570812E+01
  0.2976190E+00  0.1969747E+04 -0.1570768E+01  0.1158612E+04 -0.3077224E+01  0.1764909E+04  0.1570821E+01
  0.3285715E+00  0.2255548E+04 -0.1570755E+01  0.1422453E+04 -0.3069147E+01  0.2013218E+04  0.1570833E+01
  0.3595238E+00  0.2570349E+04 -0.1570734E+01  0.1715427E+04 -0.3059246E+01  0.2285892E+04  0.1570850E+01
  0.3904762E+00  0.2910252E+04 -0.1570702E+01  0.2040328E+04 -0.3047458E+01  0.2587101E+04  0.1570878E+01
  0.4214286E+00  0.3289392E+04 -0.1570656E+01  0.2393790E+04 -0.3034118E+01  0.2916219E+04  0.1570918E+01
  0.4523810E+00  0.3716970E+04 -0.1570587E+01  0.2777024E+04 -0.3018556E+01  0.3275095E+04  0.1570976E+01
  0.4833333E+00  0.4178965E+04 -0.1570492E+01  0.3185808E+04 -0.3002501E+01  0.3669529E+04  0.1571058E+01
  0.5142857E+00  0.4669524E+04 -0.1570359E+01  0.3622728E+04 -0.2985083E+01  0.4092491E+04  0.1571172E+01
  0.5452381E+00  0.5206964E+04 -0.1570180E+01  0.4084922E+04 -0.2967422E+01  0.4539776E+04  0.1571325E+01
  0.5761905E+00  0.5775903E+04 -0.1569947E+01  0.4566431E+04 -0.2949570E+01  0.5012572E+04  0.1571526E+01
  0.6071429E+00  0.6377367E+04 -0.1569642E+01  0.5071823E+04 -0.2931158E+01  0.5508728E+04  0.1571786E+01
  0.6380953E+00  0.6999724E+04 -0.1569259E+01  0.5605210E+04 -0.2913543E+01  0.6026312E+04  0.1572113E+01
  0.6690477E+00  0.7641246E+04 -0.1568778E+01  0.6158501E+04 -0.2895736E+01  0.6552272E+04  0.1572522E+01
  0.7000000E+00  0.8321653E+04 -0.1568183E+01  0.6728865E+04 -0.2877495E+01  0.7092849E+04  0.1573029E+01
  0.7309524E+00  0.9034729E+04 -0.1567460E+01  0.7319305E+04 -0.2859496E+01  0.7651832E+04  0.1573645E+01
  0.7619048E+00  0.9755858E+04 -0.1566582E+01  0.7928125E+04 -0.2841488E+01  0.8218214E+04  0.1574389E+01
  0.7928572E+00  0.1049245E+05 -0.1565527E+01  0.8557219E+04 -0.2823588E+01  0.8800125E+04  0.1575279E+01
  0.8238096E+00  0.1124657E+05 -0.1564272E+01  0.9203691E+04 -0.2805768E+01  0.9378778E+04  0.1576338E+01
  0.8547620E+00  0.1202982E+05 -0.1562798E+01  0.9863271E+04 -0.2787968E+01  0.9971020E+04  0.1577581E+01
  0.8857143E+00  0.1283068E+05 -0.1561073E+01  0.1053148E+05 -0.2770064E+01  0.1055837E+05  0.1579034E+01
  0.9166667E+00  0.1365708E+05 -0.1559075E+01  0.1121005E+05 -0.2752253E+01  0.1116072E+05  0.1580714E+01
  0.9476191E+00  0.1449820E+05 -0.1556770E+01  0.1189878E+05 -0.2734617E+01  0.1175661E+05  0.1582651E+01
  0.9785714E+00  0.1534928E+05 -0.1554127E+01  0.1259867E+05 -0.2717297E+01  0.1236377E+05  0.1584858E+01
  0.1009524E+01  0.1618867E+05 -0.1551098E+01  0.1330561E+05 -0.2700157E+01  0.1296039E+05  0.1587370E+01
  0.1040476E+01  0.1704641E+05 -0.1547676E+01  0.1402021E+05 -0.2683315E+01  0.1355515E+05  0.1590204E+01
  0.1071429E+01  0.1791931E+05 -0.1543831E+01  0.1473531E+05 -0.2666517E+01  0.1413373E+05  0.1593391E+01
  0.1102381E+01  0.1882019E+05 -0.1539549E+01  0.1545243E+05 -0.2649952E+01  0.1470763E+05  0.1596945E+01
  0.1133333E+01  0.1972819E+05 -0.1534783E+01  0.1616666E+05 -0.2633488E+01  0.1528632E+05  0.1600878E+01
  0.1164286E+01  0.2062493E+05 -0.1529482E+01  0.1687794E+05 -0.2617169E+01  0.1584290E+05  0.1605235E+01
  0.1195238E+01  0.2152534E+05 -0.1523638E+01  0.1759030E+05 -0.2601314E+01  0.1639398E+05  0.1610015E+01
  0.1226190E+01  0.2241645E+05 -0.1517209E+01  0.1830179E+05 -0.2585873E+01  0.1692645E+05  0.1615244E+01
  0.1257143E+01  0.2327447E+05 -0.1510135E+01  0.1901612E+05 -0.2570417E+01  0.1743010E+05  0.1620949E+01
  0.1288095E+01  0.2416602E+05 -0.1502516E+01  0.1971705E+05 -0.2556204E+01  0.1793021E+05  0.1627091E+01
  0.1319048E+01  0.2502039E+05 -0.1494220E+01  0.2041546E+05 -0.2541778E+01  0.1840196E+05  0.1633724E+01
  0.1350000E+01  0.2585164E+05 -0.1485269E+01  0.2110046E+05 -0.2527355E+01  0.1882524E+05  0.1640874E+01
  0.1380952E+01  0.2668679E+05 -0.1475706E+01  0.2177919E+05 -0.2513463E+01  0.1924014E+05  0.1648480E+01
  0.1411905E+01  0.2726612E+05 -0.1466032E+01  0.2232881E+05 -0.2498912E+01  0.1958532E+05  0.1655785E+01
  0.1442857E+01  0.2803805E+05 -0.1455198E+01  0.2297796E+05 -0.2485332E+01  0.1992833E+05  0.1664267E+01
  0.1473810E+01  0.2878190E+05 -0.1443726E+01  0.2361465E+05 -0.2472127E+01  0.2024052E+05  0.1673173E+01
  0.1504762E+01  0.2948204E+05 -0.1431574E+01  0.2423963E+05 -0.2459379E+01  0.2052754E+05  0.1682478E+01
  0.1535714E+01  0.3011994E+05 -0.1418708E+01  0.2485192E+05 -0.2447014E+01  0.2076646E+05  0.1692199E+01
  0.1566667E+01  0.3068878E+05 -0.1405125E+01  0.2544994E+05 -0.2434970E+01  0.2095083E+05  0.1702308E+01
  0.1597619E+01  0.3120862E+05 -0.1390936E+01  0.2603599E+05 -0.2423475E+01  0.2110877E+05  0.1712685E+01
  0.1628572E+01  0.3166417E+05 -0.1376176E+01  0.2660633E+05 -0.2412292E+01  0.2120893E+05  0.1723336E+01
  0.1659524E+01  0.3205107E+05 -0.1360889E+01  0.2716070E+05 -0.2401416E+01  0.2124629E+05  0.1734239E+01
  0.1690476E+01  0.3237867E+05 -0.1345188E+01  0.2769715E+05 -0.2390805E+01  0.2124145E+05  0.1745259E+01
  0.1721429E+01  0.3264248E+05 -0.1329121E+01  0.2821434E+05 -0.2380521E+01  0.2119997E+05  0.1756301E+01
  0.1752381E+01  0.3281412E+05 -0.1312559E+01  0.2871300E+05 -0.2370403E+01  0.2111442E+05  0.1767383E+01
  0.1783333E+01  0.3289144E+05 -0.1295621E+01  0.2918856E+05 -0.2360396E+01  0.2096341E+05  0.1778403E+01
  0.1814286E+01  0.3287973E+05 -0.1278367E+01  0.2964520E+05 -0.2350753E+01  0.2076821E+05  0.1789245E+01
  0.1845238E+01  0.3278777E+05 -0.1260943E+01  0.3008276E+05 -0.2341561E+01  0.2054204E+05  0.1799755E+01
  0.1876190E+01  0.3260131E+05 -0.1243420E+01  0.3049861E+05 -0.2332743E+01  0.2026140E+05  0.1809872E+01
  0.1907143E+01  0.3231157E+05 -0.1225830E+01  0.3089281E+05 -0.2324219E+01  0.1991722E+05  0.1819561E+01
  0.1938095E+01  0.3193873E+05 -0.1208394E+01  0.3126679E+05 -0.2316183E+01  0.1953780E+05  0.1828625E+01
  0.1969048E+01  0.3147282E+05 -0.1191125E+01  0.3161817E+05 -0.2308380E+01  0.1912240E+05  0.1836898E+01
  0.2000000E+01  0.3091387E+05 -0.1174035E+01  0.3194759E+05 -0.2300823E+01  0.1868108E+05  0.1844346E+01
