VARIABLES="w (rad/s)"
"A   1   1" "B   1   1"
"A   1   2" "B   1   2"
"A   1   3" "B   1   3"
Zone t="Motion of body    1 in DoF   1",I=    64,F=POINT
  0.5000000E-01  0.5029005E+05  0.2055562E-02  0.4005432E-03 -0.1155549E-06 -0.1340073E+06 -0.5570576E-02
  0.8095238E-01  0.5084074E+05  0.8827756E-02  0.1708199E-02  0.2227414E-05 -0.1353409E+06 -0.2398236E-01
  0.1119048E+00  0.5105004E+05  0.2475315E-01 -0.1303896E-02 -0.1800711E-04 -0.1357209E+06 -0.6696549E-01
  0.1428571E+00  0.5116347E+05  0.5553686E-01 -0.1281738E-02 -0.1404682E-04 -0.1359258E+06 -0.1500260E+00
  0.1738095E+00  0.5117516E+05  0.1104389E+00 -0.1316854E-03 -0.9659445E-05 -0.1359277E+06 -0.2982135E+00
  0.2047619E+00  0.5123626E+05  0.2039282E+00 -0.1853677E-02 -0.1394562E-04 -0.1360612E+06 -0.5503114E+00
  0.2357143E+00  0.5131516E+05  0.3581785E+00  0.2670288E-03 -0.2033345E-04 -0.1361828E+06 -0.9652880E+00
  0.2666667E+00  0.5136541E+05  0.6090141E+00 -0.4005432E-03 -0.5154801E-04 -0.1362751E+06 -0.1639083E+01
  0.2976190E+00  0.5143122E+05  0.1018755E+01  0.1102295E-02  0.3151037E-04 -0.1364452E+06 -0.2738463E+01
  0.3285715E+00  0.5149257E+05  0.1680272E+01  0.3482984E-04 -0.4462898E-05 -0.1365645E+06 -0.4509287E+01
  0.3595238E+00  0.5161377E+05  0.2750293E+01 -0.1708277E-02 -0.9114482E-04 -0.1367161E+06 -0.7363767E+01
  0.3904762E+00  0.5166126E+05  0.4463690E+01  0.1592403E-02 -0.7142313E-04 -0.1368465E+06 -0.1192958E+02
  0.4214286E+00  0.5179347E+05  0.7154050E+01  0.1203892E-02  0.2083518E-03 -0.1371306E+06 -0.1907782E+02
  0.4523810E+00  0.5191838E+05  0.1136328E+02  0.1222711E-02  0.9985641E-04 -0.1373309E+06 -0.3022815E+02
  0.4833333E+00  0.5204059E+05  0.1759326E+02 -0.1594280E-02 -0.1336038E-03 -0.1375789E+06 -0.4668064E+02
  0.5142857E+00  0.5224158E+05  0.2681071E+02  0.3263686E-03  0.7161498E-04 -0.1380050E+06 -0.7094593E+02
  0.5452381E+00  0.5238587E+05  0.3984957E+02  0.5597111E-03 -0.2890825E-05 -0.1383378E+06 -0.1051668E+03
  0.5761905E+00  0.5256879E+05  0.5783544E+02  0.9401179E-03 -0.2371371E-03 -0.1386445E+06 -0.1521270E+03
  0.6071429E+00  0.5277935E+05  0.8241297E+02 -0.2123664E-02 -0.6383061E-03 -0.1390563E+06 -0.2160672E+03
  0.6380953E+00  0.5299054E+05  0.1148062E+03  0.2032607E-03 -0.4920959E-03 -0.1395347E+06 -0.3000186E+03
  0.6690477E+00  0.5323339E+05  0.1571880E+03 -0.6043784E-03 -0.5263090E-04 -0.1400430E+06 -0.4093084E+03
  0.7000000E+00  0.5348975E+05  0.2119769E+03 -0.3923688E-03 -0.3387928E-03 -0.1405606E+06 -0.5498896E+03
  0.7309524E+00  0.5375689E+05  0.2814156E+03 -0.2275398E-02 -0.1216769E-02 -0.1410942E+06 -0.7271010E+03
  0.7619048E+00  0.5402994E+05  0.3686282E+03  0.8811950E-03  0.1829863E-03 -0.1416110E+06 -0.9483553E+03
  0.7928572E+00  0.5437439E+05  0.4772764E+03  0.5581142E-03  0.2224445E-03 -0.1423071E+06 -0.1222461E+04
  0.8238096E+00  0.5465739E+05  0.6105134E+03  0.1240989E-02  0.4756451E-03 -0.1429010E+06 -0.1556922E+04
  0.8547620E+00  0.5499927E+05  0.7729305E+03  0.8925753E-04  0.5888939E-04 -0.1436404E+06 -0.1962263E+04
  0.8857143E+00  0.5535652E+05  0.9689662E+03  0.1550490E-02  0.6842613E-03 -0.1442943E+06 -0.2447258E+04
  0.9166667E+00  0.5576159E+05  0.1203967E+04  0.1831055E-03 -0.3418922E-03 -0.1450536E+06 -0.3024560E+04
  0.9476191E+00  0.5610080E+05  0.1481951E+04  0.3703515E-03 -0.4992485E-03 -0.1456702E+06 -0.3702771E+04
  0.9785714E+00  0.5651402E+05  0.1810552E+04  0.2323346E-02  0.1104355E-02 -0.1464966E+06 -0.4499350E+04
  0.1009524E+01  0.5689314E+05  0.2194122E+04  0.1088268E-02 -0.5626678E-04 -0.1471861E+06 -0.5420945E+04
  0.1040476E+01  0.5734204E+05  0.2641137E+04  0.1275872E-02 -0.2098083E-03 -0.1480128E+06 -0.6486113E+04
  0.1071429E+01  0.5775269E+05  0.3155739E+04  0.1310221E-02 -0.1268387E-03 -0.1487952E+06 -0.7703624E+04
  0.1102381E+01  0.5811670E+05  0.3743446E+04 -0.8304999E-03 -0.9746552E-03 -0.1493821E+06 -0.9079015E+04
  0.1133333E+01  0.5854286E+05  0.4415583E+04 -0.1077091E-03 -0.1745224E-03 -0.1501089E+06 -0.1063827E+05
  0.1164286E+01  0.5891868E+05  0.5174596E+04  0.6159683E-03 -0.4539490E-03 -0.1506587E+06 -0.1237895E+05
  0.1195238E+01  0.5933725E+05  0.6031845E+04 -0.4085221E-03 -0.1270294E-02 -0.1512597E+06 -0.1432338E+05
  0.1226190E+01  0.5971536E+05  0.6990688E+04 -0.2986575E-03 -0.1729965E-02 -0.1518390E+06 -0.1648109E+05
  0.1257143E+01  0.5995346E+05  0.8044416E+04  0.6311590E-03 -0.4081726E-03 -0.1520718E+06 -0.1882397E+05
  0.1288095E+01  0.6031916E+05  0.9230823E+04  0.3435343E-03  0.3566742E-03 -0.1525679E+06 -0.2143451E+05
  0.1319048E+01  0.6058829E+05  0.1052600E+05  0.1295620E-02 -0.2288818E-03 -0.1528534E+06 -0.2425265E+05
  0.1350000E+01  0.6081445E+05  0.1193827E+05  0.4069010E-03 -0.2555847E-03 -0.1529735E+06 -0.2727897E+05
  0.1380952E+01  0.6103281E+05  0.1347357E+05  0.5414239E-03  0.8506775E-03 -0.1529914E+06 -0.3051506E+05
  0.1411905E+01  0.6106046E+05  0.1510144E+05 -0.1253639E-02 -0.1132965E-02 -0.1527915E+06 -0.3392995E+05
  0.1442857E+01  0.6107866E+05  0.1685938E+05  0.6556747E-03 -0.7400513E-03 -0.1523671E+06 -0.3752921E+05
  0.1473810E+01  0.6104395E+05  0.1873802E+05  0.2484791E-03  0.2975464E-03 -0.1518569E+06 -0.4132665E+05
  0.1504762E+01  0.6099077E+05  0.2074198E+05  0.7909461E-03 -0.1907349E-04 -0.1513267E+06 -0.4532275E+05
  0.1535714E+01  0.6077184E+05  0.2282391E+05  0.1818280E-02  0.1106262E-02 -0.1503870E+06 -0.4937814E+05
  0.1566667E+01  0.6052262E+05  0.2501505E+05  0.1071362E-02 -0.2937317E-03 -0.1493929E+06 -0.5357480E+05
  0.1597619E+01  0.6022191E+05  0.2729721E+05 -0.1910191E-04 -0.1117706E-02 -0.1482737E+06 -0.5785382E+05
  0.1628572E+01  0.5979002E+05  0.2964121E+05 -0.5809048E-03 -0.1010895E-02 -0.1469800E+06 -0.6218720E+05
  0.1659524E+01  0.5922791E+05  0.3201234E+05  0.1048193E-02  0.2746582E-03 -0.1453958E+06 -0.6644605E+05
  0.1690476E+01  0.5856033E+05  0.3439674E+05  0.6137901E-03 -0.8621216E-03 -0.1436054E+06 -0.7061494E+05
  0.1721429E+01  0.5785290E+05  0.3680940E+05  0.6204819E-03 -0.5722046E-03 -0.1417867E+06 -0.7474302E+05
  0.1752381E+01  0.5704467E+05  0.3919502E+05  0.6791820E-03 -0.1220703E-03 -0.1397709E+06 -0.7868686E+05
  0.1783333E+01  0.5612461E+05  0.4151446E+05  0.6845064E-04 -0.2593994E-03 -0.1375242E+06 -0.8233738E+05
  0.1814286E+01  0.5516275E+05  0.4379937E+05  0.9251392E-04 -0.4272461E-03 -0.1352509E+06 -0.8581936E+05
  0.1845238E+01  0.5416285E+05  0.4602291E+05  0.5871188E-03  0.2670288E-03 -0.1329329E+06 -0.8904855E+05
  0.1876190E+01  0.5306204E+05  0.4813252E+05 -0.2683843E-03 -0.6103516E-04 -0.1305410E+06 -0.9200209E+05
  0.1907143E+01  0.5189487E+05  0.5009919E+05  0.6720725E-03  0.3280640E-03 -0.1280522E+06 -0.9454867E+05
  0.1938095E+01  0.5063767E+05  0.5186149E+05  0.1834429E-02  0.6332397E-03 -0.1254159E+06 -0.9655991E+05
  0.1969048E+01  0.4940483E+05  0.5353025E+05 -0.4417115E-03 -0.3814697E-03 -0.1229304E+06 -0.9838296E+05
  0.2000000E+01  0.4818513E+05  0.5506655E+05  0.5569458E-03 -0.1678467E-03 -0.1205338E+06 -0.9989347E+05
Zone t="Motion of body    1 in DoF   2",I=    64,F=POINT
  0.5000000E-01  0.9536743E-05 -0.5245209E-05  0.1291801E+05  0.1292000E+02  0.4577637E-03 -0.2980232E-05
  0.8095238E-01  0.1460805E-02  0.1585484E-04  0.1284724E+05  0.2138352E+02 -0.8057986E-02  0.1060963E-04
  0.1119048E+00 -0.6902979E-03  0.3457069E-05  0.1282400E+05  0.3053556E+02 -0.2283948E-02 -0.7903576E-04
  0.1428571E+00  0.1722336E-02  0.2145767E-05  0.1279248E+05  0.4071087E+02 -0.5447387E-02 -0.5006790E-05
  0.1738095E+00  0.1272959E-02  0.1907349E-05  0.1277061E+05  0.5226928E+02 -0.3774982E-02  0.6294250E-04
  0.2047619E+00  0.8662911E-03  0.5245209E-04  0.1277155E+05  0.6575747E+02 -0.3949543E-02 -0.2264977E-04
  0.2357143E+00  0.6716179E-03 -0.5412102E-04  0.1277630E+05  0.8183844E+02 -0.4272460E-02  0.2646446E-04
  0.2666667E+00  0.8869171E-03 -0.5912781E-04  0.1277551E+05  0.1010072E+03 -0.3089905E-02 -0.7581711E-04
  0.2976190E+00  0.5639648E-03 -0.2861023E-04  0.1279283E+05  0.1246630E+03 -0.3640137E-02 -0.0000000E+00
  0.3285715E+00 -0.3134686E-03  0.4243851E-04  0.1279318E+05  0.1532412E+03 -0.1811152E-02 -0.1163483E-03
  0.3595238E+00  0.0000000E+00 -0.6675720E-05  0.1280418E+05  0.1883209E+03 -0.2164525E-02 -0.1077652E-03
  0.3904762E+00 -0.1524018E-02  0.3147125E-04  0.1280614E+05  0.2307117E+03  0.1524018E-02 -0.3938675E-03
  0.4214286E+00  0.2235800E-02 -0.2202988E-03  0.1279331E+05  0.2796580E+03  0.3258656E-02  0.5264282E-03
  0.4523810E+00 -0.4047594E-03 -0.1144409E-04  0.1278750E+05  0.3378534E+03 -0.2968236E-02 -0.5722046E-05
  0.4833333E+00  0.7103229E-03  0.2288818E-04  0.1274170E+05  0.3989126E+03 -0.5682583E-03  0.7629395E-04
  0.5142857E+00 -0.4895529E-03 -0.7438660E-04  0.1272512E+05  0.4664462E+03  0.3560384E-02 -0.1003265E-02
  0.5452381E+00  0.6506641E-03  0.1640320E-03  0.1264686E+05  0.5356547E+03 -0.3750064E-02  0.4501343E-03
  0.5761905E+00 -0.7878452E-03 -0.6484985E-03  0.1258523E+05  0.6046088E+03  0.1747825E-02 -0.7934570E-03
  0.6071429E+00 -0.5026424E-04 -0.2441406E-03  0.1252629E+05  0.6757001E+03  0.1407399E-02 -0.1220703E-03
  0.6380953E+00 -0.1207608E-02  0.1525879E-03  0.1243384E+05  0.7425403E+03  0.5260866E-03 -0.3814697E-04
  0.6690477E+00  0.8552524E-03 -0.4615784E-03  0.1236039E+05  0.8077027E+03 -0.1322790E-02 -0.2174377E-03
  0.7000000E+00  0.7411411E-03  0.3051758E-04  0.1229004E+05  0.8711493E+03 -0.4490444E-02 -0.1087189E-02
  0.7309524E+00  0.4070667E-03 -0.2174377E-03  0.1218505E+05  0.9294446E+03  0.2922530E-03 -0.5340576E-03
  0.7619048E+00  0.2303123E-03  0.5569458E-03  0.1209862E+05  0.9837389E+03  0.7610320E-03 -0.4730225E-03
  0.7928572E+00  0.6254728E-03 -0.2136230E-03  0.1203759E+05  0.1033525E+04  0.5388689E-03 -0.7171631E-03
  0.8238096E+00 -0.1481778E-03 -0.5722046E-03  0.1193396E+05  0.1076652E+04  0.2630156E-02  0.7629395E-03
  0.8547620E+00 -0.1695893E-03 -0.1449585E-03  0.1183674E+05  0.1113963E+04 -0.7497633E-03  0.1239777E-02
  0.8857143E+00 -0.1033660E-03 -0.2517700E-03  0.1175714E+05  0.1145441E+04  0.3376622E-02 -0.7438660E-03
  0.9166667E+00  0.3578879E-03 -0.1373291E-03  0.1170729E+05  0.1171112E+04  0.1731179E-02 -0.1194000E-02
  0.9476191E+00 -0.4830672E-04 -0.1983643E-03  0.1161243E+05  0.1186301E+04 -0.1481406E-02  0.1155853E-02
  0.9785714E+00  0.1617766E-02  0.3814697E-03  0.1152507E+05  0.1195452E+04 -0.7952391E-02 -0.2651215E-02
  0.1009524E+01 -0.1058039E-03 -0.7629395E-03  0.1145525E+05  0.1198805E+04  0.1753321E-02  0.7286072E-03
  0.1040476E+01  0.3482984E-03  0.1373291E-03  0.1140714E+05  0.1197224E+04 -0.7332599E-03  0.1632690E-02
  0.1071429E+01 -0.7120769E-04  0.1144409E-03  0.1136840E+05  0.1189792E+04  0.5126953E-03 -0.2368927E-02
  0.1102381E+01  0.4602354E-03  0.3738403E-03  0.1129046E+05  0.1167422E+04  0.2823700E-02  0.3082275E-02
  0.1133333E+01  0.1215093E-02 -0.1487732E-02  0.1122996E+05  0.1142409E+04 -0.4577637E-02  0.2872467E-02
  0.1164286E+01  0.1320400E-02 -0.8544922E-03  0.1118638E+05  0.1114792E+04 -0.5294706E-02  0.4325867E-02
  0.1195238E+01  0.4835243E-03 -0.2288818E-03  0.1116191E+05  0.1086315E+04 -0.3012851E-02  0.5378723E-03
  0.1226190E+01 -0.7699763E-04 -0.2746582E-03  0.1116019E+05  0.1060941E+04 -0.1493287E-03 -0.1525879E-04
  0.1257143E+01  0.7950176E-03  0.5035400E-03  0.1111069E+05  0.1008334E+04 -0.2864491E-02 -0.2609253E-02
  0.1288095E+01 -0.4440403E-03  0.1525879E-03  0.1107428E+05  0.9569473E+03  0.2558738E-02 -0.2227783E-02
  0.1319048E+01 -0.6662465E-03 -0.1831055E-03  0.1105066E+05  0.9073246E+03  0.2498695E-02 -0.1243591E-02
  0.1350000E+01  0.5333512E-03 -0.3051758E-03  0.1103940E+05  0.8611043E+03 -0.1175492E-02  0.2239227E-02
  0.1380952E+01  0.1176768E-02 -0.4730225E-03  0.1104321E+05  0.8204891E+03 -0.5701526E-02 -0.1770020E-02
  0.1411905E+01  0.7875774E-03 -0.6103516E-03  0.1106245E+05  0.7913163E+03 -0.2464050E-02  0.6027222E-03
  0.1442857E+01  0.5710715E-03 -0.1251221E-02  0.1104848E+05  0.7254651E+03 -0.2707302E-02  0.4196167E-04
  0.1473810E+01  0.8489704E-03  0.1052856E-02  0.1103944E+05  0.6620164E+03 -0.1118156E-02 -0.9918213E-04
  0.1504762E+01  0.8112267E-04 -0.5340576E-03  0.1103539E+05  0.6028447E+03  0.2028067E-03  0.2334595E-02
  0.1535714E+01  0.4669899E-03  0.2899170E-03  0.1104009E+05  0.5515997E+03 -0.2662836E-02 -0.1195908E-02
  0.1566667E+01 -0.2994943E-03 -0.1052856E-02  0.1105250E+05  0.5105750E+03  0.1908972E-02  0.4272461E-03
  0.1597619E+01  0.3271202E-03 -0.3356934E-03  0.1107296E+05  0.4808317E+03 -0.1871987E-02 -0.9727478E-04
  0.1628572E+01  0.4427056E-03  0.4196167E-03  0.1110143E+05  0.4687998E+03 -0.3298040E-02 -0.1409531E-02
  0.1659524E+01  0.9194679E-05 -0.7858276E-03  0.1111212E+05  0.4157783E+03  0.2317059E-02  0.3221512E-02
  0.1690476E+01  0.4174676E-03  0.3585815E-03  0.1111934E+05  0.3533774E+03 -0.7221061E-04 -0.5512238E-03
  0.1721429E+01  0.2393287E-03  0.1098633E-02  0.1112814E+05  0.2998256E+03  0.1276420E-02 -0.1206398E-02
  0.1752381E+01 -0.4440805E-03 -0.9307861E-03  0.1114226E+05  0.2595294E+03  0.1567343E-02  0.4930496E-03
  0.1783333E+01  0.7700697E-03  0.7629395E-04  0.1115735E+05  0.2265926E+03 -0.5133798E-03 -0.1495361E-02
  0.1814286E+01  0.8830875E-03  0.4043579E-03  0.1117584E+05  0.2074375E+03 -0.3195935E-02 -0.5292892E-03
  0.1845238E+01  0.9881789E-03  0.4425049E-03  0.1119606E+05  0.1992421E+03 -0.2712324E-02  0.5722046E-04
  0.1876190E+01 -0.1789229E-03  0.6866455E-04  0.1121720E+05  0.2076498E+03  0.9759429E-03  0.5664825E-03
  0.1907143E+01 -0.4000432E-04  0.2288818E-04  0.1123524E+05  0.1912322E+03  0.1472159E-02 -0.1082420E-02
  0.1938095E+01 -0.5904814E-04 -0.4806519E-03  0.1124933E+05  0.1391315E+03 -0.3464158E-03  0.6046295E-03
  0.1969048E+01  0.7904311E-03  0.9155273E-04  0.1126370E+05  0.1058798E+03 -0.2479784E-02 -0.3714561E-03
  0.2000000E+01 -0.7057190E-03 -0.4119873E-03  0.1127698E+05  0.7711873E+02  0.1220703E-02 -0.1287460E-04
Zone t="Motion of body    1 in DoF   3",I=    64,F=POINT
  0.5000000E-01 -0.1340008E+06 -0.5544809E-02  0.9098053E-02  0.1021338E-04  0.4407817E+06  0.1510261E-01
  0.8095238E-01 -0.1353451E+06 -0.2396172E-01  0.2921609E-02  0.3005374E-04  0.4433589E+06  0.6510138E-01
  0.1119048E+00 -0.1357405E+06 -0.6692961E-01 -0.1159019E-02  0.1011443E-04  0.4439857E+06  0.1809674E+00
  0.1428571E+00 -0.1359501E+06 -0.1499632E+00  0.2376556E-02  0.6107241E-04  0.4443006E+06  0.4050485E+00
  0.1738095E+00 -0.1359543E+06 -0.2981016E+00  0.5816107E-02  0.1598641E-03  0.4443604E+06  0.8050132E+00
  0.2047619E+00 -0.1360844E+06 -0.5500824E+00  0.1373025E-01  0.1612084E-03  0.4446149E+06  0.1484716E+01
  0.2357143E+00 -0.1362111E+06 -0.9650515E+00 -0.1262318E-02  0.6196043E-04  0.4448130E+06  0.2600863E+01
  0.2666667E+00 -0.1363052E+06 -0.1638637E+01  0.6580352E-03  0.1388155E-03  0.4450278E+06  0.4410346E+01
  0.2976190E+00 -0.1364701E+06 -0.2737442E+01 -0.7023926E-02 -0.1188274E-03  0.4453765E+06  0.7358797E+01
  0.3285715E+00 -0.1365881E+06 -0.4506898E+01 -0.2948927E-02 -0.1348909E-03  0.4456380E+06  0.1209462E+02
  0.3595238E+00 -0.1367510E+06 -0.7363268E+01  0.9761582E-03  0.1272783E-03  0.4459044E+06  0.1971330E+02
  0.3904762E+00 -0.1368754E+06 -0.1192623E+02 -0.8010863E-02 -0.1407787E-03  0.4462453E+06  0.3187230E+02
  0.4214286E+00 -0.1371615E+06 -0.1907171E+02 -0.1580448E-01 -0.8062646E-03  0.4468506E+06  0.5085722E+02
  0.4523810E+00 -0.1373604E+06 -0.3022343E+02 -0.1720228E-02  0.1094937E-03  0.4472039E+06  0.8040038E+02
  0.4833333E+00 -0.1376145E+06 -0.4667063E+02  0.9060564E-02  0.7931739E-03  0.4477709E+06  0.1238313E+03
  0.5142857E+00 -0.1380405E+06 -0.7093240E+02 -0.4124112E-02 -0.1519918E-03  0.4486625E+06  0.1876984E+03
  0.5452381E+00 -0.1383653E+06 -0.1051260E+03 -0.3106396E-02 -0.2527237E-04  0.4493683E+06  0.2774396E+03
  0.5761905E+00 -0.1386813E+06 -0.1521051E+03 -0.1761066E-01 -0.1830876E-02  0.4500257E+06  0.4000888E+03
  0.6071429E+00 -0.1390913E+06 -0.2160527E+03  0.9927187E-02  0.2175212E-02  0.4508532E+06  0.5664585E+03
  0.6380953E+00 -0.1395671E+06 -0.2999396E+03 -0.5476083E-02  0.1623631E-03  0.4519118E+06  0.7838229E+03
  0.6690477E+00 -0.1400750E+06 -0.4091978E+03 -0.2143833E-02  0.7152557E-05  0.4529916E+06  0.1065529E+04
  0.7000000E+00 -0.1405891E+06 -0.5497473E+03 -0.6452288E-02  0.9405613E-03  0.4540472E+06  0.1426119E+04
  0.7309524E+00 -0.1411248E+06 -0.7269111E+03  0.2985156E-02  0.1582146E-02  0.4551739E+06  0.1878138E+04
  0.7619048E+00 -0.1416479E+06 -0.9482034E+03 -0.3204345E-03  0.1562119E-02  0.4562974E+06  0.2439402E+04
  0.7928572E+00 -0.1423428E+06 -0.1222325E+04 -0.1539625E-02 -0.7553101E-03  0.4576938E+06  0.3130755E+04
  0.8238096E+00 -0.1429244E+06 -0.1556477E+04 -0.3352523E-02  0.1401901E-03  0.4589402E+06  0.3969285E+04
  0.8547620E+00 -0.1436622E+06 -0.1961251E+04  0.4391471E-02  0.3266335E-02  0.4604620E+06  0.4979062E+04
  0.8857143E+00 -0.1443228E+06 -0.2446442E+04 -0.1261065E-01 -0.2741814E-02  0.4617797E+06  0.6178799E+04
  0.9166667E+00 -0.1450844E+06 -0.3023968E+04  0.3429066E-02  0.3460884E-02  0.4632196E+06  0.7596605E+04
  0.9476191E+00 -0.1456935E+06 -0.3702080E+04 -0.4830672E-02  0.1100540E-02  0.4643906E+06  0.9249799E+04
  0.9785714E+00 -0.1465219E+06 -0.4497746E+04 -0.8451364E-02  0.5283356E-03  0.4659953E+06  0.1117702E+05
  0.1009524E+01 -0.1472155E+06 -0.5419182E+04 -0.5562261E-02 -0.5626678E-03  0.4673332E+06  0.1338877E+05
  0.1040476E+01 -0.1480385E+06 -0.6484354E+04  0.1701163E-02  0.3871918E-02  0.4687668E+06  0.1592393E+05
  0.1071429E+01 -0.1488150E+06 -0.7700012E+04 -0.6522624E-02  0.6332397E-03  0.4701982E+06  0.1879619E+05
  0.1102381E+01 -0.1493950E+06 -0.9074740E+04  0.5425933E-02  0.4650116E-02  0.4711356E+06  0.2200832E+05
  0.1133333E+01 -0.1501248E+06 -0.1063253E+05  0.2504237E-02  0.2090454E-02  0.4722985E+06  0.2561543E+05
  0.1164286E+01 -0.1506823E+06 -0.1237396E+05 -0.5425763E-02  0.1155853E-02  0.4731011E+06  0.2960040E+05
  0.1195238E+01 -0.1512848E+06 -0.1432049E+05 -0.1761752E-02  0.1007080E-02  0.4738323E+06  0.3400420E+05
  0.1226190E+01 -0.1518606E+06 -0.1647524E+05  0.2463924E-02  0.1880646E-02  0.4746025E+06  0.3883883E+05
  0.1257143E+01 -0.1520821E+06 -0.1881538E+05 -0.9200356E-02 -0.3852844E-03  0.4745442E+06  0.4402385E+05
  0.1288095E+01 -0.1525773E+06 -0.2142215E+05 -0.1658441E-03  0.1983643E-02  0.4750261E+06  0.4973839E+05
  0.1319048E+01 -0.1528590E+06 -0.2423413E+05 -0.4997391E-02  0.2670288E-02  0.4749996E+06  0.5583221E+05
  0.1350000E+01 -0.1529852E+06 -0.2725964E+05  0.4521123E-04  0.8087158E-03  0.4746126E+06  0.6228222E+05
  0.1380952E+01 -0.1530004E+06 -0.3049773E+05 -0.2209894E-03 -0.6408691E-03  0.4737999E+06  0.6906300E+05
  0.1411905E+01 -0.1527882E+06 -0.3389301E+05  0.4344509E-02  0.1365662E-02  0.4727402E+06  0.7613735E+05
  0.1442857E+01 -0.1523582E+06 -0.3748921E+05 -0.4251310E-02 -0.1838684E-02  0.4710081E+06  0.8343067E+05
  0.1473810E+01 -0.1518462E+06 -0.4128183E+05 -0.6936709E-02 -0.3288269E-02  0.4691896E+06  0.9102727E+05
  0.1504762E+01 -0.1513161E+06 -0.4526438E+05 -0.9531914E-03  0.1296997E-02  0.4672372E+06  0.9887684E+05
  0.1535714E+01 -0.1503788E+06 -0.4931649E+05 -0.8922487E-02 -0.4570007E-02  0.4644976E+06  0.1066639E+06
  0.1566667E+01 -0.1493904E+06 -0.5351270E+05 -0.2727103E-02 -0.1174927E-02  0.4616787E+06  0.1145806E+06
  0.1597619E+01 -0.1482655E+06 -0.5778686E+05 -0.1814682E-02  0.1342773E-02  0.4584477E+06  0.1224308E+06
  0.1628572E+01 -0.1469715E+06 -0.6210230E+05 -0.3953900E-02  0.1922607E-02  0.4550769E+06  0.1302318E+06
  0.1659524E+01 -0.1453828E+06 -0.6634594E+05 -0.1655042E-02  0.3219604E-02  0.4510867E+06  0.1376291E+06
  0.1690476E+01 -0.1435868E+06 -0.7050301E+05 -0.4603426E-02 -0.3051758E-03  0.4467843E+06  0.1446592E+06
  0.1721429E+01 -0.1417751E+06 -0.7461116E+05 -0.8066265E-02 -0.1525879E-03  0.4424856E+06  0.1513908E+06
  0.1752381E+01 -0.1397610E+06 -0.7853480E+05  0.2507749E-02  0.1358032E-02  0.4378611E+06  0.1575543E+06
  0.1783333E+01 -0.1375238E+06 -0.8218859E+05 -0.4825770E-02 -0.8087158E-03  0.4328755E+06  0.1628749E+06
  0.1814286E+01 -0.1352555E+06 -0.8566977E+05  0.2338079E-02 -0.1907349E-02  0.4279767E+06  0.1677437E+06
  0.1845238E+01 -0.1329318E+06 -0.8888131E+05 -0.2728862E-02 -0.1251221E-02  0.4229063E+06  0.1717951E+06
  0.1876190E+01 -0.1305470E+06 -0.9181409E+05 -0.7221977E-02 -0.1998901E-02  0.4179978E+06  0.1752720E+06
  0.1907143E+01 -0.1280618E+06 -0.9434241E+05 -0.8352902E-02  0.3051758E-04  0.4130019E+06  0.1777802E+06
  0.1938095E+01 -0.1254197E+06 -0.9633475E+05 -0.1064441E-01 -0.2914429E-02  0.4077826E+06  0.1790476E+06
  0.1969048E+01 -0.1229461E+06 -0.9815523E+05  0.2681266E-02  0.1495361E-02  0.4030959E+06  0.1800778E+06
  0.2000000E+01 -0.1205639E+06 -0.9964518E+05 -0.8361816E-02  0.7629395E-04  0.3985828E+06  0.1803274E+06
