VARIABLES="w (rad/s)"
"A   1   1" "B   1   1"
"A   1   2" "B   1   2"
"A   1   3" "B   1   3"
Zone t="Motion of body    1 in DoF   1",I=    64,F=POINT
  0.5000000E-01  0.9530486E+05  0.6779609E-02 -0.6866455E-03 -0.1642240E-04 -0.4456197E+06 -0.3245439E-01
  0.8095238E-01  0.9592901E+05  0.2865871E-01 -0.2945171E-02 -0.1636167E-04 -0.4473072E+06 -0.1362229E+00
  0.1119048E+00  0.9618701E+05  0.8012187E-01 -0.3170257E-02 -0.4847778E-04 -0.4478351E+06 -0.3804902E+00
  0.1428571E+00  0.9633109E+05  0.1795411E+00 -0.5340576E-02 -0.5362602E-04 -0.4482244E+06 -0.8519129E+00
  0.1738095E+00  0.9646327E+05  0.3560951E+00 -0.3182398E-02 -0.2358400E-04 -0.4484485E+06 -0.1686429E+01
  0.2047619E+00  0.9647577E+05  0.6538589E+00 -0.1471763E-02 -0.1287018E-04 -0.4486323E+06 -0.3091724E+01
  0.2357143E+00  0.9655280E+05  0.1141666E+01 -0.3722219E-02 -0.7063756E-04 -0.4488625E+06 -0.5386977E+01
  0.2666667E+00  0.9671087E+05  0.1930051E+01 -0.2703666E-02 -0.1131524E-03 -0.4492053E+06 -0.9082304E+01
  0.2976190E+00  0.9677596E+05  0.3205683E+01 -0.1448364E-02 -0.4310161E-04 -0.4495244E+06 -0.1504802E+02
  0.3285715E+00  0.9694014E+05  0.5244985E+01 -0.3215955E-02 -0.1395848E-03 -0.4499254E+06 -0.2453925E+02
  0.3595238E+00  0.9702438E+05  0.8508418E+01 -0.1856823E-02 -0.9433925E-04 -0.4502253E+06 -0.3968091E+02
  0.3904762E+00  0.9716341E+05  0.1368519E+02  0.1856176E-03  0.9893626E-04 -0.4506709E+06 -0.6358819E+02
  0.4214286E+00  0.9736256E+05  0.2170548E+02 -0.3620729E-03  0.1075119E-04 -0.4513200E+06 -0.1004341E+03
  0.4523810E+00  0.9752106E+05  0.3410152E+02 -0.1484118E-02 -0.3769249E-04 -0.4518238E+06 -0.1571372E+03
  0.4833333E+00  0.9782589E+05  0.5222112E+02 -0.8050326E-03  0.3182441E-03 -0.4527568E+06 -0.2394288E+03
  0.5142857E+00  0.9802103E+05  0.7858438E+02 -0.4272461E-02 -0.2790689E-03 -0.4534771E+06 -0.3585872E+03
  0.5452381E+00  0.9835727E+05  0.1153918E+03 -0.4211826E-02 -0.4508793E-03 -0.4544278E+06 -0.5235926E+03
  0.5761905E+00  0.9859094E+05  0.1651846E+03  0.5826083E-03  0.7144809E-03 -0.4551922E+06 -0.7453036E+03
  0.6071429E+00  0.9887512E+05  0.2320806E+03  0.8042278E-03  0.5231500E-03 -0.4561361E+06 -0.1041043E+04
  0.6380953E+00  0.9932366E+05  0.3189047E+03 -0.1147825E-02  0.3420711E-03 -0.4574902E+06 -0.1421037E+04
  0.6690477E+00  0.9964138E+05  0.4299695E+03 -0.2497337E-02  0.3582239E-03 -0.4585613E+06 -0.1903407E+04
  0.7000000E+00  0.9998757E+05  0.5707601E+03 -0.2059936E-02  0.1491308E-03 -0.4596678E+06 -0.2509226E+04
  0.7309524E+00  0.1004979E+06  0.7461038E+03 -0.7828206E-03  0.3871918E-03 -0.4610661E+06 -0.3254512E+04
  0.7619048E+00  0.1008865E+06  0.9610989E+03 -0.8912086E-03  0.3414154E-03 -0.4622511E+06 -0.4160024E+04
  0.7928572E+00  0.1013279E+06  0.1222801E+04 -0.2136230E-02  0.1621246E-04 -0.4636424E+06 -0.5250382E+04
  0.8238096E+00  0.1017653E+06  0.1537274E+04 -0.4445335E-03  0.1511097E-02 -0.4648483E+06 -0.6544162E+04
  0.8547620E+00  0.1023191E+06  0.1912238E+04 -0.2588469E-02 -0.2288818E-03 -0.4663886E+06 -0.8066769E+04
  0.8857143E+00  0.1027354E+06  0.2352115E+04 -0.6718789E-03  0.6365776E-03 -0.4674363E+06 -0.9830177E+04
  0.9166667E+00  0.1032155E+06  0.2866558E+04 -0.3495650E-03  0.2913475E-03 -0.4687196E+06 -0.1186477E+05
  0.9476191E+00  0.1036627E+06  0.3461200E+04 -0.2866199E-02 -0.1850128E-03 -0.4696831E+06 -0.1417908E+05
  0.9785714E+00  0.1042365E+06  0.4147258E+04 -0.1933523E-02 -0.9517670E-03 -0.4709789E+06 -0.1680664E+05
  0.1009524E+01  0.1046704E+06  0.4925526E+04 -0.2917164E-02 -0.1789093E-02 -0.4719132E+06 -0.1974532E+05
  0.1040476E+01  0.1050680E+06  0.5804667E+04 -0.8359163E-03 -0.5874634E-03 -0.4726772E+06 -0.2301001E+05
  0.1071429E+01  0.1054614E+06  0.6790683E+04 -0.2520752E-02 -0.6895065E-03 -0.4733082E+06 -0.2660415E+05
  0.1102381E+01  0.1058581E+06  0.7890301E+04 -0.6782416E-03 -0.4615784E-03 -0.4737313E+06 -0.3052913E+05
  0.1133333E+01  0.1062967E+06  0.9112217E+04 -0.2692728E-02  0.1146317E-02 -0.4742047E+06 -0.3480352E+05
  0.1164286E+01  0.1065779E+06  0.1044949E+05 -0.1022245E-02  0.4959106E-03 -0.4742140E+06 -0.3939364E+05
  0.1195238E+01  0.1067705E+06  0.1190709E+05 -0.2093676E-02  0.9918213E-04 -0.4738372E+06 -0.4428384E+05
  0.1226190E+01  0.1069753E+06  0.1349742E+05 -0.6595352E-03  0.9841919E-03 -0.4735261E+06 -0.4950731E+05
  0.1257143E+01  0.1070125E+06  0.1519661E+05 -0.1420108E-02 -0.6103516E-03 -0.4725444E+06 -0.5494030E+05
  0.1288095E+01  0.1072234E+06  0.1705923E+05 -0.1184601E-02  0.8392334E-03 -0.4718889E+06 -0.6073946E+05
  0.1319048E+01  0.1072669E+06  0.1903541E+05 -0.1133667E-02 -0.1773834E-03 -0.4709173E+06 -0.6676571E+05
  0.1350000E+01  0.1071253E+06  0.2110008E+05 -0.3017849E-02 -0.1056671E-02 -0.4692218E+06 -0.7284761E+05
  0.1380952E+01  0.1068939E+06  0.2327184E+05 -0.2154646E-02  0.8506775E-03 -0.4672372E+06 -0.7905787E+05
  0.1411905E+01  0.1064879E+06  0.2554528E+05 -0.1653507E-02 -0.3700256E-03 -0.4651521E+06 -0.8545056E+05
  0.1442857E+01  0.1060419E+06  0.2788588E+05  0.2326588E-03  0.3719330E-03 -0.4623972E+06 -0.9166190E+05
  0.1473810E+01  0.1056186E+06  0.3034265E+05 -0.1159569E-02 -0.4234314E-03 -0.4597573E+06 -0.9799241E+05
  0.1504762E+01  0.1051598E+06  0.3288425E+05  0.1267542E-02 -0.3566742E-03 -0.4570444E+06 -0.1042849E+06
  0.1535714E+01  0.1045178E+06  0.3547433E+05  0.7948764E-03 -0.1850128E-03 -0.4540637E+06 -0.1105610E+06
  0.1566667E+01  0.1036505E+06  0.3800218E+05  0.1636262E-02 -0.4920959E-03 -0.4502213E+06 -0.1161436E+06
  0.1597619E+01  0.1027578E+06  0.4059900E+05 -0.4488949E-03 -0.7629395E-04 -0.4465716E+06 -0.1217702E+06
  0.1628572E+01  0.1018462E+06  0.4323307E+05  0.2717135E-03 -0.3051758E-04 -0.4430449E+06 -0.1272405E+06
  0.1659524E+01  0.1007135E+06  0.4573207E+05 -0.7263796E-03  0.1907349E-03 -0.4388086E+06 -0.1318720E+06
  0.1690476E+01  0.9960027E+05  0.4823539E+05 -0.1624739E-02 -0.1087189E-03 -0.4347873E+06 -0.1362952E+06
  0.1721429E+01  0.9847952E+05  0.5068459E+05 -0.1178916E-02 -0.2040863E-03 -0.4308167E+06 -0.1402356E+06
  0.1752381E+01  0.9723645E+05  0.5303639E+05 -0.7488417E-03 -0.2975464E-03 -0.4268290E+06 -0.1437938E+06
  0.1783333E+01  0.9590973E+05  0.5524326E+05  0.8214077E-03 -0.1354218E-03 -0.4227512E+06 -0.1467364E+06
  0.1814286E+01  0.9441705E+05  0.5714571E+05 -0.7064699E-03 -0.3032684E-03 -0.4182441E+06 -0.1483469E+06
  0.1845238E+01  0.9296834E+05  0.5902437E+05 -0.5126953E-03 -0.1621246E-03 -0.4141775E+06 -0.1499987E+06
  0.1876190E+01  0.9154922E+05  0.6080903E+05 -0.1301257E-03 -0.4959106E-04 -0.4104215E+06 -0.1513010E+06
  0.1907143E+01  0.9002163E+05  0.6223634E+05 -0.3520380E-03  0.3623962E-04 -0.4064002E+06 -0.1512778E+06
  0.1938095E+01  0.8854980E+05  0.6355154E+05  0.7558162E-03 -0.1239777E-03 -0.4027130E+06 -0.1509742E+06
  0.1969048E+01  0.8713366E+05  0.6470507E+05  0.4339622E-03  0.7724762E-04 -0.3992983E+06 -0.1501843E+06
  0.2000000E+01  0.8579459E+05  0.6575133E+05  0.1693726E-02 -0.8964539E-04 -0.3962609E+06 -0.1491132E+06
Zone t="Motion of body    1 in DoF   2",I=    64,F=POINT
  0.5000000E-01  0.1659393E-02 -0.1001358E-04  0.1348580E+05  0.1399151E+02 -0.6332397E-02  0.8106232E-05
  0.8095238E-01 -0.6832796E-03 -0.8344650E-06  0.1339275E+05  0.2308492E+02  0.6832796E-02  0.1907349E-05
  0.1119048E+00 -0.4857652E-03 -0.9298325E-05  0.1335288E+05  0.3281649E+02  0.1731710E-01  0.1004934E-03
  0.1428571E+00 -0.3478050E-02  0.4529953E-05  0.1331936E+05  0.4348785E+02  0.1244354E-01 -0.7939339E-04
  0.1738095E+00 -0.2359364E-02 -0.5722046E-05  0.1329608E+05  0.5538630E+02  0.4477305E-02 -0.1287460E-04
  0.2047619E+00 -0.1294779E-02 -0.2670288E-04  0.1328850E+05  0.6905582E+02  0.2086551E-02  0.4291534E-05
  0.2357143E+00 -0.1270410E-02 -0.2288818E-04  0.1327457E+05  0.8502142E+02  0.2343380E-01  0.5388260E-04
  0.2666667E+00 -0.2610683E-02 -0.2145767E-04  0.1326953E+05  0.1035772E+03  0.6408691E-02  0.4434586E-04
  0.2976190E+00 -0.1461182E-02 -0.0000000E+00  0.1326236E+05  0.1260496E+03  0.6665039E-03  0.3609657E-03
  0.3285715E+00  0.6733769E-03  0.2193451E-04  0.1325802E+05  0.1523902E+03  0.1393194E-03  0.4959106E-04
  0.3595238E+00 -0.1538510E-02 -0.4482269E-04  0.1324299E+05  0.1838614E+03  0.7215083E-02  0.3347397E-03
  0.3904762E+00 -0.6740849E-03 -0.4577637E-04  0.1323494E+05  0.2209565E+03  0.1250476E-01 -0.1306534E-03
  0.4214286E+00 -0.3322019E-02  0.3814697E-05  0.1319870E+05  0.2618813E+03  0.1680018E-01 -0.2183914E-03
  0.4523810E+00 -0.4384894E-03  0.7438660E-04  0.1318152E+05  0.3095836E+03  0.4047594E-02  0.1451492E-02
  0.4833333E+00 -0.2107291E-02 -0.4959106E-04  0.1311528E+05  0.3561529E+03  0.2222521E-01  0.1234055E-02
  0.5142857E+00 -0.2966987E-03  0.4272461E-03  0.1306286E+05  0.4059294E+03  0.3560384E-02  0.1964569E-03
  0.5452381E+00 -0.1336310E-02  0.2899170E-03  0.1299567E+05  0.4533054E+03  0.2014960E-02  0.1104355E-02
  0.5761905E+00 -0.7216398E-03  0.1106262E-03  0.1291781E+05  0.4965838E+03  0.6408691E-02  0.1087189E-02
  0.6071429E+00 -0.6283030E-05 -0.1144409E-03  0.1285913E+05  0.5390787E+03 -0.8997299E-02 -0.2220154E-02
  0.6380953E+00  0.9565211E-04 -0.2517700E-03  0.1276878E+05  0.5727266E+03  0.1530434E-02  0.8811951E-03
  0.6690477E+00 -0.6385884E-03 -0.6332397E-03  0.1269180E+05  0.6020117E+03  0.1035426E-01  0.2517700E-03
  0.7000000E+00  0.1155308E-02  0.1907349E-03  0.1263476E+05  0.6278669E+03 -0.7019043E-02  0.4806519E-03
  0.7309524E+00 -0.5114428E-03 -0.4043579E-03  0.1255135E+05  0.6441943E+03  0.2588527E-02  0.2140045E-02
  0.7619048E+00  0.1547098E-02 -0.9155273E-04  0.1247846E+05  0.6551592E+03 -0.1001358E-01  0.4512787E-02
  0.7928572E+00 -0.3271704E-03 -0.5187988E-03  0.1242454E+05  0.6617745E+03  0.1000756E-01  0.2239227E-02
  0.8238096E+00  0.8335003E-04  0.2670288E-03  0.1237464E+05  0.6619004E+03  0.8594314E-02  0.6660461E-02
  0.8547620E+00  0.2409953E-03 -0.1144409E-03  0.1230871E+05  0.6527682E+03  0.3427489E-02  0.4837036E-02
  0.8857143E+00  0.4306916E-04 -0.1525879E-04  0.1225815E+05  0.6402725E+03 -0.3652265E-02 -0.6446838E-03
  0.9166667E+00  0.1997514E-03  0.4501343E-03  0.1223058E+05  0.6260058E+03 -0.9321733E-03 -0.1159668E-02
  0.9476191E+00 -0.3381470E-03 -0.2746582E-03  0.1220850E+05  0.6075373E+03  0.2254314E-02 -0.3738403E-03
  0.9785714E+00  0.7806207E-03  0.7324219E-03  0.1216269E+05  0.5755519E+03 -0.6424285E-02  0.7629395E-05
  0.1009524E+01  0.7453505E-03  0.9155273E-03  0.1213385E+05  0.5445865E+03 -0.8101554E-02 -0.6561279E-03
  0.1040476E+01 -0.2278261E-03  0.3967285E-03  0.1211953E+05  0.5154068E+03  0.1994467E-02  0.3492355E-02
  0.1071429E+01 -0.1463763E-02  0.1007080E-02  0.1212238E+05  0.4914033E+03  0.9513346E-02  0.1317978E-02
  0.1102381E+01 -0.7889749E-03 -0.1556396E-02  0.1211212E+05  0.4537982E+03  0.9246233E-02  0.5941391E-02
  0.1133333E+01  0.2179426E-03  0.7095337E-03  0.1209793E+05  0.4098448E+03 -0.2692727E-03 -0.1224518E-02
  0.1164286E+01 -0.1256510E-02 -0.7781982E-03  0.1209403E+05  0.3710432E+03  0.2935678E-02  0.2670288E-03
  0.1195238E+01  0.7085306E-03  0.7476807E-03  0.1209878E+05  0.3384186E+03 -0.2297937E-02  0.4768372E-03
  0.1226190E+01 -0.1179075E-02  0.1167297E-02  0.1211379E+05  0.3155846E+03  0.1005480E-01  0.2801895E-02
  0.1257143E+01  0.8405338E-03 -0.2288818E-03  0.1213489E+05  0.3002629E+03 -0.6214488E-02 -0.2395630E-02
  0.1288095E+01 -0.9358348E-03 -0.2288818E-03  0.1213386E+05  0.2482022E+03  0.4169796E-02  0.2431870E-03
  0.1319048E+01  0.4627214E-04  0.2517700E-03  0.1214021E+05  0.2084893E+03  0.7866264E-03  0.1223564E-02
  0.1350000E+01  0.1025730E-02 -0.6103516E-03  0.1215120E+05  0.1770232E+03 -0.4204644E-02  0.1344681E-03
  0.1380952E+01 -0.1339748E-02 -0.9231567E-03  0.1216599E+05  0.1553748E+03  0.1020971E-01  0.2626419E-02
  0.1411905E+01  0.4106750E-03  0.4043579E-03  0.1218313E+05  0.1452477E+03 -0.3112484E-02 -0.1365662E-02
  0.1442857E+01 -0.1422391E-02 -0.1220703E-03  0.1220429E+05  0.1502740E+03  0.1497476E-01  0.2326965E-03
  0.1473810E+01  0.3364822E-03  0.2365112E-03  0.1221585E+05  0.1111695E+03 -0.5176648E-02  0.1471043E-02
  0.1504762E+01 -0.1632594E-02 -0.3814697E-04  0.1222898E+05  0.8135699E+02  0.1168166E-01  0.2288818E-03
  0.1535714E+01 -0.5067337E-03  0.2136230E-03  0.1224191E+05  0.5943341E+02  0.8266714E-02 -0.1266718E-02
  0.1566667E+01 -0.5843791E-04  0.3051758E-04  0.1225495E+05  0.4363698E+02 -0.5454205E-02  0.5207062E-03
  0.1597619E+01 -0.1103135E-02 -0.2479553E-03  0.1226744E+05  0.3688042E+02  0.1000940E-01  0.9431839E-03
  0.1628572E+01 -0.6464908E-03  0.3242493E-03  0.1227913E+05  0.3898532E+02  0.4647238E-02  0.2872944E-03
  0.1659524E+01 -0.5838621E-03  0.3814697E-04  0.1228957E+05  0.5191224E+02  0.7723530E-02 -0.4558563E-03
  0.1690476E+01 -0.2933556E-03  0.3814697E-04  0.1230197E+05  0.3885544E+02 -0.1949686E-02  0.6484985E-03
  0.1721429E+01 -0.6648021E-04  0.3318787E-03  0.1231481E+05  0.2101887E+02  0.3545611E-02 -0.1311302E-03
  0.1752381E+01 -0.1371425E-02  0.7629395E-04  0.1232566E+05  0.7297224E+01  0.1630037E-01  0.2125800E-03
  0.1783333E+01 -0.2566899E-04 -0.1831055E-03  0.1233503E+05  0.1812168E+00  0.4107039E-03  0.2482487E-04
  0.1814286E+01 -0.1404530E-02  0.1182556E-03  0.1234325E+05 -0.3994545E+01  0.1412940E-01 -0.5356967E-04
  0.1845238E+01 -0.4258679E-03 -0.1525879E-03  0.1234973E+05 -0.3348210E+01  0.4895413E-02  0.6130338E-04
  0.1876190E+01 -0.1199596E-02  0.1106262E-03  0.1235454E+05  0.1308314E+01  0.1489939E-01 -0.3621131E-03
  0.1907143E+01 -0.1076116E-02  0.1335144E-03  0.1235748E+05  0.1092738E+02  0.1068915E-01 -0.6306171E-04
  0.1938095E+01 -0.1381726E-02 -0.6866455E-04  0.1236121E+05  0.1687321E+02  0.9006809E-02  0.2547503E-03
  0.1969048E+01 -0.2479784E-03 -0.1697540E-03  0.1237191E+05  0.5245930E+01  0.3967654E-02  0.2878010E-03
  0.2000000E+01 -0.1695633E-02 -0.1773834E-03  0.1237934E+05  0.7540156E+00  0.1062012E-01  0.2921298E-03
Zone t="Motion of body    1 in DoF   3",I=    64,F=POINT
  0.5000000E-01 -0.4452612E+06 -0.3224874E-01  0.2075195E-01  0.2141942E-04  0.2629790E+07  0.1542981E+00
  0.8095238E-01 -0.4470344E+06 -0.1358339E+00  0.1884909E-01  0.5984074E-04  0.2633834E+07  0.6444563E+00
  0.1119048E+00 -0.4476121E+06 -0.3795279E+00  0.1111294E-01  0.1425430E-03  0.2635037E+07  0.1802711E+01
  0.1428571E+00 -0.4480146E+06 -0.8504997E+00  0.1911926E-01  0.1226130E-03  0.2636055E+07  0.4037988E+01
  0.1738095E+00 -0.4482642E+06 -0.1683636E+01  0.2194757E-02 -0.2944106E-03  0.2636660E+07  0.7974451E+01
  0.2047619E+00 -0.4484248E+06 -0.3085591E+01  0.1311546E-01 -0.1080465E-03  0.2637414E+07  0.1458846E+02
  0.2357143E+00 -0.4486562E+06 -0.5376072E+01  0.4855069E-02 -0.5546957E-05  0.2638229E+07  0.2536490E+02
  0.2666667E+00 -0.4490156E+06 -0.9066518E+01  0.2346039E-01  0.4455782E-03  0.2639172E+07  0.4266199E+02
  0.2976190E+00 -0.4493210E+06 -0.1501803E+02 -0.8408203E-02 -0.3879480E-03  0.2640428E+07  0.7048882E+02
  0.3285715E+00 -0.4497307E+06 -0.2449473E+02  0.2665644E-01  0.1049027E-02  0.2641594E+07  0.1145979E+03
  0.3595238E+00 -0.4500259E+06 -0.3960284E+02  0.1799526E-01  0.8902103E-03  0.2642888E+07  0.1846927E+03
  0.3904762E+00 -0.4504685E+06 -0.6346234E+02  0.3126191E-02 -0.5028248E-03  0.2644450E+07  0.2948815E+03
  0.4214286E+00 -0.4511135E+06 -0.1002295E+03  0.6806971E-02 -0.2796054E-03  0.2646528E+07  0.4637544E+03
  0.4523810E+00 -0.4516108E+06 -0.1568051E+03  0.4654733E-02  0.5012155E-03  0.2648479E+07  0.7226326E+03
  0.4833333E+00 -0.4525542E+06 -0.2389575E+03  0.1509042E-01  0.5415082E-03  0.2651481E+07  0.1095571E+04
  0.5142857E+00 -0.4532544E+06 -0.3578038E+03  0.1898872E-01  0.7890463E-03  0.2654115E+07  0.1632632E+04
  0.5452381E+00 -0.4542156E+06 -0.5225661E+03  0.1483234E-01  0.1491070E-02  0.2657067E+07  0.2371100E+04
  0.5761905E+00 -0.4549772E+06 -0.7437533E+03 -0.5296438E-03 -0.2515554E-02  0.2659936E+07  0.3355651E+04
  0.6071429E+00 -0.4559060E+06 -0.1038736E+04 -0.3920611E-02 -0.3376722E-02  0.2663289E+07  0.4659741E+04
  0.6380953E+00 -0.4572685E+06 -0.1418178E+04  0.2429564E-01  0.1161098E-02  0.2667452E+07  0.6319263E+04
  0.6690477E+00 -0.4583303E+06 -0.1899243E+04  0.3512236E-01  0.4933834E-02  0.2671186E+07  0.8407440E+04
  0.7000000E+00 -0.4594174E+06 -0.2503335E+04  0.2833775E-01  0.1392841E-02  0.2674816E+07  0.1100545E+05
  0.7309524E+00 -0.4608319E+06 -0.3247866E+04  0.2062471E-01  0.1636505E-02  0.2678895E+07  0.1416687E+05
  0.7619048E+00 -0.4620096E+06 -0.4150926E+04  0.1850509E-01  0.3915787E-02  0.2682662E+07  0.1796638E+05
  0.7928572E+00 -0.4633802E+06 -0.5237891E+04 -0.2309438E-02 -0.4879951E-02  0.2686961E+07  0.2248922E+05
  0.8238096E+00 -0.4645847E+06 -0.6528622E+04  0.1126152E-01 -0.6198883E-03  0.2690418E+07  0.2779093E+05
  0.8547620E+00 -0.4661255E+06 -0.8048333E+04  0.9497002E-02 -0.2101898E-02  0.2694420E+07  0.3395012E+05
  0.8857143E+00 -0.4671670E+06 -0.9806769E+04  0.2928703E-01  0.3978729E-02  0.2697102E+07  0.4098328E+05
  0.9166667E+00 -0.4684295E+06 -0.1183439E+05  0.1211825E-01 -0.3873825E-02  0.2700303E+07  0.4897895E+05
  0.9476191E+00 -0.4693962E+06 -0.1414344E+05  0.1249534E-01 -0.1731873E-02  0.2702229E+07  0.5793291E+05
  0.9785714E+00 -0.4706935E+06 -0.1676687E+05  0.2806726E-01  0.4695892E-02  0.2704490E+07  0.6793877E+05
  0.1009524E+01 -0.4716188E+06 -0.1969538E+05  0.2636028E-01  0.2082825E-02  0.2705913E+07  0.7894392E+05
  0.1040476E+01 -0.4723691E+06 -0.2294788E+05 -0.5103489E-02 -0.2719879E-02  0.2706657E+07  0.9095227E+05
  0.1071429E+01 -0.4729781E+06 -0.2652756E+05  0.7348633E-02 -0.9231567E-03  0.2706426E+07  0.1039059E+06
  0.1102381E+01 -0.4734082E+06 -0.3044386E+05  0.1882466E-02 -0.1144409E-03  0.2705306E+07  0.1177608E+06
  0.1133333E+01 -0.4738793E+06 -0.3470838E+05  0.3112793E-01  0.8888245E-03  0.2703742E+07  0.1325231E+06
  0.1164286E+01 -0.4738842E+06 -0.3928079E+05  0.5556820E-02 -0.1983643E-03  0.2701061E+07  0.1480347E+06
  0.1195238E+01 -0.4735026E+06 -0.4415296E+05  0.7149138E-02  0.2098083E-02  0.2697054E+07  0.1641508E+06
  0.1226190E+01 -0.4731618E+06 -0.4934615E+05 -0.2190155E-02 -0.1525879E-02  0.2692866E+07  0.1809071E+06
  0.1257143E+01 -0.4721832E+06 -0.5475858E+05  0.1407970E-01 -0.3585815E-03  0.2686594E+07  0.1978345E+06
  0.1288095E+01 -0.4715340E+06 -0.6054825E+05  0.1250939E-01  0.1228333E-02  0.2680738E+07  0.2154371E+06
  0.1319048E+01 -0.4705580E+06 -0.6654385E+05 -0.4349581E-02 -0.2548218E-02  0.2674166E+07  0.2332035E+06
  0.1350000E+01 -0.4688627E+06 -0.7259615E+05  0.2974899E-01 -0.1632690E-02  0.2665450E+07  0.2504051E+06
  0.1380952E+01 -0.4668782E+06 -0.7877574E+05  0.1414332E-02 -0.1770020E-02  0.2656159E+07  0.2673579E+06
  0.1411905E+01 -0.4646471E+06 -0.8498748E+05  0.7262463E-02 -0.1373291E-03  0.2646484E+07  0.2839194E+06
  0.1442857E+01 -0.4619024E+06 -0.9116037E+05  0.5076191E-03 -0.2067566E-02  0.2634878E+07  0.2991757E+06
  0.1473810E+01 -0.4592771E+06 -0.9745891E+05 -0.1242396E-02  0.1144409E-03  0.2623857E+07  0.3142310E+06
  0.1504762E+01 -0.4565592E+06 -0.1036959E+06  0.3001539E-02 -0.1457214E-02  0.2612300E+07  0.3281508E+06
  0.1535714E+01 -0.4535958E+06 -0.1099121E+06 -0.1748728E-02 -0.1434326E-02  0.2601269E+07  0.3418411E+06
  0.1566667E+01 -0.4497655E+06 -0.1154432E+06 -0.1901180E-01  0.4043579E-03  0.2587346E+07  0.3519360E+06
  0.1597619E+01 -0.4461366E+06 -0.1210195E+06 -0.8557657E-02  0.2136230E-03  0.2574984E+07  0.3620302E+06
  0.1628572E+01 -0.4426103E+06 -0.1263916E+06 -0.8020233E-02 -0.6561279E-03  0.2562996E+07  0.3707143E+06
  0.1659524E+01 -0.4384039E+06 -0.1309887E+06 -0.3089412E-02  0.3890991E-03  0.2549540E+07  0.3762600E+06
  0.1690476E+01 -0.4344143E+06 -0.1353841E+06  0.5343585E-02 -0.6103516E-03  0.2537229E+07  0.3808917E+06
  0.1721429E+01 -0.4304520E+06 -0.1392532E+06  0.9360413E-02  0.2136230E-03  0.2525057E+07  0.3834308E+06
  0.1752381E+01 -0.4264908E+06 -0.1427366E+06  0.3134686E-02  0.7629395E-03  0.2513667E+07  0.3846751E+06
  0.1783333E+01 -0.4224478E+06 -0.1456288E+06 -0.6776614E-02 -0.1907349E-03  0.2502797E+07  0.3844209E+06
  0.1814286E+01 -0.4179704E+06 -0.1472032E+06 -0.7131982E-02  0.8316040E-03  0.2491028E+07  0.3794363E+06
  0.1845238E+01 -0.4139406E+06 -0.1488270E+06  0.7607737E-02  0.2632141E-03  0.2481298E+07  0.3754724E+06
  0.1876190E+01 -0.4102141E+06 -0.1500317E+06 -0.1431383E-01  0.7247925E-04  0.2472522E+07  0.3699025E+06
  0.1907143E+01 -0.4062255E+06 -0.1499849E+06  0.8448912E-02 -0.1258850E-03  0.2463554E+07  0.3609656E+06
  0.1938095E+01 -0.4025749E+06 -0.1496921E+06  0.1184112E-01  0.1945496E-03  0.2455933E+07  0.3516649E+06
  0.1969048E+01 -0.3991890E+06 -0.1488633E+06  0.3719676E-02 -0.1544952E-03  0.2449087E+07  0.3415287E+06
  0.2000000E+01 -0.3961829E+06 -0.1476999E+06 -0.1800537E-01 -0.2136230E-03  0.2443250E+07  0.3299024E+06
