VARIABLES="w (rad/s)"
"abs(F   1   1)" "angle(F   1   1)"
"abs(F   1   2)" "angle(F   1   2)"
"abs(F   1   3)" "angle(F   1   3)"
Zone t="Diffraction force - beta =   0.000 deg",I=    64,F=POINT
  0.5000000E-01  0.4378306E+04 -0.1570791E+01  0.4367633E+03 -0.3093824E+01  0.1301074E+05  0.1570801E+01
  0.8095238E-01  0.7164859E+04 -0.1570782E+01  0.1129792E+04 -0.3092215E+01  0.2128034E+05  0.1570810E+01
  0.1119048E+00  0.1000054E+05 -0.1570767E+01  0.2140593E+04 -0.3090307E+01  0.2968964E+05  0.1570825E+01
  0.1428571E+00  0.1293355E+05 -0.1570745E+01  0.3467536E+04 -0.3087934E+01  0.3839056E+05  0.1570846E+01
  0.1738095E+00  0.1600135E+05 -0.1570712E+01  0.5111662E+04 -0.3085039E+01  0.4746005E+05  0.1570877E+01
  0.2047619E+00  0.1921401E+05 -0.1570665E+01  0.7068908E+04 -0.3081356E+01  0.5696188E+05  0.1570923E+01
  0.2357143E+00  0.2265691E+05 -0.1570597E+01  0.9325920E+04 -0.3076653E+01  0.6712243E+05  0.1570988E+01
  0.2666667E+00  0.2634938E+05 -0.1570498E+01  0.1191540E+05 -0.3071243E+01  0.7794373E+05  0.1571084E+01
  0.2976190E+00  0.3036574E+05 -0.1570351E+01  0.1475542E+05 -0.3064067E+01  0.8974846E+05  0.1571226E+01
  0.3285715E+00  0.3472807E+05 -0.1570134E+01  0.1793531E+05 -0.3055985E+01  0.1025857E+06  0.1571434E+01
  0.3595238E+00  0.3963855E+05 -0.1569812E+01  0.2130184E+05 -0.3045767E+01  0.1168657E+06  0.1571744E+01
  0.3904762E+00  0.4496058E+05 -0.1569333E+01  0.2496305E+05 -0.3034150E+01  0.1323782E+06  0.1572205E+01
  0.4214286E+00  0.5093203E+05 -0.1568640E+01  0.2873292E+05 -0.3021127E+01  0.1498297E+06  0.1572872E+01
  0.4523810E+00  0.5752176E+05 -0.1567631E+01  0.3265881E+05 -0.3005907E+01  0.1689007E+06  0.1573845E+01
  0.4833333E+00  0.6482670E+05 -0.1566250E+01  0.3666442E+05 -0.2991355E+01  0.1897591E+06  0.1575178E+01
  0.5142857E+00  0.7268269E+05 -0.1564344E+01  0.4057742E+05 -0.2974919E+01  0.2123412E+06  0.1577016E+01
  0.5452381E+00  0.8108712E+05 -0.1561830E+01  0.4464323E+05 -0.2959754E+01  0.2366935E+06  0.1579434E+01
  0.5761905E+00  0.9033196E+05 -0.1558623E+01  0.4842291E+05 -0.2944289E+01  0.2629354E+06  0.1582529E+01
  0.6071429E+00  0.1000041E+06 -0.1554519E+01  0.5214634E+05 -0.2928476E+01  0.2901742E+06  0.1586495E+01
  0.6380953E+00  0.1101634E+06 -0.1549467E+01  0.5595471E+05 -0.2915332E+01  0.3186161E+06  0.1591378E+01
  0.6690477E+00  0.1209247E+06 -0.1543297E+01  0.5929362E+05 -0.2900934E+01  0.3490789E+06  0.1597327E+01
  0.7000000E+00  0.1319421E+06 -0.1535796E+01  0.6254663E+05 -0.2886952E+01  0.3798949E+06  0.1604564E+01
  0.7309524E+00  0.1436115E+06 -0.1526931E+01  0.6584620E+05 -0.2875140E+01  0.4118427E+06  0.1613145E+01
  0.7619048E+00  0.1559661E+06 -0.1516526E+01  0.6858617E+05 -0.2862166E+01  0.4454709E+06  0.1623224E+01
  0.7928572E+00  0.1683489E+06 -0.1504303E+01  0.7113353E+05 -0.2849728E+01  0.4788436E+06  0.1635072E+01
  0.8238096E+00  0.1810781E+06 -0.1490167E+01  0.7358957E+05 -0.2838327E+01  0.5134684E+06  0.1648736E+01
  0.8547620E+00  0.1938950E+06 -0.1473968E+01  0.7585358E+05 -0.2828055E+01  0.5477071E+06  0.1664417E+01
  0.8857143E+00  0.2073280E+06 -0.1455796E+01  0.7750179E+05 -0.2816493E+01  0.5833163E+06  0.1682000E+01
  0.9166667E+00  0.2206080E+06 -0.1435361E+01  0.7900577E+05 -0.2806082E+01  0.6173707E+06  0.1701847E+01
  0.9476191E+00  0.2340078E+06 -0.1412622E+01  0.8033366E+05 -0.2796316E+01  0.6518838E+06  0.1723895E+01
  0.9785714E+00  0.2469814E+06 -0.1387437E+01  0.8154441E+05 -0.2787966E+01  0.6839113E+06  0.1748411E+01
  0.1009524E+01  0.2599825E+06 -0.1359939E+01  0.8198188E+05 -0.2778155E+01  0.7161507E+06  0.1775117E+01
  0.1040476E+01  0.2720425E+06 -0.1329847E+01  0.8225117E+05 -0.2769034E+01  0.7457190E+06  0.1804291E+01
  0.1071429E+01  0.2830272E+06 -0.1297247E+01  0.8231306E+05 -0.2760468E+01  0.7718745E+06  0.1835877E+01
  0.1102381E+01  0.2932876E+06 -0.1262687E+01  0.8224435E+05 -0.2752691E+01  0.7957874E+06  0.1869296E+01
  0.1133333E+01  0.3023300E+06 -0.1226345E+01  0.8199220E+05 -0.2745868E+01  0.8146938E+06  0.1904585E+01
  0.1164286E+01  0.3104976E+06 -0.1188419E+01  0.8104412E+05 -0.2738217E+01  0.8313909E+06  0.1941335E+01
  0.1195238E+01  0.3167086E+06 -0.1148674E+01  0.7996257E+05 -0.2731004E+01  0.8427868E+06  0.1979776E+01
  0.1226190E+01  0.3207267E+06 -0.1107437E+01  0.7871852E+05 -0.2724404E+01  0.8473517E+06  0.2019703E+01
  0.1257143E+01  0.3229895E+06 -0.1064970E+01  0.7732659E+05 -0.2717765E+01  0.8482236E+06  0.2060551E+01
  0.1288095E+01  0.3233918E+06 -0.1022837E+01  0.7587094E+05 -0.2712387E+01  0.8426492E+06  0.2101215E+01
  0.1319048E+01  0.3218739E+06 -0.9804930E+00  0.7411636E+05 -0.2707414E+01  0.8318984E+06  0.2141991E+01
  0.1350000E+01  0.3187087E+06 -0.9383284E+00  0.7194496E+05 -0.2702206E+01  0.8177159E+06  0.2182343E+01
  0.1380952E+01  0.3132238E+06 -0.8962957E+00  0.6973852E+05 -0.2697549E+01  0.7975085E+06  0.2222461E+01
  0.1411905E+01  0.3050207E+06 -0.8538707E+00  0.6744365E+05 -0.2692885E+01  0.7705011E+06  0.2262488E+01
  0.1442857E+01  0.2959841E+06 -0.8136056E+00  0.6505971E+05 -0.2688715E+01  0.7416154E+06  0.2300544E+01
  0.1473810E+01  0.2853732E+06 -0.7746286E+00  0.6266955E+05 -0.2685103E+01  0.7088553E+06  0.2337181E+01
  0.1504762E+01  0.2733019E+06 -0.7371113E+00  0.6031089E+05 -0.2682116E+01  0.6723547E+06  0.2372253E+01
  0.1535714E+01  0.2603856E+06 -0.7012004E+00  0.5761110E+05 -0.2680111E+01  0.6347115E+06  0.2405313E+01
  0.1566667E+01  0.2465143E+06 -0.6668022E+00  0.5486466E+05 -0.2678162E+01  0.5957182E+06  0.2436560E+01
  0.1597619E+01  0.2316855E+06 -0.6339740E+00  0.5215960E+05 -0.2676544E+01  0.5547761E+06  0.2465950E+01
  0.1628572E+01  0.2159345E+06 -0.6026139E+00  0.4949368E+05 -0.2675325E+01  0.5115493E+06  0.2493634E+01
  0.1659524E+01  0.1999628E+06 -0.5727006E+00  0.4681586E+05 -0.2674533E+01  0.4692339E+06  0.2519437E+01
  0.1690476E+01  0.1837762E+06 -0.5444664E+00  0.4419655E+05 -0.2674277E+01  0.4272633E+06  0.2543027E+01
  0.1721429E+01  0.1672446E+06 -0.5179395E+00  0.4166962E+05 -0.2674477E+01  0.3846760E+06  0.2564109E+01
  0.1752381E+01  0.1507509E+06 -0.4928505E+00  0.3916423E+05 -0.2675636E+01  0.3431566E+06  0.2582825E+01
  0.1783333E+01  0.1344908E+06 -0.4692494E+00  0.3658698E+05 -0.2677962E+01  0.3033348E+06  0.2598667E+01
  0.1814286E+01  0.1182134E+06 -0.4461290E+00  0.3410963E+05 -0.2680566E+01  0.2644123E+06  0.2612724E+01
  0.1845238E+01  0.1021047E+06 -0.4240193E+00  0.3172209E+05 -0.2683642E+01  0.2265887E+06  0.2623390E+01
  0.1876190E+01  0.8610720E+05 -0.4024541E+00  0.2946850E+05 -0.2687098E+01  0.1894130E+06  0.2629837E+01
  0.1907143E+01  0.7057938E+05 -0.3807391E+00  0.2729126E+05 -0.2691483E+01  0.1544398E+06  0.2631481E+01
  0.1938095E+01  0.5549133E+05 -0.3577825E+00  0.2519258E+05 -0.2697020E+01  0.1214336E+06  0.2625747E+01
  0.1969048E+01  0.4077799E+05 -0.3321712E+00  0.2321818E+05 -0.2702898E+01  0.8993298E+05  0.2604490E+01
  0.2000000E+01  0.2655091E+05 -0.2979443E+00  0.2131059E+05 -0.2711015E+01  0.6043670E+05  0.2550235E+01
