VARIABLES="w (rad/s)"
"A   1   1" "B   1   1"
"A   1   2" "B   1   2"
"A   1   3" "B   1   3"
Zone t="Motion of body    1 in DoF   1",I=    64,F=POINT
  0.5000000E-01  0.3794486E+05  0.1261072E-02 -0.4386902E-03 -0.3097590E-05 -0.7274284E+05 -0.2408280E-02
  0.8095238E-01  0.3829893E+05  0.5450047E-02  0.3062977E-03  0.1484997E-05 -0.7348434E+05 -0.1049058E-01
  0.1119048E+00  0.3852012E+05  0.1537218E-01  0.1482862E-02  0.1854367E-04 -0.7381902E+05 -0.2951325E-01
  0.1428571E+00  0.3862371E+05  0.3455755E-01 -0.1068115E-03  0.5038804E-05 -0.7398527E+05 -0.6628096E-01
  0.1738095E+00  0.3863009E+05  0.6880768E-01 -0.1602173E-02 -0.1311040E-04 -0.7397157E+05 -0.1318857E+00
  0.2047619E+00  0.3868114E+05  0.1271107E+00 -0.5216377E-03 -0.1611945E-04 -0.7407152E+05 -0.2435659E+00
  0.2357143E+00  0.3874571E+05  0.2237122E+00 -0.2945408E-02 -0.3772834E-04 -0.7414377E+05 -0.4283115E+00
  0.2666667E+00  0.3879669E+05  0.3813933E+00 -0.9012222E-03 -0.1061242E-05 -0.7420515E+05 -0.7294512E+00
  0.2976190E+00  0.3885047E+05  0.6395258E+00  0.8331299E-03  0.3904849E-04 -0.7433752E+05 -0.1222483E+01
  0.3285715E+00  0.3890241E+05  0.1057904E+01  0.1857591E-02  0.7327553E-04 -0.7438859E+05 -0.2019901E+01
  0.3595238E+00  0.3900861E+05  0.1737657E+01 -0.1082262E-02 -0.2009328E-04 -0.7450177E+05 -0.3312830E+01
  0.3904762E+00  0.3905479E+05  0.2830543E+01 -0.1133244E-02 -0.1924299E-04 -0.7460324E+05 -0.5390879E+01
  0.4214286E+00  0.3916599E+05  0.4554461E+01 -0.3620729E-03  0.1095980E-04 -0.7477483E+05 -0.8661338E+01
  0.4523810E+00  0.3930044E+05  0.7265112E+01  0.5059493E-04  0.2564862E-04 -0.7494995E+05 -0.1379233E+02
  0.4833333E+00  0.3939475E+05  0.1129644E+02 -0.7892477E-04 -0.7607043E-05 -0.7509823E+05 -0.2141131E+02
  0.5142857E+00  0.3955457E+05  0.1729016E+02  0.3708734E-03  0.2880394E-04 -0.7538932E+05 -0.3272348E+02
  0.5452381E+00  0.3967556E+05  0.2582319E+02  0.6716533E-03  0.4656613E-04 -0.7555665E+05 -0.4878008E+02
  0.5761905E+00  0.3983575E+05  0.3767291E+02 -0.1337351E-02 -0.3826916E-03 -0.7576627E+05 -0.7100722E+02
  0.6071429E+00  0.4004015E+05  0.5398144E+02 -0.2023136E-02 -0.2511442E-03 -0.7609373E+05 -0.1015403E+03
  0.6380953E+00  0.4019560E+05  0.7559265E+02 -0.4842388E-02 -0.6710291E-03 -0.7638041E+05 -0.1419299E+03
  0.6690477E+00  0.4038777E+05  0.1040796E+03  0.6842019E-04 -0.1634359E-03 -0.7667430E+05 -0.1949643E+03
  0.7000000E+00  0.4064226E+05  0.1412607E+03 -0.3378731E-03  0.1239777E-04 -0.7706027E+05 -0.2639416E+03
  0.7309524E+00  0.4084704E+05  0.1886523E+03 -0.2139709E-02 -0.1853704E-03 -0.7735674E+05 -0.3515647E+03
  0.7619048E+00  0.4108645E+05  0.2487346E+03 -0.4906654E-03  0.1589060E-03 -0.7771930E+05 -0.4622758E+03
  0.7928572E+00  0.4139191E+05  0.3242341E+03  0.2049626E-02  0.9884834E-03 -0.7822091E+05 -0.6009885E+03
  0.8238096E+00  0.4163025E+05  0.4175395E+03 -0.7408892E-04  0.5197525E-03 -0.7861725E+05 -0.7719034E+03
  0.8547620E+00  0.4194300E+05  0.5324691E+03 -0.4070144E-02 -0.1456976E-02 -0.7912662E+05 -0.9815232E+03
  0.8857143E+00  0.4224426E+05  0.6723450E+03  0.2291279E-02  0.6699562E-03 -0.7953203E+05 -0.1234985E+04
  0.9166667E+00  0.4261998E+05  0.8419307E+03 -0.7324219E-03 -0.6465912E-03 -0.8010401E+05 -0.1541246E+04
  0.9476191E+00  0.4293133E+05  0.1044463E+04 -0.1513610E-02 -0.1194477E-02 -0.8055905E+05 -0.1905346E+04
  0.9785714E+00  0.4328362E+05  0.1285968E+04 -0.8576108E-03 -0.4453659E-03 -0.8112066E+05 -0.2338062E+04
  0.1009524E+01  0.4363645E+05  0.1571200E+04 -0.2962508E-02 -0.1333237E-02 -0.8166953E+05 -0.2846619E+04
  0.1040476E+01  0.4404246E+05  0.1906825E+04 -0.1877145E-02 -0.1704216E-02 -0.8229205E+05 -0.3441815E+04
  0.1071429E+01  0.4445152E+05  0.2298140E+04 -0.3275553E-03  0.8888245E-03 -0.8290588E+05 -0.4131807E+04
  0.1102381E+01  0.4481982E+05  0.2750394E+04 -0.1370325E-02 -0.3223419E-03 -0.8338848E+05 -0.4923107E+04
  0.1133333E+01  0.4523546E+05  0.3273503E+04 -0.2423455E-02 -0.1199722E-02 -0.8399900E+05 -0.5834986E+04
  0.1164286E+01  0.4562151E+05  0.3871671E+04 -0.1127091E-02 -0.1367569E-02 -0.8451520E+05 -0.6869827E+04
  0.1195238E+01  0.4603605E+05  0.4554854E+04  0.4212885E-03  0.1667023E-02 -0.8507009E+05 -0.8044166E+04
  0.1226190E+01  0.4645904E+05  0.5330351E+04 -0.2140379E-02 -0.9365082E-03 -0.8566828E+05 -0.9370908E+04
  0.1257143E+01  0.4676168E+05  0.6194042E+04 -0.4855069E-04  0.6752014E-03 -0.8606319E+05 -0.1083929E+05
  0.1288095E+01  0.4714293E+05  0.7173917E+04 -0.1468905E-02 -0.2262115E-02 -0.8656649E+05 -0.1249316E+05
  0.1319048E+01  0.4749835E+05  0.8260557E+04 -0.1850885E-03  0.1983643E-02 -0.8704099E+05 -0.1431602E+05
  0.1350000E+01  0.4777925E+05  0.9456063E+04 -0.1311126E-02  0.6332397E-03 -0.8729511E+05 -0.1629567E+05
  0.1380952E+01  0.4807820E+05  0.1077793E+05 -0.1933657E-02 -0.5264282E-03 -0.8756993E+05 -0.1846688E+05
  0.1411905E+01  0.4823302E+05  0.1219831E+05 -0.1394134E-02  0.1022339E-02 -0.8771500E+05 -0.2079698E+05
  0.1442857E+01  0.4840046E+05  0.1376102E+05 -0.1438254E-02 -0.1419067E-02 -0.8777948E+05 -0.2332433E+05
  0.1473810E+01  0.4847164E+05  0.1544063E+05 -0.3623654E-03  0.1144409E-03 -0.8764678E+05 -0.2600766E+05
  0.1504762E+01  0.4852572E+05  0.1725586E+05 -0.1014033E-04 -0.9231567E-03 -0.8754467E+05 -0.2889536E+05
  0.1535714E+01  0.4849959E+05  0.1918697E+05 -0.1808344E-02  0.1159668E-02 -0.8727888E+05 -0.3192881E+05
  0.1566667E+01  0.4838366E+05  0.2122648E+05 -0.1266155E-02 -0.1029968E-02 -0.8684795E+05 -0.3509336E+05
  0.1597619E+01  0.4821488E+05  0.2337652E+05 -0.5348535E-03  0.2021790E-02 -0.8634391E+05 -0.3839587E+05
  0.1628572E+01  0.4796644E+05  0.2562227E+05 -0.9182043E-03  0.2159119E-02 -0.8575243E+05 -0.4181896E+05
  0.1659524E+01  0.4758571E+05  0.2791545E+05 -0.8367158E-03 -0.4653931E-03 -0.8491526E+05 -0.4525088E+05
  0.1690476E+01  0.4707238E+05  0.3023397E+05 -0.9116589E-03 -0.3738403E-03 -0.8381193E+05 -0.4863573E+05
  0.1721429E+01  0.4650229E+05  0.3260993E+05 -0.1684165E-03  0.1564026E-02 -0.8267698E+05 -0.5208071E+05
  0.1752381E+01  0.4587735E+05  0.3502005E+05 -0.2150743E-02 -0.2212524E-03 -0.8148679E+05 -0.5553148E+05
  0.1783333E+01  0.4509510E+05  0.3737464E+05 -0.1129436E-02  0.1060486E-02 -0.8000260E+05 -0.5879225E+05
  0.1814286E+01  0.4425587E+05  0.3971383E+05 -0.2750186E-02 -0.1251221E-02 -0.7846395E+05 -0.6197798E+05
  0.1845238E+01  0.4335837E+05  0.4200936E+05 -0.1008852E-02  0.9765625E-03 -0.7685585E+05 -0.6503094E+05
  0.1876190E+01  0.4240244E+05  0.4424536E+05 -0.7807543E-03 -0.8544922E-03 -0.7521887E+05 -0.6796052E+05
  0.1907143E+01  0.4133910E+05  0.4632933E+05 -0.1120121E-02 -0.1373291E-03 -0.7342112E+05 -0.7057654E+05
  0.1938095E+01  0.4020966E+05  0.4825417E+05 -0.4566390E-03 -0.5645752E-03 -0.7150198E+05 -0.7283970E+05
  0.1969048E+01  0.3904067E+05  0.5004301E+05  0.3099730E-03 -0.8087158E-03 -0.6956105E+05 -0.7485076E+05
  0.2000000E+01  0.3786983E+05  0.5172107E+05  0.3051758E-03 -0.5950928E-03 -0.6769455E+05 -0.7670238E+05
Zone t="Motion of body    1 in DoF   2",I=    64,F=POINT
  0.5000000E-01  0.2803802E-02  0.4768372E-05  0.1520799E+05  0.1569901E+02 -0.3204346E-02 -0.1966953E-05
  0.8095238E-01  0.2167646E-02 -0.1835823E-04  0.1509618E+05  0.2601140E+02 -0.5607605E-02  0.2121925E-04
  0.1119048E+00  0.3246957E-02  0.1931190E-04  0.1507148E+05  0.3720548E+02 -0.6613224E-02 -0.1561642E-04
  0.1428571E+00  0.2323151E-02  0.7629395E-05  0.1503740E+05  0.4971064E+02 -0.6141662E-02 -0.5722046E-05
  0.1738095E+00  0.2019177E-02 -0.1907349E-05  0.1501801E+05  0.6400946E+02 -0.2063072E-02  0.2551079E-04
  0.2047619E+00  0.3819133E-02 -0.4291534E-05  0.1502999E+05  0.8078401E+02 -0.7526486E-02  0.3862381E-04
  0.2357143E+00  0.6635261E-03  0.3290176E-04  0.1503449E+05  0.1009250E+03 -0.6343957E-02  0.6246567E-04
  0.2666667E+00  0.4177094E-02  0.4291534E-05  0.1504787E+05  0.1251400E+03 -0.8411407E-02  0.3099442E-04
  0.2976190E+00  0.2050781E-02 -0.1716614E-04  0.1506993E+05  0.1552125E+03 -0.5742188E-02  0.2765656E-04
  0.3285715E+00  0.1973691E-02 -0.1811981E-04  0.1508846E+05  0.1919028E+03 -0.7801884E-02 -0.4005432E-04
  0.3595238E+00  0.2493448E-02 -0.8583069E-05  0.1510404E+05  0.2373025E+03 -0.8021474E-02  0.3433228E-03
  0.3904762E+00  0.7424703E-03  0.1430511E-04  0.1512725E+05  0.2927118E+03 -0.3829584E-02  0.1001358E-03
  0.4214286E+00  0.1249152E-02  0.4005432E-04  0.1511516E+05  0.3575696E+03 -0.5141436E-02 -0.6484985E-04
  0.4523810E+00  0.1433523E-02  0.4386902E-04  0.1513662E+05  0.4352352E+03 -0.4519814E-02 -0.4196167E-04
  0.4833333E+00  0.3078066E-02  0.7629395E-05  0.1507847E+05  0.5184971E+03 -0.5998282E-02 -0.6484985E-04
  0.5142857E+00  0.2388424E-02 -0.6294250E-04  0.1506380E+05  0.6116705E+03 -0.7536147E-02 -0.2479553E-04
  0.5452381E+00  0.3680100E-02 -0.3433228E-04  0.1499106E+05  0.7091753E+03 -0.9683001E-02 -0.5073547E-03
  0.5761905E+00  0.2065611E-02 -0.1106262E-03  0.1491398E+05  0.8087576E+03 -0.4925688E-02  0.4539490E-03
  0.6071429E+00  0.2387551E-02 -0.2326965E-03  0.1487183E+05  0.9131546E+03 -0.6383559E-02  0.3547668E-03
  0.6380953E+00  0.3204346E-02  0.1029968E-03  0.1474862E+05  0.1015077E+04 -0.5356518E-02 -0.5683899E-03
  0.6690477E+00  0.2371900E-02 -0.2021790E-03  0.1465362E+05  0.1117232E+04 -0.1003496E-01  0.2021790E-03
  0.7000000E+00  0.2474104E-02  0.8392334E-04  0.1459178E+05  0.1219564E+04 -0.7324218E-02  0.4158020E-03
  0.7309524E+00  0.1899644E-02  0.2365112E-03  0.1444934E+05  0.1318431E+04 -0.8141333E-02 -0.1403809E-02
  0.7619048E+00  0.3014087E-02  0.4348755E-03  0.1433095E+05  0.1414361E+04 -0.6689071E-02  0.4348755E-03
  0.7928572E+00  0.1924532E-02  0.6866455E-03  0.1424438E+05  0.1506372E+04 -0.6120011E-02 -0.6103516E-03
  0.8238096E+00  0.4491640E-02  0.2288818E-04  0.1412381E+05  0.1592763E+04 -0.1059471E-01  0.7629395E-03
  0.8547620E+00  0.2168958E-02  0.1296997E-03  0.1398802E+05  0.1674135E+04 -0.3998738E-02 -0.7629395E-05
  0.8857143E+00  0.2144844E-02 -0.3662109E-03  0.1386807E+05  0.1748369E+04 -0.6270870E-02  0.4196167E-03
  0.9166667E+00  0.2180620E-02  0.3662109E-03  0.1378287E+05  0.1815407E+04 -0.3595525E-02 -0.1083374E-02
  0.9476191E+00  0.3936998E-02  0.5798340E-03  0.1366605E+05  0.1872719E+04 -0.7149394E-02  0.4501343E-03
  0.9785714E+00  0.2315549E-02 -0.2136230E-03  0.1353114E+05  0.1922583E+04 -0.4740249E-02  0.1815796E-02
  0.1009524E+01  0.3929858E-02  0.3814697E-03  0.1341253E+05  0.1963314E+04 -0.6952826E-02 -0.5569458E-03
  0.1040476E+01  0.2331766E-02 -0.2746582E-03  0.1332000E+05  0.1995621E+04 -0.6687330E-02  0.1258850E-02
  0.1071429E+01  0.2919515E-02 -0.3051758E-04  0.1326081E+05  0.2020139E+04 -0.7291667E-02 -0.2182007E-02
  0.1102381E+01  0.3578071E-02  0.4577637E-03  0.1313192E+05  0.2028421E+04 -0.9523066E-02  0.8392334E-04
  0.1133333E+01  0.2517700E-02 -0.1525879E-04  0.1302312E+05  0.2031197E+04 -0.5762437E-02 -0.1823425E-02
  0.1164286E+01  0.1933092E-02 -0.3662109E-03  0.1292980E+05  0.2024671E+04 -0.2201759E-02 -0.3662109E-03
  0.1195238E+01  0.3293710E-02  0.2288818E-03  0.1286081E+05  0.2011854E+04 -0.8425769E-02 -0.1296997E-03
  0.1226190E+01  0.2588365E-02 -0.2288818E-03  0.1282015E+05  0.1994643E+04 -0.6371359E-02 -0.7705688E-03
  0.1257143E+01  0.3265034E-02 -0.2029419E-02  0.1275507E+05  0.1961228E+04 -0.6602894E-02  0.2677917E-02
  0.1288095E+01  0.2887465E-02  0.1159668E-02  0.1266765E+05  0.1914981E+04 -0.7012838E-02 -0.3448486E-02
  0.1319048E+01  0.2520385E-02  0.1159668E-02  0.1259835E+05  0.1866693E+04 -0.5552656E-02 -0.1884460E-02
  0.1350000E+01  0.2711261E-02 -0.1403809E-02  0.1254817E+05  0.1814333E+04 -0.6555628E-02  0.1754761E-03
  0.1380952E+01  0.3329343E-02  0.4119873E-03  0.1251847E+05  0.1762394E+04 -0.6629681E-02 -0.8697510E-03
  0.1411905E+01  0.2017914E-02 -0.1724243E-02  0.1251125E+05  0.1714426E+04 -0.2853110E-02  0.2807617E-02
  0.1442857E+01  0.2507980E-02  0.1007080E-02  0.1250153E+05  0.1655343E+04 -0.4610874E-02 -0.4043579E-02
  0.1473810E+01  0.2684416E-02 -0.4272461E-03  0.1244512E+05  0.1563924E+04 -0.5880673E-02  0.4806519E-03
  0.1504762E+01  0.3821638E-02  0.1205444E-02  0.1241312E+05  0.1485607E+04 -0.8031145E-02 -0.2052307E-02
  0.1535714E+01  0.2616882E-02  0.9613037E-03  0.1238858E+05  0.1404860E+04 -0.6676962E-02 -0.1266479E-02
  0.1566667E+01  0.3352875E-02  0.6713867E-03  0.1238254E+05  0.1331571E+04 -0.8025474E-02 -0.4959106E-03
  0.1597619E+01  0.3450283E-02  0.5950928E-03  0.1238925E+05  0.1267673E+04 -0.7335134E-02 -0.1998901E-02
  0.1628572E+01  0.2810829E-02  0.2227783E-02  0.1241224E+05  0.1216938E+04 -0.6408691E-02 -0.3829956E-02
  0.1659524E+01  0.2188334E-02  0.1251221E-02  0.1244201E+05  0.1168322E+04 -0.4560561E-02 -0.2861023E-02
  0.1690476E+01  0.3495445E-02  0.2456665E-02  0.1241933E+05  0.1050195E+04 -0.8448641E-02 -0.2593994E-02
  0.1721429E+01  0.2685800E-02  0.7476807E-03  0.1241841E+05  0.9646018E+03 -0.6523924E-02 -0.3078461E-02
  0.1752381E+01  0.2934415E-02  0.8850098E-03  0.1242042E+05  0.8822607E+03 -0.6791820E-02 -0.3910065E-02
  0.1783333E+01  0.3157286E-02  0.2105713E-02  0.1243017E+05  0.8063362E+03 -0.7495346E-02 -0.4169464E-02
  0.1814286E+01  0.2724956E-02  0.2441406E-02  0.1244968E+05  0.7454301E+03 -0.6021815E-02 -0.3501892E-02
  0.1845238E+01  0.2617227E-02  0.1922607E-02  0.1247393E+05  0.7000360E+03 -0.7012349E-02 -0.2170563E-02
  0.1876190E+01  0.2968493E-02  0.3189087E-02  0.1250554E+05  0.6728598E+03 -0.7221977E-02 -0.6420135E-02
  0.1907143E+01  0.2188236E-02  0.1785278E-02  0.1254541E+05  0.6656285E+03 -0.5440587E-02 -0.2929688E-02
  0.1938095E+01  0.3535015E-02  0.2212524E-02  0.1255710E+05  0.5723101E+03 -0.7180254E-02 -0.3110886E-02
  0.1969048E+01  0.2231806E-02  0.1556396E-02  0.1256895E+05  0.4850170E+03 -0.6199460E-02 -0.2588272E-02
  0.2000000E+01  0.2235413E-02  0.1235962E-02  0.1258559E+05  0.4242662E+03 -0.5798340E-02 -0.1289368E-02
Zone t="Motion of body    1 in DoF   3",I=    64,F=POINT
  0.5000000E-01 -0.7285023E+05 -0.2409302E-02  0.5435944E-02  0.1373744E-04  0.1708548E+06  0.4611278E-02
  0.8095238E-01 -0.7355871E+05 -0.1048557E-01  0.1024919E-02 -0.8339121E-06  0.1723257E+06  0.2022309E-01
  0.1119048E+00 -0.7389880E+05 -0.2952891E-01 -0.1900450E-02 -0.2002317E-04  0.1727646E+06  0.5669819E-01
  0.1428571E+00 -0.7406675E+05 -0.6632741E-01  0.1455307E-02  0.3204105E-04  0.1729721E+06  0.1271865E+00
  0.1738095E+00 -0.7405412E+05 -0.1319950E+00  0.2611761E-02  0.3075541E-04  0.1729669E+06  0.2529346E+00
  0.2047619E+00 -0.7414845E+05 -0.2437108E+00  0.4638849E-02  0.8408725E-04  0.1731105E+06  0.4670202E+00
  0.2357143E+00 -0.7422665E+05 -0.4286655E+00  0.5211107E-02  0.7574377E-04  0.1732058E+06  0.8208222E+00
  0.2666667E+00 -0.7428953E+05 -0.7301394E+00  0.1419783E-01  0.1503979E-03  0.1733122E+06  0.1396528E+01
  0.2976190E+00 -0.7441906E+05 -0.1223235E+01  0.2178955E-03  0.7898267E-04  0.1735311E+06  0.2338450E+01
  0.3285715E+00 -0.7446795E+05 -0.2021389E+01  0.1011226E-01  0.3242493E-03  0.1735991E+06  0.3859929E+01
  0.3595238E+00 -0.7458928E+05 -0.3316381E+01 -0.1824991E-02  0.1018122E-04  0.1737519E+06  0.6323041E+01
  0.3904762E+00 -0.7468309E+05 -0.5395462E+01 -0.1719405E-02 -0.1305044E-03  0.1739273E+06  0.1027616E+02
  0.4214286E+00 -0.7485881E+05 -0.8668684E+01 -0.3086672E-02 -0.1613051E-04  0.1742190E+06  0.1648511E+02
  0.4523810E+00 -0.7503220E+05 -0.1380749E+02  0.5481117E-03  0.9597838E-04  0.1744519E+06  0.2621248E+02
  0.4833333E+00 -0.7518945E+05 -0.2143294E+02  0.4569744E-02  0.4111826E-03  0.1747070E+06  0.4062378E+02
  0.5142857E+00 -0.7547778E+05 -0.3274973E+02 -0.5466674E-02 -0.5348325E-03  0.1752000E+06  0.6198216E+02
  0.5452381E+00 -0.7564034E+05 -0.4882295E+02  0.7234266E-02  0.6606877E-03  0.1754421E+06  0.9222695E+02
  0.5761905E+00 -0.7585620E+05 -0.7108774E+02 -0.3747230E-02 -0.5242825E-03  0.1757643E+06  0.1339890E+03
  0.6071429E+00 -0.7618125E+05 -0.1016563E+03 -0.2173928E-02 -0.2094507E-03  0.1762876E+06  0.1912215E+03
  0.6380953E+00 -0.7647130E+05 -0.1420433E+03  0.1848477E-01  0.3207088E-02  0.1767856E+06  0.2666953E+03
  0.6690477E+00 -0.7676205E+05 -0.1951252E+03  0.5564842E-02  0.7644892E-03  0.1772452E+06  0.3655123E+03
  0.7000000E+00 -0.7714606E+05 -0.2641953E+03 -0.7367815E-02 -0.1212478E-02  0.1778488E+06  0.4936449E+03
  0.7309524E+00 -0.7744599E+05 -0.3519294E+03  0.6941009E-02  0.4715919E-03  0.1783032E+06  0.6558406E+03
  0.7619048E+00 -0.7781122E+05 -0.4627726E+03  0.4996776E-02  0.1893997E-02  0.1788954E+06  0.8600690E+03
  0.7928572E+00 -0.7831456E+05 -0.6015779E+03 -0.1157606E-01 -0.4104614E-02  0.1796975E+06  0.1115064E+04
  0.8238096E+00 -0.7869636E+05 -0.7724680E+03  0.1424359E-01  0.3748417E-02  0.1803140E+06  0.1428053E+04
  0.8547620E+00 -0.7921645E+05 -0.9820897E+03  0.1438831E-01  0.4611015E-02  0.1811572E+06  0.1810320E+04
  0.8857143E+00 -0.7962161E+05 -0.1236118E+04  0.3652265E-02  0.2034187E-02  0.1817632E+06  0.2270540E+04
  0.9166667E+00 -0.8019793E+05 -0.1542792E+04  0.4253041E-02  0.8916855E-03  0.1826355E+06  0.2824239E+04
  0.9476191E+00 -0.8064166E+05 -0.1907302E+04  0.1140039E-01  0.4622459E-02  0.1833068E+06  0.3479341E+04
  0.9785714E+00 -0.8121227E+05 -0.2340006E+04  0.2635204E-02 -0.8087158E-03  0.1842181E+06  0.4254424E+04
  0.1009524E+01 -0.8176069E+05 -0.2848550E+04  0.6771448E-02  0.2412796E-02  0.1850747E+06  0.5160855E+04
  0.1040476E+01 -0.8238169E+05 -0.3443911E+04  0.5206145E-02  0.3677368E-02  0.1860026E+06  0.6216242E+04
  0.1071429E+01 -0.8299105E+05 -0.4133996E+04 -0.7405599E-03 -0.2944946E-02  0.1869373E+06  0.7432436E+04
  0.1102381E+01 -0.8346794E+05 -0.4926755E+04  0.4567750E-02  0.2613068E-02  0.1875489E+06  0.8818524E+04
  0.1133333E+01 -0.8408984E+05 -0.5838805E+04 -0.2154182E-02 -0.2033234E-02  0.1884700E+06  0.1040744E+05
  0.1164286E+01 -0.8460812E+05 -0.6875034E+04  0.5085015E-02  0.5561829E-02  0.1891724E+06  0.1219885E+05
  0.1195238E+01 -0.8516357E+05 -0.8051114E+04  0.1978779E-02 -0.1037598E-02  0.1899115E+06  0.1421871E+05
  0.1226190E+01 -0.8576112E+05 -0.9377825E+04  0.3907435E-02 -0.4806519E-03  0.1907422E+06  0.1648627E+05
  0.1257143E+01 -0.8614363E+05 -0.1084506E+05  0.7501082E-02  0.3616333E-02  0.1912109E+06  0.1897781E+05
  0.1288095E+01 -0.8664686E+05 -0.1249822E+05  0.3352421E-02  0.2868652E-02  0.1918341E+06  0.2176464E+05
  0.1319048E+01 -0.8712720E+05 -0.1431770E+05  0.2012838E-02 -0.3784180E-02  0.1924241E+06  0.2481227E+05
  0.1350000E+01 -0.8737888E+05 -0.1630028E+05  0.0000000E+00 -0.1541138E-02  0.1925764E+06  0.2808984E+05
  0.1380952E+01 -0.8765612E+05 -0.1847527E+05  0.9800878E-02  0.1159668E-01  0.1927194E+06  0.3165476E+05
  0.1411905E+01 -0.8780359E+05 -0.2080046E+05  0.5360389E-02  0.1373291E-02  0.1927472E+06  0.3546142E+05
  0.1442857E+01 -0.8786020E+05 -0.2332756E+05  0.3934048E-02  0.4615784E-02  0.1925463E+06  0.3953717E+05
  0.1473810E+01 -0.8772248E+05 -0.2601429E+05  0.8696770E-03  0.3364563E-02  0.1919651E+06  0.4381320E+05
  0.1504762E+01 -0.8762875E+05 -0.2889783E+05  0.5293254E-02  0.3479004E-02  0.1915409E+06  0.4838643E+05
  0.1535714E+01 -0.8736559E+05 -0.3192888E+05  0.1768600E-02 -0.2197266E-02  0.1907801E+06  0.5312661E+05
  0.1566667E+01 -0.8693111E+05 -0.3509532E+05  0.4334145E-02  0.2014160E-02  0.1897840E+06  0.5802205E+05
  0.1597619E+01 -0.8642662E+05 -0.3839416E+05  0.3600710E-02  0.1312256E-02  0.1886058E+06  0.6305849E+05
  0.1628572E+01 -0.8583385E+05 -0.4180499E+05  0.3644709E-02  0.1525879E-02  0.1873562E+06  0.6822463E+05
  0.1659524E+01 -0.8498783E+05 -0.4522711E+05  0.3190554E-02  0.2197266E-02  0.1857016E+06  0.7330636E+05
  0.1690476E+01 -0.8387211E+05 -0.4861049E+05  0.3727872E-02  0.9155273E-04  0.1835192E+06  0.7817642E+05
  0.1721429E+01 -0.8274566E+05 -0.5205214E+05 -0.3722891E-03 -0.7629395E-04  0.1814387E+06  0.8311508E+05
  0.1752381E+01 -0.8156723E+05 -0.5549225E+05  0.8367871E-02  0.2593994E-02  0.1792978E+06  0.8797096E+05
  0.1783333E+01 -0.8008081E+05 -0.5875261E+05  0.1437464E-02 -0.1205444E-02  0.1766506E+06  0.9239723E+05
  0.1814286E+01 -0.7853919E+05 -0.6193846E+05  0.6618951E-02  0.2563477E-02  0.1740099E+06  0.9665674E+05
  0.1845238E+01 -0.7693298E+05 -0.6498325E+05  0.5838111E-02  0.7476807E-03  0.1712147E+06  0.1005720E+06
  0.1876190E+01 -0.7530004E+05 -0.6789485E+05  0.5290424E-02  0.4135132E-02  0.1684938E+06  0.1042526E+06
  0.1907143E+01 -0.7349938E+05 -0.7049612E+05  0.8468914E-02  0.2517700E-02  0.1655795E+06  0.1073668E+06
  0.1938095E+01 -0.7156961E+05 -0.7275088E+05  0.4924615E-02 -0.2746582E-03  0.1624022E+06  0.1097587E+06
  0.1969048E+01 -0.6962898E+05 -0.7476366E+05  0.2844002E-02 -0.3356934E-03  0.1592827E+06  0.1117470E+06
  0.2000000E+01 -0.6777990E+05 -0.7661684E+05  0.4116058E-02  0.1113892E-02  0.1564362E+06  0.1135559E+06
