VARIABLES="w (rad/s)"
"abs(F   1   1)" "angle(F   1   1)"
"abs(F   1   2)" "angle(F   1   2)"
"abs(F   1   3)" "angle(F   1   3)"
Zone t="Diffraction force - beta =   0.000 deg",I=    64,F=POINT
  0.5000000E-01  0.1764918E+04 -0.1570794E+01  0.4397774E+06 -0.2955816E-04  0.1436080E+04 -0.1570800E+01
  0.8095238E-01  0.2878508E+04 -0.1570789E+01  0.4390765E+06 -0.7953190E-04  0.2337609E+04 -0.1570796E+01
  0.1119048E+00  0.4020209E+04 -0.1570804E+01  0.4380472E+06 -0.1579818E-03  0.3268803E+04 -0.1570789E+01
  0.1428571E+00  0.5195059E+04 -0.1570793E+01  0.4366878E+06 -0.2709380E-03  0.4227959E+04 -0.1570790E+01
  0.1738095E+00  0.6424372E+04 -0.1570788E+01  0.4349949E+06 -0.4276669E-03  0.5238436E+04 -0.1570786E+01
  0.2047619E+00  0.7712078E+04 -0.1570790E+01  0.4329611E+06 -0.6412759E-03  0.6297789E+04 -0.1570787E+01
  0.2357143E+00  0.9086679E+04 -0.1570784E+01  0.4305881E+06 -0.9314613E-03  0.7439473E+04 -0.1570781E+01
  0.2666667E+00  0.1056142E+05 -0.1570775E+01  0.4278574E+06 -0.1322204E-02  0.8669174E+04 -0.1570775E+01
  0.2976190E+00  0.1215340E+05 -0.1570763E+01  0.4247720E+06 -0.1853639E-02  0.1000308E+05 -0.1570764E+01
  0.3285715E+00  0.1389898E+05 -0.1570747E+01  0.4213310E+06 -0.2567665E-02  0.1147915E+05 -0.1570748E+01
  0.3595238E+00  0.1582253E+05 -0.1570726E+01  0.4175248E+06 -0.3528963E-02  0.1312038E+05 -0.1570724E+01
  0.3904762E+00  0.1792663E+05 -0.1570688E+01  0.4133501E+06 -0.4812297E-02  0.1491089E+05 -0.1570690E+01
  0.4214286E+00  0.2026116E+05 -0.1570639E+01  0.4088667E+06 -0.6463917E-02  0.1692482E+05 -0.1570638E+01
  0.4523810E+00  0.2283362E+05 -0.1570565E+01  0.4040563E+06 -0.8611164E-02  0.1916442E+05 -0.1570563E+01
  0.4833333E+00  0.2563723E+05 -0.1570460E+01  0.3989448E+06 -0.1120153E-01  0.2162065E+05 -0.1570460E+01
  0.5142857E+00  0.2865105E+05 -0.1570318E+01  0.3935766E+06 -0.1438048E-01  0.2427517E+05 -0.1570317E+01
  0.5452381E+00  0.3189500E+05 -0.1570128E+01  0.3879771E+06 -0.1810735E-01  0.2718388E+05 -0.1570126E+01
  0.5761905E+00  0.3533036E+05 -0.1569879E+01  0.3821788E+06 -0.2239570E-01  0.3027220E+05 -0.1569879E+01
  0.6071429E+00  0.3892324E+05 -0.1569561E+01  0.3761711E+06 -0.2736140E-01  0.3352085E+05 -0.1569561E+01
  0.6380953E+00  0.4266343E+05 -0.1569167E+01  0.3699315E+06 -0.3289862E-01  0.3695568E+05 -0.1569167E+01
  0.6690477E+00  0.4654782E+05 -0.1568679E+01  0.3635619E+06 -0.3913021E-01  0.4057236E+05 -0.1568680E+01
  0.7000000E+00  0.5056990E+05 -0.1568086E+01  0.3570969E+06 -0.4612853E-01  0.4436655E+05 -0.1568086E+01
  0.7309524E+00  0.5470911E+05 -0.1567373E+01  0.3504737E+06 -0.5383636E-01  0.4831210E+05 -0.1567374E+01
  0.7619048E+00  0.5893378E+05 -0.1566527E+01  0.3437313E+06 -0.6232370E-01  0.5236327E+05 -0.1566527E+01
  0.7928572E+00  0.6323227E+05 -0.1565531E+01  0.3369060E+06 -0.7163630E-01  0.5655398E+05 -0.1565532E+01
  0.8238096E+00  0.6761692E+05 -0.1564375E+01  0.3300332E+06 -0.8179669E-01  0.6090580E+05 -0.1564377E+01
  0.8547620E+00  0.7208291E+05 -0.1563047E+01  0.3231333E+06 -0.9282485E-01  0.6542084E+05 -0.1563050E+01
  0.8857143E+00  0.7660458E+05 -0.1561538E+01  0.3162412E+06 -0.1047335E+00  0.7003343E+05 -0.1561541E+01
  0.9166667E+00  0.8115284E+05 -0.1559834E+01  0.3093408E+06 -0.1175312E+00  0.7474348E+05 -0.1559837E+01
  0.9476191E+00  0.8571601E+05 -0.1557931E+01  0.3024397E+06 -0.1312219E+00  0.7952238E+05 -0.1557934E+01
  0.9785714E+00  0.9027500E+05 -0.1555828E+01  0.2955412E+06 -0.1458156E+00  0.8439008E+05 -0.1555831E+01
  0.1009524E+01  0.9481009E+05 -0.1553532E+01  0.2887031E+06 -0.1613473E+00  0.8931617E+05 -0.1553537E+01
  0.1040476E+01  0.9930902E+05 -0.1551053E+01  0.2819392E+06 -0.1778264E+00  0.9430590E+05 -0.1551061E+01
  0.1071429E+01  0.1037672E+06 -0.1548405E+01  0.2752684E+06 -0.1952602E+00  0.9934338E+05 -0.1548419E+01
  0.1102381E+01  0.1081515E+06 -0.1545609E+01  0.2686958E+06 -0.2136445E+00  0.1044007E+06 -0.1545628E+01
  0.1133333E+01  0.1124417E+06 -0.1542691E+01  0.2622129E+06 -0.2329446E+00  0.1094397E+06 -0.1542714E+01
  0.1164286E+01  0.1165990E+06 -0.1539681E+01  0.2558130E+06 -0.2531656E+00  0.1144158E+06 -0.1539704E+01
  0.1195238E+01  0.1205932E+06 -0.1536620E+01  0.2495015E+06 -0.2742976E+00  0.1192993E+06 -0.1536637E+01
  0.1226190E+01  0.1244098E+06 -0.1533569E+01  0.2432688E+06 -0.2963409E+00  0.1240911E+06 -0.1533577E+01
  0.1257143E+01  0.1280187E+06 -0.1530552E+01  0.2371426E+06 -0.3195790E+00  0.1287508E+06 -0.1530556E+01
  0.1288095E+01  0.1314200E+06 -0.1527763E+01  0.2311548E+06 -0.3432584E+00  0.1332988E+06 -0.1527762E+01
  0.1319048E+01  0.1345772E+06 -0.1525166E+01  0.2252886E+06 -0.3681299E+00  0.1376709E+06 -0.1525162E+01
  0.1350000E+01  0.1374796E+06 -0.1522881E+01  0.2195621E+06 -0.3939353E+00  0.1418373E+06 -0.1522873E+01
  0.1380952E+01  0.1401033E+06 -0.1520997E+01  0.2139627E+06 -0.4206207E+00  0.1457823E+06 -0.1520982E+01
  0.1411905E+01  0.1421985E+06 -0.1520179E+01  0.2096920E+06 -0.4417198E+00  0.1491522E+06 -0.1520157E+01
  0.1442857E+01  0.1442928E+06 -0.1519308E+01  0.2043546E+06 -0.4697804E+00  0.1526658E+06 -0.1519281E+01
  0.1473810E+01  0.1460767E+06 -0.1519108E+01  0.1991380E+06 -0.4987211E+00  0.1559077E+06 -0.1519075E+01
  0.1504762E+01  0.1475552E+06 -0.1519686E+01  0.1940297E+06 -0.5285134E+00  0.1588586E+06 -0.1519651E+01
  0.1535714E+01  0.1487204E+06 -0.1521147E+01  0.1890508E+06 -0.5591729E+00  0.1615149E+06 -0.1521106E+01
  0.1566667E+01  0.1495788E+06 -0.1523572E+01  0.1842031E+06 -0.5907257E+00  0.1638528E+06 -0.1523530E+01
  0.1597619E+01  0.1501244E+06 -0.1527054E+01  0.1794936E+06 -0.6231574E+00  0.1658830E+06 -0.1527006E+01
  0.1628572E+01  0.1503773E+06 -0.1531687E+01  0.1748998E+06 -0.6564330E+00  0.1675981E+06 -0.1531636E+01
  0.1659524E+01  0.1503479E+06 -0.1537558E+01  0.1704273E+06 -0.6905680E+00  0.1690095E+06 -0.1537506E+01
  0.1690476E+01  0.1500447E+06 -0.1544723E+01  0.1660796E+06 -0.7255630E+00  0.1701158E+06 -0.1544673E+01
  0.1721429E+01  0.1494870E+06 -0.1553250E+01  0.1618392E+06 -0.7613775E+00  0.1709241E+06 -0.1553201E+01
  0.1752381E+01  0.1486935E+06 -0.1563207E+01  0.1577302E+06 -0.7980466E+00  0.1714657E+06 -0.1563160E+01
  0.1783333E+01  0.1476842E+06 -0.1574642E+01  0.1537277E+06 -0.8355173E+00  0.1717527E+06 -0.1574592E+01
  0.1814286E+01  0.1464800E+06 -0.1587569E+01  0.1498307E+06 -0.8738309E+00  0.1717839E+06 -0.1587529E+01
  0.1845238E+01  0.1450887E+06 -0.1602017E+01  0.1460435E+06 -0.9128900E+00  0.1715803E+06 -0.1601980E+01
  0.1876190E+01  0.1435383E+06 -0.1618008E+01  0.1423394E+06 -0.9527336E+00  0.1711497E+06 -0.1617985E+01
  0.1907143E+01  0.1418438E+06 -0.1635571E+01  0.1387242E+06 -0.9933960E+00  0.1705191E+06 -0.1635557E+01
  0.1938095E+01  0.1400215E+06 -0.1654695E+01  0.1352026E+06 -0.1034859E+01  0.1696952E+06 -0.1654693E+01
  0.1969048E+01  0.1380943E+06 -0.1675375E+01  0.1317970E+06 -0.1077206E+01  0.1687001E+06 -0.1675409E+01
  0.2000000E+01  0.1360746E+06 -0.1697622E+01  0.1284744E+06 -0.1120343E+01  0.1675498E+06 -0.1697697E+01
