VARIABLES="w (rad/s)"
"abs(F   1   1)" "angle(F   1   1)"
"abs(F   1   2)" "angle(F   1   2)"
"abs(F   1   3)" "angle(F   1   3)"
Zone t="Diffraction force - beta =   0.000 deg",I=    64,F=POINT
  0.5000000E-01  0.3341291E+04 -0.1570767E+01  0.2374981E+06 -0.1613724E-04  0.7274833E+04  0.1570816E+01
  0.8095238E-01  0.5460754E+04 -0.1570765E+01  0.2368206E+06 -0.4336697E-04  0.1189298E+05  0.1570799E+01
  0.1119048E+00  0.7622410E+04 -0.1570781E+01  0.2358252E+06 -0.8597448E-04  0.1659527E+05  0.1570794E+01
  0.1428571E+00  0.9854114E+04 -0.1570778E+01  0.2345127E+06 -0.1471565E-03  0.2144970E+05  0.1570804E+01
  0.1738095E+00  0.1218177E+05 -0.1570781E+01  0.2328832E+06 -0.2315118E-03  0.2649112E+05  0.1570819E+01
  0.2047619E+00  0.1462646E+05 -0.1570776E+01  0.2309409E+06 -0.3460475E-03  0.3179470E+05  0.1570819E+01
  0.2357143E+00  0.1722574E+05 -0.1570773E+01  0.2286871E+06 -0.5007515E-03  0.3741909E+05  0.1570829E+01
  0.2666667E+00  0.2001423E+05 -0.1570755E+01  0.2261202E+06 -0.7073011E-03  0.4343599E+05  0.1570833E+01
  0.2976190E+00  0.2302624E+05 -0.1570737E+01  0.2232584E+06 -0.9870543E-03  0.4993857E+05  0.1570861E+01
  0.3285715E+00  0.2632596E+05 -0.1570704E+01  0.2200901E+06 -0.1359289E-02  0.5703121E+05  0.1570885E+01
  0.3595238E+00  0.2994524E+05 -0.1570660E+01  0.2166487E+06 -0.1857810E-02  0.6478473E+05  0.1570932E+01
  0.3904762E+00  0.3393239E+05 -0.1570590E+01  0.2129269E+06 -0.2516856E-02  0.7331678E+05  0.1571000E+01
  0.4214286E+00  0.3832527E+05 -0.1570491E+01  0.2089596E+06 -0.3358017E-02  0.8272379E+05  0.1571102E+01
  0.4523810E+00  0.4317544E+05 -0.1570348E+01  0.2047671E+06 -0.4449193E-02  0.9303646E+05  0.1571248E+01
  0.4833333E+00  0.4846994E+05 -0.1570144E+01  0.2003475E+06 -0.5744502E-02  0.1042565E+06  0.1571450E+01
  0.5142857E+00  0.5416643E+05 -0.1569862E+01  0.1957881E+06 -0.7330352E-02  0.1163410E+06  0.1571731E+01
  0.5452381E+00  0.6028927E+05 -0.1569485E+01  0.1910189E+06 -0.9169481E-02  0.1292950E+06  0.1572108E+01
  0.5761905E+00  0.6675823E+05 -0.1568994E+01  0.1861413E+06 -0.1126114E-01  0.1428503E+06  0.1572598E+01
  0.6071429E+00  0.7357737E+05 -0.1568358E+01  0.1811445E+06 -0.1368331E-01  0.1570904E+06  0.1573235E+01
  0.6380953E+00  0.8070744E+05 -0.1567561E+01  0.1759663E+06 -0.1634173E-01  0.1719610E+06  0.1574031E+01
  0.6690477E+00  0.8804115E+05 -0.1566569E+01  0.1707833E+06 -0.1931434E-01  0.1872358E+06  0.1575023E+01
  0.7000000E+00  0.9568412E+05 -0.1565345E+01  0.1655081E+06 -0.2264276E-01  0.2029886E+06  0.1576248E+01
  0.7309524E+00  0.1036324E+06 -0.1563862E+01  0.1601067E+06 -0.2627666E-01  0.2192394E+06  0.1577731E+01
  0.7619048E+00  0.1117166E+06 -0.1562075E+01  0.1547243E+06 -0.3025215E-01  0.2356338E+06  0.1579517E+01
  0.7928572E+00  0.1200300E+06 -0.1559942E+01  0.1493338E+06 -0.3460920E-01  0.2524939E+06  0.1581650E+01
  0.8238096E+00  0.1285200E+06 -0.1557422E+01  0.1438904E+06 -0.3934608E-01  0.2695979E+06  0.1584171E+01
  0.8547620E+00  0.1371980E+06 -0.1554472E+01  0.1383873E+06 -0.4447417E-01  0.2870452E+06  0.1587121E+01
  0.8857143E+00  0.1459977E+06 -0.1551047E+01  0.1330450E+06 -0.4996734E-01  0.3043832E+06  0.1590545E+01
  0.9166667E+00  0.1550028E+06 -0.1547094E+01  0.1276977E+06 -0.5589281E-01  0.3220266E+06  0.1594498E+01
  0.9476191E+00  0.1641088E+06 -0.1542566E+01  0.1223640E+06 -0.6225553E-01  0.3396428E+06  0.1599025E+01
  0.9785714E+00  0.1733299E+06 -0.1537413E+01  0.1170338E+06 -0.6908971E-01  0.3574123E+06  0.1604179E+01
  0.1009524E+01  0.1824708E+06 -0.1531589E+01  0.1118740E+06 -0.7626944E-01  0.3747649E+06  0.1610002E+01
  0.1040476E+01  0.1916972E+06 -0.1525046E+01  0.1068102E+06 -0.8394993E-01  0.3923212E+06  0.1616546E+01
  0.1071429E+01  0.2008398E+06 -0.1517767E+01  0.1018161E+06 -0.9211886E-01  0.4094075E+06  0.1623826E+01
  0.1102381E+01  0.2100646E+06 -0.1509738E+01  0.9688157E+05 -0.1008430E+00  0.4262828E+06  0.1631850E+01
  0.1133333E+01  0.2191960E+06 -0.1500908E+01  0.9200459E+05 -0.1101842E+00  0.4427933E+06  0.1640678E+01
  0.1164286E+01  0.2280460E+06 -0.1491270E+01  0.8736662E+05 -0.1197142E+00  0.4583133E+06  0.1650309E+01
  0.1195238E+01  0.2367650E+06 -0.1480783E+01  0.8285854E+05 -0.1298481E+00  0.4735300E+06  0.1660797E+01
  0.1226190E+01  0.2451590E+06 -0.1469473E+01  0.7846227E+05 -0.1405489E+00  0.4878038E+06  0.1672106E+01
  0.1257143E+01  0.2530802E+06 -0.1457370E+01  0.7417007E+05 -0.1520108E+00  0.5009400E+06  0.1684211E+01
  0.1288095E+01  0.2609400E+06 -0.1444464E+01  0.6997798E+05 -0.1641207E+00  0.5137494E+06  0.1697121E+01
  0.1319048E+01  0.2680274E+06 -0.1430856E+01  0.6590580E+05 -0.1770661E+00  0.5249580E+06  0.1710736E+01
  0.1350000E+01  0.2744600E+06 -0.1416697E+01  0.6211034E+05 -0.1897287E+00  0.5344224E+06  0.1724878E+01
  0.1380952E+01  0.2804753E+06 -0.1402032E+01  0.5844502E+05 -0.2032236E+00  0.5429789E+06  0.1739538E+01
  0.1411905E+01  0.2855340E+06 -0.1386956E+01  0.5491833E+05 -0.2174494E+00  0.5496222E+06  0.1754601E+01
  0.1442857E+01  0.2900617E+06 -0.1371672E+01  0.5150639E+05 -0.2325369E+00  0.5546879E+06  0.1769882E+01
  0.1473810E+01  0.2939018E+06 -0.1356245E+01  0.4822893E+05 -0.2485705E+00  0.5583023E+06  0.1785293E+01
  0.1504762E+01  0.2968292E+06 -0.1340799E+01  0.4507220E+05 -0.2657681E+00  0.5601769E+06  0.1800752E+01
  0.1535714E+01  0.2987684E+06 -0.1325602E+01  0.4209502E+05 -0.2829745E+00  0.5599085E+06  0.1815927E+01
  0.1566667E+01  0.2998279E+06 -0.1310901E+01  0.3930958E+05 -0.2999978E+00  0.5577482E+06  0.1830583E+01
  0.1597619E+01  0.3001807E+06 -0.1296714E+01  0.3666897E+05 -0.3178189E+00  0.5544032E+06  0.1844780E+01
  0.1628572E+01  0.2996278E+06 -0.1283377E+01  0.3415074E+05 -0.3365349E+00  0.5491440E+06  0.1858086E+01
  0.1659524E+01  0.2982395E+06 -0.1270993E+01  0.3174673E+05 -0.3564276E+00  0.5422311E+06  0.1870454E+01
  0.1690476E+01  0.2961548E+06 -0.1259638E+01  0.2947532E+05 -0.3773059E+00  0.5340862E+06  0.1881777E+01
  0.1721429E+01  0.2933836E+06 -0.1249407E+01  0.2732270E+05 -0.3995033E+00  0.5248473E+06  0.1892036E+01
  0.1752381E+01  0.2898352E+06 -0.1240686E+01  0.2527999E+05 -0.4232742E+00  0.5141431E+06  0.1900753E+01
  0.1783333E+01  0.2856321E+06 -0.1233635E+01  0.2338509E+05 -0.4453011E+00  0.5020966E+06  0.1907636E+01
  0.1814286E+01  0.2809633E+06 -0.1228037E+01  0.2161962E+05 -0.4677695E+00  0.4894271E+06  0.1913173E+01
  0.1845238E+01  0.2759057E+06 -0.1223907E+01  0.1996876E+05 -0.4907420E+00  0.4763678E+06  0.1917372E+01
  0.1876190E+01  0.2704052E+06 -0.1221597E+01  0.1841418E+05 -0.5150244E+00  0.4625215E+06  0.1919633E+01
  0.1907143E+01  0.2645734E+06 -0.1221112E+01  0.1694885E+05 -0.5408791E+00  0.4481427E+06  0.1920037E+01
  0.1938095E+01  0.2585681E+06 -0.1222319E+01  0.1558044E+05 -0.5676818E+00  0.4336594E+06  0.1918759E+01
  0.1969048E+01  0.2524425E+06 -0.1225192E+01  0.1430576E+05 -0.5954551E+00  0.4191930E+06  0.1915859E+01
  0.2000000E+01  0.2460914E+06 -0.1229827E+01  0.1311874E+05 -0.6245165E+00  0.4045607E+06  0.1911304E+01
