VARIABLES="w (rad/s)"
"A   1   1" "B   1   1"
"A   1   2" "B   1   2"
"A   1   3" "B   1   3"
Zone t="Motion of body    1 in DoF   1",I=    64,F=POINT
  0.5000000E-01  0.5194173E+05  0.3838337E-02 -0.3519058E-02 -0.1575835E-04  0.9044535E+03  0.8626993E-04
  0.8095238E-01  0.5215863E+05  0.1684045E-01 -0.1087357E-01 -0.5514915E-04  0.9007532E+03  0.3691815E-03
  0.1119048E+00  0.5232223E+05  0.4735363E-01  0.1113851E-01  0.5339680E-06  0.9069371E+03  0.1053001E-02
  0.1428571E+00  0.5251101E+05  0.1066777E+00  0.4138947E-02 -0.4151044E-04  0.9030460E+03  0.2368746E-02
  0.1738095E+00  0.5249073E+05  0.2123897E+00 -0.2491049E-02 -0.1105014E-03  0.9109114E+03  0.4737254E-02
  0.2047619E+00  0.5264141E+05  0.3921634E+00 -0.2980787E-02 -0.1177753E-03  0.9091097E+03  0.8768417E-02
  0.2357143E+00  0.5279211E+05  0.6912566E+00  0.3803137E-02 -0.6211165E-04  0.9216050E+03  0.1558715E-01
  0.2666667E+00  0.5281527E+05  0.1179751E+01  0.9927749E-02  0.1374811E-03  0.9205836E+03  0.2670527E-01
  0.2976190E+00  0.5298915E+05  0.1980879E+01 -0.3332520E-03 -0.1585782E-03  0.9266152E+03  0.4512778E-01
  0.3285715E+00  0.5322863E+05  0.3283056E+01 -0.5874633E-02 -0.3239345E-03  0.9405283E+03  0.7544929E-01
  0.3595238E+00  0.5330169E+05  0.5393477E+01 -0.1263701E-01 -0.6407341E-03  0.9496905E+03  0.1250833E+00
  0.3904762E+00  0.5347941E+05  0.8803040E+01 -0.4493899E-02 -0.4190803E-03  0.9540798E+03  0.2056108E+00
  0.4214286E+00  0.5382917E+05  0.1419186E+02  0.3693144E-02  0.4634261E-05  0.9827097E+03  0.3361461E+00
  0.4523810E+00  0.5408580E+05  0.2266703E+02 -0.5573875E-02 -0.8715354E-03  0.9905573E+03  0.5416535E+00
  0.4833333E+00  0.5418230E+05  0.3527544E+02 -0.4277722E-02 -0.5433932E-03  0.9881534E+03  0.8495058E+00
  0.5142857E+00  0.5456408E+05  0.5408304E+02  0.1602173E-02 -0.2903938E-03  0.1013848E+04  0.1320445E+01
  0.5452381E+00  0.5500612E+05  0.8098107E+02 -0.9431131E-02 -0.1633644E-02  0.1036775E+04  0.2002683E+01
  0.5761905E+00  0.5533086E+05  0.1183290E+03 -0.5256715E-02 -0.1443446E-02  0.1055242E+04  0.2965118E+01
  0.6071429E+00  0.5557440E+05  0.1696124E+03  0.8054845E-02 -0.9313226E-04  0.1055102E+04  0.4287342E+01
  0.6380953E+00  0.5599023E+05  0.2379560E+03 -0.2008694E-02 -0.1402318E-02  0.1075994E+04  0.6097237E+01
  0.6690477E+00  0.5655023E+05  0.3283639E+03 -0.4447312E-03 -0.8055568E-03  0.1112863E+04  0.8559650E+01
  0.7000000E+00  0.5712751E+05  0.4463496E+03  0.5711146E-02  0.6031990E-04  0.1143297E+04  0.1181461E+02
  0.7309524E+00  0.5758495E+05  0.5969155E+03 -0.5208366E-02 -0.1892924E-02  0.1154957E+04  0.1598990E+02
  0.7619048E+00  0.5799895E+05  0.7874568E+03  0.8411407E-03  0.7071495E-03  0.1172981E+04  0.2139760E+02
  0.7928572E+00  0.5859452E+05  0.1026878E+04 -0.2482646E-02 -0.1453638E-02  0.1204576E+04  0.2835221E+02
  0.8238096E+00  0.5929385E+05  0.1324287E+04 -0.6380908E-02 -0.4044771E-02  0.1237611E+04  0.3714048E+02
  0.8547620E+00  0.6000706E+05  0.1689532E+04  0.3213271E-03 -0.2820492E-02  0.1277646E+04  0.4822382E+02
  0.8857143E+00  0.6074043E+05  0.2134275E+04 -0.6494830E-02 -0.3685474E-02  0.1323847E+04  0.6209612E+02
  0.9166667E+00  0.6141116E+05  0.2669771E+04  0.3961736E-02 -0.3271103E-02  0.1352010E+04  0.7890705E+02
  0.9476191E+00  0.6201661E+05  0.3308526E+04  0.1819553E-02  0.7805824E-03  0.1374014E+04  0.9921622E+02
  0.9785714E+00  0.6268870E+05  0.4065071E+04 -0.2557239E-02  0.1367569E-02  0.1410096E+04  0.1239784E+03
  0.1009524E+01  0.6343184E+05  0.4953676E+04 -0.1017229E-01 -0.6656647E-02  0.1456935E+04  0.1538875E+03
  0.1040476E+01  0.6423389E+05  0.5989680E+04 -0.5572775E-02 -0.6236076E-02  0.1509274E+04  0.1897757E+03
  0.1071429E+01  0.6501595E+05  0.7186786E+04  0.9100342E-02  0.2005577E-02  0.1558090E+04  0.2319831E+03
  0.1102381E+01  0.6574659E+05  0.8559223E+04  0.1301117E-02 -0.1888275E-03  0.1604302E+04  0.2814048E+03
  0.1133333E+01  0.6636662E+05  0.1011868E+05 -0.3002391E-02 -0.1178551E-01  0.1646175E+04  0.3390281E+03
  0.1164286E+01  0.6687537E+05  0.1187528E+05  0.4521469E-02 -0.6275177E-03  0.1682553E+04  0.4055495E+03
  0.1195238E+01  0.6729862E+05  0.1383724E+05 -0.2080910E-02 -0.9571075E-02  0.1721021E+04  0.4818305E+03
  0.1226190E+01  0.6767602E+05  0.1600562E+05 -0.3957212E-02 -0.7101059E-02  0.1756469E+04  0.5677686E+03
  0.1257143E+01  0.6792345E+05  0.1838772E+05 -0.1517209E-02 -0.1194763E-01  0.1785937E+04  0.6636484E+03
  0.1288095E+01  0.6815402E+05  0.2095896E+05  0.3790723E-03 -0.1337433E-01  0.1821474E+04  0.7711039E+03
  0.1319048E+01  0.6818441E+05  0.2373313E+05 -0.9023067E-03 -0.8190155E-02  0.1852113E+04  0.8911586E+03
  0.1350000E+01  0.6807634E+05  0.2669216E+05  0.5267108E-02  0.1144409E-02  0.1879970E+04  0.1023480E+04
  0.1380952E+01  0.6781741E+05  0.2981525E+05  0.7149006E-02  0.6713867E-03  0.1904320E+04  0.1167116E+04
  0.1411905E+01  0.6711278E+05  0.3289718E+05 -0.3782533E-03 -0.5847931E-02  0.1883045E+04  0.1308772E+04
  0.1442857E+01  0.6651373E+05  0.3623210E+05 -0.4748354E-02 -0.9479523E-02  0.1884361E+04  0.1468474E+04
  0.1473810E+01  0.6576170E+05  0.3963755E+05  0.1594408E-02 -0.1342773E-01  0.1880168E+04  0.1637533E+04
  0.1504762E+01  0.6482864E+05  0.4308094E+05 -0.2626347E-02 -0.1564026E-02  0.1870457E+04  0.1816707E+04
  0.1535714E+01  0.6373535E+05  0.4652482E+05  0.2702580E-02  0.2822876E-03  0.1855704E+04  0.2003285E+04
  0.1566667E+01  0.6251249E+05  0.4992616E+05  0.5619779E-02  0.5065918E-02  0.1836452E+04  0.2195949E+04
  0.1597619E+01  0.6116034E+05  0.5324548E+05 -0.9359937E-03  0.4524231E-02  0.1809136E+04  0.2391067E+04
  0.1628572E+01  0.5969789E+05  0.5645200E+05  0.4394263E-02 -0.9979248E-02  0.1771094E+04  0.2585724E+04
  0.1659524E+01  0.5812062E+05  0.5951580E+05  0.4643313E-02 -0.1106262E-02  0.1724297E+04  0.2781022E+04
  0.1690476E+01  0.5646496E+05  0.6241327E+05  0.2852319E-02 -0.7171631E-02  0.1671501E+04  0.2974949E+04
  0.1721429E+01  0.5475014E+05  0.6512122E+05  0.1471429E-02  0.6515503E-02  0.1615738E+04  0.3167694E+04
  0.1752381E+01  0.5298361E+05  0.6762089E+05 -0.5398626E-03  0.1731873E-02  0.1557216E+04  0.3358056E+04
  0.1783333E+01  0.5120011E+05  0.6990243E+05 -0.6246121E-03  0.9597778E-02  0.1492609E+04  0.3543484E+04
  0.1814286E+01  0.4941282E+05  0.7195475E+05  0.3507119E-02 -0.5661011E-02  0.1425416E+04  0.3725133E+04
  0.1845238E+01  0.4764591E+05  0.7377776E+05 -0.1389239E-02 -0.9918213E-03  0.1355168E+04  0.3900727E+04
  0.1876190E+01  0.4590928E+05  0.7537222E+05 -0.4310414E-03 -0.5950928E-02  0.1279828E+04  0.4065896E+04
  0.1907143E+01  0.4420000E+05  0.7674182E+05 -0.2728295E-02  0.1174927E-01  0.1203595E+04  0.4221963E+04
  0.1938095E+01  0.4253380E+05  0.7789925E+05  0.2133606E-02  0.4508972E-02  0.1125186E+04  0.4366886E+04
  0.1969048E+01  0.4092726E+05  0.7885349E+05  0.2115566E-02 -0.4821777E-02  0.1048660E+04  0.4506875E+04
  0.2000000E+01  0.3936172E+05  0.7961405E+05  0.1502991E-02  0.3875732E-02  0.9711205E+03  0.4643271E+04
Zone t="Motion of body    1 in DoF   2",I=    64,F=POINT
  0.5000000E-01 -0.1084328E-01 -0.1507998E-04  0.8986723E+05  0.2268439E+03  0.3337860E-02  0.9775162E-05
  0.8095238E-01  0.4523782E-02  0.5590916E-04  0.8890041E+05  0.3761960E+03  0.1672857E-02  0.1800060E-04
  0.1119048E+00  0.1036299E-01  0.6711483E-04  0.8834583E+05  0.5388725E+03  0.3306612E-02  0.3540516E-04
  0.1428571E+00  0.2696991E-02 -0.7319450E-04  0.8806685E+05  0.7210661E+03  0.3097534E-02  0.4434586E-04
  0.1738095E+00  0.8658318E-02 -0.5042553E-04  0.8798809E+05  0.9306403E+03  0.2589814E-02  0.4053116E-04
  0.2047619E+00  0.4294196E-02  0.1766682E-03  0.8811259E+05  0.1177362E+04  0.4452550E-02  0.5865097E-04
  0.2357143E+00  0.4935987E-02 -0.5125999E-05  0.8832099E+05  0.1474998E+04  0.2799756E-02  0.3600121E-04
  0.2666667E+00 -0.6337165E-02 -0.1311302E-03  0.8866186E+05  0.1835319E+04  0.3976822E-02  0.5912781E-04
  0.2976190E+00  0.1538086E-03 -0.1907349E-05  0.8907205E+05  0.2284127E+04  0.3178711E-02  0.1544952E-03
  0.3285715E+00 -0.4376950E-02 -0.4715919E-03  0.8953297E+05  0.2835669E+04  0.2856047E-02  0.2131462E-03
  0.3595238E+00 -0.8562605E-02 -0.1130104E-03  0.8996298E+05  0.3520809E+04  0.3522658E-02  0.2088547E-03
  0.3904762E+00  0.6770157E-02 -0.4577637E-03  0.9042237E+05  0.4363749E+04  0.1660789E-02  0.3614426E-03
  0.4214286E+00 -0.5883685E-03  0.1564026E-03  0.9061230E+05  0.5356280E+04  0.2244852E-02  0.3137589E-03
  0.4523810E+00  0.1450388E-02 -0.6198883E-04  0.9073227E+05  0.6549172E+04  0.2782721E-02  0.4901886E-03
  0.4833333E+00  0.1483786E-02 -0.4081726E-03  0.9056166E+05  0.7845982E+04  0.3693679E-02  0.3852844E-03
  0.5142857E+00 -0.5726285E-02  0.1466751E-02  0.9018672E+05  0.9307595E+04  0.4094442E-02  0.4787445E-03
  0.5452381E+00  0.1224368E-01 -0.6885529E-03  0.8960090E+05  0.1085671E+05  0.2462729E-02  0.6370544E-03
  0.5761905E+00  0.1377074E-02  0.1850128E-03  0.8881453E+05  0.1246537E+05  0.3469167E-02  0.9288788E-03
  0.6071429E+00  0.2890194E-02 -0.1335144E-02  0.8786266E+05  0.1417033E+05  0.4498649E-02  0.1211166E-02
  0.6380953E+00 -0.6097822E-03 -0.1352310E-02  0.8683678E+05  0.1587451E+05  0.3276085E-02  0.1037598E-02
  0.6690477E+00 -0.3911354E-02 -0.2180099E-02  0.8567764E+05  0.1761704E+05  0.4492926E-02  0.8430481E-03
  0.7000000E+00  0.3302438E-02 -0.1598358E-02  0.8438495E+05  0.1940164E+05  0.2310616E-02  0.1926422E-02
  0.7309524E+00  0.1101168E-01  0.7534027E-03  0.8304373E+05  0.2117498E+05  0.3486161E-02  0.9498596E-03
  0.7619048E+00 -0.5197048E-02  0.1075745E-02  0.8163375E+05  0.2294699E+05  0.3504753E-02  0.1201630E-02
  0.7928572E+00  0.2453778E-02  0.4997253E-02  0.8016579E+05  0.2470968E+05  0.4272460E-02  0.1373291E-02
  0.8238096E+00 -0.4612035E-02  0.1636505E-02  0.7863640E+05  0.2645008E+05  0.3259912E-02  0.1541138E-02
  0.8547620E+00  0.2597394E-02 -0.2952576E-02  0.7706061E+05  0.2815381E+05  0.3498895E-02  0.2246857E-02
  0.8857143E+00 -0.1541876E-02  0.7133484E-03  0.7546657E+05  0.2980825E+05  0.2963158E-02  0.2204895E-02
  0.9166667E+00  0.3079501E-02  0.1514435E-02  0.7386454E+05  0.3140215E+05  0.2896396E-02  0.2296448E-02
  0.9476191E+00  0.4878978E-02 -0.3387451E-02  0.7223403E+05  0.3293197E+05  0.2656869E-02  0.1998901E-02
  0.9785714E+00 -0.1068895E-01 -0.7877350E-02  0.7059496E+05  0.3438939E+05  0.2105045E-02  0.2754211E-02
  0.1009524E+01  0.1097337E-01  0.1457214E-02  0.6896800E+05  0.3576817E+05  0.2554408E-02  0.3479004E-02
  0.1040476E+01  0.1774489E-02 -0.7415771E-02  0.6736723E+05  0.3705696E+05  0.1143885E-02  0.3021240E-02
  0.1071429E+01  0.7476807E-02 -0.4730225E-03  0.6577801E+05  0.3825658E+05  0.1922608E-02  0.3257751E-02
  0.1102381E+01 -0.2283875E-03  0.4425049E-03  0.6421407E+05  0.3935884E+05  0.1411850E-02  0.3044128E-02
  0.1133333E+01  0.6974164E-02 -0.1144409E-04  0.6266578E+05  0.4036739E+05  0.1750273E-02  0.3791809E-02
  0.1164286E+01 -0.1644766E-02  0.1876831E-02  0.6117237E+05  0.4127234E+05  0.2568719E-02  0.3967285E-02
  0.1195238E+01 -0.6255495E-02 -0.1029587E-01  0.5972907E+05  0.4206975E+05  0.1123436E-02  0.3059387E-02
  0.1226190E+01 -0.2115490E-03 -0.3025055E-02  0.5833764E+05  0.4276530E+05  0.2999019E-02  0.4745483E-02
  0.1257143E+01 -0.7221915E-03  0.4196167E-04  0.5700052E+05  0.4339064E+05  0.1383695E-02  0.3364563E-02
  0.1288095E+01  0.6242847E-02 -0.1167297E-02  0.5569038E+05  0.4386454E+05  0.6633766E-03  0.4371643E-02
  0.1319048E+01  0.8097624E-04  0.1949310E-02  0.5443367E+05  0.4427302E+05  0.1781477E-02  0.3547668E-02
  0.1350000E+01 -0.3955982E-03  0.1407623E-02  0.5324300E+05  0.4458323E+05  0.1480668E-02  0.3814697E-02
  0.1380952E+01  0.4845192E-02  0.3665924E-02  0.5211884E+05  0.4478480E+05  0.8839574E-03  0.4104614E-02
  0.1411905E+01 -0.2334363E-02  0.1640320E-02  0.5104948E+05  0.4496286E+05  0.8213500E-03  0.4936218E-02
  0.1442857E+01  0.7672451E-02 -0.1705170E-02  0.5003539E+05  0.4499904E+05  0.9623612E-03  0.4112244E-02
  0.1473810E+01  0.1811827E-02 -0.1247406E-02  0.4907550E+05  0.4495231E+05  0.1294162E-02  0.4882812E-02
  0.1504762E+01  0.1723857E-03  0.4138947E-02  0.4815916E+05  0.4483322E+05  0.1014033E-02  0.5134583E-02
  0.1535714E+01  0.6031125E-02  0.6027222E-03  0.4730665E+05  0.4463368E+05  0.1222122E-02  0.5439758E-02
  0.1566667E+01  0.5697696E-02 -0.3704071E-02  0.4651793E+05  0.4436430E+05  0.4869826E-04  0.4920959E-02
  0.1597619E+01  0.4269277E-02  0.6919861E-02  0.4578777E+05  0.4402165E+05  0.4966497E-03  0.6164551E-02
  0.1628572E+01  0.7120768E-03  0.9624481E-02  0.4510627E+05  0.4361964E+05 -0.4778410E-03  0.5714417E-02
  0.1659524E+01 -0.1415981E-02  0.4562378E-02  0.4447602E+05  0.4315674E+05  0.4965127E-03  0.5470276E-02
  0.1690476E+01 -0.1967739E-02 -0.5569458E-03  0.4389500E+05  0.4264011E+05 -0.5415795E-04  0.5790710E-02
  0.1721429E+01 -0.1373924E-02 -0.5645752E-03  0.4335477E+05  0.4207630E+05  0.8864027E-04  0.4821777E-02
  0.1752381E+01  0.6565426E-02  0.5741119E-02  0.4285825E+05  0.4146447E+05  0.1393194E-03  0.4764557E-02
  0.1783333E+01  0.4937003E-02  0.4680634E-02  0.4241718E+05  0.4081691E+05 -0.5476052E-03  0.5199432E-02
  0.1814286E+01 -0.1581147E-02 -0.5311966E-02  0.4202361E+05  0.4013241E+05 -0.5214421E-03  0.4058838E-02
  0.1845238E+01  0.3803869E-03  0.5994797E-02  0.4167043E+05  0.3940603E+05 -0.9923135E-04  0.4322052E-02
  0.1876190E+01  0.1691634E-02 -0.7247925E-04  0.4135047E+05  0.3865562E+05 -0.3903772E-03  0.5317688E-02
  0.1907143E+01  0.3440371E-03  0.1415253E-02  0.4106715E+05  0.3787354E+05 -0.1440155E-03  0.4425049E-02
  0.1938095E+01  0.1417155E-03  0.7139206E-02  0.4082051E+05  0.3706814E+05 -0.7873086E-03  0.5203247E-02
  0.1969048E+01 -0.2045822E-02  0.5237579E-02  0.4060538E+05  0.3624533E+05 -0.1177897E-02  0.4859924E-02
  0.2000000E+01  0.9765625E-03 -0.7293701E-02  0.4041045E+05  0.3541258E+05 -0.6713867E-03  0.3890991E-02
Zone t="Motion of body    1 in DoF   3",I=    64,F=POINT
  0.5000000E-01  0.9242812E+03  0.8955195E-04  0.3249645E-02  0.1203665E-04  0.1630329E+04  0.2753224E-05
  0.8095238E-01  0.9197220E+03  0.3853822E-03  0.4626863E-02  0.2638055E-04  0.1636191E+04  0.6928839E-05
  0.1119048E+00  0.9277331E+03  0.1089100E-02  0.4229140E-02  0.3674802E-04  0.1649533E+04  0.2751799E-04
  0.1428571E+00  0.9204839E+03  0.2456035E-02  0.5227088E-02  0.5510619E-04  0.1647326E+04  0.5455735E-04
  0.1738095E+00  0.9318463E+03  0.4903425E-02  0.3448512E-02  0.5805025E-04  0.1660581E+04  0.1059047E-03
  0.2047619E+00  0.9275610E+03  0.9099435E-02  0.3609546E-02  0.7970579E-04  0.1653236E+04  0.2173907E-03
  0.2357143E+00  0.9406582E+03  0.1613705E-01  0.2579255E-02  0.7666566E-04  0.1650782E+04  0.3717083E-03
  0.2666667E+00  0.9403955E+03  0.2769377E-01  0.1707673E-02  0.5908923E-04  0.1656387E+04  0.6323235E-03
  0.2976190E+00  0.9446488E+03  0.4679960E-01  0.5296784E-02  0.1836524E-03  0.1648427E+04  0.1068409E-02
  0.3285715E+00  0.9597816E+03  0.7815686E-01  0.3567156E-02  0.1678507E-03  0.1654443E+04  0.1770690E-02
  0.3595238E+00  0.9704027E+03  0.1294298E+00  0.1132662E-02  0.1171858E-03  0.1653627E+04  0.2972318E-02
  0.3904762E+00  0.9747082E+03  0.2131834E+00  0.2850207E-02  0.2425879E-03  0.1657571E+04  0.4972592E-02
  0.4214286E+00  0.1004754E+04  0.3468395E+00  0.4233990E-02  0.3816074E-03  0.1658098E+04  0.8201174E-02
  0.4523810E+00  0.1012394E+04  0.5595185E+00  0.4064459E-02  0.4514315E-03  0.1658406E+04  0.1331640E-01
  0.4833333E+00  0.1009443E+04  0.8803822E+00  0.4867685E-02  0.6325073E-03  0.1660390E+04  0.2116156E-01
  0.5142857E+00  0.1035220E+04  0.1363902E+01  0.1763503E-02  0.3570770E-03  0.1654920E+04  0.3329878E-01
  0.5452381E+00  0.1059456E+04  0.2065808E+01  0.4215324E-02  0.7316824E-03  0.1664226E+04  0.5105922E-01
  0.5761905E+00  0.1078373E+04  0.3055867E+01  0.4291771E-02  0.9970665E-03  0.1661151E+04  0.7651690E-01
  0.6071429E+00  0.1077200E+04  0.4437658E+01  0.1495361E-02  0.5989792E-03  0.1659214E+04  0.1122471E+00
  0.6380953E+00  0.1099038E+04  0.6307795E+01  0.5981246E-02  0.1640640E-02  0.1665723E+04  0.1617843E+00
  0.6690477E+00  0.1136350E+04  0.8818082E+01  0.2540099E-02  0.9000003E-03  0.1663498E+04  0.2300033E+00
  0.7000000E+00  0.1167987E+04  0.1215765E+02  0.5032675E-02  0.1658976E-02  0.1666572E+04  0.3218970E+00
  0.7309524E+00  0.1179594E+04  0.1650976E+02  0.4075886E-02  0.1589835E-02  0.1670386E+04  0.4424713E+00
  0.7619048E+00  0.1197712E+04  0.2211612E+02  0.1261711E-02  0.1001563E-02  0.1667698E+04  0.6014916E+00
  0.7928572E+00  0.1229545E+04  0.2927299E+02  0.7803976E-02  0.3931530E-02  0.1666227E+04  0.8072337E+00
  0.8238096E+00  0.1263713E+04  0.3834951E+02  0.1023122E-01  0.5029947E-02  0.1673223E+04  0.1075030E+01
  0.8547620E+00  0.1304471E+04  0.4969582E+02  0.4864536E-02  0.3037095E-02  0.1678876E+04  0.1420233E+01
  0.8857143E+00  0.1351521E+04  0.6380054E+02  0.3542439E-02  0.2929077E-02  0.1677875E+04  0.1856354E+01
  0.9166667E+00  0.1379258E+04  0.8123083E+02  0.6943442E-02  0.4471749E-02  0.1675101E+04  0.2401553E+01
  0.9476191E+00  0.1403609E+04  0.1025651E+03  0.2463643E-02  0.2332434E-02  0.1681624E+04  0.3077286E+01
  0.9785714E+00  0.1440501E+04  0.1281891E+03  0.4533642E-02  0.3914863E-02  0.1685795E+04  0.3903991E+01
  0.1009524E+01  0.1487902E+04  0.1587925E+03  0.2197320E-02  0.3091067E-02  0.1686574E+04  0.4932130E+01
  0.1040476E+01  0.1538809E+04  0.1952808E+03  0.1845982E-02  0.1961589E-02  0.1683677E+04  0.6167750E+01
  0.1071429E+01  0.1589114E+04  0.2386110E+03  0.2846527E-02  0.3458679E-02  0.1688888E+04  0.7702436E+01
  0.1102381E+01  0.1637773E+04  0.2895432E+03  0.3024404E-02  0.3861070E-02  0.1698743E+04  0.9533981E+01
  0.1133333E+01  0.1680113E+04  0.3489192E+03  0.4320145E-02  0.5014539E-02  0.1702177E+04  0.1171345E+02
  0.1164286E+01  0.1716369E+04  0.4177556E+03  0.1651319E-02  0.3037155E-02  0.1702106E+04  0.1431654E+02
  0.1195238E+01  0.1754985E+04  0.4963298E+03  0.1356421E-02  0.3547311E-02  0.1699530E+04  0.1726894E+02
  0.1226190E+01  0.1791387E+04  0.5854899E+03  0.1490176E-02  0.4643559E-02  0.1700339E+04  0.2067438E+02
  0.1257143E+01  0.1825799E+04  0.6864152E+03  0.3198277E-02  0.5804896E-02  0.1707968E+04  0.2473455E+02
  0.1288095E+01  0.1861376E+04  0.7973185E+03  0.2890426E-02  0.7765174E-02  0.1714813E+04  0.2934334E+02
  0.1319048E+01  0.1890775E+04  0.9206154E+03  0.1353460E-02  0.4631162E-02  0.1719019E+04  0.3463548E+02
  0.1350000E+01  0.1918215E+04  0.1056357E+04  0.3207171E-02  0.6624699E-02  0.1719390E+04  0.4060780E+02
  0.1380952E+01  0.1942299E+04  0.1202959E+04  0.2508229E-02  0.6682396E-02  0.1718602E+04  0.4686575E+02
  0.1411905E+01  0.1843957E+04  0.1309375E+04  0.3512352E-03  0.2478361E-02  0.1707808E+04  0.5167315E+02
  0.1442857E+01  0.1848728E+04  0.1473389E+04  0.2249916E-02  0.8124590E-02  0.1712923E+04  0.5936730E+02
  0.1473810E+01  0.1844193E+04  0.1645090E+04  0.1871358E-02  0.7853270E-02  0.1720527E+04  0.6839805E+02
  0.1504762E+01  0.1832798E+04  0.1825541E+04  0.2370303E-02  0.1020551E-01  0.1722717E+04  0.7766317E+02
  0.1535714E+01  0.1816215E+04  0.2011289E+04 -0.2856587E-03  0.3130436E-03  0.1724890E+04  0.8715852E+02
  0.1566667E+01  0.1795419E+04  0.2202583E+04  0.1205282E-02  0.6759167E-02  0.1719914E+04  0.9688072E+02
  0.1597619E+01  0.1765939E+04  0.2395718E+04  0.1284604E-02  0.8435249E-02  0.1715874E+04  0.1061339E+03
  0.1628572E+01  0.1728077E+04  0.2592931E+04 -0.6277519E-03  0.2181053E-02  0.1714877E+04  0.1170892E+03
  0.1659524E+01  0.1683258E+04  0.2794174E+04  0.3126191E-03  0.4692078E-02  0.1718160E+04  0.1292635E+03
  0.1690476E+01  0.1630196E+04  0.2991708E+04  0.1286251E-02  0.1825333E-02  0.1725985E+04  0.1431711E+03
  0.1721429E+01  0.1573755E+04  0.3186204E+04  0.5362736E-03  0.4096508E-02  0.1729154E+04  0.1571083E+03
  0.1752381E+01  0.1514600E+04  0.3373643E+04  0.6748283E-04  0.4580021E-02  0.1731299E+04  0.1701977E+03
  0.1783333E+01  0.1449504E+04  0.3557229E+04 -0.5497442E-03  0.5185127E-02  0.1729216E+04  0.1826013E+03
  0.1814286E+01  0.1380808E+04  0.3737141E+04  0.1042884E-02  0.4365444E-02  0.1719964E+04  0.1918738E+03
  0.1845238E+01  0.1306772E+04  0.3908421E+04  0.3783195E-03  0.3430367E-02  0.1711902E+04  0.2020599E+03
  0.1876190E+01  0.1229078E+04  0.4076012E+04  0.5916654E-03  0.7120132E-02  0.1707969E+04  0.2133105E+03
  0.1907143E+01  0.1152908E+04  0.4238624E+04  0.8820952E-03  0.7952690E-02  0.1707875E+04  0.2277184E+03
  0.1938095E+01  0.1073970E+04  0.4393052E+04  0.5845766E-03  0.5178928E-02  0.1711871E+04  0.2450460E+03
  0.1969048E+01  0.9945659E+03  0.4534399E+04 -0.7342485E-03  0.5956650E-02  0.1716219E+04  0.2644332E+03
  0.2000000E+01  0.9147307E+03  0.4668654E+04 -0.1110077E-02  0.8686543E-02  0.1714616E+04  0.2794235E+03
