VARIABLES="w (rad/s)"
"A   1   1" "B   1   1"
"A   1   2" "B   1   2"
"A   1   3" "B   1   3"
Zone t="Motion of body    1 in DoF   1",I=    64,F=POINT
  0.5000000E-01  0.4067938E+05  0.1310277E-02 -0.1077652E-02 -0.3027852E-05 -0.1150413E+06 -0.3778322E-02
  0.8095238E-01  0.4112167E+05  0.5561765E-02 -0.1790664E-02 -0.8971003E-05 -0.1160730E+06 -0.1608908E-01
  0.1119048E+00  0.4118361E+05  0.1558480E-01 -0.2198727E-02 -0.1428868E-04 -0.1162278E+06 -0.4486827E-01
  0.1428571E+00  0.4129812E+05  0.3478786E-01 -0.1682281E-02 -0.1335211E-04 -0.1163939E+06 -0.9994061E-01
  0.1738095E+00  0.4133154E+05  0.6919837E-01 -0.1091892E-02 -0.2667948E-06 -0.1164613E+06 -0.1987014E+00
  0.2047619E+00  0.4135641E+05  0.1279542E+00 -0.1304094E-02 -0.8763513E-05 -0.1165076E+06 -0.3672692E+00
  0.2357143E+00  0.4143001E+05  0.2247414E+00 -0.2022945E-03 -0.1655775E-05 -0.1166319E+06 -0.6441303E+00
  0.2666667E+00  0.4142483E+05  0.3816655E+00 -0.1995564E-02 -0.5032634E-04 -0.1166359E+06 -0.1092368E+01
  0.2976190E+00  0.4148198E+05  0.6379980E+00 -0.6857300E-03 -0.2189539E-04 -0.1167445E+06 -0.1823235E+01
  0.3285715E+00  0.4151961E+05  0.1051303E+01 -0.1729882E-02 -0.5964609E-04 -0.1168246E+06 -0.2998969E+01
  0.3595238E+00  0.4160656E+05  0.1719397E+01 -0.3554489E-03 -0.9877607E-05 -0.1169903E+06 -0.4894130E+01
  0.3904762E+00  0.4163264E+05  0.2788120E+01 -0.6740849E-03 -0.4342571E-04 -0.1170338E+06 -0.7919146E+01
  0.4214286E+00  0.4173830E+05  0.4464425E+01 -0.7241459E-03 -0.4915521E-04 -0.1172175E+06 -0.1264635E+02
  0.4523810E+00  0.4178889E+05  0.7080983E+01 -0.1931040E-02 -0.1033302E-03 -0.1173680E+06 -0.2001502E+02
  0.4833333E+00  0.4188030E+05  0.1095214E+02 -0.7497853E-03 -0.6518140E-04 -0.1175170E+06 -0.3086438E+02
  0.5142857E+00  0.4197984E+05  0.1666195E+02 -0.9716882E-03 -0.1395717E-03 -0.1177031E+06 -0.4681519E+02
  0.5452381E+00  0.4207477E+05  0.2473206E+02 -0.1833054E-02 -0.6987154E-04 -0.1179278E+06 -0.6928403E+02
  0.5761905E+00  0.4222987E+05  0.3585649E+02 -0.2449603E-03 -0.8861721E-04 -0.1182624E+06 -0.1001074E+03
  0.6071429E+00  0.4232723E+05  0.5098928E+02 -0.1570757E-03  0.2756715E-04 -0.1184559E+06 -0.1418713E+03
  0.6380953E+00  0.4246041E+05  0.7091355E+02 -0.1363043E-02 -0.1968741E-03 -0.1187212E+06 -0.1965645E+03
  0.6690477E+00  0.4264698E+05  0.9696146E+02 -0.1197353E-03  0.1537800E-03 -0.1190960E+06 -0.2676709E+03
  0.7000000E+00  0.4277630E+05  0.1304681E+03  0.4904611E-04  0.8779764E-04 -0.1193865E+06 -0.3587689E+03
  0.7309524E+00  0.4293943E+05  0.1728573E+03 -0.3705351E-03  0.3087521E-04 -0.1197606E+06 -0.4733788E+03
  0.7619048E+00  0.4316412E+05  0.2261156E+03 -0.4506111E-03  0.2271533E-03 -0.1201807E+06 -0.6162356E+03
  0.7928572E+00  0.4333472E+05  0.2919600E+03 -0.7024541E-03 -0.3460646E-03 -0.1205221E+06 -0.7919431E+03
  0.8238096E+00  0.4353590E+05  0.3727992E+03 -0.8057170E-03 -0.1506805E-03 -0.1209559E+06 -0.1006365E+04
  0.8547620E+00  0.4373560E+05  0.4708666E+03 -0.1124645E-02 -0.5488396E-03 -0.1213458E+06 -0.1264516E+04
  0.8857143E+00  0.4399980E+05  0.5892727E+03  0.2239597E-03  0.2436638E-03 -0.1218801E+06 -0.1573909E+04
  0.9166667E+00  0.4420651E+05  0.7300135E+03  0.3162731E-03  0.4842281E-03 -0.1223077E+06 -0.1939294E+04
  0.9476191E+00  0.4443999E+05  0.8967283E+03 -0.2817892E-03 -0.6055832E-04 -0.1227776E+06 -0.2368605E+04
  0.9785714E+00  0.4467189E+05  0.1092434E+04 -0.4443983E-03 -0.1697540E-03 -0.1231912E+06 -0.2867826E+04
  0.1009524E+01  0.4496291E+05  0.1321510E+04  0.2720671E-03  0.4634857E-03 -0.1237019E+06 -0.3446439E+04
  0.1040476E+01  0.4522936E+05  0.1586487E+04 -0.8872445E-03  0.2331734E-03 -0.1242172E+06 -0.4111094E+04
  0.1071429E+01  0.4545204E+05  0.1890281E+04 -0.3702800E-03  0.1244545E-03 -0.1245924E+06 -0.4865505E+04
  0.1102381E+01  0.4572919E+05  0.2239210E+04  0.2906750E-03  0.5841255E-03 -0.1251328E+06 -0.5725227E+04
  0.1133333E+01  0.4596739E+05  0.2634489E+04 -0.3433228E-03  0.9565353E-03 -0.1255308E+06 -0.6688066E+04
  0.1164286E+01  0.4625702E+05  0.3082614E+04  0.2817727E-03  0.9679794E-03 -0.1259816E+06 -0.7765864E+04
  0.1195238E+01  0.4651983E+05  0.3585297E+04 -0.8936422E-03 -0.4329681E-03 -0.1264069E+06 -0.8963704E+04
  0.1226190E+01  0.4672766E+05  0.4143896E+04 -0.9395267E-03 -0.3976822E-03 -0.1266479E+06 -0.1027664E+05
  0.1257143E+01  0.4691721E+05  0.4762734E+04 -0.8557059E-03 -0.5617142E-03 -0.1268964E+06 -0.1171807E+05
  0.1288095E+01  0.4716370E+05  0.5454810E+04 -0.8706817E-03 -0.1821518E-03 -0.1271988E+06 -0.1330631E+05
  0.1319048E+01  0.4736122E+05  0.6211701E+04 -0.1214644E-03 -0.3919601E-03 -0.1273755E+06 -0.1501959E+05
  0.1350000E+01  0.4758554E+05  0.7044040E+04  0.5255805E-03  0.3070831E-03 -0.1275748E+06 -0.1687617E+05
  0.1380952E+01  0.4774918E+05  0.7947991E+04 -0.5690476E-03 -0.2708435E-03 -0.1277025E+06 -0.1887263E+05
  0.1411905E+01  0.4776467E+05  0.8909717E+04 -0.8051391E-03 -0.1296997E-03 -0.1275721E+06 -0.2097503E+05
  0.1442857E+01  0.4784880E+05  0.9957285E+04 -0.4230159E-04 -0.1850128E-03 -0.1274870E+06 -0.2322097E+05
  0.1473810E+01  0.4792143E+05  0.1107961E+05 -0.2795390E-03 -0.2994537E-03 -0.1273512E+06 -0.2558655E+05
  0.1504762E+01  0.4791201E+05  0.1226403E+05 -0.3042100E-04  0.5912781E-04 -0.1269786E+06 -0.2802712E+05
  0.1535714E+01  0.4790436E+05  0.1352609E+05 -0.7551326E-03 -0.2841949E-03 -0.1265922E+06 -0.3058117E+05
  0.1566667E+01  0.4788000E+05  0.1486161E+05  0.2921896E-04 -0.4940033E-03 -0.1261633E+06 -0.3323122E+05
  0.1597619E+01  0.4777182E+05  0.1625585E+05 -0.1021952E-02 -0.1592636E-02 -0.1256104E+06 -0.3595827E+05
  0.1628572E+01  0.4756668E+05  0.1768622E+05 -0.2154969E-03  0.1182556E-03 -0.1247935E+06 -0.3866710E+05
  0.1659524E+01  0.4733402E+05  0.1917889E+05 -0.3126191E-03  0.3128052E-03 -0.1239624E+06 -0.4145227E+05
  0.1690476E+01  0.4708809E+05  0.2073272E+05 -0.6318428E-03 -0.2593994E-03 -0.1231380E+06 -0.4430072E+05
  0.1721429E+01  0.4674251E+05  0.2229663E+05 -0.5672977E-03  0.2727509E-03 -0.1220737E+06 -0.4706546E+05
  0.1752381E+01  0.4636940E+05  0.2389795E+05  0.3134686E-03 -0.7362366E-03 -0.1209717E+06 -0.4982607E+05
  0.1783333E+01  0.4595930E+05  0.2551698E+05 -0.1796829E-03 -0.3623962E-03 -0.1197974E+06 -0.5252742E+05
  0.1814286E+01  0.4551634E+05  0.2714916E+05 -0.1682071E-03 -0.8773804E-04 -0.1186034E+06 -0.5518056E+05
  0.1845238E+01  0.4498388E+05  0.2874580E+05  0.3803869E-03 -0.2174377E-03 -0.1172736E+06 -0.5768835E+05
  0.1876190E+01  0.4436091E+05  0.3026779E+05 -0.2846500E-03 -0.7781982E-03 -0.1157266E+06 -0.5989268E+05
  0.1907143E+01  0.4371179E+05  0.3177001E+05 -0.1224132E-02 -0.1144409E-04 -0.1141853E+06 -0.6200508E+05
  0.1938095E+01  0.4305045E+05  0.3325440E+05 -0.4330197E-03 -0.4081726E-03 -0.1126943E+06 -0.6403668E+05
  0.1969048E+01  0.4235526E+05  0.3467567E+05 -0.1084905E-02  0.1144409E-03 -0.1111603E+06 -0.6585627E+05
  0.2000000E+01  0.4159225E+05  0.3597530E+05 -0.4882812E-03 -0.2422333E-03 -0.1094983E+06 -0.6730988E+05
Zone t="Motion of body    1 in DoF   2",I=    64,F=POINT
  0.5000000E-01  0.1144409E-03  0.3278255E-06  0.8322531E+04  0.7340417E+01 -0.5207062E-02 -0.3427267E-05
  0.8095238E-01 -0.5713631E-03  0.2503395E-05  0.8296351E+04  0.1214791E+02 -0.2827364E-03  0.1519918E-04
  0.1119048E+00  0.4090654E-03 -0.3576279E-06  0.8268055E+04  0.1734513E+02 -0.3442967E-02  0.1502037E-04
  0.1428571E+00  0.5407333E-03  0.4887581E-05  0.8258846E+04  0.2312138E+02 -0.6381988E-02  0.1668930E-05
  0.1738095E+00  0.5486893E-03  0.8940697E-05  0.8247250E+04  0.2967925E+02 -0.4170039E-02 -0.5245209E-05
  0.2047619E+00  0.6008148E-03  0.1049042E-04  0.8242575E+04  0.3733032E+02 -0.3036676E-02 -0.3576279E-04
  0.2357143E+00  0.5340576E-03  0.2026558E-04  0.8252305E+04  0.4644663E+02 -0.1780192E-02 -0.7200241E-04
  0.2666667E+00 -0.8583068E-04  0.1096725E-04  0.8245821E+04  0.5730729E+02  0.1115799E-02  0.3027916E-04
  0.2976190E+00  0.2198181E-02 -0.3242493E-04  0.8258931E+04  0.7070448E+02 -0.4460449E-02  0.3218651E-04
  0.3285715E+00  0.1898226E-02  0.2098083E-04  0.8255073E+04  0.8687955E+02 -0.7221387E-02 -0.6127357E-04
  0.3595238E+00  0.8276124E-03  0.2145767E-04  0.8270949E+04  0.1067220E+03 -0.3989516E-02  0.1006126E-03
  0.3904762E+00 -0.2100409E-03  0.2098083E-04  0.8260067E+04  0.1306911E+03  0.1953869E-04  0.1487732E-03
  0.4214286E+00  0.1131478E-02 -0.5245209E-04  0.8261737E+04  0.1583287E+03 -0.6481105E-02  0.1783371E-03
  0.4523810E+00  0.1855147E-03 -0.5531311E-04  0.8246605E+04  0.1912045E+03 -0.6745991E-04  0.2517700E-03
  0.4833333E+00  0.9470972E-03  0.9536743E-05  0.8228450E+04  0.2256223E+03 -0.1988904E-02  0.1201630E-03
  0.5142857E+00  0.8530088E-03  0.7247925E-04  0.8208225E+04  0.2636746E+03 -0.3145006E-02  0.3337860E-04
  0.5452381E+00 -0.1693126E-02  0.5531311E-04  0.8169677E+04  0.3026295E+03  0.3162368E-02  0.6856918E-03
  0.5761905E+00  0.1734584E-02 -0.2193451E-03  0.8144586E+04  0.3413550E+03 -0.6117387E-02  0.1649857E-03
  0.6071429E+00  0.1803230E-02  0.8201599E-04  0.8095838E+04  0.3812580E+03 -0.7363711E-02  0.2326965E-03
  0.6380953E+00  0.4663040E-03  0.7629395E-05  0.8049814E+04  0.4186998E+03 -0.5021736E-02  0.2098083E-04
  0.6690477E+00 -0.1824538E-03 -0.1106262E-03  0.8018555E+04  0.4551386E+03 -0.3329783E-02  0.1050949E-02
  0.7000000E+00 -0.2942766E-03  0.3318787E-03  0.7960358E+04  0.4904299E+03 -0.1678467E-02  0.2326965E-03
  0.7309524E+00  0.3861915E-03 -0.4653931E-03  0.7907402E+04  0.5229056E+03  0.3966291E-03  0.1415253E-02
  0.7619048E+00  0.1026392E-02 -0.5722046E-04  0.7866760E+04  0.5530545E+03 -0.4766464E-02 -0.1893997E-02
  0.7928572E+00 -0.6399068E-03 -0.5874634E-03  0.7819080E+04  0.5802201E+03  0.3560384E-02  0.3051758E-04
  0.8238096E+00  0.8798059E-03  0.2784729E-03  0.7761130E+04  0.6040637E+03 -0.4148979E-02 -0.2414703E-02
  0.8547620E+00  0.9148897E-03 -0.6561279E-03  0.7712927E+04  0.6246018E+03 -0.3677411E-02  0.5836487E-03
  0.8857143E+00  0.6632651E-03 -0.2708435E-03  0.7676897E+04  0.6419603E+03 -0.3445533E-02  0.1104355E-02
  0.9166667E+00  0.1194347E-02  0.1373291E-03  0.7631420E+04  0.6543730E+03 -0.4694158E-02  0.2155304E-03
  0.9476191E+00  0.1388818E-02 -0.2517700E-03  0.7579334E+04  0.6625109E+03 -0.2189904E-02 -0.7915497E-03
  0.9785714E+00  0.1376075E-02 -0.5569458E-03  0.7536405E+04  0.6673205E+03 -0.7141559E-02  0.2220154E-02
  0.1009524E+01  0.3363052E-03  0.1831055E-03  0.7505028E+04  0.6692372E+03 -0.5259964E-02  0.4463196E-03
  0.1040476E+01  0.4307902E-03  0.4806519E-03  0.7485996E+04  0.6688952E+03 -0.1613172E-02  0.1239777E-03
  0.1071429E+01  0.1041412E-02 -0.1525879E-04  0.7437528E+04  0.6587792E+03 -0.2449544E-02  0.1996994E-02
  0.1102381E+01  0.9671864E-03 -0.4196167E-03  0.7400795E+04  0.6471745E+03 -0.4983000E-02  0.1068115E-03
  0.1133333E+01  0.9643330E-03  0.2975464E-03  0.7373070E+04  0.6337073E+03 -0.5062328E-02  0.1615524E-02
  0.1164286E+01  0.7404725E-03  0.1174927E-02  0.7356427E+04  0.6195233E+03 -0.3879289E-02 -0.1962662E-02
  0.1195238E+01  0.3462864E-03  0.7629395E-04  0.7352447E+04  0.6065209E+03 -0.1429828E-02  0.1186371E-02
  0.1226190E+01  0.4090985E-03  0.3738403E-03  0.7323236E+04  0.5790127E+03 -0.1319070E-02 -0.4539490E-03
  0.1257143E+01  0.7544322E-03  0.1373291E-03  0.7300426E+04  0.5515475E+03 -0.2913042E-02  0.1506805E-03
  0.1288095E+01  0.6345366E-03 -0.5264282E-03  0.7285649E+04  0.5247111E+03 -0.4335640E-02  0.1798630E-02
  0.1319048E+01  0.6698615E-03 -0.4882812E-03  0.7277741E+04  0.4995255E+03 -0.1735205E-02  0.8735657E-03
  0.1350000E+01  0.5467733E-03  0.8773804E-03  0.7278583E+04  0.4774174E+03 -0.2870913E-02 -0.7781982E-03
  0.1380952E+01  0.7451485E-03  0.2288818E-03  0.7289344E+04  0.4615219E+03 -0.4066204E-02  0.3662109E-03
  0.1411905E+01  0.7058476E-03 -0.2975464E-03  0.7276433E+04  0.4218320E+03 -0.3198942E-02  0.1888275E-03
  0.1442857E+01  0.1009951E-02  0.2975464E-03  0.7270072E+04  0.3863908E+03 -0.4589723E-02 -0.1907349E-05
  0.1473810E+01  0.1120744E-02  0.1220703E-03  0.7267615E+04  0.3536625E+03 -0.4079199E-02  0.3824234E-03
  0.1504762E+01  0.7922136E-03  0.1243591E-02  0.7269807E+04  0.3250877E+03 -0.3853327E-02 -0.1597404E-02
  0.1535714E+01  0.2086551E-03 -0.1296997E-03  0.7277137E+04  0.3026217E+03 -0.1649369E-02  0.1297951E-02
  0.1566667E+01  0.4188051E-03 -0.5340576E-03  0.7289133E+04  0.2869393E+03 -0.1499906E-02  0.9326935E-03
  0.1597619E+01  0.6876688E-03  0.6866455E-04  0.7306614E+04  0.2818062E+03 -0.1394440E-02 -0.2784729E-03
  0.1628572E+01  0.8690148E-03  0.2517700E-03  0.7305821E+04  0.2378483E+03 -0.2342358E-02 -0.1577377E-02
  0.1659524E+01  0.9838307E-03 -0.3814697E-04  0.7310608E+04  0.2055751E+03 -0.4799623E-02  0.1478195E-03
  0.1690476E+01  0.5821980E-03  0.5874634E-03  0.7316063E+04  0.1764175E+03 -0.4513163E-02 -0.5846024E-03
  0.1721429E+01  0.7888984E-03 -0.2822876E-03  0.7324125E+04  0.1537476E+03 -0.2836489E-02  0.3418922E-03
  0.1752381E+01  0.6487059E-03  0.8392334E-04  0.7333346E+04  0.1367062E+03 -0.3065027E-02 -0.3914833E-03
  0.1783333E+01  0.6609765E-03  0.2288818E-03  0.7344490E+04  0.1271444E+03 -0.2378660E-02 -0.6651878E-03
  0.1814286E+01  0.1076526E-02 -0.2174377E-03  0.7356608E+04  0.1255634E+03 -0.4087433E-02  0.8549690E-03
  0.1845238E+01  0.3638483E-03 -0.1373291E-03  0.7370022E+04  0.1344986E+03 -0.1339623E-02  0.2961159E-03
  0.1876190E+01  0.7644886E-03  0.1754761E-03  0.7376947E+04  0.9803197E+02 -0.3854974E-02 -0.7295609E-03
  0.1907143E+01  0.6260676E-03  0.2174377E-03  0.7385843E+04  0.7671304E+02 -0.1936209E-02  0.2887249E-03
  0.1938095E+01  0.5767035E-03  0.5340576E-04  0.7393510E+04  0.5627942E+02 -0.1637602E-02 -0.3070831E-03
  0.1969048E+01  0.1098467E-02  0.7247925E-04  0.7401752E+04  0.4321182E+02 -0.6292452E-02 -0.6971359E-03
  0.2000000E+01  0.1338959E-02  0.5912781E-03  0.7409598E+04  0.3331037E+02 -0.6317139E-02 -0.3447533E-03
Zone t="Motion of body    1 in DoF   3",I=    64,F=POINT
  0.5000000E-01 -0.1149332E+06 -0.3754716E-02 -0.2555847E-02 -0.1167986E-04  0.4047341E+06  0.1088065E-01
  0.8095238E-01 -0.1159769E+06 -0.1600757E-01  0.1602173E-01  0.6139169E-04  0.4066945E+06  0.4623232E-01
  0.1119048E+00 -0.1161279E+06 -0.4469656E-01  0.2011238E-02  0.1959146E-04  0.4069433E+06  0.1285362E+00
  0.1428571E+00 -0.1163084E+06 -0.9964550E-01  0.1214981E-01  0.1021055E-03  0.4072081E+06  0.2862039E+00
  0.1738095E+00 -0.1163754E+06 -0.1981110E+00  0.2348390E-02  0.1493457E-04  0.4073379E+06  0.5689034E+00
  0.2047619E+00 -0.1164228E+06 -0.3661790E+00  0.6371432E-02  0.1244893E-03  0.4074507E+06  0.1051220E+01
  0.2357143E+00 -0.1165525E+06 -0.6423655E+00  0.3058693E-02  0.1550443E-04  0.4076930E+06  0.1841180E+01
  0.2666667E+00 -0.1165520E+06 -0.1089131E+01  0.1291752E-01  0.2636993E-03  0.4077244E+06  0.3117237E+01
  0.2976190E+00 -0.1166609E+06 -0.1817812E+01 -0.1768799E-02  0.5113240E-04  0.4079384E+06  0.5195061E+01
  0.3285715E+00 -0.1167407E+06 -0.2990071E+01  0.5828193E-02  0.3176089E-03  0.4081321E+06  0.8529063E+01
  0.3595238E+00 -0.1169090E+06 -0.4880244E+01  0.3395333E-03  0.1435168E-04  0.4084684E+06  0.1388943E+02
  0.3904762E+00 -0.1169519E+06 -0.7896115E+01 -0.6838542E-03  0.7118285E-04  0.4085762E+06  0.2242548E+02
  0.4214286E+00 -0.1171396E+06 -0.1261237E+02  0.3023309E-02  0.1826286E-03  0.4089302E+06  0.3572513E+02
  0.4523810E+00 -0.1172822E+06 -0.1995572E+02  0.1551578E-02  0.8912385E-04  0.4093042E+06  0.5640783E+02
  0.4833333E+00 -0.1174371E+06 -0.3077774E+02  0.1073377E-02  0.2342165E-03  0.4096212E+06  0.8673470E+02
  0.5142857E+00 -0.1176212E+06 -0.4668748E+02  0.1057731E-01  0.8842349E-03  0.4099986E+06  0.1311772E+03
  0.5452381E+00 -0.1178448E+06 -0.6908457E+02 -0.2854527E-02  0.5051494E-04  0.4105324E+06  0.1935335E+03
  0.5761905E+00 -0.1181789E+06 -0.9982697E+02  0.7467979E-02  0.1213551E-02  0.4112106E+06  0.2787066E+03
  0.6071429E+00 -0.1183686E+06 -0.1414683E+03  0.3417968E-02  0.2518892E-03  0.4116739E+06  0.3936366E+03
  0.6380953E+00 -0.1186381E+06 -0.1960125E+03  0.1293695E-01  0.2308667E-02  0.4122766E+06  0.5433274E+03
  0.6690477E+00 -0.1190140E+06 -0.2669624E+03  0.1455069E-01  0.2078891E-02  0.4130413E+06  0.7369725E+03
  0.7000000E+00 -0.1192969E+06 -0.3577628E+03  0.3335135E-02  0.4613400E-04  0.4137072E+06  0.9838106E+03
  0.7309524E+00 -0.1196687E+06 -0.4719689E+03 -0.7723829E-03  0.4065037E-03  0.4145264E+06  0.1292511E+04
  0.7619048E+00 -0.1200928E+06 -0.6145867E+03  0.6208419E-02  0.1502991E-02  0.4153567E+06  0.1674935E+04
  0.7928572E+00 -0.1204312E+06 -0.7897980E+03  0.3926045E-02  0.1181841E-02  0.4161026E+06  0.2142312E+04
  0.8238096E+00 -0.1208623E+06 -0.1003510E+04  0.4574990E-02  0.2833128E-02  0.4170453E+06  0.2708933E+04
  0.8547620E+00 -0.1212542E+06 -0.1260983E+04  0.1017536E-02  0.3113747E-03  0.4178914E+06  0.3386348E+04
  0.8857143E+00 -0.1217865E+06 -0.1569658E+04  0.1963954E-02  0.2517700E-03  0.4189166E+06  0.4192394E+04
  0.9166667E+00 -0.1222066E+06 -0.1933767E+04 -0.1032049E-02  0.3604889E-03  0.4197898E+06  0.5136987E+04
  0.9476191E+00 -0.1226737E+06 -0.2361597E+04 -0.2044984E-02 -0.8745193E-03  0.4207438E+06  0.6237765E+04
  0.9785714E+00 -0.1230901E+06 -0.2859575E+04 -0.1013540E-02 -0.3995895E-03  0.4215457E+06  0.7506721E+04
  0.1009524E+01 -0.1236046E+06 -0.3437490E+04  0.4383303E-02  0.1954079E-02  0.4224558E+06  0.8964607E+04
  0.1040476E+01 -0.1241167E+06 -0.4099988E+04 -0.2023797E-02 -0.3051758E-04  0.4234457E+06  0.1062398E+05
  0.1071429E+01 -0.1244851E+06 -0.4852226E+04  0.2962240E-02  0.1709938E-02  0.4240700E+06  0.1248899E+05
  0.1102381E+01 -0.1250218E+06 -0.5708274E+04 -0.3349683E-02 -0.1188278E-02  0.4250319E+06  0.1459424E+05
  0.1133333E+01 -0.1254197E+06 -0.6668149E+04  0.4281437E-02  0.1218796E-02  0.4256789E+06  0.1692733E+05
  0.1164286E+01 -0.1258719E+06 -0.7744260E+04  0.7286774E-02  0.2571106E-02  0.4263012E+06  0.1950863E+05
  0.1195238E+01 -0.1262941E+06 -0.8937958E+04  0.1225566E-02  0.1113892E-02  0.4269144E+06  0.2234415E+05
  0.1226190E+01 -0.1265304E+06 -0.1024753E+05 -0.2264819E-02 -0.8201599E-04  0.4270522E+06  0.2541070E+05
  0.1257143E+01 -0.1267775E+06 -0.1168327E+05  0.3277172E-02  0.1434326E-02  0.4272653E+06  0.2874195E+05
  0.1288095E+01 -0.1270786E+06 -0.1326659E+05  0.4501484E-02  0.3131866E-02  0.4274627E+06  0.3235880E+05
  0.1319048E+01 -0.1272594E+06 -0.1497638E+05 -0.5436976E-02 -0.2929688E-02  0.4274103E+06  0.3620810E+05
  0.1350000E+01 -0.1274585E+06 -0.1683019E+05 -0.3684715E-02 -0.1296997E-03  0.4272440E+06  0.4031566E+05
  0.1380952E+01 -0.1275821E+06 -0.1881765E+05 -0.3292741E-02 -0.1483917E-02  0.4270438E+06  0.4467376E+05
  0.1411905E+01 -0.1274161E+06 -0.2089306E+05  0.2701809E-02  0.1983643E-02  0.4262347E+06  0.4917311E+05
  0.1442857E+01 -0.1273292E+06 -0.2312740E+05 -0.4526271E-02 -0.1758575E-02  0.4255339E+06  0.5392132E+05
  0.1473810E+01 -0.1271910E+06 -0.2547839E+05 -0.7454374E-03  0.7476807E-03  0.4246276E+06  0.5882074E+05
  0.1504762E+01 -0.1268229E+06 -0.2791078E+05 -0.1135717E-02  0.6484985E-03  0.4232409E+06  0.6376491E+05
  0.1535714E+01 -0.1264416E+06 -0.3045872E+05  0.4630155E-02  0.4096985E-02  0.4218125E+06  0.6884638E+05
  0.1566667E+01 -0.1260102E+06 -0.3309781E+05  0.9739652E-03  0.1316071E-02  0.4201646E+06  0.7397401E+05
  0.1597619E+01 -0.1254588E+06 -0.3581004E+05  0.2846185E-02  0.3227234E-02  0.4184587E+06  0.7917292E+05
  0.1628572E+01 -0.1246377E+06 -0.3850516E+05  0.4122550E-03 -0.9536743E-04  0.4160738E+06  0.8412820E+05
  0.1659524E+01 -0.1238073E+06 -0.4127586E+05  0.9746360E-03 -0.6332397E-03  0.4137963E+06  0.8915686E+05
  0.1690476E+01 -0.1229850E+06 -0.4410129E+05  0.6372586E-02  0.1502991E-02  0.4115094E+06  0.9415655E+05
  0.1721429E+01 -0.1219252E+06 -0.4685195E+05  0.1932358E-02  0.2090454E-02  0.4087869E+06  0.9882038E+05
  0.1752381E+01 -0.1208329E+06 -0.4960531E+05 -0.4527880E-03  0.1434326E-02  0.4060699E+06  0.1033420E+06
  0.1783333E+01 -0.1196614E+06 -0.5229284E+05  0.4859996E-02  0.4043579E-03  0.4031491E+06  0.1075547E+06
  0.1814286E+01 -0.1184681E+06 -0.5492216E+05 -0.8578564E-03  0.1037598E-02  0.4002274E+06  0.1114845E+06
  0.1845238E+01 -0.1171457E+06 -0.5741213E+05  0.2315398E-03  0.9460449E-03  0.3972775E+06  0.1150690E+06
  0.1876190E+01 -0.1155981E+06 -0.5959604E+05 -0.2423591E-02  0.3356934E-03  0.3937915E+06  0.1177239E+06
  0.1907143E+01 -0.1140605E+06 -0.6169621E+05  0.3408368E-02  0.2441406E-03  0.3905061E+06  0.1202145E+06
  0.1938095E+01 -0.1125799E+06 -0.6370713E+05  0.3416919E-02  0.1205444E-02  0.3874030E+06  0.1224301E+06
  0.1969048E+01 -0.1110541E+06 -0.6550341E+05  0.4820080E-02  0.2822876E-03  0.3842600E+06  0.1241212E+06
  0.2000000E+01 -0.1094029E+06 -0.6695627E+05  0.4119873E-02  0.3089905E-03  0.3809818E+06  0.1249702E+06
