VARIABLES="w (rad/s)"
"abs(F   1   1)" "angle(F   1   1)"
"abs(F   1   2)" "angle(F   1   2)"
"abs(F   1   3)" "angle(F   1   3)"
Zone t="Diffraction force - beta =   0.000 deg",I=    64,F=POINT
  0.5000000E-01  0.6621708E+04 -0.1570794E+01  0.7471902E+06 -0.5092605E-04  0.5380396E+04  0.1570789E+01
  0.8095238E-01  0.1079817E+05 -0.1570788E+01  0.7454209E+06 -0.1369245E-03  0.8758754E+04  0.1570817E+01
  0.1119048E+00  0.1505950E+05 -0.1570789E+01  0.7428263E+06 -0.2716556E-03  0.1217265E+05  0.1570799E+01
  0.1428571E+00  0.1945073E+05 -0.1570783E+01  0.7394046E+06 -0.4652640E-03  0.1566152E+05  0.1570811E+01
  0.1738095E+00  0.2402093E+05 -0.1570774E+01  0.7351544E+06 -0.7329542E-03  0.1924016E+05  0.1570835E+01
  0.2047619E+00  0.2882036E+05 -0.1570763E+01  0.7300579E+06 -0.1096684E-02  0.2294175E+05  0.1570835E+01
  0.2357143E+00  0.3388564E+05 -0.1570741E+01  0.7241139E+06 -0.1588978E-02  0.2678686E+05  0.1570847E+01
  0.2666667E+00  0.3932725E+05 -0.1570717E+01  0.7173196E+06 -0.2248418E-02  0.3082828E+05  0.1570876E+01
  0.2976190E+00  0.4518902E+05 -0.1570676E+01  0.7096512E+06 -0.3142014E-02  0.3508985E+05  0.1570913E+01
  0.3285715E+00  0.5155938E+05 -0.1570620E+01  0.7011124E+06 -0.4334881E-02  0.3960738E+05  0.1570980E+01
  0.3595238E+00  0.5855791E+05 -0.1570531E+01  0.6917640E+06 -0.5934080E-02  0.4442110E+05  0.1571062E+01
  0.3904762E+00  0.6624760E+05 -0.1570403E+01  0.6815650E+06 -0.8053457E-02  0.4961589E+05  0.1571189E+01
  0.4214286E+00  0.7464164E+05 -0.1570217E+01  0.6706614E+06 -0.1076422E-01  0.5517884E+05  0.1571374E+01
  0.4523810E+00  0.8387998E+05 -0.1569947E+01  0.6590568E+06 -0.1426901E-01  0.6098819E+05  0.1571649E+01
  0.4833333E+00  0.9392560E+05 -0.1569574E+01  0.6469509E+06 -0.1846259E-01  0.6714717E+05  0.1572019E+01
  0.5142857E+00  0.1047010E+06 -0.1569059E+01  0.6343333E+06 -0.2357699E-01  0.7356641E+05  0.1572535E+01
  0.5452381E+00  0.1161055E+06 -0.1568384E+01  0.6212615E+06 -0.2951806E-01  0.8012753E+05  0.1573210E+01
  0.5761905E+00  0.1281616E+06 -0.1567515E+01  0.6078897E+06 -0.3629594E-01  0.8662244E+05  0.1574077E+01
  0.6071429E+00  0.1408065E+06 -0.1566407E+01  0.5942978E+06 -0.4409552E-01  0.9300328E+05  0.1575186E+01
  0.6380953E+00  0.1538218E+06 -0.1565045E+01  0.5803681E+06 -0.5271409E-01  0.9935183E+05  0.1576548E+01
  0.6690477E+00  0.1671338E+06 -0.1563380E+01  0.5662296E+06 -0.6231823E-01  0.1054926E+06  0.1578212E+01
  0.7000000E+00  0.1807757E+06 -0.1561371E+01  0.5520001E+06 -0.7302463E-01  0.1111113E+06  0.1580223E+01
  0.7309524E+00  0.1947229E+06 -0.1558995E+01  0.5376825E+06 -0.8473604E-01  0.1163534E+06  0.1582602E+01
  0.7619048E+00  0.2088850E+06 -0.1556209E+01  0.5233698E+06 -0.9753543E-01  0.1211680E+06  0.1585393E+01
  0.7928572E+00  0.2231320E+06 -0.1552978E+01  0.5090740E+06 -0.1114605E+00  0.1254085E+06  0.1588629E+01
  0.8238096E+00  0.2373479E+06 -0.1549275E+01  0.4947897E+06 -0.1265225E+00  0.1292036E+06  0.1592327E+01
  0.8547620E+00  0.2514095E+06 -0.1545089E+01  0.4805650E+06 -0.1427503E+00  0.1322338E+06  0.1596507E+01
  0.8857143E+00  0.2654415E+06 -0.1540425E+01  0.4664934E+06 -0.1601644E+00  0.1345325E+06  0.1601181E+01
  0.9166667E+00  0.2792948E+06 -0.1535287E+01  0.4526198E+06 -0.1787864E+00  0.1358765E+06  0.1606346E+01
  0.9476191E+00  0.2928832E+06 -0.1529697E+01  0.4390243E+06 -0.1986114E+00  0.1365561E+06  0.1611972E+01
  0.9785714E+00  0.3059639E+06 -0.1523677E+01  0.4256763E+06 -0.2196205E+00  0.1364268E+06  0.1618021E+01
  0.1009524E+01  0.3184836E+06 -0.1517282E+01  0.4125206E+06 -0.2417993E+00  0.1355151E+06  0.1624411E+01
  0.1040476E+01  0.3302591E+06 -0.1510587E+01  0.3995894E+06 -0.2651654E+00  0.1336764E+06  0.1631042E+01
  0.1071429E+01  0.3412612E+06 -0.1503721E+01  0.3868925E+06 -0.2897379E+00  0.1308492E+06  0.1637821E+01
  0.1102381E+01  0.3513798E+06 -0.1496810E+01  0.3745093E+06 -0.3155673E+00  0.1272063E+06  0.1644668E+01
  0.1133333E+01  0.3604830E+06 -0.1489994E+01  0.3624971E+06 -0.3426352E+00  0.1225713E+06  0.1651430E+01
  0.1164286E+01  0.3685681E+06 -0.1483426E+01  0.3507803E+06 -0.3709225E+00  0.1172404E+06  0.1657949E+01
  0.1195238E+01  0.3754896E+06 -0.1477284E+01  0.3394109E+06 -0.4003919E+00  0.1110972E+06  0.1663966E+01
  0.1226190E+01  0.3812069E+06 -0.1471778E+01  0.3283092E+06 -0.4310079E+00  0.1042140E+06  0.1669313E+01
  0.1257143E+01  0.3856924E+06 -0.1467029E+01  0.3175363E+06 -0.4629959E+00  0.9675277E+05  0.1673883E+01
  0.1288095E+01  0.3888842E+06 -0.1463476E+01  0.3070747E+06 -0.4958711E+00  0.8874944E+05  0.1677307E+01
  0.1319048E+01  0.3907632E+06 -0.1461062E+01  0.2969922E+06 -0.5301126E+00  0.8015907E+05  0.1679417E+01
  0.1350000E+01  0.3914754E+06 -0.1460072E+01  0.2871624E+06 -0.5655265E+00  0.7136046E+05  0.1680150E+01
  0.1380952E+01  0.3909631E+06 -0.1460690E+01  0.2776581E+06 -0.6020790E+00  0.6224505E+05  0.1679090E+01
  0.1411905E+01  0.3888236E+06 -0.1463938E+01  0.2694392E+06 -0.6340010E+00  0.5324180E+05  0.1675377E+01
  0.1442857E+01  0.3862935E+06 -0.1468099E+01  0.2605320E+06 -0.6724898E+00  0.4387863E+05  0.1670297E+01
  0.1473810E+01  0.3828116E+06 -0.1474220E+01  0.2519632E+06 -0.7122592E+00  0.3465411E+05  0.1663307E+01
  0.1504762E+01  0.3784472E+06 -0.1482461E+01  0.2437226E+06 -0.7531377E+00  0.2542992E+05  0.1652802E+01
  0.1535714E+01  0.3733551E+06 -0.1492877E+01  0.2357399E+06 -0.7951502E+00  0.1642679E+05  0.1638648E+01
  0.1566667E+01  0.3676492E+06 -0.1505532E+01  0.2279795E+06 -0.8382916E+00  0.7692780E+04  0.1614828E+01
  0.1597619E+01  0.3613560E+06 -0.1520466E+01  0.2204987E+06 -0.8824548E+00  0.8183101E+03 -0.1313174E+01
  0.1628572E+01  0.3546180E+06 -0.1537682E+01  0.2131996E+06 -0.9277097E+00  0.8900279E+04 -0.1520306E+01
  0.1659524E+01  0.3475111E+06 -0.1557236E+01  0.2061500E+06 -0.9741396E+00  0.1668578E+05 -0.1548064E+01
  0.1690476E+01  0.3401303E+06 -0.1579057E+01  0.1993734E+06 -0.1021915E+01  0.2404846E+05 -0.1573513E+01
  0.1721429E+01  0.3325376E+06 -0.1603145E+01  0.1928835E+06 -0.1070947E+01  0.3099904E+05 -0.1600121E+01
  0.1752381E+01  0.3247985E+06 -0.1629469E+01  0.1866897E+06 -0.1121015E+01  0.3754965E+05 -0.1628298E+01
  0.1783333E+01  0.3169842E+06 -0.1657988E+01  0.1806460E+06 -0.1172347E+01  0.4368235E+05 -0.1658535E+01
  0.1814286E+01  0.3091238E+06 -0.1688718E+01  0.1747642E+06 -0.1224846E+01  0.4948075E+05 -0.1689571E+01
  0.1845238E+01  0.3012644E+06 -0.1721491E+01  0.1691267E+06 -0.1278407E+01  0.5475902E+05 -0.1724328E+01
  0.1876190E+01  0.2934289E+06 -0.1756322E+01  0.1636024E+06 -0.1333214E+01  0.5965716E+05 -0.1760902E+01
  0.1907143E+01  0.2856604E+06 -0.1793247E+01  0.1582312E+06 -0.1389257E+01  0.6423666E+05 -0.1799209E+01
  0.1938095E+01  0.2779891E+06 -0.1832207E+01  0.1530198E+06 -0.1446693E+01  0.6853701E+05 -0.1838394E+01
  0.1969048E+01  0.2704738E+06 -0.1872979E+01  0.1480556E+06 -0.1505561E+01  0.7244077E+05 -0.1880510E+01
  0.2000000E+01  0.2630968E+06 -0.1915604E+01  0.1432646E+06 -0.1565777E+01  0.7599548E+05 -0.1925286E+01
