VARIABLES="w (rad/s)"
"abs(F   1   1)" "angle(F   1   1)"
"abs(F   1   2)" "angle(F   1   2)"
"abs(F   1   3)" "angle(F   1   3)"
Zone t="Diffraction force - beta =   0.000 deg",I=    64,F=POINT
  0.5000000E-01  0.1431003E+04 -0.1570841E+01  0.1398620E+06 -0.9594419E-05  0.3264601E+04  0.1570816E+01
  0.8095238E-01  0.2339153E+04 -0.1570817E+01  0.1396335E+06 -0.2581494E-04  0.5330010E+04  0.1570811E+01
  0.1119048E+00  0.3270147E+04 -0.1570794E+01  0.1392974E+06 -0.5127181E-04  0.7434877E+04  0.1570793E+01
  0.1428571E+00  0.4223783E+04 -0.1570795E+01  0.1388539E+06 -0.8794916E-04  0.9592144E+04  0.1570827E+01
  0.1738095E+00  0.5218787E+04 -0.1570794E+01  0.1383030E+06 -0.1388020E-03  0.1183187E+05  0.1570801E+01
  0.2047619E+00  0.6265041E+04 -0.1570788E+01  0.1376444E+06 -0.2081634E-03  0.1417188E+05  0.1570797E+01
  0.2357143E+00  0.7370700E+04 -0.1570787E+01  0.1368790E+06 -0.3024155E-03  0.1663762E+05  0.1570799E+01
  0.2666667E+00  0.8554098E+04 -0.1570782E+01  0.1360060E+06 -0.4292802E-03  0.1926358E+05  0.1570821E+01
  0.2976190E+00  0.9836983E+04 -0.1570770E+01  0.1350267E+06 -0.6020869E-03  0.2208104E+05  0.1570823E+01
  0.3285715E+00  0.1123671E+05 -0.1570757E+01  0.1339424E+06 -0.8341997E-03  0.2513624E+05  0.1570831E+01
  0.3595238E+00  0.1276328E+05 -0.1570738E+01  0.1327551E+06 -0.1147329E-02  0.2845101E+05  0.1570854E+01
  0.3904762E+00  0.1444456E+05 -0.1570705E+01  0.1314662E+06 -0.1565291E-02  0.3208137E+05  0.1570889E+01
  0.4214286E+00  0.1629887E+05 -0.1570662E+01  0.1300849E+06 -0.2104828E-02  0.3603895E+05  0.1570923E+01
  0.4523810E+00  0.1834199E+05 -0.1570601E+01  0.1286115E+06 -0.2807452E-02  0.4035711E+05  0.1570992E+01
  0.4833333E+00  0.2053784E+05 -0.1570516E+01  0.1270557E+06 -0.3657773E-02  0.4498634E+05  0.1571079E+01
  0.5142857E+00  0.2292024E+05 -0.1570396E+01  0.1254225E+06 -0.4704884E-02  0.4994081E+05  0.1571198E+01
  0.5452381E+00  0.2547181E+05 -0.1570236E+01  0.1237176E+06 -0.5935843E-02  0.5518047E+05  0.1571357E+01
  0.5761905E+00  0.2814884E+05 -0.1570025E+01  0.1219466E+06 -0.7357170E-02  0.6062890E+05  0.1571566E+01
  0.6071429E+00  0.3097126E+05 -0.1569756E+01  0.1201120E+06 -0.9010633E-02  0.6629088E+05  0.1571837E+01
  0.6380953E+00  0.3386370E+05 -0.1569419E+01  0.1182180E+06 -0.1086706E-01  0.7204788E+05  0.1572174E+01
  0.6690477E+00  0.3688611E+05 -0.1569000E+01  0.1162729E+06 -0.1296525E-01  0.7794202E+05  0.1572591E+01
  0.7000000E+00  0.4003718E+05 -0.1568485E+01  0.1142807E+06 -0.1533230E-01  0.8396523E+05  0.1573107E+01
  0.7309524E+00  0.4321671E+05 -0.1567861E+01  0.1122452E+06 -0.1796027E-01  0.8997136E+05  0.1573730E+01
  0.7619048E+00  0.4646489E+05 -0.1567114E+01  0.1101686E+06 -0.2087462E-01  0.9602323E+05  0.1574480E+01
  0.7928572E+00  0.4978702E+05 -0.1566224E+01  0.1080606E+06 -0.2409616E-01  0.1020771E+06  0.1575369E+01
  0.8238096E+00  0.5319875E+05 -0.1565174E+01  0.1059249E+06 -0.2763628E-01  0.1081745E+06  0.1576419E+01
  0.8547620E+00  0.5664483E+05 -0.1563947E+01  0.1037714E+06 -0.3150725E-01  0.1141620E+06  0.1577645E+01
  0.8857143E+00  0.6013793E+05 -0.1562523E+01  0.1015995E+06 -0.3571916E-01  0.1201306E+06  0.1579070E+01
  0.9166667E+00  0.6369443E+05 -0.1560884E+01  0.9941389E+05 -0.4028456E-01  0.1260279E+06  0.1580709E+01
  0.9476191E+00  0.6726981E+05 -0.1559007E+01  0.9721875E+05 -0.4521605E-01  0.1318617E+06  0.1582585E+01
  0.9785714E+00  0.7080772E+05 -0.1556874E+01  0.9502462E+05 -0.5053139E-01  0.1374792E+06  0.1584718E+01
  0.1009524E+01  0.7438711E+05 -0.1554464E+01  0.9282793E+05 -0.5623706E-01  0.1430370E+06  0.1587127E+01
  0.1040476E+01  0.7799879E+05 -0.1551759E+01  0.9064219E+05 -0.6234675E-01  0.1483888E+06  0.1589830E+01
  0.1071429E+01  0.8169526E+05 -0.1548741E+01  0.8846355E+05 -0.6885536E-01  0.1537053E+06  0.1592849E+01
  0.1102381E+01  0.8531025E+05 -0.1545383E+01  0.8629999E+05 -0.7578819E-01  0.1587743E+06  0.1596207E+01
  0.1133333E+01  0.8887713E+05 -0.1541676E+01  0.8415872E+05 -0.8314800E-01  0.1635380E+06  0.1599914E+01
  0.1164286E+01  0.9243520E+05 -0.1537597E+01  0.8202863E+05 -0.9093801E-01  0.1681776E+06  0.1603995E+01
  0.1195238E+01  0.9592938E+05 -0.1533140E+01  0.7992463E+05 -0.9917362E-01  0.1724645E+06  0.1608447E+01
  0.1226190E+01  0.9942081E+05 -0.1528292E+01  0.7783964E+05 -0.1078529E+00  0.1766008E+06  0.1613289E+01
  0.1257143E+01  0.1027828E+06 -0.1523048E+01  0.7578399E+05 -0.1170874E+00  0.1804335E+06  0.1618525E+01
  0.1288095E+01  0.1061432E+06 -0.1517395E+01  0.7376202E+05 -0.1266295E+00  0.1839682E+06  0.1624169E+01
  0.1319048E+01  0.1093913E+06 -0.1511344E+01  0.7177526E+05 -0.1367357E+00  0.1871516E+06  0.1630218E+01
  0.1350000E+01  0.1125795E+06 -0.1504878E+01  0.6981955E+05 -0.1473090E+00  0.1901144E+06  0.1636686E+01
  0.1380952E+01  0.1156384E+06 -0.1498029E+01  0.6790312E+05 -0.1583399E+00  0.1926332E+06  0.1643533E+01
  0.1411905E+01  0.1182492E+06 -0.1491170E+01  0.6606206E+05 -0.1693838E+00  0.1946367E+06  0.1650390E+01
  0.1442857E+01  0.1210755E+06 -0.1483608E+01  0.6421416E+05 -0.1813425E+00  0.1965826E+06  0.1657951E+01
  0.1473810E+01  0.1236888E+06 -0.1475713E+01  0.6240707E+05 -0.1938077E+00  0.1980444E+06  0.1665837E+01
  0.1504762E+01  0.1260801E+06 -0.1467531E+01  0.6064352E+05 -0.2067625E+00  0.1989798E+06  0.1673983E+01
  0.1535714E+01  0.1283078E+06 -0.1459050E+01  0.5891204E+05 -0.2202577E+00  0.1996348E+06  0.1682435E+01
  0.1566667E+01  0.1303389E+06 -0.1450350E+01  0.5722100E+05 -0.2342465E+00  0.1998913E+06  0.1691084E+01
  0.1597619E+01  0.1321819E+06 -0.1441520E+01  0.5557414E+05 -0.2487434E+00  0.1996805E+06  0.1699844E+01
  0.1628572E+01  0.1338882E+06 -0.1432573E+01  0.5396428E+05 -0.2637401E+00  0.1991947E+06  0.1708733E+01
  0.1659524E+01  0.1353992E+06 -0.1423543E+01  0.5239238E+05 -0.2792645E+00  0.1984314E+06  0.1717740E+01
  0.1690476E+01  0.1366023E+06 -0.1414542E+01  0.5086987E+05 -0.2953459E+00  0.1971459E+06  0.1726729E+01
  0.1721429E+01  0.1375345E+06 -0.1405681E+01  0.4939545E+05 -0.3118268E+00  0.1953688E+06  0.1735500E+01
  0.1752381E+01  0.1382222E+06 -0.1396981E+01  0.4795667E+05 -0.3288684E+00  0.1932451E+06  0.1744135E+01
  0.1783333E+01  0.1386766E+06 -0.1388453E+01  0.4655304E+05 -0.3465050E+00  0.1908781E+06  0.1752640E+01
  0.1814286E+01  0.1388713E+06 -0.1380318E+01  0.4519227E+05 -0.3645537E+00  0.1880820E+06  0.1760663E+01
  0.1845238E+01  0.1388473E+06 -0.1372639E+01  0.4386724E+05 -0.3831086E+00  0.1849551E+06  0.1768210E+01
  0.1876190E+01  0.1386436E+06 -0.1365431E+01  0.4257357E+05 -0.4021845E+00  0.1816404E+06  0.1775304E+01
  0.1907143E+01  0.1382513E+06 -0.1358729E+01  0.4131161E+05 -0.4218428E+00  0.1781919E+06  0.1781959E+01
  0.1938095E+01  0.1375405E+06 -0.1352715E+01  0.4010316E+05 -0.4420730E+00  0.1743659E+06  0.1787943E+01
  0.1969048E+01  0.1366247E+06 -0.1347448E+01  0.3893018E+05 -0.4627255E+00  0.1703183E+06  0.1793099E+01
  0.2000000E+01  0.1354659E+06 -0.1343066E+01  0.3779837E+05 -0.4837537E+00  0.1659696E+06  0.1797225E+01
