VARIABLES="w (rad/s)"
"A   1   1" "B   1   1"
"A   1   2" "B   1   2"
"A   1   3" "B   1   3"
Zone t="Motion of body    1 in DoF   1",I=    64,F=POINT
  0.5000000E-01  0.2160278E+06  0.5419087E-01  0.3814697E-02  0.4764961E-04 -0.3264750E+06 -0.4978574E-01
  0.8095238E-01  0.2171216E+06  0.2391849E+00  0.1460805E-01  0.4903530E-04 -0.3278123E+06 -0.2199219E+00
  0.1119048E+00  0.2184355E+06  0.6719717E+00  0.2120322E-01  0.2592234E-03 -0.3294617E+06 -0.6194741E+00
  0.1428571E+00  0.2189941E+06  0.1514010E+01  0.2061462E-01  0.2561491E-03 -0.3302401E+06 -0.1399549E+01
  0.1738095E+00  0.2198003E+06  0.3015676E+01 -0.3248241E-01 -0.2851449E-03 -0.3309448E+06 -0.2793742E+01
  0.2047619E+00  0.2199782E+06  0.5561702E+01 -0.1043275E-02 -0.6766990E-04 -0.3310901E+06 -0.5166584E+01
  0.2357143E+00  0.2211311E+06  0.9806182E+01 -0.2446955E-01 -0.5486831E-03 -0.3327068E+06 -0.9148253E+01
  0.2666667E+00  0.2220131E+06  0.1673859E+02  0.1899719E-01  0.4659146E-03 -0.3335520E+06 -0.1568037E+02
  0.2976190E+00  0.2228455E+06  0.2808683E+02 -0.6870117E-02  0.1528859E-04 -0.3347852E+06 -0.2645100E+02
  0.3285715E+00  0.2246589E+06  0.4656637E+02  0.1114555E-01  0.7381439E-03 -0.3366544E+06 -0.4408664E+02
  0.3595238E+00  0.2257101E+06  0.7650552E+02  0.1612783E-02  0.3712177E-03 -0.3380686E+06 -0.7287143E+02
  0.3904762E+00  0.2266651E+06  0.1247491E+03  0.3907738E-02 -0.2660751E-03 -0.3388779E+06 -0.1194759E+03
  0.4214286E+00  0.2292023E+06  0.2012397E+03 -0.7241458E-02 -0.1363754E-03 -0.3421512E+06 -0.1941996E+03
  0.4523810E+00  0.2312748E+06  0.3215761E+03 -0.1140072E-01 -0.1838446E-02 -0.3444104E+06 -0.3124184E+03
  0.4833333E+00  0.2333040E+06  0.5010120E+03 -0.2424569E-01 -0.3667355E-02 -0.3471288E+06 -0.4907007E+03
  0.5142857E+00  0.2352182E+06  0.7673903E+03  0.8188884E-02  0.1255035E-02 -0.3497372E+06 -0.7576842E+03
  0.5452381E+00  0.2389164E+06  0.1150700E+04 -0.5485168E-02 -0.1481056E-02 -0.3535931E+06 -0.1144267E+04
  0.5761905E+00  0.2419250E+06  0.1682864E+04  0.2574069E-01  0.3149033E-02 -0.3572678E+06 -0.1687790E+04
  0.6071429E+00  0.2446854E+06  0.2414243E+04 -0.1899988E-01 -0.4396439E-02 -0.3605452E+06 -0.2441715E+04
  0.6380953E+00  0.2480086E+06  0.3388022E+04  0.1138260E-01  0.5062103E-02 -0.3647517E+06 -0.3456365E+04
  0.6690477E+00  0.2521930E+06  0.4676388E+04 -0.1368404E-02 -0.1609802E-02 -0.3696725E+06 -0.4809778E+04
  0.7000000E+00  0.2565377E+06  0.6358921E+04  0.7672991E-02  0.7766724E-02 -0.3748829E+06 -0.6599191E+04
  0.7309524E+00  0.2612901E+06  0.8515833E+04 -0.1252513E-02 -0.1861572E-02 -0.3806926E+06 -0.8918284E+04
  0.7619048E+00  0.2654047E+06  0.1123602E+05 -0.2515411E-01 -0.1567078E-01 -0.3858587E+06 -0.1187557E+05
  0.7928572E+00  0.2694935E+06  0.1463168E+05 -0.2363325E-01 -0.1838684E-01 -0.3914465E+06 -0.1561803E+05
  0.8238096E+00  0.2744144E+06  0.1882919E+05  0.3200641E-01  0.2326965E-01 -0.3968164E+06 -0.2023646E+05
  0.8547620E+00  0.2801006E+06  0.2398085E+05 -0.1299590E-01 -0.1213074E-01 -0.4044814E+06 -0.2601573E+05
  0.8857143E+00  0.2850508E+06  0.3018899E+05 -0.4548104E-02 -0.1678467E-03 -0.4107735E+06 -0.3304552E+05
  0.9166667E+00  0.2895977E+06  0.3760275E+05 -0.1078658E-01 -0.2899170E-02 -0.4173863E+06 -0.4159624E+05
  0.9476191E+00  0.2935968E+06  0.4632176E+05 -0.9918979E-02 -0.7629395E-02 -0.4220354E+06 -0.5163610E+05
  0.9785714E+00  0.2973274E+06  0.5648593E+05 -0.7359860E-02 -0.6774902E-02 -0.4279209E+06 -0.6359011E+05
  0.1009524E+01  0.2998342E+06  0.6806749E+05 -0.9310741E-02 -0.7690430E-02 -0.4320638E+06 -0.7731629E+05
  0.1040476E+01  0.3018362E+06  0.8112552E+05  0.1067626E-01  0.1428223E-01 -0.4354138E+06 -0.9287013E+05
  0.1071429E+01  0.3029812E+06  0.9568642E+05 -0.2392578E-02 -0.1892090E-02 -0.4376757E+06 -0.1103985E+06
  0.1102381E+01  0.3028937E+06  0.1116623E+06  0.1328800E-02 -0.5554199E-02 -0.4378076E+06 -0.1296860E+06
  0.1133333E+01  0.3016340E+06  0.1289598E+06  0.5385455E-03 -0.2490234E-01 -0.4380709E+06 -0.1511406E+06
  0.1164286E+01  0.2983025E+06  0.1471393E+06  0.4822901E-02 -0.1098633E-02 -0.4353213E+06 -0.1738852E+06
  0.1195238E+01  0.2934597E+06  0.1659176E+06 -0.1021305E-02  0.1733398E-01 -0.4304497E+06 -0.1975185E+06
  0.1226190E+01  0.2873071E+06  0.1850521E+06 -0.5774044E-02  0.2014160E-01 -0.4242411E+06 -0.2219990E+06
  0.1257143E+01  0.2793995E+06  0.2041226E+06  0.2913041E-03 -0.2307129E-01 -0.4146173E+06 -0.2461881E+06
  0.1288095E+01  0.2707278E+06  0.2229090E+06 -0.1421521E-02  0.2441406E-03 -0.4047608E+06 -0.2706752E+06
  0.1319048E+01  0.2605903E+06  0.2408649E+06 -0.5645201E-02  0.9765625E-02 -0.3933657E+06 -0.2946384E+06
  0.1350000E+01  0.2493972E+06  0.2574909E+06 -0.3797743E-02 -0.2197266E-02 -0.3799293E+06 -0.3167744E+06
  0.1380952E+01  0.2374743E+06  0.2727861E+06 -0.4861766E-02  0.6713867E-02 -0.3655514E+06 -0.3377706E+06
  0.1411905E+01  0.2245365E+06  0.2864240E+06 -0.2636966E-02  0.1220703E-03 -0.3502047E+06 -0.3574241E+06
  0.1442857E+01  0.2119551E+06  0.2983063E+06 -0.1818969E-02 -0.3662109E-02 -0.3340046E+06 -0.3736654E+06
  0.1473810E+01  0.1996940E+06  0.3085798E+06 -0.3644361E-02 -0.7324219E-03 -0.3181694E+06 -0.3878259E+06
  0.1504762E+01  0.1877859E+06  0.3174718E+06 -0.6408691E-02  0.3027344E-01 -0.3035516E+06 -0.4015036E+06
  0.1535714E+01  0.1758374E+06  0.3243645E+06 -0.7233375E-02 -0.1708984E-02 -0.2882705E+06 -0.4123454E+06
  0.1566667E+01  0.1643231E+06  0.3295259E+06 -0.1538865E-02  0.1062012E-01 -0.2730646E+06 -0.4205348E+06
  0.1597619E+01  0.1534697E+06  0.3334462E+06 -0.4546255E-02  0.7324219E-02 -0.2588949E+06 -0.4276160E+06
  0.1628572E+01  0.1431546E+06  0.3361026E+06  0.4356786E-02 -0.5615234E-02 -0.2452899E+06 -0.4334298E+06
  0.1659524E+01  0.1334912E+06  0.3374395E+06  0.1792962E-02  0.3662109E-02 -0.2319859E+06 -0.4360514E+06
  0.1690476E+01  0.1246689E+06  0.3378153E+06  0.6408691E-03  0.1513672E-01 -0.2196793E+06 -0.4366954E+06
  0.1721429E+01  0.1166194E+06  0.3377875E+06  0.1595525E-02 -0.1440430E-01 -0.2089209E+06 -0.4383548E+06
  0.1752381E+01  0.1089841E+06  0.3369617E+06  0.7053044E-03 -0.1831055E-01 -0.1985832E+06 -0.4390884E+06
  0.1783333E+01  0.1017780E+06  0.3353886E+06  0.6342380E-03  0.8850098E-02 -0.1885692E+06 -0.4382738E+06
  0.1814286E+01  0.9508800E+05  0.3331326E+06 -0.2023898E-02  0.2807617E-02 -0.1790005E+06 -0.4359871E+06
  0.1845238E+01  0.8882029E+05  0.3304623E+06  0.3786813E-02 -0.6103516E-04 -0.1699958E+06 -0.4338379E+06
  0.1876190E+01  0.8292326E+05  0.3273253E+06 -0.9312122E-03 -0.1245117E-01 -0.1613873E+06 -0.4310637E+06
  0.1907143E+01  0.7746084E+05  0.3238169E+06 -0.3704650E-02  0.3173828E-02 -0.1533940E+06 -0.4265687E+06
  0.1938095E+01  0.7244969E+05  0.3199383E+06  0.2981562E-02 -0.1098633E-02 -0.1460557E+06 -0.4206297E+06
  0.1969048E+01  0.6775270E+05  0.3158378E+06 -0.3223719E-02 -0.2258301E-02 -0.1391459E+06 -0.4150759E+06
  0.2000000E+01  0.6335248E+05  0.3116994E+06 -0.1012802E-02 -0.1287842E-01 -0.1327482E+06 -0.4105188E+06
Zone t="Motion of body    1 in DoF   2",I=    64,F=POINT
  0.5000000E-01  0.6408691E-02 -0.8201599E-04  0.3146905E+06  0.8422180E+03 -0.6103516E-02 -0.1754761E-03
  0.8095238E-01  0.9990019E-02  0.1010895E-03  0.3100888E+06  0.1392632E+04  0.3015855E-02 -0.1525879E-04
  0.1119048E+00  0.7226822E-02 -0.4768372E-04  0.3078691E+06  0.1986097E+04 -0.4036112E-01  0.3814697E-04
  0.1428571E+00 -0.2136230E-02  0.1525879E-04  0.3061146E+06  0.2642769E+04  0.5981445E-02 -0.3509521E-03
  0.1738095E+00  0.1755806E-03  0.4577637E-04  0.3048621E+06  0.3385622E+04  0.4354398E-01 -0.1495361E-02
  0.2047619E+00 -0.1296642E-01 -0.1716614E-03  0.3045332E+06  0.4246958E+04  0.2146166E-01 -0.7324219E-03
  0.2357143E+00  0.9969075E-02  0.7247925E-03  0.3045352E+06  0.5267652E+04  0.3417968E-01 -0.8239746E-03
  0.2666667E+00  0.9269713E-02  0.1602173E-03  0.3044259E+06  0.6475905E+04 -0.6683350E-01  0.8850098E-03
  0.2976190E+00  0.5024414E-02 -0.4196167E-03  0.3049240E+06  0.7954582E+04 -0.1476562E-01  0.1007080E-02
  0.3285715E+00 -0.1560377E-01  0.6408691E-03  0.3049152E+06  0.9726112E+04 -0.1486073E-02 -0.3723145E-02
  0.3595238E+00  0.3225566E-02 -0.3509521E-03  0.3050676E+06  0.1187906E+05 -0.1222320E-01 -0.5493164E-03
  0.3904762E+00 -0.1563095E-02 -0.6103516E-03  0.3048261E+06  0.1445442E+05  0.6377429E-01  0.5493164E-03
  0.4214286E+00  0.6662142E-02  0.6408691E-03  0.3037460E+06  0.1738868E+05 -0.2896583E-01  0.2441406E-03
  0.4523810E+00 -0.3642835E-02  0.7629395E-03  0.3025815E+06  0.2083227E+05  0.5396792E-02  0.1708984E-02
  0.4833333E+00 -0.6566541E-02  0.4882812E-03  0.2998376E+06  0.2438775E+05  0.1313308E-01 -0.2319336E-02
  0.5142857E+00 -0.6646051E-02 -0.2044678E-02  0.2974824E+06  0.2824748E+05  0.1993815E-01  0.1220703E-02
  0.5452381E+00 -0.6156822E-02 -0.1220703E-02  0.2931808E+06  0.3215200E+05 -0.6895640E-01  0.6835938E-02
  0.5761905E+00 -0.6885370E-02 -0.1037598E-02  0.2890756E+06  0.3594952E+05 -0.1440631E-01 -0.1123047E-01
  0.6071429E+00  0.1618509E-01  0.9155273E-03  0.2847599E+06  0.3978875E+05  0.1125919E-01 -0.1025391E-01
  0.6380953E+00 -0.3156519E-02 -0.1013184E-01  0.2796634E+06  0.4330559E+05  0.2907824E-01 -0.6103516E-02
  0.6690477E+00 -0.1012619E-01  0.3601074E-02  0.2749778E+06  0.4663481E+05 -0.2189446E-01  0.7568359E-02
  0.7000000E+00 -0.1447405E-01  0.4394531E-02  0.2702195E+06  0.4980034E+05  0.1116071E-01 -0.1733398E-01
  0.7309524E+00  0.4843050E-02 -0.2563477E-02  0.2647959E+06  0.5264493E+05 -0.1336014E-01 -0.0000000E+00
  0.7619048E+00  0.7930755E-02 -0.2197266E-02  0.2598809E+06  0.5517061E+05  0.2819824E-01 -0.1904297E-01
  0.7928572E+00 -0.2386419E-02  0.7568359E-02  0.2556998E+06  0.5732570E+05  0.4064611E-01  0.1953125E-02
  0.8238096E+00 -0.1074289E-01  0.6347656E-02  0.2503862E+06  0.5921618E+05  0.2963557E-01 -0.1025391E-01
  0.8547620E+00 -0.5355452E-02 -0.7812500E-02  0.2456443E+06  0.6077774E+05  0.5598233E-01  0.2441406E-01
  0.8857143E+00 -0.1715875E-01 -0.3051758E-02  0.2413230E+06  0.6193044E+05  0.3307712E-01  0.9765625E-02
  0.9166667E+00  0.4660866E-02 -0.5249023E-02  0.2380615E+06  0.6263397E+05 -0.8522728E-02 -0.2392578E-01
  0.9476191E+00 -0.1996678E-02 -0.1220703E-02  0.2335636E+06  0.6303143E+05  0.2473304E-01  0.3906250E-02
  0.9785714E+00 -0.2744355E-02  0.2026367E-01  0.2296400E+06  0.6312076E+05 -0.2993841E-02 -0.2392578E-01
  0.1009524E+01 -0.3022968E-03  0.7324219E-03  0.2262959E+06  0.6283284E+05  0.1644495E-01 -0.1953125E-02
  0.1040476E+01 -0.5426123E-02 -0.1049805E-01  0.2236970E+06  0.6221069E+05  0.1314002E-01  0.6835938E-01
  0.1071429E+01  0.8260092E-02  0.3784180E-02  0.2213217E+06  0.6127595E+05  0.4557292E-02 -0.5859375E-02
  0.1102381E+01  0.9965999E-03 -0.4150391E-02  0.2182465E+06  0.6000035E+05  0.1948906E-01 -0.1416016E-01
  0.1133333E+01  0.2544628E-02 -0.3662109E-02  0.2158696E+06  0.5861234E+05  0.9478400E-02  0.2783203E-01
  0.1164286E+01  0.4056217E-02  0.2136230E-01  0.2140035E+06  0.5694448E+05  0.8387653E-02 -0.2075195E-01
  0.1195238E+01  0.3519514E-02 -0.2685547E-02  0.2127805E+06  0.5513158E+05 -0.8170443E-02  0.1440430E-01
  0.1226190E+01 -0.4218537E-02  0.1220703E-02  0.2121800E+06  0.5322247E+05  0.7167779E-02 -0.3417969E-02
  0.1257143E+01 -0.5170648E-02 -0.9033203E-02  0.2104907E+06  0.5085529E+05 -0.1708984E-01  0.1293945E-01
  0.1288095E+01 -0.2961502E-02  0.2185059E-01  0.2092950E+06  0.4840952E+05  0.2198619E-01 -0.2929688E-02
  0.1319048E+01 -0.2614376E-02  0.9887695E-02  0.2085511E+06  0.4609863E+05  0.1924921E-01  0.1074219E-01
  0.1350000E+01  0.1831055E-02  0.5981445E-02  0.2082005E+06  0.4371425E+05 -0.2242477E-01 -0.1562500E-01
  0.1380952E+01 -0.1237540E-02 -0.8544922E-03  0.2083115E+06  0.4146399E+05  0.1414332E-02 -0.1049805E-01
  0.1411905E+01 -0.7781210E-03  0.2441406E-02  0.2087913E+06  0.3937917E+05  0.9683284E-02  0.2685547E-02
  0.1442857E+01  0.2538096E-02  0.1062012E-01  0.2085591E+06  0.3659459E+05 -0.2707302E-02 -0.2978516E-01
  0.1473810E+01 -0.5549368E-02 -0.2026367E-01  0.2084798E+06  0.3380003E+05  0.1192700E-01  0.1538086E-01
  0.1504762E+01 -0.1062707E-01 -0.1660156E-01  0.2086849E+06  0.3147353E+05 -0.7787777E-02  0.3613281E-01
  0.1535714E+01  0.5166697E-03 -0.1574707E-01  0.2091030E+06  0.2924359E+05 -0.5723110E-02 -0.9521484E-02
  0.1566667E+01  0.0000000E+00 -0.9033203E-02  0.2097241E+06  0.2711036E+05 -0.2306350E-01  0.1794434E-01
  0.1597619E+01  0.3323733E-02  0.1574707E-01  0.2104999E+06  0.2534680E+05 -0.7946395E-02 -0.3100586E-01
  0.1628572E+01  0.1536587E-02  0.1367188E-01  0.2113918E+06  0.2375722E+05  0.1559073E-01 -0.1757812E-01
  0.1659524E+01  0.1176919E-02  0.3295898E-02  0.2119881E+06  0.2155402E+05  0.1000381E-01 -0.1135254E-01
  0.1690476E+01 -0.5704638E-02 -0.4638672E-02  0.2126019E+06  0.1928043E+05  0.1155370E-01 -0.9521484E-02
  0.1721429E+01  0.5814802E-02  0.3662109E-02  0.2133032E+06  0.1760168E+05  0.6240275E-02 -0.7446289E-02
  0.1752381E+01  0.8359163E-03  0.2172852E-01  0.2140222E+06  0.1614399E+05  0.2953571E-01 -0.2844238E-01
  0.1783333E+01  0.5476052E-03  0.1623535E-01  0.2147960E+06  0.1478677E+05  0.5476052E-03 -0.2319336E-01
  0.1814286E+01 -0.1883920E-02  0.2685547E-02  0.2156069E+06  0.1352809E+05  0.1883920E-01  0.6774902E-02
  0.1845238E+01 -0.5292339E-03 -0.3540039E-02  0.2163857E+06  0.1241600E+05 -0.3175403E-02  0.1019287E-01
  0.1876190E+01  0.2277200E-02 -0.9948730E-02  0.2171522E+06  0.1126433E+05  0.4164023E-02  0.1055908E-01
  0.1907143E+01  0.6400691E-04 -0.3051758E-02  0.2178571E+06  0.1006626E+05 -0.7168774E-02  0.2746582E-02
  0.1938095E+01  0.4219974E-02 -0.9216309E-02  0.2185090E+06  0.8986324E+04 -0.1259694E-01  0.1715088E-01
  0.1969048E+01 -0.1611860E-02 -0.1110840E-01  0.2191194E+06  0.8242319E+04  0.1983827E-02  0.4943848E-02
  0.2000000E+01  0.2136230E-02 -0.8117676E-02  0.2196585E+06  0.7660668E+04 -0.2929688E-02 -0.3173828E-02
Zone t="Motion of body    1 in DoF   3",I=    64,F=POINT
  0.5000000E-01 -0.3260805E+06 -0.4951739E-01 -0.2349854E-01 -0.1999491E-03  0.1350381E+07  0.4679707E-01
  0.8095238E-01 -0.3275876E+06 -0.2187663E+00 -0.7351146E-01 -0.6897284E-03  0.1353592E+07  0.2015886E+00
  0.1119048E+00 -0.3292463E+06 -0.6150967E+00 -0.5536018E-01 -0.7286440E-03  0.1357231E+07  0.5671007E+00
  0.1428571E+00 -0.3301742E+06 -0.1389038E+01 -0.6665039E-01 -0.9604180E-03  0.1357052E+07  0.1285273E+01
  0.1738095E+00 -0.3311068E+06 -0.2773926E+01  0.6004856E-01  0.7392354E-03  0.1356116E+07  0.2572080E+01
  0.2047619E+00 -0.3310628E+06 -0.5132195E+01 -0.1550009E-01 -0.5866252E-03  0.1355744E+07  0.4771302E+01
  0.2357143E+00 -0.3326791E+06 -0.9079399E+01  0.9425307E-01  0.2191387E-02  0.1359496E+07  0.8471871E+01
  0.2666667E+00 -0.3336389E+06 -0.1556510E+02 -0.7965087E-01 -0.2384901E-02  0.1358928E+07  0.1458435E+02
  0.2976190E+00 -0.3346556E+06 -0.2624594E+02  0.5085938E-01  0.1256227E-02  0.1362444E+07  0.2473201E+02
  0.3285715E+00 -0.3368570E+06 -0.4375691E+02  0.2526324E-01 -0.7359982E-03  0.1362410E+07  0.4144085E+02
  0.3595238E+00 -0.3380068E+06 -0.7229633E+02  0.2716266E-02 -0.1295269E-02  0.1365630E+07  0.6886858E+02
  0.3904762E+00 -0.3387463E+06 -0.1186189E+03  0.7502858E-02  0.5551577E-03  0.1364561E+07  0.1136150E+03
  0.4214286E+00 -0.3423060E+06 -0.1926447E+03  0.2983481E-01  0.4179478E-03  0.1369105E+07  0.1858672E+03
  0.4523810E+00 -0.3443183E+06 -0.3100193E+03 -0.2698396E-03  0.4776716E-02  0.1372424E+07  0.3011726E+03
  0.4833333E+00 -0.3472333E+06 -0.4864866E+03  0.1894194E-01  0.1539707E-02  0.1374948E+07  0.4765048E+03
  0.5142857E+00 -0.3491819E+06 -0.7507993E+03  0.1708985E-01  0.1410007E-02  0.1382627E+07  0.7412871E+03
  0.5452381E+00 -0.3537501E+06 -0.1134483E+04  0.4589631E-01  0.5909920E-02  0.1382036E+07  0.1127984E+04
  0.5761905E+00 -0.3572976E+06 -0.1672940E+04 -0.5529482E-01 -0.1254082E-02  0.1387180E+07  0.1677958E+04
  0.6071429E+00 -0.3600587E+06 -0.2420728E+04  0.9590417E-01  0.2046394E-01  0.1392727E+07  0.2449281E+04
  0.6380953E+00 -0.3645477E+06 -0.3423347E+04 -0.7690430E-01 -0.2919006E-01  0.1395788E+07  0.3492856E+04
  0.6690477E+00 -0.3694624E+06 -0.4764331E+04  0.5510106E-01  0.1822281E-01  0.1402141E+07  0.4898007E+04
  0.7000000E+00 -0.3744075E+06 -0.6538496E+04 -0.1813616E-01 -0.1778793E-01  0.1410238E+07  0.6785958E+04
  0.7309524E+00 -0.3805432E+06 -0.8832829E+04  0.3106232E-01  0.5294800E-02  0.1414619E+07  0.9252347E+04
  0.7619048E+00 -0.3854349E+06 -0.1175848E+05  0.4037475E-01  0.1500702E-01  0.1421016E+07  0.1243301E+05
  0.7928572E+00 -0.3902884E+06 -0.1545500E+05  0.8714280E-01  0.5084229E-01  0.1432665E+07  0.1650717E+05
  0.8238096E+00 -0.3960050E+06 -0.2004165E+05 -0.4652784E-01 -0.3436279E-01  0.1433647E+07  0.2152649E+05
  0.8547620E+00 -0.4040638E+06 -0.2573572E+05  0.4798485E-01  0.2029419E-02  0.1444107E+07  0.2790123E+05
  0.8857143E+00 -0.4101946E+06 -0.3269916E+05 -0.6201959E-01 -0.3308105E-01  0.1452230E+07  0.3578755E+05
  0.9166667E+00 -0.4161887E+06 -0.4114898E+05  0.1917614E-01  0.1443481E-01  0.1465994E+07  0.4555962E+05
  0.9476191E+00 -0.4208922E+06 -0.5112921E+05 -0.1442761E-01 -0.3549194E-01  0.1466410E+07  0.5702214E+05
  0.9785714E+00 -0.4267840E+06 -0.6288269E+05 -0.1247434E-01  0.7415771E-02  0.1474798E+07  0.7083788E+05
  0.1009524E+01 -0.4306343E+06 -0.7639942E+05 -0.2418374E-03 -0.2502441E-02  0.1481029E+07  0.8684201E+05
  0.1040476E+01 -0.4337546E+06 -0.9179148E+05  0.2346432E-02 -0.2264404E-01  0.1488045E+07  0.1050998E+06
  0.1071429E+01 -0.4359000E+06 -0.1091832E+06 -0.6152344E-02 -0.3521729E-01  0.1493467E+07  0.1259869E+06
  0.1102381E+01 -0.4362961E+06 -0.1283642E+06 -0.2303253E-01 -0.4809570E-01  0.1489359E+07  0.1489798E+06
  0.1133333E+01 -0.4367434E+06 -0.1494199E+06  0.2089556E-01  0.3588867E-01  0.1492309E+07  0.1750654E+06
  0.1164286E+01 -0.4338061E+06 -0.1717967E+06 -0.8387653E-02 -0.5920410E-01  0.1490669E+07  0.2030721E+06
  0.1195238E+01 -0.4287208E+06 -0.1951687E+06 -0.2859655E-02 -0.3466797E-01  0.1487513E+07  0.2324306E+06
  0.1226190E+01 -0.4223633E+06 -0.2194317E+06  0.8561514E-02 -0.1379395E-01  0.1485813E+07  0.2635796E+06
  0.1257143E+01 -0.4129107E+06 -0.2434083E+06 -0.7185502E-01 -0.1379395E-01  0.1469269E+07  0.2934163E+06
  0.1288095E+01 -0.4034162E+06 -0.2675743E+06  0.3487466E-01  0.3491211E-01  0.1456705E+07  0.3245838E+06
  0.1319048E+01 -0.3923223E+06 -0.2909942E+06  0.4331072E-01  0.6372070E-01  0.1444984E+07  0.3557802E+06
  0.1350000E+01 -0.3789878E+06 -0.3128578E+06  0.2893518E-02  0.4736328E-01  0.1429122E+07  0.3846032E+06
  0.1380952E+01 -0.3645088E+06 -0.3335767E+06 -0.1343615E-01 -0.3405762E-01  0.1414121E+07  0.4133623E+06
  0.1411905E+01 -0.3488322E+06 -0.3529520E+06 -0.5187473E-02  0.3784180E-01  0.1400587E+07  0.4422333E+06
  0.1442857E+01 -0.3328120E+06 -0.3690353E+06 -0.3045715E-02 -0.4028320E-02  0.1376096E+07  0.4626235E+06
  0.1473810E+01 -0.3173327E+06 -0.3831729E+06  0.2948619E-01  0.9765625E-02  0.1352108E+07  0.4801570E+06
  0.1504762E+01 -0.3033873E+06 -0.3963588E+06 -0.3699194E-01 -0.6103516E-01  0.1335596E+07  0.5003878E+06
  0.1535714E+01 -0.2883631E+06 -0.4067788E+06  0.1144622E-01 -0.2307129E-01  0.1316807E+07  0.5166200E+06
  0.1566667E+01 -0.2731336E+06 -0.4147541E+06 -0.1184342E-01  0.4394531E-02  0.1296753E+07  0.5286953E+06
  0.1597619E+01 -0.2590016E+06 -0.4217768E+06  0.2261666E-01  0.1184082E-01  0.1281336E+07  0.5422904E+06
  0.1628572E+01 -0.2453367E+06 -0.4275704E+06  0.4797149E-02  0.2368164E-01  0.1267857E+07  0.5565392E+06
  0.1659524E+01 -0.2321135E+06 -0.4300385E+06  0.1441726E-01  0.1855469E-01  0.1247118E+07  0.5583887E+06
  0.1690476E+01 -0.2198892E+06 -0.4306801E+06 -0.2426276E-01 -0.7080078E-02  0.1225376E+07  0.5536622E+06
  0.1721429E+01 -0.2097220E+06 -0.4324030E+06  0.4793666E-01  0.1794434E-01  0.1211766E+07  0.5584173E+06
  0.1752381E+01 -0.1999502E+06 -0.4330604E+06  0.1142419E-01 -0.1220703E-02  0.1199187E+07  0.5631704E+06
  0.1783333E+01 -0.1901666E+06 -0.4320689E+06  0.1286872E-01 -0.2099609E-01  0.1185819E+07  0.5638414E+06
  0.1814286E+01 -0.1804545E+06 -0.4295618E+06  0.1022699E-01 -0.5371094E-02  0.1172219E+07  0.5612561E+06
  0.1845238E+01 -0.1714826E+06 -0.4275587E+06 -0.2222782E-01 -0.1220703E-03  0.1161582E+07  0.5652036E+06
  0.1876190E+01 -0.1627853E+06 -0.4250403E+06  0.3123017E-01  0.1202393E-01  0.1151608E+07  0.5702565E+06
  0.1907143E+01 -0.1547708E+06 -0.4205013E+06 -0.1689782E-01 -0.1989746E-01  0.1139446E+07  0.5626082E+06
  0.1938095E+01 -0.1474861E+06 -0.4140997E+06 -0.3124040E-01 -0.1000977E-01  0.1126520E+07  0.5437934E+06
  0.1969048E+01 -0.1408085E+06 -0.4084637E+06 -0.1438275E-01  0.7751465E-02  0.1115802E+07  0.5323647E+06
  0.2000000E+01 -0.1350906E+06 -0.4045519E+06  0.4882812E-02  0.9948730E-02  0.1107315E+07  0.5303458E+06
