VARIABLES="w (rad/s)"
"abs(F   1   1)" "angle(F   1   1)"
"abs(F   1   2)" "angle(F   1   2)"
"abs(F   1   3)" "angle(F   1   3)"
Zone t="Diffraction force - beta =   0.000 deg",I=    64,F=POINT
  0.5000000E-01  0.1605668E+04 -0.1570812E+01  0.3142755E+06 -0.2159642E-04  0.2355586E+02 -0.1570465E+01
  0.8095238E-01  0.2617754E+04 -0.1570797E+01  0.3137655E+06 -0.5810516E-04  0.3834658E+02 -0.1570589E+01
  0.1119048E+00  0.3657508E+04 -0.1570789E+01  0.3130164E+06 -0.1154086E-03  0.5352766E+02 -0.1570656E+01
  0.1428571E+00  0.4726595E+04 -0.1570805E+01  0.3120272E+06 -0.1979371E-03  0.6922331E+02 -0.1570694E+01
  0.1738095E+00  0.5851584E+04 -0.1570791E+01  0.3107968E+06 -0.3124040E-03  0.8629187E+02 -0.1570701E+01
  0.2047619E+00  0.7025589E+04 -0.1570778E+01  0.3093220E+06 -0.4684450E-03  0.1040398E+03 -0.1570706E+01
  0.2357143E+00  0.8287123E+04 -0.1570780E+01  0.3076012E+06 -0.6804172E-03  0.1233171E+03 -0.1570722E+01
  0.2666667E+00  0.9640660E+04 -0.1570776E+01  0.3056312E+06 -0.9658043E-03  0.1448773E+03 -0.1570728E+01
  0.2976190E+00  0.1110005E+05 -0.1570764E+01  0.3034102E+06 -0.1354086E-02  0.1677920E+03 -0.1570706E+01
  0.3285715E+00  0.1270952E+05 -0.1570752E+01  0.3009348E+06 -0.1875689E-02  0.1937303E+03 -0.1570709E+01
  0.3595238E+00  0.1448627E+05 -0.1570727E+01  0.2982125E+06 -0.2578352E-02  0.2234816E+03 -0.1570689E+01
  0.3904762E+00  0.1642905E+05 -0.1570695E+01  0.2952369E+06 -0.3516203E-02  0.2563302E+03 -0.1570661E+01
  0.4214286E+00  0.1859542E+05 -0.1570647E+01  0.2920343E+06 -0.4724407E-02  0.2930269E+03 -0.1570617E+01
  0.4523810E+00  0.2099531E+05 -0.1570573E+01  0.2886045E+06 -0.6296242E-02  0.3365410E+03 -0.1570551E+01
  0.4833333E+00  0.2361242E+05 -0.1570472E+01  0.2849738E+06 -0.8192901E-02  0.3833109E+03 -0.1570453E+01
  0.5142857E+00  0.2641232E+05 -0.1570330E+01  0.2811568E+06 -0.1052334E-01  0.4322878E+03 -0.1570311E+01
  0.5452381E+00  0.2946040E+05 -0.1570139E+01  0.2771571E+06 -0.1325699E-01  0.4905489E+03 -0.1570123E+01
  0.5761905E+00  0.3271489E+05 -0.1569893E+01  0.2730032E+06 -0.1640408E-01  0.5533451E+03 -0.1569879E+01
  0.6071429E+00  0.3612685E+05 -0.1569571E+01  0.2687119E+06 -0.2005707E-01  0.6220110E+03 -0.1569559E+01
  0.6380953E+00  0.3966306E+05 -0.1569168E+01  0.2642568E+06 -0.2413053E-01  0.6909039E+03 -0.1569158E+01
  0.6690477E+00  0.4336939E+05 -0.1568664E+01  0.2596826E+06 -0.2872030E-01  0.7661883E+03 -0.1568654E+01
  0.7000000E+00  0.4724862E+05 -0.1568042E+01  0.2550128E+06 -0.3388180E-01  0.8513484E+03 -0.1568033E+01
  0.7309524E+00  0.5128324E+05 -0.1567285E+01  0.2502264E+06 -0.3957358E-01  0.9432177E+03 -0.1567278E+01
  0.7619048E+00  0.5542232E+05 -0.1566373E+01  0.2453586E+06 -0.4585428E-01  0.1037041E+04 -0.1566367E+01
  0.7928572E+00  0.5961849E+05 -0.1565283E+01  0.2404288E+06 -0.5275658E-01  0.1131562E+04 -0.1565275E+01
  0.8238096E+00  0.6393888E+05 -0.1563995E+01  0.2354315E+06 -0.6029549E-01  0.1237158E+04 -0.1563988E+01
  0.8547620E+00  0.6841216E+05 -0.1562486E+01  0.2303856E+06 -0.6848453E-01  0.1349525E+04 -0.1562487E+01
  0.8857143E+00  0.7300409E+05 -0.1560735E+01  0.2253143E+06 -0.7734120E-01  0.1467724E+04 -0.1560735E+01
  0.9166667E+00  0.7767516E+05 -0.1558715E+01  0.2202337E+06 -0.8688145E-01  0.1595823E+04 -0.1558717E+01
  0.9476191E+00  0.8242334E+05 -0.1556401E+01  0.2151455E+06 -0.9711126E-01  0.1732600E+04 -0.1556403E+01
  0.9785714E+00  0.8719309E+05 -0.1553771E+01  0.2100573E+06 -0.1080365E+00  0.1865956E+04 -0.1553765E+01
  0.1009524E+01  0.9196660E+05 -0.1550803E+01  0.2049828E+06 -0.1196755E+00  0.2001484E+04 -0.1550791E+01
  0.1040476E+01  0.9680377E+05 -0.1547488E+01  0.1999338E+06 -0.1320418E+00  0.2148925E+04 -0.1547485E+01
  0.1071429E+01  0.1016998E+06 -0.1543818E+01  0.1949203E+06 -0.1451394E+00  0.2308391E+04 -0.1543845E+01
  0.1102381E+01  0.1066412E+06 -0.1539778E+01  0.1899439E+06 -0.1589653E+00  0.2477567E+04 -0.1539812E+01
  0.1133333E+01  0.1115744E+06 -0.1535359E+01  0.1850246E+06 -0.1735212E+00  0.2649119E+04 -0.1535402E+01
  0.1164286E+01  0.1164592E+06 -0.1530551E+01  0.1801593E+06 -0.1888120E+00  0.2824490E+04 -0.1530598E+01
  0.1195238E+01  0.1212696E+06 -0.1525356E+01  0.1753612E+06 -0.2048351E+00  0.3005322E+04 -0.1525388E+01
  0.1226190E+01  0.1259402E+06 -0.1519779E+01  0.1706255E+06 -0.2215923E+00  0.3187501E+04 -0.1519766E+01
  0.1257143E+01  0.1304430E+06 -0.1513811E+01  0.1659492E+06 -0.2392601E+00  0.3370356E+04 -0.1513731E+01
  0.1288095E+01  0.1348840E+06 -0.1507603E+01  0.1613395E+06 -0.2573253E+00  0.3562152E+04 -0.1507527E+01
  0.1319048E+01  0.1391574E+06 -0.1501125E+01  0.1568108E+06 -0.2763201E+00  0.3753646E+04 -0.1501078E+01
  0.1350000E+01  0.1432510E+06 -0.1494452E+01  0.1523655E+06 -0.2960582E+00  0.3945174E+04 -0.1494493E+01
  0.1380952E+01  0.1471381E+06 -0.1487636E+01  0.1480041E+06 -0.3165179E+00  0.4141404E+04 -0.1487656E+01
  0.1411905E+01  0.1504539E+06 -0.1481148E+01  0.1437952E+06 -0.3373821E+00  0.4311863E+04 -0.1481111E+01
  0.1442857E+01  0.1537933E+06 -0.1474275E+01  0.1396123E+06 -0.3593195E+00  0.4510090E+04 -0.1474186E+01
  0.1473810E+01  0.1568349E+06 -0.1467505E+01  0.1355063E+06 -0.3819836E+00  0.4707958E+04 -0.1467427E+01
  0.1504762E+01  0.1595696E+06 -0.1460980E+01  0.1314917E+06 -0.4053861E+00  0.4897392E+04 -0.1460910E+01
  0.1535714E+01  0.1619510E+06 -0.1454793E+01  0.1275695E+06 -0.4295282E+00  0.5076902E+04 -0.1454803E+01
  0.1566667E+01  0.1639831E+06 -0.1449053E+01  0.1237395E+06 -0.4544079E+00  0.5250458E+04 -0.1449098E+01
  0.1597619E+01  0.1656478E+06 -0.1443861E+01  0.1200109E+06 -0.4800375E+00  0.5420624E+04 -0.1443827E+01
  0.1628572E+01  0.1669342E+06 -0.1439328E+01  0.1163699E+06 -0.5064031E+00  0.5586609E+04 -0.1439201E+01
  0.1659524E+01  0.1678642E+06 -0.1435614E+01  0.1128127E+06 -0.5335048E+00  0.5747951E+04 -0.1435516E+01
  0.1690476E+01  0.1684368E+06 -0.1432835E+01  0.1093356E+06 -0.5613331E+00  0.5900837E+04 -0.1432691E+01
  0.1721429E+01  0.1686564E+06 -0.1431089E+01  0.1059452E+06 -0.5898876E+00  0.6040057E+04 -0.1431020E+01
  0.1752381E+01  0.1685260E+06 -0.1430464E+01  0.1026462E+06 -0.6191646E+00  0.6168181E+04 -0.1430418E+01
  0.1783333E+01  0.1680556E+06 -0.1431047E+01  0.9943445E+05 -0.6492100E+00  0.6281965E+04 -0.1430991E+01
  0.1814286E+01  0.1672786E+06 -0.1432946E+01  0.9630760E+05 -0.6799942E+00  0.6388939E+04 -0.1432923E+01
  0.1845238E+01  0.1662147E+06 -0.1436235E+01  0.9327705E+05 -0.7115129E+00  0.6489182E+04 -0.1436221E+01
  0.1876190E+01  0.1648820E+06 -0.1440966E+01  0.9032416E+05 -0.7437646E+00  0.6581496E+04 -0.1440980E+01
  0.1907143E+01  0.1633044E+06 -0.1447192E+01  0.8744823E+05 -0.7767899E+00  0.6664325E+04 -0.1447165E+01
  0.1938095E+01  0.1615115E+06 -0.1454961E+01  0.8464491E+05 -0.8105445E+00  0.6737911E+04 -0.1454817E+01
  0.1969048E+01  0.1595328E+06 -0.1464295E+01  0.8191177E+05 -0.8450428E+00  0.6800740E+04 -0.1464033E+01
  0.2000000E+01  0.1573890E+06 -0.1475215E+01  0.7925665E+05 -0.8802649E+00  0.6851419E+04 -0.1474944E+01
