VARIABLES="w (rad/s)"
"abs(F   1   1)" "angle(F   1   1)"
"abs(F   1   2)" "angle(F   1   2)"
"abs(F   1   3)" "angle(F   1   3)"
Zone t="Diffraction force - beta =   0.000 deg",I=    64,F=POINT
  0.5000000E-01  0.6590021E+04 -0.1570779E+01  0.2787620E+06 -0.1852654E-04  0.2419997E+05  0.1570807E+01
  0.8095238E-01  0.1075770E+05 -0.1570794E+01  0.2776423E+06 -0.4973588E-04  0.3947326E+05  0.1570803E+01
  0.1119048E+00  0.1500201E+05 -0.1570789E+01  0.2759986E+06 -0.9844893E-04  0.5499505E+05  0.1570796E+01
  0.1428571E+00  0.1937756E+05 -0.1570781E+01  0.2738323E+06 -0.1681750E-03  0.7097569E+05  0.1570807E+01
  0.1738095E+00  0.2391484E+05 -0.1570776E+01  0.2711514E+06 -0.2638435E-03  0.8748770E+05  0.1570819E+01
  0.2047619E+00  0.2867561E+05 -0.1570760E+01  0.2679572E+06 -0.3932617E-03  0.1047824E+06  0.1570835E+01
  0.2357143E+00  0.3370761E+05 -0.1570744E+01  0.2642544E+06 -0.5671439E-03  0.1229762E+06  0.1570854E+01
  0.2666667E+00  0.3907579E+05 -0.1570716E+01  0.2600677E+06 -0.7976780E-03  0.1423113E+06  0.1570878E+01
  0.2976190E+00  0.4487559E+05 -0.1570676E+01  0.2553886E+06 -0.1108482E-02  0.1631251E+06  0.1570919E+01
  0.3285715E+00  0.5115584E+05 -0.1570618E+01  0.2502685E+06 -0.1518735E-02  0.1855270E+06  0.1570973E+01
  0.3595238E+00  0.5803856E+05 -0.1570532E+01  0.2446985E+06 -0.2065216E-02  0.2099516E+06  0.1571061E+01
  0.3904762E+00  0.6555494E+05 -0.1570400E+01  0.2387487E+06 -0.2782545E-02  0.2366053E+06  0.1571191E+01
  0.4214286E+00  0.7384714E+05 -0.1570214E+01  0.2324336E+06 -0.3689970E-02  0.2656918E+06  0.1571378E+01
  0.4523810E+00  0.8287141E+05 -0.1569939E+01  0.2258127E+06 -0.4865213E-02  0.2972097E+06  0.1571652E+01
  0.4833333E+00  0.9267474E+05 -0.1569561E+01  0.2189414E+06 -0.6244680E-02  0.3312598E+06  0.1572030E+01
  0.5142857E+00  0.1032100E+06 -0.1569041E+01  0.2118311E+06 -0.7928244E-02  0.3676848E+06  0.1572551E+01
  0.5452381E+00  0.1144018E+06 -0.1568352E+01  0.2045874E+06 -0.9868498E-02  0.4059644E+06  0.1573240E+01
  0.5761905E+00  0.1262105E+06 -0.1567463E+01  0.1971652E+06 -0.1206099E-01  0.4459032E+06  0.1574128E+01
  0.6071429E+00  0.1384374E+06 -0.1566324E+01  0.1896661E+06 -0.1459597E-01  0.4870358E+06  0.1575269E+01
  0.6380953E+00  0.1511255E+06 -0.1564913E+01  0.1820967E+06 -0.1736219E-01  0.5294334E+06  0.1576680E+01
  0.6690477E+00  0.1642628E+06 -0.1563176E+01  0.1744315E+06 -0.2045433E-01  0.5726306E+06  0.1578416E+01
  0.7000000E+00  0.1776132E+06 -0.1561057E+01  0.1668025E+06 -0.2390294E-01  0.6159331E+06  0.1580535E+01
  0.7309524E+00  0.1912929E+06 -0.1558520E+01  0.1591927E+06 -0.2766270E-01  0.6598291E+06  0.1583072E+01
  0.7619048E+00  0.2052373E+06 -0.1555503E+01  0.1515811E+06 -0.3180229E-01  0.7038397E+06  0.1586089E+01
  0.7928572E+00  0.2193057E+06 -0.1551948E+01  0.1440258E+06 -0.3634190E-01  0.7478632E+06  0.1589645E+01
  0.8238096E+00  0.2334653E+06 -0.1547801E+01  0.1366486E+06 -0.4124026E-01  0.7915242E+06  0.1593790E+01
  0.8547620E+00  0.2477498E+06 -0.1543017E+01  0.1293534E+06 -0.4658426E-01  0.8344245E+06  0.1598574E+01
  0.8857143E+00  0.2622000E+06 -0.1537535E+01  0.1221563E+06 -0.5241932E-01  0.8768217E+06  0.1604056E+01
  0.9166667E+00  0.2764789E+06 -0.1531296E+01  0.1151149E+06 -0.5870814E-01  0.9180761E+06  0.1610293E+01
  0.9476191E+00  0.2906296E+06 -0.1524252E+01  0.1083407E+06 -0.6535482E-01  0.9580926E+06  0.1617336E+01
  0.9785714E+00  0.3046528E+06 -0.1516359E+01  0.1017387E+06 -0.7257303E-01  0.9967702E+06  0.1625227E+01
  0.1009524E+01  0.3184803E+06 -0.1507583E+01  0.9531171E+05 -0.8042438E-01  0.1033910E+07  0.1634002E+01
  0.1040476E+01  0.3320235E+06 -0.1497918E+01  0.8906000E+05 -0.8901662E-01  0.1069250E+07  0.1643664E+01
  0.1071429E+01  0.3449561E+06 -0.1487376E+01  0.8313577E+05 -0.9776272E-01  0.1101218E+07  0.1654196E+01
  0.1102381E+01  0.3575711E+06 -0.1475907E+01  0.7746349E+05 -0.1070826E+00  0.1131346E+07  0.1665661E+01
  0.1133333E+01  0.3694556E+06 -0.1463542E+01  0.7201918E+05 -0.1171454E+00  0.1158039E+07  0.1678019E+01
  0.1164286E+01  0.3807286E+06 -0.1450298E+01  0.6679573E+05 -0.1280332E+00  0.1181813E+07  0.1691255E+01
  0.1195238E+01  0.3912061E+06 -0.1436207E+01  0.6179534E+05 -0.1399251E+00  0.1202462E+07  0.1705335E+01
  0.1226190E+01  0.4005284E+06 -0.1421363E+01  0.5709276E+05 -0.1519909E+00  0.1218672E+07  0.1720160E+01
  0.1257143E+01  0.4086348E+06 -0.1405825E+01  0.5267946E+05 -0.1644858E+00  0.1230832E+07  0.1735691E+01
  0.1288095E+01  0.4160719E+06 -0.1389692E+01  0.4850508E+05 -0.1776626E+00  0.1240118E+07  0.1751814E+01
  0.1319048E+01  0.4219912E+06 -0.1373313E+01  0.4457599E+05 -0.1918141E+00  0.1243644E+07  0.1768164E+01
  0.1350000E+01  0.4268026E+06 -0.1356704E+01  0.4086229E+05 -0.2071161E+00  0.1243211E+07  0.1784735E+01
  0.1380952E+01  0.4303275E+06 -0.1339975E+01  0.3737195E+05 -0.2236347E+00  0.1238731E+07  0.1801434E+01
  0.1411905E+01  0.4316225E+06 -0.1323797E+01  0.3413243E+05 -0.2400358E+00  0.1228162E+07  0.1817554E+01
  0.1442857E+01  0.4320607E+06 -0.1307526E+01  0.3112305E+05 -0.2567168E+00  0.1214115E+07  0.1833775E+01
  0.1473810E+01  0.4313440E+06 -0.1291579E+01  0.2834386E+05 -0.2739131E+00  0.1197174E+07  0.1849711E+01
  0.1504762E+01  0.4290934E+06 -0.1276529E+01  0.2575628E+05 -0.2922890E+00  0.1175277E+07  0.1864684E+01
  0.1535714E+01  0.4257696E+06 -0.1262403E+01  0.2335983E+05 -0.3115849E+00  0.1150279E+07  0.1878739E+01
  0.1566667E+01  0.4213842E+06 -0.1249310E+01  0.2112746E+05 -0.3328517E+00  0.1122582E+07  0.1891715E+01
  0.1597619E+01  0.4157819E+06 -0.1237368E+01  0.1908511E+05 -0.3546730E+00  0.1092255E+07  0.1903621E+01
  0.1628572E+01  0.4090463E+06 -0.1226908E+01  0.1720138E+05 -0.3768708E+00  0.1058987E+07  0.1913935E+01
  0.1659524E+01  0.4013449E+06 -0.1217992E+01  0.1546522E+05 -0.4000527E+00  0.1023570E+07  0.1922678E+01
  0.1690476E+01  0.3931158E+06 -0.1210478E+01  0.1390391E+05 -0.4217228E+00  0.9878177E+06  0.1930188E+01
  0.1721429E+01  0.3842737E+06 -0.1204788E+01  0.1246865E+05 -0.4453163E+00  0.9509151E+06  0.1935808E+01
  0.1752381E+01  0.3748092E+06 -0.1201029E+01  0.1116047E+05 -0.4694096E+00  0.9127286E+06  0.1939329E+01
  0.1783333E+01  0.3650702E+06 -0.1198972E+01  0.9963452E+04 -0.4954615E+00  0.8747614E+06  0.1941213E+01
  0.1814286E+01  0.3551285E+06 -0.1198641E+01  0.8873282E+04 -0.5247501E+00  0.8372629E+06  0.1941383E+01
  0.1845238E+01  0.3448315E+06 -0.1200201E+01  0.7893901E+04 -0.5525024E+00  0.7998569E+06  0.1939811E+01
  0.1876190E+01  0.3344189E+06 -0.1203800E+01  0.6999857E+04 -0.5826464E+00  0.7627384E+06  0.1935982E+01
  0.1907143E+01  0.3238913E+06 -0.1209465E+01  0.6188353E+04 -0.6170756E+00  0.7259842E+06  0.1929893E+01
  0.1938095E+01  0.3135018E+06 -0.1216645E+01  0.5465437E+04 -0.6464474E+00  0.6907261E+06  0.1922726E+01
  0.1969048E+01  0.3032742E+06 -0.1225402E+01  0.4821779E+04 -0.6750085E+00  0.6568904E+06  0.1914265E+01
  0.2000000E+01  0.2930714E+06 -0.1236423E+01  0.4237330E+04 -0.7104121E+00  0.6234476E+06  0.1902859E+01
