VARIABLES="w (rad/s)"
"abs(F   1   1)" "angle(F   1   1)"
"abs(F   1   2)" "angle(F   1   2)"
"abs(F   1   3)" "angle(F   1   3)"
Zone t="Diffraction force - beta =   0.000 deg",I=    64,F=POINT
  0.5000000E-01  0.1362445E+04 -0.1570794E+01  0.3741970E+03 -0.3082007E+01  0.2771234E+02 -0.1570793E+01
  0.8095238E-01  0.2225165E+04 -0.1570790E+01  0.9671519E+03 -0.3079731E+01  0.4552171E+02 -0.1570787E+01
  0.1119048E+00  0.3099256E+04 -0.1570783E+01  0.1833748E+04 -0.3077047E+01  0.6308754E+02 -0.1570778E+01
  0.1428571E+00  0.4011767E+04 -0.1570773E+01  0.2975377E+04 -0.3073722E+01  0.8277619E+02 -0.1570765E+01
  0.1738095E+00  0.4959888E+04 -0.1570758E+01  0.4398406E+04 -0.3069610E+01  0.1021648E+03 -0.1570745E+01
  0.2047619E+00  0.5964231E+04 -0.1570736E+01  0.6108185E+04 -0.3064480E+01  0.1245012E+03 -0.1570718E+01
  0.2357143E+00  0.7013074E+04 -0.1570704E+01  0.8112114E+04 -0.3058031E+01  0.1467236E+03 -0.1570676E+01
  0.2666667E+00  0.8161457E+04 -0.1570658E+01  0.1042142E+05 -0.3050260E+01  0.1723386E+03 -0.1570617E+01
  0.2976190E+00  0.9404192E+04 -0.1570589E+01  0.1303796E+05 -0.3040461E+01  0.2012855E+03 -0.1570530E+01
  0.3285715E+00  0.1073655E+05 -0.1570487E+01  0.1597977E+05 -0.3028849E+01  0.2323036E+03 -0.1570401E+01
  0.3595238E+00  0.1223203E+05 -0.1570334E+01  0.1922856E+05 -0.3014704E+01  0.2681916E+03 -0.1570209E+01
  0.3904762E+00  0.1389889E+05 -0.1570107E+01  0.2280592E+05 -0.2998072E+01  0.3133004E+03 -0.1569933E+01
  0.4214286E+00  0.1569858E+05 -0.1569772E+01  0.2663565E+05 -0.2979387E+01  0.3532105E+03 -0.1569504E+01
  0.4523810E+00  0.1766905E+05 -0.1569281E+01  0.3075859E+05 -0.2957854E+01  0.4051946E+03 -0.1568900E+01
  0.4833333E+00  0.1989917E+05 -0.1568606E+01  0.3507290E+05 -0.2936099E+01  0.4654272E+03 -0.1568073E+01
  0.5142857E+00  0.2230094E+05 -0.1567669E+01  0.3956149E+05 -0.2912404E+01  0.5343376E+03 -0.1566945E+01
  0.5452381E+00  0.2479377E+05 -0.1566414E+01  0.4422592E+05 -0.2888947E+01  0.5980836E+03 -0.1565379E+01
  0.5761905E+00  0.2746335E+05 -0.1564788E+01  0.4900428E+05 -0.2865895E+01  0.6703441E+03 -0.1563364E+01
  0.6071429E+00  0.3035538E+05 -0.1562707E+01  0.5386714E+05 -0.2842088E+01  0.7633796E+03 -0.1560915E+01
  0.6380953E+00  0.3340898E+05 -0.1560129E+01  0.5885260E+05 -0.2819924E+01  0.8638072E+03 -0.1557895E+01
  0.6690477E+00  0.3649302E+05 -0.1556917E+01  0.6387754E+05 -0.2797868E+01  0.9530613E+03 -0.1553954E+01
  0.7000000E+00  0.3959796E+05 -0.1552954E+01  0.6893319E+05 -0.2775693E+01  0.1050735E+04 -0.1549161E+01
  0.7309524E+00  0.4292713E+05 -0.1548244E+01  0.7405307E+05 -0.2754628E+01  0.1167289E+04 -0.1543643E+01
  0.7619048E+00  0.4641212E+05 -0.1542663E+01  0.7915511E+05 -0.2733858E+01  0.1289539E+04 -0.1537072E+01
  0.7928572E+00  0.4996691E+05 -0.1536076E+01  0.8420045E+05 -0.2713198E+01  0.1428850E+04 -0.1529552E+01
  0.8238096E+00  0.5357152E+05 -0.1528375E+01  0.8921616E+05 -0.2693106E+01  0.1576411E+04 -0.1520824E+01
  0.8547620E+00  0.5710451E+05 -0.1519390E+01  0.9418573E+05 -0.2673678E+01  0.1700868E+04 -0.1510001E+01
  0.8857143E+00  0.6064548E+05 -0.1509079E+01  0.9907248E+05 -0.2654776E+01  0.1833769E+04 -0.1497703E+01
  0.9166667E+00  0.6426254E+05 -0.1497449E+01  0.1038524E+06 -0.2636315E+01  0.1998016E+04 -0.1484637E+01
  0.9476191E+00  0.6796547E+05 -0.1484473E+01  0.1085008E+06 -0.2618316E+01  0.2180217E+04 -0.1470367E+01
  0.9785714E+00  0.7163735E+05 -0.1470012E+01  0.1129986E+06 -0.2600806E+01  0.2358698E+04 -0.1454191E+01
  0.1009524E+01  0.7518862E+05 -0.1453934E+01  0.1173338E+06 -0.2583783E+01  0.2534024E+04 -0.1436032E+01
  0.1040476E+01  0.7853226E+05 -0.1436111E+01  0.1214912E+06 -0.2567229E+01  0.2709572E+04 -0.1415870E+01
  0.1071429E+01  0.8160133E+05 -0.1416450E+01  0.1254763E+06 -0.2551322E+01  0.2877485E+04 -0.1393356E+01
  0.1102381E+01  0.8442841E+05 -0.1395069E+01  0.1292927E+06 -0.2536217E+01  0.3050802E+04 -0.1369406E+01
  0.1133333E+01  0.8704882E+05 -0.1372240E+01  0.1329002E+06 -0.2521561E+01  0.3216550E+04 -0.1343687E+01
  0.1164286E+01  0.8935891E+05 -0.1347920E+01  0.1362962E+06 -0.2507436E+01  0.3371424E+04 -0.1316245E+01
  0.1195238E+01  0.9130173E+05 -0.1322138E+01  0.1394548E+06 -0.2493686E+01  0.3529830E+04 -0.1287435E+01
  0.1226190E+01  0.9277931E+05 -0.1294833E+01  0.1423854E+06 -0.2480507E+01  0.3682714E+04 -0.1257350E+01
  0.1257143E+01  0.9374785E+05 -0.1265864E+01  0.1451181E+06 -0.2467754E+01  0.3825156E+04 -0.1225875E+01
  0.1288095E+01  0.9424599E+05 -0.1236410E+01  0.1475416E+06 -0.2455935E+01  0.3945042E+04 -0.1193741E+01
  0.1319048E+01  0.9412527E+05 -0.1205682E+01  0.1497433E+06 -0.2444336E+01  0.4027261E+04 -0.1159334E+01
  0.1350000E+01  0.9340177E+05 -0.1174163E+01  0.1516912E+06 -0.2433251E+01  0.4078981E+04 -0.1123413E+01
  0.1380952E+01  0.9204767E+05 -0.1141927E+01  0.1533714E+06 -0.2422669E+01  0.4115544E+04 -0.1087050E+01
  0.1411905E+01  0.8949407E+05 -0.1109087E+01  0.1546560E+06 -0.2412122E+01  0.4061221E+04 -0.1046389E+01
  0.1442857E+01  0.8685782E+05 -0.1075926E+01  0.1558267E+06 -0.2402545E+01  0.4052571E+04 -0.1010643E+01
  0.1473810E+01  0.8358550E+05 -0.1042609E+01  0.1567329E+06 -0.2393528E+01  0.4003186E+04 -0.9743667E+00
  0.1504762E+01  0.7969033E+05 -0.1009170E+01  0.1573694E+06 -0.2384982E+01  0.3907194E+04 -0.9367368E+00
  0.1535714E+01  0.7516773E+05 -0.9754146E+00  0.1577453E+06 -0.2376864E+01  0.3762555E+04 -0.8966410E+00
  0.1566667E+01  0.7008059E+05 -0.9416209E+00  0.1578585E+06 -0.2369249E+01  0.3586569E+04 -0.8572260E+00
  0.1597619E+01  0.6445854E+05 -0.9076574E+00  0.1577026E+06 -0.2361892E+01  0.3381473E+04 -0.8188310E+00
  0.1628572E+01  0.5834728E+05 -0.8732405E+00  0.1572931E+06 -0.2355115E+01  0.3138881E+04 -0.7803940E+00
  0.1659524E+01  0.5178757E+05 -0.8378940E+00  0.1566294E+06 -0.2348844E+01  0.2859146E+04 -0.7401481E+00
  0.1690476E+01  0.4485338E+05 -0.8010967E+00  0.1557036E+06 -0.2343198E+01  0.2540083E+04 -0.6972182E+00
  0.1721429E+01  0.3759028E+05 -0.7612350E+00  0.1545139E+06 -0.2338094E+01  0.2176348E+04 -0.6468962E+00
  0.1752381E+01  0.3004062E+05 -0.7146434E+00  0.1530749E+06 -0.2333444E+01  0.1771338E+04 -0.5850043E+00
  0.1783333E+01  0.2227015E+05 -0.6532146E+00  0.1513993E+06 -0.2329257E+01  0.1330828E+04 -0.4959913E+00
  0.1814286E+01  0.1437767E+05 -0.5506010E+00  0.1494816E+06 -0.2325601E+01  0.8731416E+03 -0.3392441E+00
  0.1845238E+01  0.6662169E+04 -0.2554493E+00  0.1473286E+06 -0.2322195E+01  0.4418823E+03  0.9448735E-01
  0.1876190E+01  0.3974273E+04  0.1489665E+01  0.1449466E+06 -0.2319495E+01  0.3702285E+03  0.1526819E+01
  0.1907143E+01  0.1117759E+05  0.2144624E+01  0.1423420E+06 -0.2317405E+01  0.8175908E+03  0.2142209E+01
  0.1938095E+01  0.1930543E+05  0.2286072E+01  0.1395099E+06 -0.2316116E+01  0.1373164E+04  0.2321202E+01
  0.1969048E+01  0.2752061E+05  0.2353371E+01  0.1364564E+06 -0.2315518E+01  0.1969965E+04  0.2409466E+01
  0.2000000E+01  0.3570355E+05  0.2396704E+01  0.1331841E+06 -0.2315682E+01  0.2596427E+04  0.2466074E+01
