VARIABLES="w (rad/s)"
"abs(F   1   1)" "angle(F   1   1)"
"abs(F   1   2)" "angle(F   1   2)"
"abs(F   1   3)" "angle(F   1   3)"
Zone t="Diffraction force - beta =   0.000 deg",I=    64,F=POINT
  0.5000000E-01  0.3524542E+04 -0.1570762E+01  0.3679572E+06 -0.2946417E-04  0.2279977E+04  0.1570825E+01
  0.8095238E-01  0.5746918E+04 -0.1570791E+01  0.3671345E+06 -0.7924491E-04  0.3710656E+04  0.1570761E+01
  0.1119048E+00  0.8013273E+04 -0.1570795E+01  0.3659257E+06 -0.1572941E-03  0.5154526E+04  0.1570819E+01
  0.1428571E+00  0.1034796E+05 -0.1570788E+01  0.3643304E+06 -0.2696176E-03  0.6625412E+04  0.1570809E+01
  0.1738095E+00  0.1277488E+05 -0.1570783E+01  0.3623481E+06 -0.4251093E-03  0.8123844E+04  0.1570804E+01
  0.2047619E+00  0.1531930E+05 -0.1570774E+01  0.3599745E+06 -0.6368105E-03  0.9673287E+04  0.1570825E+01
  0.2357143E+00  0.1800973E+05 -0.1570760E+01  0.3572071E+06 -0.9239225E-03  0.1127246E+05  0.1570829E+01
  0.2666667E+00  0.2089030E+05 -0.1570747E+01  0.3540465E+06 -0.1309418E-02  0.1293352E+05  0.1570848E+01
  0.2976190E+00  0.2399094E+05 -0.1570722E+01  0.3504869E+06 -0.1833320E-02  0.1468674E+05  0.1570866E+01
  0.3285715E+00  0.2735491E+05 -0.1570686E+01  0.3465280E+06 -0.2534909E-02  0.1653445E+05  0.1570908E+01
  0.3595238E+00  0.3104211E+05 -0.1570632E+01  0.3421868E+06 -0.3478824E-02  0.1847538E+05  0.1570962E+01
  0.3904762E+00  0.3508403E+05 -0.1570551E+01  0.3374565E+06 -0.4734436E-02  0.2055092E+05  0.1571046E+01
  0.4214286E+00  0.3951207E+05 -0.1570436E+01  0.3323706E+06 -0.6349058E-02  0.2274926E+05  0.1571155E+01
  0.4523810E+00  0.4434890E+05 -0.1570268E+01  0.3269412E+06 -0.8447443E-02  0.2503525E+05  0.1571323E+01
  0.4833333E+00  0.4960889E+05 -0.1570036E+01  0.3212198E+06 -0.1097130E-01  0.2738917E+05  0.1571555E+01
  0.5142857E+00  0.5524141E+05 -0.1569720E+01  0.3152133E+06 -0.1406971E-01  0.2982888E+05  0.1571869E+01
  0.5452381E+00  0.6119092E+05 -0.1569303E+01  0.3089386E+06 -0.1769511E-01  0.3228656E+05  0.1572287E+01
  0.5761905E+00  0.6745030E+05 -0.1568769E+01  0.3024421E+06 -0.2186018E-01  0.3464721E+05  0.1572818E+01
  0.6071429E+00  0.7397597E+05 -0.1568088E+01  0.2957500E+06 -0.2669051E-01  0.3689543E+05  0.1573496E+01
  0.6380953E+00  0.8069760E+05 -0.1567255E+01  0.2888331E+06 -0.3207169E-01  0.3905687E+05  0.1574328E+01
  0.6690477E+00  0.8755519E+05 -0.1566242E+01  0.2817353E+06 -0.3812321E-01  0.4107719E+05  0.1575334E+01
  0.7000000E+00  0.9453726E+05 -0.1565020E+01  0.2744963E+06 -0.4492674E-01  0.4285595E+05  0.1576551E+01
  0.7309524E+00  0.1016327E+06 -0.1563580E+01  0.2671182E+06 -0.5243588E-01  0.4435346E+05  0.1577981E+01
  0.7619048E+00  0.1088049E+06 -0.1561900E+01  0.2596314E+06 -0.6071868E-01  0.4556274E+05  0.1579643E+01
  0.7928572E+00  0.1159959E+06 -0.1559960E+01  0.2520543E+06 -0.6981790E-01  0.4651460E+05  0.1581562E+01
  0.8238096E+00  0.1231408E+06 -0.1557747E+01  0.2443930E+06 -0.7976955E-01  0.4721197E+05  0.1583733E+01
  0.8547620E+00  0.1302249E+06 -0.1555259E+01  0.2366522E+06 -0.9059570E-01  0.4756137E+05  0.1586163E+01
  0.8857143E+00  0.1372227E+06 -0.1552497E+01  0.2288803E+06 -0.1023419E+00  0.4749425E+05  0.1588858E+01
  0.9166667E+00  0.1441020E+06 -0.1549472E+01  0.2210942E+06 -0.1150363E+00  0.4702435E+05  0.1591799E+01
  0.9476191E+00  0.1508020E+06 -0.1546197E+01  0.2133250E+06 -0.1287031E+00  0.4617352E+05  0.1594960E+01
  0.9785714E+00  0.1572895E+06 -0.1542700E+01  0.2055530E+06 -0.1433538E+00  0.4495468E+05  0.1598291E+01
  0.1009524E+01  0.1634781E+06 -0.1539015E+01  0.1977946E+06 -0.1590320E+00  0.4337643E+05  0.1601714E+01
  0.1040476E+01  0.1693266E+06 -0.1535193E+01  0.1900379E+06 -0.1757926E+00  0.4143973E+05  0.1605144E+01
  0.1071429E+01  0.1747937E+06 -0.1531307E+01  0.1823104E+06 -0.1936914E+00  0.3915060E+05  0.1608488E+01
  0.1102381E+01  0.1798256E+06 -0.1527439E+01  0.1746354E+06 -0.2127988E+00  0.3646974E+05  0.1611635E+01
  0.1133333E+01  0.1844093E+06 -0.1523692E+01  0.1670176E+06 -0.2331554E+00  0.3341828E+05  0.1614408E+01
  0.1164286E+01  0.1884828E+06 -0.1520166E+01  0.1594584E+06 -0.2548233E+00  0.3005371E+05  0.1616585E+01
  0.1195238E+01  0.1920215E+06 -0.1516982E+01  0.1519488E+06 -0.2778651E+00  0.2641755E+05  0.1617838E+01
  0.1226190E+01  0.1949877E+06 -0.1514273E+01  0.1444961E+06 -0.3024053E+00  0.2255549E+05  0.1617738E+01
  0.1257143E+01  0.1973320E+06 -0.1512143E+01  0.1371541E+06 -0.3287052E+00  0.1850727E+05  0.1615618E+01
  0.1288095E+01  0.1990885E+06 -0.1510856E+01  0.1298245E+06 -0.3567268E+00  0.1430970E+05  0.1610045E+01
  0.1319048E+01  0.2002086E+06 -0.1510456E+01  0.1225911E+06 -0.3869780E+00  0.1002205E+05  0.1597645E+01
  0.1350000E+01  0.2007029E+06 -0.1511140E+01  0.1154316E+06 -0.4196260E+00  0.5689099E+04  0.1564893E+01
  0.1380952E+01  0.2005852E+06 -0.1513065E+01  0.1083321E+06 -0.4550883E+00  0.1414806E+04  0.1340233E+01
  0.1411905E+01  0.1999055E+06 -0.1516290E+01  0.1014290E+06 -0.4936532E+00  0.2978477E+04 -0.1374265E+01
  0.1442857E+01  0.1986374E+06 -0.1521072E+01  0.9454575E+05 -0.5363613E+00  0.7142110E+04 -0.1461337E+01
  0.1473810E+01  0.1968346E+06 -0.1527523E+01  0.8776234E+05 -0.5839871E+00  0.1115233E+05 -0.1490868E+01
  0.1504762E+01  0.1945233E+06 -0.1535794E+01  0.8109896E+05 -0.6376716E+00  0.1499188E+05 -0.1511147E+01
  0.1535714E+01  0.1917457E+06 -0.1545987E+01  0.7463094E+05 -0.6988234E+00  0.1858665E+05 -0.1530086E+01
  0.1566667E+01  0.1885506E+06 -0.1558233E+01  0.6837439E+05 -0.7695459E+00  0.2192192E+05 -0.1550010E+01
  0.1597619E+01  0.1849798E+06 -0.1572636E+01  0.6243564E+05 -0.8524572E+00  0.2496272E+05 -0.1572213E+01
  0.1628572E+01  0.1810838E+06 -0.1589299E+01  0.5694581E+05 -0.9503692E+00  0.2771492E+05 -0.1596997E+01
  0.1659524E+01  0.1769100E+06 -0.1608290E+01  0.5205551E+05 -0.1065958E+01  0.3013477E+05 -0.1625310E+01
  0.1690476E+01  0.1725055E+06 -0.1629689E+01  0.4794814E+05 -0.1201314E+01  0.3222738E+05 -0.1657565E+01
  0.1721429E+01  0.1679055E+06 -0.1653605E+01  0.4480972E+05 -0.1356987E+01  0.3401891E+05 -0.1693691E+01
  0.1752381E+01  0.1631609E+06 -0.1680062E+01  0.4287449E+05 -0.1528567E+01  0.3548045E+05 -0.1734886E+01
  0.1783333E+01  0.1583119E+06 -0.1709122E+01  0.4225639E+05 -0.1706503E+01  0.3664496E+05 -0.1781335E+01
  0.1814286E+01  0.1533906E+06 -0.1740880E+01  0.4293316E+05 -0.1880137E+01  0.3755496E+05 -0.1833173E+01
  0.1845238E+01  0.1484322E+06 -0.1775342E+01  0.4475647E+05 -0.2038586E+01  0.3820322E+05 -0.1891923E+01
  0.1876190E+01  0.1434777E+06 -0.1812628E+01  0.4744959E+05 -0.2175668E+01  0.3869493E+05 -0.1956692E+01
  0.1907143E+01  0.1385552E+06 -0.1852719E+01  0.5070243E+05 -0.2290493E+01  0.3902839E+05 -0.2028533E+01
  0.1938095E+01  0.1337032E+06 -0.1895561E+01  0.5420459E+05 -0.2384839E+01  0.3924531E+05 -0.2108918E+01
  0.1969048E+01  0.1289187E+06 -0.1941386E+01  0.5777655E+05 -0.2462996E+01  0.3945132E+05 -0.2195714E+01
  0.2000000E+01  0.1242250E+06 -0.1990162E+01  0.6122586E+05 -0.2528285E+01  0.3968382E+05 -0.2290259E+01
