VARIABLES="w (rad/s)"
"A   1   1" "B   1   1"
"A   1   2" "B   1   2"
"A   1   3" "B   1   3"
Zone t="Motion of body    1 in DoF   1",I=    64,F=POINT
  0.5000000E-01  0.9274688E+05  0.1005801E-01  0.6866455E-03  0.3171411E-04 -0.1239403E+06 -0.6618412E-02
  0.8095238E-01  0.9308901E+05  0.4415764E-01  0.1767102E-01  0.7141370E-04 -0.1242304E+06 -0.2866679E-01
  0.1119048E+00  0.9317262E+05  0.1236442E+00  0.3579322E-02  0.3018102E-04 -0.1242408E+06 -0.7936949E-01
  0.1428571E+00  0.9325770E+05  0.2778742E+00  0.1441955E-02  0.4607311E-04 -0.1242890E+06 -0.1777367E+00
  0.1738095E+00  0.9336462E+05  0.5518122E+00  0.1044704E-01  0.7445505E-04 -0.1242104E+06 -0.3506274E+00
  0.2047619E+00  0.9347362E+05  0.1015091E+01 -0.9314959E-03  0.1067971E-03 -0.1242658E+06 -0.6411779E+00
  0.2357143E+00  0.9356566E+05  0.1781161E+01  0.5987918E-02  0.2836706E-03 -0.1242390E+06 -0.1114717E+01
  0.2666667E+00  0.9375350E+05  0.3027416E+01  0.4205704E-02  0.7494353E-04 -0.1241535E+06 -0.1873865E+01
  0.2976190E+00  0.9391437E+05  0.5055368E+01 -0.1640625E-02 -0.9121746E-04 -0.1241846E+06 -0.3095438E+01
  0.3285715E+00  0.9405941E+05  0.8319211E+01  0.1230654E-01  0.1686662E-03 -0.1241925E+06 -0.5024791E+01
  0.3595238E+00  0.9430688E+05  0.1358771E+02  0.4286608E-02  0.2532005E-03 -0.1240767E+06 -0.8082785E+01
  0.3904762E+00  0.9455917E+05  0.2202063E+02 -0.1738944E-01 -0.4110783E-03 -0.1240900E+06 -0.1289229E+02
  0.4214286E+00  0.9480963E+05  0.3518540E+02  0.2824169E-02  0.5047172E-03 -0.1241222E+06 -0.2023568E+02
  0.4523810E+00  0.9509701E+05  0.5572214E+02  0.5599172E-02  0.9117424E-03 -0.1240418E+06 -0.3143344E+02
  0.4833333E+00  0.9550808E+05  0.8603603E+02  0.6755960E-02 -0.2295375E-03 -0.1239029E+06 -0.4743351E+02
  0.5142857E+00  0.9590974E+05  0.1306242E+03  0.5933974E-03  0.1099110E-02 -0.1239532E+06 -0.7044334E+02
  0.5452381E+00  0.9625404E+05  0.1934141E+03 -0.1203379E-02  0.1581788E-02 -0.1240590E+06 -0.1018940E+03
  0.5761905E+00  0.9670445E+05  0.2795568E+03 -0.1437983E-01 -0.4296303E-03 -0.1239691E+06 -0.1432996E+03
  0.6071429E+00  0.9725880E+05  0.3965603E+03 -0.1703958E-01 -0.2257109E-02 -0.1238226E+06 -0.1973869E+03
  0.6380953E+00  0.9782323E+05  0.5497922E+03  0.8704342E-02  0.2509117E-02 -0.1238311E+06 -0.2654049E+03
  0.6690477E+00  0.9834559E+05  0.7485239E+03  0.1140337E-01  0.1147747E-02 -0.1239171E+06 -0.3499663E+03
  0.7000000E+00  0.9890120E+05  0.1003109E+04  0.5841936E-02  0.2625465E-02 -0.1238928E+06 -0.4529345E+03
  0.7309524E+00  0.9954438E+05  0.1322631E+04  0.2004021E-01  0.5940437E-02 -0.1237493E+06 -0.5745653E+03
  0.7619048E+00  0.1002561E+06  0.1719815E+04  0.6408691E-03  0.3525734E-02 -0.1235465E+06 -0.7162671E+03
  0.7928572E+00  0.1009758E+06  0.2207522E+04  0.6120011E-02  0.6250381E-02 -0.1234076E+06 -0.8792936E+03
  0.8238096E+00  0.1016380E+06  0.2798655E+04 -0.9112936E-02  0.1310349E-02 -0.1233726E+06 -0.1063802E+04
  0.8547620E+00  0.1022902E+06  0.3506349E+04  0.1171059E-01  0.5332947E-02 -0.1232769E+06 -0.1266745E+04
  0.8857143E+00  0.1029510E+06  0.4344228E+04  0.4272461E-02  0.8090973E-02 -0.1230231E+06 -0.1484120E+04
  0.9166667E+00  0.1036277E+06  0.5325577E+04 -0.1165217E-02  0.7064819E-02 -0.1226690E+06 -0.1711638E+04
  0.9476191E+00  0.1042764E+06  0.6462831E+04  0.1594122E-01  0.1190948E-01 -0.1222725E+06 -0.1943775E+04
  0.9785714E+00  0.1049059E+06  0.7767907E+04  0.6736143E-02  0.9590149E-02 -0.1218630E+06 -0.2172501E+04
  0.1009524E+01  0.1054327E+06  0.9249390E+04  0.1257555E-01  0.1292419E-01 -0.1214537E+06 -0.2387563E+04
  0.1040476E+01  0.1058557E+06  0.1091343E+05  0.1812618E-01  0.8544922E-02 -0.1210389E+06 -0.2576606E+04
  0.1071429E+01  0.1061716E+06  0.1276179E+05  0.1145020E-01  0.1358032E-01 -0.1206112E+06 -0.2728184E+04
  0.1102381E+01  0.1063539E+06  0.1479089E+05  0.7695966E-02  0.1293945E-01 -0.1200799E+06 -0.2825453E+04
  0.1133333E+01  0.1064421E+06  0.1699466E+05 -0.6947237E-02  0.1190186E-01 -0.1194511E+06 -0.2851544E+04
  0.1164286E+01  0.1063886E+06  0.1936347E+05  0.6290740E-02  0.1255798E-01 -0.1187816E+06 -0.2792372E+04
  0.1195238E+01  0.1062037E+06  0.2188312E+05 -0.2961786E-02  0.3524780E-02 -0.1180958E+06 -0.2631495E+04
  0.1226190E+01  0.1058678E+06  0.2453319E+05  0.4878072E-02  0.7980347E-02 -0.1174168E+06 -0.2356783E+04
  0.1257143E+01  0.1053300E+06  0.2730361E+05 -0.4466664E-02  0.4333496E-02 -0.1167478E+06 -0.1957553E+04
  0.1288095E+01  0.1046858E+06  0.3011981E+05 -0.3601187E-02  0.8911133E-02 -0.1160770E+06 -0.1420143E+04
  0.1319048E+01  0.1038615E+06  0.3299768E+05 -0.1240093E-01  0.6988525E-02 -0.1154331E+06 -0.7392520E+03
  0.1350000E+01  0.1028838E+06  0.3588754E+05 -0.1401548E-02  0.6317139E-02 -0.1148090E+06  0.9338672E+02
  0.1380952E+01  0.1017719E+06  0.3875723E+05 -0.6585483E-02  0.9979248E-02 -0.1142465E+06  0.1069552E+04
  0.1411905E+01  0.1003350E+06  0.4145341E+05 -0.1080724E-02  0.1019287E-01 -0.1139502E+06  0.2187998E+04
  0.1442857E+01  0.9896642E+05  0.4419210E+05 -0.8544922E-02  0.6713867E-02 -0.1135251E+06  0.3452489E+04
  0.1473810E+01  0.9751345E+05  0.4682683E+05  0.8282638E-04  0.2166748E-02 -0.1132041E+06  0.4838373E+04
  0.1504762E+01  0.9598063E+05  0.4932232E+05 -0.5110729E-02  0.2319336E-02 -0.1129242E+06  0.6360030E+04
  0.1535714E+01  0.9437322E+05  0.5166807E+05 -0.3497456E-02 -0.8544922E-03 -0.1127407E+06  0.7980655E+04
  0.1566667E+01  0.9273654E+05  0.5384377E+05 -0.1675220E-02 -0.2990723E-02 -0.1126511E+06  0.9689873E+04
  0.1597619E+01  0.9107110E+05  0.5583507E+05 -0.7373338E-02 -0.1464844E-02 -0.1126489E+06  0.1146691E+05
  0.1628572E+01  0.8939784E+05  0.5763834E+05 -0.8582399E-02 -0.2746582E-02 -0.1127353E+06  0.1330979E+05
  0.1659524E+01  0.8772452E+05  0.5925120E+05 -0.8642999E-02 -0.9338379E-02 -0.1129235E+06  0.1517629E+05
  0.1690476E+01  0.8606521E+05  0.6067272E+05  0.7221061E-04 -0.2685547E-02 -0.1131953E+06  0.1706008E+05
  0.1721429E+01  0.8444884E+05  0.6189408E+05 -0.3545611E-03 -0.4943848E-02 -0.1135242E+06  0.1897153E+05
  0.1752381E+01  0.8287275E+05  0.6293089E+05 -0.2647068E-02  0.7568359E-02 -0.1139428E+06  0.2084373E+05
  0.1783333E+01  0.8133013E+05  0.6378235E+05 -0.1540139E-02 -0.1525879E-02 -0.1144051E+06  0.2270624E+05
  0.1814286E+01  0.7985586E+05  0.6445967E+05 -0.3498708E-02  0.6652832E-02 -0.1149360E+06  0.2452705E+05
  0.1845238E+01  0.7843641E+05  0.6496282E+05 -0.3836946E-02  0.4333496E-02 -0.1155078E+06  0.2628658E+05
  0.1876190E+01  0.7708123E+05  0.6531462E+05 -0.5335154E-02 -0.6408691E-02 -0.1161219E+06  0.2802132E+05
  0.1907143E+01  0.7579845E+05  0.6553938E+05  0.9281002E-03 -0.3540039E-02 -0.1168161E+06  0.2962233E+05
  0.1938095E+01  0.7454769E+05  0.6561039E+05  0.2960280E-02 -0.0000000E+00 -0.1174896E+06  0.3121432E+05
  0.1969048E+01  0.7339435E+05  0.6558046E+05  0.2278301E-02 -0.6103516E-04 -0.1182377E+06  0.3264975E+05
  0.2000000E+01  0.7230110E+05  0.6540768E+05  0.3631592E-02  0.3723145E-02 -0.1189659E+06  0.3406760E+05
Zone t="Motion of body    1 in DoF   2",I=    64,F=POINT
  0.5000000E-01 -0.4920959E-02 -0.2384186E-05  0.7452894E+05  0.2160147E+03  0.3509521E-01 -0.3337860E-05
  0.8095238E-01  0.9848651E-02 -0.1001358E-04  0.7355021E+05  0.3580152E+03 -0.3788668E-01 -0.0000000E+00
  0.1119048E+00 -0.9272149E-02 -0.7486343E-04  0.7303477E+05  0.5123337E+03  0.1063570E-01  0.2384186E-04
  0.1428571E+00  0.5661010E-02  0.3814697E-05  0.7276091E+05  0.6848255E+03  0.1452637E-01  0.6103516E-04
  0.1738095E+00 -0.4126144E-02 -0.1916885E-03  0.7264068E+05  0.8825001E+03  0.1843596E-01 -0.3108978E-03
  0.2047619E+00  0.5849794E-02 -0.7534027E-04  0.7269598E+05  0.1114541E+04 -0.2682708E-02 -0.1487732E-03
  0.2357143E+00 -0.3366181E-02  0.1144409E-03  0.7286416E+05  0.1393523E+04 -0.2084443E-01  0.8773804E-04
  0.2666667E+00 -0.4234314E-02 -0.2689362E-03  0.7309321E+05  0.1729660E+04  0.6294250E-02  0.1106262E-03
  0.2976190E+00 -0.4050293E-02 -0.2670288E-04  0.7341088E+05  0.2147135E+04  0.9228515E-02 -0.4882812E-03
  0.3285715E+00 -0.2368429E-02  0.4215240E-03  0.7378385E+05  0.2657376E+04 -0.9287957E-03 -0.3433228E-03
  0.3595238E+00 -0.6238924E-02 -0.3585815E-03  0.7407253E+05  0.3289096E+04 -0.9337165E-02  0.3967285E-03
  0.3904762E+00 -0.6604078E-02 -0.6790161E-03  0.7436577E+05  0.4061300E+04 -0.9691191E-02  0.6790161E-03
  0.4214286E+00 -0.3693144E-02  0.1831055E-03  0.7448705E+05  0.4965735E+04  0.5793167E-02 -0.8850098E-03
  0.4523810E+00 -0.8027729E-02 -0.9422302E-03  0.7447638E+05  0.6047979E+04 -0.4182514E-02  0.4272461E-03
  0.4833333E+00 -0.1692147E-01  0.9002686E-03  0.7418491E+05  0.7214167E+04 -0.5935143E-02  0.1525879E-03
  0.5142857E+00 -0.1180861E-01  0.1426697E-02  0.7370536E+05  0.8520371E+04 -0.1542833E-01  0.1632690E-02
  0.5452381E+00  0.2014960E-02  0.1831055E-03  0.7307448E+05  0.9890840E+04 -0.2686613E-02  0.2746582E-02
  0.5761905E+00  0.2277469E-02  0.2189636E-02  0.7223683E+05  0.1129972E+05  0.2732962E-01 -0.6103516E-04
  0.6071429E+00 -0.8243335E-02  0.1708984E-02  0.7121455E+05  0.1278004E+05  0.6232766E-02  0.1678467E-02
  0.6380953E+00 -0.7173908E-03 -0.4577637E-03  0.7015494E+05  0.1424149E+05  0.3060868E-02 -0.9155273E-03
  0.6690477E+00  0.2006992E-02  0.1495361E-02  0.6900245E+05  0.1571551E+05 -0.4196438E-02  0.4486084E-02
  0.7000000E+00  0.6103515E-03  0.3204346E-03  0.6774013E+05  0.1720802E+05  0.4010881E-02  0.4455566E-02
  0.7309524E+00  0.5260554E-02 -0.2563477E-02  0.6642806E+05  0.1867246E+05 -0.1569816E-01  0.2685547E-02
  0.7619048E+00  0.8411407E-03 -0.2365112E-02  0.6505417E+05  0.2011272E+05  0.1970672E-01  0.5737305E-02
  0.7928572E+00 -0.2694344E-03  0.1235962E-02  0.6363022E+05  0.2152087E+05  0.9391715E-02  0.6591797E-02
  0.8238096E+00 -0.7890469E-02  0.3448486E-02  0.6218745E+05  0.2288582E+05  0.1629956E-01  0.1586914E-02
  0.8547620E+00 -0.3034756E-02 -0.8850098E-03  0.6075251E+05  0.2419203E+05 -0.3427489E-02  0.5432129E-02
  0.8857143E+00  0.3962363E-02  0.3540039E-02  0.5929992E+05  0.2543697E+05 -0.1998409E-01 -0.3295898E-02
  0.9166667E+00  0.7057883E-02  0.2105713E-02  0.5783906E+05  0.2661137E+05 -0.2397017E-01 -0.9338379E-02
  0.9476191E+00 -0.1094952E-01  0.2075195E-02  0.5636134E+05  0.2770956E+05 -0.7729075E-02  0.2868652E-02
  0.9785714E+00  0.5363965E-02 -0.1007080E-02  0.5490741E+05  0.2871730E+05 -0.9854727E-02 -0.1464844E-02
  0.1009524E+01  0.2025388E-02 -0.2593994E-02  0.5347795E+05  0.2963326E+05  0.3663837E-01  0.2441406E-02
  0.1040476E+01 -0.1146818E-01  0.2838135E-02  0.5209792E+05  0.3045221E+05 -0.3167683E-02 -0.0000000E+00
  0.1071429E+01  0.2079264E-02  0.5554199E-02  0.5076063E+05  0.3117297E+05  0.1025391E-01  0.5615234E-02
  0.1102381E+01 -0.2851383E-02 -0.5157471E-02  0.4946197E+05  0.3179926E+05  0.2657600E-01 -0.4028320E-02
  0.1133333E+01 -0.4604564E-02  0.4364014E-02  0.4820595E+05  0.3232612E+05  0.7431928E-02  0.1342773E-02
  0.1164286E+01 -0.2149336E-02  0.5035400E-02  0.4700269E+05  0.3275303E+05  0.3355061E-02 -0.9399414E-02
  0.1195238E+01 -0.3421373E-02 -0.1708984E-02  0.4585784E+05  0.3307397E+05  0.1674941E-01 -0.1708984E-02
  0.1226190E+01 -0.1209563E-01  0.3967285E-03  0.4477261E+05  0.3329104E+05 -0.9357934E-02 -0.5126953E-02
  0.1257143E+01 -0.4927895E-02 -0.9155273E-03  0.4372609E+05  0.3342943E+05  0.7768110E-02  0.2441406E-03
  0.1288095E+01 -0.2250742E-02 -0.1495361E-02  0.4276662E+05  0.3344912E+05  0.7865750E-02  0.1464844E-02
  0.1319048E+01 -0.5668337E-02 -0.3051758E-04  0.4186266E+05  0.3339571E+05  0.2720802E-01 -0.3662109E-02
  0.1350000E+01 -0.1491970E-02 -0.5798340E-03  0.4102487E+05  0.3325448E+05 -0.1582393E-01  0.2075195E-02
  0.1380952E+01 -0.5502635E-02  0.4272461E-03  0.4026354E+05  0.3302480E+05  0.8485992E-02  0.6713867E-02
  0.1411905E+01  0.8645789E-03 -0.3356934E-02  0.3957944E+05  0.3283841E+05  0.9250995E-02  0.3173828E-02
  0.1442857E+01  0.2051627E-02 -0.2197266E-02  0.3894170E+05  0.3246592E+05 -0.6768255E-03 -0.3662109E-03
  0.1473810E+01  0.2112073E-02 -0.0000000E+00  0.3838082E+05  0.3202316E+05  0.7702853E-02 -0.1586914E-02
  0.1504762E+01  0.4116976E-02 -0.1220703E-03  0.3789515E+05  0.3151290E+05 -0.1070819E-01  0.3662109E-02
  0.1535714E+01 -0.3855151E-02  0.1525879E-02  0.3747202E+05  0.3095432E+05 -0.3656431E-02  0.4150391E-02
  0.1566667E+01  0.5045140E-02 -0.2807617E-02  0.3712759E+05  0.3034444E+05 -0.1472635E-01 -0.3662109E-02
  0.1597619E+01  0.2464147E-02 -0.5432129E-02  0.3685470E+05  0.2971063E+05 -0.1474668E-01  0.4882812E-03
  0.1628572E+01  0.1705237E-02 -0.7202148E-02  0.3664787E+05  0.2906351E+05 -0.1274243E-02 -0.3051758E-02
  0.1659524E+01 -0.4339889E-02 -0.1770020E-02  0.3650182E+05  0.2841531E+05 -0.1471149E-03  0.1953125E-02
  0.1690476E+01 -0.2166318E-03 -0.4150391E-02  0.3641373E+05  0.2777586E+05  0.2404613E-01 -0.2319336E-02
  0.1721429E+01  0.1276420E-02 -0.6713867E-03  0.3639314E+05  0.2714402E+05 -0.1474974E-01  0.7324219E-03
  0.1752381E+01 -0.2368430E-02  0.7507324E-02  0.3642679E+05  0.2655808E+05  0.1239943E-01  0.1098633E-02
  0.1783333E+01  0.2652462E-02  0.4882812E-02  0.3649830E+05  0.2602562E+05 -0.2395773E-02 -0.0000000E+00
  0.1814286E+01  0.4743441E-02  0.6164551E-02  0.3661577E+05  0.2555058E+05  0.6122740E-02  0.1586914E-02
  0.1845238E+01  0.2613092E-02 -0.4516602E-02  0.3675972E+05  0.2516726E+05 -0.1442162E-01 -0.1220703E-02
  0.1876190E+01  0.1935620E-02 -0.3112793E-02  0.3691989E+05  0.2487859E+05  0.1886823E-02 -0.4394531E-02
  0.1907143E+01  0.2400259E-02  0.3173828E-02  0.3708474E+05  0.2468907E+05 -0.1120121E-01  0.1586914E-02
  0.1938095E+01 -0.2361926E-02  0.1525879E-02  0.3722761E+05  0.2459471E+05 -0.1328977E-01 -0.0000000E+00
  0.1969048E+01  0.1208895E-02 -0.2380371E-02  0.3736970E+05  0.2459180E+05  0.6881400E-02  0.6103516E-03
  0.2000000E+01  0.4913330E-02  0.3295898E-02  0.3749368E+05  0.2466631E+05 -0.2868652E-02  0.9399414E-02
Zone t="Motion of body    1 in DoF   3",I=    64,F=POINT
  0.5000000E-01 -0.1222551E+06 -0.5933240E-02  0.4920959E-02  0.9995663E-05  0.6288886E+06  0.4811803E-02
  0.8095238E-01 -0.1226241E+06 -0.2536998E-01 -0.2973444E-01 -0.9669032E-04  0.6286899E+06  0.1683757E-01
  0.1119048E+00 -0.1226142E+06 -0.7045226E-01 -0.3691815E-01 -0.2357097E-03  0.6289926E+06  0.4451757E-01
  0.1428571E+00 -0.1226759E+06 -0.1575872E+00  0.7957458E-02 -0.7484015E-04  0.6288115E+06  0.9985670E-01
  0.1738095E+00 -0.1225772E+06 -0.3107831E+00 -0.7813336E-02 -0.2816226E-03  0.6290941E+06  0.1970142E+00
  0.2047619E+00 -0.1226526E+06 -0.5671249E+00  0.1367436E-01  0.7859315E-04  0.6288073E+06  0.3602549E+00
  0.2357143E+00 -0.1225897E+06 -0.9857833E+00  0.6699995E-02 -0.2528317E-03  0.6290916E+06  0.6174492E+00
  0.2666667E+00 -0.1225046E+06 -0.1656271E+01 -0.2380371E-01 -0.6391881E-03  0.6291215E+06  0.1024697E+01
  0.2976190E+00 -0.1225453E+06 -0.2732967E+01  0.1617554E-01  0.2091452E-03  0.6288924E+06  0.1674525E+01
  0.3285715E+00 -0.1225135E+06 -0.4429317E+01 -0.1360686E-01 -0.1185963E-02  0.6291311E+06  0.2676976E+01
  0.3595238E+00 -0.1223826E+06 -0.7121517E+01 -0.2987893E-01 -0.1811940E-02  0.6293039E+06  0.4231208E+01
  0.3904762E+00 -0.1224130E+06 -0.1133690E+02  0.5588066E-02  0.3555641E-03  0.6290240E+06  0.6635240E+01
  0.4214286E+00 -0.1224148E+06 -0.1776445E+02 -0.2682960E-01 -0.1544349E-02  0.6291022E+06  0.1021158E+02
  0.4523810E+00 -0.1222867E+06 -0.2756872E+02  0.2377962E-01  0.1796022E-02  0.6294786E+06  0.1558816E+02
  0.4833333E+00 -0.1221382E+06 -0.4157625E+02 -0.3359038E-01 -0.2385348E-02  0.6296571E+06  0.2290436E+02
  0.5142857E+00 -0.1222040E+06 -0.6159737E+02 -0.1916674E-01 -0.3575802E-02  0.6293120E+06  0.3319160E+02
  0.5452381E+00 -0.1222711E+06 -0.8878156E+02  0.2160485E-01  0.3712773E-02  0.6293132E+06  0.4677565E+02
  0.5761905E+00 -0.1221279E+06 -0.1246582E+03  0.3016322E-01  0.4413426E-02  0.6298071E+06  0.6383415E+02
  0.6071429E+00 -0.1219650E+06 -0.1715189E+03  0.2970617E-01  0.3891706E-02  0.6299822E+06  0.8560189E+02
  0.6380953E+00 -0.1219780E+06 -0.2297633E+03 -0.1673912E-02  0.1231074E-02  0.6297408E+06  0.1108846E+03
  0.6690477E+00 -0.1220383E+06 -0.3013954E+03  0.5856768E-01  0.5517721E-02  0.6295746E+06  0.1409820E+03
  0.7000000E+00 -0.1219584E+06 -0.3885482E+03  0.8850097E-02 -0.2630472E-02  0.6298344E+06  0.1756695E+03
  0.7309524E+00 -0.1217705E+06 -0.4914055E+03 -0.4721973E-01 -0.1514554E-01  0.6301796E+06  0.2130061E+03
  0.7619048E+00 -0.1215447E+06 -0.6105958E+03 -0.1361847E-01 -0.8173466E-02  0.6303806E+06  0.2534018E+03
  0.7928572E+00 -0.1213998E+06 -0.7453609E+03 -0.3156232E-01 -0.1120806E-01  0.6302365E+06  0.2962149E+03
  0.8238096E+00 -0.1213455E+06 -0.8939738E+03  0.3626652E-01  0.5585194E-02  0.6299842E+06  0.3404636E+03
  0.8547620E+00 -0.1212081E+06 -0.1055347E+04  0.3216841E-01  0.8600235E-02  0.6299494E+06  0.3822609E+03
  0.8857143E+00 -0.1209079E+06 -0.1227901E+04 -0.1388550E-01 -0.1304913E-01  0.6302667E+06  0.4183912E+03
  0.9166667E+00 -0.1205214E+06 -0.1405692E+04  0.1062012E-01 -0.2141953E-02  0.6305498E+06  0.4470973E+03
  0.9476191E+00 -0.1201105E+06 -0.1581315E+04 -0.7246008E-02 -0.1142120E-01  0.6307211E+06  0.4672423E+03
  0.9785714E+00 -0.1196950E+06 -0.1744148E+04 -0.1125809E-01 -0.1756096E-01  0.6307056E+06  0.4784094E+03
  0.1009524E+01 -0.1192843E+06 -0.1883051E+04 -0.1692862E-01 -0.1827526E-01  0.6305824E+06  0.4818616E+03
  0.1040476E+01 -0.1188629E+06 -0.1985894E+04  0.2815718E-02 -0.1554871E-01  0.6304515E+06  0.4769448E+03
  0.1071429E+01 -0.1184190E+06 -0.2044263E+04 -0.9513346E-02 -0.3126717E-01  0.6304452E+06  0.4548611E+03
  0.1102381E+01 -0.1178807E+06 -0.2050921E+04  0.1129480E-01 -0.1222038E-01  0.6307051E+06  0.4135713E+03
  0.1133333E+01 -0.1172513E+06 -0.1984187E+04 -0.2703498E-01 -0.3665733E-01  0.6309311E+06  0.3537490E+03
  0.1164286E+01 -0.1165891E+06 -0.1828686E+04 -0.2096913E-03 -0.1832199E-01  0.6312111E+06  0.2889886E+03
  0.1195238E+01 -0.1159229E+06 -0.1566208E+04 -0.6281028E-02 -0.1771927E-01  0.6314242E+06  0.2217916E+03
  0.1226190E+01 -0.1152700E+06 -0.1184247E+04 -0.2289707E-02 -0.2048111E-01  0.6315175E+06  0.1433051E+03
  0.1257143E+01 -0.1146486E+06 -0.6732841E+03  0.2913041E-03 -0.2848625E-02  0.6316601E+06  0.5926745E+02
  0.1288095E+01 -0.1140256E+06 -0.4825037E+02  0.1814809E-01 -0.5865991E-02  0.6318646E+06 -0.2201980E+02
  0.1319048E+01 -0.1134356E+06  0.7232081E+03  0.4303309E-02 -0.1295424E-01  0.6321582E+06 -0.6999549E+02
  0.1350000E+01 -0.1128681E+06  0.1636191E+04  0.6646050E-02 -0.2911568E-02  0.6324898E+06 -0.8335756E+02
  0.1380952E+01 -0.1123598E+06  0.2683109E+04  0.6452889E-02 -0.1449585E-01  0.6329362E+06 -0.4187331E+02
  0.1411905E+01 -0.1128802E+06  0.3208545E+04  0.1984209E-01 -0.9386063E-02  0.6322384E+06  0.7670761E+01
  0.1442857E+01 -0.1124913E+06  0.4485304E+04  0.1768207E-01 -0.1357651E-01  0.6326787E+06  0.1639051E+03
  0.1473810E+01 -0.1121948E+06  0.5883942E+04 -0.8572530E-02 -0.2443314E-01  0.6331668E+06  0.4023777E+03
  0.1504762E+01 -0.1119320E+06  0.7408473E+04  0.7301040E-03 -0.1160431E-01  0.6335937E+06  0.6922617E+03
  0.1535714E+01 -0.1117658E+06  0.9017540E+04  0.7432094E-02 -0.1954651E-01  0.6340774E+06  0.1070503E+04
  0.1566667E+01 -0.1116810E+06  0.1071759E+05 -0.7246301E-02 -0.8491516E-02  0.6345318E+06  0.1537191E+04
  0.1597619E+01 -0.1116797E+06  0.1247451E+05  0.1516692E-01 -0.2059937E-02  0.6350636E+06  0.2150292E+04
  0.1628572E+01 -0.1117555E+06  0.1431126E+05  0.6371213E-03 -0.9140015E-02  0.6354556E+06  0.2805332E+04
  0.1659524E+01 -0.1119288E+06  0.1616764E+05  0.8091317E-02  0.4608154E-02  0.6359184E+06  0.3599925E+04
  0.1690476E+01 -0.1121835E+06  0.1803746E+05  0.2043560E-01 -0.4989624E-02  0.6363639E+06  0.4503719E+04
  0.1721429E+01 -0.1124756E+06  0.1995667E+05 -0.1623890E-01 -0.1260376E-01  0.6366732E+06  0.5392332E+04
  0.1752381E+01 -0.1128511E+06  0.2184118E+05  0.1386228E-01  0.2197266E-02  0.6370617E+06  0.6463954E+04
  0.1783333E+01 -0.1132762E+06  0.2370693E+05  0.2019294E-02  0.1037598E-02  0.6373996E+06  0.7608704E+04
  0.1814286E+01 -0.1137521E+06  0.2556828E+05  0.1412940E-02  0.5554199E-02  0.6376373E+06  0.8760111E+04
  0.1845238E+01 -0.1142699E+06  0.2736380E+05  0.2434476E-01  0.6103516E-04  0.6379542E+06  0.1014260E+05
  0.1876190E+01 -0.1148286E+06  0.2916966E+05 -0.1665609E-01 -0.2838135E-02  0.6380878E+06  0.1145062E+05
  0.1907143E+01 -0.1154548E+06  0.3088406E+05 -0.4096442E-02 -0.7629395E-03  0.6382678E+06  0.1291143E+05
  0.1938095E+01 -0.1160860E+06  0.3255037E+05 -0.1580916E-01 -0.8087158E-02  0.6383959E+06  0.1440101E+05
  0.1969048E+01 -0.1167691E+06  0.3414403E+05 -0.1562264E-01  0.2319336E-02  0.6384928E+06  0.1595205E+05
  0.2000000E+01 -0.1174363E+06  0.3572794E+05 -0.1696777E-01  0.2166748E-02  0.6385072E+06  0.1743260E+05
