VARIABLES="w (rad/s)"
"abs(F   1   1)" "angle(F   1   1)"
"abs(F   1   2)" "angle(F   1   2)"
"abs(F   1   3)" "angle(F   1   3)"
Zone t="Diffraction force - beta =   0.000 deg",I=    64,F=POINT
  0.5000000E-01  0.1800229E+04 -0.1570781E+01  0.3392735E+06 -0.2331369E-04  0.2742427E+02 -0.1569835E+01
  0.8095238E-01  0.2935372E+04 -0.1570807E+01  0.3387011E+06 -0.6272307E-04  0.4455739E+02 -0.1570240E+01
  0.1119048E+00  0.4102068E+04 -0.1570795E+01  0.3378611E+06 -0.1245680E-03  0.6240732E+02 -0.1570384E+01
  0.1428571E+00  0.5302696E+04 -0.1570789E+01  0.3367518E+06 -0.2136222E-03  0.8067858E+02 -0.1570480E+01
  0.1738095E+00  0.6561943E+04 -0.1570786E+01  0.3353719E+06 -0.3371031E-03  0.1005793E+03 -0.1570521E+01
  0.2047619E+00  0.7879913E+04 -0.1570788E+01  0.3337179E+06 -0.5053914E-03  0.1212751E+03 -0.1570571E+01
  0.2357143E+00  0.9294223E+04 -0.1570786E+01  0.3317890E+06 -0.7339313E-03  0.1439668E+03 -0.1570591E+01
  0.2666667E+00  0.1080890E+05 -0.1570771E+01  0.3295794E+06 -0.1041476E-02  0.1690176E+03 -0.1570631E+01
  0.2976190E+00  0.1244528E+05 -0.1570763E+01  0.3270893E+06 -0.1459788E-02  0.1956960E+03 -0.1570631E+01
  0.3285715E+00  0.1425227E+05 -0.1570743E+01  0.3243143E+06 -0.2021416E-02  0.2263238E+03 -0.1570630E+01
  0.3595238E+00  0.1623721E+05 -0.1570724E+01  0.3212638E+06 -0.2777675E-02  0.2608958E+03 -0.1570623E+01
  0.3904762E+00  0.1841274E+05 -0.1570682E+01  0.3179275E+06 -0.3786515E-02  0.2988884E+03 -0.1570600E+01
  0.4214286E+00  0.2084459E+05 -0.1570629E+01  0.3143427E+06 -0.5085396E-02  0.3425272E+03 -0.1570559E+01
  0.4523810E+00  0.2353394E+05 -0.1570548E+01  0.3105013E+06 -0.6774276E-02  0.3941006E+03 -0.1570486E+01
  0.4833333E+00  0.2644842E+05 -0.1570431E+01  0.3064402E+06 -0.8810484E-02  0.4465570E+03 -0.1570380E+01
  0.5142857E+00  0.2958906E+05 -0.1570274E+01  0.3021737E+06 -0.1131117E-01  0.5059390E+03 -0.1570225E+01
  0.5452381E+00  0.3300982E+05 -0.1570064E+01  0.2977082E+06 -0.1424189E-01  0.5741360E+03 -0.1570021E+01
  0.5761905E+00  0.3664397E+05 -0.1569788E+01  0.2930776E+06 -0.1761303E-01  0.6484844E+03 -0.1569750E+01
  0.6071429E+00  0.4044521E+05 -0.1569430E+01  0.2882910E+06 -0.2152271E-01  0.7271819E+03 -0.1569397E+01
  0.6380953E+00  0.4439350E+05 -0.1568980E+01  0.2833301E+06 -0.2587890E-01  0.8071236E+03 -0.1568950E+01
  0.6690477E+00  0.4855054E+05 -0.1568420E+01  0.2782482E+06 -0.3078343E-01  0.8983984E+03 -0.1568395E+01
  0.7000000E+00  0.5289657E+05 -0.1567729E+01  0.2730590E+06 -0.3629295E-01  0.9999620E+03 -0.1567707E+01
  0.7309524E+00  0.5739361E+05 -0.1566890E+01  0.2677493E+06 -0.4236302E-01  0.1106432E+04 -0.1566871E+01
  0.7619048E+00  0.6198223E+05 -0.1565879E+01  0.2623568E+06 -0.4905548E-01  0.1213000E+04 -0.1565860E+01
  0.7928572E+00  0.6664887E+05 -0.1564671E+01  0.2568958E+06 -0.5640419E-01  0.1326470E+04 -0.1564654E+01
  0.8238096E+00  0.7149402E+05 -0.1563247E+01  0.2513686E+06 -0.6442306E-01  0.1451206E+04 -0.1563235E+01
  0.8547620E+00  0.7648822E+05 -0.1561583E+01  0.2458004E+06 -0.7312727E-01  0.1583302E+04 -0.1561576E+01
  0.8857143E+00  0.8159180E+05 -0.1559651E+01  0.2402160E+06 -0.8253314E-01  0.1724464E+04 -0.1559647E+01
  0.9166667E+00  0.8678284E+05 -0.1557428E+01  0.2346150E+06 -0.9265210E-01  0.1876895E+04 -0.1557424E+01
  0.9476191E+00  0.9202777E+05 -0.1554885E+01  0.2290132E+06 -0.1034907E+00  0.2031996E+04 -0.1554877E+01
  0.9785714E+00  0.9727634E+05 -0.1551998E+01  0.2234220E+06 -0.1150624E+00  0.2184323E+04 -0.1551979E+01
  0.1009524E+01  0.1025729E+06 -0.1548754E+01  0.2178517E+06 -0.1273843E+00  0.2346784E+04 -0.1548740E+01
  0.1040476E+01  0.1079341E+06 -0.1545144E+01  0.2123226E+06 -0.1404673E+00  0.2525632E+04 -0.1545156E+01
  0.1071429E+01  0.1133634E+06 -0.1541157E+01  0.2068326E+06 -0.1543087E+00  0.2716256E+04 -0.1541188E+01
  0.1102381E+01  0.1187963E+06 -0.1536777E+01  0.2013938E+06 -0.1689077E+00  0.2910348E+04 -0.1536812E+01
  0.1133333E+01  0.1241928E+06 -0.1531996E+01  0.1960259E+06 -0.1842662E+00  0.3109945E+04 -0.1532041E+01
  0.1164286E+01  0.1295190E+06 -0.1526814E+01  0.1907203E+06 -0.2003866E+00  0.3315115E+04 -0.1526850E+01
  0.1195238E+01  0.1346967E+06 -0.1521229E+01  0.1854972E+06 -0.2172738E+00  0.3523353E+04 -0.1521228E+01
  0.1226190E+01  0.1397277E+06 -0.1515262E+01  0.1803332E+06 -0.2349212E+00  0.3733636E+04 -0.1515191E+01
  0.1257143E+01  0.1445721E+06 -0.1508930E+01  0.1752394E+06 -0.2535134E+00  0.3948241E+04 -0.1508856E+01
  0.1288095E+01  0.1493470E+06 -0.1502410E+01  0.1702365E+06 -0.2725404E+00  0.4169136E+04 -0.1502347E+01
  0.1319048E+01  0.1538858E+06 -0.1495640E+01  0.1653288E+06 -0.2925265E+00  0.4387210E+04 -0.1495669E+01
  0.1350000E+01  0.1582042E+06 -0.1488714E+01  0.1605198E+06 -0.3132834E+00  0.4610287E+04 -0.1488741E+01
  0.1380952E+01  0.1622298E+06 -0.1481687E+01  0.1558081E+06 -0.3347841E+00  0.4837381E+04 -0.1481654E+01
  0.1411905E+01  0.1656223E+06 -0.1475086E+01  0.1512538E+06 -0.3566864E+00  0.5032664E+04 -0.1475005E+01
  0.1442857E+01  0.1690061E+06 -0.1468167E+01  0.1467250E+06 -0.3797082E+00  0.5259365E+04 -0.1468082E+01
  0.1473810E+01  0.1720470E+06 -0.1461489E+01  0.1422980E+06 -0.4034951E+00  0.5476610E+04 -0.1461415E+01
  0.1504762E+01  0.1746952E+06 -0.1455155E+01  0.1379746E+06 -0.4280508E+00  0.5683012E+04 -0.1455155E+01
  0.1535714E+01  0.1769512E+06 -0.1449278E+01  0.1337550E+06 -0.4533733E+00  0.5881606E+04 -0.1449325E+01
  0.1566667E+01  0.1787963E+06 -0.1443968E+01  0.1296480E+06 -0.4794741E+00  0.6076277E+04 -0.1443935E+01
  0.1597619E+01  0.1802167E+06 -0.1439337E+01  0.1256403E+06 -0.5063399E+00  0.6266162E+04 -0.1439210E+01
  0.1628572E+01  0.1812372E+06 -0.1435558E+01  0.1217263E+06 -0.5339715E+00  0.6450562E+04 -0.1435458E+01
  0.1659524E+01  0.1818569E+06 -0.1432753E+01  0.1179023E+06 -0.5623577E+00  0.6624996E+04 -0.1432609E+01
  0.1690476E+01  0.1820813E+06 -0.1431024E+01  0.1141760E+06 -0.5914977E+00  0.6783464E+04 -0.1430961E+01
  0.1721429E+01  0.1819120E+06 -0.1430464E+01  0.1105523E+06 -0.6213918E+00  0.6928920E+04 -0.1430418E+01
  0.1752381E+01  0.1813644E+06 -0.1431168E+01  0.1070264E+06 -0.6520805E+00  0.7058315E+04 -0.1431111E+01
  0.1783333E+01  0.1804767E+06 -0.1433249E+01  0.1035939E+06 -0.6835408E+00  0.7179558E+04 -0.1433230E+01
  0.1814286E+01  0.1792670E+06 -0.1436779E+01  0.1002722E+06 -0.7157580E+00  0.7293450E+04 -0.1436764E+01
  0.1845238E+01  0.1777611E+06 -0.1441815E+01  0.9703390E+05 -0.7487463E+00  0.7397446E+04 -0.1441832E+01
  0.1876190E+01  0.1759837E+06 -0.1448414E+01  0.9388377E+05 -0.7825288E+00  0.7490296E+04 -0.1448359E+01
  0.1907143E+01  0.1739730E+06 -0.1456622E+01  0.9081259E+05 -0.8170710E+00  0.7572528E+04 -0.1456462E+01
  0.1938095E+01  0.1717564E+06 -0.1466459E+01  0.8782022E+05 -0.8523932E+00  0.7641431E+04 -0.1466174E+01
  0.1969048E+01  0.1693597E+06 -0.1477946E+01  0.8491716E+05 -0.8884544E+00  0.7697568E+04 -0.1477679E+01
  0.2000000E+01  0.1668010E+06 -0.1491091E+01  0.8209973E+05 -0.9253362E+00  0.7741646E+04 -0.1491011E+01
