VARIABLES="w (rad/s)"
"abs(F   1   1)" "angle(F   1   1)"
"abs(F   1   2)" "angle(F   1   2)"
"abs(F   1   3)" "angle(F   1   3)"
Zone t="Diffraction force - beta =   0.000 deg",I=    64,F=POINT
  0.5000000E-01  0.1154460E+05 -0.1570794E+01  0.7461683E+06 -0.5011315E-04  0.2424514E+05  0.1570804E+01
  0.8095238E-01  0.1883824E+05 -0.1570787E+01  0.7433019E+06 -0.1345522E-03  0.3958864E+05  0.1570805E+01
  0.1119048E+00  0.2630226E+05 -0.1570781E+01  0.7390955E+06 -0.2663864E-03  0.5526044E+05  0.1570807E+01
  0.1428571E+00  0.3399448E+05 -0.1570773E+01  0.7335624E+06 -0.4551021E-03  0.7143929E+05  0.1570816E+01
  0.1738095E+00  0.4201490E+05 -0.1570756E+01  0.7267144E+06 -0.7143006E-03  0.8830884E+05  0.1570838E+01
  0.2047619E+00  0.5042658E+05 -0.1570737E+01  0.7185354E+06 -0.1064790E-02  0.1060063E+06  0.1570859E+01
  0.2357143E+00  0.5939910E+05 -0.1570703E+01  0.7090433E+06 -0.1535925E-02  0.1249123E+06  0.1570893E+01
  0.2666667E+00  0.6900735E+05 -0.1570654E+01  0.6982876E+06 -0.2161039E-02  0.1451728E+06  0.1570937E+01
  0.2976190E+00  0.7935195E+05 -0.1570587E+01  0.6862224E+06 -0.3003115E-02  0.1670388E+06  0.1571007E+01
  0.3285715E+00  0.9077506E+05 -0.1570482E+01  0.6729956E+06 -0.4115428E-02  0.1911144E+06  0.1571111E+01
  0.3595238E+00  0.1032101E+06 -0.1570327E+01  0.6585627E+06 -0.5595326E-02  0.2173897E+06  0.1571263E+01
  0.3904762E+00  0.1168730E+06 -0.1570097E+01  0.6430838E+06 -0.7536456E-02  0.2463204E+06  0.1571495E+01
  0.4214286E+00  0.1321242E+06 -0.1569759E+01  0.6266802E+06 -0.9991524E-02  0.2786068E+06  0.1571833E+01
  0.4523810E+00  0.1488340E+06 -0.1569267E+01  0.6093829E+06 -0.1315786E-01  0.3138380E+06  0.1572324E+01
  0.4833333E+00  0.1670799E+06 -0.1568585E+01  0.5915529E+06 -0.1687180E-01  0.3526656E+06  0.1573007E+01
  0.5142857E+00  0.1865843E+06 -0.1567639E+01  0.5729433E+06 -0.2137951E-01  0.3941346E+06  0.1573954E+01
  0.5452381E+00  0.2079018E+06 -0.1566381E+01  0.5542378E+06 -0.2656677E-01  0.4391644E+06  0.1575211E+01
  0.5761905E+00  0.2302469E+06 -0.1564751E+01  0.5350126E+06 -0.3239858E-01  0.4864550E+06  0.1576842E+01
  0.6071429E+00  0.2535968E+06 -0.1562648E+01  0.5155342E+06 -0.3909849E-01  0.5359034E+06  0.1578945E+01
  0.6380953E+00  0.2780622E+06 -0.1560036E+01  0.4960231E+06 -0.4636610E-01  0.5881843E+06  0.1581557E+01
  0.6690477E+00  0.3034580E+06 -0.1556810E+01  0.4762161E+06 -0.5442239E-01  0.6418531E+06  0.1584781E+01
  0.7000000E+00  0.3297656E+06 -0.1552858E+01  0.4564473E+06 -0.6335808E-01  0.6973420E+06  0.1588734E+01
  0.7309524E+00  0.3570799E+06 -0.1548111E+01  0.4369401E+06 -0.7301982E-01  0.7551001E+06  0.1593480E+01
  0.7619048E+00  0.3845212E+06 -0.1542447E+01  0.4173710E+06 -0.8351908E-01  0.8130829E+06  0.1599147E+01
  0.7928572E+00  0.4122188E+06 -0.1535765E+01  0.3976601E+06 -0.9489824E-01  0.8720849E+06  0.1605835E+01
  0.8238096E+00  0.4406127E+06 -0.1528025E+01  0.3788644E+06 -0.1071334E+00  0.9312937E+06  0.1613563E+01
  0.8547620E+00  0.4696516E+06 -0.1519124E+01  0.3601559E+06 -0.1203375E+00  0.9925937E+06  0.1622459E+01
  0.8857143E+00  0.4982953E+06 -0.1508969E+01  0.3416508E+06 -0.1344459E+00  0.1052235E+07  0.1632611E+01
  0.9166667E+00  0.5265907E+06 -0.1497497E+01  0.3231239E+06 -0.1495519E+00  0.1111308E+07  0.1644089E+01
  0.9476191E+00  0.5542748E+06 -0.1484703E+01  0.3058671E+06 -0.1653678E+00  0.1167945E+07  0.1656884E+01
  0.9785714E+00  0.5813626E+06 -0.1470566E+01  0.2888908E+06 -0.1823343E+00  0.1224838E+07  0.1671052E+01
  0.1009524E+01  0.6065209E+06 -0.1455206E+01  0.2722645E+06 -0.2003483E+00  0.1276796E+07  0.1686432E+01
  0.1040476E+01  0.6302576E+06 -0.1438860E+01  0.2559067E+06 -0.2196047E+00  0.1324817E+07  0.1702744E+01
  0.1071429E+01  0.6521777E+06 -0.1421585E+01  0.2402525E+06 -0.2397459E+00  0.1368531E+07  0.1720000E+01
  0.1102381E+01  0.6719258E+06 -0.1403585E+01  0.2255949E+06 -0.2604494E+00  0.1406823E+07  0.1737987E+01
  0.1133333E+01  0.6891806E+06 -0.1385041E+01  0.2113863E+06 -0.2826297E+00  0.1441080E+07  0.1756578E+01
  0.1164286E+01  0.7027103E+06 -0.1366405E+01  0.1976108E+06 -0.3060515E+00  0.1466310E+07  0.1775236E+01
  0.1195238E+01  0.7130678E+06 -0.1348187E+01  0.1842546E+06 -0.3310339E+00  0.1484163E+07  0.1793427E+01
  0.1226190E+01  0.7201352E+06 -0.1330633E+01  0.1713884E+06 -0.3574349E+00  0.1495152E+07  0.1810981E+01
  0.1257143E+01  0.7236469E+06 -0.1314115E+01  0.1597477E+06 -0.3833047E+00  0.1497210E+07  0.1827414E+01
  0.1288095E+01  0.7243681E+06 -0.1299102E+01  0.1485348E+06 -0.4106680E+00  0.1494440E+07  0.1842487E+01
  0.1319048E+01  0.7214840E+06 -0.1285913E+01  0.1378855E+06 -0.4396578E+00  0.1484013E+07  0.1855723E+01
  0.1350000E+01  0.7152995E+06 -0.1275102E+01  0.1276867E+06 -0.4702360E+00  0.1465683E+07  0.1866454E+01
  0.1380952E+01  0.7063614E+06 -0.1266710E+01  0.1179314E+06 -0.5028512E+00  0.1441790E+07  0.1874887E+01
  0.1411905E+01  0.6941834E+06 -0.1260802E+01  0.1086839E+06 -0.5377367E+00  0.1412098E+07  0.1880940E+01
  0.1442857E+01  0.6807551E+06 -0.1258151E+01  0.1003388E+06 -0.5702071E+00  0.1377872E+07  0.1883361E+01
  0.1473810E+01  0.6658986E+06 -0.1258451E+01  0.9243684E+05 -0.6042413E+00  0.1341139E+07  0.1882901E+01
  0.1504762E+01  0.6499160E+06 -0.1261596E+01  0.8503172E+05 -0.6400400E+00  0.1303238E+07  0.1879974E+01
  0.1535714E+01  0.6323914E+06 -0.1268100E+01  0.7805422E+05 -0.6777198E+00  0.1261545E+07  0.1873533E+01
  0.1566667E+01  0.6140806E+06 -0.1277878E+01  0.7147652E+05 -0.7175629E+00  0.1217924E+07  0.1863640E+01
  0.1597619E+01  0.5953798E+06 -0.1290576E+01  0.6532252E+05 -0.7596233E+00  0.1174123E+07  0.1851061E+01
  0.1628572E+01  0.5763605E+06 -0.1306239E+01  0.5956236E+05 -0.8042036E+00  0.1129963E+07  0.1835636E+01
  0.1659524E+01  0.5573344E+06 -0.1325040E+01  0.5433283E+05 -0.8453761E+00  0.1085172E+07  0.1816450E+01
  0.1690476E+01  0.5385059E+06 -0.1346599E+01  0.4944269E+05 -0.8878300E+00  0.1041121E+07  0.1794518E+01
  0.1721429E+01  0.5200522E+06 -0.1370485E+01  0.4489841E+05 -0.9327394E+00  0.9987574E+06  0.1770940E+01
  0.1752381E+01  0.5017032E+06 -0.1397157E+01  0.4069771E+05 -0.9797498E+00  0.9566015E+06  0.1744465E+01
  0.1783333E+01  0.4836802E+06 -0.1426446E+01  0.3679544E+05 -0.1028835E+01  0.9151893E+06  0.1715184E+01
  0.1814286E+01  0.4660324E+06 -0.1458280E+01  0.3318673E+05 -0.1080562E+01  0.8747011E+06  0.1683227E+01
  0.1845238E+01  0.4489096E+06 -0.1492143E+01  0.2984604E+05 -0.1133895E+01  0.8357324E+06  0.1649695E+01
  0.1876190E+01  0.4322849E+06 -0.1528135E+01  0.2670864E+05 -0.1186317E+01  0.7980628E+06  0.1614190E+01
  0.1907143E+01  0.4162448E+06 -0.1566386E+01  0.2385824E+05 -0.1239690E+01  0.7615714E+06  0.1575735E+01
  0.1938095E+01  0.4007452E+06 -0.1606736E+01  0.2119827E+05 -0.1292678E+01  0.7263656E+06  0.1534850E+01
  0.1969048E+01  0.3857680E+06 -0.1648779E+01  0.1867073E+05 -0.1350030E+01  0.6925009E+06  0.1492794E+01
  0.2000000E+01  0.3713249E+06 -0.1692522E+01  0.1634650E+05 -0.1410707E+01  0.6598903E+06  0.1449048E+01
