VARIABLES="w (rad/s)"
"abs(F   1   1)" "angle(F   1   1)"
"abs(F   1   2)" "angle(F   1   2)"
"abs(F   1   3)" "angle(F   1   3)"
Zone t="Diffraction force - beta =   0.000 deg",I=    64,F=POINT
  0.5000000E-01  0.1395059E+04 -0.1570794E+01  0.3812871E+03 -0.3081772E+01  0.2036861E+02 -0.1570794E+01
  0.8095238E-01  0.2278444E+04 -0.1570790E+01  0.9853871E+03 -0.3079483E+01  0.3338857E+02 -0.1570790E+01
  0.1119048E+00  0.3173799E+04 -0.1570783E+01  0.1868270E+04 -0.3076790E+01  0.4608101E+02 -0.1570781E+01
  0.1428571E+00  0.4107757E+04 -0.1570772E+01  0.3031283E+04 -0.3073453E+01  0.6094465E+02 -0.1570768E+01
  0.1738095E+00  0.5078897E+04 -0.1570757E+01  0.4480902E+04 -0.3069327E+01  0.7506273E+02 -0.1570748E+01
  0.2047619E+00  0.6107167E+04 -0.1570735E+01  0.6222600E+04 -0.3064181E+01  0.9214427E+02 -0.1570720E+01
  0.2357143E+00  0.7179938E+04 -0.1570703E+01  0.8263801E+04 -0.3057713E+01  0.1085396E+03 -0.1570676E+01
  0.2666667E+00  0.8356510E+04 -0.1570656E+01  0.1061600E+05 -0.3049919E+01  0.1281090E+03 -0.1570616E+01
  0.2976190E+00  0.9628609E+04 -0.1570586E+01  0.1328109E+05 -0.3040094E+01  0.1507627E+03 -0.1570526E+01
  0.3285715E+00  0.1099177E+05 -0.1570482E+01  0.1627749E+05 -0.3028454E+01  0.1745747E+03 -0.1570388E+01
  0.3595238E+00  0.1252315E+05 -0.1570326E+01  0.1958579E+05 -0.3014272E+01  0.2026584E+03 -0.1570187E+01
  0.3904762E+00  0.1422981E+05 -0.1570095E+01  0.2322896E+05 -0.2997605E+01  0.2394568E+03 -0.1569898E+01
  0.4214286E+00  0.1606944E+05 -0.1569755E+01  0.2712814E+05 -0.2978880E+01  0.2699057E+03 -0.1569445E+01
  0.4523810E+00  0.1808787E+05 -0.1569256E+01  0.3132639E+05 -0.2957310E+01  0.3120399E+03 -0.1568811E+01
  0.4833333E+00  0.2037075E+05 -0.1568571E+01  0.3571712E+05 -0.2935515E+01  0.3607284E+03 -0.1567948E+01
  0.5142857E+00  0.2282801E+05 -0.1567620E+01  0.4028527E+05 -0.2911784E+01  0.4185234E+03 -0.1566785E+01
  0.5452381E+00  0.2537721E+05 -0.1566346E+01  0.4503204E+05 -0.2888306E+01  0.4695891E+03 -0.1565140E+01
  0.5761905E+00  0.2810837E+05 -0.1564695E+01  0.4989202E+05 -0.2865229E+01  0.5288237E+03 -0.1563040E+01
  0.6071429E+00  0.3107075E+05 -0.1562584E+01  0.5483817E+05 -0.2841409E+01  0.6084109E+03 -0.1560528E+01
  0.6380953E+00  0.3419366E+05 -0.1559968E+01  0.5990716E+05 -0.2819241E+01  0.6943739E+03 -0.1557429E+01
  0.6690477E+00  0.3734506E+05 -0.1556707E+01  0.6501454E+05 -0.2797189E+01  0.7694952E+03 -0.1553346E+01
  0.7000000E+00  0.4052043E+05 -0.1552687E+01  0.7015407E+05 -0.2775037E+01  0.8527465E+03 -0.1548396E+01
  0.7309524E+00  0.4392865E+05 -0.1547912E+01  0.7535491E+05 -0.2753990E+01  0.9541498E+03 -0.1542749E+01
  0.7619048E+00  0.4749387E+05 -0.1542253E+01  0.8053594E+05 -0.2733243E+01  0.1060906E+04 -0.1536017E+01
  0.7928572E+00  0.5112584E+05 -0.1535573E+01  0.8565733E+05 -0.2712610E+01  0.1186267E+04 -0.1528413E+01
  0.8238096E+00  0.5480902E+05 -0.1527766E+01  0.9074904E+05 -0.2692576E+01  0.1319415E+04 -0.1519582E+01
  0.8547620E+00  0.5841113E+05 -0.1518656E+01  0.9579144E+05 -0.2673207E+01  0.1427144E+04 -0.1508406E+01
  0.8857143E+00  0.6202469E+05 -0.1508210E+01  0.1007474E+06 -0.2654357E+01  0.1547007E+04 -0.1495869E+01
  0.9166667E+00  0.6572260E+05 -0.1496438E+01  0.1055939E+06 -0.2635973E+01  0.1698111E+04 -0.1482716E+01
  0.9476191E+00  0.6950219E+05 -0.1483303E+01  0.1103048E+06 -0.2618057E+01  0.1866280E+04 -0.1468359E+01
  0.9785714E+00  0.7324136E+05 -0.1468662E+01  0.1148587E+06 -0.2600613E+01  0.2031261E+04 -0.1452046E+01
  0.1009524E+01  0.7685825E+05 -0.1452394E+01  0.1192487E+06 -0.2583692E+01  0.2196437E+04 -0.1433798E+01
  0.1040476E+01  0.8025054E+05 -0.1434360E+01  0.1234541E+06 -0.2567236E+01  0.2362401E+04 -0.1413513E+01
  0.1071429E+01  0.8336145E+05 -0.1414476E+01  0.1274859E+06 -0.2551466E+01  0.2520885E+04 -0.1390759E+01
  0.1102381E+01  0.8621913E+05 -0.1392871E+01  0.1313446E+06 -0.2536483E+01  0.2685485E+04 -0.1366678E+01
  0.1133333E+01  0.8885937E+05 -0.1369812E+01  0.1349851E+06 -0.2521928E+01  0.2843196E+04 -0.1340796E+01
  0.1164286E+01  0.9118862E+05 -0.1345282E+01  0.1384120E+06 -0.2507950E+01  0.2994293E+04 -0.1313325E+01
  0.1195238E+01  0.9312274E+05 -0.1319257E+01  0.1415945E+06 -0.2494312E+01  0.3150729E+04 -0.1284545E+01
  0.1226190E+01  0.9458174E+05 -0.1291726E+01  0.1445450E+06 -0.2481278E+01  0.3303695E+04 -0.1254637E+01
  0.1257143E+01  0.9551595E+05 -0.1262541E+01  0.1472943E+06 -0.2468684E+01  0.3449413E+04 -0.1223523E+01
  0.1288095E+01  0.9596555E+05 -0.1232916E+01  0.1497253E+06 -0.2457024E+01  0.3574454E+04 -0.1191794E+01
  0.1319048E+01  0.9577615E+05 -0.1202020E+01  0.1519300E+06 -0.2445610E+01  0.3661733E+04 -0.1157675E+01
  0.1350000E+01  0.9496534E+05 -0.1170334E+01  0.1538757E+06 -0.2434714E+01  0.3723204E+04 -0.1122136E+01
  0.1380952E+01  0.9349784E+05 -0.1137896E+01  0.1555493E+06 -0.2424287E+01  0.3771466E+04 -0.1086295E+01
  0.1411905E+01  0.9081149E+05 -0.1104961E+01  0.1567896E+06 -0.2413915E+01  0.3732366E+04 -0.1046216E+01
  0.1442857E+01  0.8804953E+05 -0.1071720E+01  0.1579394E+06 -0.2404539E+01  0.3739506E+04 -0.1011543E+01
  0.1473810E+01  0.8464006E+05 -0.1038339E+01  0.1588219E+06 -0.2395749E+01  0.3705236E+04 -0.9762306E+00
  0.1504762E+01  0.8059158E+05 -0.1004808E+01  0.1594273E+06 -0.2387389E+01  0.3628302E+04 -0.9398868E+00
  0.1535714E+01  0.7590881E+05 -0.9709808E+00  0.1597683E+06 -0.2379481E+01  0.3505570E+04 -0.9014699E+00
  0.1566667E+01  0.7066017E+05 -0.9371706E+00  0.1598415E+06 -0.2372086E+01  0.3353031E+04 -0.8643082E+00
  0.1597619E+01  0.6486743E+05 -0.9031379E+00  0.1596403E+06 -0.2364967E+01  0.3174288E+04 -0.8291547E+00
  0.1628572E+01  0.5858437E+05 -0.8686241E+00  0.1591784E+06 -0.2358471E+01  0.2958038E+04 -0.7943902E+00
  0.1659524E+01  0.5185324E+05 -0.8331308E+00  0.1584524E+06 -0.2352530E+01  0.2704687E+04 -0.7590476E+00
  0.1690476E+01  0.4474816E+05 -0.7960178E+00  0.1574619E+06 -0.2347197E+01  0.2409906E+04 -0.7220005E+00
  0.1721429E+01  0.3731432E+05 -0.7554877E+00  0.1562057E+06 -0.2342355E+01  0.2068876E+04 -0.6798197E+00
  0.1752381E+01  0.2959819E+05 -0.7075347E+00  0.1546969E+06 -0.2337983E+01  0.1685704E+04 -0.6299556E+00
  0.1783333E+01  0.2167119E+05 -0.6429932E+00  0.1529412E+06 -0.2334116E+01  0.1266770E+04 -0.5636106E+00
  0.1814286E+01  0.1364232E+05 -0.5304752E+00  0.1509379E+06 -0.2330772E+01  0.8230017E+03 -0.4542798E+00
  0.1845238E+01  0.5902923E+04 -0.1680542E+00  0.1486942E+06 -0.2327760E+01  0.3752154E+03 -0.1453416E+00
  0.1876190E+01  0.4745750E+04  0.1663978E+01  0.1462174E+06 -0.2325458E+01  0.2511292E+03  0.1716136E+01
  0.1907143E+01  0.1236056E+05  0.2169208E+01  0.1435089E+06 -0.2323821E+01  0.7233644E+03  0.2292480E+01
  0.1938095E+01  0.2063970E+05  0.2295405E+01  0.1405695E+06 -0.2322978E+01  0.1271695E+04  0.2421119E+01
  0.1969048E+01  0.2898275E+05  0.2358562E+01  0.1374001E+06 -0.2322870E+01  0.1855238E+04  0.2484865E+01
  0.2000000E+01  0.3728391E+05  0.2400051E+01  0.1339993E+06 -0.2323640E+01  0.2467059E+04  0.2527462E+01
