VARIABLES="w (rad/s)"
"abs(F   1   1)" "angle(F   1   1)"
"abs(F   1   2)" "angle(F   1   2)"
"abs(F   1   3)" "angle(F   1   3)"
Zone t="Diffraction force - beta =   0.000 deg",I=    64,F=POINT
  0.5000000E-01  0.4486327E+04 -0.1570819E+01  0.6228591E+06 -0.4280260E-04  0.9251181E+02 -0.1570973E+01
  0.8095238E-01  0.7314531E+04 -0.1570795E+01  0.6214355E+06 -0.1150877E-03  0.1505686E+03 -0.1570890E+01
  0.1119048E+00  0.1020402E+05 -0.1570789E+01  0.6193466E+06 -0.2283603E-03  0.2098988E+03 -0.1570875E+01
  0.1428571E+00  0.1318680E+05 -0.1570785E+01  0.6165928E+06 -0.3911776E-03  0.2736357E+03 -0.1570846E+01
  0.1738095E+00  0.1630818E+05 -0.1570778E+01  0.6131683E+06 -0.6163521E-03  0.3395983E+03 -0.1570833E+01
  0.2047619E+00  0.1958966E+05 -0.1570771E+01  0.6090669E+06 -0.9224563E-03  0.4122946E+03 -0.1570807E+01
  0.2357143E+00  0.2306080E+05 -0.1570760E+01  0.6042852E+06 -0.1336889E-02  0.4883155E+03 -0.1570796E+01
  0.2666667E+00  0.2681819E+05 -0.1570740E+01  0.5988121E+06 -0.1892344E-02  0.5741061E+03 -0.1570768E+01
  0.2976190E+00  0.3087021E+05 -0.1570713E+01  0.5926529E+06 -0.2645452E-02  0.6692756E+03 -0.1570737E+01
  0.3285715E+00  0.3528207E+05 -0.1570671E+01  0.5857927E+06 -0.3651544E-02  0.7738671E+03 -0.1570689E+01
  0.3595238E+00  0.4017152E+05 -0.1570614E+01  0.5782709E+06 -0.5000947E-02  0.8949116E+03 -0.1570631E+01
  0.3904762E+00  0.4556948E+05 -0.1570520E+01  0.5700703E+06 -0.6791282E-02  0.1033773E+04 -0.1570539E+01
  0.4214286E+00  0.5145658E+05 -0.1570387E+01  0.5613057E+06 -0.9083031E-02  0.1178674E+04 -0.1570400E+01
  0.4523810E+00  0.5798844E+05 -0.1570192E+01  0.5519492E+06 -0.1205025E-01  0.1353688E+04 -0.1570202E+01
  0.4833333E+00  0.6516777E+05 -0.1569922E+01  0.5421464E+06 -0.1559860E-01  0.1549613E+04 -0.1569933E+01
  0.5142857E+00  0.7287823E+05 -0.1569548E+01  0.5319371E+06 -0.1993402E-01  0.1768766E+04 -0.1569555E+01
  0.5452381E+00  0.8104671E+05 -0.1569049E+01  0.5213327E+06 -0.2497565E-01  0.1993816E+04 -0.1569057E+01
  0.5761905E+00  0.8978279E+05 -0.1568402E+01  0.5104347E+06 -0.3072979E-01  0.2253956E+04 -0.1568409E+01
  0.6071429E+00  0.9904106E+05 -0.1567569E+01  0.4992925E+06 -0.3736429E-01  0.2548463E+04 -0.1567577E+01
  0.6380953E+00  0.1086765E+06 -0.1566535E+01  0.4878576E+06 -0.4468913E-01  0.2856785E+04 -0.1566541E+01
  0.6690477E+00  0.1185169E+06 -0.1565253E+01  0.4762591E+06 -0.5286936E-01  0.3169217E+04 -0.1565255E+01
  0.7000000E+00  0.1287153E+06 -0.1563685E+01  0.4645236E+06 -0.6199502E-01  0.3522060E+04 -0.1563690E+01
  0.7309524E+00  0.1393278E+06 -0.1561807E+01  0.4526306E+06 -0.7197016E-01  0.3899323E+04 -0.1561817E+01
  0.7619048E+00  0.1502297E+06 -0.1559572E+01  0.4406994E+06 -0.8288607E-01  0.4306847E+04 -0.1559583E+01
  0.7928572E+00  0.1613515E+06 -0.1556938E+01  0.4287555E+06 -0.9477928E-01  0.4752338E+04 -0.1556947E+01
  0.8238096E+00  0.1725733E+06 -0.1553863E+01  0.4168004E+06 -0.1076540E+00  0.5197323E+04 -0.1553864E+01
  0.8547620E+00  0.1838117E+06 -0.1550315E+01  0.4048570E+06 -0.1215224E+00  0.5649092E+04 -0.1550312E+01
  0.8857143E+00  0.1952268E+06 -0.1546279E+01  0.3929945E+06 -0.1364120E+00  0.6147228E+04 -0.1546290E+01
  0.9166667E+00  0.2068084E+06 -0.1541735E+01  0.3812146E+06 -0.1523283E+00  0.6692821E+04 -0.1541774E+01
  0.9476191E+00  0.2184247E+06 -0.1536664E+01  0.3695865E+06 -0.1692744E+00  0.7255957E+04 -0.1536706E+01
  0.9785714E+00  0.2299478E+06 -0.1531048E+01  0.3581235E+06 -0.1872477E+00  0.7836081E+04 -0.1531098E+01
  0.1009524E+01  0.2412605E+06 -0.1524886E+01  0.3468392E+06 -0.2062579E+00  0.8435048E+04 -0.1524919E+01
  0.1040476E+01  0.2521939E+06 -0.1518189E+01  0.3357308E+06 -0.2263017E+00  0.9038338E+04 -0.1518160E+01
  0.1071429E+01  0.2627500E+06 -0.1511002E+01  0.3247888E+06 -0.2473817E+00  0.9660744E+04 -0.1510928E+01
  0.1102381E+01  0.2729591E+06 -0.1503438E+01  0.3140354E+06 -0.2695194E+00  0.1029081E+05 -0.1503370E+01
  0.1133333E+01  0.2827010E+06 -0.1495574E+01  0.3035337E+06 -0.2927134E+00  0.1092480E+05 -0.1495608E+01
  0.1164286E+01  0.2918717E+06 -0.1487497E+01  0.2932652E+06 -0.3169667E+00  0.1157257E+05 -0.1487518E+01
  0.1195238E+01  0.3003039E+06 -0.1479304E+01  0.2832559E+06 -0.3422642E+00  0.1223036E+05 -0.1479261E+01
  0.1226190E+01  0.3079632E+06 -0.1471131E+01  0.2734583E+06 -0.3685975E+00  0.1288983E+05 -0.1471032E+01
  0.1257143E+01  0.3147444E+06 -0.1463104E+01  0.2639060E+06 -0.3961414E+00  0.1352779E+05 -0.1463026E+01
  0.1288095E+01  0.3206460E+06 -0.1455666E+01  0.2546015E+06 -0.4243870E+00  0.1413973E+05 -0.1455647E+01
  0.1319048E+01  0.3255330E+06 -0.1448740E+01  0.2455710E+06 -0.4538501E+00  0.1471540E+05 -0.1448789E+01
  0.1350000E+01  0.3293937E+06 -0.1442589E+01  0.2368124E+06 -0.4843665E+00  0.1527820E+05 -0.1442536E+01
  0.1380952E+01  0.3322143E+06 -0.1437403E+01  0.2282740E+06 -0.5158685E+00  0.1582386E+05 -0.1437291E+01
  0.1411905E+01  0.3334990E+06 -0.1434064E+01  0.2201170E+06 -0.5476943E+00  0.1626966E+05 -0.1433928E+01
  0.1442857E+01  0.3343389E+06 -0.1431499E+01  0.2120555E+06 -0.5812411E+00  0.1675086E+05 -0.1431391E+01
  0.1473810E+01  0.3342049E+06 -0.1430476E+01  0.2042515E+06 -0.6158020E+00  0.1718231E+05 -0.1430437E+01
  0.1504762E+01  0.3331138E+06 -0.1431140E+01  0.1966929E+06 -0.6514346E+00  0.1756088E+05 -0.1431082E+01
  0.1535714E+01  0.3311745E+06 -0.1433664E+01  0.1893667E+06 -0.6881154E+00  0.1791004E+05 -0.1433656E+01
  0.1566667E+01  0.3284385E+06 -0.1438166E+01  0.1823111E+06 -0.7258179E+00  0.1823534E+05 -0.1438159E+01
  0.1597619E+01  0.3249887E+06 -0.1444729E+01  0.1754592E+06 -0.7645842E+00  0.1852419E+05 -0.1444728E+01
  0.1628572E+01  0.3209006E+06 -0.1453444E+01  0.1688185E+06 -0.8043993E+00  0.1877622E+05 -0.1453312E+01
  0.1659524E+01  0.3162832E+06 -0.1464358E+01  0.1623746E+06 -0.8452598E+00  0.1898756E+05 -0.1464095E+01
  0.1690476E+01  0.3112030E+06 -0.1477503E+01  0.1561451E+06 -0.8871415E+00  0.1915368E+05 -0.1477235E+01
  0.1721429E+01  0.3057194E+06 -0.1492896E+01  0.1501295E+06 -0.9301190E+00  0.1927992E+05 -0.1492847E+01
  0.1752381E+01  0.2999159E+06 -0.1510553E+01  0.1443135E+06 -0.9742075E+00  0.1937806E+05 -0.1510793E+01
  0.1783333E+01  0.2938697E+06 -0.1530461E+01  0.1387010E+06 -0.1019360E+01  0.1945635E+05 -0.1530866E+01
  0.1814286E+01  0.2876271E+06 -0.1552594E+01  0.1333002E+06 -0.1065571E+01  0.1952150E+05 -0.1553010E+01
  0.1845238E+01  0.2812442E+06 -0.1576925E+01  0.1280599E+06 -0.1112970E+01  0.1957004E+05 -0.1577286E+01
  0.1876190E+01  0.2747700E+06 -0.1603420E+01  0.1229727E+06 -0.1161526E+01  0.1960383E+05 -0.1603491E+01
  0.1907143E+01  0.2682530E+06 -0.1632004E+01  0.1180330E+06 -0.1211297E+01  0.1961145E+05 -0.1631907E+01
  0.1938095E+01  0.2617175E+06 -0.1662644E+01  0.1132320E+06 -0.1262208E+01  0.1959979E+05 -0.1662593E+01
  0.1969048E+01  0.2551924E+06 -0.1695289E+01  0.1085556E+06 -0.1314367E+01  0.1956951E+05 -0.1695482E+01
  0.2000000E+01  0.2487229E+06 -0.1729926E+01  0.1040266E+06 -0.1367877E+01  0.1952113E+05 -0.1730532E+01
