VARIABLES="w (rad/s)"
"abs(F   1   1)" "angle(F   1   1)"
"abs(F   1   2)" "angle(F   1   2)"
"abs(F   1   3)" "angle(F   1   3)"
Zone t="Diffraction force - beta =   0.000 deg",I=    64,F=POINT
  0.5000000E-01  0.1857604E+04 -0.1570816E+01  0.3336205E+06 -0.2271459E-04  0.7390221E+03  0.1570756E+01
  0.8095238E-01  0.3032262E+04 -0.1570798E+01  0.3331027E+06 -0.6111991E-04  0.1210022E+04  0.1570789E+01
  0.1119048E+00  0.4234120E+04 -0.1570799E+01  0.3323422E+06 -0.1214151E-03  0.1683222E+04  0.1570793E+01
  0.1428571E+00  0.5472856E+04 -0.1570785E+01  0.3313368E+06 -0.2082558E-03  0.2169191E+04  0.1570810E+01
  0.1738095E+00  0.6766801E+04 -0.1570790E+01  0.3300873E+06 -0.3287527E-03  0.2668346E+04  0.1570804E+01
  0.2047619E+00  0.8124903E+04 -0.1570785E+01  0.3285868E+06 -0.4930565E-03  0.3189781E+04  0.1570809E+01
  0.2357143E+00  0.9569753E+04 -0.1570777E+01  0.3268364E+06 -0.7163257E-03  0.3732594E+04  0.1570805E+01
  0.2666667E+00  0.1112124E+05 -0.1570775E+01  0.3248324E+06 -0.1017067E-02  0.4308296E+04  0.1570810E+01
  0.2976190E+00  0.1280085E+05 -0.1570762E+01  0.3225653E+06 -0.1426326E-02  0.4918396E+04  0.1570825E+01
  0.3285715E+00  0.1463153E+05 -0.1570744E+01  0.3200408E+06 -0.1976421E-02  0.5571025E+04  0.1570847E+01
  0.3595238E+00  0.1665116E+05 -0.1570717E+01  0.3172648E+06 -0.2717786E-02  0.6278866E+04  0.1570873E+01
  0.3904762E+00  0.1886933E+05 -0.1570682E+01  0.3142215E+06 -0.3707779E-02  0.7047205E+04  0.1570906E+01
  0.4214286E+00  0.2132399E+05 -0.1570625E+01  0.3109402E+06 -0.4983441E-02  0.7855594E+04  0.1570971E+01
  0.4523810E+00  0.2402370E+05 -0.1570546E+01  0.3074317E+06 -0.6643806E-02  0.8730813E+04  0.1571044E+01
  0.4833333E+00  0.2697907E+05 -0.1570432E+01  0.3037192E+06 -0.8649685E-02  0.9659368E+04  0.1571160E+01
  0.5142857E+00  0.3014742E+05 -0.1570277E+01  0.2998040E+06 -0.1111416E-01  0.1065502E+05  0.1571320E+01
  0.5452381E+00  0.3353824E+05 -0.1570068E+01  0.2957047E+06 -0.1400722E-01  0.1166665E+05  0.1571523E+01
  0.5761905E+00  0.3715788E+05 -0.1569794E+01  0.2914542E+06 -0.1734205E-01  0.1268493E+05  0.1571800E+01
  0.6071429E+00  0.4094987E+05 -0.1569445E+01  0.2870654E+06 -0.2121159E-01  0.1372654E+05  0.1572151E+01
  0.6380953E+00  0.4488815E+05 -0.1569006E+01  0.2825011E+06 -0.2553492E-01  0.1478113E+05  0.1572586E+01
  0.6690477E+00  0.4897105E+05 -0.1568463E+01  0.2778055E+06 -0.3040650E-01  0.1580640E+05  0.1573128E+01
  0.7000000E+00  0.5319085E+05 -0.1567794E+01  0.2730208E+06 -0.3588915E-01  0.1678821E+05  0.1573796E+01
  0.7309524E+00  0.5756447E+05 -0.1566990E+01  0.2681346E+06 -0.4194681E-01  0.1773493E+05  0.1574602E+01
  0.7619048E+00  0.6205884E+05 -0.1566027E+01  0.2631601E+06 -0.4863309E-01  0.1863787E+05  0.1575566E+01
  0.7928572E+00  0.6662048E+05 -0.1564885E+01  0.2581114E+06 -0.5598294E-01  0.1952605E+05  0.1576708E+01
  0.8238096E+00  0.7125415E+05 -0.1563544E+01  0.2529934E+06 -0.6401598E-01  0.2034697E+05  0.1578050E+01
  0.8547620E+00  0.7597275E+05 -0.1561987E+01  0.2478304E+06 -0.7275453E-01  0.2106396E+05  0.1579607E+01
  0.8857143E+00  0.8079969E+05 -0.1560197E+01  0.2426482E+06 -0.8221541E-01  0.2168628E+05  0.1581402E+01
  0.9166667E+00  0.8567368E+05 -0.1558151E+01  0.2374706E+06 -0.9242082E-01  0.2224124E+05  0.1583453E+01
  0.9476191E+00  0.9059191E+05 -0.1555834E+01  0.2322975E+06 -0.1033724E+00  0.2271158E+05  0.1585776E+01
  0.9785714E+00  0.9552369E+05 -0.1553230E+01  0.2271212E+06 -0.1150742E+00  0.2308326E+05  0.1588382E+01
  0.1009524E+01  0.1004475E+06 -0.1550327E+01  0.2219452E+06 -0.1275385E+00  0.2335796E+05  0.1591278E+01
  0.1040476E+01  0.1053470E+06 -0.1547119E+01  0.2167920E+06 -0.1407856E+00  0.2353220E+05  0.1594480E+01
  0.1071429E+01  0.1101981E+06 -0.1543608E+01  0.2116932E+06 -0.1548445E+00  0.2354315E+05  0.1597999E+01
  0.1102381E+01  0.1150410E+06 -0.1539799E+01  0.2066416E+06 -0.1697038E+00  0.2343424E+05  0.1601834E+01
  0.1133333E+01  0.1198131E+06 -0.1535696E+01  0.2016666E+06 -0.1853778E+00  0.2316891E+05  0.1605976E+01
  0.1164286E+01  0.1245111E+06 -0.1531318E+01  0.1967528E+06 -0.2018501E+00  0.2277568E+05  0.1610405E+01
  0.1195238E+01  0.1290817E+06 -0.1526679E+01  0.1919122E+06 -0.2191105E+00  0.2228402E+05  0.1615087E+01
  0.1226190E+01  0.1334745E+06 -0.1521802E+01  0.1871340E+06 -0.2371629E+00  0.2165151E+05  0.1619973E+01
  0.1257143E+01  0.1376590E+06 -0.1516688E+01  0.1824139E+06 -0.2562050E+00  0.2091202E+05  0.1625034E+01
  0.1288095E+01  0.1416825E+06 -0.1511505E+01  0.1777672E+06 -0.2756443E+00  0.2001669E+05  0.1630118E+01
  0.1319048E+01  0.1454472E+06 -0.1506212E+01  0.1731945E+06 -0.2961066E+00  0.1896003E+05  0.1635294E+01
  0.1350000E+01  0.1489717E+06 -0.1500929E+01  0.1687157E+06 -0.3173940E+00  0.1776581E+05  0.1640472E+01
  0.1380952E+01  0.1522379E+06 -0.1495720E+01  0.1643233E+06 -0.3394683E+00  0.1646962E+05  0.1645614E+01
  0.1411905E+01  0.1546575E+06 -0.1491734E+01  0.1605001E+06 -0.3592207E+00  0.1520573E+05  0.1649500E+01
  0.1442857E+01  0.1573187E+06 -0.1486955E+01  0.1563228E+06 -0.3827296E+00  0.1368042E+05  0.1654109E+01
  0.1473810E+01  0.1596737E+06 -0.1482512E+01  0.1522332E+06 -0.4070051E+00  0.1207998E+05  0.1658276E+01
  0.1504762E+01  0.1616723E+06 -0.1478508E+01  0.1482395E+06 -0.4320509E+00  0.1035656E+05  0.1661850E+01
  0.1535714E+01  0.1633412E+06 -0.1475058E+01  0.1443174E+06 -0.4578491E+00  0.8558619E+04  0.1664790E+01
  0.1566667E+01  0.1646612E+06 -0.1472272E+01  0.1404923E+06 -0.4844441E+00  0.6693894E+04  0.1666627E+01
  0.1597619E+01  0.1656295E+06 -0.1470225E+01  0.1367669E+06 -0.5118631E+00  0.4800402E+04  0.1667431E+01
  0.1628572E+01  0.1662367E+06 -0.1469033E+01  0.1331401E+06 -0.5400413E+00  0.2847965E+04  0.1664826E+01
  0.1659524E+01  0.1665011E+06 -0.1468788E+01  0.1296017E+06 -0.5689943E+00  0.8727541E+03  0.1644041E+01
  0.1690476E+01  0.1664485E+06 -0.1469591E+01  0.1261531E+06 -0.5987566E+00  0.1089956E+04 -0.1445436E+01
  0.1721429E+01  0.1660718E+06 -0.1471537E+01  0.1227962E+06 -0.6292572E+00  0.3063237E+04 -0.1462269E+01
  0.1752381E+01  0.1653919E+06 -0.1474694E+01  0.1195273E+06 -0.6605262E+00  0.5027561E+04 -0.1468487E+01
  0.1783333E+01  0.1644380E+06 -0.1479146E+01  0.1163411E+06 -0.6925622E+00  0.6962564E+04 -0.1474365E+01
  0.1814286E+01  0.1632292E+06 -0.1484957E+01  0.1132443E+06 -0.7253584E+00  0.8864255E+04 -0.1480767E+01
  0.1845238E+01  0.1617833E+06 -0.1492134E+01  0.1102434E+06 -0.7590145E+00  0.1070382E+05 -0.1488692E+01
  0.1876190E+01  0.1601176E+06 -0.1500762E+01  0.1073316E+06 -0.7933774E+00  0.1250657E+05 -0.1497640E+01
  0.1907143E+01  0.1582579E+06 -0.1510851E+01  0.1045008E+06 -0.8284564E+00  0.1425446E+05 -0.1507947E+01
  0.1938095E+01  0.1562423E+06 -0.1522424E+01  0.1017270E+06 -0.8643138E+00  0.1592144E+05 -0.1520036E+01
  0.1969048E+01  0.1540805E+06 -0.1535521E+01  0.9901496E+05 -0.9008614E+00  0.1752897E+05 -0.1533307E+01
  0.2000000E+01  0.1517806E+06 -0.1550116E+01  0.9639298E+05 -0.9381246E+00  0.1906150E+05 -0.1548150E+01
