VARIABLES="w (rad/s)"
"abs(F   1   1)" "angle(F   1   1)"
"abs(F   1   2)" "angle(F   1   2)"
"abs(F   1   3)" "angle(F   1   3)"
Zone t="Diffraction force - beta =   0.000 deg",I=    64,F=POINT
  0.5000000E-01  0.1243096E+05 -0.1570780E+01  0.6551098E+06 -0.4406634E-04  0.3516121E+05  0.1570783E+01
  0.8095238E-01  0.2027390E+05 -0.1570789E+01  0.6523995E+06 -0.1182833E-03  0.5732711E+05  0.1570816E+01
  0.1119048E+00  0.2828480E+05 -0.1570777E+01  0.6484237E+06 -0.2340855E-03  0.7994081E+05  0.1570813E+01
  0.1428571E+00  0.3653768E+05 -0.1570768E+01  0.6431904E+06 -0.3997310E-03  0.1032445E+06  0.1570826E+01
  0.1738095E+00  0.4513889E+05 -0.1570758E+01  0.6367031E+06 -0.6269046E-03  0.1274845E+06  0.1570839E+01
  0.2047619E+00  0.5413269E+05 -0.1570731E+01  0.6289701E+06 -0.9338814E-03  0.1528554E+06  0.1570865E+01
  0.2357143E+00  0.6372827E+05 -0.1570694E+01  0.6200333E+06 -0.1345990E-02  0.1797839E+06  0.1570898E+01
  0.2666667E+00  0.7396292E+05 -0.1570645E+01  0.6098497E+06 -0.1891584E-02  0.2084865E+06  0.1570950E+01
  0.2976190E+00  0.8501038E+05 -0.1570572E+01  0.5985569E+06 -0.2626267E-02  0.2395296E+06  0.1571021E+01
  0.3285715E+00  0.9707678E+05 -0.1570463E+01  0.5860477E+06 -0.3593874E-02  0.2732405E+06  0.1571131E+01
  0.3595238E+00  0.1103483E+06 -0.1570300E+01  0.5725966E+06 -0.4881007E-02  0.3102330E+06  0.1571293E+01
  0.3904762E+00  0.1248182E+06 -0.1570054E+01  0.5580481E+06 -0.6565568E-02  0.3506594E+06  0.1571540E+01
  0.4214286E+00  0.1409045E+06 -0.1569699E+01  0.5427670E+06 -0.8691104E-02  0.3954148E+06  0.1571893E+01
  0.4523810E+00  0.1585282E+06 -0.1569180E+01  0.5266778E+06 -0.1143634E-01  0.4442232E+06  0.1572413E+01
  0.4833333E+00  0.1777319E+06 -0.1568463E+01  0.5100090E+06 -0.1463906E-01  0.4971236E+06  0.1573129E+01
  0.5142857E+00  0.1982590E+06 -0.1567472E+01  0.4929602E+06 -0.1853875E-01  0.5539489E+06  0.1574120E+01
  0.5452381E+00  0.2203058E+06 -0.1566157E+01  0.4752826E+06 -0.2300413E-01  0.6144901E+06  0.1575436E+01
  0.5761905E+00  0.2438370E+06 -0.1564457E+01  0.4576877E+06 -0.2802979E-01  0.6787588E+06  0.1577134E+01
  0.6071429E+00  0.2682392E+06 -0.1562272E+01  0.4397728E+06 -0.3381992E-01  0.7451727E+06  0.1579320E+01
  0.6380953E+00  0.2935458E+06 -0.1559562E+01  0.4215178E+06 -0.4006087E-01  0.8137456E+06  0.1582030E+01
  0.6690477E+00  0.3198947E+06 -0.1556221E+01  0.4035526E+06 -0.4700244E-01  0.8852299E+06  0.1585372E+01
  0.7000000E+00  0.3469584E+06 -0.1552143E+01  0.3854918E+06 -0.5473384E-01  0.9576203E+06  0.1589448E+01
  0.7309524E+00  0.3747445E+06 -0.1547260E+01  0.3672199E+06 -0.6306455E-01  0.1031143E+07  0.1594332E+01
  0.7619048E+00  0.4032708E+06 -0.1541450E+01  0.3495732E+06 -0.7212424E-01  0.1106535E+07  0.1600142E+01
  0.7928572E+00  0.4317829E+06 -0.1534611E+01  0.3320340E+06 -0.8197172E-01  0.1181244E+07  0.1606982E+01
  0.8238096E+00  0.4604890E+06 -0.1526654E+01  0.3145252E+06 -0.9268420E-01  0.1256734E+07  0.1614943E+01
  0.8547620E+00  0.4895411E+06 -0.1517557E+01  0.2973923E+06 -0.1041169E+00  0.1331048E+07  0.1624031E+01
  0.8857143E+00  0.5187846E+06 -0.1507205E+01  0.2809524E+06 -0.1163600E+00  0.1405534E+07  0.1634380E+01
  0.9166667E+00  0.5472821E+06 -0.1495547E+01  0.2647394E+06 -0.1294788E+00  0.1476532E+07  0.1646035E+01
  0.9476191E+00  0.5752037E+06 -0.1482533E+01  0.2488217E+06 -0.1436633E+00  0.1545902E+07  0.1659053E+01
  0.9785714E+00  0.6019829E+06 -0.1468192E+01  0.2333196E+06 -0.1587202E+00  0.1610518E+07  0.1673396E+01
  0.1009524E+01  0.6277444E+06 -0.1452540E+01  0.2188163E+06 -0.1743708E+00  0.1672652E+07  0.1689058E+01
  0.1040476E+01  0.6512490E+06 -0.1435729E+01  0.2047108E+06 -0.1911044E+00  0.1727763E+07  0.1705880E+01
  0.1071429E+01  0.6729060E+06 -0.1418021E+01  0.1910690E+06 -0.2090750E+00  0.1776533E+07  0.1723572E+01
  0.1102381E+01  0.6922542E+06 -0.1399542E+01  0.1778043E+06 -0.2284082E+00  0.1818117E+07  0.1742041E+01
  0.1133333E+01  0.7088814E+06 -0.1380519E+01  0.1651889E+06 -0.2485467E+00  0.1851016E+07  0.1761047E+01
  0.1164286E+01  0.7227669E+06 -0.1361153E+01  0.1535220E+06 -0.2689207E+00  0.1876972E+07  0.1780422E+01
  0.1195238E+01  0.7327934E+06 -0.1341876E+01  0.1423285E+06 -0.2906899E+00  0.1891963E+07  0.1799711E+01
  0.1226190E+01  0.7393247E+06 -0.1323222E+01  0.1316529E+06 -0.3138323E+00  0.1896548E+07  0.1818334E+01
  0.1257143E+01  0.7425920E+06 -0.1305291E+01  0.1215006E+06 -0.3387712E+00  0.1893220E+07  0.1836294E+01
  0.1288095E+01  0.7423355E+06 -0.1288946E+01  0.1117324E+06 -0.3655833E+00  0.1878930E+07  0.1852594E+01
  0.1319048E+01  0.7389981E+06 -0.1273997E+01  0.1028277E+06 -0.3915919E+00  0.1856891E+07  0.1867496E+01
  0.1350000E+01  0.7325962E+06 -0.1260905E+01  0.9454676E+05 -0.4182824E+00  0.1827701E+07  0.1880624E+01
  0.1380952E+01  0.7231970E+06 -0.1250244E+01  0.8670215E+05 -0.4466318E+00  0.1790265E+07  0.1891241E+01
  0.1411905E+01  0.7104756E+06 -0.1242016E+01  0.7939597E+05 -0.4766434E+00  0.1745030E+07  0.1899386E+01
  0.1442857E+01  0.6964723E+06 -0.1236345E+01  0.7253142E+05 -0.5084044E+00  0.1697051E+07  0.1905198E+01
  0.1473810E+01  0.6804569E+06 -0.1233714E+01  0.6607262E+05 -0.5427807E+00  0.1643494E+07  0.1907775E+01
  0.1504762E+01  0.6632311E+06 -0.1234020E+01  0.6005795E+05 -0.5784386E+00  0.1587149E+07  0.1907327E+01
  0.1535714E+01  0.6452929E+06 -0.1237053E+01  0.5462685E+05 -0.6109889E+00  0.1530028E+07  0.1904197E+01
  0.1566667E+01  0.6262139E+06 -0.1243058E+01  0.4958065E+05 -0.6460282E+00  0.1471000E+07  0.1898318E+01
  0.1597619E+01  0.6065586E+06 -0.1252179E+01  0.4489177E+05 -0.6832927E+00  0.1410692E+07  0.1889135E+01
  0.1628572E+01  0.5866179E+06 -0.1264244E+01  0.4057384E+05 -0.7219725E+00  0.1350101E+07  0.1876910E+01
  0.1659524E+01  0.5666979E+06 -0.1278855E+01  0.3660170E+05 -0.7620399E+00  0.1290850E+07  0.1862489E+01
  0.1690476E+01  0.5468097E+06 -0.1296357E+01  0.3294339E+05 -0.8052657E+00  0.1232090E+07  0.1845007E+01
  0.1721429E+01  0.5271729E+06 -0.1316597E+01  0.2957870E+05 -0.8515555E+00  0.1174433E+07  0.1824604E+01
  0.1752381E+01  0.5079921E+06 -0.1339165E+01  0.2648835E+05 -0.8957061E+00  0.1118761E+07  0.1801933E+01
  0.1783333E+01  0.4892521E+06 -0.1364022E+01  0.2369023E+05 -0.9386992E+00  0.1065036E+07  0.1777189E+01
  0.1814286E+01  0.4708524E+06 -0.1391336E+01  0.2113907E+05 -0.9854940E+00  0.1012727E+07  0.1750038E+01
  0.1845238E+01  0.4529486E+06 -0.1421034E+01  0.1881257E+05 -0.1035229E+01  0.9621292E+06  0.1720279E+01
  0.1876190E+01  0.4355934E+06 -0.1452907E+01  0.1670968E+05 -0.1088567E+01  0.9134476E+06  0.1688260E+01
  0.1907143E+01  0.4188325E+06 -0.1486555E+01  0.1480892E+05 -0.1144559E+01  0.8669194E+06  0.1654866E+01
  0.1938095E+01  0.4026684E+06 -0.1522151E+01  0.1307295E+05 -0.1202016E+01  0.8223844E+06  0.1619542E+01
  0.1969048E+01  0.3870798E+06 -0.1559737E+01  0.1150516E+05 -0.1263143E+01  0.7797801E+06  0.1582117E+01
  0.2000000E+01  0.3720613E+06 -0.1599082E+01  0.1000347E+05 -0.1319027E+01  0.7390970E+06  0.1543017E+01
