VARIABLES="w (rad/s)"
"abs(F   1   1)" "angle(F   1   1)"
"abs(F   1   2)" "angle(F   1   2)"
"abs(F   1   3)" "angle(F   1   3)"
Zone t="Diffraction force - beta =   0.000 deg",I=    64,F=POINT
  0.5000000E-01  0.1452196E+05 -0.1570786E+01  0.6555676E+06 -0.4433340E-04  0.4925390E+05  0.1570812E+01
  0.8095238E-01  0.2368320E+05 -0.1570785E+01  0.6526088E+06 -0.1189629E-03  0.8031209E+05  0.1570802E+01
  0.1119048E+00  0.3302348E+05 -0.1570782E+01  0.6482714E+06 -0.2353055E-03  0.1119117E+06  0.1570814E+01
  0.1428571E+00  0.4265275E+05 -0.1570768E+01  0.6425599E+06 -0.4015617E-03  0.1444925E+06  0.1570820E+01
  0.1738095E+00  0.5265430E+05 -0.1570751E+01  0.6355009E+06 -0.6292101E-03  0.1782043E+06  0.1570847E+01
  0.2047619E+00  0.6313285E+05 -0.1570718E+01  0.6270878E+06 -0.9364426E-03  0.2135637E+06  0.1570870E+01
  0.2357143E+00  0.7427006E+05 -0.1570677E+01  0.6173312E+06 -0.1348073E-02  0.2509061E+06  0.1570912E+01
  0.2666667E+00  0.8613212E+05 -0.1570626E+01  0.6063174E+06 -0.1891986E-02  0.2906016E+06  0.1570973E+01
  0.2976190E+00  0.9893470E+05 -0.1570538E+01  0.5939858E+06 -0.2622759E-02  0.3334751E+06  0.1571056E+01
  0.3285715E+00  0.1128702E+06 -0.1570411E+01  0.5805317E+06 -0.3583344E-02  0.3797938E+06  0.1571182E+01
  0.3595238E+00  0.1281622E+06 -0.1570223E+01  0.5658794E+06 -0.4857508E-02  0.4304470E+06  0.1571370E+01
  0.3904762E+00  0.1448535E+06 -0.1569945E+01  0.5502801E+06 -0.6522049E-02  0.4857599E+06  0.1571648E+01
  0.4214286E+00  0.1633057E+06 -0.1569538E+01  0.5337658E+06 -0.8614586E-02  0.5465341E+06  0.1572054E+01
  0.4523810E+00  0.1834844E+06 -0.1568947E+01  0.5165106E+06 -0.1131523E-01  0.6125271E+06  0.1572647E+01
  0.4833333E+00  0.2054119E+06 -0.1568133E+01  0.4987228E+06 -0.1445647E-01  0.6840388E+06  0.1573460E+01
  0.5142857E+00  0.2289615E+06 -0.1567010E+01  0.4803672E+06 -0.1827119E-01  0.7608580E+06  0.1574584E+01
  0.5452381E+00  0.2541011E+06 -0.1565525E+01  0.4618729E+06 -0.2263929E-01  0.8421061E+06  0.1576068E+01
  0.5761905E+00  0.2807693E+06 -0.1563611E+01  0.4429674E+06 -0.2753398E-01  0.9274182E+06  0.1577981E+01
  0.6071429E+00  0.3083818E+06 -0.1561158E+01  0.4240508E+06 -0.3316521E-01  0.1015179E+07  0.1580435E+01
  0.6380953E+00  0.3370218E+06 -0.1558125E+01  0.4050825E+06 -0.3924872E-01  0.1106182E+07  0.1583467E+01
  0.6690477E+00  0.3667077E+06 -0.1554401E+01  0.3859226E+06 -0.4600161E-01  0.1199744E+07  0.1587192E+01
  0.7000000E+00  0.3970187E+06 -0.1549871E+01  0.3670844E+06 -0.5348526E-01  0.1293508E+07  0.1591721E+01
  0.7309524E+00  0.4281279E+06 -0.1544464E+01  0.3484291E+06 -0.6158189E-01  0.1389116E+07  0.1597128E+01
  0.7619048E+00  0.4597387E+06 -0.1538059E+01  0.3298299E+06 -0.7042274E-01  0.1485016E+07  0.1603533E+01
  0.7928572E+00  0.4914318E+06 -0.1530549E+01  0.3114594E+06 -0.8004378E-01  0.1580616E+07  0.1611043E+01
  0.8238096E+00  0.5230326E+06 -0.1521848E+01  0.2938244E+06 -0.9036388E-01  0.1675106E+07  0.1619746E+01
  0.8547620E+00  0.5547190E+06 -0.1511936E+01  0.2764559E+06 -0.1015243E+00  0.1767572E+07  0.1629653E+01
  0.8857143E+00  0.5864794E+06 -0.1500717E+01  0.2593852E+06 -0.1136368E+00  0.1858484E+07  0.1640867E+01
  0.9166667E+00  0.6172159E+06 -0.1488142E+01  0.2427454E+06 -0.1265904E+00  0.1944655E+07  0.1653439E+01
  0.9476191E+00  0.6468584E+06 -0.1474183E+01  0.2270618E+06 -0.1401622E+00  0.2025932E+07  0.1667398E+01
  0.9785714E+00  0.6751352E+06 -0.1458865E+01  0.2118619E+06 -0.1547714E+00  0.2101678E+07  0.1682718E+01
  0.1009524E+01  0.7016762E+06 -0.1442272E+01  0.1971106E+06 -0.1705748E+00  0.2170742E+07  0.1699317E+01
  0.1040476E+01  0.7260226E+06 -0.1424528E+01  0.1828040E+06 -0.1878039E+00  0.2232458E+07  0.1717072E+01
  0.1071429E+01  0.7474698E+06 -0.1406016E+01  0.1694997E+06 -0.2051169E+00  0.2281776E+07  0.1735547E+01
  0.1102381E+01  0.7664694E+06 -0.1386750E+01  0.1568895E+06 -0.2235045E+00  0.2323204E+07  0.1754816E+01
  0.1133333E+01  0.7819076E+06 -0.1367090E+01  0.1448729E+06 -0.2431185E+00  0.2351700E+07  0.1774462E+01
  0.1164286E+01  0.7939374E+06 -0.1347289E+01  0.1333861E+06 -0.2642841E+00  0.2368974E+07  0.1794260E+01
  0.1195238E+01  0.8022224E+06 -0.1327659E+01  0.1224585E+06 -0.2873095E+00  0.2374880E+07  0.1813909E+01
  0.1226190E+01  0.8062614E+06 -0.1308904E+01  0.1122738E+06 -0.3105737E+00  0.2365986E+07  0.1832604E+01
  0.1257143E+01  0.8064781E+06 -0.1291089E+01  0.1029149E+06 -0.3340448E+00  0.2345593E+07  0.1850387E+01
  0.1288095E+01  0.8035102E+06 -0.1274811E+01  0.9410350E+05 -0.3587281E+00  0.2315794E+07  0.1866671E+01
  0.1319048E+01  0.7965044E+06 -0.1260299E+01  0.8583270E+05 -0.3853814E+00  0.2273218E+07  0.1881153E+01
  0.1350000E+01  0.7866701E+06 -0.1247808E+01  0.7810595E+05 -0.4137914E+00  0.2222955E+07  0.1893614E+01
  0.1380952E+01  0.7740842E+06 -0.1237676E+01  0.7088128E+05 -0.4443027E+00  0.2165448E+07  0.1903764E+01
  0.1411905E+01  0.7580384E+06 -0.1230208E+01  0.6424357E+05 -0.4753108E+00  0.2098734E+07  0.1911126E+01
  0.1442857E+01  0.7404444E+06 -0.1225569E+01  0.5815943E+05 -0.5056682E+00  0.2027120E+07  0.1915645E+01
  0.1473810E+01  0.7214981E+06 -0.1223500E+01  0.5258036E+05 -0.5368826E+00  0.1953777E+07  0.1917815E+01
  0.1504762E+01  0.7010754E+06 -0.1224646E+01  0.4740604E+05 -0.5703732E+00  0.1876088E+07  0.1916542E+01
  0.1535714E+01  0.6798742E+06 -0.1228691E+01  0.4263035E+05 -0.6063362E+00  0.1797299E+07  0.1912426E+01
  0.1566667E+01  0.6582783E+06 -0.1235532E+01  0.3827062E+05 -0.6435820E+00  0.1718977E+07  0.1905559E+01
  0.1597619E+01  0.6361329E+06 -0.1245284E+01  0.3428425E+05 -0.6830537E+00  0.1640528E+07  0.1895910E+01
  0.1628572E+01  0.6138126E+06 -0.1258066E+01  0.3063352E+05 -0.7238196E+00  0.1562242E+07  0.1882967E+01
  0.1659524E+01  0.5915070E+06 -0.1273717E+01  0.2732194E+05 -0.7644579E+00  0.1485010E+07  0.1867036E+01
  0.1690476E+01  0.5695884E+06 -0.1291702E+01  0.2433515E+05 -0.8045273E+00  0.1410792E+07  0.1849237E+01
  0.1721429E+01  0.5480678E+06 -0.1312360E+01  0.2162146E+05 -0.8470552E+00  0.1338616E+07  0.1828591E+01
  0.1752381E+01  0.5269862E+06 -0.1335643E+01  0.1915413E+05 -0.8951485E+00  0.1268530E+07  0.1805185E+01
  0.1783333E+01  0.5065229E+06 -0.1361188E+01  0.1693725E+05 -0.9451053E+00  0.1201438E+07  0.1779649E+01
  0.1814286E+01  0.4867242E+06 -0.1388875E+01  0.1493665E+05 -0.9954558E+00  0.1137379E+07  0.1752117E+01
  0.1845238E+01  0.4674242E+06 -0.1418840E+01  0.1314450E+05 -0.1048298E+01  0.1075683E+07  0.1722363E+01
  0.1876190E+01  0.4487849E+06 -0.1450996E+01  0.1153381E+05 -0.1103003E+01  0.1016703E+07  0.1690263E+01
  0.1907143E+01  0.4308088E+06 -0.1485270E+01  0.1009180E+05 -0.1160298E+01  0.9604128E+06  0.1655869E+01
  0.1938095E+01  0.4135511E+06 -0.1521222E+01  0.8824816E+04 -0.1221690E+01  0.9069921E+06  0.1620169E+01
  0.1969048E+01  0.3969749E+06 -0.1558997E+01  0.7668197E+04 -0.1279431E+01  0.8562392E+06  0.1582614E+01
  0.2000000E+01  0.3810585E+06 -0.1598589E+01  0.6725091E+04 -0.1356200E+01  0.8080270E+06  0.1543203E+01
