VARIABLES="w (rad/s)"
"A   1   1" "B   1   1"
"A   1   2" "B   1   2"
"A   1   3" "B   1   3"
Zone t="Motion of body    1 in DoF   1",I=    64,F=POINT
  0.5000000E-01  0.3567204E+04  0.2035601E-04  0.2962351E-03  0.7365011E-06  0.1810340E+02  0.1016253E-06
  0.8095238E-01  0.3576284E+04  0.7982948E-04  0.3320680E-03  0.1007560E-05  0.1805912E+02  0.5165953E-06
  0.1119048E+00  0.3579878E+04  0.2222094E-03 -0.1747050E-03 -0.1072524E-06  0.1812457E+02  0.1522682E-05
  0.1428571E+00  0.3592751E+04  0.4972493E-03 -0.1118183E-03 -0.3181995E-06  0.1809507E+02  0.3488431E-05
  0.1738095E+00  0.3587809E+04  0.9919760E-03  0.2613133E-03  0.1535335E-05  0.1807067E+02  0.6939500E-05
  0.2047619E+00  0.3597713E+04  0.1846469E-02 -0.2095866E-04  0.9353703E-06  0.1792739E+02  0.1257428E-04
  0.2357143E+00  0.3602607E+04  0.3265282E-02 -0.4551627E-04  0.3481440E-05  0.1822613E+02  0.2236650E-04
  0.2666667E+00  0.3598411E+04  0.5586016E-02  0.2646446E-03  0.7924773E-06  0.1800616E+02  0.3838031E-04
  0.2976190E+00  0.3610381E+04  0.9408917E-02  0.3580856E-03  0.1682534E-05  0.1804723E+02  0.6470288E-04
  0.3285715E+00  0.3618061E+04  0.1563843E-01  0.5942842E-03  0.1081694E-04  0.1835329E+02  0.1080225E-03
  0.3595238E+00  0.3612196E+04  0.2576882E-01  0.7135504E-03  0.1813689E-04  0.1828480E+02  0.1784589E-03
  0.3904762E+00  0.3620371E+04  0.4222426E-01 -0.2869745E-04 -0.4880159E-05  0.1822449E+02  0.2938464E-03
  0.4214286E+00  0.3633232E+04  0.6835431E-01  0.3100249E-03  0.1743183E-04  0.1848610E+02  0.4797276E-03
  0.4523810E+00  0.3639590E+04  0.1096221E+00 -0.6608962E-03 -0.1417121E-04  0.1875918E+02  0.7751014E-03
  0.4833333E+00  0.3637192E+04  0.1714713E+00  0.1187818E-02  0.5125187E-04  0.1856183E+02  0.1215408E-02
  0.5142857E+00  0.3648791E+04  0.2641906E+00  0.4450480E-04 -0.2015266E-05  0.1869266E+02  0.1883112E-02
  0.5452381E+00  0.3665018E+04  0.3977442E+00  0.5317255E-03  0.3607327E-04  0.1906827E+02  0.2859685E-02
  0.5761905E+00  0.3669079E+04  0.5842557E+00 -0.1357212E-03 -0.2237130E-04  0.1925540E+02  0.4234395E-02
  0.6071429E+00  0.3670997E+04  0.8424219E+00  0.2222622E-03  0.5672267E-04  0.1933119E+02  0.6152573E-02
  0.6380953E+00  0.3683687E+04  0.1189533E+01  0.1113450E-03  0.3523100E-04  0.1949304E+02  0.8751687E-02
  0.6690477E+00  0.3699818E+04  0.1652124E+01  0.1803157E-03  0.3014645E-04  0.2005951E+02  0.1231849E-01
  0.7000000E+00  0.3716159E+04  0.2260938E+01 -0.6955010E-03 -0.4354399E-04  0.2054654E+02  0.1706072E-01
  0.7309524E+00  0.3720757E+04  0.3044068E+01 -0.1174231E-03  0.1589209E-04  0.2021522E+02  0.2303636E-01
  0.7619048E+00  0.3723180E+04  0.4045288E+01 -0.2935230E-03 -0.5507376E-04  0.2021434E+02  0.3084312E-01
  0.7928572E+00  0.3738523E+04  0.5318888E+01 -0.1130662E-03 -0.4169624E-04  0.2067720E+02  0.4105322E-01
  0.8238096E+00  0.3758355E+04  0.6919891E+01 -0.1018723E-03 -0.7119589E-04  0.2101428E+02  0.5396527E-01
  0.8547620E+00  0.3778018E+04  0.8910989E+01 -0.1684736E-03 -0.1940504E-04  0.2143494E+02  0.7030281E-01
  0.8857143E+00  0.3793938E+04  0.1136362E+02 -0.2831797E-03 -0.7574074E-04  0.2184567E+02  0.9075470E-01
  0.9166667E+00  0.3805421E+04  0.1435806E+02 -0.2361644E-03  0.1356006E-04  0.2190126E+02  0.1156432E+00
  0.9476191E+00  0.3815200E+04  0.1798874E+02  0.3411662E-03  0.1386255E-03  0.2188550E+02  0.1460214E+00
  0.9785714E+00  0.3832185E+04  0.2237633E+02 -0.9843033E-04  0.7836521E-04  0.2208225E+02  0.1834062E+00
  0.1009524E+01  0.3852706E+04  0.2763970E+02 -0.3892071E-03 -0.9447336E-04  0.2258749E+02  0.2295693E+00
  0.1040476E+01  0.3877469E+04  0.3391943E+02 -0.6489350E-03 -0.1311079E-03  0.2319923E+02  0.2858029E+00
  0.1071429E+01  0.3903604E+04  0.4136204E+02  0.7476807E-03  0.1783445E-03  0.2374650E+02  0.3531878E+00
  0.1102381E+01  0.3928157E+04  0.5012375E+02 -0.9689166E-04 -0.1742691E-04  0.2421661E+02  0.4334358E+00
  0.1133333E+01  0.3949227E+04  0.6037281E+02 -0.1539904E-03  0.1162291E-03  0.2439041E+02  0.5272416E+00
  0.1164286E+01  0.3965151E+04  0.7228763E+02 -0.2621142E-04 -0.6958842E-05  0.2452296E+02  0.6378335E+00
  0.1195238E+01  0.3984553E+04  0.8611726E+02 -0.1667600E-03 -0.9626150E-04  0.2490018E+02  0.7695510E+00
  0.1226190E+01  0.4009678E+04  0.1021143E+03 -0.2644363E-03 -0.1348257E-03  0.2539275E+02  0.9245029E+00
  0.1257143E+01  0.4034966E+04  0.1204795E+03  0.1448935E-03  0.2641082E-03  0.2587049E+02  0.1104623E+01
  0.1288095E+01  0.4069718E+04  0.1416335E+03  0.8810470E-04 -0.1235902E-03  0.2644975E+02  0.1315599E+01
  0.1319048E+01  0.4101062E+04  0.1657088E+03  0.6290119E-03  0.2175570E-03  0.2708050E+02  0.1560879E+01
  0.1350000E+01  0.4132703E+04  0.1930705E+03  0.2776252E-03  0.9843707E-04  0.2782378E+02  0.1846498E+01
  0.1380952E+01  0.4165427E+04  0.2240664E+03  0.1664326E-03  0.2099276E-03  0.2862585E+02  0.2177113E+01
  0.1411905E+01  0.4175776E+04  0.2575389E+03 -0.1371168E-03 -0.1066923E-04  0.2829620E+02  0.2519572E+01
  0.1442857E+01  0.4204085E+04  0.2965003E+03 -0.3199058E-03  0.2418756E-03  0.2866938E+02  0.2936279E+01
  0.1473810E+01  0.4229764E+04  0.3400546E+03  0.7525553E-03  0.6101131E-03  0.2895806E+02  0.3406319E+01
  0.1504762E+01  0.4257929E+04  0.3886409E+03  0.6527840E-04 -0.6443262E-04  0.2941854E+02  0.3942540E+01
  0.1535714E+01  0.4287445E+04  0.4426282E+03  0.1192315E-03  0.5401969E-03  0.3008772E+02  0.4554698E+01
  0.1566667E+01  0.4319527E+04  0.5024465E+03  0.9617906E-04 -0.3027916E-04  0.3084392E+02  0.5246121E+01
  0.1597619E+01  0.4354202E+04  0.5685460E+03  0.1647540E-03  0.1467466E-03  0.3173918E+02  0.6031355E+01
  0.1628572E+01  0.4389022E+04  0.6412766E+03 -0.4169397E-03  0.1943111E-03  0.3256847E+02  0.6908467E+01
  0.1659524E+01  0.4423571E+04  0.7210478E+03 -0.6896009E-03 -0.1764297E-03  0.3337140E+02  0.7883557E+01
  0.1690476E+01  0.4456545E+04  0.8082441E+03 -0.4501880E-03 -0.5767345E-03  0.3416374E+02  0.8966864E+01
  0.1721429E+01  0.4488282E+04  0.9032711E+03  0.3246450E-03  0.3042221E-03  0.3495662E+02  0.1017140E+02
  0.1752381E+01  0.4517439E+04  0.1006458E+04 -0.1980948E-03  0.3025532E-03  0.3572333E+02  0.1150574E+02
  0.1783333E+01  0.4542218E+04  0.1117968E+04 -0.5946649E-03 -0.1902580E-03  0.3640257E+02  0.1297450E+02
  0.1814286E+01  0.4564402E+04  0.1238206E+04  0.5403654E-03  0.8294582E-03  0.3700760E+02  0.1458710E+02
  0.1845238E+01  0.4583848E+04  0.1367402E+04  0.1529817E-03  0.1008511E-03  0.3764125E+02  0.1635767E+02
  0.1876190E+01  0.4601208E+04  0.1505544E+04 -0.8132857E-04 -0.3449917E-03  0.3830520E+02  0.1828130E+02
  0.1907143E+01  0.4617395E+04  0.1652708E+04 -0.5610606E-03 -0.9446144E-03  0.3886690E+02  0.2035686E+02
  0.1938095E+01  0.4631653E+04  0.1808887E+04  0.5215919E-04  0.5130768E-03  0.3949849E+02  0.2259966E+02
  0.1969048E+01  0.4643324E+04  0.1974022E+04  0.4010276E-03  0.1026154E-02  0.4006011E+02  0.2500028E+02
  0.2000000E+01  0.4652711E+04  0.2148100E+04 -0.1201630E-03 -0.6999969E-03  0.4064717E+02  0.2760015E+02
Zone t="Motion of body    1 in DoF   2",I=    64,F=POINT
  0.5000000E-01 -0.2980232E-05 -0.2114102E-06  0.6001299E+04  0.6330490E+01 -0.8940697E-05  0.1024455E-07
  0.8095238E-01  0.6921151E-04 -0.2542511E-06  0.5976469E+04  0.1052117E+02 -0.2650654E-04 -0.6612390E-07
  0.1119048E+00  0.1981411E-03  0.8475035E-06  0.5964015E+04  0.1511878E+02 -0.4314362E-04 -0.1946464E-06
  0.1428571E+00 -0.8161067E-03  0.7189810E-06  0.5970225E+04  0.2031781E+02 -0.1001358E-04 -0.3073364E-06
  0.1738095E+00  0.3319570E-03  0.5811453E-06  0.5978104E+04  0.2636833E+02 -0.3429308E-05 -0.3017485E-06
  0.2047619E+00  0.5326992E-03 -0.2000481E-05  0.5991447E+04  0.3357183E+02 -0.4075294E-04 -0.1490116E-07
  0.2357143E+00  0.1416062E-03 -0.3304332E-05  0.6007667E+04  0.4237549E+02 -0.7636619E-04 -0.4507601E-06
  0.2666667E+00 -0.3218651E-04 -0.8195639E-07  0.6030657E+04  0.5320426E+02 -0.1341104E-05 -0.5960464E-07
  0.2976190E+00 -0.6248475E-04  0.7770956E-05  0.6055814E+04  0.6686804E+02 -0.4646301E-04 -0.4842877E-06
  0.3285715E+00 -0.7981838E-05  0.4738569E-05  0.6085412E+04  0.8397266E+02 -0.4426292E-04 -0.3576279E-06
  0.3595238E+00 -0.2917864E-04 -0.1059473E-04  0.6115372E+04  0.1055673E+03  0.6631510E-06 -0.1490116E-05
  0.3904762E+00 -0.5177753E-03  0.2175570E-05  0.6147919E+04  0.1326588E+03 -0.2137044E-04 -0.2831221E-06
  0.4214286E+00  0.3722562E-03 -0.2431870E-04  0.6175320E+04  0.1653335E+03  0.1188052E-04  0.1192093E-06
  0.4523810E+00 -0.6092472E-03 -0.8076429E-05  0.6202452E+04  0.2053978E+03 -0.5323008E-04 -0.1490116E-05
  0.4833333E+00  0.1262796E-03  0.2002716E-04  0.6221988E+04  0.2504586E+03 -0.2071775E-04  0.8046627E-06
  0.5142857E+00  0.4265044E-03 -0.3290176E-04  0.6236849E+04  0.3025569E+03 -0.3940529E-04 -0.3159046E-05
  0.5452381E+00  0.4748798E-03  0.8493662E-05  0.6245991E+04  0.3598156E+03 -0.5990658E-04 -0.4023314E-05
  0.5761905E+00 -0.5453677E-03 -0.2104044E-04  0.6247965E+04  0.4216802E+03 -0.2896490E-04  0.8046627E-06
  0.6071429E+00 -0.9817234E-04 -0.4231930E-04  0.6247483E+04  0.4895409E+03 -0.3298591E-04 -0.3963709E-05
  0.6380953E+00  0.3684101E-03 -0.1174808E-03  0.6243850E+04  0.5607941E+03 -0.1419836E-04 -0.6139278E-05
  0.6690477E+00  0.5017481E-03  0.4535913E-04  0.6234275E+04  0.6369402E+03 -0.6556935E-04 -0.1114607E-04
  0.7000000E+00 -0.2036776E-03  0.5495548E-04  0.6221074E+04  0.7183331E+03 -0.4632132E-04 -0.5424023E-05
  0.7309524E+00 -0.7214996E-03 -0.7516146E-04  0.6205732E+04  0.8036360E+03 -0.5936389E-04 -0.9775162E-05
  0.7619048E+00 -0.4887878E-03 -0.8606911E-04  0.6185915E+04  0.8934420E+03  0.6258487E-05 -0.7152557E-05
  0.7928572E+00 -0.5996119E-03 -0.5841255E-05  0.6163542E+04  0.9876188E+03 -0.3007081E-04 -0.1144409E-04
  0.8238096E+00 -0.8219239E-03 -0.5531311E-04  0.6136800E+04  0.1085880E+04 -0.5498787E-04 -0.4768372E-05
  0.8547620E+00 -0.1500642E-03  0.8165836E-04  0.6105534E+04  0.1187865E+04 -0.2789298E-05 -0.1621246E-04
  0.8857143E+00  0.3284024E-03  0.5483627E-04  0.6070896E+04  0.1293318E+04 -0.3014841E-04 -0.1502037E-04
  0.9166667E+00 -0.5472357E-03 -0.2559423E-03  0.6034474E+04  0.1401845E+04 -0.6554343E-04 -0.3218651E-05
  0.9476191E+00 -0.2928595E-03 -0.3731251E-04  0.5994133E+04  0.1513221E+04 -0.1006390E-04 -0.1752377E-04
  0.9785714E+00 -0.3800775E-04 -0.3637075E-03  0.5950475E+04  0.1627067E+04 -0.4531693E-04 -0.3337860E-05
  0.1009524E+01 -0.1180847E-03  0.9942055E-04  0.5902790E+04  0.1743100E+04 -0.6518274E-04 -0.1859665E-04
  0.1040476E+01 -0.4207079E-03  0.1187325E-03  0.5852922E+04  0.1860826E+04  0.2474752E-04 -0.1668930E-04
  0.1071429E+01 -0.3150940E-03  0.1382828E-03  0.5800485E+04  0.1979837E+04 -0.7031759E-04 -0.3600121E-04
  0.1102381E+01 -0.2007041E-03 -0.3314018E-04  0.5745255E+04  0.2099789E+04 -0.3027864E-05  0.1192093E-06
  0.1133333E+01 -0.8776609E-03 -0.5578995E-03  0.5687108E+04  0.2220342E+04 -0.8835512E-05 -0.2408028E-04
  0.1164286E+01 -0.1842990E-03  0.1285076E-03  0.5626688E+04  0.2341138E+04 -0.9010174E-05 -0.2193451E-04
  0.1195238E+01  0.2122400E-03  0.4169941E-03  0.5565233E+04  0.2461699E+04 -0.2114421E-04 -0.3933907E-04
  0.1226190E+01 -0.5164286E-03  0.4374981E-03  0.5502634E+04  0.2581612E+04 -0.6960897E-04 -0.1168251E-04
  0.1257143E+01 -0.2639944E-03  0.6151199E-04  0.5436692E+04  0.2702948E+04  0.2579255E-04 -0.2264977E-04
  0.1288095E+01 -0.2176704E-03  0.1819134E-03  0.5371439E+04  0.2818735E+04 -0.4960517E-04  0.1192093E-05
  0.1319048E+01  0.3477640E-03 -0.1506805E-03  0.5303014E+04  0.2935316E+04 -0.4482613E-04 -0.7390976E-05
  0.1350000E+01  0.8554812E-03  0.1556873E-03  0.5233685E+04  0.3049944E+04 -0.2401846E-04 -0.1692772E-04
  0.1380952E+01 -0.1298313E-03 -0.3173351E-03  0.5164584E+04  0.3162081E+04 -0.2278953E-04 -0.4100800E-04
  0.1411905E+01 -0.4721411E-03 -0.2598763E-04  0.5093914E+04  0.3272070E+04 -0.4052713E-04 -0.2765656E-04
  0.1442857E+01  0.4064919E-03 -0.6532669E-04  0.5023413E+04  0.3379243E+04 -0.1520213E-04 -0.1645088E-04
  0.1473810E+01 -0.4296618E-03 -0.3831387E-03  0.4952632E+04  0.3483460E+04 -0.3235406E-04 -0.4839897E-04
  0.1504762E+01 -0.1115437E-03  0.1516342E-03  0.4881748E+04  0.3584483E+04 -0.2535084E-04  0.3099442E-05
  0.1535714E+01  0.4812728E-03  0.3876686E-03  0.4810253E+04  0.3682475E+04 -0.6830969E-05 -0.1764297E-04
  0.1566667E+01 -0.5916839E-03 -0.1044273E-03  0.4739544E+04  0.3776826E+04 -0.2982768E-04 -0.4100800E-04
  0.1597619E+01  0.6685669E-04  0.2756119E-03  0.4669436E+04  0.3867426E+04 -0.1790804E-04 -0.2169609E-04
  0.1628572E+01  0.1124332E-03 -0.9870529E-04  0.4599946E+04  0.3954010E+04 -0.4157685E-04 -0.5078316E-04
  0.1659524E+01 -0.4752500E-03 -0.1525879E-03  0.4530667E+04  0.4036789E+04 -0.4137606E-04 -0.2217293E-04
  0.1690476E+01 -0.2335562E-03 -0.4229546E-03  0.4462005E+04  0.4115408E+04 -0.3384872E-05 -0.8583069E-05
  0.1721429E+01 -0.5207616E-04 -0.4673004E-03  0.4393972E+04  0.4189784E+04 -0.3878012E-04 -0.5078316E-04
  0.1752381E+01 -0.1164623E-03 -0.5831718E-03  0.4326421E+04  0.4260042E+04 -0.2176865E-04 -0.3099442E-05
  0.1783333E+01 -0.3401141E-03 -0.5536079E-03  0.4259825E+04  0.4325965E+04 -0.2727330E-04 -0.2050400E-04
  0.1814286E+01  0.6528539E-03 -0.3275871E-03  0.4194843E+04  0.4387384E+04 -0.2470542E-04 -0.5316734E-04
  0.1845238E+01  0.2361913E-03 -0.4372597E-03  0.4131243E+04  0.4444238E+04 -0.8269280E-05 -0.2956390E-04
  0.1876190E+01 -0.2683843E-03 -0.2760887E-03  0.4069125E+04  0.4496285E+04 -0.2439857E-04 -0.5722046E-04
  0.1907143E+01 -0.9000972E-05 -0.1561642E-02  0.4008369E+04  0.4544156E+04 -0.1800194E-04 -0.2765656E-04
  0.1938095E+01  0.1426997E-04 -0.7438660E-03  0.3948823E+04  0.4587615E+04 -0.4920678E-05 -0.1573563E-04
  0.1969048E+01 -0.1641888E-03 -0.4367828E-03  0.3890648E+04  0.4626757E+04 -0.1695165E-04 -0.5960464E-05
  0.2000000E+01  0.2832413E-03 -0.8444786E-03  0.3833895E+04  0.4661533E+04 -0.3957748E-04 -0.1740456E-04
Zone t="Motion of body    1 in DoF   3",I=    64,F=POINT
  0.5000000E-01  0.1768352E+02  0.1141829E-06 -0.4604459E-04 -0.5796072E-07  0.1781701E+02 -0.3799483E-08
  0.8095238E-01  0.1763498E+02  0.5158435E-06 -0.1421965E-04 -0.4034096E-07  0.1792581E+02  0.3600450E-08
  0.1119048E+00  0.1775261E+02  0.1556669E-05 -0.2403526E-04 -0.7876965E-07  0.1805061E+02  0.1644203E-07
  0.1428571E+00  0.1769634E+02  0.3443524E-05  0.4584342E-04  0.9601386E-07  0.1822172E+02  0.1580678E-07
  0.1738095E+00  0.1768219E+02  0.6843558E-05 -0.3926558E-04 -0.2191201E-06  0.1804725E+02  0.1684888E-07
  0.2047619E+00  0.1747606E+02  0.1260305E-04  0.1057393E-03  0.5028486E-06  0.1810201E+02  0.8576390E-07
  0.2357143E+00  0.1783192E+02  0.2244694E-04 -0.1046242E-03 -0.8665717E-06  0.1813075E+02  0.1578963E-06
  0.2666667E+00  0.1759270E+02  0.3859669E-04 -0.8281320E-04 -0.8562829E-06  0.1810934E+02  0.3428310E-06
  0.2976190E+00  0.1756161E+02  0.6509906E-04  0.7920742E-04  0.9836291E-06  0.1799910E+02  0.4951148E-06
  0.3285715E+00  0.1793697E+02  0.1084947E-03 -0.4684795E-04 -0.6845367E-06  0.1815589E+02  0.6780216E-06
  0.3595238E+00  0.1788017E+02  0.1793575E-03  0.2934443E-04 -0.3467719E-07  0.1816158E+02  0.1216961E-05
  0.3904762E+00  0.1775788E+02  0.2958655E-03 -0.6037151E-04 -0.1831050E-05  0.1809531E+02  0.2368970E-05
  0.4214286E+00  0.1801918E+02  0.4821875E-03 -0.1306150E-03 -0.4281972E-05  0.1809004E+02  0.3737514E-05
  0.4523810E+00  0.1832242E+02  0.7775596E-03 -0.6877748E-04 -0.2793360E-05  0.1807554E+02  0.5590568E-05
  0.4833333E+00  0.1811502E+02  0.1224126E-02 -0.7090897E-05 -0.1190446E-05  0.1812250E+02  0.8826431E-05
  0.5142857E+00  0.1817979E+02  0.1897958E-02  0.1448724E-04  0.1699832E-06  0.1799767E+02  0.1357866E-04
  0.5452381E+00  0.1859424E+02  0.2874358E-02 -0.2394077E-04 -0.2248632E-05  0.1809309E+02  0.2015774E-04
  0.5761905E+00  0.1881324E+02  0.4253659E-02  0.4784381E-04  0.2237770E-05  0.1810771E+02  0.3006591E-04
  0.6071429E+00  0.1889057E+02  0.6181341E-02 -0.4879165E-04 -0.6401346E-05  0.1807473E+02  0.4466958E-04
  0.6380953E+00  0.1905645E+02  0.8800587E-02 -0.2059696E-04 -0.2719373E-05  0.1814096E+02  0.6477951E-04
  0.6690477E+00  0.1965877E+02  0.1232721E-01 -0.3666004E-04 -0.5372201E-05  0.1815299E+02  0.9210229E-04
  0.7000000E+00  0.2016858E+02  0.1701815E-01 -0.5215406E-04 -0.1125766E-04  0.1813211E+02  0.1281262E-03
  0.7309524E+00  0.1979784E+02  0.2313943E-01 -0.1720574E-04 -0.4861351E-05  0.1817027E+02  0.1740624E-03
  0.7619048E+00  0.1979214E+02  0.3104201E-01 -0.1558363E-03 -0.2744725E-04  0.1817378E+02  0.2358979E-03
  0.7928572E+00  0.2025854E+02  0.4119888E-01  0.8171742E-04  0.1199989E-04  0.1811058E+02  0.3182635E-03
  0.8238096E+00  0.2059476E+02  0.5413904E-01 -0.6511721E-06  0.1759327E-06  0.1813936E+02  0.4218329E-03
  0.8547620E+00  0.2104644E+02  0.7043044E-01  0.6903512E-05 -0.1086155E-06  0.1821940E+02  0.5545676E-03
  0.8857143E+00  0.2147320E+02  0.9075345E-01 -0.1850628E-04 -0.7874536E-05  0.1822291E+02  0.7236005E-03
  0.9166667E+00  0.2148623E+02  0.1159533E+00  0.1222437E-04  0.2036511E-05  0.1814051E+02  0.9337161E-03
  0.9476191E+00  0.2146634E+02  0.1469988E+00 -0.1221506E-03 -0.4204706E-04  0.1815492E+02  0.1195407E-02
  0.9785714E+00  0.2166804E+02  0.1849478E+00 -0.1179215E-03 -0.3907326E-04  0.1821797E+02  0.1516550E-02
  0.1009524E+01  0.2218887E+02  0.2309725E+00 -0.7557419E-05 -0.1036352E-04  0.1823676E+02  0.1920429E-02
  0.1040476E+01  0.2279339E+02  0.2866825E+00 -0.8478318E-04 -0.2876366E-04  0.1820026E+02  0.2417772E-02
  0.1071429E+01  0.2334281E+02  0.3537360E+00 -0.8238952E-04 -0.2801721E-04  0.1819958E+02  0.3020881E-02
  0.1102381E+01  0.2384529E+02  0.4341482E+00 -0.3952444E-04 -0.1251779E-04  0.1824699E+02  0.3754886E-02
  0.1133333E+01  0.2400434E+02  0.5297523E+00 -0.1772362E-03 -0.8922862E-04  0.1827244E+02  0.4628652E-02
  0.1164286E+01  0.2412652E+02  0.6427228E+00 -0.2354932E-04 -0.1476798E-04  0.1827854E+02  0.5674840E-02
  0.1195238E+01  0.2449822E+02  0.7756075E+00 -0.8726975E-05  0.8324860E-06  0.1823606E+02  0.6939478E-02
  0.1226190E+01  0.2497651E+02  0.9312000E+00 -0.4666523E-04 -0.2754573E-04  0.1821097E+02  0.8408315E-02
  0.1257143E+01  0.2547373E+02  0.1113150E+01 -0.3536994E-04 -0.1555984E-04  0.1823093E+02  0.1019791E-01
  0.1288095E+01  0.2606024E+02  0.1326018E+01  0.2313674E-06 -0.4708534E-05  0.1829531E+02  0.1229967E-01
  0.1319048E+01  0.2669168E+02  0.1571916E+01 -0.1102578E-04 -0.2554245E-04  0.1833105E+02  0.1482388E-01
  0.1350000E+01  0.2745227E+02  0.1855566E+01 -0.1540890E-04 -0.1531327E-04  0.1837126E+02  0.1776364E-01
  0.1380952E+01  0.2825835E+02  0.2182809E+01 -0.1381183E-04 -0.1076190E-04  0.1834921E+02  0.2120895E-01
  0.1411905E+01  0.2600943E+02  0.2401640E+01 -0.1153335E-03 -0.1243297E-03  0.1819400E+02  0.2348538E-01
  0.1442857E+01  0.2636678E+02  0.2809767E+01 -0.4007084E-04 -0.5573407E-04  0.1818828E+02  0.2785380E-01
  0.1473810E+01  0.2667695E+02  0.3276371E+01 -0.6850971E-04 -0.7283222E-04  0.1823654E+02  0.3279699E-01
  0.1504762E+01  0.2712775E+02  0.3801445E+01 -0.3160932E-04 -0.4406739E-04  0.1827946E+02  0.3874059E-01
  0.1535714E+01  0.2778296E+02  0.4391463E+01 -0.1391810E-03 -0.1562517E-03  0.1829988E+02  0.4508296E-01
  0.1566667E+01  0.2852626E+02  0.5054574E+01 -0.3941515E-04 -0.3797933E-04  0.1831479E+02  0.5273589E-01
  0.1597619E+01  0.2938725E+02  0.5802170E+01 -0.2910057E-05  0.2438668E-04  0.1828866E+02  0.6132923E-01
  0.1628572E+01  0.3014735E+02  0.6639988E+01 -0.1127260E-04 -0.1343247E-04  0.1826376E+02  0.7110173E-01
  0.1659524E+01  0.3093460E+02  0.7580842E+01 -0.7973511E-05 -0.3985502E-04  0.1828517E+02  0.8273773E-01
  0.1690476E+01  0.3175773E+02  0.8634514E+01 -0.5810697E-04 -0.7474795E-04  0.1834636E+02  0.9581561E-01
  0.1721429E+01  0.3255404E+02  0.9800293E+01 -0.8517776E-04 -0.1470726E-03  0.1842463E+02  0.1105849E+00
  0.1752381E+01  0.3330631E+02  0.1109452E+02 -0.3435366E-04 -0.5387887E-04  0.1845253E+02  0.1273090E+00
  0.1783333E+01  0.3395572E+02  0.1252161E+02  0.2667169E-04  0.2584793E-04  0.1847043E+02  0.1459993E+00
  0.1814286E+01  0.3453188E+02  0.1410122E+02 -0.7345921E-04 -0.1147799E-03  0.1846472E+02  0.1669919E+00
  0.1845238E+01  0.3515318E+02  0.1583877E+02  0.5794956E-04  0.1178831E-03  0.1843000E+02  0.1897121E+00
  0.1876190E+01  0.3579535E+02  0.1770986E+02 -0.4644624E-04 -0.1200512E-03  0.1841571E+02  0.2151089E+00
  0.1907143E+01  0.3634454E+02  0.1976142E+02 -0.1487661E-04 -0.1170002E-03  0.1841761E+02  0.2431906E+00
  0.1938095E+01  0.3702106E+02  0.2197760E+02  0.3106178E-04  0.8230656E-04  0.1845316E+02  0.2728402E+00
  0.1969048E+01  0.3763687E+02  0.2436852E+02 -0.3632496E-05 -0.5333126E-04  0.1851289E+02  0.3077786E+00
  0.2000000E+01  0.3822927E+02  0.2693522E+02 -0.3635883E-05 -0.5119294E-04  0.1857372E+02  0.3468815E+00
