VARIABLES="w (rad/s)"
"A   1   1" "B   1   1"
"A   1   2" "B   1   2"
"A   1   3" "B   1   3"
Zone t="Motion of body    1 in DoF   1",I=    64,F=POINT
  0.5000000E-01  0.2130606E+06  0.4085003E-01 -0.2738953E-01 -0.5714252E-04 -0.6830172E+06 -0.1300747E+00
  0.8095238E-01  0.2144496E+06  0.1794299E+00 -0.3826366E-01 -0.3125835E-03 -0.6864720E+06 -0.5704830E+00
  0.1119048E+00  0.2147817E+06  0.5022050E+00 -0.2072598E-01 -0.2641953E-03 -0.6875424E+06 -0.1595852E+01
  0.1428571E+00  0.2152925E+06  0.1128706E+01 -0.1110840E-01 -0.1180675E-03 -0.6884151E+06 -0.3582844E+01
  0.1738095E+00  0.2157148E+06  0.2242268E+01 -0.1264180E-01 -0.3369581E-03 -0.6898811E+06 -0.7113716E+01
  0.2047619E+00  0.2162325E+06  0.4127212E+01 -0.1363710E-01 -0.4997849E-03 -0.6909866E+06 -0.1307994E+02
  0.2357143E+00  0.2166618E+06  0.7245184E+01 -0.1793139E-01 -0.6501749E-03 -0.6918793E+06 -0.2293281E+02
  0.2666667E+00  0.2172450E+06  0.1231494E+02 -0.1716614E-01 -0.6622076E-03 -0.6936413E+06 -0.3893407E+02
  0.2976190E+00  0.2179889E+06  0.2057708E+02 -0.2317383E-01 -0.1398921E-02 -0.6952874E+06 -0.6494644E+02
  0.3285715E+00  0.2188099E+06  0.3389492E+02 -0.2015487E-01 -0.1038492E-02 -0.6972868E+06 -0.1067896E+03
  0.3595238E+00  0.2195577E+06  0.5538199E+02 -0.2444640E-01 -0.1445204E-02 -0.6997538E+06 -0.1742364E+03
  0.3904762E+00  0.2207272E+06  0.8984256E+02 -0.2946435E-01 -0.2564847E-02 -0.7026470E+06 -0.2820359E+03
  0.4214286E+00  0.2218957E+06  0.1437676E+03 -0.1506223E-01 -0.1394272E-02 -0.7053836E+06 -0.4502039E+03
  0.4523810E+00  0.2232793E+06  0.2281159E+03 -0.2401573E-01 -0.3327489E-02 -0.7091661E+06 -0.7127578E+03
  0.4833333E+00  0.2245300E+06  0.3525927E+03 -0.1755287E-01 -0.3169775E-02 -0.7128088E+06 -0.1099118E+04
  0.5142857E+00  0.2262801E+06  0.5365884E+03 -0.4628500E-02 -0.1349449E-02 -0.7169338E+06 -0.1667521E+04
  0.5452381E+00  0.2281449E+06  0.7968972E+03 -0.1287335E-01 -0.3806591E-02 -0.7215881E+06 -0.2468707E+04
  0.5761905E+00  0.2299634E+06  0.1154889E+04 -0.9957305E-02 -0.4960060E-02 -0.7267863E+06 -0.3567591E+04
  0.6071429E+00  0.2322528E+06  0.1643896E+04 -0.1648667E-01 -0.5211830E-02 -0.7331774E+06 -0.5062718E+04
  0.6380953E+00  0.2344629E+06  0.2286794E+04 -0.1463477E-01 -0.6626129E-02 -0.7385107E+06 -0.7015605E+04
  0.6690477E+00  0.2370060E+06  0.3127372E+04 -0.2098219E-02 -0.2798080E-02 -0.7450646E+06 -0.9557732E+04
  0.7000000E+00  0.2398503E+06  0.4213738E+04 -0.1273019E-01 -0.1489639E-02 -0.7522877E+06 -0.1282547E+05
  0.7309524E+00  0.2424369E+06  0.5583948E+04 -0.2588527E-02 -0.3822327E-02 -0.7591681E+06 -0.1692931E+05
  0.7619048E+00  0.2454109E+06  0.7303432E+04 -0.8090972E-02 -0.2300262E-02 -0.7674983E+06 -0.2205688E+05
  0.7928572E+00  0.2484644E+06  0.9431747E+04 -0.3387176E-02 -0.2975464E-03 -0.7747248E+06 -0.2834347E+05
  0.8238096E+00  0.2518907E+06  0.1204592E+05 -0.9112936E-02 -0.8155823E-02 -0.7831491E+06 -0.3601902E+05
  0.8547620E+00  0.2548956E+06  0.1520025E+05 -0.9282784E-03 -0.4226685E-02 -0.7899748E+06 -0.4520711E+05
  0.8857143E+00  0.2580975E+06  0.1899172E+05 -0.5581764E-02 -0.9628296E-02 -0.7979167E+06 -0.5619548E+05
  0.9166667E+00  0.2611605E+06  0.2348785E+05  0.1012074E-01  0.5432129E-02 -0.8051141E+06 -0.6912139E+05
  0.9476191E+00  0.2642793E+06  0.2877581E+05 -0.8115528E-02 -0.6103516E-02 -0.8128111E+06 -0.8423458E+05
  0.9785714E+00  0.2668692E+06  0.3487910E+05 -0.1147639E-01 -0.1251221E-01 -0.8178144E+06 -0.1014503E+06
  0.1009524E+01  0.2694905E+06  0.4192240E+05 -0.1632403E-01 -0.1483154E-01 -0.8231732E+06 -0.1211749E+06
  0.1040476E+01  0.2714568E+06  0.4990645E+05 -0.4810185E-02 -0.5493164E-02 -0.8259702E+06 -0.1432574E+06
  0.1071429E+01  0.2732357E+06  0.5892340E+05 -0.1173503E-01 -0.1470947E-01 -0.8281509E+06 -0.1679435E+06
  0.1102381E+01  0.2742255E+06  0.6894167E+05  0.4983000E-02 -0.5004883E-02 -0.8285525E+06 -0.1951420E+06
  0.1133333E+01  0.2741433E+06  0.7988050E+05 -0.5708582E-02 -0.5859375E-02 -0.8253448E+06 -0.2243879E+06
  0.1164286E+01  0.2735987E+06  0.9182648E+05 -0.2411450E-02  0.2899170E-02 -0.8217569E+06 -0.2561430E+06
  0.1195238E+01  0.2718798E+06  0.1045015E+06 -0.4085221E-02 -0.2258301E-02 -0.8143977E+06 -0.2892519E+06
  0.1226190E+01  0.2694514E+06  0.1178327E+06 -0.1144854E-01 -0.1330566E-01 -0.8046875E+06 -0.3234218E+06
  0.1257143E+01  0.2660041E+06  0.1316604E+06 -0.7573908E-02 -0.1544189E-01 -0.7926142E+06 -0.3583688E+06
  0.1288095E+01  0.2615182E+06  0.1457131E+06 -0.9476808E-04 -0.7385254E-02 -0.7773223E+06 -0.3930125E+06
  0.1319048E+01  0.2557704E+06  0.1597405E+06 -0.2498695E-02 -0.5065918E-02 -0.7589431E+06 -0.4268452E+06
  0.1350000E+01  0.2494146E+06  0.1737608E+06  0.1718027E-02 -0.6286621E-02 -0.7399319E+06 -0.4602563E+06
  0.1380952E+01  0.2418037E+06  0.1870423E+06 -0.3535830E-02 -0.1092529E-01 -0.7171721E+06 -0.4905280E+06
  0.1411905E+01  0.2334122E+06  0.1995898E+06 -0.8905163E-02 -0.6713867E-03 -0.6932942E+06 -0.5183982E+06
  0.1442857E+01  0.2250062E+06  0.2114060E+06 -0.7529683E-02 -0.7934570E-03 -0.6694571E+06 -0.5435156E+06
  0.1473810E+01  0.2158535E+06  0.2218935E+06 -0.2153486E-02 -0.5859375E-02 -0.6441278E+06 -0.5644797E+06
  0.1504762E+01  0.2061872E+06  0.2308519E+06 -0.9775282E-02 -0.1135254E-01 -0.6174529E+06 -0.5803562E+06
  0.1535714E+01  0.1966175E+06  0.2387275E+06  0.2225654E-02 -0.7934570E-02 -0.5922214E+06 -0.5936620E+06
  0.1566667E+01  0.1872465E+06  0.2452370E+06 -0.6077543E-02 -0.1831055E-02 -0.5679974E+06 -0.6030172E+06
  0.1597619E+01  0.1778146E+06  0.2499453E+06 -0.4508051E-02 -0.4638672E-02 -0.5436828E+06 -0.6069416E+06
  0.1628572E+01  0.1688555E+06  0.2534523E+06 -0.3747772E-03 -0.1525879E-02 -0.5211827E+06 -0.6077719E+06
  0.1659524E+01  0.1604459E+06  0.2558520E+06 -0.1279899E-01 -0.4821777E-02 -0.5007154E+06 -0.6059529E+06
  0.1690476E+01  0.1522677E+06  0.2567538E+06 -0.5163058E-02 -0.3112793E-02 -0.4814419E+06 -0.6005302E+06
  0.1721429E+01  0.1445430E+06  0.2562505E+06 -0.1017590E-01 -0.1770020E-02 -0.4633375E+06 -0.5909371E+06
  0.1752381E+01  0.1373492E+06  0.2546916E+06 -0.4179582E-02 -0.2929688E-02 -0.4469385E+06 -0.5789219E+06
  0.1783333E+01  0.1308555E+06  0.2526205E+06 -0.4380841E-02  0.1007080E-02 -0.4330035E+06 -0.5668299E+06
  0.1814286E+01  0.1249302E+06  0.2496359E+06 -0.9184109E-02  0.9155273E-03 -0.4206003E+06 -0.5523181E+06
  0.1845238E+01  0.1194826E+06  0.2456668E+06 -0.9923135E-02  0.7019043E-03 -0.4093958E+06 -0.5352682E+06
  0.1876190E+01  0.1146955E+06  0.2413522E+06 -0.5107434E-02 -0.3479004E-02 -0.4000582E+06 -0.5178701E+06
  0.1907143E+01  0.1105549E+06  0.2368291E+06 -0.2688290E-02 -0.7629395E-03 -0.3924967E+06 -0.5004256E+06
  0.1938095E+01  0.1067714E+06  0.2318335E+06 -0.6487422E-02 -0.1190186E-02 -0.3861428E+06 -0.4828309E+06
  0.1969048E+01  0.1034204E+06  0.2263788E+06 -0.4277627E-02 -0.7934570E-03 -0.3808001E+06 -0.4641014E+06
  0.2000000E+01  0.1004198E+06  0.2202452E+06 -0.8575439E-02 -0.1754761E-02 -0.3762525E+06 -0.4430899E+06
Zone t="Motion of body    1 in DoF   2",I=    64,F=POINT
  0.5000000E-01  0.1018524E-01 -0.1788139E-04  0.1024485E+06  0.1968460E+03  0.1037598E-01  0.1144409E-03
  0.8095238E-01  0.1291163E-01  0.2908707E-04  0.1012485E+06  0.3251179E+03  0.2488080E-01  0.2918243E-03
  0.1119048E+00  0.1281738E-01  0.2775192E-03  0.1006838E+06  0.4628412E+03  0.1036299E-01  0.1029968E-03
  0.1428571E+00  0.1628876E-01 -0.3366470E-03  0.1002609E+06  0.6145576E+03  0.1623535E-01 -0.4158020E-03
  0.1738095E+00 -0.2765394E-02 -0.6198883E-04  0.1000146E+06  0.7848201E+03 -0.9130190E-02 -0.1525879E-04
  0.2047619E+00  0.1318998E-01 -0.2784729E-03  0.1000278E+06  0.9812914E+03 -0.2801939E-01 -0.5187988E-03
  0.2357143E+00  0.3495650E-02 -0.1106262E-03  0.9974761E+05  0.1212464E+04 -0.2848307E-01 -0.4806519E-03
  0.2666667E+00  0.8010864E-03  0.3318787E-03  0.9981057E+05  0.1483249E+04 -0.2563476E-01  0.1678467E-02
  0.2976190E+00  0.2855713E-01  0.3204346E-03  0.9967091E+05  0.1813275E+04 -0.6562500E-01 -0.1296997E-02
  0.3285715E+00 -0.3668743E-02  0.3814697E-05  0.9977933E+05  0.2203674E+04 -0.1411770E-01 -0.1251221E-02
  0.3595238E+00  0.1740108E-02 -0.3471375E-03  0.9952789E+05  0.2675537E+04 -0.1765573E-01  0.1815796E-02
  0.3904762E+00  0.1867899E-01 -0.1296997E-02  0.9964114E+05  0.3232892E+04  0.1375524E-01  0.1800537E-02
  0.4214286E+00  0.1444671E-01 -0.7095337E-03  0.9904942E+05  0.3859791E+04 -0.4055217E-01  0.3997803E-02
  0.4523810E+00  0.1575189E-01  0.9918213E-04  0.9878449E+05  0.4592460E+04 -0.4911081E-01  0.2593994E-02
  0.4833333E+00 -0.9470972E-02 -0.1190186E-02  0.9802808E+05  0.5326541E+04  0.1565867E-01  0.3723145E-02
  0.5142857E+00  0.1290639E-01 -0.7781982E-03  0.9719353E+05  0.6119776E+04 -0.6835938E-01 -0.1281738E-02
  0.5452381E+00  0.9794943E-03  0.3509521E-02  0.9644228E+05  0.6892546E+04 -0.1791075E-01 -0.7751465E-02
  0.5761905E+00  0.8235962E-02 -0.6286621E-02  0.9522107E+05  0.7625180E+04 -0.5677782E-01  0.1104736E-01
  0.6071429E+00  0.4775103E-02 -0.1953125E-02  0.9425251E+05  0.8351992E+04 -0.3619025E-01  0.1464844E-02
  0.6380953E+00  0.5930431E-02 -0.2105713E-02  0.9316560E+05  0.8970016E+04 -0.2601737E-01  0.1025391E-01
  0.6690477E+00  0.1407175E-01 -0.3784180E-02  0.9190009E+05  0.9537178E+04 -0.1751557E-01 -0.3356934E-02
  0.7000000E+00  0.7149832E-02  0.8850098E-03  0.9088324E+05  0.1004948E+05 -0.9277343E-01  0.1141357E-01
  0.7309524E+00  0.1002010E-02  0.8331299E-02  0.8984902E+05  0.1044886E+05 -0.5477656E-01 -0.2502441E-01
  0.7619048E+00  0.1554107E-01 -0.6042480E-02  0.8861990E+05  0.1077418E+05 -0.1986694E-01  0.1074219E-01
  0.7928572E+00  0.8525675E-02 -0.2746582E-02  0.8761503E+05  0.1101668E+05 -0.5973747E-01 -0.1953125E-01
  0.8238096E+00  0.9261115E-02 -0.5218506E-02  0.8696923E+05  0.1118166E+05 -0.3259912E-01  0.3662109E-03
  0.8547620E+00 -0.3534598E-02  0.2655029E-02  0.8584888E+05  0.1121675E+05 -0.1713745E-01  0.1904297E-01
  0.8857143E+00  0.2256824E-02 -0.2532959E-02  0.8486160E+05  0.1118361E+05 -0.2756426E-02 -0.1025391E-01
  0.9166667E+00  0.9438255E-02  0.6011963E-02  0.8419662E+05  0.1107659E+05 -0.3622159E-01  0.1464844E-01
  0.9476191E+00  0.6883707E-02  0.1046753E-01  0.8381759E+05  0.1092471E+05  0.0000000E+00 -0.2856445E-01
  0.9785714E+00  0.5800568E-02  0.1953125E-02  0.8307779E+05  0.1061363E+05 -0.3991788E-02  0.9643555E-02
  0.1009524E+01  0.9922892E-02  0.8605957E-02  0.8242030E+05  0.1026565E+05 -0.5513893E-01 -0.8300781E-02
  0.1040476E+01 -0.1620504E-02  0.4333496E-02  0.8194295E+05  0.9871156E+04  0.2299503E-01 -0.1959229E-01
  0.1071429E+01 -0.1050313E-03 -0.1800537E-02  0.8171069E+05  0.9481639E+04 -0.1412760E-01  0.6896973E-02
  0.1102381E+01  0.6858113E-02  0.1516724E-01  0.8178059E+05  0.9134427E+04 -0.1727440E-01 -0.2807617E-02
  0.1133333E+01  0.7963741E-02  0.8026123E-02  0.8128968E+05  0.8481497E+04 -0.1723346E-01 -0.6042480E-02
  0.1164286E+01  0.2152612E-02 -0.5981445E-02  0.8102199E+05  0.7907528E+04 -0.4193826E-03 -0.2343750E-01
  0.1195238E+01  0.9606654E-02  0.5096436E-02  0.8088355E+05  0.7340010E+04 -0.2287724E-01 -0.8605957E-02
  0.1226190E+01  0.6719793E-02  0.5004883E-02  0.8092695E+05  0.6852810E+04 -0.3743174E-01  0.4699707E-02
  0.1257143E+01  0.5510503E-02 -0.8666992E-02  0.8113779E+05  0.6483283E+04 -0.3495650E-01  0.7934570E-02
  0.1288095E+01  0.7901289E-02  0.3936768E-02  0.8126810E+05  0.5972553E+04 -0.5307013E-02 -0.2355957E-01
  0.1319048E+01  0.1134824E-01  0.7293701E-02  0.8119232E+05  0.5260198E+04 -0.3849842E-01 -0.8605957E-02
  0.1350000E+01  0.3628201E-02  0.1052856E-01  0.8122814E+05  0.4678110E+04 -0.3616898E-02 -0.2999878E-01
  0.1380952E+01  0.5005409E-02 -0.2258301E-02  0.8135504E+05  0.4163992E+04 -0.3111530E-01  0.7110596E-02
  0.1411905E+01  0.6635643E-02  0.3967285E-03  0.8155570E+05  0.3786161E+04  0.2766652E-02 -0.8422852E-02
  0.1442857E+01  0.3320675E-02 -0.0000000E+00  0.8182905E+05  0.3556886E+04 -0.2030476E-02  0.2288818E-02
  0.1473810E+01  0.8883129E-02  0.8514404E-02  0.8216189E+05  0.3440844E+04 -0.1457744E-01 -0.1605225E-01
  0.1504762E+01  0.6378270E-02  0.3967285E-02  0.8226038E+05  0.2726298E+04 -0.1687352E-01 -0.8972168E-02
  0.1535714E+01  0.2523733E-02 -0.4577637E-03  0.8242413E+05  0.2295000E+04 -0.1716933E-01  0.2807617E-02
  0.1566667E+01  0.6097022E-02  0.2258301E-02  0.8258965E+05  0.1894238E+04 -0.3927028E-01  0.1068115E-02
  0.1597619E+01  0.5023803E-02  0.5920410E-02  0.8279717E+05  0.1618875E+04 -0.1833783E-01 -0.7720947E-02
  0.1628572E+01  0.1873886E-04  0.1281738E-02  0.8300943E+05  0.1451824E+04 -0.2638432E-01  0.9460449E-03
  0.1659524E+01  0.7374133E-02  0.5706787E-02  0.8321434E+05  0.1382021E+04 -0.1176919E-02 -0.1936340E-01
  0.1690476E+01  0.4116004E-02  0.2136230E-03  0.8342898E+05  0.1444572E+04 -0.2310739E-01 -0.1556396E-02
  0.1721429E+01  0.8846299E-02  0.6225586E-02  0.8362762E+05  0.1154647E+04 -0.2212461E-01 -0.1873779E-01
  0.1752381E+01  0.6844065E-02  0.3997803E-02  0.8380300E+05  0.8305211E+03 -0.1170283E-01 -0.1343536E-01
  0.1783333E+01  0.3764785E-02  0.1953125E-02  0.8395731E+05  0.6573542E+03 -0.1752337E-01 -0.1530457E-01
  0.1814286E+01  0.2321258E-02  0.3479004E-02  0.8410637E+05  0.4849423E+03 -0.6459154E-02 -0.6175995E-02
  0.1845238E+01  0.7095042E-02  0.2944946E-02  0.8425627E+05  0.4364102E+03 -0.5821573E-02 -0.1210785E-01
  0.1876190E+01  0.3610989E-02  0.2334595E-02  0.8438869E+05  0.4202080E+03 -0.1041006E-02 -0.6343842E-02
  0.1907143E+01  0.3744404E-02  0.2548218E-02  0.8450158E+05  0.4030232E+03 -0.1228933E-01 -0.1743317E-02
  0.1938095E+01  0.7684131E-02  0.3952026E-02  0.8460778E+05  0.4372863E+03 -0.1763571E-01 -0.1095581E-01
  0.1969048E+01  0.3967654E-02  0.5142212E-02  0.8472185E+05  0.4264550E+03 -0.8927222E-02 -0.8590698E-02
  0.2000000E+01  0.3601074E-02  0.3372192E-02  0.8486895E+05  0.2634506E+03  0.3906250E-02 -0.6193161E-02
Zone t="Motion of body    1 in DoF   3",I=    64,F=POINT
  0.5000000E-01 -0.6830676E+06 -0.1297755E+00  0.2071381E+00  0.8718239E-03  0.2692402E+07  0.4137445E+00
  0.8095238E-01 -0.6865789E+06 -0.5699305E+00  0.1008426E+00  0.8706618E-03  0.2699545E+07  0.1812237E+01
  0.1119048E+00 -0.6876544E+06 -0.1594564E+01  0.1656033E+00  0.2146901E-02  0.2702614E+07  0.5066728E+01
  0.1428571E+00 -0.6885324E+06 -0.3580671E+01  0.4646301E-01  0.9799711E-03  0.2704298E+07  0.1136601E+02
  0.1738095E+00 -0.6900261E+06 -0.7108706E+01  0.5890729E-01  0.1144953E-02  0.2708719E+07  0.2255616E+02
  0.2047619E+00 -0.6910735E+06 -0.1307203E+02 -0.3450261E-01  0.9889156E-04  0.2711158E+07  0.4143086E+02
  0.2357143E+00 -0.6920138E+06 -0.2292228E+02  0.5890817E-01  0.2105668E-02  0.2713590E+07  0.7255696E+02
  0.2666667E+00 -0.6936862E+06 -0.3890669E+02  0.9578704E-01  0.4699558E-02  0.2718090E+07  0.1230055E+03
  0.2976190E+00 -0.6954021E+06 -0.6491419E+02  0.1284814E+00  0.4866123E-02  0.2722449E+07  0.2048861E+03
  0.3285715E+00 -0.6973494E+06 -0.1067436E+03  0.8117675E-01  0.6694436E-02  0.2727384E+07  0.3363036E+03
  0.3595238E+00 -0.6998714E+06 -0.1740928E+03  0.6510551E-01  0.6220102E-02  0.2734916E+07  0.5477076E+03
  0.3904762E+00 -0.7027121E+06 -0.2818440E+03  0.1999199E+00  0.1467204E-01  0.2742239E+07  0.8847679E+03
  0.4214286E+00 -0.7055368E+06 -0.4499842E+03  0.6039376E-01  0.7486582E-02  0.2748970E+07  0.1409089E+04
  0.4523810E+00 -0.7093046E+06 -0.7123881E+03  0.4904335E-01  0.6706715E-02  0.2759696E+07  0.2225924E+04
  0.4833333E+00 -0.7128907E+06 -0.1098191E+04  0.8435480E-01  0.1537895E-01  0.2769732E+07  0.3423312E+04
  0.5142857E+00 -0.7170491E+06 -0.1666709E+04  0.4094442E-02  0.3009796E-02  0.2780094E+07  0.5179449E+04
  0.5452381E+00 -0.7216276E+06 -0.2467974E+04  0.9475908E-01  0.2271271E-01  0.2792082E+07  0.7645501E+04
  0.5761905E+00 -0.7269368E+06 -0.3565345E+04 -0.8368373E-02  0.2447128E-02  0.2806908E+07  0.1101371E+05
  0.6071429E+00 -0.7332859E+06 -0.5058682E+04  0.6343347E-01  0.2208328E-01  0.2824355E+07  0.1557975E+05
  0.6380953E+00 -0.7385041E+06 -0.7011621E+04  0.4734779E-01  0.1713562E-01  0.2837374E+07  0.2151060E+05
  0.6690477E+00 -0.7451905E+06 -0.9552708E+04 -0.3557850E-02  0.4196167E-03  0.2855049E+07  0.2919437E+05
  0.7000000E+00 -0.7524158E+06 -0.1282056E+05  0.2371652E-01  0.2141571E-01  0.2873885E+07  0.3902273E+05
  0.7309524E+00 -0.7591421E+06 -0.1691882E+05 -0.1160662E-01  0.1348877E-01  0.2891956E+07  0.5129374E+05
  0.7619048E+00 -0.7675700E+06 -0.2203235E+05  0.1260910E+00  0.3108215E-01  0.2914695E+07  0.6653871E+05
  0.7928572E+00 -0.7747484E+06 -0.2831957E+05  0.3672007E-01  0.3004456E-01  0.2932314E+07  0.8510331E+05
  0.8238096E+00 -0.7831717E+06 -0.3599277E+05  0.3496997E-01  0.4164124E-01  0.2953392E+07  0.1076233E+06
  0.8547620E+00 -0.7899455E+06 -0.4518398E+05 -0.3113303E-01 -0.8056641E-02  0.2968596E+07  0.1343793E+06
  0.8857143E+00 -0.7979755E+06 -0.5615373E+05 -0.5106280E-01 -0.1745605E-01  0.2988272E+07  0.1661528E+06
  0.9166667E+00 -0.8051176E+06 -0.6906513E+05 -0.4194780E-01 -0.2841187E-01  0.3005304E+07  0.2032504E+06
  0.9476191E+00 -0.8127507E+06 -0.8413209E+05  0.4122173E-02  0.1763916E-01  0.3023474E+07  0.2462775E+06
  0.9785714E+00 -0.8176230E+06 -0.1013368E+06  0.4939838E-01  0.4809570E-01  0.3031344E+07  0.2947346E+06
  0.1009524E+01 -0.8231224E+06 -0.1210299E+06  0.5925017E-01  0.4675293E-01  0.3041739E+07  0.3498151E+06
  0.1040476E+01 -0.8259201E+06 -0.1431186E+06 -0.3026897E-01 -0.1892090E-02  0.3043708E+07  0.4108218E+06
  0.1071429E+01 -0.8281121E+06 -0.1678043E+06 -0.2392578E-02  0.9277344E-02  0.3042916E+07  0.4782638E+06
  0.1102381E+01 -0.8284443E+06 -0.1949439E+06 -0.4977463E-01 -0.1464844E-02  0.3038820E+07  0.5517947E+06
  0.1133333E+01 -0.8251156E+06 -0.2241627E+06  0.6974164E-01  0.4858398E-01  0.3021964E+07  0.6296210E+06
  0.1164286E+01 -0.8216499E+06 -0.2557856E+06  0.1441628E-01  0.2136230E-01  0.3006940E+07  0.7134360E+06
  0.1195238E+01 -0.8142634E+06 -0.2887897E+06  0.5765269E-01  0.3649902E-01  0.2980282E+07  0.7993052E+06
  0.1226190E+01 -0.8045294E+06 -0.3228953E+06  0.9955249E-03  0.1367188E-01  0.2946627E+07  0.8862349E+06
  0.1257143E+01 -0.7924142E+06 -0.3576658E+06  0.2524636E-02  0.2111816E-01  0.2907394E+07  0.9734604E+06
  0.1288095E+01 -0.7770639E+06 -0.3922855E+06  0.1601581E-01 -0.5981445E-02  0.2859014E+07  0.1057904E+07
  0.1319048E+01 -0.7587051E+06 -0.4260682E+06  0.2429287E-01  0.4370117E-01  0.2803071E+07  0.1138245E+07
  0.1350000E+01 -0.7398965E+06 -0.4592819E+06  0.2870913E-02  0.2209473E-01  0.2748188E+07  0.1216203E+07
  0.1380952E+01 -0.7171160E+06 -0.4894581E+06  0.2069565E-01  0.1916504E-01  0.2682916E+07  0.1283387E+07
  0.1411905E+01 -0.6931203E+06 -0.5167935E+06  0.7997354E-02  0.2001953E-01  0.2616144E+07  0.1342104E+07
  0.1442857E+01 -0.6693966E+06 -0.5417416E+06  0.3787050E-01  0.1159668E-01  0.2550451E+07  0.1392389E+07
  0.1473810E+01 -0.6440914E+06 -0.5625430E+06  0.2356410E-01  0.1354980E-01  0.2483068E+07  0.1430813E+07
  0.1504762E+01 -0.6173276E+06 -0.5783210E+06  0.3999348E-01  0.2746582E-01  0.2410665E+07  0.1452754E+07
  0.1535714E+01 -0.5923502E+06 -0.5916004E+06 -0.5484647E-02  0.1269531E-01  0.2346782E+07  0.1470328E+07
  0.1566667E+01 -0.5683741E+06 -0.6008548E+06  0.2863458E-01  0.2355957E-01  0.2285813E+07  0.1475986E+07
  0.1597619E+01 -0.5440723E+06 -0.6047711E+06  0.3640824E-01  0.2795410E-01  0.2225786E+07  0.1467564E+07
  0.1628572E+01 -0.5216280E+06 -0.6055566E+06 -0.5126953E-01 -0.9521484E-02  0.2171476E+07  0.1451216E+07
  0.1659524E+01 -0.5013043E+06 -0.6036207E+06  0.7517570E-01  0.1867676E-01  0.2123111E+07  0.1427932E+07
  0.1690476E+01 -0.4821503E+06 -0.5981306E+06  0.1130096E-01  0.1953125E-02  0.2080470E+07  0.1397872E+07
  0.1721429E+01 -0.4639971E+06 -0.5883684E+06  0.5984991E-01  0.7446289E-02  0.2039446E+07  0.1354437E+07
  0.1752381E+01 -0.4476108E+06 -0.5763762E+06  0.1717111E-01  0.3540039E-02  0.2003588E+07  0.1306579E+07
  0.1783333E+01 -0.4339462E+06 -0.5645199E+06  0.1481956E-01 -0.1586914E-02  0.1976293E+07  0.1263452E+07
  0.1814286E+01 -0.4217138E+06 -0.5500586E+06  0.4047064E-01  0.2441406E-03  0.1952198E+07  0.1212430E+07
  0.1845238E+01 -0.4104940E+06 -0.5330735E+06  0.1240392E-01 -0.7324219E-03  0.1931646E+07  0.1158024E+07
  0.1876190E+01 -0.4011905E+06 -0.5157020E+06  0.2742399E-01  0.2197266E-02  0.1915801E+07  0.1103386E+07
  0.1907143E+01 -0.3937667E+06 -0.4982012E+06 -0.1056114E-02 -0.7873535E-02  0.1904068E+07  0.1047584E+07
  0.1938095E+01 -0.3875473E+06 -0.4807721E+06  0.1810810E-01  0.1953125E-02  0.1896834E+07  0.9971232E+06
  0.1969048E+01 -0.3822519E+06 -0.4620088E+06  0.1472372E-01  0.2380371E-02  0.1891476E+07  0.9433967E+06
  0.2000000E+01 -0.3775961E+06 -0.4407882E+06  0.3158569E-01  0.3295898E-02  0.1887250E+07  0.8795654E+06
