VARIABLES="w (rad/s)"
"A   1   1" "B   1   1"
"A   1   2" "B   1   2"
"A   1   3" "B   1   3"
Zone t="Motion of body    1 in DoF   1",I=    64,F=POINT
  0.5000000E-01  0.3473327E+05  0.2307080E-02  0.4367828E-02  0.2097503E-04  0.4161780E+05  0.4490679E-02
  0.8095238E-01  0.3488188E+05  0.1017063E-01  0.5890341E-03  0.7192430E-05  0.4155862E+05  0.1971569E-01
  0.1119048E+00  0.3490673E+05  0.2854368E-01  0.6800713E-02  0.2935945E-04  0.4153857E+05  0.5527450E-01
  0.1428571E+00  0.3495557E+05  0.6416763E-01  0.2056122E-02  0.1635659E-04  0.4166699E+05  0.1245459E+00
  0.1738095E+00  0.3497041E+05  0.1276009E+00  0.6320901E-02 -0.9306241E-06  0.4168506E+05  0.2480335E+00
  0.2047619E+00  0.3502005E+05  0.2351198E+00 -0.4433920E-02  0.2654828E-04  0.4182558E+05  0.4574809E+00
  0.2357143E+00  0.3504847E+05  0.4133722E+00  0.3414732E-02  0.1216657E-03  0.4186088E+05  0.8055141E+00
  0.2666667E+00  0.3509637E+05  0.7042368E+00 -0.3333092E-02  0.2971757E-04  0.4200511E+05  0.1374951E+01
  0.2976190E+00  0.3516501E+05  0.1179148E+01 -0.1281738E-02 -0.1122989E-04  0.4218747E+05  0.2307091E+01
  0.3285715E+00  0.3521945E+05  0.1946812E+01 -0.1114555E-02  0.2684072E-05  0.4229009E+05  0.3816902E+01
  0.3595238E+00  0.3528041E+05  0.3188718E+01  0.7512174E-02  0.1587644E-03  0.4244812E+05  0.6267237E+01
  0.3904762E+00  0.3536630E+05  0.5186399E+01 -0.9183185E-03  0.5604699E-04  0.4268732E+05  0.1022204E+02
  0.4214286E+00  0.3546578E+05  0.8317780E+01  0.3747455E-02  0.1854151E-03  0.4292244E+05  0.1644343E+02
  0.4523810E+00  0.3554729E+05  0.1322060E+02  0.3086291E-02  0.4490465E-03  0.4308348E+05  0.2620904E+02
  0.4833333E+00  0.3566074E+05  0.2049103E+02 -0.5082755E-02 -0.5285442E-04  0.4338762E+05  0.4076355E+02
  0.5142857E+00  0.3579454E+05  0.3123170E+02 -0.2225240E-03  0.2685785E-03  0.4372881E+05  0.6235075E+02
  0.5452381E+00  0.3592904E+05  0.4645339E+02  0.1774284E-01  0.1211345E-02  0.4402684E+05  0.9306882E+02
  0.5761905E+00  0.3605260E+05  0.6744093E+02 -0.7176674E-02 -0.1525283E-03  0.4429992E+05  0.1356163E+03
  0.6071429E+00  0.3621323E+05  0.9608103E+02 -0.2689137E-02 -0.4168749E-03  0.4471986E+05  0.1939824E+03
  0.6380953E+00  0.3639482E+05  0.1338104E+03 -0.1363043E-02 -0.6201267E-03  0.4517971E+05  0.2713080E+03
  0.6690477E+00  0.3657623E+05  0.1830820E+03 -0.2052606E-02  0.1645088E-04  0.4558054E+05  0.3727676E+03
  0.7000000E+00  0.3675718E+05  0.2466091E+03  0.4773821E-02  0.7095337E-03  0.4597422E+05  0.5042381E+03
  0.7309524E+00  0.3695417E+05  0.3268240E+03  0.3277409E-02  0.6022453E-03  0.4644588E+05  0.6712494E+03
  0.7619048E+00  0.3716912E+05  0.4271594E+03  0.1043415E-01  0.3597736E-02  0.4699265E+05  0.8814732E+03
  0.7928572E+00  0.3740243E+05  0.5512241E+03  0.3656610E-03  0.1570702E-02  0.4757571E+05  0.1143021E+04
  0.8238096E+00  0.3764286E+05  0.7028198E+03  0.1115038E-01  0.2580643E-02  0.4816004E+05  0.1464651E+04
  0.8547620E+00  0.3787567E+05  0.8858773E+03 -0.5855294E-02 -0.1860619E-02  0.4870790E+05  0.1855426E+04
  0.8857143E+00  0.3810495E+05  0.1104579E+04  0.8338190E-02  0.1814842E-02  0.4924648E+05  0.2325110E+04
  0.9166667E+00  0.3834243E+05  0.1363084E+04 -0.3778631E-02 -0.2593994E-03  0.4983475E+05  0.2883925E+04
  0.9476191E+00  0.3858129E+05  0.1665534E+04  0.9435913E-02  0.2651215E-03  0.5046409E+05  0.3542390E+04
  0.9785714E+00  0.3881830E+05  0.2016070E+04 -0.1746407E-02 -0.2441406E-03  0.5110244E+05  0.4311156E+04
  0.1009524E+01  0.3904844E+05  0.2418656E+04 -0.1118498E-02 -0.3446579E-02  0.5171352E+05  0.5200755E+04
  0.1040476E+01  0.3925952E+05  0.2876865E+04 -0.1437189E-02 -0.6027222E-03  0.5227373E+05  0.6221326E+04
  0.1071429E+01  0.3945003E+05  0.3393367E+04  0.2107747E-02  0.1235962E-02  0.5278429E+05  0.7380706E+04
  0.1102381E+01  0.3960958E+05  0.3969935E+04  0.1190383E-02  0.2574921E-02  0.5323279E+05  0.8684800E+04
  0.1133333E+01  0.3973985E+05  0.4607357E+04  0.2288818E-02  0.2925873E-02  0.5362432E+05  0.1013786E+05
  0.1164286E+01  0.3983854E+05  0.5305501E+04  0.2542507E-02 -0.1113892E-02  0.5395147E+05  0.1174214E+05
  0.1195238E+01  0.3990089E+05  0.6063323E+04  0.5872506E-03  0.5187988E-02  0.5420994E+05  0.1349884E+05
  0.1226190E+01  0.3992532E+05  0.6877916E+04  0.8959724E-03  0.6561279E-03  0.5439716E+05  0.1540427E+05
  0.1257143E+01  0.3990518E+05  0.7752977E+04 -0.1407970E-02  0.1174927E-02  0.5448294E+05  0.1746870E+05
  0.1288095E+01  0.3985132E+05  0.8661308E+04 -0.5141168E-02 -0.4768372E-02  0.5450017E+05  0.1963322E+05
  0.1319048E+01  0.3974662E+05  0.9618881E+04  0.4141356E-02  0.2090454E-02  0.5440261E+05  0.2193626E+05
  0.1350000E+01  0.3959768E+05  0.1061101E+05  0.3209997E-02  0.3280640E-02  0.5419210E+05  0.2434569E+05
  0.1380952E+01  0.3940402E+05  0.1163005E+05 -0.3115950E-02 -0.3097534E-02  0.5386540E+05  0.2684382E+05
  0.1411905E+01  0.3905523E+05  0.1262990E+05 -0.4690341E-02  0.6683350E-02  0.5310362E+05  0.2934007E+05
  0.1442857E+01  0.3877325E+05  0.1367903E+05  0.4230159E-02  0.6561279E-02  0.5256930E+05  0.3196820E+05
  0.1473810E+01  0.3844983E+05  0.1472969E+05  0.3085283E-02 -0.3204346E-02  0.5192764E+05  0.3462863E+05
  0.1504762E+01  0.3808682E+05  0.1577304E+05 -0.1906383E-02  0.2670288E-02  0.5118484E+05  0.3730203E+05
  0.1535714E+01  0.3768986E+05  0.1680179E+05 -0.4471180E-02  0.5340576E-03  0.5034430E+05  0.3996916E+05
  0.1566667E+01  0.3725788E+05  0.1780866E+05  0.8376101E-03  0.2258301E-02  0.4941404E+05  0.4261335E+05
  0.1597619E+01  0.3680348E+05  0.1878620E+05 -0.2521452E-02 -0.4455566E-02  0.4840600E+05  0.4521260E+05
  0.1628572E+01  0.3632508E+05  0.1972615E+05 -0.5378054E-02  0.1281738E-02  0.4733953E+05  0.4774882E+05
  0.1659524E+01  0.3582824E+05  0.2062726E+05  0.3567535E-02 -0.4882812E-03  0.4620789E+05  0.5021154E+05
  0.1690476E+01  0.3531875E+05  0.2148182E+05  0.6498954E-03  0.1739502E-02  0.4503272E+05  0.5258323E+05
  0.1721429E+01  0.3479905E+05  0.2229045E+05  0.3244234E-02  0.1678467E-02  0.4381094E+05  0.5485955E+05
  0.1752381E+01  0.3427173E+05  0.2304760E+05 -0.1706662E-02 -0.2746582E-02  0.4256412E+05  0.5703173E+05
  0.1783333E+01  0.3374986E+05  0.2375420E+05  0.1146548E-02 -0.7019043E-03  0.4129423E+05  0.5908832E+05
  0.1814286E+01  0.3321845E+05  0.2440955E+05 -0.1816637E-02  0.2014160E-02  0.4001023E+05  0.6103561E+05
  0.1845238E+01  0.3269884E+05  0.2501295E+05 -0.2745401E-02 -0.3356934E-03  0.3871767E+05  0.6285295E+05
  0.1876190E+01  0.3218220E+05  0.2556091E+05  0.1268726E-02  0.2685547E-02  0.3743264E+05  0.6454645E+05
  0.1907143E+01  0.3167601E+05  0.2606038E+05 -0.2528273E-02 -0.3173828E-02  0.3614705E+05  0.6611010E+05
  0.1938095E+01  0.3117750E+05  0.2651030E+05  0.2062748E-02 -0.1098633E-02  0.3487286E+05  0.6755444E+05
  0.1969048E+01  0.3069174E+05  0.2691060E+05 -0.6044473E-03  0.1831055E-02  0.3361767E+05  0.6887474E+05
  0.2000000E+01  0.3021882E+05  0.2726559E+05  0.1800537E-02 -0.2502441E-02  0.3237906E+05  0.7006762E+05
Zone t="Motion of body    1 in DoF   2",I=    64,F=POINT
  0.5000000E-01 -0.2479553E-02 -0.1037121E-04  0.8027305E+05  0.1880505E+03  0.2899170E-02 -0.4291534E-05
  0.8095238E-01 -0.2803802E-02 -0.2622604E-05  0.7945177E+05  0.3119423E+03 -0.1451380E-01 -0.2098083E-04
  0.1119048E+00 -0.2420304E-02  0.3051758E-04  0.7902993E+05  0.4470017E+03 -0.4499719E-02  0.1049042E-04
  0.1428571E+00  0.4085541E-02 -0.3576279E-04  0.7882638E+05  0.5984609E+03  0.5340576E-03  0.2861023E-04
  0.1738095E+00 -0.3072660E-03 -0.8773804E-04  0.7879189E+05  0.7729476E+03 -0.7023223E-03 -0.5340576E-04
  0.2047619E+00  0.3725983E-03  0.1430511E-04  0.7890019E+05  0.9786075E+03  0.5961573E-02 -0.1029968E-03
  0.2357143E+00  0.3948790E-02 -0.4529953E-04  0.7911187E+05  0.1227107E+04  0.4919803E-02 -0.7629395E-05
  0.2666667E+00  0.2889633E-02  0.6771088E-04  0.7942405E+05  0.1528561E+04  0.4348755E-02 -0.4577637E-04
  0.2976190E+00 -0.9997559E-03  0.6675720E-04  0.7979262E+05  0.1904526E+04 -0.3896484E-02  0.1525879E-03
  0.3285715E+00 -0.6339031E-02  0.2098083E-04  0.8022427E+05  0.2367581E+04  0.3343665E-02 -0.1029968E-03
  0.3595238E+00  0.1230808E-02  0.5912781E-04  0.8062353E+05  0.2943868E+04  0.1018600E-02  0.1678467E-03
  0.3904762E+00  0.1602173E-02  0.1659393E-03  0.8102708E+05  0.3654248E+04  0.6252381E-02  0.7629395E-04
  0.4214286E+00 -0.3150034E-02 -0.2517700E-03  0.8125870E+05  0.4492980E+04 -0.2896583E-03  0.1602173E-03
  0.4523810E+00 -0.7083290E-02 -0.2307892E-03  0.8140127E+05  0.5503039E+04  0.2698396E-02 -0.6103516E-04
  0.4833333E+00  0.2620302E-02  0.1220703E-03  0.8132313E+05  0.6605352E+04 -0.8460735E-02 -0.4119873E-03
  0.5142857E+00 -0.3560384E-03  0.4081726E-03  0.8104571E+05  0.7850772E+04 -0.5815295E-02 -0.3051758E-03
  0.5452381E+00 -0.3526180E-02 -0.4577637E-04  0.8062308E+05  0.9175575E+04  0.9403146E-02  0.4577637E-03
  0.5761905E+00 -0.9003946E-03 -0.1338959E-02  0.8002655E+05  0.1055768E+05 -0.4237151E-02 -0.9765625E-03
  0.6071429E+00 -0.1884909E-02  0.1060486E-02  0.7927856E+05  0.1202751E+05 -0.7238050E-02 -0.6103516E-04
  0.6380953E+00 -0.2486955E-02  0.4425049E-03  0.7846932E+05  0.1350503E+05  0.2486955E-02  0.2746582E-03
  0.6690477E+00  0.2349093E-02  0.7629395E-05  0.7753813E+05  0.1502220E+05  0.6020977E-02  0.2746582E-03
  0.7000000E+00 -0.1852853E-02 -0.2212524E-03  0.7649653E+05  0.1658318E+05 -0.8196149E-02 -0.2746582E-03
  0.7309524E+00 -0.8475337E-02  0.1754761E-03  0.7542483E+05  0.1814427E+05 -0.5511057E-02 -0.5493164E-03
  0.7619048E+00  0.1762390E-02  0.8010864E-03  0.7428466E+05  0.1971323E+05  0.6729126E-02 -0.2441406E-03
  0.7928572E+00 -0.4503404E-02  0.7858276E-03  0.7306448E+05  0.2128369E+05  0.9237753E-03 -0.1098633E-02
  0.8238096E+00 -0.1815178E-02  0.4577637E-03  0.7179241E+05  0.2284179E+05 -0.4297157E-02 -0.1037598E-02
  0.8547620E+00  0.3570301E-02  0.2792358E-02  0.7049775E+05  0.2437610E+05  0.9139972E-02 -0.2441406E-03
  0.8857143E+00  0.6339781E-02  0.7019043E-03  0.6916902E+05  0.2587885E+05  0.1364431E-01 -0.1525879E-02
  0.9166667E+00 -0.5326705E-03 -0.2593994E-03  0.6782244E+05  0.2734029E+05  0.3995028E-03 -0.2380371E-02
  0.9476191E+00  0.1610224E-02 -0.1647949E-02  0.6645145E+05  0.2875465E+05  0.3349266E-02 -0.2563477E-02
  0.9785714E+00 -0.9667613E-03  0.2120972E-02  0.6506766E+05  0.3011204E+05  0.1546818E-01  0.3784180E-02
  0.1009524E+01  0.4353074E-02 -0.1251221E-02  0.6367500E+05  0.3140475E+05 -0.4232155E-02 -0.1831055E-03
  0.1040476E+01  0.4692863E-03 -0.6713867E-03  0.6228410E+05  0.3262825E+05  0.3871612E-02 -0.1708984E-02
  0.1071429E+01 -0.6180827E-02  0.1678467E-03  0.6090904E+05  0.3377659E+05 -0.1253255E-02 -0.3906250E-02
  0.1102381E+01  0.6643999E-02  0.1281738E-02  0.5955219E+05  0.3484581E+05  0.5758133E-02  0.4882812E-03
  0.1133333E+01  0.3015855E-02  0.1708984E-02  0.5822024E+05  0.3583078E+05  0.2154182E-03  0.1464844E-02
  0.1164286E+01 -0.1651319E-02  0.9460449E-03  0.5692337E+05  0.3672655E+05 -0.2621141E-02 -0.2441406E-02
  0.1195238E+01  0.2042611E-02  0.9918213E-03  0.5565824E+05  0.3753146E+05  0.4085221E-02  0.1708984E-02
  0.1226190E+01  0.8710843E-03 -0.4241943E-02  0.5442936E+05  0.3824058E+05 -0.2787470E-02  0.8544922E-03
  0.1257143E+01  0.4369562E-03  0.3326416E-02  0.5322593E+05  0.3888360E+05  0.2815940E-02  0.1220703E-02
  0.1288095E+01 -0.2274434E-02  0.1831055E-03  0.5206132E+05  0.3937655E+05 -0.5022708E-02 -0.1220703E-03
  0.1319048E+01  0.1041123E-02 -0.4608154E-02  0.5093843E+05  0.3981597E+05 -0.3609227E-02 -0.8300781E-02
  0.1350000E+01  0.4498517E-02  0.2075195E-02  0.4985754E+05  0.4016197E+05  0.8409288E-02 -0.2197266E-02
  0.1380952E+01 -0.2011003E-02  0.7019043E-03  0.4882431E+05  0.4041312E+05  0.2740268E-02  0.2197266E-02
  0.1411905E+01 -0.1318483E-02  0.5493164E-03  0.4784312E+05  0.4061716E+05  0.7781210E-03  0.3906250E-02
  0.1442857E+01  0.1353651E-02  0.2868652E-02  0.4690580E+05  0.4069308E+05  0.7698890E-02 -0.2441406E-03
  0.1473810E+01  0.1739354E-02 -0.7415771E-02  0.4602752E+05  0.4067382E+05 -0.6211978E-02  0.2197266E-02
  0.1504762E+01 -0.3163784E-02 -0.3570557E-02  0.4521126E+05  0.4056295E+05 -0.1946944E-02 -0.1831055E-02
  0.1535714E+01  0.3974382E-03  0.2716064E-02  0.4445325E+05  0.4036234E+05 -0.9538517E-03 -0.8789062E-02
  0.1566667E+01  0.3623151E-02  0.3967285E-03  0.4375270E+05  0.4007972E+05  0.2571268E-02  0.4028320E-02
  0.1597619E+01 -0.3361936E-02 -0.2593994E-02  0.4311753E+05  0.3971005E+05 -0.5348535E-03 -0.5859375E-02
  0.1628572E+01  0.1667759E-02  0.2471924E-02  0.4254636E+05  0.3926076E+05  0.2173708E-02 -0.1208496E-01
  0.1659524E+01  0.2151555E-02  0.5493164E-03  0.4203955E+05  0.3877273E+05  0.3015855E-02 -0.1708984E-02
  0.1690476E+01  0.2076055E-02  0.1312256E-02  0.4160501E+05  0.3822300E+05 -0.3610530E-03 -0.3051758E-02
  0.1721429E+01  0.4822031E-02  0.3723145E-02  0.4123581E+05  0.3763119E+05  0.4609294E-02  0.3906250E-02
  0.1752381E+01 -0.9752357E-03  0.1129150E-02  0.4093714E+05  0.3700226E+05  0.1950471E-02  0.4394531E-02
  0.1783333E+01 -0.8727457E-03  0.2960205E-02  0.4071155E+05  0.3634190E+05 -0.3148730E-02 -0.2563477E-02
  0.1814286E+01 -0.9924221E-03  0.2746582E-02  0.4053950E+05  0.3568735E+05 -0.3296860E-02  0.8178711E-02
  0.1845238E+01 -0.3803869E-02  0.1342773E-02  0.4043717E+05  0.3503245E+05 -0.4101562E-02  0.2929688E-02
  0.1876190E+01  0.1073537E-02  0.3967285E-03  0.4039218E+05  0.3438926E+05  0.3903772E-03  0.3906250E-02
  0.1907143E+01  0.2480268E-02  0.2410889E-02  0.4039688E+05  0.3382015E+05 -0.6400691E-03  0.9765625E-03
  0.1938095E+01 -0.4109751E-02 -0.2899170E-02  0.4044545E+05  0.3331330E+05 -0.1007755E-02 -0.7202148E-02
  0.1969048E+01  0.4029649E-02  0.6408691E-03  0.4052921E+05  0.3287324E+05  0.7191374E-02  0.1086426E-01
  0.2000000E+01 -0.4882812E-03  0.6713867E-03  0.4063909E+05  0.3252460E+05  0.4211426E-02  0.6103516E-03
Zone t="Motion of body    1 in DoF   3",I=    64,F=POINT
  0.5000000E-01  0.4154550E+05  0.4450123E-02  0.5264282E-02  0.2822197E-04  0.1892463E+06  0.8749229E-02
  0.8095238E-01  0.4148750E+05  0.1954906E-01 -0.1465517E-01 -0.2684924E-04  0.1891394E+06  0.3795230E-01
  0.1119048E+00  0.4147283E+05  0.5488429E-01 -0.1827159E-01 -0.9366899E-04  0.1890092E+06  0.1064167E+00
  0.1428571E+00  0.4159701E+05  0.1236410E+00 -0.1158905E-01 -0.4984299E-04  0.1893106E+06  0.2398078E+00
  0.1738095E+00  0.4162632E+05  0.2461687E+00 -0.8735134E-02 -0.8653477E-04  0.1894324E+06  0.4779909E+00
  0.2047619E+00  0.4176114E+05  0.4540886E+00  0.2235590E-02  0.5171075E-04  0.1897769E+06  0.8836297E+00
  0.2357143E+00  0.4178814E+05  0.7996008E+00  0.7768110E-02  0.8873083E-04  0.1897030E+06  0.1558463E+01
  0.2666667E+00  0.4194727E+05  0.1364439E+01  0.2174377E-02  0.1329388E-03  0.1902833E+06  0.2664019E+01
  0.2976190E+00  0.4211727E+05  0.2288588E+01  0.3588867E-03 -0.6130151E-04  0.1906462E+06  0.4476872E+01
  0.3285715E+00  0.4220804E+05  0.3786876E+01  0.9752355E-03  0.8385256E-04  0.1907250E+06  0.7424076E+01
  0.3595238E+00  0.4237639E+05  0.6216449E+01  0.0000000E+00  0.2835691E-03  0.1912507E+06  0.1221752E+02
  0.3904762E+00  0.4261105E+05  0.1013624E+02 -0.4611131E-02  0.1262277E-03  0.1918767E+06  0.1997846E+02
  0.4214286E+00  0.4282802E+05  0.1630073E+02 -0.5865581E-02 -0.7481873E-04  0.1922598E+06  0.3222194E+02
  0.4523810E+00  0.4298464E+05  0.2598052E+02 -0.1922607E-01 -0.1389116E-02  0.1925554E+06  0.5150224E+02
  0.4833333E+00  0.4330306E+05  0.4038911E+02  0.7829337E-02  0.2730191E-03  0.1935487E+06  0.8034498E+02
  0.5142857E+00  0.4362946E+05  0.6175048E+02 -0.1441956E-01 -0.8236170E-03  0.1943052E+06  0.1232764E+03
  0.5452381E+00  0.4391058E+05  0.9215970E+02 -0.5709053E-02 -0.4010201E-03  0.1948365E+06  0.1846424E+03
  0.5761905E+00  0.4418456E+05  0.1342662E+03  0.6461655E-02  0.1757145E-03  0.1954790E+06  0.2699848E+03
  0.6071429E+00  0.4462270E+05  0.1919375E+03 -0.2161362E-02 -0.2360344E-04  0.1968424E+06  0.3875305E+03
  0.6380953E+00  0.4507505E+05  0.2683215E+03  0.1573477E-01  0.2857208E-02  0.1979888E+06  0.5440304E+03
  0.6690477E+00  0.4544709E+05  0.3686396E+03 -0.2006992E-02  0.1162052E-02  0.1986226E+06  0.7506158E+03
  0.7000000E+00  0.4582892E+05  0.4985945E+03  0.2441406E-01  0.4576683E-02  0.1994043E+06  0.1019531E+04
  0.7309524E+00  0.4630729E+05  0.6634541E+03 -0.7264575E-02 -0.1344204E-02  0.2006900E+06  0.1362572E+04
  0.7619048E+00  0.4686188E+05  0.8707142E+03  0.1682281E-02 -0.1308441E-02  0.2022471E+06  0.1796601E+04
  0.7928572E+00  0.4743708E+05  0.1128536E+04 -0.1116228E-01 -0.2155304E-02  0.2037261E+06  0.2339988E+04
  0.8238096E+00  0.4799936E+05  0.1445710E+04  0.4297157E-02  0.2111435E-02  0.2050075E+06  0.3012990E+04
  0.8547620E+00  0.4852503E+05  0.1831155E+04 -0.9639814E-02 -0.3255844E-02  0.2061165E+06  0.3835666E+04
  0.8857143E+00  0.4905142E+05  0.2294133E+04  0.7855815E-02  0.3837585E-02  0.2073345E+06  0.4829155E+04
  0.9166667E+00  0.4963964E+05  0.2844151E+04 -0.4128196E-02 -0.5722046E-03  0.2089062E+06  0.6016710E+04
  0.9476191E+00  0.5027371E+05  0.3491197E+04 -0.6118851E-02 -0.4577637E-03  0.2107342E+06  0.7423634E+04
  0.9785714E+00  0.5090770E+05  0.4246263E+04  0.6237169E-04  0.2906799E-02  0.2125039E+06  0.9078126E+04
  0.1009524E+01  0.5150148E+05  0.5120643E+04 -0.9854876E-02 -0.6477356E-02  0.2140325E+06  0.1100996E+05
  0.1040476E+01  0.5203780E+05  0.6124365E+04 -0.1396127E-01 -0.1062012E-01  0.2153424E+06  0.1324696E+05
  0.1071429E+01  0.5252986E+05  0.7264397E+04 -0.8829753E-02 -0.1754761E-02  0.2165643E+06  0.1580683E+05
  0.1102381E+01  0.5296788E+05  0.8545300E+04 -0.2768333E-03  0.4005432E-02  0.2177454E+06  0.1870330E+05
  0.1133333E+01  0.5335408E+05  0.9970938E+04  0.5493164E-02  0.7431030E-02  0.2188731E+06  0.2195072E+05
  0.1164286E+01  0.5368490E+05  0.1154352E+05 -0.1331540E-01 -0.5279541E-02  0.2199680E+06  0.2556238E+05
  0.1195238E+01  0.5394588E+05  0.1326379E+05 -0.8476835E-02 -0.1129150E-02  0.2209458E+06  0.2954822E+05
  0.1226190E+01  0.5413905E+05  0.1512776E+05 -0.4778520E-02  0.2075195E-02  0.2217850E+06  0.3390317E+05
  0.1257143E+01  0.5422345E+05  0.1714739E+05 -0.5437677E-02 -0.4119873E-03  0.2223383E+06  0.3865642E+05
  0.1288095E+01  0.5424441E+05  0.1925992E+05  0.1705825E-02  0.3387451E-02  0.2227503E+06  0.4367271E+05
  0.1319048E+01  0.5414705E+05  0.2150779E+05 -0.2868873E-02  0.3723145E-02  0.2228644E+06  0.4905798E+05
  0.1350000E+01  0.5393843E+05  0.2385925E+05  0.2106843E-01  0.2319336E-02  0.2227028E+06  0.5474496E+05
  0.1380952E+01  0.5361714E+05  0.2629616E+05  0.8839575E-04 -0.3967285E-02  0.2222814E+06  0.6069275E+05
  0.1411905E+01  0.5226059E+05  0.2833930E+05 -0.2074989E-02 -0.1892090E-02  0.2187240E+06  0.6582515E+05
  0.1442857E+01  0.5174922E+05  0.3086341E+05  0.1472095E-01  0.7690430E-02  0.2178867E+06  0.7211767E+05
  0.1473810E+01  0.5114215E+05  0.3341675E+05 -0.1490875E-02  0.4333496E-02  0.2168307E+06  0.7855128E+05
  0.1504762E+01  0.5043701E+05  0.3597873E+05 -0.3731643E-02 -0.4394531E-02  0.2155286E+06  0.8507761E+05
  0.1535714E+01  0.4964105E+05  0.3853547E+05  0.6438499E-02 -0.1281738E-02  0.2139674E+06  0.9165909E+05
  0.1566667E+01  0.4875460E+05  0.4106574E+05  0.6311295E-02  0.1037598E-02  0.2121733E+06  0.9825482E+05
  0.1597619E+01  0.4779762E+05  0.4355448E+05  0.3285529E-02  0.8789062E-02  0.2101781E+06  0.1048153E+06
  0.1628572E+01  0.4678873E+05  0.4597930E+05 -0.3073174E-02 -0.1416016E-01  0.2080393E+06  0.1112900E+06
  0.1659524E+01  0.4572057E+05  0.4833283E+05  0.2648068E-02  0.6835938E-02  0.2057387E+06  0.1176532E+06
  0.1690476E+01  0.4461646E+05  0.5059884E+05 -0.2166318E-02  0.2136230E-02  0.2033217E+06  0.1238626E+06
  0.1721429E+01  0.4346932E+05  0.5277575E+05 -0.1843718E-02 -0.1312256E-01  0.2007563E+06  0.1299141E+06
  0.1752381E+01  0.4230095E+05  0.5485086E+05  0.1260840E-01  0.3845215E-02  0.1981087E+06  0.1357700E+06
  0.1783333E+01  0.4111650E+05  0.5682781E+05 -0.3354082E-02 -0.1208496E-01  0.1953561E+06  0.1414201E+06
  0.1814286E+01  0.3991203E+05  0.5868888E+05  0.6391871E-02  0.4638672E-02  0.1925597E+06  0.1468439E+06
  0.1845238E+01  0.3871067E+05  0.6044035E+05  0.6284652E-02 -0.1037598E-02  0.1897299E+06  0.1520155E+06
  0.1876190E+01  0.3752118E+05  0.6207406E+05 -0.6506286E-04  0.1647949E-02  0.1868975E+06  0.1569230E+06
  0.1907143E+01  0.3633641E+05  0.6359367E+05  0.1408152E-02  0.5981445E-02  0.1840519E+06  0.1615676E+06
  0.1938095E+01  0.3516273E+05  0.6500261E+05 -0.7180254E-02 -0.3906250E-02  0.1812098E+06  0.1659487E+06
  0.1969048E+01  0.3401253E+05  0.6630606E+05  0.1029110E-01  0.1110840E-01  0.1783652E+06  0.1700738E+06
  0.2000000E+01  0.3287782E+05  0.6749684E+05  0.2624512E-02  0.1403809E-01  0.1755600E+06  0.1739479E+06
