VARIABLES="w (rad/s)"
"A   1   1" "B   1   1"
"A   1   2" "B   1   2"
"A   1   3" "B   1   3"
Zone t="Motion of body    1 in DoF   1",I=    64,F=POINT
  0.5000000E-01  0.5750467E+05  0.4696528E-02 -0.6542206E-02 -0.8621963E-05  0.1035330E+04  0.1102518E-03
  0.8095238E-01  0.5776902E+05  0.2062785E-01 -0.4146800E-02 -0.3217468E-04  0.1029691E+04  0.4745270E-03
  0.1119048E+00  0.5787466E+05  0.5797309E-01  0.2897547E-03  0.4726188E-04  0.1031867E+04  0.1329891E-02
  0.1428571E+00  0.5814730E+05  0.1306682E+00 -0.2336502E-02 -0.5116948E-05  0.1040082E+04  0.3006039E-02
  0.1738095E+00  0.5808100E+05  0.2600306E+00  0.1097379E-02 -0.3144570E-04  0.1040038E+04  0.6006422E-02
  0.2047619E+00  0.5828963E+05  0.4801746E+00  0.4983503E-02  0.6742845E-04  0.1042435E+04  0.1112343E-01
  0.2357143E+00  0.5843614E+05  0.8462128E+00 -0.1089154E-01 -0.1006871E-03  0.1055967E+04  0.1975407E-01
  0.2666667E+00  0.5845811E+05  0.1443923E+01 -0.9126662E-02  0.1514331E-05  0.1053554E+04  0.3384712E-01
  0.2976190E+00  0.5870612E+05  0.2424872E+01  0.1171509E-01  0.3414759E-03  0.1065048E+04  0.5722728E-01
  0.3285715E+00  0.5892216E+05  0.4016678E+01  0.6884698E-02  0.3993316E-03  0.1077866E+04  0.9560160E-01
  0.3595238E+00  0.5901224E+05  0.6597408E+01  0.2737487E-02 -0.2308376E-04  0.1085250E+04  0.1583629E+00
  0.3904762E+00  0.5925991E+05  0.1076832E+02 -0.5881146E-02 -0.3257617E-03  0.1096920E+04  0.2608190E+00
  0.4214286E+00  0.5966755E+05  0.1735713E+02 -0.4000906E-02 -0.9017065E-04  0.1132586E+04  0.4267195E+00
  0.4523810E+00  0.5988002E+05  0.2770286E+02 -0.1116461E-01 -0.6894544E-03  0.1128695E+04  0.6852016E+00
  0.4833333E+00  0.6005340E+05  0.4311349E+02  0.3946238E-03 -0.2600178E-03  0.1139679E+04  0.1078330E+01
  0.5142857E+00  0.6052324E+05  0.6609338E+02 -0.7981195E-02 -0.1120076E-02  0.1166696E+04  0.1674601E+01
  0.5452381E+00  0.6100235E+05  0.9892356E+02 -0.1567191E-02  0.8166730E-03  0.1196438E+04  0.2541915E+01
  0.5761905E+00  0.6131548E+05  0.1444510E+03  0.1827271E-02  0.1039654E-02  0.1205923E+04  0.3753382E+01
  0.6071429E+00  0.6164752E+05  0.2070266E+03 -0.5378274E-02 -0.2980828E-03  0.1213626E+04  0.5434688E+01
  0.6380953E+00  0.6217193E+05  0.2904059E+03 -0.5177171E-02 -0.1189709E-03  0.1245141E+04  0.7741517E+01
  0.6690477E+00  0.6282993E+05  0.4006262E+03  0.1081039E-01  0.3937602E-02  0.1287067E+04  0.1086407E+02
  0.7000000E+00  0.6344341E+05  0.5442388E+03 -0.1449585E-02 -0.6014109E-03  0.1315450E+04  0.1497139E+02
  0.7309524E+00  0.6389398E+05  0.7272275E+03  0.6700944E-02  0.2625346E-02  0.1326471E+04  0.2025183E+02
  0.7619048E+00  0.6444736E+05  0.9591541E+03 -0.1612186E-02  0.9629726E-03  0.1358789E+04  0.2715034E+02
  0.7928572E+00  0.6517470E+05  0.1250283E+04 -0.4349442E-02 -0.1871824E-02  0.1395660E+04  0.3595368E+02
  0.8238096E+00  0.6598734E+05  0.1611586E+04  0.1296556E-02  0.7359982E-03  0.1436014E+04  0.4710649E+02
  0.8547620E+00  0.6679184E+05  0.2054774E+04 -0.1276383E-01 -0.2563477E-02  0.1486639E+04  0.6120520E+02
  0.8857143E+00  0.6759558E+05  0.2593588E+04 -0.9664720E-02 -0.3217697E-02  0.1533814E+04  0.7869064E+02
  0.9166667E+00  0.6830302E+05  0.3241161E+04  0.1243453E-01  0.7183075E-02  0.1559098E+04  0.9980288E+02
  0.9476191E+00  0.6902073E+05  0.4013111E+04  0.5378148E-02  0.2775192E-02  0.1590632E+04  0.1255070E+03
  0.9785714E+00  0.6980929E+05  0.4925724E+04  0.8420179E-02  0.5393982E-02  0.1642038E+04  0.1569151E+03
  0.1009524E+01  0.7069890E+05  0.5996767E+04  0.9068903E-04  0.2585411E-02  0.1703759E+04  0.1949030E+03
  0.1040476E+01  0.7159432E+05  0.7242040E+04  0.3255674E-02  0.3993988E-02  0.1759606E+04  0.2398728E+03
  0.1071429E+01  0.7243929E+05  0.8677862E+04 -0.1096598E-02  0.3173828E-02  0.1814542E+04  0.2928607E+03
  0.1102381E+01  0.7320344E+05  0.1031972E+05  0.4872266E-02  0.9401321E-02  0.1866654E+04  0.3549911E+03
  0.1133333E+01  0.7381387E+05  0.1217822E+05  0.4577637E-03 -0.2098083E-03  0.1910837E+04  0.4270902E+03
  0.1164286E+01  0.7432305E+05  0.1426607E+05  0.1795482E-02  0.5071640E-02  0.1954697E+04  0.5103654E+03
  0.1195238E+01  0.7476257E+05  0.1658553E+05 -0.9574738E-02 -0.1449585E-02  0.1994835E+04  0.6046196E+03
  0.1226190E+01  0.7512326E+05  0.1913759E+05 -0.1530620E-02  0.2502441E-02  0.2036445E+04  0.7106182E+03
  0.1257143E+01  0.7534196E+05  0.2193086E+05 -0.5874634E-02 -0.2353668E-02  0.2070800E+04  0.8294156E+03
  0.1288095E+01  0.7546821E+05  0.2492759E+05  0.2700890E-02  0.8686066E-02  0.2110627E+04  0.9624980E+03
  0.1319048E+01  0.7539171E+05  0.2814652E+05  0.1376596E-02  0.7156372E-02  0.2143402E+04  0.1109826E+04
  0.1350000E+01  0.7514051E+05  0.3155781E+05 -0.1152886E-02  0.1983643E-03  0.2173987E+04  0.1271220E+04
  0.1380952E+01  0.7472088E+05  0.3512548E+05  0.1175663E-01  0.1739883E-01  0.2190788E+04  0.1443666E+04
  0.1411905E+01  0.7377602E+05  0.3861268E+05  0.3890605E-03  0.1403809E-01  0.2157920E+04  0.1612234E+04
  0.1442857E+01  0.7296607E+05  0.4236785E+05 -0.1300774E-02 -0.1708984E-02  0.2153626E+04  0.1803124E+04
  0.1473810E+01  0.7195838E+05  0.4617358E+05 -0.7661440E-03 -0.8712769E-02  0.2143639E+04  0.2006083E+04
  0.1504762E+01  0.7075643E+05  0.4998814E+05 -0.2119330E-02  0.8659363E-02  0.2127865E+04  0.2218594E+04
  0.1535714E+01  0.6940246E+05  0.5376357E+05 -0.7352607E-03  0.1445770E-01  0.2106237E+04  0.2438042E+04
  0.1566667E+01  0.6790091E+05  0.5745255E+05  0.5356809E-03  0.2723694E-02  0.2076212E+04  0.2661283E+04
  0.1597619E+01  0.6627084E+05  0.6101937E+05  0.5921593E-03 -0.6416321E-02  0.2032967E+04  0.2884045E+04
  0.1628572E+01  0.6450941E+05  0.6442893E+05  0.3260562E-02 -0.1426697E-01  0.1980044E+04  0.3107779E+04
  0.1659524E+01  0.6265262E+05  0.6765423E+05 -0.2151555E-02 -0.3257751E-02  0.1918563E+04  0.3329814E+04
  0.1690476E+01  0.6072834E+05  0.7066835E+05 -0.2572503E-02  0.8476257E-02  0.1854062E+04  0.3550594E+04
  0.1721429E+01  0.5874113E+05  0.7344905E+05 -0.2348967E-02  0.8995056E-02  0.1786364E+04  0.3768934E+04
  0.1752381E+01  0.5673439E+05  0.7598490E+05  0.3691964E-02  0.7537842E-02  0.1711528E+04  0.3981457E+04
  0.1783333E+01  0.5472238E+05  0.7826295E+05 -0.2892040E-02  0.9071350E-02  0.1633183E+04  0.4189482E+04
  0.1814286E+01  0.5273329E+05  0.8028298E+05 -0.6728285E-04 -0.8087158E-03  0.1551466E+04  0.4390554E+04
  0.1845238E+01  0.5077876E+05  0.8204563E+05 -0.3994062E-02  0.5935669E-02  0.1463768E+04  0.4579593E+04
  0.1876190E+01  0.4885559E+05  0.8355556E+05 -0.4757721E-02  0.5508423E-02  0.1374840E+04  0.4757902E+04
  0.1907143E+01  0.4698293E+05  0.8482698E+05 -0.6568709E-02 -0.4318237E-02  0.1283606E+04  0.4923478E+04
  0.1938095E+01  0.4517821E+05  0.8587008E+05 -0.4464040E-02 -0.8087158E-03  0.1194356E+04  0.5083311E+04
  0.1969048E+01  0.4342000E+05  0.8669593E+05 -0.2619272E-02  0.8140564E-02  0.1104428E+04  0.5239219E+04
  0.2000000E+01  0.4174148E+05  0.8731489E+05  0.6484985E-03 -0.6149292E-02  0.1016593E+04  0.5386581E+04
Zone t="Motion of body    1 in DoF   2",I=    64,F=POINT
  0.5000000E-01  0.7867813E-02 -0.1809001E-04  0.9960472E+05  0.2596711E+03 -0.7419586E-02 -0.2467632E-04
  0.8095238E-01 -0.1440777E-01  0.3296137E-04  0.9847303E+05  0.4305826E+03 -0.5984587E-02 -0.4172325E-04
  0.1119048E+00  0.7431355E-02  0.2896786E-04  0.9783220E+05  0.6166581E+03 -0.6170070E-02 -0.5698204E-04
  0.1428571E+00 -0.1588821E-02 -0.4959106E-04  0.9749826E+05  0.8249513E+03 -0.7877350E-02 -0.7224083E-04
  0.1738095E+00 -0.4949178E-02  0.1239777E-04  0.9740261E+05  0.1064380E+04 -0.8537605E-02 -0.1056194E-03
  0.2047619E+00  0.1332039E-01 -0.6365776E-04  0.9751609E+05  0.1346062E+04 -0.8979619E-02 -0.1378059E-03
  0.2357143E+00  0.9726321E-02  0.2837181E-04  0.9774805E+05  0.1685600E+04 -0.6052652E-02 -0.1602173E-03
  0.2666667E+00 -0.2665043E-01 -0.6294250E-04  0.9811656E+05  0.2096272E+04 -0.8354187E-02 -0.1955032E-03
  0.2976190E+00 -0.1685486E-01  0.3557205E-03  0.9856452E+05  0.2607386E+04 -0.7434082E-02 -0.2689362E-03
  0.3285715E+00  0.2658678E-02 -0.2713203E-03  0.9906033E+05  0.3234810E+04 -0.8057303E-02 -0.3399849E-03
  0.3595238E+00 -0.2231370E-01 -0.6537437E-03  0.9953707E+05  0.4013429E+04 -0.7979033E-02 -0.3833771E-03
  0.3904762E+00 -0.5842069E-02  0.4005432E-04  0.1000165E+06  0.4970299E+04 -0.7522396E-02 -0.4873276E-03
  0.4214286E+00 -0.1520706E-02  0.6151199E-03  0.1002138E+06  0.6095221E+04 -0.8925097E-02 -0.7247925E-03
  0.4523810E+00  0.8601137E-02 -0.6618500E-03  0.1003138E+06  0.7445798E+04 -0.9478116E-02 -0.7495880E-03
  0.4833333E+00 -0.9628822E-02 -0.1028061E-02  0.1000902E+06  0.8911013E+04 -0.9060564E-02 -0.9632111E-03
  0.5142857E+00 -0.1559152E-01  0.2025604E-02  0.9962441E+05  0.1056000E+05 -0.8752611E-02 -0.1012802E-02
  0.5452381E+00  0.8129803E-02  0.2679825E-03  0.9891166E+05  0.1230400E+05 -0.8591564E-02 -0.1289368E-02
  0.5761905E+00  0.1747825E-02 -0.2820969E-02  0.9799989E+05  0.1411016E+05 -0.9348215E-02 -0.1564026E-02
  0.6071429E+00 -0.6006577E-02  0.4940033E-03  0.9688076E+05  0.1602149E+05 -0.8494657E-02 -0.1495361E-02
  0.6380953E+00 -0.5739126E-03 -0.1173019E-02  0.9567988E+05  0.1792633E+05 -0.7365212E-02 -0.1426697E-02
  0.6690477E+00  0.4185035E-02 -0.1211166E-02  0.9433874E+05  0.1986815E+05 -0.6591145E-02 -0.2277374E-02
  0.7000000E+00 -0.1154218E-01  0.2616882E-02  0.9283919E+05  0.2185243E+05 -0.7498604E-02 -0.2101898E-02
  0.7309524E+00 -0.6502629E-02  0.9155273E-04  0.9129107E+05  0.2381799E+05 -0.6325190E-02 -0.2677917E-02
  0.7619048E+00 -0.8561610E-02 -0.1508713E-02  0.8968733E+05  0.2577475E+05 -0.7149696E-02 -0.2037048E-02
  0.7928572E+00 -0.3252459E-02  0.2662659E-02  0.8800221E+05  0.2771686E+05 -0.6658880E-02 -0.2616882E-02
  0.8238096E+00 -0.1176161E-02  0.2429962E-02  0.8624791E+05  0.2962826E+05 -0.6371647E-02 -0.3204346E-02
  0.8547620E+00 -0.7006716E-02  0.1003265E-02  0.8445800E+05  0.3149133E+05 -0.7765405E-02 -0.3372192E-02
  0.8857143E+00 -0.3962363E-02  0.3135681E-02  0.8265849E+05  0.3329133E+05 -0.6891066E-02 -0.3898621E-02
  0.9166667E+00  0.1846036E-01 -0.1869202E-02  0.8084418E+05  0.3502066E+05 -0.6741610E-02 -0.3379822E-02
  0.9476191E+00 -0.8292653E-03 -0.1136780E-02  0.7900436E+05  0.3667302E+05 -0.6231566E-02 -0.3913879E-02
  0.9785714E+00 -0.3071806E-02 -0.1941681E-02  0.7716123E+05  0.3824123E+05 -0.6252762E-02 -0.3860474E-02
  0.1009524E+01  0.3423511E-02 -0.6126404E-02  0.7534424E+05  0.3971424E+05 -0.5562261E-02 -0.4638672E-02
  0.1040476E+01 -0.4641535E-02 -0.5214691E-02  0.7355020E+05  0.4108521E+05 -0.5866079E-02 -0.4577637E-02
  0.1071429E+01 -0.6935629E-02 -0.1708984E-02  0.7177462E+05  0.4235100E+05 -0.6949870E-02 -0.4188538E-02
  0.1102381E+01  0.3148979E-02  0.3826141E-02  0.7002739E+05  0.4350839E+05 -0.6643999E-02 -0.3936768E-02
  0.1133333E+01  0.4698810E-02  0.9246826E-02  0.6831655E+05  0.4455494E+05 -0.4752664E-02 -0.5287170E-02
  0.1164286E+01  0.3649940E-02 -0.4653931E-03  0.6667208E+05  0.4548230E+05 -0.5792723E-02 -0.5233765E-02
  0.1195238E+01  0.3306476E-02  0.2758026E-02  0.6508572E+05  0.4629113E+05 -0.4085221E-02 -0.5821228E-02
  0.1226190E+01 -0.3260344E-02 -0.6748199E-02  0.6355492E+05  0.4698725E+05 -0.5425611E-02 -0.5462646E-02
  0.1257143E+01  0.3701990E-02 -0.5271912E-02  0.6208612E+05  0.4760294E+05 -0.4260323E-02 -0.5592346E-02
  0.1288095E+01  0.4406716E-02  0.8506775E-03  0.6064366E+05  0.4805847E+05 -0.3921029E-02 -0.5699158E-02
  0.1319048E+01 -0.2926713E-02  0.7171631E-03  0.5928216E+05  0.4843262E+05 -0.4812303E-02 -0.4585266E-02
  0.1350000E+01  0.5052355E-02 -0.1333237E-01  0.5799300E+05  0.4869405E+05 -0.3842954E-02 -0.5546570E-02
  0.1380952E+01 -0.4894915E-02  0.1785278E-02  0.5677654E+05  0.4884307E+05 -0.4309292E-02 -0.5149841E-02
  0.1411905E+01  0.1729158E-03  0.4547119E-02  0.5562070E+05  0.4896749E+05 -0.3847376E-02 -0.5126953E-02
  0.1442857E+01  0.1956449E-02 -0.4261017E-02  0.5452659E+05  0.4893518E+05 -0.4124405E-02 -0.5401611E-02
  0.1473810E+01 -0.2805744E-02  0.2059937E-03  0.5348548E+05  0.4881857E+05 -0.3499415E-02 -0.5561829E-02
  0.1504762E+01 -0.2514803E-02 -0.9849548E-02  0.5251302E+05  0.4861178E+05 -0.3772204E-02 -0.6225586E-02
  0.1535714E+01  0.9637877E-03 -0.3166199E-02  0.5161295E+05  0.4832785E+05 -0.3159634E-02 -0.5920410E-02
  0.1566667E+01 -0.1655741E-03  0.1907349E-02  0.5078287E+05  0.4796018E+05 -0.3486796E-02 -0.5760193E-02
  0.1597619E+01 -0.4851886E-02  0.4276276E-02  0.5000933E+05  0.4752324E+05 -0.2979898E-02 -0.4653931E-02
  0.1628572E+01  0.1761453E-02 -0.2136230E-02  0.4929307E+05  0.4701786E+05 -0.3260562E-02 -0.6195068E-02
  0.1659524E+01 -0.1857325E-02  0.9651184E-03  0.4863364E+05  0.4645129E+05 -0.3089412E-02 -0.6141663E-02
  0.1690476E+01 -0.1227580E-02  0.7213593E-02  0.4802272E+05  0.4583091E+05 -0.2617634E-02 -0.4493713E-02
  0.1721429E+01  0.2801033E-02 -0.6927490E-02  0.4746011E+05  0.4515737E+05 -0.3102409E-02 -0.6652832E-02
  0.1752381E+01 -0.4823934E-02 -0.5386353E-02  0.4696099E+05  0.4444170E+05 -0.3030197E-02 -0.4768372E-02
  0.1783333E+01 -0.2053519E-02 -0.5641937E-02  0.4651668E+05  0.4368540E+05 -0.2840702E-02 -0.6317139E-02
  0.1814286E+01 -0.3877174E-02 -0.9422302E-02  0.4611873E+05  0.4288194E+05 -0.1867099E-02 -0.4470825E-02
  0.1845238E+01  0.4969837E-02 -0.1300430E-01  0.4575880E+05  0.4205108E+05 -0.2778478E-02 -0.4573822E-02
  0.1876190E+01  0.3009157E-03 -0.6418228E-02  0.4544125E+05  0.4118502E+05 -0.1691634E-02 -0.5470276E-02
  0.1907143E+01 -0.7440803E-03 -0.1113892E-01  0.4516487E+05  0.4029255E+05 -0.2192237E-02 -0.5992889E-02
  0.1938095E+01  0.3204346E-02  0.5334854E-02  0.4492483E+05  0.3938156E+05 -0.2881549E-02 -0.5599976E-02
  0.1969048E+01 -0.1759097E-02  0.8346558E-02  0.4470763E+05  0.3845806E+05 -0.2262803E-02 -0.5054474E-02
  0.2000000E+01 -0.3715515E-02 -0.1061249E-01  0.4453280E+05  0.3750927E+05 -0.2227783E-02 -0.6866455E-02
Zone t="Motion of body    1 in DoF   3",I=    64,F=POINT
  0.5000000E-01  0.1057242E+04  0.1128769E-03 -0.7793903E-02 -0.2320531E-04  0.1928800E+04  0.3116166E-05
  0.8095238E-01  0.1050823E+04  0.4879997E-03 -0.9863377E-02 -0.5375222E-04  0.1940772E+04  0.1014330E-04
  0.1119048E+00  0.1054805E+04  0.1379536E-02 -0.7049987E-02 -0.5154710E-04  0.1953441E+04  0.3649307E-04
  0.1428571E+00  0.1061398E+04  0.3111124E-02 -0.7373333E-02 -0.7238182E-04  0.1954206E+04  0.7129453E-04
  0.1738095E+00  0.1063140E+04  0.6211339E-02 -0.1083661E-01 -0.1310293E-03  0.1962760E+04  0.1408470E-03
  0.2047619E+00  0.1063472E+04  0.1153694E-01 -0.1168096E-01 -0.1968721E-03  0.1957198E+04  0.2834976E-03
  0.2357143E+00  0.1078121E+04  0.2044162E-01 -0.9592807E-02 -0.2006251E-03  0.1955652E+04  0.4799204E-03
  0.2666667E+00  0.1076018E+04  0.3509235E-01 -0.1600027E-01 -0.3950802E-03  0.1960948E+04  0.8365171E-03
  0.2976190E+00  0.1085977E+04  0.5932780E-01 -0.8901672E-02 -0.2846614E-03  0.1952604E+04  0.1394015E-02
  0.3285715E+00  0.1100306E+04  0.9904870E-01 -0.7436171E-02 -0.2464670E-03  0.1960268E+04  0.2329374E-02
  0.3595238E+00  0.1108187E+04  0.1640391E+00 -0.9098431E-02 -0.4373860E-03  0.1957016E+04  0.3904484E-02
  0.3904762E+00  0.1120539E+04  0.2702796E+00 -0.8655640E-02 -0.5182168E-03  0.1962740E+04  0.6529352E-02
  0.4214286E+00  0.1158088E+04  0.4397609E+00 -0.1110659E-01 -0.8076592E-03  0.1962280E+04  0.1077036E-01
  0.4523810E+00  0.1153219E+04  0.7093115E+00 -0.1132483E-01 -0.9346926E-03  0.1965627E+04  0.1748137E-01
  0.4833333E+00  0.1164363E+04  0.1116197E+01 -0.1062327E-01 -0.1138970E-02  0.1963377E+04  0.2788587E-01
  0.5142857E+00  0.1191472E+04  0.1729792E+01 -0.1309554E-01 -0.1506323E-02  0.1962811E+04  0.4380117E-01
  0.5452381E+00  0.1223112E+04  0.2619412E+01 -0.7898922E-02 -0.1101303E-02  0.1972744E+04  0.6725190E-01
  0.5761905E+00  0.1231282E+04  0.3874933E+01 -0.1363171E-01 -0.2247644E-02  0.1963310E+04  0.1006702E+00
  0.6071429E+00  0.1239505E+04  0.5627125E+01 -0.1253150E-01 -0.2443001E-02  0.1970296E+04  0.1477705E+00
  0.6380953E+00  0.1271733E+04  0.7998699E+01 -0.7170919E-02 -0.1540305E-02  0.1972889E+04  0.2133819E+00
  0.6690477E+00  0.1313784E+04  0.1118520E+02 -0.1450223E-01 -0.3592618E-02  0.1969377E+04  0.3034692E+00
  0.7000000E+00  0.1344007E+04  0.1542330E+02 -0.1053401E-01 -0.2894443E-02  0.1977567E+04  0.4244637E+00
  0.7309524E+00  0.1354660E+04  0.2093674E+02 -0.6974931E-02 -0.2214175E-02  0.1978534E+04  0.5833972E+00
  0.7619048E+00  0.1387205E+04  0.2803555E+02 -0.1233923E-01 -0.4434809E-02  0.1973809E+04  0.7924201E+00
  0.7928572E+00  0.1425120E+04  0.3712258E+02 -0.1319507E-01 -0.5057760E-02  0.1975620E+04  0.1066728E+01
  0.8238096E+00  0.1466198E+04  0.4862075E+02 -0.9707963E-02 -0.4434384E-02  0.1984368E+04  0.1421256E+01
  0.8547620E+00  0.1517887E+04  0.6298987E+02 -0.1159232E-01 -0.5611598E-02  0.1989257E+04  0.1877529E+01
  0.8857143E+00  0.1564942E+04  0.8086348E+02 -0.7338985E-02 -0.3471345E-02  0.1984274E+04  0.2452152E+01
  0.9166667E+00  0.1591619E+04  0.1030143E+03 -0.1011866E-01 -0.5520567E-02  0.1985630E+04  0.3176230E+01
  0.9476191E+00  0.1624830E+04  0.1298825E+03 -0.9604986E-02 -0.6341755E-02  0.1993557E+04  0.4072198E+01
  0.9785714E+00  0.1677413E+04  0.1620693E+03 -0.9412278E-02 -0.6434470E-02  0.1998773E+04  0.5154729E+01
  0.1009524E+01  0.1738757E+04  0.2006930E+03 -0.7946626E-02 -0.5507976E-02  0.1995586E+04  0.6503279E+01
  0.1040476E+01  0.1793887E+04  0.2467505E+03 -0.6223543E-02 -0.3891826E-02  0.1996175E+04  0.8158729E+01
  0.1071429E+01  0.1852167E+04  0.3013788E+03 -0.1008301E-01 -0.7947505E-02  0.2006602E+04  0.1017517E+02
  0.1102381E+01  0.1905566E+04  0.3653381E+03 -0.6571331E-02 -0.5881190E-02  0.2014247E+04  0.1259289E+02
  0.1133333E+01  0.1949522E+04  0.4397373E+03 -0.7957010E-02 -0.7026494E-02  0.2016948E+04  0.1547371E+02
  0.1164286E+01  0.1993827E+04  0.5258001E+03 -0.5891016E-02 -0.5829930E-02  0.2013544E+04  0.1879627E+02
  0.1195238E+01  0.2033707E+04  0.6234837E+03 -0.6274645E-02 -0.6480217E-02  0.2012132E+04  0.2272922E+02
  0.1226190E+01  0.2080056E+04  0.7339553E+03 -0.6166033E-02 -0.6646156E-02  0.2019244E+04  0.2712700E+02
  0.1257143E+01  0.2117125E+04  0.8581989E+03 -0.7127848E-02 -0.9003282E-02  0.2029288E+04  0.3251583E+02
  0.1288095E+01  0.2155009E+04  0.9945428E+03 -0.5884505E-02 -0.5951285E-02  0.2033621E+04  0.3847631E+02
  0.1319048E+01  0.2187322E+04  0.1145798E+04 -0.6238062E-02 -0.8170366E-02  0.2037006E+04  0.4533979E+02
  0.1350000E+01  0.2217909E+04  0.1310665E+04 -0.2577040E-02 -0.3871918E-02  0.2035650E+04  0.5253022E+02
  0.1380952E+01  0.2234250E+04  0.1488726E+04 -0.8947307E-02 -0.1701593E-01  0.2035900E+04  0.6087507E+02
  0.1411905E+01  0.2116094E+04  0.1616328E+04 -0.5184771E-02 -0.7421017E-02  0.2026896E+04  0.6697011E+02
  0.1442857E+01  0.2112744E+04  0.1811114E+04 -0.5634043E-02 -0.9310484E-02  0.2036234E+04  0.7749843E+02
  0.1473810E+01  0.2101083E+04  0.2016120E+04 -0.5098999E-02 -0.1287627E-01  0.2039427E+04  0.8829783E+02
  0.1504762E+01  0.2082840E+04  0.2227704E+04 -0.3118153E-02 -0.7136345E-02  0.2042705E+04  0.9954253E+02
  0.1535714E+01  0.2059545E+04  0.2445735E+04 -0.4391692E-02 -0.3307581E-02  0.2038037E+04  0.1111656E+03
  0.1566667E+01  0.2027124E+04  0.2666637E+04 -0.3374790E-02 -0.4515171E-02  0.2032827E+04  0.1220322E+03
  0.1597619E+01  0.1983606E+04  0.2891833E+04 -0.5219597E-02 -0.9449959E-02  0.2030986E+04  0.1346956E+03
  0.1628572E+01  0.1932733E+04  0.3121561E+04 -0.2651549E-02 -0.8727074E-02  0.2034066E+04  0.1490431E+03
  0.1659524E+01  0.1871401E+04  0.3348616E+04 -0.3215839E-02 -0.3155708E-02  0.2043220E+04  0.1652715E+03
  0.1690476E+01  0.1806078E+04  0.3571672E+04 -0.4822314E-02 -0.1293182E-02  0.2047448E+04  0.1818901E+03
  0.1721429E+01  0.1737576E+04  0.3786599E+04 -0.3470267E-02 -0.5588055E-02  0.2049982E+04  0.1973319E+03
  0.1752381E+01  0.1662204E+04  0.3996909E+04 -0.4288425E-02 -0.3413677E-02  0.2047883E+04  0.2121135E+03
  0.1783333E+01  0.1582168E+04  0.4203099E+04 -0.2800059E-02 -0.6056309E-02  0.2036842E+04  0.2231918E+03
  0.1814286E+01  0.1496074E+04  0.4399226E+04 -0.3309475E-02 -0.9144306E-02  0.2027176E+04  0.2352541E+03
  0.1845238E+01  0.1405661E+04  0.4591027E+04 -0.3413145E-02 -0.5514622E-02  0.2022426E+04  0.2486055E+03
  0.1876190E+01  0.1316828E+04  0.4777110E+04 -0.2710275E-02 -0.9266853E-02  0.2022483E+04  0.2657755E+03
  0.1907143E+01  0.1224846E+04  0.4953077E+04 -0.3746404E-02 -0.5382061E-02  0.2027541E+04  0.2864781E+03
  0.1938095E+01  0.1132176E+04  0.5114557E+04 -0.4103846E-02 -0.8785248E-02  0.2032397E+04  0.3093978E+03
  0.1969048E+01  0.1039718E+04  0.5267205E+04 -0.2628959E-02 -0.4625797E-02  0.2030331E+04  0.3266342E+03
  0.2000000E+01  0.9503879E+03  0.5406843E+04 -0.4005432E-02 -0.1417160E-02  0.2029545E+04  0.3440785E+03
