VARIABLES="w (rad/s)"
"A   1   1" "B   1   1"
"A   1   2" "B   1   2"
"A   1   3" "B   1   3"
Zone t="Motion of body    1 in DoF   1",I=    64,F=POINT
  0.5000000E-01  0.1294973E+06  0.1424424E-01 -0.4653931E-02 -0.2427671E-04 -0.4088992E+06 -0.4555547E-01
  0.8095238E-01  0.1304628E+06  0.6251998E-01 -0.5607605E-02 -0.7972802E-04 -0.4116002E+06 -0.1993407E+00
  0.1119048E+00  0.1307645E+06  0.1751152E+00 -0.6749579E-02 -0.7398671E-04 -0.4122787E+06 -0.5575357E+00
  0.1428571E+00  0.1309175E+06  0.3931679E+00 -0.7156372E-02 -0.1316620E-03 -0.4128282E+06 -0.1251167E+01
  0.1738095E+00  0.1311733E+06  0.7809120E+00 -0.6496482E-02 -0.1089820E-03 -0.4132265E+06 -0.2482088E+01
  0.2047619E+00  0.1313981E+06  0.1437462E+01 -0.4210361E-02 -0.1124982E-03 -0.4138038E+06 -0.4564378E+01
  0.2357143E+00  0.1315782E+06  0.2523071E+01 -0.1288212E-01 -0.3994852E-03 -0.4143352E+06 -0.8002850E+01
  0.2666667E+00  0.1318835E+06  0.4288951E+01 -0.1027107E-01 -0.4309695E-03 -0.4149668E+06 -0.1358093E+02
  0.2976190E+00  0.1321231E+06  0.7162631E+01 -0.4665527E-02 -0.3766119E-03 -0.4155989E+06 -0.2264500E+02
  0.3285715E+00  0.1325387E+06  0.1179745E+02 -0.6965968E-03 -0.1405850E-03 -0.4166861E+06 -0.3722670E+02
  0.3595238E+00  0.1328917E+06  0.1927456E+02 -0.2164525E-02 -0.2616048E-03 -0.4174027E+06 -0.6068743E+02
  0.3904762E+00  0.1333114E+06  0.3124559E+02 -0.9964732E-02 -0.8053035E-03 -0.4183748E+06 -0.9814808E+02
  0.4214286E+00  0.1337858E+06  0.4997177E+02  0.1122426E-02  0.1873672E-03 -0.4198115E+06 -0.1566186E+03
  0.4523810E+00  0.1343862E+06  0.7924671E+02 -0.5970201E-02 -0.7855296E-03 -0.4211008E+06 -0.2476648E+03
  0.4833333E+00  0.1349695E+06  0.1224650E+03 -0.1224912E-01 -0.2117634E-02 -0.4224082E+06 -0.3815467E+03
  0.5142857E+00  0.1356470E+06  0.1861988E+03 -0.8426243E-02 -0.2252579E-02 -0.4242198E+06 -0.5784359E+03
  0.5452381E+00  0.1364974E+06  0.2763525E+03 -0.4477689E-02 -0.1755357E-02 -0.4266008E+06 -0.8558951E+03
  0.5761905E+00  0.1372947E+06  0.4002226E+03 -0.1588932E-02 -0.9677410E-03 -0.4284811E+06 -0.1235038E+04
  0.6071429E+00  0.1382060E+06  0.5691017E+03 -0.3669290E-02 -0.1022339E-02 -0.4305485E+06 -0.1749339E+04
  0.6380953E+00  0.1392003E+06  0.7912614E+03 -0.3634780E-02 -0.4053116E-03 -0.4330213E+06 -0.2422626E+04
  0.6690477E+00  0.1402527E+06  0.1080978E+04 -0.1518928E-01 -0.5548000E-02 -0.4359569E+06 -0.3297292E+04
  0.7000000E+00  0.1413445E+06  0.1454245E+04  0.5623953E-02  0.7047653E-03 -0.4386795E+06 -0.4416909E+04
  0.7309524E+00  0.1426615E+06  0.1926893E+04 -0.5886810E-02 -0.2995491E-02 -0.4417978E+06 -0.5824440E+04
  0.7619048E+00  0.1438813E+06  0.2517877E+04  0.1201630E-02  0.7896423E-03 -0.4446591E+06 -0.7573429E+04
  0.7928572E+00  0.1451917E+06  0.3250400E+04 -0.4003026E-02 -0.3307343E-02 -0.4478016E+06 -0.9727496E+04
  0.8238096E+00  0.1466803E+06  0.4149711E+04 -0.3334001E-03 -0.2058029E-02 -0.4513953E+06 -0.1235365E+05
  0.8547620E+00  0.1480347E+06  0.5236873E+04 -0.1785151E-03 -0.3711700E-02 -0.4548196E+06 -0.1551009E+05
  0.8857143E+00  0.1495385E+06  0.6543863E+04  0.3066524E-02 -0.1121521E-02 -0.4583651E+06 -0.1927086E+05
  0.9166667E+00  0.1510179E+06  0.8097889E+04 -0.7590554E-02 -0.1068878E-01 -0.4615734E+06 -0.2369994E+05
  0.9476191E+00  0.1526228E+06  0.9934910E+04 -0.6118851E-03 -0.8354187E-03 -0.4649264E+06 -0.2888519E+05
  0.9785714E+00  0.1541057E+06  0.1208087E+05 -0.1559292E-02 -0.5310059E-02 -0.4680989E+06 -0.3489566E+05
  0.1009524E+01  0.1554531E+06  0.1456574E+05 -0.4292614E-02 -0.5615234E-02 -0.4708477E+06 -0.4179152E+05
  0.1040476E+01  0.1568304E+06  0.1742880E+05 -0.1818485E-02 -0.3738403E-02 -0.4737123E+06 -0.4966861E+05
  0.1071429E+01  0.1580740E+06  0.2069113E+05  0.1424154E-02  0.2288818E-03 -0.4761282E+06 -0.5855228E+05
  0.1102381E+01  0.1593069E+06  0.2437651E+05 -0.4373966E-02 -0.5844116E-02 -0.4781435E+06 -0.6845303E+05
  0.1133333E+01  0.1602376E+06  0.2848840E+05  0.1561782E-02 -0.6980896E-02 -0.4792412E+06 -0.7936162E+05
  0.1164286E+01  0.1609356E+06  0.3305084E+05  0.5242283E-03 -0.4638672E-02 -0.4795965E+06 -0.9131100E+05
  0.1195238E+01  0.1615045E+06  0.3808848E+05  0.3523504E-02  0.1495361E-02 -0.4796021E+06 -0.1043466E+06
  0.1226190E+01  0.1616778E+06  0.4356506E+05 -0.1991050E-02 -0.7141113E-02 -0.4784140E+06 -0.1182960E+06
  0.1257143E+01  0.1614957E+06  0.4946179E+05 -0.1844926E-02 -0.1251221E-02 -0.4762788E+06 -0.1330981E+06
  0.1288095E+01  0.1612220E+06  0.5584411E+05  0.5259628E-02 -0.2380371E-02 -0.4739486E+06 -0.1488981E+06
  0.1319048E+01  0.1602536E+06  0.6250848E+05 -0.1573253E-02 -0.7461548E-02 -0.4697629E+06 -0.1650778E+06
  0.1350000E+01  0.1589974E+06  0.6952201E+05  0.2215350E-02  0.1831055E-03 -0.4650905E+06 -0.1818896E+06
  0.1380952E+01  0.1573853E+06  0.7674544E+05 -0.2651872E-02 -0.5340576E-02 -0.4593347E+06 -0.1987953E+06
  0.1411905E+01  0.1550691E+06  0.8401141E+05 -0.1253639E-02 -0.5187988E-03 -0.4519924E+06 -0.2154234E+06
  0.1442857E+01  0.1525959E+06  0.9138296E+05 -0.2665000E-02 -0.3448486E-02 -0.4439977E+06 -0.2317707E+06
  0.1473810E+01  0.1497576E+06  0.9873199E+05  0.3271642E-02 -0.1403809E-02 -0.4352730E+06 -0.2476370E+06
  0.1504762E+01  0.1464491E+06  0.1058918E+06  0.9734721E-03 -0.2502441E-02 -0.4256094E+06 -0.2626034E+06
  0.1535714E+01  0.1426531E+06  0.1126987E+06 -0.2026935E-02 -0.1373291E-02 -0.4148167E+06 -0.2761668E+06
  0.1566667E+01  0.1387356E+06  0.1192838E+06  0.1519386E-02 -0.1617432E-02 -0.4041686E+06 -0.2889472E+06
  0.1597619E+01  0.1345676E+06  0.1253483E+06 -0.7258726E-03 -0.2868652E-02 -0.3929957E+06 -0.2999646E+06
  0.1628572E+01  0.1301543E+06  0.1307995E+06  0.2998218E-02 -0.1556396E-02 -0.3813859E+06 -0.3089908E+06
  0.1659524E+01  0.1257030E+06  0.1357215E+06  0.1103361E-02 -0.1342773E-02 -0.3699726E+06 -0.3164695E+06
  0.1690476E+01  0.1212379E+06  0.1400483E+06  0.5776848E-03  0.6408691E-03 -0.3587533E+06 -0.3221757E+06
  0.1721429E+01  0.1166992E+06  0.1437007E+06 -0.2127366E-03  0.1403809E-02 -0.3478586E+06 -0.3262730E+06
  0.1752381E+01  0.1120796E+06  0.1464460E+06  0.1950471E-02 -0.2456665E-02 -0.3368118E+06 -0.3276657E+06
  0.1783333E+01  0.1076294E+06  0.1485898E+06  0.1437464E-02  0.7476807E-03 -0.3265369E+06 -0.3277381E+06
  0.1814286E+01  0.1034162E+06  0.1502174E+06  0.3364143E-04 -0.3265381E-02 -0.3171542E+06 -0.3266898E+06
  0.1845238E+01  0.9933289E+05  0.1511138E+06 -0.2943863E-02 -0.4882812E-03 -0.3082510E+06 -0.3238542E+06
  0.1876190E+01  0.9540079E+05  0.1512926E+06 -0.1659103E-02 -0.3662109E-03 -0.2998888E+06 -0.3192092E+06
  0.1907143E+01  0.9174937E+05  0.1510238E+06  0.3200345E-03 -0.6713867E-03 -0.2924230E+06 -0.3137865E+06
  0.1938095E+01  0.8839403E+05  0.1502752E+06 -0.6928315E-03 -0.1541138E-02 -0.2857196E+06 -0.3071731E+06
  0.1969048E+01  0.8525620E+05  0.1490948E+06  0.1549865E-03 -0.1678467E-02 -0.2798145E+06 -0.3000088E+06
  0.2000000E+01  0.8235750E+05  0.1474818E+06 -0.9155273E-03 -0.5340576E-03 -0.2746075E+06 -0.2920875E+06
Zone t="Motion of body    1 in DoF   2",I=    64,F=POINT
  0.5000000E-01  0.2937317E-02 -0.3266335E-04  0.4600970E+05  0.6914201E+02  0.1434326E-01 -0.6198883E-05
  0.8095238E-01 -0.2839145E-02 -0.2837181E-04  0.4562942E+05  0.1142720E+03 -0.5183500E-01 -0.5054474E-04
  0.1119048E+00 -0.6647313E-03  0.9822845E-04  0.4542496E+05  0.1628374E+03  0.1036299E-01 -0.4959106E-03
  0.1428571E+00  0.0000000E+00  0.6389618E-04  0.4529112E+05  0.2164925E+03 -0.1025391E-01  0.1630783E-03
  0.1738095E+00 -0.4521200E-02 -0.4339218E-04  0.4522812E+05  0.2769328E+03  0.1562667E-01 -0.2822876E-03
  0.2047619E+00 -0.2608188E-02  0.4863739E-04  0.4521768E+05  0.3469447E+03 -0.5067337E-02  0.4081726E-03
  0.2357143E+00  0.7250236E-02  0.4634857E-03  0.4514324E+05  0.4296593E+03 -0.4168886E-01  0.7991791E-03
  0.2666667E+00 -0.2288818E-03 -0.2145767E-03  0.4521557E+05  0.5270965E+03  0.1029968E-01  0.3471375E-03
  0.2976190E+00  0.5088501E-02 -0.2775192E-03  0.4514152E+05  0.6463466E+03 -0.4450195E-01 -0.3166199E-03
  0.3285715E+00  0.2554188E-02  0.1125336E-03  0.4524152E+05  0.7883726E+03 -0.7616125E-02 -0.5264282E-03
  0.3595238E+00  0.7936591E-02  0.6103516E-03  0.4513056E+05  0.9609289E+03 -0.1765573E-01 -0.1113892E-02
  0.3904762E+00  0.1172321E-02  0.8888245E-03  0.4516862E+05  0.1166349E+04  0.1844453E-01  0.1289368E-02
  0.4214286E+00 -0.3530211E-02  0.6713867E-03  0.4500844E+05  0.1399196E+04  0.1100702E-01  0.1960754E-02
  0.4523810E+00  0.2782721E-02 -0.8773804E-03  0.4488911E+05  0.1673212E+04  0.2860300E-01  0.5264282E-03
  0.4833333E+00  0.1026022E-02  0.8392334E-04  0.4469254E+05  0.1951634E+04 -0.2651872E-01 -0.1968384E-02
  0.5142857E+00 -0.3797743E-02  0.8888245E-03  0.4436953E+05  0.2255210E+04  0.9494358E-03 -0.4730225E-03
  0.5452381E+00  0.4743551E-02 -0.2510071E-02  0.4418648E+05  0.2555938E+04  0.2910498E-02  0.7278442E-02
  0.5761905E+00  0.1946441E-02 -0.2990723E-02  0.4370711E+05  0.2845336E+04 -0.2415176E-01  0.3738403E-02
  0.6071429E+00  0.1276712E-01  0.5569458E-03  0.4331918E+05  0.3136970E+04 -0.5227481E-02 -0.8499146E-02
  0.6380953E+00 -0.2797824E-02 -0.6942749E-03  0.4300321E+05  0.3393911E+04  0.1434782E-01 -0.5798340E-03
  0.6690477E+00 -0.1528051E-02 -0.2677917E-02  0.4250330E+05  0.3633417E+04  0.1587348E-01  0.5249023E-02
  0.7000000E+00 -0.3509521E-02  0.2822876E-03  0.4208654E+05  0.3856906E+04 -0.2755301E-01 -0.5493164E-02
  0.7309524E+00 -0.7723829E-03  0.5058289E-02  0.4179583E+05  0.4045486E+04  0.1770218E-01 -0.1739502E-02
  0.7619048E+00  0.5397319E-02 -0.2380371E-02  0.4127861E+05  0.4202110E+04  0.5126953E-02  0.8850098E-03
  0.7928572E+00 -0.3560384E-03 -0.1373291E-03  0.4085309E+05  0.4331842E+04 -0.1200908E-01  0.2624512E-02
  0.8238096E+00 -0.2963557E-03 -0.2807617E-02  0.4054560E+05  0.4432186E+04 -0.2281938E-01  0.9185791E-02
  0.8547620E+00  0.2133255E-02  0.4180908E-02  0.4020676E+05  0.4493170E+04 -0.1370996E-01 -0.9857178E-02
  0.8857143E+00 -0.1610787E-02  0.1022339E-02  0.3978571E+05  0.4517510E+04 -0.1929499E-02  0.9796143E-02
  0.9166667E+00 -0.6325461E-03  0.5004883E-02  0.3946781E+05  0.4513803E+04 -0.3728693E-02 -0.3967285E-02
  0.9476191E+00  0.3659234E-02  0.1800537E-02  0.3924648E+05  0.4486987E+04 -0.1674633E-01  0.2777100E-02
  0.9785714E+00 -0.1898438E-02  0.6713867E-03  0.3906540E+05  0.4431353E+04  0.1322280E-01 -0.5340576E-02
  0.1009524E+01  0.5577376E-02 -0.3356934E-02  0.3873502E+05  0.4317134E+04 -0.2732763E-01  0.1696777E-01
  0.1040476E+01  0.1272206E-02 -0.3417969E-02  0.3848828E+05  0.4189982E+04 -0.1149752E-01 -0.7537842E-02
  0.1071429E+01  0.2445984E-02  0.2548218E-02  0.3832801E+05  0.4055659E+04  0.2506511E-02 -0.4394531E-02
  0.1102381E+01  0.1836616E-02  0.3189087E-02  0.3827018E+05  0.3922974E+04 -0.8858666E-02 -0.1699829E-01
  0.1133333E+01  0.1513397E-02  0.1373291E-02  0.3818745E+05  0.3753634E+04 -0.6893382E-02 -0.6347656E-02
  0.1164286E+01  0.2882846E-02 -0.4302979E-02  0.3801375E+05  0.3522441E+04 -0.2096913E-02 -0.1055908E-01
  0.1195238E+01  0.2779068E-02 -0.1159668E-02  0.3790098E+05  0.3301060E+04 -0.2594116E-01 -0.4989624E-02
  0.1226190E+01  0.2720583E-02 -0.2380371E-02  0.3785335E+05  0.3096414E+04 -0.8760619E-02  0.1300049E-01
  0.1257143E+01  0.3353032E-02  0.2380371E-02  0.3787583E+05  0.2919798E+04 -0.1767245E-01  0.1133728E-01
  0.1288095E+01  0.2167820E-02  0.3814697E-03  0.3797697E+05  0.2794464E+04 -0.1895362E-02  0.8361816E-02
  0.1319048E+01  0.3577415E-02  0.1312256E-02  0.3793093E+05  0.2518463E+04 -0.1240093E-01  0.4455566E-02
  0.1350000E+01  0.9155273E-03 -0.1602173E-02  0.3790670E+05  0.2257831E+04 -0.1211661E-01  0.2670288E-02
  0.1380952E+01  0.3618701E-02  0.5798340E-03  0.3791634E+05  0.2024560E+04 -0.2245252E-01 -0.4684448E-02
  0.1411905E+01  0.2242502E-02  0.3021240E-02  0.3795603E+05  0.1829708E+04 -0.2420821E-02 -0.1196289E-01
  0.1442857E+01  0.2887084E-02 -0.1373291E-03  0.3803955E+05  0.1688272E+04 -0.1150603E-01 -0.2609253E-02
  0.1473810E+01  0.5331948E-03  0.2593994E-03  0.3815509E+05  0.1607783E+04 -0.1258961E-01  0.6790161E-02
  0.1504762E+01  0.1368945E-03  0.2304077E-02  0.3825638E+05  0.1496860E+04 -0.3569398E-02 -0.7080078E-02
  0.1535714E+01 -0.7302927E-03  0.2029419E-02  0.3829105E+05  0.1228018E+04  0.8743640E-02  0.4791260E-02
  0.1566667E+01  0.1120060E-02  0.1739502E-02  0.3833982E+05  0.1019476E+04 -0.5921708E-02 -0.5752563E-02
  0.1597619E+01  0.2497575E-02  0.7781982E-03  0.3840746E+05  0.8610245E+03 -0.5195720E-02 -0.2593994E-02
  0.1628572E+01  0.1068115E-02  0.3631592E-02  0.3847958E+05  0.7384362E+03 -0.7195723E-02 -0.5287170E-02
  0.1659524E+01  0.1199906E-02 -0.6866455E-04  0.3856536E+05  0.6749000E+03 -0.8826892E-03  0.8354187E-03
  0.1690476E+01  0.8033430E-03  0.2113342E-02  0.3865412E+05  0.6550585E+03 -0.1733054E-01 -0.1232147E-02
  0.1721429E+01  0.1413812E-02  0.1205444E-02  0.3874491E+05  0.7048997E+03 -0.2155731E-01  0.2517700E-03
  0.1752381E+01  0.9273447E-03  0.1296997E-02  0.3881330E+05  0.5194982E+03 -0.8080524E-02  0.2136230E-03
  0.1783333E+01  0.2074910E-02  0.2304077E-02  0.3888531E+05  0.3953760E+03 -0.4928446E-02 -0.3276825E-02
  0.1814286E+01  0.1623199E-02  0.2235413E-02  0.3894564E+05  0.2788706E+03 -0.1211091E-01  0.9746552E-03
  0.1845238E+01  0.4341372E-03  0.1632690E-02  0.3900844E+05  0.2162410E+03 -0.1270161E-01 -0.3572464E-02
  0.1876190E+01  0.5205029E-03  0.1014709E-02  0.3906487E+05  0.1664616E+03  0.7026789E-02 -0.1337051E-02
  0.1907143E+01 -0.4640501E-03  0.2761841E-02  0.3911955E+05  0.1594746E+03  0.9473022E-02 -0.6370544E-03
  0.1938095E+01  0.2401291E-02  0.2670288E-03  0.3917025E+05  0.1709635E+03 -0.2746132E-01  0.1254082E-02
  0.1969048E+01  0.3122978E-02 -0.1335144E-03  0.3921008E+05  0.2045320E+03 -0.3967654E-02 -0.2603531E-03
  0.2000000E+01  0.2014160E-02  0.3547668E-03  0.3925215E+05  0.2222839E+03 -0.1708984E-02  0.1697540E-03
Zone t="Motion of body    1 in DoF   3",I=    64,F=POINT
  0.5000000E-01 -0.4091317E+06 -0.4553121E-01  0.4562378E-01  0.8209594E-04  0.1584017E+07  0.1458783E+00
  0.8095238E-01 -0.4118512E+06 -0.1996085E+00  0.3581328E-01  0.2639906E-03  0.1589997E+07  0.6364666E+00
  0.1119048E+00 -0.4125514E+06 -0.5583113E+00  0.2168047E-01  0.3067371E-03  0.1591536E+07  0.1777301E+01
  0.1428571E+00 -0.4130844E+06 -0.1252581E+01  0.5895996E-01  0.7387055E-03  0.1593033E+07  0.3985832E+01
  0.1738095E+00 -0.4134872E+06 -0.2485522E+01  0.1316854E-02  0.2007093E-03  0.1593785E+07  0.7900471E+01
  0.2047619E+00 -0.4140764E+06 -0.4570583E+01 -0.1013467E-01  0.1543351E-03  0.1595303E+07  0.1451453E+02
  0.2357143E+00 -0.4145955E+06 -0.8012044E+01  0.7450912E-01  0.1865260E-02  0.1596665E+07  0.2541468E+02
  0.2666667E+00 -0.4152352E+06 -0.1359842E+02  0.3965377E-01  0.2012208E-02  0.1598198E+07  0.4306028E+02
  0.2976190E+00 -0.4158714E+06 -0.2267203E+02 -0.1020264E-01  0.1021728E-02  0.1599921E+07  0.7167882E+02
  0.3285715E+00 -0.4169492E+06 -0.3727029E+02 -0.3343665E-01  0.7402897E-03  0.1602716E+07  0.1176080E+03
  0.3595238E+00 -0.4176769E+06 -0.6076561E+02  0.2444640E-01  0.1589775E-02  0.1604349E+07  0.1913201E+03
  0.3904762E+00 -0.4186584E+06 -0.9828102E+02  0.3384101E-01  0.2276659E-02  0.1606868E+07  0.3087170E+03
  0.4214286E+00 -0.4200744E+06 -0.1567789E+03 -0.2367957E-01 -0.2572536E-03  0.1610737E+07  0.4913636E+03
  0.4523810E+00 -0.4213750E+06 -0.2479886E+03  0.1612292E-01  0.1412630E-02  0.1613866E+07  0.7750492E+03
  0.4833333E+00 -0.4226751E+06 -0.3820830E+03  0.9534112E-02  0.4208565E-02  0.1617178E+07  0.1190399E+04
  0.5142857E+00 -0.4245236E+06 -0.5791678E+03  0.7832846E-02  0.5550861E-02  0.1622140E+07  0.1799191E+04
  0.5452381E+00 -0.4268806E+06 -0.8567958E+03  0.3005648E-01  0.6103039E-02  0.1628408E+07  0.2653583E+04
  0.5761905E+00 -0.4287628E+06 -0.1236443E+04  0.5349403E-02 -0.1124382E-02  0.1632938E+07  0.3815474E+04
  0.6071429E+00 -0.4308573E+06 -0.1751774E+04  0.1417452E-01  0.4543304E-02  0.1638338E+07  0.5384915E+04
  0.6380953E+00 -0.4333191E+06 -0.2425955E+04  0.1587825E-01  0.5562782E-02  0.1644561E+07  0.7427579E+04
  0.6690477E+00 -0.4362458E+06 -0.3300580E+04  0.3329783E-01  0.1325607E-01  0.1652307E+07  0.1006767E+05
  0.7000000E+00 -0.4389653E+06 -0.4421175E+04 -0.1787458E-01  0.3128052E-02  0.1659425E+07  0.1342840E+05
  0.7309524E+00 -0.4420894E+06 -0.5831038E+04  0.5160353E-01  0.2179337E-01  0.1666970E+07  0.1762544E+05
  0.7619048E+00 -0.4449516E+06 -0.7582418E+04 -0.1401901E-01  0.2674103E-02  0.1673995E+07  0.2280672E+05
  0.7928572E+00 -0.4481145E+06 -0.9738787E+04 -0.9237753E-03 -0.2487183E-02  0.1681788E+07  0.2914517E+05
  0.8238096E+00 -0.4516932E+06 -0.1236789E+05 -0.5853024E-02 -0.1762390E-02  0.1690395E+07  0.3681886E+05
  0.8547620E+00 -0.4550800E+06 -0.1552285E+05 -0.2356399E-01  0.4753113E-02  0.1698748E+07  0.4597341E+05
  0.8857143E+00 -0.4586271E+06 -0.1928455E+05 -0.1867479E-01 -0.3013611E-02  0.1707013E+07  0.5678948E+05
  0.9166667E+00 -0.4618617E+06 -0.2371962E+05  0.1418235E-01  0.1629639E-01  0.1714223E+07  0.6941871E+05
  0.9476191E+00 -0.4652218E+06 -0.2891651E+05 -0.1294620E-01 -0.5096436E-02  0.1721201E+07  0.8407176E+05
  0.9785714E+00 -0.4683942E+06 -0.3493160E+05  0.3118585E-03  0.1702881E-01  0.1727922E+07  0.1008968E+06
  0.1009524E+01 -0.4711198E+06 -0.4183021E+05  0.1354290E-01  0.2171326E-01  0.1733359E+07  0.1200139E+06
  0.1040476E+01 -0.4739801E+06 -0.4970218E+05  0.8623136E-02  0.3311157E-02  0.1738749E+07  0.1416374E+06
  0.1071429E+01 -0.4763940E+06 -0.5858172E+05 -0.9912110E-02  0.4577637E-03  0.1743006E+07  0.1657729E+06
  0.1102381E+01 -0.4783841E+06 -0.6848712E+05  0.6477899E-02  0.2468872E-01  0.1745051E+07  0.1923126E+06
  0.1133333E+01 -0.4794723E+06 -0.7940122E+05 -0.1120175E-01  0.1095581E-01  0.1744839E+07  0.2211720E+06
  0.1164286E+01 -0.4798217E+06 -0.9136238E+05  0.1520262E-01  0.1644897E-01  0.1742570E+07  0.2523903E+06
  0.1195238E+01 -0.4798405E+06 -0.1043971E+06 -0.1531958E-01  0.1373291E-02  0.1738999E+07  0.2859807E+06
  0.1226190E+01 -0.4786732E+06 -0.1183628E+06 -0.1284227E-01  0.2746582E-03  0.1732516E+07  0.3213729E+06
  0.1257143E+01 -0.4764884E+06 -0.1331602E+06 -0.2621737E-02  0.2838135E-02  0.1723101E+07  0.3582939E+06
  0.1288095E+01 -0.4741629E+06 -0.1489567E+06 -0.3231591E-01  0.1403809E-02  0.1713348E+07  0.3971115E+06
  0.1319048E+01 -0.4699235E+06 -0.1651172E+06 -0.6663188E-02  0.1342773E-01  0.1698522E+07  0.4359544E+06
  0.1350000E+01 -0.4652487E+06 -0.1818859E+06 -0.1980252E-01 -0.2136230E-02  0.1683250E+07  0.4757631E+06
  0.1380952E+01 -0.4594882E+06 -0.1987456E+06  0.3535830E-03  0.1586914E-01  0.1664731E+07  0.5146963E+06
  0.1411905E+01 -0.4520670E+06 -0.2152178E+06  0.1798324E-01 -0.2563477E-02  0.1642754E+07  0.5517201E+06
  0.1442857E+01 -0.4440671E+06 -0.2315574E+06  0.2593088E-01  0.1007080E-01  0.1619243E+07  0.5871701E+06
  0.1473810E+01 -0.4353261E+06 -0.2473740E+06 -0.4555451E-03  0.8239746E-02  0.1593948E+07  0.6202178E+06
  0.1504762E+01 -0.4256687E+06 -0.2622937E+06 -0.3902001E-01 -0.4272461E-02  0.1567333E+07  0.6501472E+06
  0.1535714E+01 -0.4148298E+06 -0.2758051E+06 -0.3457712E-02  0.3967285E-02  0.1538176E+07  0.6754746E+06
  0.1566667E+01 -0.4042371E+06 -0.2885101E+06  0.7635887E-02  0.1409912E-01  0.1510328E+07  0.6983623E+06
  0.1597619E+01 -0.3930857E+06 -0.2994514E+06  0.1256906E-01  0.8850098E-02  0.1481630E+07  0.7161008E+06
  0.1628572E+01 -0.3815115E+06 -0.3084805E+06 -0.2061275E-01  0.5981445E-02  0.1452632E+07  0.7281158E+06
  0.1659524E+01 -0.3701146E+06 -0.3159523E+06 -0.3387320E-01  0.7324219E-03  0.1424973E+07  0.7362681E+06
  0.1690476E+01 -0.3588796E+06 -0.3215631E+06 -0.1328675E-01 -0.2380371E-02  0.1397553E+07  0.7388556E+06
  0.1721429E+01 -0.3480409E+06 -0.3256338E+06 -0.2889673E-01  0.5493164E-03  0.1372811E+07  0.7384463E+06
  0.1752381E+01 -0.3369734E+06 -0.3269579E+06 -0.1504649E-01 -0.2868652E-02  0.1347355E+07  0.7301141E+06
  0.1783333E+01 -0.3267026E+06 -0.3270143E+06 -0.1481956E-01  0.1220703E-03  0.1325028E+07  0.7199691E+06
  0.1814286E+01 -0.3173979E+06 -0.3259352E+06  0.7300190E-02  0.2197266E-02  0.1305013E+07  0.7069709E+06
  0.1845238E+01 -0.3085351E+06 -0.3230607E+06 -0.1720010E-02 -0.1647949E-02  0.1286742E+07  0.6905174E+06
  0.1876190E+01 -0.3001989E+06 -0.3184638E+06  0.7221977E-02 -0.1159668E-02  0.1270260E+07  0.6698211E+06
  0.1907143E+01 -0.2927595E+06 -0.3130671E+06 -0.1430554E-01 -0.4455566E-02  0.1256452E+07  0.6487316E+06
  0.1938095E+01 -0.2860548E+06 -0.3063398E+06 -0.2059599E-01  0.9155273E-03  0.1243994E+07  0.6238208E+06
  0.1969048E+01 -0.2802042E+06 -0.2991467E+06 -0.6788408E-02 -0.4272461E-03  0.1234098E+07  0.5990431E+06
  0.2000000E+01 -0.2750355E+06 -0.2912333E+06  0.6958008E-02 -0.6713867E-03  0.1226309E+07  0.5739282E+06
