VARIABLES="w (rad/s)"
"abs(F   1   1)" "angle(F   1   1)"
"abs(F   1   2)" "angle(F   1   2)"
"abs(F   1   3)" "angle(F   1   3)"
Zone t="Diffraction force - beta =   0.000 deg",I=    64,F=POINT
  0.5000000E-01  0.1038138E+05 -0.1570792E+01  0.8257920E+06 -0.5596714E-04  0.1199749E+05  0.1570804E+01
  0.8095238E-01  0.1694843E+05 -0.1570791E+01  0.8228581E+06 -0.1503032E-03  0.1960483E+05  0.1570809E+01
  0.1119048E+00  0.2365757E+05 -0.1570785E+01  0.8185593E+06 -0.2976954E-03  0.2742034E+05  0.1570811E+01
  0.1428571E+00  0.3059961E+05 -0.1570774E+01  0.8128971E+06 -0.5088211E-03  0.3552544E+05  0.1570818E+01
  0.1738095E+00  0.3780148E+05 -0.1570761E+01  0.8058669E+06 -0.7991326E-03  0.4400086E+05  0.1570833E+01
  0.2047619E+00  0.4542010E+05 -0.1570742E+01  0.7974999E+06 -0.1192094E-02  0.5301884E+05  0.1570851E+01
  0.2357143E+00  0.5352435E+05 -0.1570713E+01  0.7877689E+06 -0.1720848E-02  0.6264191E+05  0.1570879E+01
  0.2666667E+00  0.6215602E+05 -0.1570672E+01  0.7766953E+06 -0.2423688E-02  0.7304916E+05  0.1570919E+01
  0.2976190E+00  0.7161519E+05 -0.1570610E+01  0.7643132E+06 -0.3371310E-02  0.8447592E+05  0.1570982E+01
  0.3285715E+00  0.8191433E+05 -0.1570518E+01  0.7506270E+06 -0.4625141E-02  0.9710009E+05  0.1571077E+01
  0.3595238E+00  0.9315187E+05 -0.1570381E+01  0.7357346E+06 -0.6294793E-02  0.1108958E+06  0.1571212E+01
  0.3904762E+00  0.1056503E+06 -0.1570177E+01  0.7196820E+06 -0.8489341E-02  0.1264966E+06  0.1571417E+01
  0.4214286E+00  0.1195120E+06 -0.1569877E+01  0.7025948E+06 -0.1126619E-01  0.1438728E+06  0.1571715E+01
  0.4523810E+00  0.1347182E+06 -0.1569439E+01  0.6847036E+06 -0.1485036E-01  0.1631913E+06  0.1572155E+01
  0.4833333E+00  0.1510994E+06 -0.1568833E+01  0.6658826E+06 -0.1905578E-01  0.1842086E+06  0.1572761E+01
  0.5142857E+00  0.1692439E+06 -0.1567993E+01  0.6468104E+06 -0.2417448E-01  0.2075219E+06  0.1573601E+01
  0.5452381E+00  0.1885205E+06 -0.1566875E+01  0.6270274E+06 -0.3005079E-01  0.2326737E+06  0.1574720E+01
  0.5761905E+00  0.2087745E+06 -0.1565424E+01  0.6068728E+06 -0.3666112E-01  0.2592625E+06  0.1576174E+01
  0.6071429E+00  0.2300811E+06 -0.1563557E+01  0.5866668E+06 -0.4426986E-01  0.2878288E+06  0.1578044E+01
  0.6380953E+00  0.2524037E+06 -0.1561242E+01  0.5658653E+06 -0.5249488E-01  0.3178962E+06  0.1580359E+01
  0.6690477E+00  0.2757523E+06 -0.1558380E+01  0.5451485E+06 -0.6159751E-01  0.3494299E+06  0.1583226E+01
  0.7000000E+00  0.2998739E+06 -0.1554873E+01  0.5245481E+06 -0.7172415E-01  0.3829318E+06  0.1586744E+01
  0.7309524E+00  0.3242310E+06 -0.1550665E+01  0.5036217E+06 -0.8260867E-01  0.4169168E+06  0.1590968E+01
  0.7619048E+00  0.3489530E+06 -0.1545664E+01  0.4827620E+06 -0.9440196E-01  0.4518943E+06  0.1595990E+01
  0.7928572E+00  0.3745600E+06 -0.1539814E+01  0.4625045E+06 -0.1071698E+00  0.4882698E+06  0.1601848E+01
  0.8238096E+00  0.4006181E+06 -0.1533039E+01  0.4422448E+06 -0.1208975E+00  0.5259296E+06  0.1608629E+01
  0.8547620E+00  0.4265018E+06 -0.1525239E+01  0.4219172E+06 -0.1355394E+00  0.5638675E+06  0.1616465E+01
  0.8857143E+00  0.4521928E+06 -0.1516357E+01  0.4022521E+06 -0.1511202E+00  0.6016007E+06  0.1625414E+01
  0.9166667E+00  0.4777068E+06 -0.1506376E+01  0.3830591E+06 -0.1676633E+00  0.6398254E+06  0.1635487E+01
  0.9476191E+00  0.5021479E+06 -0.1495309E+01  0.3641542E+06 -0.1852293E+00  0.6772555E+06  0.1646668E+01
  0.9785714E+00  0.5254522E+06 -0.1483225E+01  0.3454638E+06 -0.2037594E+00  0.7132520E+06  0.1658869E+01
  0.1009524E+01  0.5479729E+06 -0.1470327E+01  0.3272081E+06 -0.2231891E+00  0.7483134E+06  0.1671796E+01
  0.1040476E+01  0.5691160E+06 -0.1456620E+01  0.3100476E+06 -0.2432833E+00  0.7807645E+06  0.1685582E+01
  0.1071429E+01  0.5885277E+06 -0.1442204E+01  0.2931931E+06 -0.2645710E+00  0.8126492E+06  0.1700184E+01
  0.1102381E+01  0.6051441E+06 -0.1427353E+01  0.2767062E+06 -0.2869010E+00  0.8401646E+06  0.1715273E+01
  0.1133333E+01  0.6191197E+06 -0.1412381E+01  0.2605436E+06 -0.3103672E+00  0.8643341E+06  0.1730529E+01
  0.1164286E+01  0.6305705E+06 -0.1397792E+01  0.2449167E+06 -0.3346157E+00  0.8848417E+06  0.1745283E+01
  0.1195238E+01  0.6390882E+06 -0.1383837E+01  0.2304655E+06 -0.3588809E+00  0.8996198E+06  0.1759375E+01
  0.1226190E+01  0.6448708E+06 -0.1370700E+01  0.2163897E+06 -0.3844068E+00  0.9122457E+06  0.1772897E+01
  0.1257143E+01  0.6467386E+06 -0.1358879E+01  0.2028025E+06 -0.4111626E+00  0.9185579E+06  0.1785120E+01
  0.1288095E+01  0.6456928E+06 -0.1348993E+01  0.1895066E+06 -0.4388485E+00  0.9201303E+06  0.1795362E+01
  0.1319048E+01  0.6417056E+06 -0.1341152E+01  0.1766171E+06 -0.4679783E+00  0.9180159E+06  0.1803653E+01
  0.1350000E+01  0.6348110E+06 -0.1335761E+01  0.1644545E+06 -0.4972354E+00  0.9106142E+06  0.1809477E+01
  0.1380952E+01  0.6253839E+06 -0.1333229E+01  0.1530990E+06 -0.5257643E+00  0.8978913E+06  0.1812120E+01
  0.1411905E+01  0.6135508E+06 -0.1333508E+01  0.1421623E+06 -0.5560901E+00  0.8832674E+06  0.1812376E+01
  0.1442857E+01  0.5999874E+06 -0.1337138E+01  0.1315983E+06 -0.5877739E+00  0.8651126E+06  0.1809200E+01
  0.1473810E+01  0.5845189E+06 -0.1344290E+01  0.1213986E+06 -0.6211378E+00  0.8433339E+06  0.1802421E+01
  0.1504762E+01  0.5676714E+06 -0.1354915E+01  0.1115877E+06 -0.6571461E+00  0.8195538E+06  0.1792332E+01
  0.1535714E+01  0.5497629E+06 -0.1369157E+01  0.1021844E+06 -0.6961576E+00  0.7942438E+06  0.1778735E+01
  0.1566667E+01  0.5309998E+06 -0.1387574E+01  0.9351348E+05 -0.7341933E+00  0.7658182E+06  0.1759981E+01
  0.1597619E+01  0.5116423E+06 -0.1410130E+01  0.8531474E+05 -0.7741473E+00  0.7358125E+06  0.1736592E+01
  0.1628572E+01  0.4921964E+06 -0.1436478E+01  0.7758391E+05 -0.8188248E+00  0.7064948E+06  0.1710026E+01
  0.1659524E+01  0.4724192E+06 -0.1467257E+01  0.7041836E+05 -0.8682718E+00  0.6762859E+06  0.1678644E+01
  0.1690476E+01  0.4525662E+06 -0.1502725E+01  0.6384327E+05 -0.9219654E+00  0.6455710E+06  0.1642020E+01
  0.1721429E+01  0.4329164E+06 -0.1543079E+01  0.5778834E+05 -0.9803596E+00  0.6150822E+06  0.1600067E+01
  0.1752381E+01  0.4137774E+06 -0.1588309E+01  0.5225417E+05 -0.1043232E+01  0.5856058E+06  0.1553207E+01
  0.1783333E+01  0.3952789E+06 -0.1638975E+01  0.4725183E+05 -0.1107361E+01  0.5570151E+06  0.1500163E+01
  0.1814286E+01  0.3777586E+06 -0.1695742E+01  0.4274590E+05 -0.1171740E+01  0.5291288E+06  0.1437987E+01
  0.1845238E+01  0.3613842E+06 -0.1758473E+01  0.3863517E+05 -0.1239529E+01  0.5032435E+06  0.1368572E+01
  0.1876190E+01  0.3465147E+06 -0.1826687E+01  0.3488943E+05 -0.1310347E+01  0.4801309E+06  0.1293592E+01
  0.1907143E+01  0.3334180E+06 -0.1900189E+01  0.3147980E+05 -0.1382760E+01  0.4601281E+06  0.1212433E+01
  0.1938095E+01  0.3222956E+06 -0.1978372E+01  0.2833923E+05 -0.1457418E+01  0.4436181E+06  0.1125921E+01
  0.1969048E+01  0.3132486E+06 -0.2059861E+01  0.2537278E+05 -0.1533144E+01  0.4307403E+06  0.1036444E+01
  0.2000000E+01  0.3062954E+06 -0.2142663E+01  0.2255051E+05 -0.1610596E+01  0.4213490E+06  0.9472504E+00
