VARIABLES="w (rad/s)"
"abs(F   1   1)" "angle(F   1   1)"
"abs(F   1   2)" "angle(F   1   2)"
"abs(F   1   3)" "angle(F   1   3)"
Zone t="Diffraction force - beta =   0.000 deg",I=    64,F=POINT
  0.5000000E-01  0.6150491E+03 -0.1570782E+01  0.1662800E+06 -0.1138040E-04  0.8707499E+01 -0.1569430E+01
  0.8095238E-01  0.1003139E+04 -0.1570792E+01  0.1660844E+06 -0.3063325E-04  0.1419965E+02 -0.1569961E+01
  0.1119048E+00  0.1401295E+04 -0.1570795E+01  0.1657966E+06 -0.6088351E-04  0.1985966E+02 -0.1570216E+01
  0.1428571E+00  0.1814732E+04 -0.1570795E+01  0.1654164E+06 -0.1045124E-03  0.2567330E+02 -0.1570352E+01
  0.1738095E+00  0.2243510E+04 -0.1570787E+01  0.1649432E+06 -0.1651409E-03  0.3187603E+02 -0.1570416E+01
  0.2047619E+00  0.2698601E+04 -0.1570801E+01  0.1643763E+06 -0.2479431E-03  0.3836491E+02 -0.1570483E+01
  0.2357143E+00  0.3183422E+04 -0.1570790E+01  0.1637145E+06 -0.3606797E-03  0.4548421E+02 -0.1570536E+01
  0.2666667E+00  0.3701530E+04 -0.1570785E+01  0.1629568E+06 -0.5129156E-03  0.5306278E+02 -0.1570570E+01
  0.2976190E+00  0.4270383E+04 -0.1570785E+01  0.1621025E+06 -0.7205360E-03  0.6138626E+02 -0.1570601E+01
  0.3285715E+00  0.4892361E+04 -0.1570783E+01  0.1611505E+06 -0.1000445E-02  0.7082278E+02 -0.1570616E+01
  0.3595238E+00  0.5574147E+04 -0.1570770E+01  0.1601011E+06 -0.1378645E-02  0.8104824E+02 -0.1570629E+01
  0.3904762E+00  0.6329869E+04 -0.1570756E+01  0.1589539E+06 -0.1885376E-02  0.9242520E+02 -0.1570633E+01
  0.4214286E+00  0.7175875E+04 -0.1570738E+01  0.1577146E+06 -0.2541054E-02  0.1055146E+03 -0.1570633E+01
  0.4523810E+00  0.8102110E+04 -0.1570712E+01  0.1563833E+06 -0.3396858E-02  0.1200092E+03 -0.1570616E+01
  0.4833333E+00  0.9112762E+04 -0.1570669E+01  0.1549652E+06 -0.4435948E-02  0.1359667E+03 -0.1570589E+01
  0.5142857E+00  0.1022037E+05 -0.1570613E+01  0.1534669E+06 -0.5717819E-02  0.1536638E+03 -0.1570542E+01
  0.5452381E+00  0.1141680E+05 -0.1570539E+01  0.1518892E+06 -0.7230313E-02  0.1738617E+03 -0.1570475E+01
  0.5761905E+00  0.1267908E+05 -0.1570439E+01  0.1502372E+06 -0.8982253E-02  0.1940467E+03 -0.1570382E+01
  0.6071429E+00  0.1400093E+05 -0.1570310E+01  0.1485160E+06 -0.1102626E-01  0.2155439E+03 -0.1570258E+01
  0.6380953E+00  0.1540913E+05 -0.1570148E+01  0.1467198E+06 -0.1332279E-01  0.2399543E+03 -0.1570103E+01
  0.6690477E+00  0.1688859E+05 -0.1569944E+01  0.1448621E+06 -0.1592659E-01  0.2656136E+03 -0.1569904E+01
  0.7000000E+00  0.1842267E+05 -0.1569689E+01  0.1429495E+06 -0.1887148E-01  0.2930964E+03 -0.1569652E+01
  0.7309524E+00  0.2000043E+05 -0.1569379E+01  0.1409728E+06 -0.2214258E-01  0.3209215E+03 -0.1569347E+01
  0.7619048E+00  0.2162675E+05 -0.1569001E+01  0.1389429E+06 -0.2577774E-01  0.3495424E+03 -0.1568970E+01
  0.7928572E+00  0.2332180E+05 -0.1568548E+01  0.1368691E+06 -0.2980044E-01  0.3810901E+03 -0.1568520E+01
  0.8238096E+00  0.2508094E+05 -0.1568006E+01  0.1347535E+06 -0.3422424E-01  0.4152410E+03 -0.1567981E+01
  0.8547620E+00  0.2689639E+05 -0.1567366E+01  0.1325976E+06 -0.3906034E-01  0.4512517E+03 -0.1567344E+01
  0.8857143E+00  0.2875196E+05 -0.1566614E+01  0.1304096E+06 -0.4432550E-01  0.4879842E+03 -0.1566594E+01
  0.9166667E+00  0.3063133E+05 -0.1565737E+01  0.1281938E+06 -0.5003396E-01  0.5246694E+03 -0.1565716E+01
  0.9476191E+00  0.3254333E+05 -0.1564722E+01  0.1259537E+06 -0.5619887E-01  0.5637167E+03 -0.1564703E+01
  0.9785714E+00  0.3451810E+05 -0.1563556E+01  0.1236904E+06 -0.6283005E-01  0.6058153E+03 -0.1563541E+01
  0.1009524E+01  0.3654505E+05 -0.1562227E+01  0.1214148E+06 -0.6994141E-01  0.6496605E+03 -0.1562216E+01
  0.1040476E+01  0.3861603E+05 -0.1560719E+01  0.1191303E+06 -0.7753976E-01  0.6952374E+03 -0.1560709E+01
  0.1071429E+01  0.4071492E+05 -0.1559014E+01  0.1168446E+06 -0.8563533E-01  0.7437065E+03 -0.1559007E+01
  0.1102381E+01  0.4284492E+05 -0.1557101E+01  0.1145521E+06 -0.9423026E-01  0.7946848E+03 -0.1557094E+01
  0.1133333E+01  0.4498669E+05 -0.1554961E+01  0.1122591E+06 -0.1033278E+00  0.8452923E+03 -0.1554953E+01
  0.1164286E+01  0.4713137E+05 -0.1552585E+01  0.1099685E+06 -0.1129387E+00  0.8956387E+03 -0.1552567E+01
  0.1195238E+01  0.4928935E+05 -0.1549960E+01  0.1076844E+06 -0.1230688E+00  0.9481993E+03 -0.1549946E+01
  0.1226190E+01  0.5147200E+05 -0.1547083E+01  0.1054127E+06 -0.1337316E+00  0.1004137E+04 -0.1547078E+01
  0.1257143E+01  0.5365539E+05 -0.1543943E+01  0.1031558E+06 -0.1450516E+00  0.1062500E+04 -0.1543961E+01
  0.1288095E+01  0.5589814E+05 -0.1540547E+01  0.1009119E+06 -0.1566457E+00  0.1125375E+04 -0.1540570E+01
  0.1319048E+01  0.5811762E+05 -0.1536872E+01  0.9868885E+05 -0.1688986E+00  0.1187512E+04 -0.1536899E+01
  0.1350000E+01  0.6032423E+05 -0.1532918E+01  0.9648833E+05 -0.1816776E+00  0.1251041E+04 -0.1532951E+01
  0.1380952E+01  0.6251026E+05 -0.1528682E+01  0.9430673E+05 -0.1949720E+00  0.1315691E+04 -0.1528715E+01
  0.1411905E+01  0.6452377E+05 -0.1524358E+01  0.9217534E+05 -0.2086921E+00  0.1371703E+04 -0.1524373E+01
  0.1442857E+01  0.6660802E+05 -0.1519591E+01  0.9004836E+05 -0.2230584E+00  0.1436808E+04 -0.1519570E+01
  0.1473810E+01  0.6864280E+05 -0.1514569E+01  0.8794315E+05 -0.2379554E+00  0.1503048E+04 -0.1514501E+01
  0.1504762E+01  0.7062898E+05 -0.1509331E+01  0.8586169E+05 -0.2533859E+00  0.1570527E+04 -0.1509267E+01
  0.1535714E+01  0.7256747E+05 -0.1503916E+01  0.8381080E+05 -0.2693683E+00  0.1638058E+04 -0.1503860E+01
  0.1566667E+01  0.7443776E+05 -0.1498348E+01  0.8179215E+05 -0.2858963E+00  0.1705222E+04 -0.1498351E+01
  0.1597619E+01  0.7623730E+05 -0.1492661E+01  0.7980665E+05 -0.3029605E+00  0.1773158E+04 -0.1492690E+01
  0.1628572E+01  0.7794477E+05 -0.1486886E+01  0.7785952E+05 -0.3205766E+00  0.1841761E+04 -0.1486886E+01
  0.1659524E+01  0.7955070E+05 -0.1481061E+01  0.7594376E+05 -0.3387222E+00  0.1910420E+04 -0.1481026E+01
  0.1690476E+01  0.8105205E+05 -0.1475239E+01  0.7405908E+05 -0.3574039E+00  0.1978835E+04 -0.1475157E+01
  0.1721429E+01  0.8243980E+05 -0.1469485E+01  0.7220445E+05 -0.3766099E+00  0.2046724E+04 -0.1469413E+01
  0.1752381E+01  0.8371161E+05 -0.1463892E+01  0.7038352E+05 -0.3963583E+00  0.2111651E+04 -0.1463825E+01
  0.1783333E+01  0.8485290E+05 -0.1458519E+01  0.6859923E+05 -0.4166435E+00  0.2174390E+04 -0.1458481E+01
  0.1814286E+01  0.8585911E+05 -0.1453430E+01  0.6685055E+05 -0.4374698E+00  0.2233431E+04 -0.1453469E+01
  0.1845238E+01  0.8673284E+05 -0.1448694E+01  0.6513598E+05 -0.4588235E+00  0.2291282E+04 -0.1448728E+01
  0.1876190E+01  0.8746320E+05 -0.1444372E+01  0.6346308E+05 -0.4807196E+00  0.2347853E+04 -0.1444338E+01
  0.1907143E+01  0.8804912E+05 -0.1440530E+01  0.6182191E+05 -0.5031476E+00  0.2402531E+04 -0.1440420E+01
  0.1938095E+01  0.8849745E+05 -0.1437271E+01  0.6021250E+05 -0.5261214E+00  0.2455699E+04 -0.1437188E+01
  0.1969048E+01  0.8880848E+05 -0.1434675E+01  0.5863490E+05 -0.5496252E+00  0.2506267E+04 -0.1434554E+01
  0.2000000E+01  0.8898238E+05 -0.1432799E+01  0.5709011E+05 -0.5736502E+00  0.2553225E+04 -0.1432694E+01
