VARIABLES="w (rad/s)"
"abs(F   1   1)" "angle(F   1   1)"
"abs(F   1   2)" "angle(F   1   2)"
"abs(F   1   3)" "angle(F   1   3)"
Zone t="Diffraction force - beta =   0.000 deg",I=    64,F=POINT
  0.5000000E-01  0.2724051E+04 -0.1570794E+01  0.3915081E+06 -0.2671616E-04  0.2203906E+04  0.1570830E+01
  0.8095238E-01  0.4446832E+04 -0.1570796E+01  0.3908194E+06 -0.7187416E-04  0.3598688E+04  0.1570792E+01
  0.1119048E+00  0.6211886E+04 -0.1570788E+01  0.3898079E+06 -0.1427297E-03  0.5011151E+04  0.1570791E+01
  0.1428571E+00  0.8025243E+04 -0.1570789E+01  0.3884725E+06 -0.2447337E-03  0.6461099E+04  0.1570794E+01
  0.1738095E+00  0.9921018E+04 -0.1570790E+01  0.3868119E+06 -0.3861280E-03  0.7959100E+04  0.1570806E+01
  0.2047619E+00  0.1190379E+05 -0.1570780E+01  0.3848203E+06 -0.5787751E-03  0.9521986E+04  0.1570804E+01
  0.2357143E+00  0.1401867E+05 -0.1570778E+01  0.3824996E+06 -0.8403146E-03  0.1116300E+05  0.1570818E+01
  0.2666667E+00  0.1628508E+05 -0.1570759E+01  0.3798376E+06 -0.1192058E-02  0.1289946E+05  0.1570824E+01
  0.2976190E+00  0.1872430E+05 -0.1570744E+01  0.3768386E+06 -0.1670380E-02  0.1476171E+05  0.1570840E+01
  0.3285715E+00  0.2140020E+05 -0.1570719E+01  0.3735021E+06 -0.2312153E-02  0.1676284E+05  0.1570876E+01
  0.3595238E+00  0.2434343E+05 -0.1570685E+01  0.3698263E+06 -0.3175923E-02  0.1892441E+05  0.1570904E+01
  0.3904762E+00  0.2755773E+05 -0.1570629E+01  0.3658089E+06 -0.4327410E-02  0.2128243E+05  0.1570961E+01
  0.4214286E+00  0.3112516E+05 -0.1570548E+01  0.3615013E+06 -0.5808977E-02  0.2382625E+05  0.1571045E+01
  0.4523810E+00  0.3505711E+05 -0.1570431E+01  0.3568932E+06 -0.7733996E-02  0.2658590E+05  0.1571161E+01
  0.4833333E+00  0.3930269E+05 -0.1570268E+01  0.3520222E+06 -0.1005408E-01  0.2955747E+05  0.1571325E+01
  0.5142857E+00  0.4388499E+05 -0.1570042E+01  0.3469076E+06 -0.1290120E-01  0.3266838E+05  0.1571552E+01
  0.5452381E+00  0.4880291E+05 -0.1569741E+01  0.3415856E+06 -0.1623587E-01  0.3592484E+05  0.1571852E+01
  0.5761905E+00  0.5401435E+05 -0.1569350E+01  0.3360754E+06 -0.2006898E-01  0.3930155E+05  0.1572243E+01
  0.6071429E+00  0.5945915E+05 -0.1568848E+01  0.3303778E+06 -0.2450638E-01  0.4277176E+05  0.1572744E+01
  0.6380953E+00  0.6508204E+05 -0.1568223E+01  0.3244877E+06 -0.2945582E-01  0.4626343E+05  0.1573368E+01
  0.6690477E+00  0.7095018E+05 -0.1567449E+01  0.3184710E+06 -0.3502206E-01  0.4973807E+05  0.1574142E+01
  0.7000000E+00  0.7703922E+05 -0.1566503E+01  0.3123582E+06 -0.4126991E-01  0.5321395E+05  0.1575092E+01
  0.7309524E+00  0.8325588E+05 -0.1565363E+01  0.3061236E+06 -0.4815399E-01  0.5666202E+05  0.1576231E+01
  0.7619048E+00  0.8959698E+05 -0.1564004E+01  0.2997816E+06 -0.5573276E-01  0.6008525E+05  0.1577590E+01
  0.7928572E+00  0.9604894E+05 -0.1562398E+01  0.2933650E+06 -0.6405068E-01  0.6338371E+05  0.1579195E+01
  0.8238096E+00  0.1026237E+06 -0.1560522E+01  0.2869122E+06 -0.7313060E-01  0.6658789E+05  0.1581073E+01
  0.8547620E+00  0.1093023E+06 -0.1558354E+01  0.2804423E+06 -0.8298838E-01  0.6963198E+05  0.1583242E+01
  0.8857143E+00  0.1160768E+06 -0.1555867E+01  0.2739729E+06 -0.9363607E-01  0.7254304E+05  0.1585733E+01
  0.9166667E+00  0.1229097E+06 -0.1553041E+01  0.2674941E+06 -0.1050784E+00  0.7529345E+05  0.1588562E+01
  0.9476191E+00  0.1297231E+06 -0.1549853E+01  0.2610288E+06 -0.1173313E+00  0.7792460E+05  0.1591750E+01
  0.9785714E+00  0.1364585E+06 -0.1546286E+01  0.2545932E+06 -0.1304161E+00  0.8029442E+05  0.1595311E+01
  0.1009524E+01  0.1431941E+06 -0.1542343E+01  0.2481924E+06 -0.1443465E+00  0.8244058E+05  0.1599251E+01
  0.1040476E+01  0.1498796E+06 -0.1538025E+01  0.2418628E+06 -0.1591451E+00  0.8425755E+05  0.1603576E+01
  0.1071429E+01  0.1565196E+06 -0.1533336E+01  0.2356177E+06 -0.1748031E+00  0.8584816E+05  0.1608280E+01
  0.1102381E+01  0.1629982E+06 -0.1528278E+01  0.2294752E+06 -0.1913401E+00  0.8717302E+05  0.1613359E+01
  0.1133333E+01  0.1692955E+06 -0.1522872E+01  0.2234313E+06 -0.2087305E+00  0.8818334E+05  0.1618784E+01
  0.1164286E+01  0.1753962E+06 -0.1517151E+01  0.2174536E+06 -0.2269525E+00  0.8892522E+05  0.1624513E+01
  0.1195238E+01  0.1811997E+06 -0.1511149E+01  0.2115639E+06 -0.2460323E+00  0.8929852E+05  0.1630496E+01
  0.1226190E+01  0.1866992E+06 -0.1504932E+01  0.2057589E+06 -0.2659623E+00  0.8934607E+05  0.1636662E+01
  0.1257143E+01  0.1918201E+06 -0.1498521E+01  0.2000610E+06 -0.2869906E+00  0.8908480E+05  0.1643027E+01
  0.1288095E+01  0.1965891E+06 -0.1492155E+01  0.1945067E+06 -0.3085422E+00  0.8837033E+05  0.1649346E+01
  0.1319048E+01  0.2009689E+06 -0.1485780E+01  0.1890646E+06 -0.3311716E+00  0.8736602E+05  0.1655703E+01
  0.1350000E+01  0.2049184E+06 -0.1479543E+01  0.1837558E+06 -0.3546746E+00  0.8601452E+05  0.1661911E+01
  0.1380952E+01  0.2083997E+06 -0.1473545E+01  0.1785624E+06 -0.3790089E+00  0.8432438E+05  0.1667864E+01
  0.1411905E+01  0.2107214E+06 -0.1469127E+01  0.1739401E+06 -0.4011476E+00  0.8237884E+05  0.1672196E+01
  0.1442857E+01  0.2132267E+06 -0.1464025E+01  0.1690009E+06 -0.4269818E+00  0.8012744E+05  0.1677230E+01
  0.1473810E+01  0.2151909E+06 -0.1459534E+01  0.1641879E+06 -0.4536769E+00  0.7754798E+05  0.1681637E+01
  0.1504762E+01  0.2166309E+06 -0.1455784E+01  0.1595008E+06 -0.4812566E+00  0.7469237E+05  0.1685301E+01
  0.1535714E+01  0.2175861E+06 -0.1452900E+01  0.1549282E+06 -0.5096910E+00  0.7165745E+05  0.1688135E+01
  0.1566667E+01  0.2180054E+06 -0.1451009E+01  0.1504863E+06 -0.5389426E+00  0.6836710E+05  0.1689896E+01
  0.1597619E+01  0.2179402E+06 -0.1450220E+01  0.1461478E+06 -0.5690328E+00  0.6492341E+05  0.1690572E+01
  0.1628572E+01  0.2173984E+06 -0.1450666E+01  0.1419418E+06 -0.5999668E+00  0.6133671E+05  0.1689938E+01
  0.1659524E+01  0.2164161E+06 -0.1452411E+01  0.1378489E+06 -0.6317614E+00  0.5768596E+05  0.1688077E+01
  0.1690476E+01  0.2150031E+06 -0.1455546E+01  0.1338865E+06 -0.6644654E+00  0.5395870E+05  0.1684828E+01
  0.1721429E+01  0.2131800E+06 -0.1460164E+01  0.1300707E+06 -0.6979823E+00  0.5013839E+05  0.1679888E+01
  0.1752381E+01  0.2110368E+06 -0.1466311E+01  0.1263442E+06 -0.7323949E+00  0.4635522E+05  0.1673621E+01
  0.1783333E+01  0.2085949E+06 -0.1474061E+01  0.1227186E+06 -0.7676322E+00  0.4258295E+05  0.1665692E+01
  0.1814286E+01  0.2058462E+06 -0.1483466E+01  0.1192187E+06 -0.8035973E+00  0.3879375E+05  0.1655900E+01
  0.1845238E+01  0.2028753E+06 -0.1494525E+01  0.1157862E+06 -0.8403730E+00  0.3509082E+05  0.1644655E+01
  0.1876190E+01  0.1996978E+06 -0.1507293E+01  0.1124481E+06 -0.8779054E+00  0.3143937E+05  0.1631437E+01
  0.1907143E+01  0.1963570E+06 -0.1521740E+01  0.1091974E+06 -0.9163480E+00  0.2789347E+05  0.1616645E+01
  0.1938095E+01  0.1928683E+06 -0.1537843E+01  0.1060682E+06 -0.9557773E+00  0.2446593E+05  0.1600646E+01
  0.1969048E+01  0.1892530E+06 -0.1555660E+01  0.1030521E+06 -0.9959398E+00  0.2111674E+05  0.1582350E+01
  0.2000000E+01  0.1855552E+06 -0.1575124E+01  0.1001278E+06 -0.1037009E+01  0.1790841E+05  0.1562945E+01
