VARIABLES="w (rad/s)"
"abs(F   1   1)" "angle(F   1   1)"
"abs(F   1   2)" "angle(F   1   2)"
"abs(F   1   3)" "angle(F   1   3)"
Zone t="Diffraction force - beta =   0.000 deg",I=    64,F=POINT
  0.5000000E-01  0.5973935E+04 -0.1570790E+01  0.3176565E+03 -0.3096363E+01  0.2601835E+05  0.1570803E+01
  0.8095238E-01  0.9766820E+04 -0.1570779E+01  0.8204254E+03 -0.3094843E+01  0.4246992E+05  0.1570813E+01
  0.1119048E+00  0.1362289E+05 -0.1570762E+01  0.1554598E+04 -0.3093161E+01  0.5919885E+05  0.1570831E+01
  0.1428571E+00  0.1761395E+05 -0.1570736E+01  0.2515079E+04 -0.3091017E+01  0.7640899E+05  0.1570857E+01
  0.1738095E+00  0.2174688E+05 -0.1570699E+01  0.3700378E+04 -0.3088414E+01  0.9428284E+05  0.1570895E+01
  0.2047619E+00  0.2608046E+05 -0.1570644E+01  0.5114551E+04 -0.3085189E+01  0.1128785E+06  0.1570949E+01
  0.2357143E+00  0.3069217E+05 -0.1570566E+01  0.6728858E+04 -0.3080956E+01  0.1326457E+06  0.1571028E+01
  0.2666667E+00  0.3560851E+05 -0.1570453E+01  0.8566959E+04 -0.3076117E+01  0.1535480E+06  0.1571143E+01
  0.2976190E+00  0.4093750E+05 -0.1570286E+01  0.1058678E+05 -0.3069805E+01  0.1761027E+06  0.1571311E+01
  0.3285715E+00  0.4670847E+05 -0.1570041E+01  0.1280999E+05 -0.3062621E+01  0.2005343E+06  0.1571557E+01
  0.3595238E+00  0.5309893E+05 -0.1569679E+01  0.1515795E+05 -0.3053688E+01  0.2273235E+06  0.1571922E+01
  0.3904762E+00  0.6005200E+05 -0.1569145E+01  0.1769177E+05 -0.3043523E+01  0.2562926E+06  0.1572461E+01
  0.4214286E+00  0.6783530E+05 -0.1568377E+01  0.2022153E+05 -0.3031999E+01  0.2884995E+06  0.1573235E+01
  0.4523810E+00  0.7626973E+05 -0.1567261E+01  0.2288027E+05 -0.3018803E+01  0.3235189E+06  0.1574356E+01
  0.4833333E+00  0.8557106E+05 -0.1565748E+01  0.2545150E+05 -0.3005847E+01  0.3612534E+06  0.1575882E+01
  0.5142857E+00  0.9555044E+05 -0.1563674E+01  0.2800012E+05 -0.2991684E+01  0.4017034E+06  0.1577971E+01
  0.5452381E+00  0.1062433E+06 -0.1560966E+01  0.3051183E+05 -0.2978187E+01  0.4448282E+06  0.1580696E+01
  0.5761905E+00  0.1176937E+06 -0.1557526E+01  0.3282532E+05 -0.2964812E+01  0.4908347E+06  0.1584152E+01
  0.6071429E+00  0.1295976E+06 -0.1553161E+01  0.3509423E+05 -0.2951262E+01  0.5376741E+06  0.1588545E+01
  0.6380953E+00  0.1420931E+06 -0.1547843E+01  0.3718869E+05 -0.2939083E+01  0.5860897E+06  0.1593900E+01
  0.6690477E+00  0.1552175E+06 -0.1541405E+01  0.3907606E+05 -0.2926775E+01  0.6367595E+06  0.1600373E+01
  0.7000000E+00  0.1684609E+06 -0.1533630E+01  0.4087107E+05 -0.2914733E+01  0.6874742E+06  0.1608178E+01
  0.7309524E+00  0.1821960E+06 -0.1524496E+01  0.4245962E+05 -0.2903528E+01  0.7391469E+06  0.1617349E+01
  0.7619048E+00  0.1965736E+06 -0.1513874E+01  0.4376761E+05 -0.2892110E+01  0.7919386E+06  0.1628028E+01
  0.7928572E+00  0.2108521E+06 -0.1501521E+01  0.4493927E+05 -0.2881127E+01  0.8433872E+06  0.1640446E+01
  0.8238096E+00  0.2254592E+06 -0.1487376E+01  0.4602952E+05 -0.2870891E+01  0.8955242E+06  0.1654642E+01
  0.8547620E+00  0.2400904E+06 -0.1471320E+01  0.4666973E+05 -0.2860330E+01  0.9462432E+06  0.1670771E+01
  0.8857143E+00  0.2549372E+06 -0.1453281E+01  0.4712581E+05 -0.2849876E+01  0.9975699E+06  0.1688836E+01
  0.9166667E+00  0.2692073E+06 -0.1433114E+01  0.4747906E+05 -0.2840144E+01  0.1045102E+07  0.1709037E+01
  0.9476191E+00  0.2835461E+06 -0.1410943E+01  0.4770045E+05 -0.2830623E+01  0.1091504E+07  0.1731243E+01
  0.9785714E+00  0.2972760E+06 -0.1386624E+01  0.4751672E+05 -0.2821331E+01  0.1133077E+07  0.1755687E+01
  0.1009524E+01  0.3108349E+06 -0.1360256E+01  0.4712221E+05 -0.2812031E+01  0.1173432E+07  0.1782130E+01
  0.1040476E+01  0.3231037E+06 -0.1331597E+01  0.4659115E+05 -0.2802897E+01  0.1208018E+07  0.1810840E+01
  0.1071429E+01  0.3342308E+06 -0.1300799E+01  0.4595827E+05 -0.2793996E+01  0.1237107E+07  0.1841679E+01
  0.1102381E+01  0.3443300E+06 -0.1268051E+01  0.4523841E+05 -0.2785343E+01  0.1261801E+07  0.1874387E+01
  0.1133333E+01  0.3529110E+06 -0.1233489E+01  0.4412134E+05 -0.2777477E+01  0.1279493E+07  0.1908925E+01
  0.1164286E+01  0.3604227E+06 -0.1197737E+01  0.4290329E+05 -0.2769647E+01  0.1292222E+07  0.1944626E+01
  0.1195238E+01  0.3657799E+06 -0.1160486E+01  0.4158405E+05 -0.2761793E+01  0.1296511E+07  0.1981817E+01
  0.1226190E+01  0.3688972E+06 -0.1122141E+01  0.4023779E+05 -0.2754276E+01  0.1291091E+07  0.2020181E+01
  0.1257143E+01  0.3703270E+06 -0.1082657E+01  0.3880464E+05 -0.2746276E+01  0.1281098E+07  0.2059450E+01
  0.1288095E+01  0.3696141E+06 -0.1043027E+01  0.3726904E+05 -0.2739977E+01  0.1261547E+07  0.2099016E+01
  0.1319048E+01  0.3670754E+06 -0.1003085E+01  0.3559509E+05 -0.2734103E+01  0.1236259E+07  0.2138814E+01
  0.1350000E+01  0.3629512E+06 -0.9635463E+00  0.3386910E+05 -0.2728353E+01  0.1206162E+07  0.2178107E+01
  0.1380952E+01  0.3564721E+06 -0.9241699E+00  0.3213898E+05 -0.2722914E+01  0.1168050E+07  0.2217285E+01
  0.1411905E+01  0.3467966E+06 -0.8853614E+00  0.3044626E+05 -0.2717548E+01  0.1120541E+07  0.2255439E+01
  0.1442857E+01  0.3369078E+06 -0.8471060E+00  0.2872750E+05 -0.2712194E+01  0.1073008E+07  0.2293341E+01
  0.1473810E+01  0.3254223E+06 -0.8100189E+00  0.2706258E+05 -0.2707086E+01  0.1020445E+07  0.2330007E+01
  0.1504762E+01  0.3127642E+06 -0.7744544E+00  0.2537613E+05 -0.2704243E+01  0.9646026E+06  0.2365311E+01
  0.1535714E+01  0.2993474E+06 -0.7403072E+00  0.2367535E+05 -0.2701452E+01  0.9084251E+06  0.2398928E+01
  0.1566667E+01  0.2849578E+06 -0.7072816E+00  0.2200208E+05 -0.2699179E+01  0.8512859E+06  0.2431353E+01
  0.1597619E+01  0.2695455E+06 -0.6755943E+00  0.2041426E+05 -0.2697100E+01  0.7918136E+06  0.2462332E+01
  0.1628572E+01  0.2533909E+06 -0.6455521E+00  0.1892966E+05 -0.2694705E+01  0.7309345E+06  0.2491600E+01
  0.1659524E+01  0.2371790E+06 -0.6168147E+00  0.1745494E+05 -0.2693768E+01  0.6725356E+06  0.2519624E+01
  0.1690476E+01  0.2208148E+06 -0.5897122E+00  0.1607121E+05 -0.2692429E+01  0.6152691E+06  0.2545863E+01
  0.1721429E+01  0.2041233E+06 -0.5643556E+00  0.1477971E+05 -0.2692648E+01  0.5576070E+06  0.2570243E+01
  0.1752381E+01  0.1876856E+06 -0.5404199E+00  0.1353602E+05 -0.2693626E+01  0.5029952E+06  0.2593210E+01
  0.1783333E+01  0.1715830E+06 -0.5179406E+00  0.1232134E+05 -0.2695771E+01  0.4516670E+06  0.2614534E+01
  0.1814286E+01  0.1553468E+06 -0.4960536E+00  0.1117403E+05 -0.2699341E+01  0.4015322E+06  0.2635266E+01
  0.1845238E+01  0.1393105E+06 -0.4756057E+00  0.1014484E+05 -0.2702214E+01  0.3530917E+06  0.2654143E+01
  0.1876190E+01  0.1234756E+06 -0.4564679E+00  0.9219087E+04 -0.2704151E+01  0.3063456E+06  0.2671358E+01
  0.1907143E+01  0.1081650E+06 -0.4381221E+00  0.8331924E+04 -0.2708713E+01  0.2630507E+06  0.2688111E+01
  0.1938095E+01  0.9334584E+05 -0.4202799E+00  0.7481263E+04 -0.2714801E+01  0.2228593E+06  0.2704500E+01
  0.1969048E+01  0.7882930E+05 -0.4039949E+00  0.6760060E+04 -0.2718822E+01  0.1841011E+06  0.2717938E+01
  0.2000000E+01  0.6485440E+05 -0.3884101E+00  0.6086903E+04 -0.2724878E+01  0.1481622E+06  0.2730577E+01
