VARIABLES="w (rad/s)"
"abs(F   1   1)" "angle(F   1   1)"
"abs(F   1   2)" "angle(F   1   2)"
"abs(F   1   3)" "angle(F   1   3)"
Zone t="Diffraction force - beta =   0.000 deg",I=    64,F=POINT
  0.5000000E-01  0.3384510E+03 -0.1570796E+01  0.9134700E+02 -0.3103452E+01  0.4318648E+01 -0.1570795E+01
  0.8095238E-01  0.5520456E+03 -0.1570795E+01  0.2378872E+03 -0.3102231E+01  0.7139737E+01 -0.1570794E+01
  0.1119048E+00  0.7693873E+03 -0.1570793E+01  0.4529128E+03 -0.3100596E+01  0.9886967E+01 -0.1570791E+01
  0.1428571E+00  0.9972030E+03 -0.1570791E+01  0.7367902E+03 -0.3098464E+01  0.1293059E+02 -0.1570788E+01
  0.1738095E+00  0.1233234E+04 -0.1570787E+01  0.1090854E+04 -0.3095738E+01  0.1586473E+02 -0.1570782E+01
  0.2047619E+00  0.1485030E+04 -0.1570781E+01  0.1516770E+04 -0.3092302E+01  0.1931559E+02 -0.1570775E+01
  0.2357143E+00  0.1746812E+04 -0.1570773E+01  0.2015966E+04 -0.3087930E+01  0.2276206E+02 -0.1570765E+01
  0.2666667E+00  0.2036074E+04 -0.1570761E+01  0.2590926E+04 -0.3082577E+01  0.2655437E+02 -0.1570750E+01
  0.2976190E+00  0.2348517E+04 -0.1570744E+01  0.3242992E+04 -0.3075811E+01  0.3105602E+02 -0.1570728E+01
  0.3285715E+00  0.2684395E+04 -0.1570718E+01  0.3975623E+04 -0.3067663E+01  0.3553912E+02 -0.1570694E+01
  0.3595238E+00  0.3059574E+04 -0.1570678E+01  0.4787338E+04 -0.3057701E+01  0.4075623E+02 -0.1570644E+01
  0.3904762E+00  0.3480505E+04 -0.1570620E+01  0.5681802E+04 -0.3045821E+01  0.4690704E+02 -0.1570571E+01
  0.4214286E+00  0.3937664E+04 -0.1570533E+01  0.6647440E+04 -0.3032369E+01  0.5375730E+02 -0.1570462E+01
  0.4523810E+00  0.4439778E+04 -0.1570405E+01  0.7694064E+04 -0.3016788E+01  0.6099606E+02 -0.1570298E+01
  0.4833333E+00  0.5004073E+04 -0.1570227E+01  0.8800543E+04 -0.3000727E+01  0.6994765E+02 -0.1570078E+01
  0.5142857E+00  0.5621537E+04 -0.1569978E+01  0.9970175E+04 -0.2983242E+01  0.8056537E+02 -0.1569778E+01
  0.5452381E+00  0.6257620E+04 -0.1569642E+01  0.1119841E+05 -0.2965580E+01  0.8891724E+02 -0.1569345E+01
  0.5761905E+00  0.6938521E+04 -0.1569201E+01  0.1247865E+05 -0.2947981E+01  0.1001967E+03 -0.1568803E+01
  0.6071429E+00  0.7685839E+04 -0.1568633E+01  0.1380702E+05 -0.2929771E+01  0.1129443E+03 -0.1568111E+01
  0.6380953E+00  0.8469537E+04 -0.1567919E+01  0.1518404E+05 -0.2912272E+01  0.1268015E+03 -0.1567248E+01
  0.6690477E+00  0.9270183E+04 -0.1567019E+01  0.1660238E+05 -0.2894707E+01  0.1407941E+03 -0.1566154E+01
  0.7000000E+00  0.1008366E+05 -0.1565897E+01  0.1805913E+05 -0.2876921E+01  0.1533586E+03 -0.1564739E+01
  0.7309524E+00  0.1094953E+05 -0.1564538E+01  0.1955475E+05 -0.2859519E+01  0.1685289E+03 -0.1563070E+01
  0.7619048E+00  0.1186499E+05 -0.1562903E+01  0.2107755E+05 -0.2842124E+01  0.1868820E+03 -0.1561140E+01
  0.7928572E+00  0.1282164E+05 -0.1560951E+01  0.2262468E+05 -0.2824766E+01  0.2067671E+03 -0.1558860E+01
  0.8238096E+00  0.1379356E+05 -0.1558625E+01  0.2419024E+05 -0.2807485E+01  0.2257160E+03 -0.1556077E+01
  0.8547620E+00  0.1475602E+05 -0.1555862E+01  0.2577120E+05 -0.2790364E+01  0.2428616E+03 -0.1552655E+01
  0.8857143E+00  0.1574047E+05 -0.1552631E+01  0.2736815E+05 -0.2773511E+01  0.2630150E+03 -0.1548780E+01
  0.9166667E+00  0.1678177E+05 -0.1548918E+01  0.2897454E+05 -0.2756916E+01  0.2858379E+03 -0.1544425E+01
  0.9476191E+00  0.1786409E+05 -0.1544667E+01  0.3057490E+05 -0.2740411E+01  0.3096782E+03 -0.1539427E+01
  0.9785714E+00  0.1897061E+05 -0.1539815E+01  0.3216652E+05 -0.2724058E+01  0.3353811E+03 -0.1533793E+01
  0.1009524E+01  0.2009152E+05 -0.1534300E+01  0.3374853E+05 -0.2707944E+01  0.3638447E+03 -0.1527550E+01
  0.1040476E+01  0.2122045E+05 -0.1528065E+01  0.3532181E+05 -0.2692200E+01  0.3927563E+03 -0.1520458E+01
  0.1071429E+01  0.2233117E+05 -0.1521017E+01  0.3687883E+05 -0.2676762E+01  0.4176273E+03 -0.1512005E+01
  0.1102381E+01  0.2343039E+05 -0.1513117E+01  0.3841752E+05 -0.2661666E+01  0.4426214E+03 -0.1502505E+01
  0.1133333E+01  0.2455451E+05 -0.1504409E+01  0.3992853E+05 -0.2646789E+01  0.4720738E+03 -0.1492423E+01
  0.1164286E+01  0.2569708E+05 -0.1494860E+01  0.4141286E+05 -0.2632237E+01  0.5053054E+03 -0.1481765E+01
  0.1195238E+01  0.2685947E+05 -0.1484457E+01  0.4286607E+05 -0.2618041E+01  0.5416489E+03 -0.1470350E+01
  0.1226190E+01  0.2801220E+05 -0.1473117E+01  0.4428309E+05 -0.2604162E+01  0.5764788E+03 -0.1457629E+01
  0.1257143E+01  0.2911072E+05 -0.1460667E+01  0.4567236E+05 -0.2590248E+01  0.6098640E+03 -0.1443490E+01
  0.1288095E+01  0.3023054E+05 -0.1447394E+01  0.4699265E+05 -0.2577286E+01  0.6461268E+03 -0.1428636E+01
  0.1319048E+01  0.3124884E+05 -0.1432844E+01  0.4827866E+05 -0.2564235E+01  0.6802177E+03 -0.1412119E+01
  0.1350000E+01  0.3220589E+05 -0.1417159E+01  0.4952421E+05 -0.2551682E+01  0.7133488E+03 -0.1394166E+01
  0.1380952E+01  0.3310404E+05 -0.1400382E+01  0.5072818E+05 -0.2539724E+01  0.7477331E+03 -0.1375364E+01
  0.1411905E+01  0.3375558E+05 -0.1382765E+01  0.5184810E+05 -0.2527857E+01  0.7639317E+03 -0.1352989E+01
  0.1442857E+01  0.3453039E+05 -0.1364143E+01  0.5294842E+05 -0.2516438E+01  0.7958285E+03 -0.1331986E+01
  0.1473810E+01  0.3522660E+05 -0.1344607E+01  0.5399277E+05 -0.2505307E+01  0.8262989E+03 -0.1309828E+01
  0.1504762E+01  0.3582718E+05 -0.1324139E+01  0.5497839E+05 -0.2494401E+01  0.8571986E+03 -0.1286795E+01
  0.1535714E+01  0.3631104E+05 -0.1302693E+01  0.5590627E+05 -0.2483825E+01  0.8873909E+03 -0.1262952E+01
  0.1566667E+01  0.3667964E+05 -0.1280367E+01  0.5677757E+05 -0.2473639E+01  0.9163806E+03 -0.1238387E+01
  0.1597619E+01  0.3692168E+05 -0.1257236E+01  0.5759083E+05 -0.2463882E+01  0.9435615E+03 -0.1213429E+01
  0.1628572E+01  0.3703541E+05 -0.1233519E+01  0.5834359E+05 -0.2454444E+01  0.9650221E+03 -0.1187020E+01
  0.1659524E+01  0.3699796E+05 -0.1209164E+01  0.5903288E+05 -0.2445279E+01  0.9813143E+03 -0.1159585E+01
  0.1690476E+01  0.3681116E+05 -0.1184284E+01  0.5965858E+05 -0.2436399E+01  0.9921879E+03 -0.1131021E+01
  0.1721429E+01  0.3647444E+05 -0.1158973E+01  0.6022003E+05 -0.2427826E+01  0.1000417E+04 -0.1101905E+01
  0.1752381E+01  0.3596864E+05 -0.1133111E+01  0.6071538E+05 -0.2419451E+01  0.1006684E+04 -0.1072826E+01
  0.1783333E+01  0.3530475E+05 -0.1106920E+01  0.6114884E+05 -0.2411475E+01  0.1008936E+04 -0.1044052E+01
  0.1814286E+01  0.3448649E+05 -0.1080632E+01  0.6151882E+05 -0.2403867E+01  0.1007532E+04 -0.1015723E+01
  0.1845238E+01  0.3350953E+05 -0.1054242E+01  0.6182330E+05 -0.2396606E+01  0.1000143E+04 -0.9871623E+00
  0.1876190E+01  0.3237851E+05 -0.1027801E+01  0.6206093E+05 -0.2389671E+01  0.9846768E+03 -0.9576515E+00
  0.1907143E+01  0.3108894E+05 -0.1001188E+01  0.6223192E+05 -0.2383007E+01  0.9630812E+03 -0.9273469E+00
  0.1938095E+01  0.2964720E+05 -0.9744053E+00  0.6233901E+05 -0.2376627E+01  0.9335037E+03 -0.8954656E+00
  0.1969048E+01  0.2806542E+05 -0.9476054E+00  0.6238043E+05 -0.2370562E+01  0.8993808E+03 -0.8642475E+00
  0.2000000E+01  0.2635133E+05 -0.9207776E+00  0.6235490E+05 -0.2364657E+01  0.8605262E+03 -0.8334555E+00
