VARIABLES="w (rad/s)"
"abs(F   1   1)" "angle(F   1   1)"
"abs(F   1   2)" "angle(F   1   2)"
"abs(F   1   3)" "angle(F   1   3)"
Zone t="Diffraction force - beta =   0.000 deg",I=    64,F=POINT
  0.5000000E-01  0.1055894E+04 -0.1570797E+01  0.2380791E+06 -0.1629451E-04  0.1787861E+02 -0.1571240E+01
  0.8095238E-01  0.1721067E+04 -0.1570797E+01  0.2377437E+06 -0.4385173E-04  0.2917683E+02 -0.1571063E+01
  0.1119048E+00  0.2401723E+04 -0.1570795E+01  0.2372506E+06 -0.8712541E-04  0.4062474E+02 -0.1570985E+01
  0.1428571E+00  0.3107322E+04 -0.1570794E+01  0.2365996E+06 -0.1494891E-03  0.5282551E+02 -0.1570947E+01
  0.1738095E+00  0.3844459E+04 -0.1570792E+01  0.2357895E+06 -0.2360705E-03  0.6531536E+02 -0.1570922E+01
  0.2047619E+00  0.4622022E+04 -0.1570790E+01  0.2348185E+06 -0.3542005E-03  0.7893037E+02 -0.1570887E+01
  0.2357143E+00  0.5446057E+04 -0.1570782E+01  0.2336853E+06 -0.5148449E-03  0.9328548E+02 -0.1570868E+01
  0.2666667E+00  0.6339940E+04 -0.1570785E+01  0.2323880E+06 -0.7314398E-03  0.1090273E+03 -0.1570858E+01
  0.2976190E+00  0.7308186E+04 -0.1570778E+01  0.2309254E+06 -0.1026457E-02  0.1265347E+03 -0.1570840E+01
  0.3285715E+00  0.8361607E+04 -0.1570768E+01  0.2292951E+06 -0.1423448E-02  0.1453697E+03 -0.1570815E+01
  0.3595238E+00  0.9531588E+04 -0.1570749E+01  0.2274994E+06 -0.1959030E-02  0.1666721E+03 -0.1570793E+01
  0.3904762E+00  0.1082834E+05 -0.1570732E+01  0.2255377E+06 -0.2675211E-02  0.1908327E+03 -0.1570772E+01
  0.4214286E+00  0.1225237E+05 -0.1570697E+01  0.2234226E+06 -0.3599719E-02  0.2178654E+03 -0.1570735E+01
  0.4523810E+00  0.1382744E+05 -0.1570649E+01  0.2211498E+06 -0.4804289E-02  0.2474093E+03 -0.1570680E+01
  0.4833333E+00  0.1556517E+05 -0.1570580E+01  0.2187427E+06 -0.6262419E-02  0.2816824E+03 -0.1570608E+01
  0.5142857E+00  0.1744942E+05 -0.1570488E+01  0.2162021E+06 -0.8057036E-02  0.3191615E+03 -0.1570514E+01
  0.5452381E+00  0.1944291E+05 -0.1570362E+01  0.2135361E+06 -0.1016800E-01  0.3571951E+03 -0.1570383E+01
  0.5761905E+00  0.2158292E+05 -0.1570197E+01  0.2107522E+06 -0.1260556E-01  0.4012029E+03 -0.1570214E+01
  0.6071429E+00  0.2386399E+05 -0.1569981E+01  0.2078640E+06 -0.1544167E-01  0.4483823E+03 -0.1569998E+01
  0.6380953E+00  0.2624958E+05 -0.1569711E+01  0.2048673E+06 -0.1861594E-01  0.4994054E+03 -0.1569723E+01
  0.6690477E+00  0.2871477E+05 -0.1569370E+01  0.2017736E+06 -0.2220173E-01  0.5514340E+03 -0.1569385E+01
  0.7000000E+00  0.3126747E+05 -0.1568948E+01  0.1985961E+06 -0.2624432E-01  0.6054802E+03 -0.1568963E+01
  0.7309524E+00  0.3393845E+05 -0.1568437E+01  0.1953339E+06 -0.3071998E-01  0.6654023E+03 -0.1568449E+01
  0.7619048E+00  0.3671978E+05 -0.1567819E+01  0.1920007E+06 -0.3567534E-01  0.7309371E+03 -0.1567829E+01
  0.7928572E+00  0.3958888E+05 -0.1567076E+01  0.1886083E+06 -0.4113611E-01  0.7990359E+03 -0.1567084E+01
  0.8238096E+00  0.4251618E+05 -0.1566192E+01  0.1851634E+06 -0.4711802E-01  0.8673594E+03 -0.1566200E+01
  0.8547620E+00  0.4547904E+05 -0.1565151E+01  0.1816733E+06 -0.5363635E-01  0.9378726E+03 -0.1565159E+01
  0.8857143E+00  0.4853782E+05 -0.1563938E+01  0.1781382E+06 -0.6070662E-01  0.1015424E+04 -0.1563944E+01
  0.9166667E+00  0.5169310E+05 -0.1562532E+01  0.1745744E+06 -0.6834560E-01  0.1096723E+04 -0.1562542E+01
  0.9476191E+00  0.5492570E+05 -0.1560917E+01  0.1709981E+06 -0.7656591E-01  0.1181466E+04 -0.1560927E+01
  0.9785714E+00  0.5821122E+05 -0.1559069E+01  0.1674174E+06 -0.8537859E-01  0.1271812E+04 -0.1559080E+01
  0.1009524E+01  0.6154809E+05 -0.1556973E+01  0.1638274E+06 -0.9478939E-01  0.1367403E+04 -0.1556982E+01
  0.1040476E+01  0.6490441E+05 -0.1554605E+01  0.1602351E+06 -0.1048035E+00  0.1461872E+04 -0.1554610E+01
  0.1071429E+01  0.6826412E+05 -0.1551948E+01  0.1566502E+06 -0.1154322E+00  0.1556626E+04 -0.1551945E+01
  0.1102381E+01  0.7165849E+05 -0.1548996E+01  0.1530764E+06 -0.1266874E+00  0.1656532E+04 -0.1548996E+01
  0.1133333E+01  0.7508846E+05 -0.1545740E+01  0.1495293E+06 -0.1385795E+00  0.1764560E+04 -0.1545756E+01
  0.1164286E+01  0.7855862E+05 -0.1542170E+01  0.1460019E+06 -0.1511047E+00  0.1878484E+04 -0.1542203E+01
  0.1195238E+01  0.8203952E+05 -0.1538276E+01  0.1425046E+06 -0.1642602E+00  0.1994874E+04 -0.1538310E+01
  0.1226190E+01  0.8550555E+05 -0.1534050E+01  0.1390434E+06 -0.1780520E+00  0.2113535E+04 -0.1534090E+01
  0.1257143E+01  0.8890574E+05 -0.1529473E+01  0.1356228E+06 -0.1926356E+00  0.2232168E+04 -0.1529516E+01
  0.1288095E+01  0.9230045E+05 -0.1524591E+01  0.1322487E+06 -0.2075526E+00  0.2356087E+04 -0.1524617E+01
  0.1319048E+01  0.9557443E+05 -0.1519367E+01  0.1289161E+06 -0.2232634E+00  0.2478601E+04 -0.1519353E+01
  0.1350000E+01  0.9876470E+05 -0.1513834E+01  0.1256203E+06 -0.2396047E+00  0.2603575E+04 -0.1513772E+01
  0.1380952E+01  0.1018750E+06 -0.1508047E+01  0.1223612E+06 -0.2565663E+00  0.2730187E+04 -0.1507987E+01
  0.1411905E+01  0.1046890E+06 -0.1502348E+01  0.1191911E+06 -0.2740117E+00  0.2839994E+04 -0.1502311E+01
  0.1442857E+01  0.1075824E+06 -0.1496210E+01  0.1160469E+06 -0.2922880E+00  0.2965956E+04 -0.1496244E+01
  0.1473810E+01  0.1103466E+06 -0.1489944E+01  0.1129604E+06 -0.3112096E+00  0.3093804E+04 -0.1489973E+01
  0.1504762E+01  0.1129365E+06 -0.1483592E+01  0.1099374E+06 -0.3307820E+00  0.3222503E+04 -0.1483572E+01
  0.1535714E+01  0.1153534E+06 -0.1477216E+01  0.1069661E+06 -0.3509919E+00  0.3351117E+04 -0.1477158E+01
  0.1566667E+01  0.1175810E+06 -0.1470890E+01  0.1040467E+06 -0.3718328E+00  0.3479158E+04 -0.1470812E+01
  0.1597619E+01  0.1196091E+06 -0.1464730E+01  0.1011832E+06 -0.3933163E+00  0.3602159E+04 -0.1464669E+01
  0.1628572E+01  0.1214199E+06 -0.1458825E+01  0.9838175E+05 -0.4154455E+00  0.3720102E+04 -0.1458787E+01
  0.1659524E+01  0.1229984E+06 -0.1453254E+01  0.9564202E+05 -0.4382214E+00  0.3830850E+04 -0.1453300E+01
  0.1690476E+01  0.1243497E+06 -0.1448110E+01  0.9296038E+05 -0.4616294E+00  0.3938947E+04 -0.1448143E+01
  0.1721429E+01  0.1254526E+06 -0.1443469E+01  0.9035019E+05 -0.4856847E+00  0.4044680E+04 -0.1443415E+01
  0.1752381E+01  0.1263107E+06 -0.1439427E+01  0.8779213E+05 -0.5103802E+00  0.4146283E+04 -0.1439327E+01
  0.1783333E+01  0.1269352E+06 -0.1436119E+01  0.8528980E+05 -0.5357247E+00  0.4244353E+04 -0.1436022E+01
  0.1814286E+01  0.1273240E+06 -0.1433633E+01  0.8284230E+05 -0.5617002E+00  0.4336327E+04 -0.1433515E+01
  0.1845238E+01  0.1274813E+06 -0.1432045E+01  0.8045130E+05 -0.5882974E+00  0.4419542E+04 -0.1431985E+01
  0.1876190E+01  0.1274094E+06 -0.1431428E+01  0.7811882E+05 -0.6155222E+00  0.4495596E+04 -0.1431384E+01
  0.1907143E+01  0.1271122E+06 -0.1431852E+01  0.7584562E+05 -0.6434157E+00  0.4561929E+04 -0.1431800E+01
  0.1938095E+01  0.1266097E+06 -0.1433402E+01  0.7362834E+05 -0.6719537E+00  0.4623793E+04 -0.1433379E+01
  0.1969048E+01  0.1259188E+06 -0.1436149E+01  0.7147263E+05 -0.7011217E+00  0.4680666E+04 -0.1436129E+01
  0.2000000E+01  0.1250433E+06 -0.1440133E+01  0.6937480E+05 -0.7309318E+00  0.4733120E+04 -0.1440147E+01
