VARIABLES="w (rad/s)"
"A   1   1" "B   1   1"
"A   1   2" "B   1   2"
"A   1   3" "B   1   3"
Zone t="Motion of body    1 in DoF   1",I=    64,F=POINT
  0.5000000E-01  0.1140868E+06  0.7017223E-02  0.2498627E-02  0.1993229E-04 -0.2125812E+06 -0.1306579E-01
  0.8095238E-01  0.1149934E+06  0.3094120E-01 -0.2850925E-02  0.1860893E-04 -0.2144648E+06 -0.5788722E-01
  0.1119048E+00  0.1156550E+06  0.8720549E-01  0.9715303E-03  0.6647810E-05 -0.2154603E+06 -0.1628482E+00
  0.1428571E+00  0.1159397E+06  0.1965174E+00 -0.4272461E-03 -0.1941866E-05 -0.2159426E+06 -0.3669061E+00
  0.1738095E+00  0.1160949E+06  0.3913469E+00 -0.1163221E-02  0.2687331E-04 -0.2161188E+06 -0.7301180E+00
  0.2047619E+00  0.1162790E+06  0.7228340E+00 -0.9743446E-02 -0.1382693E-03 -0.2164711E+06 -0.1347930E+01
  0.2357143E+00  0.1165491E+06  0.1273747E+01  0.6263039E-02  0.1718425E-03 -0.2168333E+06 -0.2372973E+01
  0.2666667E+00  0.1168582E+06  0.2176006E+01 -0.6952285E-02 -0.1288978E-03 -0.2172495E+06 -0.4049757E+01
  0.2976190E+00  0.1171089E+06  0.3654577E+01 -0.1589356E-02 -0.7767603E-04 -0.2177979E+06 -0.6799105E+01
  0.3285715E+00  0.1174371E+06  0.6057846E+01 -0.7453586E-02 -0.1149457E-03 -0.2182343E+06 -0.1125708E+02
  0.3595238E+00  0.1179428E+06  0.9972337E+01 -0.2122083E-04  0.3978610E-04 -0.2188995E+06 -0.1850306E+02
  0.3904762E+00  0.1182509E+06  0.1627775E+02  0.2403259E-02  0.2788380E-03 -0.2194507E+06 -0.3017463E+02
  0.4214286E+00  0.1188415E+06  0.2627212E+02  0.2172437E-02  0.2364665E-03 -0.2203948E+06 -0.4863358E+02
  0.4523810E+00  0.1195086E+06  0.4204223E+02 -0.2192447E-02  0.2645105E-03 -0.2213864E+06 -0.7769807E+02
  0.4833333E+00  0.1200614E+06  0.6558515E+02  0.1831055E-02  0.4040599E-03 -0.2222901E+06 -0.1210321E+03
  0.5142857E+00  0.1208227E+06  0.1007543E+03  0.4450480E-02  0.1145840E-02 -0.2235504E+06 -0.1856476E+03
  0.5452381E+00  0.1215205E+06  0.1510795E+03  0.9515088E-03  0.4115105E-03 -0.2246228E+06 -0.2778753E+03
  0.5761905E+00  0.1223752E+06  0.2213793E+03  0.3469167E-02  0.1749814E-02 -0.2258978E+06 -0.4063159E+03
  0.6071429E+00  0.1233857E+06  0.3187450E+03  0.3417968E-02  0.1312613E-02 -0.2275835E+06 -0.5839647E+03
  0.6380953E+00  0.1242647E+06  0.4485281E+03  0.2582607E-02  0.2759099E-02 -0.2290311E+06 -0.8201782E+03
  0.6690477E+00  0.1253346E+06  0.6209868E+03 -0.4789413E-02 -0.1363277E-02 -0.2307750E+06 -0.1133161E+04
  0.7000000E+00  0.1266250E+06  0.8480104E+03 -0.4599435E-02 -0.1010895E-03 -0.2327851E+06 -0.1543583E+04
  0.7309524E+00  0.1278162E+06  0.1139731E+04 -0.6680069E-03  0.6856918E-03 -0.2346170E+06 -0.2069276E+04
  0.7619048E+00  0.1291689E+06  0.1513103E+04 -0.6328582E-02 -0.1199722E-02 -0.2367945E+06 -0.2740365E+04
  0.7928572E+00  0.1307252E+06  0.1986651E+04 -0.2463401E-02 -0.3819466E-03 -0.2392715E+06 -0.3588301E+04
  0.8238096E+00  0.1321698E+06  0.2577980E+04 -0.6038247E-02 -0.2374649E-03 -0.2416678E+06 -0.4645099E+04
  0.8547620E+00  0.1338447E+06  0.3314172E+04  0.1963666E-03  0.8707047E-03 -0.2443849E+06 -0.5955338E+04
  0.8857143E+00  0.1355938E+06  0.4221685E+04 -0.4427510E-02 -0.3143311E-02 -0.2469756E+06 -0.7559810E+04
  0.9166667E+00  0.1375887E+06  0.5335212E+04 -0.2563477E-02 -0.3831863E-02 -0.2501053E+06 -0.9523241E+04
  0.9476191E+00  0.1394632E+06  0.6681423E+04 -0.1127157E-02  0.2000809E-02 -0.2530271E+06 -0.1188763E+05
  0.9785714E+00  0.1414042E+06  0.8303273E+04 -0.5613453E-03  0.1453400E-02 -0.2560807E+06 -0.1472554E+05
  0.1009524E+01  0.1434365E+06  0.1024435E+05  0.3022968E-03  0.1529694E-02 -0.2592513E+06 -0.1810655E+05
  0.1040476E+01  0.1455908E+06  0.1255555E+05  0.6745991E-03  0.4898071E-02 -0.2625657E+06 -0.2211227E+05
  0.1071429E+01  0.1478488E+06  0.1529108E+05 -0.2107747E-02 -0.1037598E-02 -0.2660362E+06 -0.2683147E+05
  0.1102381E+01  0.1499370E+06  0.1848990E+05 -0.7336083E-02 -0.6179810E-02 -0.2689748E+06 -0.3230483E+05
  0.1133333E+01  0.1521039E+06  0.2222902E+05 -0.4039091E-03 -0.4348755E-03 -0.2721449E+06 -0.3867979E+05
  0.1164286E+01  0.1541626E+06  0.2655203E+05 -0.5556820E-02 -0.2227783E-02 -0.2750665E+06 -0.4600614E+05
  0.1195238E+01  0.1561305E+06  0.3152086E+05 -0.3855428E-02 -0.5249023E-02 -0.2777401E+06 -0.5437024E+05
  0.1226190E+01  0.1580118E+06  0.3719818E+05  0.5724268E-03  0.3356934E-03 -0.2803404E+06 -0.6388817E+05
  0.1257143E+01  0.1591871E+06  0.4348107E+05 -0.4078258E-02 -0.2029419E-02 -0.2817124E+06 -0.7434954E+05
  0.1288095E+01  0.1605348E+06  0.5068733E+05 -0.2345510E-02  0.3250122E-02 -0.2832012E+06 -0.8624831E+05
  0.1319048E+01  0.1614432E+06  0.5862501E+05 -0.7403542E-03  0.2777100E-02 -0.2841572E+06 -0.9931945E+05
  0.1350000E+01  0.1617939E+06  0.6730359E+05 -0.3707320E-02 -0.3890991E-02 -0.2838406E+06 -0.1134143E+06
  0.1380952E+01  0.1617664E+06  0.7678973E+05 -0.3204346E-02 -0.6469727E-02 -0.2828275E+06 -0.1286767E+06
  0.1411905E+01  0.1609724E+06  0.8688890E+05 -0.4041906E-02 -0.4577637E-02 -0.2808504E+06 -0.1448998E+06
  0.1442857E+01  0.1595986E+06  0.9757945E+05 -0.2538096E-02 -0.1525879E-04 -0.2777518E+06 -0.1618488E+06
  0.1473810E+01  0.1573962E+06  0.1086272E+06 -0.2629738E-02  0.1770020E-02 -0.2731460E+06 -0.1790904E+06
  0.1504762E+01  0.1546025E+06  0.1200399E+06 -0.9734721E-03 -0.2716064E-02 -0.2677958E+06 -0.1968072E+06
  0.1535714E+01  0.1510985E+06  0.1315064E+06 -0.3676303E-02 -0.1922607E-02 -0.2613194E+06 -0.2143747E+06
  0.1566667E+01  0.1467615E+06  0.1427193E+06 -0.2123244E-02 -0.1922607E-02 -0.2533864E+06 -0.2311598E+06
  0.1597619E+01  0.1418777E+06  0.1536637E+06 -0.1184319E-02 -0.2807617E-02 -0.2447353E+06 -0.2473269E+06
  0.1628572E+01  0.1365398E+06  0.1641588E+06 -0.2567224E-02 -0.1190186E-02 -0.2355072E+06 -0.2625867E+06
  0.1659524E+01  0.1305765E+06  0.1737600E+06 -0.3677872E-03 -0.7324219E-03 -0.2254379E+06 -0.2762294E+06
  0.1690476E+01  0.1241941E+06  0.1823433E+06  0.1642791E-02 -0.4608154E-02 -0.2146178E+06 -0.2878076E+06
  0.1721429E+01  0.1176228E+06  0.1900175E+06 -0.5885714E-02 -0.2838135E-02 -0.2036347E+06 -0.2977330E+06
  0.1752381E+01  0.1109712E+06  0.1967116E+06 -0.3221761E-03  0.2441406E-03 -0.1928145E+06 -0.3061258E+06
  0.1783333E+01  0.1042436E+06  0.2021006E+06 -0.1523027E-02 -0.4272461E-02 -0.1819166E+06 -0.3121652E+06
  0.1814286E+01  0.9761570E+05  0.2062914E+06 -0.2211924E-02 -0.5218506E-02 -0.1712932E+06 -0.3161462E+06
  0.1845238E+01  0.9120484E+05  0.2094159E+06 -0.2522130E-02 -0.6378174E-02 -0.1611829E+06 -0.3184358E+06
  0.1876190E+01  0.8510241E+05  0.2115985E+06 -0.2334130E-02  0.1190186E-02 -0.1517329E+06 -0.3192918E+06
  0.1907143E+01  0.7921114E+05  0.2125663E+06 -0.1448156E-02 -0.7324219E-03 -0.1427751E+06 -0.3182605E+06
  0.1938095E+01  0.7364281E+05  0.2125293E+06 -0.3472031E-02 -0.1464844E-02 -0.1343699E+06 -0.3155310E+06
  0.1969048E+01  0.6841484E+05  0.2115260E+06 -0.2534029E-02  0.6408691E-03 -0.1265404E+06 -0.3111602E+06
  0.2000000E+01  0.6363330E+05  0.2099977E+06 -0.1167297E-02 -0.5004883E-02 -0.1195893E+06 -0.3062863E+06
Zone t="Motion of body    1 in DoF   2",I=    64,F=POINT
  0.5000000E-01  0.9536743E-04 -0.1692772E-04  0.4072692E+05  0.6087574E+02  0.1358032E-01 -0.2074242E-04
  0.8095238E-01 -0.4900764E-02 -0.1096725E-04  0.4029651E+05  0.1008300E+03 -0.5371991E-02 -0.2765656E-04
  0.1119048E+00  0.2897547E-02  0.3433228E-04  0.4017288E+05  0.1441509E+03 -0.6408691E-02  0.5722046E-04
  0.1428571E+00 -0.6141662E-02 -0.5245209E-05  0.4005239E+05  0.1924698E+03  0.9719849E-02 -0.3337860E-05
  0.1738095E+00  0.5706369E-03  0.1096725E-04  0.3998840E+05  0.2476197E+03 -0.6145320E-03 -0.1029968E-03
  0.2047619E+00  0.2794487E-02  0.1049042E-03  0.4002432E+05  0.3121893E+03  0.5439936E-02 -0.2069473E-03
  0.2357143E+00  0.2848307E-02 -0.5722046E-04  0.4002357E+05  0.3895549E+03  0.1294685E-03 -0.1983643E-03
  0.2666667E+00  0.2861023E-04  0.4673004E-04  0.4007909E+05  0.4823171E+03 -0.3433227E-02 -0.2307892E-03
  0.2976190E+00  0.5383301E-03 -0.1811981E-03  0.4013571E+05  0.5972576E+03 -0.3281250E-02  0.1335144E-04
  0.3285715E+00 -0.5526335E-02 -0.8964539E-04  0.4021194E+05  0.7370306E+03  0.1551089E-01  0.1716614E-04
  0.3595238E+00 -0.9124957E-03 -0.1296997E-03  0.4024696E+05  0.9095027E+03  0.8827866E-02  0.6866455E-04
  0.3904762E+00  0.3302039E-02 -0.3623962E-04  0.4033114E+05  0.1119221E+04 -0.1250476E-02 -0.3242493E-03
  0.4214286E+00 -0.6372483E-02 -0.3051758E-04  0.4026777E+05  0.1363692E+04  0.2824169E-02  0.1869202E-03
  0.4523810E+00 -0.5093223E-02 -0.8049011E-03  0.4032544E+05  0.1655215E+04  0.2765856E-02  0.1167297E-02
  0.4833333E+00 -0.3756819E-02  0.5798340E-03  0.4010068E+05  0.1965954E+04  0.7324218E-02 -0.2593994E-03
  0.5142857E+00  0.8900961E-03 -0.2365112E-03  0.3998152E+05  0.2311975E+04 -0.3085666E-02 -0.1296997E-03
  0.5452381E+00 -0.5876966E-03 -0.3051758E-04  0.3973014E+05  0.2671455E+04 -0.6716533E-03 -0.9765625E-03
  0.5761905E+00  0.1059288E-03  0.7629395E-04  0.3941445E+05  0.3036095E+04  0.1694860E-02 -0.6332397E-03
  0.6071429E+00  0.1407399E-02 -0.7324219E-03  0.3922345E+05  0.3415228E+04  0.2211627E-02 -0.1457214E-02
  0.6380953E+00  0.9326080E-03 -0.7629395E-05  0.3877100E+05  0.3782186E+04  0.7556517E-02 -0.7019043E-03
  0.6690477E+00 -0.4105211E-03 -0.4577637E-04  0.3838531E+05  0.4146742E+04 -0.4013984E-02  0.7934570E-03
  0.7000000E+00  0.2397810E-03 -0.2136230E-03  0.3811032E+05  0.4507689E+04 -0.7498604E-02 -0.1342773E-02
  0.7309524E+00  0.2922530E-03  0.1037598E-02  0.3760993E+05  0.4852775E+04  0.5678058E-02 -0.6103516E-04
  0.7619048E+00  0.3524780E-02  0.3204346E-03  0.3715734E+05  0.5183889E+04 -0.6168365E-02  0.7934570E-03
  0.7928572E+00  0.1308682E-02  0.1785278E-02  0.3679066E+05  0.5496078E+04  0.1077738E-02 -0.4089355E-02
  0.8238096E+00 -0.4630557E-03  0.1464844E-02  0.3638754E+05  0.5785249E+04  0.1022427E-01 -0.1617432E-02
  0.8547620E+00 -0.8033178E-03  0.2670288E-02  0.3588586E+05  0.6053411E+04  0.1856557E-02 -0.6256104E-03
  0.8857143E+00 -0.1946726E-02 -0.4577637E-04  0.3543432E+05  0.6292970E+04  0.6270870E-02 -0.2349854E-02
  0.9166667E+00 -0.4344593E-02 -0.1251221E-02  0.3508820E+05  0.6501685E+04  0.7990057E-03  0.2380371E-02
  0.9476191E+00 -0.6440895E-03 -0.3845215E-02  0.3471635E+05  0.6675873E+04  0.3349266E-02  0.6378174E-02
  0.9785714E+00 -0.1029133E-02  0.2746582E-03  0.3423378E+05  0.6819976E+04  0.8856781E-02 -0.5950928E-03
  0.1009524E+01  0.7557420E-03 -0.6103516E-04  0.3381159E+05  0.6931857E+04 -0.9068904E-03  0.1373291E-03
  0.1040476E+01 -0.3886277E-02 -0.1525879E-02  0.3346951E+05  0.7010827E+04  0.2874379E-02  0.1998901E-02
  0.1071429E+01  0.7832845E-03 -0.2136230E-02  0.3322263E+05  0.7059116E+04  0.5126953E-03  0.1159668E-02
  0.1102381E+01 -0.3958717E-02 -0.2258301E-02  0.3284655E+05  0.7057744E+04  0.7585233E-02  0.1510620E-02
  0.1133333E+01  0.2019546E-03 -0.2166748E-02  0.3247907E+05  0.7032812E+04 -0.5385455E-04  0.1083374E-02
  0.1164286E+01 -0.9305052E-03  0.5187988E-03  0.3216062E+05  0.6975588E+04  0.1090395E-01 -0.1373291E-02
  0.1195238E+01  0.8617264E-03 -0.1953125E-02  0.3191929E+05  0.6894759E+04  0.3727765E-02  0.2044678E-02
  0.1226190E+01 -0.1872831E-02 -0.2227783E-02  0.3176055E+05  0.6797141E+04  0.7167779E-02  0.3067017E-02
  0.1257143E+01  0.4551627E-04 -0.1251221E-02  0.3160798E+05  0.6666571E+04  0.3252896E-02 -0.4272461E-03
  0.1288095E+01 -0.1913131E-02  0.2349854E-02  0.3132486E+05  0.6472704E+04  0.7628831E-02 -0.6027222E-02
  0.1319048E+01 -0.9037527E-03  0.3784180E-02  0.3111116E+05  0.6281760E+04  0.8976795E-02 -0.9460449E-02
  0.1350000E+01 -0.1965275E-02 -0.1464844E-02  0.3094768E+05  0.6073653E+04  0.7685909E-02  0.5508423E-02
  0.1380952E+01 -0.1805725E-02 -0.3204346E-02  0.3085127E+05  0.5866866E+04  0.4684974E-02  0.2746582E-03
  0.1411905E+01 -0.2228993E-03 -0.4943848E-02  0.3081635E+05  0.5671428E+04 -0.4193208E-02  0.3967285E-02
  0.1442857E+01 -0.1866558E-02  0.1525879E-02  0.3084285E+05  0.5484016E+04  0.7106668E-02 -0.4272461E-02
  0.1473810E+01 -0.1995598E-02 -0.4425049E-02  0.3068267E+05  0.5153286E+04  0.4803930E-02  0.7293701E-02
  0.1504762E+01 -0.1777094E-02 -0.7110596E-02  0.3059802E+05  0.4873579E+04  0.3244907E-02  0.1029968E-01
  0.1535714E+01 -0.3030466E-03 -0.4211426E-02  0.3053526E+05  0.4588060E+04  0.6359011E-03  0.9613037E-03
  0.1566667E+01  0.1509646E-03 -0.1007080E-02  0.3052326E+05  0.4324652E+04  0.3116689E-03 -0.1342773E-02
  0.1597619E+01 -0.2053456E-03 -0.5187988E-03  0.3054957E+05  0.4090967E+04  0.1146115E-02  0.4806519E-02
  0.1628572E+01 -0.2061275E-03  0.2563477E-02  0.3061445E+05  0.3896686E+04  0.5022015E-02 -0.4653931E-02
  0.1659524E+01 -0.2942297E-03 -0.6713867E-03  0.3072540E+05  0.3753401E+04  0.1029804E-02 -0.6210327E-02
  0.1690476E+01 -0.2707898E-02  0.1739502E-02  0.3071781E+05  0.3412616E+04  0.9242957E-02  0.3387451E-02
  0.1721429E+01 -0.5495697E-03  0.1403809E-02  0.3072221E+05  0.3100400E+04  0.2127366E-03  0.3997803E-02
  0.1752381E+01 -0.2333600E-02 -0.5401611E-02  0.3074891E+05  0.2832936E+04  0.7174948E-02  0.9193420E-02
  0.1783333E+01 -0.8128514E-03 -0.5187988E-03  0.3079059E+05  0.2575895E+04  0.3011828E-02 -0.2128601E-02
  0.1814286E+01 -0.9167289E-03 -0.1770020E-02  0.3086042E+05  0.2370935E+04  0.2825880E-02  0.4859924E-02
  0.1845238E+01 -0.2728862E-03  0.1220703E-02  0.3094014E+05  0.2205514E+04  0.3241557E-02 -0.2243042E-02
  0.1876190E+01  0.3659786E-03 -0.6103516E-04  0.3103099E+05  0.2084137E+04  0.1691634E-02  0.1419067E-02
  0.1907143E+01 -0.2960319E-03  0.2929688E-02  0.3113696E+05  0.2022008E+04  0.4544490E-02 -0.7019043E-03
  0.1938095E+01 -0.1440775E-02 -0.5401611E-02  0.3121863E+05  0.1842964E+04  0.8439948E-02  0.3013611E-02
  0.1969048E+01 -0.1286388E-02 -0.1861572E-02  0.3127764E+05  0.1555111E+04  0.4339622E-02  0.2929688E-02
  0.2000000E+01 -0.1350403E-02 -0.1434326E-02  0.3134410E+05  0.1371108E+04  0.3662109E-02 -0.9574890E-03
Zone t="Motion of body    1 in DoF   3",I=    64,F=POINT
  0.5000000E-01 -0.2126082E+06 -0.1304202E-01  0.2365112E-02 -0.1067253E-04  0.4675164E+06  0.2429447E-01
  0.8095238E-01 -0.2143697E+06 -0.5783403E-01  0.4005432E-02 -0.5705602E-05  0.4711984E+06  0.1082984E+00
  0.1119048E+00 -0.2154073E+06 -0.1627957E+00  0.4295187E-02  0.2151984E-04  0.4725918E+06  0.3042012E+00
  0.1428571E+00 -0.2158809E+06 -0.3667444E+00 -0.8598328E-02 -0.7565797E-04  0.4732520E+06  0.6844744E+00
  0.1738095E+00 -0.2160791E+06 -0.7299432E+00  0.2216705E-02 -0.1390358E-03  0.4735680E+06  0.1361684E+01
  0.2047619E+00 -0.2163968E+06 -0.1347384E+01  0.1220260E-01  0.1019463E-03  0.4740917E+06  0.2512875E+01
  0.2357143E+00 -0.2167879E+06 -0.2372766E+01 -0.2783573E-02 -0.1242431E-03  0.4746528E+06  0.4421113E+01
  0.2666667E+00 -0.2172254E+06 -0.4051120E+01  0.2550602E-01  0.1828372E-03  0.4753248E+06  0.7540682E+01
  0.2976190E+00 -0.2177311E+06 -0.6796998E+01  0.2194336E-01  0.3519244E-03  0.4762334E+06  0.1264684E+02
  0.3285715E+00 -0.2181757E+06 -0.1125457E+02  0.2681898E-01  0.8351468E-03  0.4768612E+06  0.2091488E+02
  0.3595238E+00 -0.2188938E+06 -0.1850667E+02  0.9400828E-02  0.6200224E-03  0.4779314E+06  0.3433907E+02
  0.3904762E+00 -0.2194125E+06 -0.3017403E+02 -0.1037505E-01 -0.5708486E-03  0.4788134E+06  0.5593391E+02
  0.4214286E+00 -0.2203706E+06 -0.4863186E+02 -0.5865581E-02 -0.8653104E-03  0.4803840E+06  0.9002422E+02
  0.4523810E+00 -0.2213720E+06 -0.7771474E+02  0.1450388E-01  0.1119673E-03  0.4819091E+06  0.1436237E+03
  0.4833333E+00 -0.2222910E+06 -0.1210413E+03  0.1215441E-02 -0.8572340E-03  0.4833897E+06  0.2233706E+03
  0.5142857E+00 -0.2235351E+06 -0.1856527E+03  0.1078500E-01 -0.5657077E-03  0.4854710E+06  0.3420795E+03
  0.5452381E+00 -0.2245955E+06 -0.2778972E+03 -0.9962857E-02 -0.1340032E-02  0.4871121E+06  0.5111265E+03
  0.5761905E+00 -0.2259097E+06 -0.4064516E+03  0.7971141E-02 -0.7023811E-03  0.4892169E+06  0.7459908E+03
  0.6071429E+00 -0.2275786E+06 -0.5840876E+03 -0.3518497E-02 -0.3711939E-02  0.4920026E+06  0.1070110E+04
  0.6380953E+00 -0.2290180E+06 -0.8202052E+03 -0.1410869E-01 -0.1421452E-02  0.4943393E+06  0.1499825E+04
  0.6690477E+00 -0.2307491E+06 -0.1133105E+04  0.2310322E-01  0.2914906E-02  0.4971798E+06  0.2067668E+04
  0.7000000E+00 -0.2327720E+06 -0.1543800E+04  0.2986363E-01  0.6905079E-02  0.5003955E+06  0.2810086E+04
  0.7309524E+00 -0.2346147E+06 -0.2069822E+04  0.9310346E-02 -0.2130508E-02  0.5032628E+06  0.3757943E+04
  0.7619048E+00 -0.2368028E+06 -0.2740916E+04  0.7990836E-02  0.1535416E-02  0.5068428E+06  0.4964052E+04
  0.7928572E+00 -0.2392852E+06 -0.3589236E+04  0.1410682E-01  0.4119873E-02  0.5108080E+06  0.6482896E+04
  0.8238096E+00 -0.2416183E+06 -0.4644793E+04  0.1487335E-01  0.3604889E-02  0.5146580E+06  0.8369152E+04
  0.8547620E+00 -0.2443468E+06 -0.5954045E+04  0.1713745E-02 -0.1796722E-02  0.5190487E+06  0.1069899E+05
  0.8857143E+00 -0.2469788E+06 -0.7561233E+04  0.1584945E-01  0.1129723E-01  0.5231186E+06  0.1353995E+05
  0.9166667E+00 -0.2501151E+06 -0.9525454E+04  0.1528098E-01  0.6752014E-03  0.5280122E+06  0.1700270E+05
  0.9476191E+00 -0.2530073E+06 -0.1188967E+05  0.7278212E-02 -0.3738403E-03  0.5325798E+06  0.2115411E+05
  0.9785714E+00 -0.2560655E+06 -0.1472586E+05  0.1839965E-02  0.6980896E-03  0.5374121E+06  0.2611569E+05
  0.1009524E+01 -0.2592302E+06 -0.1810446E+05  0.1970975E-01  0.8911133E-02  0.5423390E+06  0.3199893E+05
  0.1040476E+01 -0.2625266E+06 -0.2210840E+05 -0.1396127E-01 -0.1085663E-01  0.5474090E+06  0.3893631E+05
  0.1071429E+01 -0.2659784E+06 -0.2682359E+05  0.1253255E-01  0.1838684E-02  0.5526871E+06  0.4706761E+05
  0.1102381E+01 -0.2689235E+06 -0.3230393E+05  0.8415733E-02 -0.1014709E-02  0.5567959E+06  0.5643936E+05
  0.1133333E+01 -0.2721234E+06 -0.3867860E+05  0.9990019E-02  0.6652832E-02  0.5614829E+06  0.6730242E+05
  0.1164286E+01 -0.2750503E+06 -0.4600406E+05  0.1475703E-01  0.9338379E-02  0.5655814E+06  0.7970953E+05
  0.1195238E+01 -0.2777315E+06 -0.5437379E+05  0.3135408E-01  0.1516724E-01  0.5692107E+06  0.9378916E+05
  0.1226190E+01 -0.2803159E+06 -0.6388093E+05 -0.6918898E-02 -0.9307861E-02  0.5726391E+06  0.1097153E+06
  0.1257143E+01 -0.2816532E+06 -0.7433028E+05  0.2150796E-01  0.2598572E-01  0.5739991E+06  0.1270978E+06
  0.1288095E+01 -0.2831247E+06 -0.8622429E+05  0.1805332E-01  0.1020813E-01  0.5752540E+06  0.1467138E+06
  0.1319048E+01 -0.2840515E+06 -0.9924824E+05  0.1006419E-01  0.3814697E-02  0.5758486E+06  0.1681371E+06
  0.1350000E+01 -0.2837556E+06 -0.1133511E+06  0.8002387E-02 -0.1525879E-02  0.5740518E+06  0.1910066E+06
  0.1380952E+01 -0.2827679E+06 -0.1286342E+06  0.1087268E-01 -0.1495361E-02  0.5710580E+06  0.2155515E+06
  0.1411905E+01 -0.2806937E+06 -0.1447520E+06  0.2139833E-01  0.1879883E-01  0.5665091E+06  0.2413892E+06
  0.1442857E+01 -0.2775602E+06 -0.1616545E+06  0.1108302E-01 -0.1007080E-02  0.5601958E+06  0.2681221E+06
  0.1473810E+01 -0.2729325E+06 -0.1788799E+06  0.1395625E-01  0.1052856E-01  0.5510934E+06  0.2948951E+06
  0.1504762E+01 -0.2675867E+06 -0.1965331E+06  0.7463286E-02  0.3326416E-02  0.5412626E+06  0.3222078E+06
  0.1535714E+01 -0.2611178E+06 -0.2140231E+06  0.7531454E-02  0.1312256E-01  0.5295489E+06  0.3488647E+06
  0.1566667E+01 -0.2532006E+06 -0.2308086E+06  0.8356621E-02  0.6958008E-02  0.5155866E+06  0.3738267E+06
  0.1597619E+01 -0.2445461E+06 -0.2469225E+06  0.1276008E-01  0.1477051E-01  0.5005656E+06  0.3974204E+06
  0.1628572E+01 -0.2353180E+06 -0.2620928E+06  0.1061557E-01  0.2563477E-02  0.4847812E+06  0.4192142E+06
  0.1659524E+01 -0.2252291E+06 -0.2756012E+06  0.6638558E-02 -0.4089355E-02  0.4680125E+06  0.4381117E+06
  0.1690476E+01 -0.2144002E+06 -0.2871359E+06  0.3457083E-02  0.2746582E-02  0.4498682E+06  0.4531473E+06
  0.1721429E+01 -0.2034599E+06 -0.2970765E+06  0.1148778E-01  0.1086426E-01  0.4318644E+06  0.4654058E+06
  0.1752381E+01 -0.1926934E+06 -0.3053985E+06  0.3443801E-02  0.5126953E-02  0.4145672E+06  0.4751862E+06
  0.1783333E+01 -0.1818272E+06 -0.3114056E+06  0.2387216E-02  0.1037598E-02  0.3971837E+06  0.4808858E+06
  0.1814286E+01 -0.1712197E+06 -0.3154072E+06  0.4717684E-02  0.1525879E-02  0.3806027E+06  0.4833252E+06
  0.1845238E+01 -0.1611300E+06 -0.3176639E+06  0.4402358E-02  0.1098633E-02  0.3649092E+06  0.4829730E+06
  0.1876190E+01 -0.1517087E+06 -0.3184502E+06  0.8147090E-02  0.4364014E-02  0.3504546E+06  0.4803996E+06
  0.1907143E+01 -0.1427792E+06 -0.3173627E+06  0.2300248E-02  0.4150391E-02  0.3371797E+06  0.4750631E+06
  0.1938095E+01 -0.1343808E+06 -0.3145889E+06  0.1192379E-01  0.3021240E-02  0.3247201E+06  0.4668840E+06
  0.1969048E+01 -0.1265507E+06 -0.3102669E+06  0.7799695E-02  0.3234863E-02  0.3131949E+06  0.4560997E+06
  0.2000000E+01 -0.1196498E+06 -0.3054608E+06  0.3704071E-02  0.8117676E-02  0.3034667E+06  0.4452576E+06
