VARIABLES="w (rad/s)"
"abs(F   1   1)" "angle(F   1   1)"
"abs(F   1   2)" "angle(F   1   2)"
"abs(F   1   3)" "angle(F   1   3)"
Zone t="Diffraction force - beta =   0.000 deg",I=    64,F=POINT
  0.5000000E-01  0.5240167E+04 -0.1570813E+01  0.6924361E+06 -0.4739423E-04  0.1515609E+03 -0.1570956E+01
  0.8095238E-01  0.8543238E+04 -0.1570804E+01  0.6907701E+06 -0.1274197E-03  0.2469780E+03 -0.1570898E+01
  0.1119048E+00  0.1192510E+05 -0.1570793E+01  0.6883276E+06 -0.2527817E-03  0.3447024E+03 -0.1570871E+01
  0.1428571E+00  0.1540185E+05 -0.1570790E+01  0.6851078E+06 -0.4329173E-03  0.4475276E+03 -0.1570841E+01
  0.1738095E+00  0.1905069E+05 -0.1570775E+01  0.6811055E+06 -0.6819115E-03  0.5560169E+03 -0.1570827E+01
  0.2047619E+00  0.2287219E+05 -0.1570770E+01  0.6763112E+06 -0.1020213E-02  0.6721527E+03 -0.1570802E+01
  0.2357143E+00  0.2693426E+05 -0.1570753E+01  0.6707228E+06 -0.1477971E-02  0.7957440E+03 -0.1570785E+01
  0.2666667E+00  0.3131881E+05 -0.1570731E+01  0.6643298E+06 -0.2090981E-02  0.9332585E+03 -0.1570759E+01
  0.2976190E+00  0.3602627E+05 -0.1570702E+01  0.6571334E+06 -0.2921577E-02  0.1084080E+04 -0.1570726E+01
  0.3285715E+00  0.4119002E+05 -0.1570654E+01  0.6491238E+06 -0.4030110E-02  0.1250056E+04 -0.1570673E+01
  0.3595238E+00  0.4689628E+05 -0.1570581E+01  0.6403464E+06 -0.5515652E-02  0.1443994E+04 -0.1570601E+01
  0.3904762E+00  0.5314947E+05 -0.1570477E+01  0.6307812E+06 -0.7484375E-02  0.1650637E+04 -0.1570492E+01
  0.4214286E+00  0.6001372E+05 -0.1570323E+01  0.6205701E+06 -0.1000176E-01  0.1884406E+04 -0.1570337E+01
  0.4523810E+00  0.6765198E+05 -0.1570098E+01  0.6096828E+06 -0.1325826E-01  0.2155690E+04 -0.1570111E+01
  0.4833333E+00  0.7598793E+05 -0.1569786E+01  0.5983016E+06 -0.1714603E-01  0.2459091E+04 -0.1569797E+01
  0.5142857E+00  0.8490132E+05 -0.1569355E+01  0.5864482E+06 -0.2189091E-01  0.2780538E+04 -0.1569363E+01
  0.5452381E+00  0.9443723E+05 -0.1568781E+01  0.5741696E+06 -0.2740176E-01  0.3133275E+04 -0.1568791E+01
  0.5761905E+00  0.1046256E+06 -0.1568040E+01  0.5615819E+06 -0.3368156E-01  0.3535140E+04 -0.1568046E+01
  0.6071429E+00  0.1153752E+06 -0.1567086E+01  0.5487324E+06 -0.4091216E-01  0.3972417E+04 -0.1567093E+01
  0.6380953E+00  0.1264568E+06 -0.1565901E+01  0.5355710E+06 -0.4888244E-01  0.4414615E+04 -0.1565905E+01
  0.6690477E+00  0.1378395E+06 -0.1564436E+01  0.5222299E+06 -0.5777128E-01  0.4890730E+04 -0.1564441E+01
  0.7000000E+00  0.1497361E+06 -0.1562652E+01  0.5087741E+06 -0.6767565E-01  0.5413826E+04 -0.1562660E+01
  0.7309524E+00  0.1620339E+06 -0.1560518E+01  0.4951755E+06 -0.7848497E-01  0.5964978E+04 -0.1560528E+01
  0.7619048E+00  0.1745925E+06 -0.1557983E+01  0.4815531E+06 -0.9029509E-01  0.6564992E+04 -0.1557993E+01
  0.7928572E+00  0.1873399E+06 -0.1555001E+01  0.4679250E+06 -0.1031401E+00  0.7184755E+04 -0.1555005E+01
  0.8238096E+00  0.2001164E+06 -0.1551533E+01  0.4543192E+06 -0.1170349E+00  0.7799862E+04 -0.1551528E+01
  0.8547620E+00  0.2130594E+06 -0.1547557E+01  0.4407618E+06 -0.1319923E+00  0.8464779E+04 -0.1547562E+01
  0.8857143E+00  0.2261901E+06 -0.1543056E+01  0.4273175E+06 -0.1480274E+00  0.9186584E+04 -0.1543087E+01
  0.9166667E+00  0.2394249E+06 -0.1538008E+01  0.4139921E+06 -0.1651379E+00  0.9942120E+04 -0.1538041E+01
  0.9476191E+00  0.2525695E+06 -0.1532392E+01  0.4008785E+06 -0.1833367E+00  0.1071253E+05 -0.1532435E+01
  0.9785714E+00  0.2655020E+06 -0.1526204E+01  0.3879713E+06 -0.2026188E+00  0.1150050E+05 -0.1526238E+01
  0.1009524E+01  0.2780009E+06 -0.1519452E+01  0.3752818E+06 -0.2229967E+00  0.1229608E+05 -0.1519438E+01
  0.1040476E+01  0.2900781E+06 -0.1512177E+01  0.3627759E+06 -0.2444583E+00  0.1311002E+05 -0.1512117E+01
  0.1071429E+01  0.3017529E+06 -0.1504497E+01  0.3504973E+06 -0.2670296E+00  0.1393078E+05 -0.1504441E+01
  0.1102381E+01  0.3128873E+06 -0.1496495E+01  0.3384840E+06 -0.2907218E+00  0.1475306E+05 -0.1496523E+01
  0.1133333E+01  0.3233665E+06 -0.1488266E+01  0.3267809E+06 -0.3155175E+00  0.1558533E+05 -0.1488284E+01
  0.1164286E+01  0.3329890E+06 -0.1479910E+01  0.3153507E+06 -0.3414194E+00  0.1642189E+05 -0.1479875E+01
  0.1195238E+01  0.3417083E+06 -0.1471576E+01  0.3041889E+06 -0.3684063E+00  0.1725478E+05 -0.1471491E+01
  0.1226190E+01  0.3494389E+06 -0.1463488E+01  0.2932867E+06 -0.3964873E+00  0.1805418E+05 -0.1463424E+01
  0.1257143E+01  0.3560407E+06 -0.1455762E+01  0.2827146E+06 -0.4258416E+00  0.1880033E+05 -0.1455761E+01
  0.1288095E+01  0.3615531E+06 -0.1448858E+01  0.2724219E+06 -0.4559660E+00  0.1951321E+05 -0.1448899E+01
  0.1319048E+01  0.3658359E+06 -0.1442692E+01  0.2624766E+06 -0.4873549E+00  0.2019809E+05 -0.1442632E+01
  0.1350000E+01  0.3689024E+06 -0.1437572E+01  0.2528010E+06 -0.5198433E+00  0.2085080E+05 -0.1437484E+01
  0.1380952E+01  0.3708130E+06 -0.1433771E+01  0.2433743E+06 -0.5533724E+00  0.2146795E+05 -0.1433653E+01
  0.1411905E+01  0.3709980E+06 -0.1432086E+01  0.2343833E+06 -0.5873218E+00  0.2192763E+05 -0.1432023E+01
  0.1442857E+01  0.3706210E+06 -0.1431436E+01  0.2255458E+06 -0.6229870E+00  0.2241169E+05 -0.1431383E+01
  0.1473810E+01  0.3691553E+06 -0.1432602E+01  0.2169968E+06 -0.6597747E+00  0.2282891E+05 -0.1432567E+01
  0.1504762E+01  0.3667236E+06 -0.1435762E+01  0.2087322E+06 -0.6976494E+00  0.2320530E+05 -0.1435744E+01
  0.1535714E+01  0.3633751E+06 -0.1441025E+01  0.2007644E+06 -0.7366149E+00  0.2354401E+05 -0.1441051E+01
  0.1566667E+01  0.3592178E+06 -0.1448488E+01  0.1930476E+06 -0.7767360E+00  0.2383154E+05 -0.1448479E+01
  0.1597619E+01  0.3543648E+06 -0.1458238E+01  0.1855711E+06 -0.8179396E+00  0.2407084E+05 -0.1458090E+01
  0.1628572E+01  0.3489214E+06 -0.1470316E+01  0.1783246E+06 -0.8602078E+00  0.2425285E+05 -0.1470029E+01
  0.1659524E+01  0.3429634E+06 -0.1484747E+01  0.1713238E+06 -0.9035513E+00  0.2438429E+05 -0.1484540E+01
  0.1690476E+01  0.3365702E+06 -0.1501556E+01  0.1645793E+06 -0.9481039E+00  0.2446083E+05 -0.1501669E+01
  0.1721429E+01  0.3298378E+06 -0.1520743E+01  0.1580646E+06 -0.9938070E+00  0.2451094E+05 -0.1521112E+01
  0.1752381E+01  0.3228526E+06 -0.1542290E+01  0.1518205E+06 -0.1040570E+01  0.2454343E+05 -0.1542664E+01
  0.1783333E+01  0.3156679E+06 -0.1566160E+01  0.1457748E+06 -0.1088534E+01  0.2455226E+05 -0.1566523E+01
  0.1814286E+01  0.3083488E+06 -0.1592335E+01  0.1399293E+06 -0.1137724E+01  0.2454443E+05 -0.1592513E+01
  0.1845238E+01  0.3009543E+06 -0.1620741E+01  0.1342471E+06 -0.1188157E+01  0.2450877E+05 -0.1620728E+01
  0.1876190E+01  0.2935242E+06 -0.1651331E+01  0.1287439E+06 -0.1239811E+01  0.2444776E+05 -0.1651242E+01
  0.1907143E+01  0.2860936E+06 -0.1684055E+01  0.1234021E+06 -0.1292717E+01  0.2436523E+05 -0.1684034E+01
  0.1938095E+01  0.2787158E+06 -0.1718880E+01  0.1182424E+06 -0.1346979E+01  0.2425734E+05 -0.1719305E+01
  0.1969048E+01  0.2714030E+06 -0.1755764E+01  0.1132560E+06 -0.1402642E+01  0.2413536E+05 -0.1756620E+01
  0.2000000E+01  0.2641927E+06 -0.1794617E+01  0.1084178E+06 -0.1459759E+01  0.2400987E+05 -0.1795923E+01
