VARIABLES="w (rad/s)"
"abs(F   1   1)" "angle(F   1   1)"
"abs(F   1   2)" "angle(F   1   2)"
"abs(F   1   3)" "angle(F   1   3)"
Zone t="Diffraction force - beta =   0.000 deg",I=    64,F=POINT
  0.5000000E-01  0.9249399E+03 -0.1570795E+01  0.2273501E+03 -0.3086257E+01  0.2925925E+03  0.1570797E+01
  0.8095238E-01  0.1513804E+04 -0.1570793E+01  0.5889493E+03 -0.3084218E+01  0.4821724E+03  0.1570797E+01
  0.1119048E+00  0.2116317E+04 -0.1570789E+01  0.1117946E+04 -0.3081710E+01  0.6689352E+03  0.1570798E+01
  0.1428571E+00  0.2735342E+04 -0.1570784E+01  0.1817409E+04 -0.3078633E+01  0.8575877E+03  0.1570799E+01
  0.1738095E+00  0.3379591E+04 -0.1570776E+01  0.2689150E+04 -0.3074719E+01  0.1057665E+04  0.1570801E+01
  0.2047619E+00  0.4054542E+04 -0.1570764E+01  0.3742512E+04 -0.3069909E+01  0.1257934E+04  0.1570804E+01
  0.2357143E+00  0.4774759E+04 -0.1570747E+01  0.4974775E+04 -0.3063730E+01  0.1469879E+04  0.1570807E+01
  0.2666667E+00  0.5536321E+04 -0.1570722E+01  0.6403108E+04 -0.3056317E+01  0.1702193E+04  0.1570812E+01
  0.2976190E+00  0.6370144E+04 -0.1570686E+01  0.8032708E+04 -0.3047033E+01  0.1924492E+04  0.1570820E+01
  0.3285715E+00  0.7275456E+04 -0.1570631E+01  0.9858075E+04 -0.3035789E+01  0.2175910E+04  0.1570829E+01
  0.3595238E+00  0.8262781E+04 -0.1570549E+01  0.1189344E+05 -0.3022204E+01  0.2461265E+04  0.1570843E+01
  0.3904762E+00  0.9341174E+04 -0.1570425E+01  0.1415538E+05 -0.3006233E+01  0.2751178E+04  0.1570862E+01
  0.4214286E+00  0.1055748E+05 -0.1570246E+01  0.1658898E+05 -0.2988168E+01  0.3030528E+04  0.1570884E+01
  0.4523810E+00  0.1187945E+05 -0.1569983E+01  0.1921847E+05 -0.2967242E+01  0.3359828E+04  0.1570916E+01
  0.4833333E+00  0.1330302E+05 -0.1569617E+01  0.2201955E+05 -0.2946134E+01  0.3713458E+04  0.1570949E+01
  0.5142857E+00  0.1483007E+05 -0.1569110E+01  0.2496954E+05 -0.2923194E+01  0.4073977E+04  0.1570984E+01
  0.5452381E+00  0.1648691E+05 -0.1568435E+01  0.2804407E+05 -0.2900098E+01  0.4419217E+04  0.1571008E+01
  0.5761905E+00  0.1823991E+05 -0.1567560E+01  0.3123418E+05 -0.2877281E+01  0.4782295E+04  0.1571013E+01
  0.6071429E+00  0.2003350E+05 -0.1566426E+01  0.3454974E+05 -0.2854030E+01  0.5181829E+04  0.1570994E+01
  0.6380953E+00  0.2189548E+05 -0.1565012E+01  0.3799930E+05 -0.2832166E+01  0.5545053E+04  0.1570906E+01
  0.6690477E+00  0.2384841E+05 -0.1563267E+01  0.4151548E+05 -0.2810209E+01  0.5866856E+04  0.1570712E+01
  0.7000000E+00  0.2585590E+05 -0.1561127E+01  0.4508211E+05 -0.2787855E+01  0.6177754E+04  0.1570374E+01
  0.7309524E+00  0.2790899E+05 -0.1558551E+01  0.4875031E+05 -0.2766483E+01  0.6487407E+04  0.1569840E+01
  0.7619048E+00  0.2997641E+05 -0.1555466E+01  0.5250093E+05 -0.2745694E+01  0.6799186E+04  0.1569045E+01
  0.7928572E+00  0.3204440E+05 -0.1551806E+01  0.5629283E+05 -0.2725087E+01  0.7079068E+04  0.1567876E+01
  0.8238096E+00  0.3416119E+05 -0.1547536E+01  0.6011232E+05 -0.2704736E+01  0.7299642E+04  0.1566162E+01
  0.8547620E+00  0.3630698E+05 -0.1542599E+01  0.6394454E+05 -0.2684673E+01  0.7448131E+04  0.1563680E+01
  0.8857143E+00  0.3846725E+05 -0.1536936E+01  0.6777438E+05 -0.2664955E+01  0.7585380E+04  0.1560328E+01
  0.9166667E+00  0.4058424E+05 -0.1530458E+01  0.7161106E+05 -0.2645820E+01  0.7720504E+04  0.1555919E+01
  0.9476191E+00  0.4265879E+05 -0.1523118E+01  0.7544639E+05 -0.2627347E+01  0.7855469E+04  0.1550241E+01
  0.9785714E+00  0.4466805E+05 -0.1514867E+01  0.7926889E+05 -0.2609508E+01  0.7923409E+04  0.1542696E+01
  0.1009524E+01  0.4662802E+05 -0.1505709E+01  0.8305280E+05 -0.2592095E+01  0.7930923E+04  0.1532858E+01
  0.1040476E+01  0.4852526E+05 -0.1495624E+01  0.8677844E+05 -0.2575016E+01  0.7912605E+04  0.1520476E+01
  0.1071429E+01  0.5031783E+05 -0.1484567E+01  0.9042816E+05 -0.2558161E+01  0.7832441E+04  0.1504550E+01
  0.1102381E+01  0.5202562E+05 -0.1472587E+01  0.9401015E+05 -0.2541848E+01  0.7755169E+04  0.1485128E+01
  0.1133333E+01  0.5357110E+05 -0.1459606E+01  0.9751465E+05 -0.2526127E+01  0.7652522E+04  0.1461127E+01
  0.1164286E+01  0.5494669E+05 -0.1445663E+01  0.1009510E+06 -0.2511235E+01  0.7566741E+04  0.1432661E+01
  0.1195238E+01  0.5610535E+05 -0.1430726E+01  0.1043006E+06 -0.2497014E+01  0.7547449E+04  0.1400919E+01
  0.1226190E+01  0.5701091E+05 -0.1414841E+01  0.1075570E+06 -0.2483395E+01  0.7506503E+04  0.1363615E+01
  0.1257143E+01  0.5767860E+05 -0.1398029E+01  0.1107557E+06 -0.2470126E+01  0.7523605E+04  0.1323557E+01
  0.1288095E+01  0.5810909E+05 -0.1380877E+01  0.1137501E+06 -0.2457725E+01  0.7527614E+04  0.1278998E+01
  0.1319048E+01  0.5825534E+05 -0.1363000E+01  0.1166669E+06 -0.2445629E+01  0.7592270E+04  0.1233274E+01
  0.1350000E+01  0.5810280E+05 -0.1344684E+01  0.1194477E+06 -0.2433922E+01  0.7737195E+04  0.1189396E+01
  0.1380952E+01  0.5763468E+05 -0.1326018E+01  0.1220906E+06 -0.2422819E+01  0.7994418E+04  0.1151814E+01
  0.1411905E+01  0.5626505E+05 -0.1308833E+01  0.1234632E+06 -0.2409388E+01  0.8558904E+04  0.1142473E+01
  0.1442857E+01  0.5515511E+05 -0.1290033E+01  0.1257979E+06 -0.2399121E+01  0.8932582E+04  0.1117245E+01
  0.1473810E+01  0.5370499E+05 -0.1271495E+01  0.1279852E+06 -0.2389386E+01  0.9370279E+04  0.1099977E+01
  0.1504762E+01  0.5189718E+05 -0.1253331E+01  0.1300180E+06 -0.2380099E+01  0.9870304E+04  0.1091590E+01
  0.1535714E+01  0.4975357E+05 -0.1235957E+01  0.1318895E+06 -0.2371421E+01  0.1044348E+05  0.1093443E+01
  0.1566667E+01  0.4727069E+05 -0.1219643E+01  0.1335946E+06 -0.2363157E+01  0.1108823E+05  0.1105252E+01
  0.1597619E+01  0.4445602E+05 -0.1204642E+01  0.1351404E+06 -0.2355285E+01  0.1182839E+05  0.1127850E+01
  0.1628572E+01  0.4130494E+05 -0.1191448E+01  0.1365064E+06 -0.2347696E+01  0.1260481E+05  0.1156804E+01
  0.1659524E+01  0.3786957E+05 -0.1180945E+01  0.1377033E+06 -0.2340687E+01  0.1347039E+05  0.1194229E+01
  0.1690476E+01  0.3416149E+05 -0.1174145E+01  0.1387240E+06 -0.2334115E+01  0.1441245E+05  0.1237764E+01
  0.1721429E+01  0.3018777E+05 -0.1172347E+01  0.1395616E+06 -0.2327880E+01  0.1542986E+05  0.1286033E+01
  0.1752381E+01  0.2599525E+05 -0.1178405E+01  0.1402098E+06 -0.2322203E+01  0.1654461E+05  0.1338521E+01
  0.1783333E+01  0.2160824E+05 -0.1197227E+01  0.1406615E+06 -0.2316981E+01  0.1773830E+05  0.1393398E+01
  0.1814286E+01  0.1708664E+05 -0.1239144E+01  0.1409217E+06 -0.2312243E+01  0.1903398E+05  0.1450191E+01
  0.1845238E+01  0.1251696E+05 -0.1329198E+01  0.1409915E+06 -0.2307976E+01  0.2045781E+05  0.1508119E+01
  0.1876190E+01  0.8120808E+04 -0.1547215E+01  0.1408572E+06 -0.2303987E+01  0.2197787E+05  0.1565615E+01
  0.1907143E+01  0.4971875E+04 -0.2174490E+01  0.1405311E+06 -0.2300554E+01  0.2363232E+05  0.1622661E+01
  0.1938095E+01  0.6030024E+04 -0.3126218E+01  0.1400122E+06 -0.2297627E+01  0.2540170E+05  0.1678302E+01
  0.1969048E+01  0.1017120E+05  0.2751037E+01  0.1392978E+06 -0.2295058E+01  0.2728734E+05  0.1732235E+01
  0.2000000E+01  0.1508515E+05  0.2599591E+01  0.1383923E+06 -0.2292772E+01  0.2929979E+05  0.1784159E+01
