VARIABLES="w (rad/s)"
"abs(F   1   1)" "angle(F   1   1)"
"abs(F   1   2)" "angle(F   1   2)"
"abs(F   1   3)" "angle(F   1   3)"
Zone t="Diffraction force - beta =   0.000 deg",I=    64,F=POINT
  0.5000000E-01  0.3374853E+04 -0.1570795E+01  0.2201620E+06 -0.1521177E-04  0.6069331E+04  0.1570799E+01
  0.8095238E-01  0.5520060E+04 -0.1570794E+01  0.2196341E+06 -0.4089756E-04  0.9931400E+04  0.1570807E+01
  0.1119048E+00  0.7709423E+04 -0.1570797E+01  0.2188576E+06 -0.8113148E-04  0.1387290E+05  0.1570803E+01
  0.1428571E+00  0.9980881E+04 -0.1570788E+01  0.2178341E+06 -0.1389754E-03  0.1795081E+05  0.1570799E+01
  0.1738095E+00  0.1235419E+05 -0.1570783E+01  0.2165631E+06 -0.2188924E-03  0.2220154E+05  0.1570807E+01
  0.2047619E+00  0.1483962E+05 -0.1570779E+01  0.2150429E+06 -0.3275445E-03  0.2665684E+05  0.1570810E+01
  0.2357143E+00  0.1750973E+05 -0.1570771E+01  0.2132832E+06 -0.4746084E-03  0.3141659E+05  0.1570818E+01
  0.2666667E+00  0.2036207E+05 -0.1570756E+01  0.2112734E+06 -0.6715166E-03  0.3651572E+05  0.1570839E+01
  0.2976190E+00  0.2346100E+05 -0.1570735E+01  0.2090293E+06 -0.9387000E-03  0.4204864E+05  0.1570859E+01
  0.3285715E+00  0.2687972E+05 -0.1570704E+01  0.2065390E+06 -0.1295279E-02  0.4810356E+05  0.1570887E+01
  0.3595238E+00  0.3063038E+05 -0.1570657E+01  0.2038326E+06 -0.1773947E-02  0.5475629E+05  0.1570936E+01
  0.3904762E+00  0.3476580E+05 -0.1570588E+01  0.2008827E+06 -0.2408387E-02  0.6207476E+05  0.1571006E+01
  0.4214286E+00  0.3939479E+05 -0.1570485E+01  0.1977586E+06 -0.3221599E-02  0.7027419E+05  0.1571107E+01
  0.4523810E+00  0.4447009E+05 -0.1570334E+01  0.1944116E+06 -0.4276399E-02  0.7919588E+05  0.1571258E+01
  0.4833333E+00  0.5007734E+05 -0.1570125E+01  0.1909166E+06 -0.5536233E-02  0.8904725E+05  0.1571469E+01
  0.5142857E+00  0.5611561E+05 -0.1569829E+01  0.1872564E+06 -0.7079339E-02  0.9965155E+05  0.1571765E+01
  0.5452381E+00  0.6266304E+05 -0.1569430E+01  0.1834338E+06 -0.8874001E-02  0.1110850E+06  0.1572163E+01
  0.5761905E+00  0.6964482E+05 -0.1568908E+01  0.1795215E+06 -0.1092453E-01  0.1232159E+06  0.1572685E+01
  0.6071429E+00  0.7700230E+05 -0.1568226E+01  0.1754548E+06 -0.1329808E-01  0.1359987E+06  0.1573367E+01
  0.6380953E+00  0.8483272E+05 -0.1567365E+01  0.1712967E+06 -0.1591440E-01  0.1494963E+06  0.1574227E+01
  0.6690477E+00  0.9294202E+05 -0.1566284E+01  0.1670660E+06 -0.1884853E-01  0.1635167E+06  0.1575309E+01
  0.7000000E+00  0.1014399E+06 -0.1564935E+01  0.1627189E+06 -0.2213330E-01  0.1781166E+06  0.1576658E+01
  0.7309524E+00  0.1104041E+06 -0.1563284E+01  0.1583118E+06 -0.2572017E-01  0.1932774E+06  0.1578308E+01
  0.7619048E+00  0.1196743E+06 -0.1561273E+01  0.1538869E+06 -0.2966945E-01  0.2090576E+06  0.1580319E+01
  0.7928572E+00  0.1292095E+06 -0.1558848E+01  0.1493932E+06 -0.3398937E-01  0.2251766E+06  0.1582744E+01
  0.8238096E+00  0.1391286E+06 -0.1555948E+01  0.1448133E+06 -0.3867875E-01  0.2418246E+06  0.1585645E+01
  0.8547620E+00  0.1495756E+06 -0.1552506E+01  0.1403159E+06 -0.4375191E-01  0.2593335E+06  0.1589086E+01
  0.8857143E+00  0.1602270E+06 -0.1548448E+01  0.1357985E+06 -0.4922272E-01  0.2769938E+06  0.1593145E+01
  0.9166667E+00  0.1712579E+06 -0.1543693E+01  0.1312441E+06 -0.5510876E-01  0.2951351E+06  0.1597899E+01
  0.9476191E+00  0.1826067E+06 -0.1538163E+01  0.1266582E+06 -0.6140728E-01  0.3136692E+06  0.1603430E+01
  0.9785714E+00  0.1944930E+06 -0.1531769E+01  0.1221920E+06 -0.6811185E-01  0.3329762E+06  0.1609823E+01
  0.1009524E+01  0.2065715E+06 -0.1524424E+01  0.1177607E+06 -0.7527746E-01  0.3525721E+06  0.1617169E+01
  0.1040476E+01  0.2187965E+06 -0.1516037E+01  0.1133524E+06 -0.8289136E-01  0.3722055E+06  0.1625556E+01
  0.1071429E+01  0.2314667E+06 -0.1506504E+01  0.1089530E+06 -0.9101209E-01  0.3925128E+06  0.1635090E+01
  0.1102381E+01  0.2443680E+06 -0.1495730E+01  0.1045590E+06 -0.9960493E-01  0.4126959E+06  0.1645862E+01
  0.1133333E+01  0.2578218E+06 -0.1483595E+01  0.1003902E+06 -0.1085600E+00  0.4336231E+06  0.1657996E+01
  0.1164286E+01  0.2712432E+06 -0.1470021E+01  0.9625216E+05 -0.1180810E+00  0.4544513E+06  0.1671571E+01
  0.1195238E+01  0.2845709E+06 -0.1454941E+01  0.9217587E+05 -0.1281301E+00  0.4747427E+06  0.1686649E+01
  0.1226190E+01  0.2980586E+06 -0.1438254E+01  0.8814740E+05 -0.1388570E+00  0.4952822E+06  0.1703338E+01
  0.1257143E+01  0.3109368E+06 -0.1420154E+01  0.8417058E+05 -0.1502795E+00  0.5144493E+06  0.1721437E+01
  0.1288095E+01  0.3246525E+06 -0.1400051E+01  0.8032559E+05 -0.1619818E+00  0.5345216E+06  0.1741535E+01
  0.1319048E+01  0.3377905E+06 -0.1378394E+01  0.7666766E+05 -0.1742212E+00  0.5538996E+06  0.1763196E+01
  0.1350000E+01  0.3502910E+06 -0.1355165E+01  0.7307943E+05 -0.1871621E+00  0.5718166E+06  0.1786424E+01
  0.1380952E+01  0.3619760E+06 -0.1330342E+01  0.6957510E+05 -0.2008059E+00  0.5878674E+06  0.1811239E+01
  0.1411905E+01  0.3725074E+06 -0.1303867E+01  0.6616163E+05 -0.2153110E+00  0.6025112E+06  0.1837719E+01
  0.1442857E+01  0.3826191E+06 -0.1276225E+01  0.6282103E+05 -0.2307090E+00  0.6154740E+06  0.1865356E+01
  0.1473810E+01  0.3916509E+06 -0.1247529E+01  0.5956870E+05 -0.2469839E+00  0.6263793E+06  0.1894035E+01
  0.1504762E+01  0.3997393E+06 -0.1217821E+01  0.5656827E+05 -0.2630434E+00  0.6358481E+06  0.1923734E+01
  0.1535714E+01  0.4060758E+06 -0.1187621E+01  0.5366258E+05 -0.2801170E+00  0.6425019E+06  0.1953949E+01
  0.1566667E+01  0.4106692E+06 -0.1157398E+01  0.5085570E+05 -0.2981672E+00  0.6461072E+06  0.1984169E+01
  0.1597619E+01  0.4134853E+06 -0.1127413E+01  0.4815782E+05 -0.3171653E+00  0.6464944E+06  0.2014127E+01
  0.1628572E+01  0.4148356E+06 -0.1097796E+01  0.4556740E+05 -0.3372589E+00  0.6449383E+06  0.2043768E+01
  0.1659524E+01  0.4145733E+06 -0.1069203E+01  0.4306980E+05 -0.3585959E+00  0.6406776E+06  0.2072357E+01
  0.1690476E+01  0.4127905E+06 -0.1041893E+01  0.4066018E+05 -0.3813464E+00  0.6337200E+06  0.2099618E+01
  0.1721429E+01  0.4097989E+06 -0.1015925E+01  0.3844203E+05 -0.4033647E+00  0.6250909E+06  0.2125545E+01
  0.1752381E+01  0.4057660E+06 -0.9913355E+00  0.3637105E+05 -0.4253618E+00  0.6149512E+06  0.2150145E+01
  0.1783333E+01  0.4001585E+06 -0.9689169E+00  0.3439130E+05 -0.4484466E+00  0.6023812E+06  0.2172577E+01
  0.1814286E+01  0.3934571E+06 -0.9487875E+00  0.3250807E+05 -0.4724912E+00  0.5880804E+06  0.2192657E+01
  0.1845238E+01  0.3858805E+06 -0.9310518E+00  0.3073708E+05 -0.4969568E+00  0.5723849E+06  0.2210306E+01
  0.1876190E+01  0.3776649E+06 -0.9154523E+00  0.2906580E+05 -0.5218443E+00  0.5562129E+06  0.2225947E+01
  0.1907143E+01  0.3689492E+06 -0.9023308E+00  0.2747726E+05 -0.5474890E+00  0.5394420E+06  0.2239108E+01
  0.1938095E+01  0.3597800E+06 -0.8918400E+00  0.2596606E+05 -0.5738748E+00  0.5217759E+06  0.2249434E+01
  0.1969048E+01  0.3504317E+06 -0.8836192E+00  0.2454767E+05 -0.5997347E+00  0.5041256E+06  0.2257516E+01
  0.2000000E+01  0.3410744E+06 -0.8774585E+00  0.2324640E+05 -0.6219221E+00  0.4868535E+06  0.2263641E+01
