VARIABLES="w (rad/s)"
"A   1   1" "B   1   1"
"A   1   2" "B   1   2"
"A   1   3" "B   1   3"
Zone t="Motion of body    1 in DoF   1",I=    64,F=POINT
  0.5000000E-01  0.1239093E+06  0.7638837E-02  0.3051758E-02  0.2052823E-04 -0.2218568E+06 -0.1369461E-01
  0.8095238E-01  0.1247821E+06  0.3370656E-01  0.6502937E-02  0.2278649E-04 -0.2236422E+06 -0.6072324E-01
  0.1119048E+00  0.1250236E+06  0.9487628E-01  0.3289568E-02 -0.5730253E-06 -0.2242279E+06 -0.1706982E+00
  0.1428571E+00  0.1254040E+06  0.2140586E+00  0.7196426E-02  0.8668529E-04 -0.2248120E+06 -0.3850070E+00
  0.1738095E+00  0.1257639E+06  0.4267664E+00  0.5289365E-02  0.1058207E-03 -0.2252812E+06 -0.7667170E+00
  0.2047619E+00  0.1258553E+06  0.7881028E+00  0.1466174E-01  0.2050658E-03 -0.2254410E+06 -0.1415686E+01
  0.2357143E+00  0.1262958E+06  0.1390640E+01  0.2799756E-02  0.5532429E-04 -0.2259645E+06 -0.2495005E+01
  0.2666667E+00  0.1265229E+06  0.2375516E+01 -0.4005432E-03 -0.7527322E-04 -0.2263849E+06 -0.4259763E+01
  0.2976190E+00  0.1268158E+06  0.3991676E+01  0.2050781E-03  0.7331558E-04 -0.2269225E+06 -0.7154053E+01
  0.3285715E+00  0.1273589E+06  0.6625118E+01  0.1718272E-02 -0.8698553E-06 -0.2275776E+06 -0.1185659E+02
  0.3595238E+00  0.1277928E+06  0.1090704E+02  0.4753466E-02  0.1918785E-03 -0.2282253E+06 -0.1949843E+02
  0.3904762E+00  0.1281747E+06  0.1781872E+02  0.6643155E-03  0.7233024E-04 -0.2287649E+06 -0.3181557E+02
  0.4214286E+00  0.1288999E+06  0.2879304E+02  0.7132837E-02  0.4179031E-03 -0.2300395E+06 -0.5136177E+02
  0.4523810E+00  0.1294885E+06  0.4608764E+02  0.2765856E-02  0.3658831E-03 -0.2308185E+06 -0.8207636E+02
  0.4833333E+00  0.1303337E+06  0.7203907E+02 -0.1247011E-02  0.4571676E-04 -0.2321348E+06 -0.1280947E+03
  0.5142857E+00  0.1310116E+06  0.1107009E+03 -0.5637275E-03  0.2580881E-04 -0.2332488E+06 -0.1965803E+03
  0.5452381E+00  0.1319458E+06  0.1662850E+03  0.8647536E-02  0.1220703E-02 -0.2346763E+06 -0.2947736E+03
  0.5761905E+00  0.1329357E+06  0.2439910E+03  0.4025294E-02  0.6778240E-03 -0.2361318E+06 -0.4316571E+03
  0.6071429E+00  0.1339015E+06  0.3515211E+03 -0.2236759E-02 -0.7293224E-03 -0.2376796E+06 -0.6208422E+03
  0.6380953E+00  0.1351855E+06  0.4959853E+03  0.5739126E-03 -0.1056314E-02 -0.2396064E+06 -0.8740413E+03
  0.6690477E+00  0.1363106E+06  0.6874531E+03  0.1824538E-02 -0.2913475E-03 -0.2414952E+06 -0.1209450E+04
  0.7000000E+00  0.1375991E+06  0.9395264E+03  0.6997244E-02  0.2803802E-02 -0.2435781E+06 -0.1649698E+04
  0.7309524E+00  0.1392069E+06  0.1266369E+04 -0.3110407E-02 -0.2792358E-02 -0.2458316E+06 -0.2216945E+04
  0.7619048E+00  0.1408094E+06  0.1684900E+04 -0.2923965E-02 -0.3533363E-03 -0.2484269E+06 -0.2943330E+04
  0.7928572E+00  0.1423519E+06  0.2214402E+04 -0.1020002E-02 -0.2993584E-02 -0.2508487E+06 -0.3859114E+04
  0.8238096E+00  0.1440700E+06  0.2880240E+04  0.1685523E-02  0.2250671E-02 -0.2534865E+06 -0.5006275E+04
  0.8547620E+00  0.1461868E+06  0.3713742E+04  0.2052923E-02  0.4110336E-03 -0.2568738E+06 -0.6438891E+04
  0.8857143E+00  0.1481660E+06  0.4740872E+04 -0.7717994E-02 -0.4983902E-02 -0.2598815E+06 -0.8195838E+04
  0.9166667E+00  0.1502946E+06  0.6002413E+04  0.2962979E-02  0.6904602E-03 -0.2630822E+06 -0.1034421E+05
  0.9476191E+00  0.1524901E+06  0.7538013E+04  0.4573036E-02  0.2473831E-02 -0.2663515E+06 -0.1294828E+05
  0.9785714E+00  0.1550328E+06  0.9404984E+04 -0.2744355E-02 -0.3383636E-02 -0.2701827E+06 -0.1610147E+05
  0.1009524E+01  0.1574801E+06  0.1164093E+05  0.5441342E-03  0.1220703E-02 -0.2739718E+06 -0.1986852E+05
  0.1040476E+01  0.1598002E+06  0.1429747E+05 -0.4106255E-03  0.6332397E-03 -0.2774530E+06 -0.2432215E+05
  0.1071429E+01  0.1623445E+06  0.1745878E+05  0.3503418E-02 -0.8811951E-03 -0.2813847E+06 -0.2960618E+05
  0.1102381E+01  0.1648424E+06  0.2117959E+05 -0.5785816E-02 -0.3005981E-02 -0.2848481E+06 -0.3576833E+05
  0.1133333E+01  0.1676337E+06  0.2557255E+05  0.6543328E-02  0.4135132E-02 -0.2887937E+06 -0.4300853E+05
  0.1164286E+01  0.1701329E+06  0.3065910E+05 -0.1887222E-02  0.1823425E-02 -0.2923798E+06 -0.5136687E+05
  0.1195238E+01  0.1722945E+06  0.3649652E+05 -0.1838350E-02 -0.6378174E-02 -0.2952190E+06 -0.6088473E+05
  0.1226190E+01  0.1743794E+06  0.4319818E+05  0.7217556E-03 -0.6027222E-03 -0.2980926E+06 -0.7178185E+05
  0.1257143E+01  0.1757219E+06  0.5063441E+05 -0.1383695E-02 -0.2746582E-02 -0.2995711E+06 -0.8377448E+05
  0.1288095E+01  0.1775118E+06  0.5927580E+05  0.2298126E-02 -0.1556396E-02 -0.3015575E+06 -0.9758969E+05
  0.1319048E+01  0.1786343E+06  0.6879572E+05  0.1712069E-02 -0.1693726E-02 -0.3028015E+06 -0.1128075E+06
  0.1350000E+01  0.1790299E+06  0.7919341E+05  0.4747179E-02  0.1312256E-02 -0.3026905E+06 -0.1292729E+06
  0.1380952E+01  0.1785996E+06  0.9043240E+05  0.3160148E-02  0.4440308E-02 -0.3010323E+06 -0.1468585E+06
  0.1411905E+01  0.1771940E+06  0.1024198E+06  0.2161447E-02  0.2197266E-02 -0.2982768E+06 -0.1656533E+06
  0.1442857E+01  0.1753099E+06  0.1151478E+06 -0.9940874E-03 -0.2731323E-02 -0.2942413E+06 -0.1852155E+06
  0.1473810E+01  0.1725743E+06  0.1283457E+06  0.2484791E-03  0.2166748E-02 -0.2887925E+06 -0.2052464E+06
  0.1504762E+01  0.1691521E+06  0.1419837E+06  0.2677048E-02  0.3082275E-02 -0.2824578E+06 -0.2258195E+06
  0.1535714E+01  0.1646284E+06  0.1554904E+06  0.9141078E-03 -0.4394531E-02 -0.2745452E+06 -0.2460020E+06
  0.1566667E+01  0.1591332E+06  0.1685501E+06  0.3194606E-02 -0.6408691E-03 -0.2650808E+06 -0.2651585E+06
  0.1597619E+01  0.1527651E+06  0.1809138E+06  0.3400140E-02  0.1126099E-01 -0.2542124E+06 -0.2828243E+06
  0.1628572E+01  0.1458579E+06  0.1925690E+06 -0.5059493E-03  0.2960205E-02 -0.2428668E+06 -0.2993598E+06
  0.1659524E+01  0.1384412E+06  0.2030862E+06  0.2298670E-02  0.2288818E-02 -0.2307700E+06 -0.3138213E+06
  0.1690476E+01  0.1306579E+06  0.2123194E+06  0.9928958E-03  0.5493164E-02 -0.2180755E+06 -0.3258937E+06
  0.1721429E+01  0.1227894E+06  0.2203745E+06  0.2295783E-02  0.7965088E-02 -0.2054906E+06 -0.3360619E+06
  0.1752381E+01  0.1149486E+06  0.2272859E+06  0.2638361E-02  0.2105713E-02 -0.1931441E+06 -0.3443754E+06
  0.1783333E+01  0.1070043E+06  0.2324362E+06  0.2532674E-02  0.7873535E-02 -0.1807698E+06 -0.3498228E+06
  0.1814286E+01  0.9923766E+05  0.2360475E+06  0.1286785E-02  0.6774902E-02 -0.1687505E+06 -0.3526959E+06
  0.1845238E+01  0.9177097E+05  0.2382393E+06  0.3679829E-02 -0.3662109E-03 -0.1573069E+06 -0.3532276E+06
  0.1876190E+01  0.8471764E+05  0.2393084E+06 -0.2846500E-03  0.2136230E-02 -0.1467872E+06 -0.3523200E+06
  0.1907143E+01  0.7813302E+05  0.2392488E+06 -0.1228133E-02  0.4791260E-02 -0.1371038E+06 -0.3497098E+06
  0.1938095E+01  0.7197289E+05  0.2380257E+06  0.6377199E-03  0.9460449E-03 -0.1280143E+06 -0.3450056E+06
  0.1969048E+01  0.6633745E+05  0.2360568E+06  0.1704851E-03  0.3295898E-02 -0.1198587E+06 -0.3393097E+06
  0.2000000E+01  0.6123793E+05  0.2335681E+06 -0.7095337E-03 -0.2807617E-02 -0.1126611E+06 -0.3330819E+06
Zone t="Motion of body    1 in DoF   2",I=    64,F=POINT
  0.5000000E-01 -0.4959106E-02  0.1013279E-04  0.4305545E+05  0.6710446E+02  0.1914978E-01 -0.3468990E-04
  0.8095238E-01 -0.1625734E-02  0.2264977E-04  0.4263938E+05  0.1111584E+03  0.1064974E-01 -0.1549721E-04
  0.1119048E+00 -0.8522196E-03  0.4100800E-04  0.4248433E+05  0.1589440E+03  0.1118112E-01 -0.1621246E-04
  0.1428571E+00  0.2056122E-02  0.1525879E-04  0.4237000E+05  0.2122651E+03 -0.3524780E-02 -0.1287460E-03
  0.1738095E+00 -0.7023223E-03  0.6484985E-04  0.4233204E+05  0.2731633E+03  0.1755806E-02  0.7915497E-04
  0.2047619E+00  0.3725983E-04 -0.6198883E-04  0.4239948E+05  0.3444962E+03 -0.3949543E-02 -0.8106232E-04
  0.2357143E+00  0.3236713E-03 -0.2479553E-04  0.4234984E+05  0.4300345E+03  0.3366181E-02  0.2031326E-03
  0.2666667E+00 -0.1716614E-03 -0.8106232E-04  0.4245342E+05  0.5326613E+03 -0.6694793E-02 -0.2384186E-03
  0.2976190E+00 -0.9741211E-03  0.1544952E-03  0.4247585E+05  0.6599342E+03  0.9228516E-03 -0.7438660E-04
  0.3285715E+00 -0.6965968E-04 -0.2288818E-04  0.4261484E+05  0.8147776E+03  0.1142419E-01 -0.6656647E-03
  0.3595238E+00 -0.7384849E-02  0.3795624E-03  0.4261345E+05  0.1006075E+04  0.9167399E-02 -0.5149841E-03
  0.3904762E+00 -0.2969881E-02  0.9155273E-04  0.4277559E+05  0.1238787E+04  0.8597024E-03  0.8392334E-04
  0.4214286E+00 -0.4127631E-02  0.1678467E-03  0.4266381E+05  0.1510519E+04  0.3765558E-02 -0.2517700E-03
  0.4523810E+00  0.4553543E-02  0.3433228E-03  0.4269498E+05  0.1834848E+04 -0.1349198E-03 -0.5645752E-03
  0.4833333E+00 -0.3535830E-02 -0.5416870E-03  0.4251638E+05  0.2180897E+04 -0.2525593E-02  0.1827240E-02
  0.5142857E+00  0.7120768E-03  0.9918213E-04  0.4231666E+05  0.2567281E+04  0.8544923E-02 -0.6866455E-04
  0.5452381E+00 -0.1007480E-02  0.4653931E-03  0.4213268E+05  0.2968344E+04  0.6716533E-03  0.1831055E-03
  0.5761905E+00 -0.5587743E-02  0.6103516E-04  0.4174498E+05  0.3377099E+04  0.9321732E-02  0.5569458E-03
  0.6071429E+00 -0.3694422E-02  0.1029968E-02  0.4145541E+05  0.3803712E+04  0.8444392E-02 -0.3662109E-03
  0.6380953E+00  0.1434782E-03 -0.1235962E-02  0.4107425E+05  0.4215361E+04 -0.8513037E-02  0.5722046E-03
  0.6690477E+00 -0.7913935E-02  0.9613037E-03  0.4061221E+05  0.4627354E+04 -0.2006992E-02 -0.4074097E-02
  0.7000000E+00  0.2332415E-02  0.2151489E-02  0.4023661E+05  0.5037705E+04  0.9852817E-02 -0.2182007E-02
  0.7309524E+00 -0.5698934E-02  0.1190186E-02  0.3980921E+05  0.5427495E+04  0.4175043E-02  0.2120972E-02
  0.7619048E+00 -0.8611678E-03 -0.3067017E-02  0.3928390E+05  0.5806577E+04 -0.4405975E-02  0.2334595E-02
  0.7928572E+00  0.4753593E-02  0.9155273E-03  0.3881904E+05  0.6166689E+04 -0.6543408E-02 -0.7629395E-04
  0.8238096E+00 -0.6019724E-02 -0.6866455E-03  0.3846324E+05  0.6499404E+04  0.0000000E+00 -0.2151489E-02
  0.8547620E+00  0.3945183E-02 -0.1953125E-02  0.3789357E+05  0.6810020E+04  0.4998422E-02 -0.2136230E-02
  0.8857143E+00  0.2239597E-03  0.1312256E-02  0.3736130E+05  0.7091435E+04 -0.3032069E-02 -0.2090454E-02
  0.9166667E+00 -0.1831055E-02 -0.7934570E-03  0.3692088E+05  0.7341015E+04  0.7523970E-02  0.2899170E-03
  0.9476191E+00  0.2141598E-02  0.2624512E-02  0.3656641E+05  0.7552122E+04 -0.8952845E-02 -0.3005981E-02
  0.9785714E+00 -0.2448089E-02  0.3234863E-02  0.3604986E+05  0.7727921E+04  0.7546975E-02 -0.6683350E-02
  0.1009524E+01 -0.1980044E-02 -0.1190186E-02  0.3556216E+05  0.7871946E+04  0.2236996E-02 -0.6027222E-02
  0.1040476E+01 -0.6892643E-03  0.2136230E-03  0.3512200E+05  0.7975450E+04 -0.7625903E-03 -0.1174927E-02
  0.1071429E+01 -0.1865641E-02  0.1617432E-02  0.3478130E+05  0.8047701E+04 -0.2449544E-02 -0.4302979E-02
  0.1102381E+01  0.9135499E-03  0.2685547E-02  0.3452965E+05  0.8075874E+04  0.8304999E-03  0.2471924E-02
  0.1133333E+01 -0.3460155E-02  0.1739502E-02  0.3405739E+05  0.8058586E+04 -0.2692727E-03  0.2548218E-02
  0.1164286E+01 -0.3145370E-03  0.9155273E-03  0.3368239E+05  0.8014406E+04  0.1467839E-02  0.4913330E-02
  0.1195238E+01 -0.9064085E-03 -0.3570557E-02  0.3334959E+05  0.7932277E+04 -0.4034156E-02 -0.5294800E-02
  0.1226190E+01 -0.2159045E-02 -0.2380371E-02  0.3311552E+05  0.7838492E+04  0.5923373E-02  0.4577637E-02
  0.1257143E+01 -0.1456521E-02  0.3479004E-02  0.3295645E+05  0.7716527E+04 -0.1068115E-02 -0.8483887E-02
  0.1288095E+01  0.1042449E-02  0.3662109E-03  0.3274838E+05  0.7540540E+04 -0.1231985E-02  0.2197266E-02
  0.1319048E+01 -0.1712069E-02 -0.9155273E-03  0.3245825E+05  0.7329010E+04  0.8375257E-02  0.2365112E-02
  0.1350000E+01 -0.1597934E-02 -0.2380371E-02  0.3224261E+05  0.7104875E+04 -0.3526476E-02  0.4226685E-02
  0.1380952E+01  0.6483793E-03 -0.2624512E-02  0.3207145E+05  0.6860331E+04 -0.1370134E-02  0.4241943E-02
  0.1411905E+01 -0.1646753E-02  0.2868652E-02  0.3198008E+05  0.6639509E+04  0.4495810E-02 -0.7843018E-02
  0.1442857E+01 -0.1366870E-02  0.3417969E-02  0.3195275E+05  0.6415988E+04  0.2157381E-02 -0.9002686E-02
  0.1473810E+01 -0.1242396E-03 -0.1220703E-03  0.3196229E+05  0.6179828E+04 -0.1573701E-02 -0.1174927E-02
  0.1504762E+01 -0.2631417E-02 -0.4211426E-02  0.3180097E+05  0.5825498E+04  0.3326030E-02  0.5752563E-02
  0.1535714E+01 -0.1400970E-02  0.1525879E-03  0.3171391E+05  0.5511273E+04 -0.1391034E-02  0.1113892E-02
  0.1566667E+01 -0.1051882E-02  0.8850098E-03  0.3165950E+05  0.5193415E+04  0.4869826E-02 -0.2792358E-02
  0.1597619E+01 -0.2483248E-02 -0.9155273E-03  0.3163867E+05  0.4888100E+04  0.6723873E-02 -0.1052856E-02
  0.1628572E+01 -0.1011899E-02  0.2258301E-02  0.3167128E+05  0.4640938E+04  0.2473530E-02 -0.6179810E-02
  0.1659524E+01 -0.1075777E-02 -0.2655029E-02  0.3174233E+05  0.4419870E+04  0.2979076E-02  0.6713867E-03
  0.1690476E+01 -0.1985792E-03 -0.6164551E-02  0.3185289E+05  0.4230809E+04  0.1588633E-02 -0.1663208E-02
  0.1721429E+01  0.5850258E-03  0.1739502E-02  0.3186583E+05  0.3888701E+04 -0.1134595E-02  0.1495361E-02
  0.1752381E+01 -0.1053603E-02 -0.3387451E-02  0.3186103E+05  0.3533099E+04 -0.9055760E-03 -0.1907349E-03
  0.1783333E+01 -0.1634259E-02 -0.2136230E-02  0.3189876E+05  0.3238928E+04  0.5270700E-02 -0.6332397E-03
  0.1814286E+01 -0.7989838E-03  0.2716064E-02  0.3195082E+05  0.2950365E+04  0.3296860E-02 -0.9841919E-03
  0.1845238E+01  0.2480784E-03  0.4150391E-02  0.3201517E+05  0.2698439E+04 -0.7276966E-03  0.2143860E-02
  0.1876190E+01 -0.8132857E-04  0.2441406E-03  0.3209974E+05  0.2520208E+04 -0.1626572E-02 -0.4264832E-02
  0.1907143E+01 -0.1248135E-02  0.3204346E-02  0.3219820E+05  0.2377648E+04  0.3328359E-02 -0.1556396E-02
  0.1938095E+01  0.7873085E-04 -0.2746582E-03  0.3230983E+05  0.2269013E+04 -0.1385663E-02  0.6484985E-03
  0.1969048E+01 -0.1069407E-02 -0.3173828E-02  0.3241416E+05  0.2122587E+04  0.3471697E-02 -0.2529144E-02
  0.2000000E+01 -0.1678467E-03  0.1403809E-02  0.3247541E+05  0.1814240E+04  0.6103516E-04 -0.3540039E-02
Zone t="Motion of body    1 in DoF   3",I=    64,F=POINT
  0.5000000E-01 -0.2213849E+06 -0.1365917E-01 -0.1285553E-01 -0.2868892E-04  0.4632330E+06  0.2445898E-01
  0.8095238E-01 -0.2230373E+06 -0.6035566E-01 -0.1076754E-01 -0.2402435E-04  0.4667544E+06  0.1086939E+00
  0.1119048E+00 -0.2235771E+06 -0.1696747E+00 -0.8419930E-02 -0.5856017E-04  0.4678810E+06  0.3053798E+00
  0.1428571E+00 -0.2241604E+06 -0.3827047E+00 -0.7797241E-02 -0.7927569E-04  0.4686178E+06  0.6882428E+00
  0.1738095E+00 -0.2246556E+06 -0.7626837E+00 -0.2892690E-01 -0.3558169E-03  0.4692665E+06  0.1370224E+01
  0.2047619E+00 -0.2247844E+06 -0.1407786E+01 -0.2960294E-01 -0.5341433E-03  0.4695461E+06  0.2529044E+01
  0.2357143E+00 -0.2253763E+06 -0.2482233E+01  0.5809899E-02  0.2007727E-03  0.4702449E+06  0.4453540E+01
  0.2666667E+00 -0.2257539E+06 -0.4236599E+01 -0.1019955E-01  0.9155832E-04  0.4709137E+06  0.7597035E+01
  0.2976190E+00 -0.2262796E+06 -0.7112888E+01 -0.2473755E-02 -0.1515597E-03  0.4718283E+06  0.1274825E+02
  0.3285715E+00 -0.2269684E+06 -0.1179532E+02  0.1330500E-01  0.3487095E-03  0.4727212E+06  0.2111024E+02
  0.3595238E+00 -0.2276357E+06 -0.1939851E+02 -0.8254903E-02 -0.9255856E-04  0.4737035E+06  0.3467961E+02
  0.3904762E+00 -0.2281685E+06 -0.3165629E+02 -0.1328631E-01 -0.1130305E-02  0.4746103E+06  0.5652184E+02
  0.4214286E+00 -0.2294153E+06 -0.5108690E+02 -0.1785019E-01 -0.1253963E-02  0.4765616E+06  0.9112874E+02
  0.4523810E+00 -0.2302251E+06 -0.8166459E+02 -0.2163776E-01 -0.9755492E-03  0.4778424E+06  0.1454331E+03
  0.4833333E+00 -0.2315446E+06 -0.1274621E+03 -0.1755287E-01 -0.1526415E-02  0.4798337E+06  0.2266437E+03
  0.5142857E+00 -0.2326435E+06 -0.1955691E+03  0.5221897E-02  0.1224875E-03  0.4817270E+06  0.3472878E+03
  0.5452381E+00 -0.2340352E+06 -0.2932873E+03 -0.1423065E-01 -0.8829832E-03  0.4837633E+06  0.5199105E+03
  0.5761905E+00 -0.2355343E+06 -0.4295947E+03 -0.5216992E-02  0.6207228E-03  0.4859692E+06  0.7600184E+03
  0.6071429E+00 -0.2370660E+06 -0.6177951E+03  0.9097828E-02  0.2328873E-02  0.4886356E+06  0.1091141E+04
  0.6380953E+00 -0.2389992E+06 -0.8699849E+03 -0.4902171E-02 -0.1145840E-02  0.4914621E+06  0.1533118E+04
  0.6690477E+00 -0.2408435E+06 -0.1203374E+04 -0.1589629E-01 -0.4547596E-02  0.4944462E+06  0.2117118E+04
  0.7000000E+00 -0.2429044E+06 -0.1641155E+04  0.6648472E-02  0.6685257E-03  0.4979388E+06  0.2881692E+04
  0.7309524E+00 -0.2451990E+06 -0.2206973E+04  0.3548787E-02  0.3824234E-02  0.5011410E+06  0.3863602E+04
  0.7619048E+00 -0.2477742E+06 -0.2929364E+04  0.9532928E-02  0.4981995E-02  0.5052675E+06  0.5117261E+04
  0.7928572E+00 -0.2501872E+06 -0.3840435E+04 -0.5003782E-02  0.3482819E-02  0.5092131E+06  0.6692854E+04
  0.8238096E+00 -0.2527834E+06 -0.4982280E+04 -0.7223669E-03  0.1449585E-03  0.5132691E+06  0.8659924E+04
  0.8547620E+00 -0.2561419E+06 -0.6406936E+04 -0.5712482E-02  0.1865387E-02  0.5184743E+06  0.1110833E+05
  0.8857143E+00 -0.2591473E+06 -0.8155685E+04  0.4048501E-02  0.3429413E-02  0.5230263E+06  0.1409921E+05
  0.9166667E+00 -0.2623729E+06 -0.1029537E+05 -0.1245117E-01  0.3700256E-03  0.5280753E+06  0.1774242E+05
  0.9476191E+00 -0.2656177E+06 -0.1288907E+05 -0.1510390E-01 -0.2044678E-02  0.5330064E+06  0.2213994E+05
  0.9785714E+00 -0.2694445E+06 -0.1602987E+05 -0.1259908E-01  0.3646851E-02  0.5386669E+06  0.2744320E+05
  0.1009524E+01 -0.2732112E+06 -0.1977595E+05  0.1662632E-02  0.6633759E-02  0.5445039E+06  0.3375313E+05
  0.1040476E+01 -0.2766524E+06 -0.2420597E+05 -0.7537912E-02 -0.2479553E-02  0.5496427E+06  0.4117788E+05
  0.1071429E+01 -0.2805320E+06 -0.2945566E+05 -0.8374023E-02 -0.1193237E-01  0.5557524E+06  0.4995033E+05
  0.1102381E+01 -0.2839896E+06 -0.3559956E+05  0.5370566E-02  0.2288818E-03  0.5604881E+06  0.6012080E+05
  0.1133333E+01 -0.2879712E+06 -0.4281743E+05 -0.2296896E-01 -0.2237701E-01  0.5659825E+06  0.7201027E+05
  0.1164286E+01 -0.2915462E+06 -0.5113257E+05 -0.5556820E-02  0.4150391E-02  0.5710935E+06  0.8566820E+05
  0.1195238E+01 -0.2943777E+06 -0.6061365E+05  0.8425770E-03  0.1510620E-02  0.5746901E+06  0.1011166E+06
  0.1226190E+01 -0.2972259E+06 -0.7144798E+05 -0.1752124E-01  0.3021240E-02  0.5787234E+06  0.1187244E+06
  0.1257143E+01 -0.2986917E+06 -0.8338923E+05 -0.7112676E-02  0.1419067E-02  0.5801124E+06  0.1379671E+06
  0.1288095E+01 -0.3006656E+06 -0.9716434E+05 -0.9239888E-02 -0.3829956E-02  0.5819311E+06  0.1599658E+06
  0.1319048E+01 -0.3018653E+06 -0.1122660E+06 -0.7079637E-02 -0.2441406E-03  0.5828706E+06  0.1840841E+06
  0.1350000E+01 -0.3017363E+06 -0.1286265E+06 -0.7075557E-02 -0.5950928E-02  0.5814481E+06  0.2099623E+06
  0.1380952E+01 -0.3000984E+06 -0.1461444E+06 -0.4552381E-02  0.2017212E-01  0.5773972E+06  0.2373261E+06
  0.1411905E+01 -0.2971913E+06 -0.1646700E+06 -0.7889283E-02 -0.4394531E-02  0.5720728E+06  0.2663357E+06
  0.1442857E+01 -0.2931980E+06 -0.1841505E+06  0.3807143E-03 -0.9460449E-03  0.5643251E+06  0.2962064E+06
  0.1473810E+01 -0.2877700E+06 -0.2041126E+06 -0.1157499E-01 -0.4882812E-02  0.5541238E+06  0.3264037E+06
  0.1504762E+01 -0.2814615E+06 -0.2245508E+06 -0.1072847E-01 -0.1586914E-02  0.5426919E+06  0.3571167E+06
  0.1535714E+01 -0.2735904E+06 -0.2445609E+06 -0.3119890E-02 -0.6408691E-02  0.5292187E+06  0.3869055E+06
  0.1566667E+01 -0.2641670E+06 -0.2635615E+06 -0.7655367E-02 -0.1770020E-02  0.5132058E+06  0.4146072E+06
  0.1597619E+01 -0.2533767E+06 -0.2811695E+06 -0.2206271E-02 -0.1300049E-01  0.4951352E+06  0.4395239E+06
  0.1628572E+01 -0.2420917E+06 -0.2975348E+06 -0.6099500E-02  0.3051758E-03  0.4769472E+06  0.4625262E+06
  0.1659524E+01 -0.2300498E+06 -0.3118486E+06 -0.4073243E-02  0.2441406E-02  0.4575848E+06  0.4818882E+06
  0.1690476E+01 -0.2173972E+06 -0.3238476E+06  0.7221061E-04 -0.7995605E-02  0.4371555E+06  0.4970584E+06
  0.1721429E+01 -0.2048659E+06 -0.3339095E+06  0.3758348E-02  0.2685547E-02  0.4172232E+06  0.5091363E+06
  0.1752381E+01 -0.1926330E+06 -0.3421487E+06 -0.1774145E-02 -0.7507324E-02  0.3980719E+06  0.5183232E+06
  0.1783333E+01 -0.1803599E+06 -0.3475335E+06 -0.1043017E-01 -0.1196289E-01  0.3791852E+06  0.5229831E+06
  0.1814286E+01 -0.1684130E+06 -0.3503618E+06 -0.2207719E-03 -0.7141113E-02  0.3608449E+06  0.5233918E+06
  0.1845238E+01 -0.1570424E+06 -0.3509691E+06 -0.4033341E-02  0.6896973E-02  0.3436710E+06  0.5202241E+06
  0.1876190E+01 -0.1466124E+06 -0.3500527E+06  0.1724166E-02  0.5493164E-03  0.3284930E+06  0.5152938E+06
  0.1907143E+01 -0.1370053E+06 -0.3474166E+06  0.1576170E-02 -0.4943848E-02  0.3147208E+06  0.5078233E+06
  0.1938095E+01 -0.1279412E+06 -0.3427695E+06  0.6534661E-03  0.4547119E-02  0.3015406E+06  0.4967568E+06
  0.1969048E+01 -0.1198029E+06 -0.3370967E+06 -0.6772910E-02 -0.1205444E-01  0.2899352E+06  0.4843832E+06
  0.2000000E+01 -0.1126681E+06 -0.3308853E+06 -0.5577087E-02 -0.4791260E-02  0.2799404E+06  0.4715472E+06
