VARIABLES="w (rad/s)"
"abs(F   1   1)" "angle(F   1   1)"
"abs(F   1   2)" "angle(F   1   2)"
"abs(F   1   3)" "angle(F   1   3)"
Zone t="Diffraction force - beta =   0.000 deg",I=    64,F=POINT
  0.5000000E-01  0.6700884E+03 -0.1570795E+01  0.2156808E+03 -0.3105759E+01  0.4203130E+03  0.1570796E+01
  0.8095238E-01  0.1096100E+04 -0.1570793E+01  0.5631273E+03 -0.3104752E+01  0.6909523E+03  0.1570796E+01
  0.1119048E+00  0.1529305E+04 -0.1570789E+01  0.1072016E+04 -0.3103288E+01  0.9660823E+03  0.1570797E+01
  0.1428571E+00  0.1987372E+04 -0.1570784E+01  0.1741482E+04 -0.3101332E+01  0.1258825E+04  0.1570797E+01
  0.1738095E+00  0.2457382E+04 -0.1570777E+01  0.2573974E+04 -0.3098846E+01  0.1563047E+04  0.1570797E+01
  0.2047619E+00  0.2963818E+04 -0.1570766E+01  0.3574974E+04 -0.3095754E+01  0.1892344E+04  0.1570798E+01
  0.2357143E+00  0.3499161E+04 -0.1570750E+01  0.4739529E+04 -0.3091766E+01  0.2245223E+04  0.1570799E+01
  0.2666667E+00  0.4063773E+04 -0.1570726E+01  0.6076231E+04 -0.3086931E+01  0.2620405E+04  0.1570801E+01
  0.2976190E+00  0.4716073E+04 -0.1570691E+01  0.7583397E+04 -0.3080812E+01  0.3061690E+04  0.1570803E+01
  0.3285715E+00  0.5402308E+04 -0.1570638E+01  0.9264680E+04 -0.3073472E+01  0.3525620E+04  0.1570808E+01
  0.3595238E+00  0.6149047E+04 -0.1570559E+01  0.1110926E+05 -0.3064478E+01  0.4045681E+04  0.1570814E+01
  0.3904762E+00  0.7019159E+04 -0.1570441E+01  0.1313525E+05 -0.3053881E+01  0.4653411E+04  0.1570825E+01
  0.4214286E+00  0.7993943E+04 -0.1570269E+01  0.1528336E+05 -0.3041807E+01  0.5340119E+04  0.1570843E+01
  0.4523810E+00  0.9026036E+04 -0.1570014E+01  0.1761846E+05 -0.3028074E+01  0.6086116E+04  0.1570871E+01
  0.4833333E+00  0.1016347E+05 -0.1569658E+01  0.2000988E+05 -0.3013732E+01  0.6902867E+04  0.1570912E+01
  0.5142857E+00  0.1147072E+05 -0.1569169E+01  0.2254930E+05 -0.2998466E+01  0.7871125E+04  0.1570976E+01
  0.5452381E+00  0.1285973E+05 -0.1568512E+01  0.2515584E+05 -0.2983017E+01  0.8874788E+04  0.1571065E+01
  0.5761905E+00  0.1431254E+05 -0.1567650E+01  0.2782872E+05 -0.2967726E+01  0.9981853E+04  0.1571191E+01
  0.6071429E+00  0.1580725E+05 -0.1566524E+01  0.3062446E+05 -0.2952445E+01  0.1116155E+05  0.1571363E+01
  0.6380953E+00  0.1753146E+05 -0.1565143E+01  0.3338169E+05 -0.2937330E+01  0.1245575E+05  0.1571592E+01
  0.6690477E+00  0.1932001E+05 -0.1563417E+01  0.3621680E+05 -0.2922576E+01  0.1386228E+05  0.1571902E+01
  0.7000000E+00  0.2113707E+05 -0.1561271E+01  0.3913778E+05 -0.2908207E+01  0.1534716E+05  0.1572308E+01
  0.7309524E+00  0.2301632E+05 -0.1558663E+01  0.4197121E+05 -0.2893575E+01  0.1680494E+05  0.1572811E+01
  0.7619048E+00  0.2496140E+05 -0.1555520E+01  0.4483629E+05 -0.2879332E+01  0.1843502E+05  0.1573460E+01
  0.7928572E+00  0.2708606E+05 -0.1551828E+01  0.4773699E+05 -0.2865686E+01  0.2022762E+05  0.1574270E+01
  0.8238096E+00  0.2931249E+05 -0.1547485E+01  0.5059786E+05 -0.2852214E+01  0.2209121E+05  0.1575282E+01
  0.8547620E+00  0.3162092E+05 -0.1542409E+01  0.5335447E+05 -0.2838491E+01  0.2400718E+05  0.1576522E+01
  0.8857143E+00  0.3393563E+05 -0.1536472E+01  0.5609391E+05 -0.2825291E+01  0.2603166E+05  0.1578041E+01
  0.9166667E+00  0.3625399E+05 -0.1529585E+01  0.5884689E+05 -0.2813088E+01  0.2812062E+05  0.1579859E+01
  0.9476191E+00  0.3859955E+05 -0.1521690E+01  0.6149649E+05 -0.2801019E+01  0.3026959E+05  0.1582006E+01
  0.9785714E+00  0.4111251E+05 -0.1512885E+01  0.6396380E+05 -0.2788487E+01  0.3248016E+05  0.1584463E+01
  0.1009524E+01  0.4382615E+05 -0.1503176E+01  0.6637989E+05 -0.2776580E+01  0.3499957E+05  0.1587344E+01
  0.1040476E+01  0.4647834E+05 -0.1492191E+01  0.6872937E+05 -0.2765452E+01  0.3749123E+05  0.1590733E+01
  0.1071429E+01  0.4912786E+05 -0.1479916E+01  0.7103324E+05 -0.2755284E+01  0.4014612E+05  0.1594684E+01
  0.1102381E+01  0.5174859E+05 -0.1466280E+01  0.7311458E+05 -0.2744608E+01  0.4269686E+05  0.1599187E+01
  0.1133333E+01  0.5436329E+05 -0.1451291E+01  0.7502853E+05 -0.2733945E+01  0.4528652E+05  0.1604258E+01
  0.1164286E+01  0.5689955E+05 -0.1434841E+01  0.7685853E+05 -0.2723981E+01  0.4802973E+05  0.1609978E+01
  0.1195238E+01  0.5928740E+05 -0.1416850E+01  0.7857408E+05 -0.2714729E+01  0.5069746E+05  0.1616243E+01
  0.1226190E+01  0.6164266E+05 -0.1397620E+01  0.8020256E+05 -0.2706393E+01  0.5352640E+05  0.1623013E+01
  0.1257143E+01  0.6397857E+05 -0.1377373E+01  0.8167422E+05 -0.2698118E+01  0.5638463E+05  0.1630047E+01
  0.1288095E+01  0.6625691E+05 -0.1356042E+01  0.8282017E+05 -0.2689534E+01  0.5901305E+05  0.1637807E+01
  0.1319048E+01  0.6833152E+05 -0.1333219E+01  0.8388598E+05 -0.2681379E+01  0.6182257E+05  0.1646286E+01
  0.1350000E+01  0.7009716E+05 -0.1308914E+01  0.8481906E+05 -0.2673822E+01  0.6452113E+05  0.1655311E+01
  0.1380952E+01  0.7157457E+05 -0.1283317E+01  0.8562952E+05 -0.2667055E+01  0.6709238E+05  0.1664768E+01
  0.1411905E+01  0.7267284E+05 -0.1256373E+01  0.8630563E+05 -0.2661109E+01  0.6962691E+05  0.1674444E+01
  0.1442857E+01  0.7364156E+05 -0.1229451E+01  0.8685883E+05 -0.2655937E+01  0.7218438E+05  0.1683838E+01
  0.1473810E+01  0.7423591E+05 -0.1201802E+01  0.8707186E+05 -0.2649551E+01  0.7418209E+05  0.1693229E+01
  0.1504762E+01  0.7449013E+05 -0.1173538E+01  0.8713879E+05 -0.2643687E+01  0.7609031E+05  0.1702725E+01
  0.1535714E+01  0.7440205E+05 -0.1145007E+01  0.8708966E+05 -0.2638386E+01  0.7802083E+05  0.1712108E+01
  0.1566667E+01  0.7380110E+05 -0.1115889E+01  0.8690519E+05 -0.2633753E+01  0.7961163E+05  0.1721059E+01
  0.1597619E+01  0.7277326E+05 -0.1087043E+01  0.8660249E+05 -0.2629978E+01  0.8092468E+05  0.1728903E+01
  0.1628572E+01  0.7136836E+05 -0.1058574E+01  0.8619051E+05 -0.2627039E+01  0.8219471E+05  0.1736008E+01
  0.1659524E+01  0.6951638E+05 -0.1030004E+01  0.8566576E+05 -0.2625057E+01  0.8326291E+05  0.1742719E+01
  0.1690476E+01  0.6720080E+05 -0.1002295E+01  0.8482741E+05 -0.2622170E+01  0.8364441E+05  0.1747381E+01
  0.1721429E+01  0.6448901E+05 -0.9756166E+00  0.8381908E+05 -0.2619653E+01  0.8366832E+05  0.1750221E+01
  0.1752381E+01  0.6148093E+05 -0.9505917E+00  0.8274101E+05 -0.2617855E+01  0.8376441E+05  0.1751904E+01
  0.1783333E+01  0.5807423E+05 -0.9268945E+00  0.8156787E+05 -0.2616704E+01  0.8360819E+05  0.1751742E+01
  0.1814286E+01  0.5424952E+05 -0.9042643E+00  0.8029202E+05 -0.2616390E+01  0.8311230E+05  0.1749776E+01
  0.1845238E+01  0.5006001E+05 -0.8832515E+00  0.7893513E+05 -0.2617102E+01  0.8232509E+05  0.1745390E+01
  0.1876190E+01  0.4562162E+05 -0.8646581E+00  0.7752431E+05 -0.2618606E+01  0.8150509E+05  0.1739154E+01
  0.1907143E+01  0.4092883E+05 -0.8489705E+00  0.7605459E+05 -0.2621041E+01  0.8055612E+05  0.1730517E+01
  0.1938095E+01  0.3595788E+05 -0.8376752E+00  0.7443108E+05 -0.2623372E+01  0.7916866E+05  0.1718186E+01
  0.1969048E+01  0.3073345E+05 -0.8329345E+00  0.7266092E+05 -0.2625711E+01  0.7733812E+05  0.1701357E+01
  0.2000000E+01  0.2535697E+05 -0.8378111E+00  0.7086791E+05 -0.2628978E+01  0.7546680E+05  0.1681383E+01
