VARIABLES="w (rad/s)"
"abs(F   1   1)" "angle(F   1   1)"
"abs(F   1   2)" "angle(F   1   2)"
"abs(F   1   3)" "angle(F   1   3)"
Zone t="Diffraction force - beta =   0.000 deg",I=    64,F=POINT
  0.5000000E-01  0.2878717E+04 -0.1570802E+01  0.2834782E+06 -0.2049448E-04  0.3897862E+04  0.1570789E+01
  0.8095238E-01  0.4704183E+04 -0.1570794E+01  0.2829700E+06 -0.5514107E-04  0.6369312E+04  0.1570788E+01
  0.1119048E+00  0.6566115E+04 -0.1570795E+01  0.2822228E+06 -0.1095058E-03  0.8879156E+04  0.1570808E+01
  0.1428571E+00  0.8486312E+04 -0.1570802E+01  0.2812368E+06 -0.1877981E-03  0.1146383E+05  0.1570810E+01
  0.1738095E+00  0.1048790E+05 -0.1570790E+01  0.2800107E+06 -0.2963419E-03  0.1413850E+05  0.1570814E+01
  0.2047619E+00  0.1258980E+05 -0.1570785E+01  0.2785423E+06 -0.4442964E-03  0.1694262E+05  0.1570814E+01
  0.2357143E+00  0.1481931E+05 -0.1570769E+01  0.2768303E+06 -0.6452412E-03  0.1990195E+05  0.1570818E+01
  0.2666667E+00  0.1721391E+05 -0.1570755E+01  0.2748746E+06 -0.9156372E-03  0.2305264E+05  0.1570827E+01
  0.2976190E+00  0.1980391E+05 -0.1570736E+01  0.2726697E+06 -0.1283571E-02  0.2644511E+05  0.1570853E+01
  0.3285715E+00  0.2261667E+05 -0.1570710E+01  0.2702190E+06 -0.1777575E-02  0.3011644E+05  0.1570880E+01
  0.3595238E+00  0.2572153E+05 -0.1570670E+01  0.2675278E+06 -0.2443250E-02  0.3411682E+05  0.1570920E+01
  0.3904762E+00  0.2913172E+05 -0.1570605E+01  0.2645921E+06 -0.3331301E-02  0.3849398E+05  0.1570988E+01
  0.4214286E+00  0.3288796E+05 -0.1570516E+01  0.2614316E+06 -0.4475642E-02  0.4328270E+05  0.1571077E+01
  0.4523810E+00  0.3701498E+05 -0.1570381E+01  0.2580532E+06 -0.5965455E-02  0.4849124E+05  0.1571212E+01
  0.4833333E+00  0.4153205E+05 -0.1570195E+01  0.2544830E+06 -0.7763556E-02  0.5411443E+05  0.1571393E+01
  0.5142857E+00  0.4638906E+05 -0.1569937E+01  0.2507257E+06 -0.9974847E-02  0.6014538E+05  0.1571654E+01
  0.5452381E+00  0.5155473E+05 -0.1569593E+01  0.2467923E+06 -0.1257008E-01  0.6652161E+05  0.1571999E+01
  0.5761905E+00  0.5705202E+05 -0.1569147E+01  0.2427060E+06 -0.1556155E-01  0.7315636E+05  0.1572446E+01
  0.6071429E+00  0.6282275E+05 -0.1568568E+01  0.2384855E+06 -0.1903771E-01  0.8003854E+05  0.1573023E+01
  0.6380953E+00  0.6882549E+05 -0.1567850E+01  0.2341085E+06 -0.2292338E-01  0.8712820E+05  0.1573743E+01
  0.6690477E+00  0.7502480E+05 -0.1566955E+01  0.2296051E+06 -0.2730569E-01  0.9437945E+05  0.1574637E+01
  0.7000000E+00  0.8140275E+05 -0.1565857E+01  0.2250005E+06 -0.3224372E-01  0.1017129E+06  0.1575735E+01
  0.7309524E+00  0.8800916E+05 -0.1564533E+01  0.2202906E+06 -0.3770948E-01  0.1091200E+06  0.1577057E+01
  0.7619048E+00  0.9479367E+05 -0.1562948E+01  0.2154933E+06 -0.4375561E-01  0.1165607E+06  0.1578641E+01
  0.7928572E+00  0.1017064E+06 -0.1561066E+01  0.2106237E+06 -0.5041743E-01  0.1240531E+06  0.1580521E+01
  0.8238096E+00  0.1087052E+06 -0.1558854E+01  0.2056872E+06 -0.5771834E-01  0.1315395E+06  0.1582730E+01
  0.8547620E+00  0.1157937E+06 -0.1556283E+01  0.2006919E+06 -0.6567919E-01  0.1389509E+06  0.1585299E+01
  0.8857143E+00  0.1230138E+06 -0.1553320E+01  0.1956537E+06 -0.7433055E-01  0.1462509E+06  0.1588258E+01
  0.9166667E+00  0.1303130E+06 -0.1549932E+01  0.1905995E+06 -0.8370168E-01  0.1534398E+06  0.1591641E+01
  0.9476191E+00  0.1376622E+06 -0.1546086E+01  0.1855403E+06 -0.9380660E-01  0.1604721E+06  0.1595480E+01
  0.9785714E+00  0.1450235E+06 -0.1541754E+01  0.1804683E+06 -0.1046641E+00  0.1673015E+06  0.1599802E+01
  0.1009524E+01  0.1523640E+06 -0.1536912E+01  0.1753859E+06 -0.1162979E+00  0.1739304E+06  0.1604631E+01
  0.1040476E+01  0.1596432E+06 -0.1531541E+01  0.1703099E+06 -0.1287395E+00  0.1803310E+06  0.1609984E+01
  0.1071429E+01  0.1667801E+06 -0.1525632E+01  0.1652582E+06 -0.1420247E+00  0.1863580E+06  0.1615870E+01
  0.1102381E+01  0.1738528E+06 -0.1519194E+01  0.1602222E+06 -0.1561787E+00  0.1920476E+06  0.1622285E+01
  0.1133333E+01  0.1807650E+06 -0.1512233E+01  0.1552316E+06 -0.1712643E+00  0.1972679E+06  0.1629216E+01
  0.1164286E+01  0.1875156E+06 -0.1504766E+01  0.1502762E+06 -0.1872801E+00  0.2020576E+06  0.1636649E+01
  0.1195238E+01  0.1940331E+06 -0.1496812E+01  0.1453700E+06 -0.2042540E+00  0.2063738E+06  0.1644557E+01
  0.1226190E+01  0.2002188E+06 -0.1488400E+01  0.1405085E+06 -0.2222315E+00  0.2101680E+06  0.1652911E+01
  0.1257143E+01  0.2059902E+06 -0.1479560E+01  0.1357040E+06 -0.2414047E+00  0.2133968E+06  0.1661676E+01
  0.1288095E+01  0.2115013E+06 -0.1470448E+01  0.1309197E+06 -0.2614103E+00  0.2161096E+06  0.1670692E+01
  0.1319048E+01  0.2164562E+06 -0.1461066E+01  0.1262049E+06 -0.2827531E+00  0.2181157E+06  0.1679955E+01
  0.1350000E+01  0.2209417E+06 -0.1451567E+01  0.1215344E+06 -0.3053720E+00  0.2194618E+06  0.1689310E+01
  0.1380952E+01  0.2249279E+06 -0.1442071E+01  0.1169181E+06 -0.3293363E+00  0.2201360E+06  0.1698636E+01
  0.1411905E+01  0.2278644E+06 -0.1433397E+01  0.1124190E+06 -0.3544173E+00  0.2199589E+06  0.1707133E+01
  0.1442857E+01  0.2306898E+06 -0.1424319E+01  0.1079709E+06 -0.3815356E+00  0.2192110E+06  0.1716000E+01
  0.1473810E+01  0.2329703E+06 -0.1415638E+01  0.1036000E+06 -0.4103656E+00  0.2178471E+06  0.1724439E+01
  0.1504762E+01  0.2345999E+06 -0.1407489E+01  0.9931137E+05 -0.4411059E+00  0.2157726E+06  0.1732314E+01
  0.1535714E+01  0.2356403E+06 -0.1400023E+01  0.9508920E+05 -0.4739669E+00  0.2131159E+06  0.1739479E+01
  0.1566667E+01  0.2360611E+06 -0.1393429E+01  0.9094353E+05 -0.5092069E+00  0.2098264E+06  0.1745716E+01
  0.1597619E+01  0.2358958E+06 -0.1387802E+01  0.8689545E+05 -0.5471110E+00  0.2060610E+06  0.1750972E+01
  0.1628572E+01  0.2351295E+06 -0.1383315E+01  0.8297205E+05 -0.5881662E+00  0.2017716E+06  0.1755058E+01
  0.1659524E+01  0.2337891E+06 -0.1380104E+01  0.7918734E+05 -0.6325383E+00  0.1969963E+06  0.1757824E+01
  0.1690476E+01  0.2319890E+06 -0.1378277E+01  0.7552921E+05 -0.6807365E+00  0.1919204E+06  0.1759208E+01
  0.1721429E+01  0.2296988E+06 -0.1377983E+01  0.7203481E+05 -0.7331910E+00  0.1864754E+06  0.1759015E+01
  0.1752381E+01  0.2269629E+06 -0.1379300E+01  0.6873482E+05 -0.7902086E+00  0.1807491E+06  0.1757187E+01
  0.1783333E+01  0.2238701E+06 -0.1382311E+01  0.6563812E+05 -0.8524897E+00  0.1748689E+06  0.1753700E+01
  0.1814286E+01  0.2204373E+06 -0.1387161E+01  0.6280411E+05 -0.9204740E+00  0.1687958E+06  0.1748309E+01
  0.1845238E+01  0.2167286E+06 -0.1393766E+01  0.6030835E+05 -0.9939888E+00  0.1627072E+06  0.1741284E+01
  0.1876190E+01  0.2127671E+06 -0.1402271E+01  0.5817330E+05 -0.1073002E+01  0.1565652E+06  0.1732406E+01
  0.1907143E+01  0.2085784E+06 -0.1412723E+01  0.5646061E+05 -0.1156594E+01  0.1503738E+06  0.1721570E+01
  0.1938095E+01  0.2042794E+06 -0.1425066E+01  0.5518286E+05 -0.1244762E+01  0.1443100E+06  0.1709094E+01
  0.1969048E+01  0.1998694E+06 -0.1439423E+01  0.5438785E+05 -0.1335659E+01  0.1382936E+06  0.1694634E+01
  0.2000000E+01  0.1953592E+06 -0.1455755E+01  0.5412377E+05 -0.1426341E+01  0.1323817E+06  0.1678422E+01
