VARIABLES="w (rad/s)"
"abs(F   1   1)" "angle(F   1   1)"
"abs(F   1   2)" "angle(F   1   2)"
"abs(F   1   3)" "angle(F   1   3)"
Zone t="Diffraction force - beta =   0.000 deg",I=    64,F=POINT
  0.5000000E-01  0.2577374E+04 -0.1570792E+01  0.4310730E+06 -0.2962193E-04  0.4414485E+02 -0.1571385E+01
  0.8095238E-01  0.4205359E+04 -0.1570806E+01  0.4302534E+06 -0.7967931E-04  0.7186012E+02 -0.1571149E+01
  0.1119048E+00  0.5871045E+04 -0.1570790E+01  0.4290504E+06 -0.1581918E-03  0.1006191E+03 -0.1571039E+01
  0.1428571E+00  0.7599984E+04 -0.1570794E+01  0.4274627E+06 -0.2711773E-03  0.1307589E+03 -0.1570982E+01
  0.1738095E+00  0.9388260E+04 -0.1570786E+01  0.4254882E+06 -0.4276909E-03  0.1623979E+03 -0.1570929E+01
  0.2047619E+00  0.1128666E+05 -0.1570784E+01  0.4231218E+06 -0.6408055E-03  0.1960989E+03 -0.1570912E+01
  0.2357143E+00  0.1330348E+05 -0.1570777E+01  0.4203616E+06 -0.9298947E-03  0.2335253E+03 -0.1570883E+01
  0.2666667E+00  0.1545659E+05 -0.1570763E+01  0.4172016E+06 -0.1318376E-02  0.2729268E+03 -0.1570854E+01
  0.2976190E+00  0.1781170E+05 -0.1570750E+01  0.4136402E+06 -0.1846168E-02  0.3175725E+03 -0.1570826E+01
  0.3285715E+00  0.2038512E+05 -0.1570724E+01  0.4096761E+06 -0.2553516E-02  0.3678903E+03 -0.1570793E+01
  0.3595238E+00  0.2319525E+05 -0.1570687E+01  0.4053149E+06 -0.3504599E-02  0.4232207E+03 -0.1570748E+01
  0.3904762E+00  0.2631946E+05 -0.1570635E+01  0.4005558E+06 -0.4771022E-02  0.4859648E+03 -0.1570683E+01
  0.4214286E+00  0.2979714E+05 -0.1570557E+01  0.3954510E+06 -0.6398045E-02  0.5611267E+03 -0.1570601E+01
  0.4523810E+00  0.3359012E+05 -0.1570442E+01  0.3899871E+06 -0.8510139E-02  0.6384737E+03 -0.1570481E+01
  0.4833333E+00  0.3771105E+05 -0.1570281E+01  0.3842289E+06 -0.1104948E-01  0.7264769E+03 -0.1570314E+01
  0.5142857E+00  0.4224008E+05 -0.1570059E+01  0.3781922E+06 -0.1416199E-01  0.8283508E+03 -0.1570087E+01
  0.5452381E+00  0.4709534E+05 -0.1569762E+01  0.3719083E+06 -0.1779991E-01  0.9412067E+03 -0.1569787E+01
  0.5761905E+00  0.5219609E+05 -0.1569374E+01  0.3653962E+06 -0.2197100E-01  0.1059097E+04 -0.1569399E+01
  0.6071429E+00  0.5754537E+05 -0.1568875E+01  0.3586898E+06 -0.2679870E-01  0.1183221E+04 -0.1568893E+01
  0.6380953E+00  0.6319935E+05 -0.1568250E+01  0.3517771E+06 -0.3216193E-01  0.1325597E+04 -0.1568268E+01
  0.6690477E+00  0.6912260E+05 -0.1567471E+01  0.3447117E+06 -0.3818007E-01  0.1482708E+04 -0.1567488E+01
  0.7000000E+00  0.7523707E+05 -0.1566513E+01  0.3375298E+06 -0.4492149E-01  0.1645490E+04 -0.1566527E+01
  0.7309524E+00  0.8145621E+05 -0.1565352E+01  0.3302102E+06 -0.5232685E-01  0.1808986E+04 -0.1565364E+01
  0.7619048E+00  0.8786576E+05 -0.1563962E+01  0.3227856E+06 -0.6046844E-01  0.1992214E+04 -0.1563971E+01
  0.7928572E+00  0.9452070E+05 -0.1562312E+01  0.3153024E+06 -0.6938364E-01  0.2188170E+04 -0.1562327E+01
  0.8238096E+00  0.1013610E+06 -0.1560374E+01  0.3077840E+06 -0.7908685E-01  0.2395784E+04 -0.1560390E+01
  0.8547620E+00  0.1083198E+06 -0.1558116E+01  0.3002411E+06 -0.8958744E-01  0.2622473E+04 -0.1558132E+01
  0.8857143E+00  0.1153874E+06 -0.1555508E+01  0.2926798E+06 -0.1008920E+00  0.2860454E+04 -0.1555520E+01
  0.9166667E+00  0.1224692E+06 -0.1552519E+01  0.2851213E+06 -0.1130199E+00  0.3091492E+04 -0.1552517E+01
  0.9476191E+00  0.1295986E+06 -0.1549129E+01  0.2775996E+06 -0.1259896E+00  0.3335524E+04 -0.1549128E+01
  0.9785714E+00  0.1368264E+06 -0.1545328E+01  0.2701377E+06 -0.1398157E+00  0.3605059E+04 -0.1545351E+01
  0.1009524E+01  0.1441499E+06 -0.1541100E+01  0.2627300E+06 -0.1544972E+00  0.3894771E+04 -0.1541143E+01
  0.1040476E+01  0.1514788E+06 -0.1536432E+01  0.2553994E+06 -0.1700325E+00  0.4190500E+04 -0.1536478E+01
  0.1071429E+01  0.1587500E+06 -0.1531310E+01  0.2481642E+06 -0.1864265E+00  0.4494786E+04 -0.1531364E+01
  0.1102381E+01  0.1659089E+06 -0.1525735E+01  0.2410263E+06 -0.2036804E+00  0.4808223E+04 -0.1525776E+01
  0.1133333E+01  0.1728489E+06 -0.1519711E+01  0.2340022E+06 -0.2217941E+00  0.5125200E+04 -0.1519702E+01
  0.1164286E+01  0.1795751E+06 -0.1513266E+01  0.2270627E+06 -0.2407690E+00  0.5448040E+04 -0.1513189E+01
  0.1195238E+01  0.1860948E+06 -0.1506477E+01  0.2202309E+06 -0.2606157E+00  0.5776421E+04 -0.1506398E+01
  0.1226190E+01  0.1923842E+06 -0.1499416E+01  0.2135262E+06 -0.2813430E+00  0.6110120E+04 -0.1499395E+01
  0.1257143E+01  0.1983413E+06 -0.1492090E+01  0.2069602E+06 -0.3031295E+00  0.6442967E+04 -0.1492134E+01
  0.1288095E+01  0.2039887E+06 -0.1484722E+01  0.2005536E+06 -0.3254442E+00  0.6789066E+04 -0.1484715E+01
  0.1319048E+01  0.2091706E+06 -0.1477240E+01  0.1942826E+06 -0.3488024E+00  0.7133828E+04 -0.1477190E+01
  0.1350000E+01  0.2138960E+06 -0.1469809E+01  0.1881369E+06 -0.3730149E+00  0.7481014E+04 -0.1469716E+01
  0.1380952E+01  0.2181372E+06 -0.1462603E+01  0.1821128E+06 -0.3980467E+00  0.7815575E+04 -0.1462524E+01
  0.1411905E+01  0.2214116E+06 -0.1456289E+01  0.1763319E+06 -0.4234730E+00  0.8087842E+04 -0.1456269E+01
  0.1442857E+01  0.2245369E+06 -0.1449968E+01  0.1706185E+06 -0.4502348E+00  0.8390648E+04 -0.1450025E+01
  0.1473810E+01  0.2270792E+06 -0.1444271E+01  0.1650622E+06 -0.4778700E+00  0.8687280E+04 -0.1444249E+01
  0.1504762E+01  0.2290121E+06 -0.1439333E+01  0.1596516E+06 -0.5063712E+00  0.8976458E+04 -0.1439207E+01
  0.1535714E+01  0.2303713E+06 -0.1435351E+01  0.1543750E+06 -0.5357329E+00  0.9256416E+04 -0.1435251E+01
  0.1566667E+01  0.2311569E+06 -0.1432477E+01  0.1492267E+06 -0.5659481E+00  0.9519729E+04 -0.1432338E+01
  0.1597619E+01  0.2313781E+06 -0.1430829E+01  0.1442210E+06 -0.5970111E+00  0.9757250E+04 -0.1430783E+01
  0.1628572E+01  0.2310345E+06 -0.1430517E+01  0.1393612E+06 -0.6289343E+00  0.9972919E+04 -0.1430470E+01
  0.1659524E+01  0.2301633E+06 -0.1431662E+01  0.1346417E+06 -0.6617438E+00  0.1016618E+05 -0.1431616E+01
  0.1690476E+01  0.2288195E+06 -0.1434389E+01  0.1300580E+06 -0.6954195E+00  0.1034560E+05 -0.1434377E+01
  0.1721429E+01  0.2270180E+06 -0.1438774E+01  0.1256255E+06 -0.7299536E+00  0.1051425E+05 -0.1438772E+01
  0.1752381E+01  0.2248133E+06 -0.1444883E+01  0.1213098E+06 -0.7653752E+00  0.1066469E+05 -0.1444880E+01
  0.1783333E+01  0.2222415E+06 -0.1452783E+01  0.1171160E+06 -0.8016639E+00  0.1079744E+05 -0.1452657E+01
  0.1814286E+01  0.2193627E+06 -0.1462512E+01  0.1130362E+06 -0.8388270E+00  0.1091084E+05 -0.1462278E+01
  0.1845238E+01  0.2162123E+06 -0.1474093E+01  0.1090771E+06 -0.8768373E+00  0.1100163E+05 -0.1473821E+01
  0.1876190E+01  0.2128190E+06 -0.1487538E+01  0.1052421E+06 -0.9157322E+00  0.1107536E+05 -0.1487388E+01
  0.1907143E+01  0.2092263E+06 -0.1502867E+01  0.1015263E+06 -0.9555690E+00  0.1113049E+05 -0.1503002E+01
  0.1938095E+01  0.2054748E+06 -0.1520073E+01  0.9791983E+05 -0.9963290E+00  0.1117560E+05 -0.1520437E+01
  0.1969048E+01  0.2016009E+06 -0.1539145E+01  0.9444612E+05 -0.1037911E+01  0.1121467E+05 -0.1539542E+01
  0.2000000E+01  0.1976264E+06 -0.1560055E+01  0.9107179E+05 -0.1080436E+01  0.1124513E+05 -0.1560491E+01
