VARIABLES="w (rad/s)"
"abs(F   1   1)" "angle(F   1   1)"
"abs(F   1   2)" "angle(F   1   2)"
"abs(F   1   3)" "angle(F   1   3)"
Zone t="Diffraction force - beta =   0.000 deg",I=    64,F=POINT
  0.5000000E-01  0.1259644E+04 -0.1570795E+01  0.2154968E+03 -0.3081559E+01  0.1191392E+04  0.1570798E+01
  0.8095238E-01  0.2062069E+04 -0.1570792E+01  0.5573035E+03 -0.3079259E+01  0.1950380E+04  0.1570800E+01
  0.1119048E+00  0.2885022E+04 -0.1570788E+01  0.1057466E+04 -0.3076535E+01  0.2716703E+04  0.1570803E+01
  0.1428571E+00  0.3727000E+04 -0.1570781E+01  0.1717343E+04 -0.3073152E+01  0.3502873E+04  0.1570808E+01
  0.1738095E+00  0.4605174E+04 -0.1570771E+01  0.2541563E+04 -0.3068958E+01  0.4316905E+04  0.1570815E+01
  0.2047619E+00  0.5522188E+04 -0.1570757E+01  0.3534952E+04 -0.3063737E+01  0.5165219E+04  0.1570826E+01
  0.2357143E+00  0.6503003E+04 -0.1570737E+01  0.4699614E+04 -0.3057107E+01  0.6058914E+04  0.1570841E+01
  0.2666667E+00  0.7546873E+04 -0.1570707E+01  0.6052515E+04 -0.3049210E+01  0.7003064E+04  0.1570864E+01
  0.2976190E+00  0.8670938E+04 -0.1570662E+01  0.7588333E+04 -0.3039187E+01  0.8017669E+04  0.1570898E+01
  0.3285715E+00  0.9907307E+04 -0.1570596E+01  0.9316640E+04 -0.3027194E+01  0.9110999E+04  0.1570947E+01
  0.3595238E+00  0.1126047E+05 -0.1570497E+01  0.1124929E+05 -0.3012766E+01  0.1028934E+05  0.1571021E+01
  0.3904762E+00  0.1272879E+05 -0.1570348E+01  0.1338847E+05 -0.2995721E+01  0.1157624E+05  0.1571130E+01
  0.4214286E+00  0.1437927E+05 -0.1570132E+01  0.1568599E+05 -0.2976425E+01  0.1296435E+05  0.1571290E+01
  0.4523810E+00  0.1618872E+05 -0.1569816E+01  0.1818099E+05 -0.2954247E+01  0.1448783E+05  0.1571524E+01
  0.4833333E+00  0.1811221E+05 -0.1569377E+01  0.2082660E+05 -0.2931819E+01  0.1613138E+05  0.1571844E+01
  0.5142857E+00  0.2021457E+05 -0.1568769E+01  0.2361064E+05 -0.2907453E+01  0.1783125E+05  0.1572287E+01
  0.5452381E+00  0.2247104E+05 -0.1567963E+01  0.2650415E+05 -0.2882928E+01  0.1963190E+05  0.1572873E+01
  0.5761905E+00  0.2485131E+05 -0.1566917E+01  0.2950995E+05 -0.2858838E+01  0.2151718E+05  0.1573627E+01
  0.6071429E+00  0.2731045E+05 -0.1565566E+01  0.3263226E+05 -0.2834335E+01  0.2347496E+05  0.1574591E+01
  0.6380953E+00  0.2985215E+05 -0.1563885E+01  0.3586072E+05 -0.2811160E+01  0.2542092E+05  0.1575782E+01
  0.6690477E+00  0.3253573E+05 -0.1561816E+01  0.3914775E+05 -0.2787951E+01  0.2735912E+05  0.1577246E+01
  0.7000000E+00  0.3531320E+05 -0.1559286E+01  0.4248494E+05 -0.2764467E+01  0.2933647E+05  0.1579021E+01
  0.7309524E+00  0.3810623E+05 -0.1556237E+01  0.4591048E+05 -0.2742029E+01  0.3131762E+05  0.1581131E+01
  0.7619048E+00  0.4092385E+05 -0.1552590E+01  0.4940316E+05 -0.2720186E+01  0.3329794E+05  0.1583617E+01
  0.7928572E+00  0.4381034E+05 -0.1548297E+01  0.5293138E+05 -0.2698596E+01  0.3518569E+05  0.1586529E+01
  0.8238096E+00  0.4674243E+05 -0.1543288E+01  0.5646450E+05 -0.2677131E+01  0.3703272E+05  0.1589891E+01
  0.8547620E+00  0.4971633E+05 -0.1537504E+01  0.6000143E+05 -0.2656007E+01  0.3882718E+05  0.1593729E+01
  0.8857143E+00  0.5270134E+05 -0.1530873E+01  0.6353835E+05 -0.2635395E+01  0.4054416E+05  0.1598069E+01
  0.9166667E+00  0.5567375E+05 -0.1523330E+01  0.6708634E+05 -0.2615597E+01  0.4220383E+05  0.1602913E+01
  0.9476191E+00  0.5854071E+05 -0.1514766E+01  0.7061301E+05 -0.2596320E+01  0.4382545E+05  0.1608261E+01
  0.9785714E+00  0.6133568E+05 -0.1505171E+01  0.7411347E+05 -0.2577608E+01  0.4526721E+05  0.1614148E+01
  0.1009524E+01  0.6408935E+05 -0.1494557E+01  0.7756366E+05 -0.2559266E+01  0.4656496E+05  0.1620548E+01
  0.1040476E+01  0.6679112E+05 -0.1482918E+01  0.8095809E+05 -0.2541404E+01  0.4767707E+05  0.1627445E+01
  0.1071429E+01  0.6938457E+05 -0.1470213E+01  0.8427196E+05 -0.2523834E+01  0.4870820E+05  0.1634742E+01
  0.1102381E+01  0.7178454E+05 -0.1456370E+01  0.8750951E+05 -0.2506741E+01  0.4957723E+05  0.1642403E+01
  0.1133333E+01  0.7399622E+05 -0.1441425E+01  0.9067473E+05 -0.2490439E+01  0.5030745E+05  0.1650311E+01
  0.1164286E+01  0.7595893E+05 -0.1425365E+01  0.9376649E+05 -0.2474943E+01  0.5086597E+05  0.1658348E+01
  0.1195238E+01  0.7763815E+05 -0.1408229E+01  0.9677589E+05 -0.2460255E+01  0.5121807E+05  0.1666400E+01
  0.1226190E+01  0.7903258E+05 -0.1390180E+01  0.9969175E+05 -0.2446230E+01  0.5137886E+05  0.1674308E+01
  0.1257143E+01  0.8006555E+05 -0.1371048E+01  0.1025363E+06 -0.2432332E+01  0.5138728E+05  0.1682036E+01
  0.1288095E+01  0.8077375E+05 -0.1351508E+01  0.1051810E+06 -0.2419199E+01  0.5109830E+05  0.1689190E+01
  0.1319048E+01  0.8113373E+05 -0.1331229E+01  0.1077463E+06 -0.2406443E+01  0.5072958E+05  0.1695707E+01
  0.1350000E+01  0.8107141E+05 -0.1310399E+01  0.1101788E+06 -0.2394120E+01  0.5015593E+05  0.1701302E+01
  0.1380952E+01  0.8060399E+05 -0.1289276E+01  0.1124785E+06 -0.2382649E+01  0.4942634E+05  0.1705735E+01
  0.1411905E+01  0.7898216E+05 -0.1269833E+01  0.1138260E+06 -0.2369432E+01  0.4869296E+05  0.1707053E+01
  0.1442857E+01  0.7765334E+05 -0.1248610E+01  0.1158377E+06 -0.2358822E+01  0.4775053E+05  0.1708643E+01
  0.1473810E+01  0.7584588E+05 -0.1227540E+01  0.1177012E+06 -0.2348552E+01  0.4661584E+05  0.1708441E+01
  0.1504762E+01  0.7361381E+05 -0.1206933E+01  0.1194224E+06 -0.2338918E+01  0.4544507E+05  0.1706411E+01
  0.1535714E+01  0.7096417E+05 -0.1187103E+01  0.1209896E+06 -0.2329909E+01  0.4424461E+05  0.1702351E+01
  0.1566667E+01  0.6784133E+05 -0.1168018E+01  0.1223972E+06 -0.2321194E+01  0.4295263E+05  0.1696173E+01
  0.1597619E+01  0.6432739E+05 -0.1150289E+01  0.1236469E+06 -0.2313160E+01  0.4169000E+05  0.1688001E+01
  0.1628572E+01  0.6043032E+05 -0.1134308E+01  0.1247299E+06 -0.2305608E+01  0.4044696E+05  0.1677835E+01
  0.1659524E+01  0.5616622E+05 -0.1120235E+01  0.1256627E+06 -0.2298371E+01  0.3928889E+05  0.1666207E+01
  0.1690476E+01  0.5155239E+05 -0.1108778E+01  0.1264259E+06 -0.2291451E+01  0.3815798E+05  0.1653052E+01
  0.1721429E+01  0.4663646E+05 -0.1100811E+01  0.1270214E+06 -0.2284951E+01  0.3709858E+05  0.1639004E+01
  0.1752381E+01  0.4147872E+05 -0.1097832E+01  0.1274478E+06 -0.2279106E+01  0.3616338E+05  0.1624849E+01
  0.1783333E+01  0.3608998E+05 -0.1101812E+01  0.1276892E+06 -0.2273780E+01  0.3530038E+05  0.1610794E+01
  0.1814286E+01  0.3050780E+05 -0.1116166E+01  0.1277444E+06 -0.2268903E+01  0.3452883E+05  0.1597672E+01
  0.1845238E+01  0.2480636E+05 -0.1148142E+01  0.1276069E+06 -0.2264779E+01  0.3387409E+05  0.1586303E+01
  0.1876190E+01  0.1906386E+05 -0.1213492E+01  0.1272921E+06 -0.2261112E+01  0.3329848E+05  0.1577024E+01
  0.1907143E+01  0.1346291E+05 -0.1352442E+01  0.1268220E+06 -0.2257787E+01  0.3283448E+05  0.1570963E+01
  0.1938095E+01  0.8552852E+04 -0.1694277E+01  0.1261798E+06 -0.2254861E+01  0.3246357E+05  0.1568479E+01
  0.1969048E+01  0.6514984E+04 -0.2498418E+01  0.1253634E+06 -0.2252061E+01  0.3215625E+05  0.1569699E+01
  0.2000000E+01  0.9544815E+04  0.3082385E+01  0.1243737E+06 -0.2249855E+01  0.3193692E+05  0.1575464E+01
