VARIABLES="w (rad/s)"
"abs(F   1   1)" "angle(F   1   1)"
"abs(F   1   2)" "angle(F   1   2)"
"abs(F   1   3)" "angle(F   1   3)"
Zone t="Diffraction force - beta =   0.000 deg",I=    64,F=POINT
  0.5000000E-01  0.1673038E+04 -0.1570794E+01  0.2965186E+03 -0.3101793E+01  0.2607922E+04  0.1570798E+01
  0.8095238E-01  0.2736028E+04 -0.1570790E+01  0.7688039E+03 -0.3100448E+01  0.4260105E+04  0.1570802E+01
  0.1119048E+00  0.3819752E+04 -0.1570783E+01  0.1460602E+04 -0.3098821E+01  0.5951740E+04  0.1570808E+01
  0.1428571E+00  0.4956107E+04 -0.1570773E+01  0.2370762E+04 -0.3096723E+01  0.7716940E+04  0.1570816E+01
  0.1738095E+00  0.6123460E+04 -0.1570758E+01  0.3501857E+04 -0.3094101E+01  0.9539395E+04  0.1570829E+01
  0.2047619E+00  0.7379298E+04 -0.1570736E+01  0.4859872E+04 -0.3090837E+01  0.1149830E+05  0.1570847E+01
  0.2357143E+00  0.8702128E+04 -0.1570704E+01  0.6423931E+04 -0.3086525E+01  0.1357349E+05  0.1570873E+01
  0.2666667E+00  0.1012855E+05 -0.1570658E+01  0.8232265E+04 -0.3081520E+01  0.1580611E+05  0.1570912E+01
  0.2976190E+00  0.1171836E+05 -0.1570589E+01  0.1023530E+05 -0.3074951E+01  0.1828645E+05  0.1570970E+01
  0.3285715E+00  0.1341791E+05 -0.1570487E+01  0.1249358E+05 -0.3067396E+01  0.2095730E+05  0.1571056E+01
  0.3595238E+00  0.1531624E+05 -0.1570333E+01  0.1491341E+05 -0.3057861E+01  0.2395102E+05  0.1571184E+01
  0.3904762E+00  0.1743329E+05 -0.1570104E+01  0.1759689E+05 -0.3046991E+01  0.2727493E+05  0.1571376E+01
  0.4214286E+00  0.1982722E+05 -0.1569771E+01  0.2036900E+05 -0.3034404E+01  0.3100796E+05  0.1571656E+01
  0.4523810E+00  0.2237276E+05 -0.1569279E+01  0.2335474E+05 -0.3020087E+01  0.3506289E+05  0.1572069E+01
  0.4833333E+00  0.2524689E+05 -0.1568599E+01  0.2642282E+05 -0.3005669E+01  0.3955079E+05  0.1572641E+01
  0.5142857E+00  0.2846175E+05 -0.1567662E+01  0.2956282E+05 -0.2989851E+01  0.4462810E+05  0.1573430E+01
  0.5452381E+00  0.3184495E+05 -0.1566406E+01  0.3286258E+05 -0.2974765E+01  0.4995274E+05  0.1574489E+01
  0.5761905E+00  0.3546243E+05 -0.1564775E+01  0.3604705E+05 -0.2959175E+01  0.5570293E+05  0.1575862E+01
  0.6071429E+00  0.3932773E+05 -0.1562673E+01  0.3934063E+05 -0.2943631E+01  0.6180445E+05  0.1577636E+01
  0.6380953E+00  0.4349271E+05 -0.1560065E+01  0.4268051E+05 -0.2929514E+01  0.6832699E+05  0.1579844E+01
  0.6690477E+00  0.4795896E+05 -0.1556847E+01  0.4588155E+05 -0.2914787E+01  0.7534554E+05  0.1582575E+01
  0.7000000E+00  0.5247464E+05 -0.1552863E+01  0.4912215E+05 -0.2900535E+01  0.8246917E+05  0.1585956E+01
  0.7309524E+00  0.5711985E+05 -0.1548045E+01  0.5239864E+05 -0.2887578E+01  0.8991047E+05  0.1590036E+01
  0.7619048E+00  0.6222107E+05 -0.1542359E+01  0.5542223E+05 -0.2873712E+01  0.9784821E+05  0.1594886E+01
  0.7928572E+00  0.6756955E+05 -0.1535641E+01  0.5842823E+05 -0.2860518E+01  0.1062786E+06  0.1600618E+01
  0.8238096E+00  0.7304573E+05 -0.1527733E+01  0.6145300E+05 -0.2848515E+01  0.1148461E+06  0.1607386E+01
  0.8547620E+00  0.7869913E+05 -0.1518538E+01  0.6424440E+05 -0.2836270E+01  0.1235862E+06  0.1615290E+01
  0.8857143E+00  0.8463516E+05 -0.1507976E+01  0.6682230E+05 -0.2823806E+01  0.1329368E+06  0.1624363E+01
  0.9166667E+00  0.9049011E+05 -0.1495781E+01  0.6936352E+05 -0.2812444E+01  0.1422716E+06  0.1634819E+01
  0.9476191E+00  0.9658521E+05 -0.1482066E+01  0.7184315E+05 -0.2802093E+01  0.1517977E+06  0.1646611E+01
  0.9785714E+00  0.1029417E+06 -0.1466744E+01  0.7408714E+05 -0.2791783E+01  0.1615862E+06  0.1659847E+01
  0.1009524E+01  0.1095217E+06 -0.1449714E+01  0.7599009E+05 -0.2780809E+01  0.1716068E+06  0.1674647E+01
  0.1040476E+01  0.1161614E+06 -0.1430807E+01  0.7780164E+05 -0.2770617E+01  0.1819911E+06  0.1691025E+01
  0.1071429E+01  0.1225874E+06 -0.1409791E+01  0.7948746E+05 -0.2761402E+01  0.1918378E+06  0.1709299E+01
  0.1102381E+01  0.1289049E+06 -0.1386681E+01  0.8110591E+05 -0.2753420E+01  0.2017198E+06  0.1729351E+01
  0.1133333E+01  0.1350062E+06 -0.1361468E+01  0.8234383E+05 -0.2744824E+01  0.2111280E+06  0.1751269E+01
  0.1164286E+01  0.1409421E+06 -0.1334327E+01  0.8329173E+05 -0.2736017E+01  0.2202142E+06  0.1774863E+01
  0.1195238E+01  0.1468031E+06 -0.1305663E+01  0.8412553E+05 -0.2727764E+01  0.2293452E+06  0.1799623E+01
  0.1226190E+01  0.1521399E+06 -0.1275081E+01  0.8480988E+05 -0.2720381E+01  0.2373993E+06  0.1826108E+01
  0.1257143E+01  0.1568717E+06 -0.1242426E+01  0.8538640E+05 -0.2713730E+01  0.2446309E+06  0.1854334E+01
  0.1288095E+01  0.1612355E+06 -0.1208485E+01  0.8582107E+05 -0.2708403E+01  0.2513385E+06  0.1883611E+01
  0.1319048E+01  0.1647704E+06 -0.1172839E+01  0.8572956E+05 -0.2701333E+01  0.2563379E+06  0.1914382E+01
  0.1350000E+01  0.1677308E+06 -0.1136181E+01  0.8551202E+05 -0.2694847E+01  0.2607307E+06  0.1945764E+01
  0.1380952E+01  0.1699777E+06 -0.1098901E+01  0.8517070E+05 -0.2688894E+01  0.2641807E+06  0.1977322E+01
  0.1411905E+01  0.1707987E+06 -0.1059971E+01  0.8467787E+05 -0.2683547E+01  0.2655349E+06  0.2009800E+01
  0.1442857E+01  0.1710099E+06 -0.1021114E+01  0.8409463E+05 -0.2679082E+01  0.2657010E+06  0.2042233E+01
  0.1473810E+01  0.1702965E+06 -0.9818411E+00  0.8342643E+05 -0.2675466E+01  0.2646635E+06  0.2074547E+01
  0.1504762E+01  0.1686174E+06 -0.9427254E+00  0.8240592E+05 -0.2671356E+01  0.2618506E+06  0.2106311E+01
  0.1535714E+01  0.1660882E+06 -0.9044695E+00  0.8111236E+05 -0.2667079E+01  0.2574688E+06  0.2136825E+01
  0.1566667E+01  0.1628986E+06 -0.8670543E+00  0.7975266E+05 -0.2663207E+01  0.2526773E+06  0.2165828E+01
  0.1597619E+01  0.1587013E+06 -0.8300051E+00  0.7828397E+05 -0.2659704E+01  0.2464066E+06  0.2193824E+01
  0.1628572E+01  0.1535748E+06 -0.7935532E+00  0.7672958E+05 -0.2656853E+01  0.2386439E+06  0.2220484E+01
  0.1659524E+01  0.1476702E+06 -0.7581445E+00  0.7510893E+05 -0.2654633E+01  0.2296702E+06  0.2245205E+01
  0.1690476E+01  0.1411921E+06 -0.7239462E+00  0.7342954E+05 -0.2652997E+01  0.2200821E+06  0.2267627E+01
  0.1721429E+01  0.1341393E+06 -0.6909992E+00  0.7162559E+05 -0.2651762E+01  0.2096210E+06  0.2287680E+01
  0.1752381E+01  0.1265424E+06 -0.6596053E+00  0.6953640E+05 -0.2650134E+01  0.1980614E+06  0.2304961E+01
  0.1783333E+01  0.1186032E+06 -0.6297520E+00  0.6740178E+05 -0.2649050E+01  0.1862134E+06  0.2319234E+01
  0.1814286E+01  0.1105069E+06 -0.6017287E+00  0.6523293E+05 -0.2648203E+01  0.1746379E+06  0.2330001E+01
  0.1845238E+01  0.1019506E+06 -0.5744193E+00  0.6302809E+05 -0.2647711E+01  0.1623611E+06  0.2337503E+01
  0.1876190E+01  0.9311759E+05 -0.5482415E+00  0.6080184E+05 -0.2647752E+01  0.1497191E+06  0.2340947E+01
  0.1907143E+01  0.8404798E+05 -0.5229923E+00  0.5856886E+05 -0.2648343E+01  0.1367761E+06  0.2339631E+01
  0.1938095E+01  0.7497584E+05 -0.4989316E+00  0.5631438E+05 -0.2649486E+01  0.1242040E+06  0.2332853E+01
  0.1969048E+01  0.6584816E+05 -0.4754767E+00  0.5404771E+05 -0.2651246E+01  0.1117856E+06  0.2319420E+01
  0.2000000E+01  0.5667838E+05 -0.4532323E+00  0.5168943E+05 -0.2653059E+01  0.9931010E+05  0.2296350E+01
