VARIABLES="w (rad/s)"
"abs(F   1   1)" "angle(F   1   1)"
"abs(F   1   2)" "angle(F   1   2)"
"abs(F   1   3)" "angle(F   1   3)"
Zone t="Diffraction force - beta =   0.000 deg",I=    64,F=POINT
  0.5000000E-01  0.4352255E+04 -0.1570806E+01  0.4213271E+06 -0.2800237E-04  0.5666505E+04  0.1570786E+01
  0.8095238E-01  0.7100500E+04 -0.1570794E+01  0.4201753E+06 -0.7526091E-04  0.9243309E+04  0.1570802E+01
  0.1119048E+00  0.9908364E+04 -0.1570789E+01  0.4184839E+06 -0.1492363E-03  0.1290504E+05  0.1570808E+01
  0.1428571E+00  0.1282464E+05 -0.1570788E+01  0.4162541E+06 -0.2554689E-03  0.1670552E+05  0.1570800E+01
  0.1738095E+00  0.1584661E+05 -0.1570784E+01  0.4134850E+06 -0.4020596E-03  0.2065059E+05  0.1570807E+01
  0.2047619E+00  0.1905333E+05 -0.1570773E+01  0.4101722E+06 -0.6011135E-03  0.2484459E+05  0.1570824E+01
  0.2357143E+00  0.2244821E+05 -0.1570760E+01  0.4063387E+06 -0.8701334E-03  0.2929647E+05  0.1570835E+01
  0.2666667E+00  0.2609652E+05 -0.1570744E+01  0.4019495E+06 -0.1229597E-02  0.3408084E+05  0.1570849E+01
  0.2976190E+00  0.3009084E+05 -0.1570717E+01  0.3970585E+06 -0.1716594E-02  0.3932633E+05  0.1570876E+01
  0.3285715E+00  0.3441368E+05 -0.1570674E+01  0.3916112E+06 -0.2364929E-02  0.4501809E+05  0.1570916E+01
  0.3595238E+00  0.3919224E+05 -0.1570616E+01  0.3857094E+06 -0.3233694E-02  0.5133320E+05  0.1570979E+01
  0.3904762E+00  0.4448288E+05 -0.1570524E+01  0.3792608E+06 -0.4382780E-02  0.5832195E+05  0.1571067E+01
  0.4214286E+00  0.5037375E+05 -0.1570392E+01  0.3724527E+06 -0.5850833E-02  0.6609899E+05  0.1571200E+01
  0.4523810E+00  0.5675719E+05 -0.1570198E+01  0.3651753E+06 -0.7751816E-02  0.7459872E+05  0.1571395E+01
  0.4833333E+00  0.6381193E+05 -0.1569928E+01  0.3575702E+06 -0.1001339E-01  0.8393561E+05  0.1571665E+01
  0.5142857E+00  0.7153602E+05 -0.1569549E+01  0.3496670E+06 -0.1278024E-01  0.9425121E+05  0.1572045E+01
  0.5452381E+00  0.7973121E+05 -0.1569043E+01  0.3413844E+06 -0.1598559E-01  0.1051750E+06  0.1572550E+01
  0.5761905E+00  0.8843227E+05 -0.1568381E+01  0.3330128E+06 -0.1963778E-01  0.1168506E+06  0.1573213E+01
  0.6071429E+00  0.9762145E+05 -0.1567525E+01  0.3243421E+06 -0.2385724E-01  0.1291684E+06  0.1574069E+01
  0.6380953E+00  0.1073226E+06 -0.1566448E+01  0.3154340E+06 -0.2848505E-01  0.1421668E+06  0.1575144E+01
  0.6690477E+00  0.1175126E+06 -0.1565103E+01  0.3064995E+06 -0.3366780E-01  0.1558926E+06  0.1576490E+01
  0.7000000E+00  0.1279183E+06 -0.1563440E+01  0.2973673E+06 -0.3944607E-01  0.1699308E+06  0.1578153E+01
  0.7309524E+00  0.1386006E+06 -0.1561421E+01  0.2880419E+06 -0.4572934E-01  0.1844720E+06  0.1580173E+01
  0.7619048E+00  0.1498675E+06 -0.1558991E+01  0.2788451E+06 -0.5263283E-01  0.1996733E+06  0.1582600E+01
  0.7928572E+00  0.1614923E+06 -0.1556089E+01  0.2695408E+06 -0.6016567E-01  0.2155103E+06  0.1585502E+01
  0.8238096E+00  0.1733372E+06 -0.1552654E+01  0.2600958E+06 -0.6831168E-01  0.2316052E+06  0.1588937E+01
  0.8547620E+00  0.1854320E+06 -0.1548625E+01  0.2507885E+06 -0.7708105E-01  0.2479707E+06  0.1592966E+01
  0.8857143E+00  0.1978622E+06 -0.1543940E+01  0.2416136E+06 -0.8652535E-01  0.2650205E+06  0.1597656E+01
  0.9166667E+00  0.2102423E+06 -0.1538533E+01  0.2323864E+06 -0.9663133E-01  0.2821021E+06  0.1603068E+01
  0.9476191E+00  0.2228706E+06 -0.1532385E+01  0.2231417E+06 -0.1074248E+00  0.2993948E+06  0.1609208E+01
  0.9785714E+00  0.2357440E+06 -0.1525426E+01  0.2140763E+06 -0.1188874E+00  0.3169407E+06  0.1616153E+01
  0.1009524E+01  0.2487976E+06 -0.1517600E+01  0.2053202E+06 -0.1310245E+00  0.3346762E+06  0.1623975E+01
  0.1040476E+01  0.2618382E+06 -0.1508855E+01  0.1966137E+06 -0.1439508E+00  0.3526982E+06  0.1632724E+01
  0.1071429E+01  0.2745601E+06 -0.1499158E+01  0.1879879E+06 -0.1575634E+00  0.3700670E+06  0.1642426E+01
  0.1102381E+01  0.2870349E+06 -0.1488485E+01  0.1793908E+06 -0.1719721E+00  0.3873153E+06  0.1653122E+01
  0.1133333E+01  0.2991192E+06 -0.1476867E+01  0.1711753E+06 -0.1869847E+00  0.4038909E+06  0.1664763E+01
  0.1164286E+01  0.3108283E+06 -0.1464367E+01  0.1632565E+06 -0.2026787E+00  0.4199047E+06  0.1677277E+01
  0.1195238E+01  0.3222216E+06 -0.1451127E+01  0.1554636E+06 -0.2193516E+00  0.4356876E+06  0.1690487E+01
  0.1226190E+01  0.3328080E+06 -0.1437177E+01  0.1478174E+06 -0.2367926E+00  0.4500668E+06  0.1704406E+01
  0.1257143E+01  0.3424646E+06 -0.1422527E+01  0.1403003E+06 -0.2552876E+00  0.4632474E+06  0.1719071E+01
  0.1288095E+01  0.3514079E+06 -0.1407446E+01  0.1329148E+06 -0.2744711E+00  0.4755035E+06  0.1734184E+01
  0.1319048E+01  0.3591385E+06 -0.1392047E+01  0.1261274E+06 -0.2938857E+00  0.4856052E+06  0.1749569E+01
  0.1350000E+01  0.3658985E+06 -0.1376559E+01  0.1195097E+06 -0.3142779E+00  0.4946411E+06  0.1765066E+01
  0.1380952E+01  0.3715458E+06 -0.1361304E+01  0.1130709E+06 -0.3357389E+00  0.5022738E+06  0.1780304E+01
  0.1411905E+01  0.3753309E+06 -0.1346440E+01  0.1068325E+06 -0.3580992E+00  0.5073140E+06  0.1795144E+01
  0.1442857E+01  0.3781118E+06 -0.1332265E+01  0.1007424E+06 -0.3816608E+00  0.5106921E+06  0.1809345E+01
  0.1473810E+01  0.3795638E+06 -0.1318912E+01  0.9480642E+05 -0.4065937E+00  0.5123929E+06  0.1822788E+01
  0.1504762E+01  0.3796898E+06 -0.1306798E+01  0.8928556E+05 -0.4314460E+00  0.5118980E+06  0.1834880E+01
  0.1535714E+01  0.3786619E+06 -0.1296249E+01  0.8410288E+05 -0.4563326E+00  0.5094781E+06  0.1845244E+01
  0.1566667E+01  0.3766824E+06 -0.1287177E+01  0.7909599E+05 -0.4826956E+00  0.5062895E+06  0.1854330E+01
  0.1597619E+01  0.3734333E+06 -0.1279905E+01  0.7429762E+05 -0.5101633E+00  0.5012943E+06  0.1861694E+01
  0.1628572E+01  0.3690443E+06 -0.1274638E+01  0.6967963E+05 -0.5388203E+00  0.4945427E+06  0.1867025E+01
  0.1659524E+01  0.3637281E+06 -0.1271555E+01  0.6523743E+05 -0.5689508E+00  0.4863880E+06  0.1870100E+01
  0.1690476E+01  0.3577224E+06 -0.1270601E+01  0.6097485E+05 -0.6007516E+00  0.4774497E+06  0.1871126E+01
  0.1721429E+01  0.3510738E+06 -0.1271930E+01  0.5693660E+05 -0.6333569E+00  0.4675219E+06  0.1869827E+01
  0.1752381E+01  0.3438780E+06 -0.1275738E+01  0.5323459E+05 -0.6641938E+00  0.4564623E+06  0.1865757E+01
  0.1783333E+01  0.3363421E+06 -0.1281807E+01  0.4969867E+05 -0.6962012E+00  0.4450449E+06  0.1859520E+01
  0.1814286E+01  0.3286663E+06 -0.1289946E+01  0.4634474E+05 -0.7296913E+00  0.4338070E+06  0.1851578E+01
  0.1845238E+01  0.3205694E+06 -0.1300529E+01  0.4316563E+05 -0.7645017E+00  0.4218483E+06  0.1841093E+01
  0.1876190E+01  0.3122635E+06 -0.1313467E+01  0.4014564E+05 -0.8007881E+00  0.4095127E+06  0.1828177E+01
  0.1907143E+01  0.3038016E+06 -0.1328767E+01  0.3727974E+05 -0.8388643E+00  0.3968702E+06  0.1812776E+01
  0.1938095E+01  0.2953923E+06 -0.1346032E+01  0.3457080E+05 -0.8783022E+00  0.3844858E+06  0.1795717E+01
  0.1969048E+01  0.2869871E+06 -0.1365359E+01  0.3201114E+05 -0.9192098E+00  0.3721548E+06  0.1776692E+01
  0.2000000E+01  0.2786509E+06 -0.1386895E+01  0.2963671E+05 -0.9589016E+00  0.3597355E+06  0.1755019E+01
