VARIABLES="w (rad/s)"
"abs(F   1   1)" "angle(F   1   1)"
"abs(F   1   2)" "angle(F   1   2)"
"abs(F   1   3)" "angle(F   1   3)"
Zone t="Diffraction force - beta =   0.000 deg",I=    64,F=POINT
  0.5000000E-01  0.2180024E+04 -0.1570794E+01  0.3790065E+03 -0.3079665E+01  0.1436113E+04  0.1570797E+01
  0.8095238E-01  0.3558455E+04 -0.1570789E+01  0.9791402E+03 -0.3077281E+01  0.2344540E+04  0.1570797E+01
  0.1119048E+00  0.4958628E+04 -0.1570781E+01  0.1856552E+04 -0.3074513E+01  0.3259642E+04  0.1570797E+01
  0.1428571E+00  0.6398862E+04 -0.1570770E+01  0.3014176E+04 -0.3071121E+01  0.4203127E+04  0.1570797E+01
  0.1738095E+00  0.7895770E+04 -0.1570753E+01  0.4453652E+04 -0.3066847E+01  0.5155242E+04  0.1570797E+01
  0.2047619E+00  0.9459426E+04 -0.1570729E+01  0.6188960E+04 -0.3061613E+01  0.6157405E+04  0.1570797E+01
  0.2357143E+00  0.1110568E+05 -0.1570693E+01  0.8222479E+04 -0.3055005E+01  0.7199661E+04  0.1570798E+01
  0.2666667E+00  0.1286930E+05 -0.1570642E+01  0.1056194E+05 -0.3047002E+01  0.8277760E+04  0.1570798E+01
  0.2976190E+00  0.1475865E+05 -0.1570566E+01  0.1322971E+05 -0.3037059E+01  0.9438617E+04  0.1570796E+01
  0.3285715E+00  0.1679432E+05 -0.1570453E+01  0.1622454E+05 -0.3025224E+01  0.1068152E+05  0.1570791E+01
  0.3595238E+00  0.1903654E+05 -0.1570285E+01  0.1953069E+05 -0.3010783E+01  0.1197488E+05  0.1570781E+01
  0.3904762E+00  0.2147410E+05 -0.1570035E+01  0.2318618E+05 -0.2993933E+01  0.1339425E+05  0.1570765E+01
  0.4214286E+00  0.2412939E+05 -0.1569672E+01  0.2712322E+05 -0.2975157E+01  0.1492665E+05  0.1570733E+01
  0.4523810E+00  0.2702946E+05 -0.1569142E+01  0.3134978E+05 -0.2953431E+01  0.1651930E+05  0.1570678E+01
  0.4833333E+00  0.3018321E+05 -0.1568415E+01  0.3577432E+05 -0.2931538E+01  0.1817290E+05  0.1570579E+01
  0.5142857E+00  0.3351786E+05 -0.1567410E+01  0.4042282E+05 -0.2908029E+01  0.1998513E+05  0.1570428E+01
  0.5452381E+00  0.3701925E+05 -0.1566083E+01  0.4526797E+05 -0.2884926E+01  0.2185770E+05  0.1570193E+01
  0.5761905E+00  0.4070145E+05 -0.1564378E+01  0.5021610E+05 -0.2862197E+01  0.2365105E+05  0.1569826E+01
  0.6071429E+00  0.4452195E+05 -0.1562204E+01  0.5525965E+05 -0.2838865E+01  0.2544523E+05  0.1569287E+01
  0.6380953E+00  0.4840949E+05 -0.1559525E+01  0.6046827E+05 -0.2817503E+01  0.2728588E+05  0.1568534E+01
  0.6690477E+00  0.5231759E+05 -0.1556241E+01  0.6576741E+05 -0.2796709E+01  0.2914592E+05  0.1567506E+01
  0.7000000E+00  0.5624181E+05 -0.1552263E+01  0.7108525E+05 -0.2775783E+01  0.3090261E+05  0.1566090E+01
  0.7309524E+00  0.6020316E+05 -0.1547563E+01  0.7644623E+05 -0.2755892E+01  0.3247768E+05  0.1564147E+01
  0.7619048E+00  0.6414929E+05 -0.1542046E+01  0.8180818E+05 -0.2736605E+01  0.3397447E+05  0.1561584E+01
  0.7928572E+00  0.6799215E+05 -0.1535620E+01  0.8715291E+05 -0.2717932E+01  0.3549419E+05  0.1558333E+01
  0.8238096E+00  0.7169613E+05 -0.1528226E+01  0.9250029E+05 -0.2700281E+01  0.3699543E+05  0.1554261E+01
  0.8547620E+00  0.7521587E+05 -0.1519821E+01  0.9780653E+05 -0.2683460E+01  0.3840589E+05  0.1549193E+01
  0.8857143E+00  0.7855164E+05 -0.1510398E+01  0.1030132E+06 -0.2667257E+01  0.3964576E+05  0.1542898E+01
  0.9166667E+00  0.8164998E+05 -0.1499942E+01  0.1080883E+06 -0.2651646E+01  0.4078391E+05  0.1535282E+01
  0.9476191E+00  0.8446888E+05 -0.1488469E+01  0.1130202E+06 -0.2636778E+01  0.4187248E+05  0.1526287E+01
  0.9785714E+00  0.8691338E+05 -0.1475967E+01  0.1178104E+06 -0.2622915E+01  0.4298476E+05  0.1515962E+01
  0.1009524E+01  0.8891708E+05 -0.1462484E+01  0.1224571E+06 -0.2610270E+01  0.4416348E+05  0.1504426E+01
  0.1040476E+01  0.9042882E+05 -0.1448108E+01  0.1269415E+06 -0.2598797E+01  0.4545587E+05  0.1491981E+01
  0.1071429E+01  0.9136185E+05 -0.1432935E+01  0.1312337E+06 -0.2588145E+01  0.4681529E+05  0.1478800E+01
  0.1102381E+01  0.9172707E+05 -0.1417227E+01  0.1353268E+06 -0.2578557E+01  0.4824790E+05  0.1465283E+01
  0.1133333E+01  0.9145241E+05 -0.1401137E+01  0.1391622E+06 -0.2569713E+01  0.4982156E+05  0.1452091E+01
  0.1164286E+01  0.9051229E+05 -0.1384959E+01  0.1427761E+06 -0.2562077E+01  0.5157836E+05  0.1439943E+01
  0.1195238E+01  0.8887407E+05 -0.1368991E+01  0.1461403E+06 -0.2555531E+01  0.5358400E+05  0.1429719E+01
  0.1226190E+01  0.8647252E+05 -0.1353516E+01  0.1492461E+06 -0.2550043E+01  0.5583603E+05  0.1422054E+01
  0.1257143E+01  0.8334871E+05 -0.1338939E+01  0.1521205E+06 -0.2545489E+01  0.5839318E+05  0.1417717E+01
  0.1288095E+01  0.7945490E+05 -0.1326267E+01  0.1547011E+06 -0.2542971E+01  0.6123645E+05  0.1417466E+01
  0.1319048E+01  0.7482984E+05 -0.1315753E+01  0.1570546E+06 -0.2541232E+01  0.6439365E+05  0.1421399E+01
  0.1350000E+01  0.6948516E+05 -0.1308578E+01  0.1591787E+06 -0.2540700E+01  0.6784837E+05  0.1429747E+01
  0.1380952E+01  0.6348179E+05 -0.1306205E+01  0.1610727E+06 -0.2541552E+01  0.7163277E+05  0.1442660E+01
  0.1411905E+01  0.5706600E+05 -0.1309230E+01  0.1624032E+06 -0.2544327E+01  0.7541291E+05  0.1458210E+01
  0.1442857E+01  0.4993805E+05 -0.1323330E+01  0.1638625E+06 -0.2547703E+01  0.7972686E+05  0.1479138E+01
  0.1473810E+01  0.4234705E+05 -0.1353635E+01  0.1651524E+06 -0.2552516E+01  0.8432879E+05  0.1503696E+01
  0.1504762E+01  0.3444059E+05 -0.1411915E+01  0.1662650E+06 -0.2558349E+01  0.8922506E+05  0.1531401E+01
  0.1535714E+01  0.2649086E+05 -0.1524484E+01  0.1672887E+06 -0.2565186E+01  0.9441227E+05  0.1561869E+01
  0.1566667E+01  0.1908747E+05 -0.1755981E+01  0.1681848E+06 -0.2572873E+01  0.9983154E+05  0.1594427E+01
  0.1597619E+01  0.1404076E+05 -0.2241151E+01  0.1689929E+06 -0.2581109E+01  0.1055390E+06  0.1628699E+01
  0.1628572E+01  0.1470178E+05 -0.2921898E+01  0.1696428E+06 -0.2589352E+01  0.1114967E+06  0.1664121E+01
  0.1659524E+01  0.2084692E+05  0.2921457E+01  0.1702297E+06 -0.2597864E+01  0.1176939E+06  0.1700350E+01
  0.1690476E+01  0.2933374E+05  0.2710929E+01  0.1707110E+06 -0.2606106E+01  0.1240826E+06  0.1736928E+01
  0.1721429E+01  0.3866746E+05  0.2603611E+01  0.1709895E+06 -0.2613210E+01  0.1306996E+06  0.1773525E+01
  0.1752381E+01  0.4834885E+05  0.2543071E+01  0.1710288E+06 -0.2619399E+01  0.1374730E+06  0.1809747E+01
  0.1783333E+01  0.5813670E+05  0.2506619E+01  0.1707575E+06 -0.2624327E+01  0.1444124E+06  0.1845549E+01
  0.1814286E+01  0.6792045E+05  0.2483557E+01  0.1700895E+06 -0.2628085E+01  0.1513925E+06  0.1880603E+01
  0.1845238E+01  0.7758220E+05  0.2468858E+01  0.1689040E+06 -0.2630266E+01  0.1583938E+06  0.1914754E+01
  0.1876190E+01  0.8702789E+05  0.2459242E+01  0.1670048E+06 -0.2630903E+01  0.1654803E+06  0.1948001E+01
  0.1907143E+01  0.9622433E+05  0.2452928E+01  0.1644473E+06 -0.2630690E+01  0.1724878E+06  0.1980034E+01
  0.1938095E+01  0.1051373E+06  0.2448602E+01  0.1611671E+06 -0.2630177E+01  0.1793263E+06  0.2010881E+01
  0.1969048E+01  0.1136620E+06  0.2445714E+01  0.1571059E+06 -0.2629543E+01  0.1860860E+06  0.2040515E+01
  0.2000000E+01  0.1217501E+06  0.2443781E+01  0.1521784E+06 -0.2629309E+01  0.1926122E+06  0.2068839E+01
