VARIABLES="w (rad/s)"
"abs(F   1   1)" "angle(F   1   1)"
"abs(F   1   2)" "angle(F   1   2)"
"abs(F   1   3)" "angle(F   1   3)"
Zone t="Diffraction force - beta =   0.000 deg",I=    64,F=POINT
  0.5000000E-01  0.1198710E+04 -0.1570795E+01  0.2001250E+03 -0.3082528E+01  0.1155890E+04  0.1570797E+01
  0.8095238E-01  0.1962370E+04 -0.1570792E+01  0.5177471E+03 -0.3080282E+01  0.1893450E+04  0.1570799E+01
  0.1119048E+00  0.2745680E+04 -0.1570788E+01  0.9824412E+03 -0.3077597E+01  0.2637536E+04  0.1570803E+01
  0.1428571E+00  0.3546283E+04 -0.1570782E+01  0.1596068E+04 -0.3074286E+01  0.3401584E+04  0.1570807E+01
  0.1738095E+00  0.4384126E+04 -0.1570773E+01  0.2361856E+04 -0.3070143E+01  0.4192272E+04  0.1570814E+01
  0.2047619E+00  0.5255767E+04 -0.1570759E+01  0.3285633E+04 -0.3065009E+01  0.5017760E+04  0.1570825E+01
  0.2357143E+00  0.6189479E+04 -0.1570740E+01  0.4367936E+04 -0.3058464E+01  0.5886371E+04  0.1570840E+01
  0.2666667E+00  0.7185615E+04 -0.1570711E+01  0.5625045E+04 -0.3050665E+01  0.6804722E+04  0.1570861E+01
  0.2976190E+00  0.8253843E+04 -0.1570669E+01  0.7053664E+04 -0.3040789E+01  0.7793924E+04  0.1570893E+01
  0.3285715E+00  0.9431704E+04 -0.1570606E+01  0.8659891E+04 -0.3028942E+01  0.8858251E+04  0.1570941E+01
  0.3595238E+00  0.1072422E+05 -0.1570513E+01  0.1045501E+05 -0.3014671E+01  0.1000791E+05  0.1571012E+01
  0.3904762E+00  0.1212220E+05 -0.1570372E+01  0.1244513E+05 -0.2997844E+01  0.1126618E+05  0.1571118E+01
  0.4214286E+00  0.1369187E+05 -0.1570168E+01  0.1458312E+05 -0.2978784E+01  0.1262168E+05  0.1571271E+01
  0.4523810E+00  0.1542169E+05 -0.1569868E+01  0.1690213E+05 -0.2956828E+01  0.1410542E+05  0.1571496E+01
  0.4833333E+00  0.1726028E+05 -0.1569452E+01  0.1936234E+05 -0.2934611E+01  0.1571598E+05  0.1571805E+01
  0.5142857E+00  0.1925796E+05 -0.1568875E+01  0.2195715E+05 -0.2910524E+01  0.1738196E+05  0.1572233E+01
  0.5452381E+00  0.2140993E+05 -0.1568110E+01  0.2465481E+05 -0.2886255E+01  0.1914657E+05  0.1572799E+01
  0.5761905E+00  0.2368656E+05 -0.1567118E+01  0.2745337E+05 -0.2862333E+01  0.2099312E+05  0.1573529E+01
  0.6071429E+00  0.2604217E+05 -0.1565835E+01  0.3036342E+05 -0.2838008E+01  0.2291427E+05  0.1574462E+01
  0.6380953E+00  0.2846369E+05 -0.1564237E+01  0.3337915E+05 -0.2815037E+01  0.2483524E+05  0.1575618E+01
  0.6690477E+00  0.3102124E+05 -0.1562269E+01  0.3645275E+05 -0.2792028E+01  0.2675153E+05  0.1577039E+01
  0.7000000E+00  0.3368068E+05 -0.1559862E+01  0.3957308E+05 -0.2768696E+01  0.2869767E+05  0.1578766E+01
  0.7309524E+00  0.3636325E+05 -0.1556961E+01  0.4277220E+05 -0.2746313E+01  0.3065253E+05  0.1580824E+01
  0.7619048E+00  0.3907186E+05 -0.1553489E+01  0.4603921E+05 -0.2724541E+01  0.3262612E+05  0.1583251E+01
  0.7928572E+00  0.4182972E+05 -0.1549391E+01  0.4934596E+05 -0.2703060E+01  0.3450988E+05  0.1586100E+01
  0.8238096E+00  0.4464475E+05 -0.1544611E+01  0.5266439E+05 -0.2681740E+01  0.3636548E+05  0.1589394E+01
  0.8547620E+00  0.4749118E+05 -0.1539081E+01  0.5598679E+05 -0.2660700E+01  0.3815370E+05  0.1593171E+01
  0.8857143E+00  0.5036877E+05 -0.1532741E+01  0.5930560E+05 -0.2640066E+01  0.3988438E+05  0.1597452E+01
  0.9166667E+00  0.5324482E+05 -0.1525525E+01  0.6263647E+05 -0.2620209E+01  0.4155026E+05  0.1602251E+01
  0.9476191E+00  0.5604290E+05 -0.1517334E+01  0.6595273E+05 -0.2600907E+01  0.4320300E+05  0.1607562E+01
  0.9785714E+00  0.5874686E+05 -0.1508117E+01  0.6924566E+05 -0.2582130E+01  0.4467945E+05  0.1613436E+01
  0.1009524E+01  0.6142700E+05 -0.1497909E+01  0.7250402E+05 -0.2563854E+01  0.4604865E+05  0.1619837E+01
  0.1040476E+01  0.6405216E+05 -0.1486688E+01  0.7571021E+05 -0.2545978E+01  0.4721318E+05  0.1626786E+01
  0.1071429E+01  0.6660501E+05 -0.1474443E+01  0.7884698E+05 -0.2528433E+01  0.4829623E+05  0.1634184E+01
  0.1102381E+01  0.6898973E+05 -0.1461083E+01  0.8191230E+05 -0.2511281E+01  0.4924326E+05  0.1642008E+01
  0.1133333E+01  0.7119573E+05 -0.1446627E+01  0.8490430E+05 -0.2494740E+01  0.5002668E+05  0.1650177E+01
  0.1164286E+01  0.7320488E+05 -0.1431098E+01  0.8783491E+05 -0.2479102E+01  0.5068324E+05  0.1658554E+01
  0.1195238E+01  0.7493994E+05 -0.1414461E+01  0.9068950E+05 -0.2464209E+01  0.5112834E+05  0.1667066E+01
  0.1226190E+01  0.7641229E+05 -0.1396878E+01  0.9346139E+05 -0.2450038E+01  0.5137698E+05  0.1675554E+01
  0.1257143E+01  0.7755852E+05 -0.1378202E+01  0.9617443E+05 -0.2436104E+01  0.5149198E+05  0.1683977E+01
  0.1288095E+01  0.7839898E+05 -0.1359046E+01  0.9870194E+05 -0.2422862E+01  0.5130479E+05  0.1691993E+01
  0.1319048E+01  0.7892009E+05 -0.1339121E+01  0.1011603E+06 -0.2410002E+01  0.5101127E+05  0.1699568E+01
  0.1350000E+01  0.7906828E+05 -0.1318638E+01  0.1034960E+06 -0.2397544E+01  0.5053034E+05  0.1706405E+01
  0.1380952E+01  0.7882960E+05 -0.1297739E+01  0.1057094E+06 -0.2385847E+01  0.4987807E+05  0.1712291E+01
  0.1411905E+01  0.7746695E+05 -0.1278372E+01  0.1070434E+06 -0.2372497E+01  0.4917209E+05  0.1715131E+01
  0.1442857E+01  0.7642210E+05 -0.1257224E+01  0.1089894E+06 -0.2361742E+01  0.4827352E+05  0.1718436E+01
  0.1473810E+01  0.7493174E+05 -0.1236132E+01  0.1108044E+06 -0.2351344E+01  0.4720198E+05  0.1720198E+01
  0.1504762E+01  0.7301772E+05 -0.1215335E+01  0.1124858E+06 -0.2341454E+01  0.4602444E+05  0.1720218E+01
  0.1535714E+01  0.7071067E+05 -0.1195148E+01  0.1140282E+06 -0.2332214E+01  0.4481847E+05  0.1718300E+01
  0.1566667E+01  0.6796299E+05 -0.1175631E+01  0.1154238E+06 -0.2323399E+01  0.4350372E+05  0.1714277E+01
  0.1597619E+01  0.6482409E+05 -0.1157179E+01  0.1166768E+06 -0.2315101E+01  0.4218825E+05  0.1708197E+01
  0.1628572E+01  0.6130453E+05 -0.1140177E+01  0.1177725E+06 -0.2307314E+01  0.4085770E+05  0.1699898E+01
  0.1659524E+01  0.5743297E+05 -0.1124861E+01  0.1187263E+06 -0.2299948E+01  0.3958916E+05  0.1689715E+01
  0.1690476E+01  0.5321844E+05 -0.1111672E+01  0.1195318E+06 -0.2292904E+01  0.3835683E+05  0.1677755E+01
  0.1721429E+01  0.4868131E+05 -0.1101184E+01  0.1201769E+06 -0.2286109E+01  0.3714538E+05  0.1664083E+01
  0.1752381E+01  0.4390075E+05 -0.1094623E+01  0.1206725E+06 -0.2279993E+01  0.3605744E+05  0.1649649E+01
  0.1783333E+01  0.3889051E+05 -0.1093435E+01  0.1209996E+06 -0.2274436E+01  0.3504199E+05  0.1634497E+01
  0.1814286E+01  0.3365623E+05 -0.1099481E+01  0.1211533E+06 -0.2269207E+01  0.3409066E+05  0.1619207E+01
  0.1845238E+01  0.2828072E+05 -0.1117217E+01  0.1211353E+06 -0.2264738E+01  0.3326339E+05  0.1604821E+01
  0.1876190E+01  0.2280274E+05 -0.1154789E+01  0.1209413E+06 -0.2260772E+01  0.3251362E+05  0.1591501E+01
  0.1907143E+01  0.1732454E+05 -0.1230341E+01  0.1205950E+06 -0.2257279E+01  0.3187160E+05  0.1580321E+01
  0.1938095E+01  0.1204084E+05 -0.1392604E+01  0.1201049E+06 -0.2254075E+01  0.3133911E+05  0.1572230E+01
  0.1969048E+01  0.7619944E+04 -0.1798494E+01  0.1194368E+06 -0.2251106E+01  0.3086023E+05  0.1566780E+01
  0.2000000E+01  0.6519146E+04 -0.2647493E+01  0.1186229E+06 -0.2248531E+01  0.3047529E+05  0.1565434E+01
