VARIABLES="w (rad/s)"
"abs(F   1   1)" "angle(F   1   1)"
"abs(F   1   2)" "angle(F   1   2)"
"abs(F   1   3)" "angle(F   1   3)"
Zone t="Diffraction force - beta =   0.000 deg",I=    64,F=POINT
  0.5000000E-01  0.8261884E+03 -0.1570803E+01  0.9678020E+05 -0.6540371E-05  0.1013016E+04  0.1570796E+01
  0.8095238E-01  0.1349002E+04 -0.1570795E+01  0.9661420E+05 -0.1759479E-04  0.1653412E+04  0.1570803E+01
  0.1119048E+00  0.1884417E+04 -0.1570792E+01  0.9637014E+05 -0.3493692E-04  0.2310240E+04  0.1570803E+01
  0.1428571E+00  0.2439345E+04 -0.1570796E+01  0.9604804E+05 -0.5992278E-04  0.2990803E+04  0.1570798E+01
  0.1738095E+00  0.3018604E+04 -0.1570799E+01  0.9564773E+05 -0.9455159E-04  0.3698784E+04  0.1570798E+01
  0.2047619E+00  0.3630043E+04 -0.1570789E+01  0.9516926E+05 -0.1417574E-03  0.4446978E+04  0.1570799E+01
  0.2357143E+00  0.4279282E+04 -0.1570791E+01  0.9461432E+05 -0.2058782E-03  0.5240219E+04  0.1570803E+01
  0.2666667E+00  0.4979473E+04 -0.1570784E+01  0.9397956E+05 -0.2921319E-03  0.6094280E+04  0.1570805E+01
  0.2976190E+00  0.5736087E+04 -0.1570778E+01  0.9327152E+05 -0.4095763E-03  0.7019250E+04  0.1570813E+01
  0.3285715E+00  0.6571227E+04 -0.1570772E+01  0.9248248E+05 -0.5672198E-03  0.8035974E+04  0.1570821E+01
  0.3595238E+00  0.7487165E+04 -0.1570761E+01  0.9162541E+05 -0.7797602E-03  0.9149057E+04  0.1570831E+01
  0.3904762E+00  0.8498300E+04 -0.1570743E+01  0.9068892E+05 -0.1063168E-02  0.1038144E+05  0.1570848E+01
  0.4214286E+00  0.9618593E+04 -0.1570718E+01  0.8968891E+05 -0.1428896E-02  0.1174670E+05  0.1570873E+01
  0.4523810E+00  0.1086546E+05 -0.1570681E+01  0.8861828E+05 -0.1905310E-02  0.1325121E+05  0.1570913E+01
  0.4833333E+00  0.1222127E+05 -0.1570629E+01  0.8748472E+05 -0.2479823E-02  0.1488938E+05  0.1570964E+01
  0.5142857E+00  0.1369283E+05 -0.1570554E+01  0.8629659E+05 -0.3187501E-02  0.1667273E+05  0.1571038E+01
  0.5452381E+00  0.1527669E+05 -0.1570454E+01  0.8503765E+05 -0.4017960E-02  0.1859543E+05  0.1571140E+01
  0.5761905E+00  0.1696443E+05 -0.1570323E+01  0.8374677E+05 -0.4975361E-02  0.2062431E+05  0.1571269E+01
  0.6071429E+00  0.1874878E+05 -0.1570152E+01  0.8239624E+05 -0.6090187E-02  0.2276168E+05  0.1571440E+01
  0.6380953E+00  0.2061547E+05 -0.1569936E+01  0.8098857E+05 -0.7332818E-02  0.2500589E+05  0.1571658E+01
  0.6690477E+00  0.2256186E+05 -0.1569663E+01  0.7955634E+05 -0.8738341E-02  0.2735134E+05  0.1571929E+01
  0.7000000E+00  0.2458935E+05 -0.1569325E+01  0.7807332E+05 -0.1032248E-01  0.2977741E+05  0.1572268E+01
  0.7309524E+00  0.2671311E+05 -0.1568910E+01  0.7653670E+05 -0.1207175E-01  0.3230094E+05  0.1572684E+01
  0.7619048E+00  0.2889204E+05 -0.1568405E+01  0.7499563E+05 -0.1401114E-01  0.3488228E+05  0.1573187E+01
  0.7928572E+00  0.3114108E+05 -0.1567797E+01  0.7341546E+05 -0.1614912E-01  0.3754611E+05  0.1573796E+01
  0.8238096E+00  0.3347102E+05 -0.1567069E+01  0.7179322E+05 -0.1849111E-01  0.4031130E+05  0.1574524E+01
  0.8547620E+00  0.3584080E+05 -0.1566206E+01  0.7015264E+05 -0.2103943E-01  0.4311581E+05  0.1575387E+01
  0.8857143E+00  0.3829618E+05 -0.1565190E+01  0.6850959E+05 -0.2381363E-01  0.4600808E+05  0.1576403E+01
  0.9166667E+00  0.4082254E+05 -0.1564003E+01  0.6683974E+05 -0.2681201E-01  0.4894300E+05  0.1577590E+01
  0.9476191E+00  0.4342503E+05 -0.1562623E+01  0.6514400E+05 -0.3004275E-01  0.5196456E+05  0.1578970E+01
  0.9785714E+00  0.4605648E+05 -0.1561029E+01  0.6343349E+05 -0.3350737E-01  0.5501721E+05  0.1580564E+01
  0.1009524E+01  0.4872865E+05 -0.1559200E+01  0.6174921E+05 -0.3721558E-01  0.5810677E+05  0.1582394E+01
  0.1040476E+01  0.5146347E+05 -0.1557112E+01  0.6005362E+05 -0.4117953E-01  0.6127384E+05  0.1584482E+01
  0.1071429E+01  0.5424559E+05 -0.1554742E+01  0.5834553E+05 -0.4540012E-01  0.6447162E+05  0.1586852E+01
  0.1102381E+01  0.5709643E+05 -0.1552066E+01  0.5662453E+05 -0.4988842E-01  0.6774191E+05  0.1589529E+01
  0.1133333E+01  0.5998155E+05 -0.1549058E+01  0.5491679E+05 -0.5462718E-01  0.7099244E+05  0.1592536E+01
  0.1164286E+01  0.6290064E+05 -0.1545689E+01  0.5324456E+05 -0.5963060E-01  0.7426153E+05  0.1595906E+01
  0.1195238E+01  0.6586730E+05 -0.1541933E+01  0.5157609E+05 -0.6492282E-01  0.7758437E+05  0.1599663E+01
  0.1226190E+01  0.6883977E+05 -0.1537765E+01  0.4990909E+05 -0.7050166E-01  0.8087531E+05  0.1603833E+01
  0.1257143E+01  0.7181341E+05 -0.1533176E+01  0.4824629E+05 -0.7642271E-01  0.8417006E+05  0.1608424E+01
  0.1288095E+01  0.7486951E+05 -0.1528094E+01  0.4658098E+05 -0.8260213E-01  0.8755477E+05  0.1613508E+01
  0.1319048E+01  0.7785075E+05 -0.1522552E+01  0.4497968E+05 -0.8900130E-01  0.9080854E+05  0.1619052E+01
  0.1350000E+01  0.8085634E+05 -0.1516509E+01  0.4340132E+05 -0.9574432E-01  0.9408752E+05  0.1625099E+01
  0.1380952E+01  0.8386735E+05 -0.1509950E+01  0.4184127E+05 -0.1027973E+00  0.9734362E+05  0.1631659E+01
  0.1411905E+01  0.8680247E+05 -0.1502861E+01  0.4029713E+05 -0.1101955E+00  0.1004801E+06  0.1638747E+01
  0.1442857E+01  0.8980603E+05 -0.1495237E+01  0.3876798E+05 -0.1179677E+00  0.1036128E+06  0.1646370E+01
  0.1473810E+01  0.9276744E+05 -0.1487045E+01  0.3725214E+05 -0.1261458E+00  0.1066961E+06  0.1654567E+01
  0.1504762E+01  0.9563709E+05 -0.1478296E+01  0.3577280E+05 -0.1345936E+00  0.1096319E+06  0.1663321E+01
  0.1535714E+01  0.9840188E+05 -0.1468992E+01  0.3436351E+05 -0.1431229E+00  0.1123915E+06  0.1672628E+01
  0.1566667E+01  0.1011235E+06 -0.1459118E+01  0.3297676E+05 -0.1521319E+00  0.1151285E+06  0.1682513E+01
  0.1597619E+01  0.1037351E+06 -0.1448713E+01  0.3161870E+05 -0.1614895E+00  0.1177048E+06  0.1692928E+01
  0.1628572E+01  0.1062199E+06 -0.1437816E+01  0.3028292E+05 -0.1713001E+00  0.1200976E+06  0.1703839E+01
  0.1659524E+01  0.1085915E+06 -0.1426443E+01  0.2897404E+05 -0.1815814E+00  0.1223491E+06  0.1715226E+01
  0.1690476E+01  0.1108430E+06 -0.1414658E+01  0.2768972E+05 -0.1923818E+00  0.1244495E+06  0.1727028E+01
  0.1721429E+01  0.1128779E+06 -0.1402508E+01  0.2642788E+05 -0.2037843E+00  0.1262848E+06  0.1739196E+01
  0.1752381E+01  0.1147216E+06 -0.1390111E+01  0.2524434E+05 -0.2147768E+00  0.1278180E+06  0.1751586E+01
  0.1783333E+01  0.1164196E+06 -0.1377491E+01  0.2410022E+05 -0.2261186E+00  0.1291390E+06  0.1764195E+01
  0.1814286E+01  0.1179475E+06 -0.1364645E+01  0.2298858E+05 -0.2379915E+00  0.1302879E+06  0.1777053E+01
  0.1845238E+01  0.1192396E+06 -0.1351705E+01  0.2190782E+05 -0.2503004E+00  0.1311314E+06  0.1790002E+01
  0.1876190E+01  0.1202897E+06 -0.1338795E+01  0.2085502E+05 -0.2631782E+00  0.1316715E+06  0.1802936E+01
  0.1907143E+01  0.1211261E+06 -0.1325951E+01  0.1983381E+05 -0.2766178E+00  0.1319657E+06  0.1815803E+01
  0.1938095E+01  0.1217531E+06 -0.1313286E+01  0.1884277E+05 -0.2906970E+00  0.1320238E+06  0.1828487E+01
  0.1969048E+01  0.1221024E+06 -0.1300892E+01  0.1788104E+05 -0.3055611E+00  0.1317949E+06  0.1840926E+01
  0.2000000E+01  0.1222009E+06 -0.1288934E+01  0.1695523E+05 -0.3207515E+00  0.1312595E+06  0.1852905E+01
