VARIABLES="w (rad/s)"
"abs(F   1   1)" "angle(F   1   1)"
"abs(F   1   2)" "angle(F   1   2)"
"abs(F   1   3)" "angle(F   1   3)"
Zone t="Diffraction force - beta =   0.000 deg",I=    64,F=POINT
  0.5000000E-01  0.2327977E+04 -0.1570777E+01  0.4037249E+06 -0.2763272E-04  0.5137515E+02 -0.1570974E+01
  0.8095238E-01  0.3797889E+04 -0.1570790E+01  0.4029839E+06 -0.7433170E-04  0.8372444E+02 -0.1570923E+01
  0.1119048E+00  0.5304707E+04 -0.1570804E+01  0.4018956E+06 -0.1475921E-03  0.1172698E+03 -0.1570873E+01
  0.1428571E+00  0.6864298E+04 -0.1570789E+01  0.4004596E+06 -0.2530325E-03  0.1517474E+03 -0.1570874E+01
  0.1738095E+00  0.8482568E+04 -0.1570789E+01  0.3986734E+06 -0.3991412E-03  0.1886059E+03 -0.1570848E+01
  0.2047619E+00  0.1019574E+05 -0.1570782E+01  0.3965319E+06 -0.5981420E-03  0.2272036E+03 -0.1570826E+01
  0.2357143E+00  0.1201989E+05 -0.1570778E+01  0.3940352E+06 -0.8681704E-03  0.2697688E+03 -0.1570820E+01
  0.2666667E+00  0.1396785E+05 -0.1570769E+01  0.3911759E+06 -0.1231194E-02  0.3149160E+03 -0.1570805E+01
  0.2976190E+00  0.1609247E+05 -0.1570755E+01  0.3879532E+06 -0.1724557E-02  0.3650911E+03 -0.1570784E+01
  0.3285715E+00  0.1842434E+05 -0.1570732E+01  0.3843648E+06 -0.2386125E-02  0.4215774E+03 -0.1570756E+01
  0.3595238E+00  0.2096736E+05 -0.1570698E+01  0.3804186E+06 -0.3276022E-02  0.4841541E+03 -0.1570721E+01
  0.3904762E+00  0.2378755E+05 -0.1570652E+01  0.3761077E+06 -0.4461584E-02  0.5532783E+03 -0.1570672E+01
  0.4214286E+00  0.2693222E+05 -0.1570581E+01  0.3714842E+06 -0.5985815E-02  0.6348875E+03 -0.1570599E+01
  0.4523810E+00  0.3037750E+05 -0.1570478E+01  0.3665313E+06 -0.7965255E-02  0.7227433E+03 -0.1570493E+01
  0.4833333E+00  0.3410138E+05 -0.1570332E+01  0.3613083E+06 -0.1034711E-01  0.8172701E+03 -0.1570349E+01
  0.5142857E+00  0.3819344E+05 -0.1570133E+01  0.3558264E+06 -0.1326822E-01  0.9281165E+03 -0.1570143E+01
  0.5452381E+00  0.4259600E+05 -0.1569863E+01  0.3501122E+06 -0.1668515E-01  0.1048418E+04 -0.1569874E+01
  0.5761905E+00  0.4723137E+05 -0.1569513E+01  0.3441932E+06 -0.2060682E-01  0.1177888E+04 -0.1569523E+01
  0.6071429E+00  0.5207270E+05 -0.1569061E+01  0.3380846E+06 -0.2514775E-01  0.1310392E+04 -0.1569068E+01
  0.6380953E+00  0.5718403E+05 -0.1568493E+01  0.3317807E+06 -0.3019738E-01  0.1458412E+04 -0.1568499E+01
  0.6690477E+00  0.6254920E+05 -0.1567787E+01  0.3253334E+06 -0.3586939E-01  0.1622779E+04 -0.1567795E+01
  0.7000000E+00  0.6811123E+05 -0.1566917E+01  0.3187692E+06 -0.4222741E-01  0.1794617E+04 -0.1566924E+01
  0.7309524E+00  0.7379159E+05 -0.1565864E+01  0.3120740E+06 -0.4921798E-01  0.1967262E+04 -0.1565868E+01
  0.7619048E+00  0.7959116E+05 -0.1564598E+01  0.3052823E+06 -0.5691020E-01  0.2151824E+04 -0.1564602E+01
  0.7928572E+00  0.8561882E+05 -0.1563094E+01  0.2984181E+06 -0.6533920E-01  0.2352687E+04 -0.1563101E+01
  0.8238096E+00  0.9183425E+05 -0.1561327E+01  0.2915115E+06 -0.7452103E-01  0.2563730E+04 -0.1561336E+01
  0.8547620E+00  0.9817690E+05 -0.1559265E+01  0.2845782E+06 -0.8446651E-01  0.2789101E+04 -0.1559275E+01
  0.8857143E+00  0.1046330E+06 -0.1556880E+01  0.2776260E+06 -0.9518643E-01  0.3029557E+04 -0.1556888E+01
  0.9166667E+00  0.1111320E+06 -0.1554143E+01  0.2706654E+06 -0.1066923E+00  0.3267844E+04 -0.1554144E+01
  0.9476191E+00  0.1176424E+06 -0.1551026E+01  0.2637314E+06 -0.1190025E+00  0.3509059E+04 -0.1551023E+01
  0.9785714E+00  0.1242447E+06 -0.1547521E+01  0.2568344E+06 -0.1321327E+00  0.3769212E+04 -0.1547526E+01
  0.1009524E+01  0.1309259E+06 -0.1543614E+01  0.2499899E+06 -0.1460916E+00  0.4048694E+04 -0.1543643E+01
  0.1040476E+01  0.1376661E+06 -0.1539291E+01  0.2432006E+06 -0.1608710E+00  0.4342238E+04 -0.1539323E+01
  0.1071429E+01  0.1443834E+06 -0.1534538E+01  0.2364926E+06 -0.1764806E+00  0.4639926E+04 -0.1534576E+01
  0.1102381E+01  0.1510238E+06 -0.1529348E+01  0.2298664E+06 -0.1929175E+00  0.4942518E+04 -0.1529390E+01
  0.1133333E+01  0.1575198E+06 -0.1523721E+01  0.2233469E+06 -0.2101892E+00  0.5250979E+04 -0.1523741E+01
  0.1164286E+01  0.1638210E+06 -0.1517672E+01  0.2169078E+06 -0.2282917E+00  0.5560812E+04 -0.1517640E+01
  0.1195238E+01  0.1699307E+06 -0.1511239E+01  0.2105561E+06 -0.2472196E+00  0.5879125E+04 -0.1511180E+01
  0.1226190E+01  0.1758645E+06 -0.1504508E+01  0.2043038E+06 -0.2670001E+00  0.6198189E+04 -0.1504452E+01
  0.1257143E+01  0.1815182E+06 -0.1497484E+01  0.1981781E+06 -0.2878160E+00  0.6514605E+04 -0.1497499E+01
  0.1288095E+01  0.1869676E+06 -0.1490373E+01  0.1921812E+06 -0.3091182E+00  0.6840010E+04 -0.1490406E+01
  0.1319048E+01  0.1920047E+06 -0.1483092E+01  0.1863272E+06 -0.3314528E+00  0.7165314E+04 -0.1483072E+01
  0.1350000E+01  0.1966568E+06 -0.1475785E+01  0.1805862E+06 -0.3546139E+00  0.7490246E+04 -0.1475714E+01
  0.1380952E+01  0.2008892E+06 -0.1468563E+01  0.1749482E+06 -0.3785597E+00  0.7811862E+04 -0.1468496E+01
  0.1411905E+01  0.2042898E+06 -0.1462085E+01  0.1695152E+06 -0.4030170E+00  0.8074271E+04 -0.1462025E+01
  0.1442857E+01  0.2075616E+06 -0.1455530E+01  0.1641541E+06 -0.4286492E+00  0.8361396E+04 -0.1455542E+01
  0.1473810E+01  0.2103312E+06 -0.1449481E+01  0.1589248E+06 -0.4551127E+00  0.8636757E+04 -0.1449524E+01
  0.1504762E+01  0.2125677E+06 -0.1444061E+01  0.1538436E+06 -0.4824142E+00  0.8904230E+04 -0.1444021E+01
  0.1535714E+01  0.2142586E+06 -0.1439402E+01  0.1488852E+06 -0.5105504E+00  0.9161154E+04 -0.1439302E+01
  0.1566667E+01  0.2154325E+06 -0.1435697E+01  0.1440489E+06 -0.5395297E+00  0.9407275E+04 -0.1435589E+01
  0.1597619E+01  0.2160853E+06 -0.1433078E+01  0.1393348E+06 -0.5693281E+00  0.9634937E+04 -0.1432965E+01
  0.1628572E+01  0.2162313E+06 -0.1431657E+01  0.1347476E+06 -0.5999400E+00  0.9837464E+04 -0.1431622E+01
  0.1659524E+01  0.2158688E+06 -0.1431537E+01  0.1302911E+06 -0.6313916E+00  0.1001692E+05 -0.1431481E+01
  0.1690476E+01  0.2150355E+06 -0.1432837E+01  0.1259609E+06 -0.6636953E+00  0.1017644E+05 -0.1432805E+01
  0.1721429E+01  0.2137778E+06 -0.1435673E+01  0.1217585E+06 -0.6968271E+00  0.1032205E+05 -0.1435655E+01
  0.1752381E+01  0.2121079E+06 -0.1440112E+01  0.1176909E+06 -0.7307917E+00  0.1045554E+05 -0.1440124E+01
  0.1783333E+01  0.2100750E+06 -0.1446219E+01  0.1137319E+06 -0.7656358E+00  0.1057156E+05 -0.1446241E+01
  0.1814286E+01  0.2077124E+06 -0.1454058E+01  0.1098850E+06 -0.8013253E+00  0.1067076E+05 -0.1453956E+01
  0.1845238E+01  0.2050749E+06 -0.1463665E+01  0.1061401E+06 -0.8378298E+00  0.1075263E+05 -0.1463437E+01
  0.1876190E+01  0.2021922E+06 -0.1475062E+01  0.1025014E+06 -0.8751388E+00  0.1081399E+05 -0.1474780E+01
  0.1907143E+01  0.1990886E+06 -0.1488259E+01  0.9897451E+05 -0.9132996E+00  0.1085913E+05 -0.1488118E+01
  0.1938095E+01  0.1958022E+06 -0.1503274E+01  0.9555852E+05 -0.9523870E+00  0.1088699E+05 -0.1503414E+01
  0.1969048E+01  0.1923684E+06 -0.1520105E+01  0.9224373E+05 -0.9923530E+00  0.1090598E+05 -0.1520468E+01
  0.2000000E+01  0.1888224E+06 -0.1538738E+01  0.8905224E+05 -0.1033119E+01  0.1091934E+05 -0.1539118E+01
