VARIABLES="w (rad/s)"
"abs(F   1   1)" "angle(F   1   1)"
"abs(F   1   2)" "angle(F   1   2)"
"abs(F   1   3)" "angle(F   1   3)"
Zone t="Diffraction force - beta =   0.000 deg",I=    64,F=POINT
  0.5000000E-01  0.1124802E+03 -0.1570796E+01  0.1625545E+02 -0.3114019E+01  0.5770839E+02  0.1570796E+01
  0.8095238E-01  0.1839163E+03 -0.1570796E+01  0.4241825E+02 -0.3113163E+01  0.9445557E+02  0.1570797E+01
  0.1119048E+00  0.2571325E+03 -0.1570796E+01  0.8095539E+02 -0.3112007E+01  0.1324842E+03  0.1570797E+01
  0.1428571E+00  0.3337729E+03 -0.1570795E+01  0.1318994E+03 -0.3110447E+01  0.1716315E+03  0.1570797E+01
  0.1738095E+00  0.4127104E+03 -0.1570794E+01  0.1956306E+03 -0.3108444E+01  0.2123754E+03  0.1570798E+01
  0.2047619E+00  0.4967177E+03 -0.1570793E+01  0.2721316E+03 -0.3105860E+01  0.2549986E+03  0.1570799E+01
  0.2357143E+00  0.5860067E+03 -0.1570791E+01  0.3620483E+03 -0.3102580E+01  0.3002520E+03  0.1570801E+01
  0.2666667E+00  0.6808951E+03 -0.1570789E+01  0.4657275E+03 -0.3098531E+01  0.3487032E+03  0.1570803E+01
  0.2976190E+00  0.7854631E+03 -0.1570784E+01  0.5831033E+03 -0.3093369E+01  0.4011492E+03  0.1570806E+01
  0.3285715E+00  0.8996575E+03 -0.1570779E+01  0.7154072E+03 -0.3087125E+01  0.4581476E+03  0.1570811E+01
  0.3595238E+00  0.1023861E+04 -0.1570769E+01  0.8627095E+03 -0.3079490E+01  0.5213091E+03  0.1570818E+01
  0.3904762E+00  0.1162126E+04 -0.1570756E+01  0.1024542E+04 -0.3070252E+01  0.5902370E+03  0.1570829E+01
  0.4214286E+00  0.1318175E+04 -0.1570736E+01  0.1201040E+04 -0.3059776E+01  0.6661323E+03  0.1570845E+01
  0.4523810E+00  0.1486449E+04 -0.1570707E+01  0.1393505E+04 -0.3047595E+01  0.7500040E+03  0.1570869E+01
  0.4833333E+00  0.1669398E+04 -0.1570665E+01  0.1599202E+04 -0.3034926E+01  0.8411479E+03  0.1570902E+01
  0.5142857E+00  0.1871700E+04 -0.1570608E+01  0.1817486E+04 -0.3020988E+01  0.9393209E+03  0.1570948E+01
  0.5452381E+00  0.2091179E+04 -0.1570529E+01  0.2049953E+04 -0.3006817E+01  0.1043722E+04  0.1571011E+01
  0.5761905E+00  0.2320785E+04 -0.1570427E+01  0.2296560E+04 -0.2992647E+01  0.1155387E+04  0.1571093E+01
  0.6071429E+00  0.2560417E+04 -0.1570293E+01  0.2555314E+04 -0.2977874E+01  0.1271406E+04  0.1571200E+01
  0.6380953E+00  0.2817902E+04 -0.1570124E+01  0.2826575E+04 -0.2963414E+01  0.1391056E+04  0.1571336E+01
  0.6690477E+00  0.3088348E+04 -0.1569911E+01  0.3108868E+04 -0.2948688E+01  0.1517062E+04  0.1571505E+01
  0.7000000E+00  0.3364445E+04 -0.1569645E+01  0.3403361E+04 -0.2933673E+01  0.1646766E+04  0.1571717E+01
  0.7309524E+00  0.3647508E+04 -0.1569319E+01  0.3712313E+04 -0.2918906E+01  0.1780350E+04  0.1571974E+01
  0.7619048E+00  0.3943929E+04 -0.1568922E+01  0.4032759E+04 -0.2904027E+01  0.1915926E+04  0.1572288E+01
  0.7928572E+00  0.4249896E+04 -0.1568444E+01  0.4361406E+04 -0.2888839E+01  0.2053404E+04  0.1572666E+01
  0.8238096E+00  0.4569832E+04 -0.1567873E+01  0.4699324E+04 -0.2873511E+01  0.2195703E+04  0.1573116E+01
  0.8547620E+00  0.4897206E+04 -0.1567197E+01  0.5047346E+04 -0.2858182E+01  0.2338129E+04  0.1573650E+01
  0.8857143E+00  0.5231284E+04 -0.1566399E+01  0.5406340E+04 -0.2842959E+01  0.2485899E+04  0.1574274E+01
  0.9166667E+00  0.5564712E+04 -0.1565461E+01  0.5774535E+04 -0.2827770E+01  0.2634261E+04  0.1575003E+01
  0.9476191E+00  0.5910603E+04 -0.1564375E+01  0.6150993E+04 -0.2812621E+01  0.2784097E+04  0.1575846E+01
  0.9785714E+00  0.6265593E+04 -0.1563124E+01  0.6533202E+04 -0.2797399E+01  0.2930833E+04  0.1576820E+01
  0.1009524E+01  0.6635032E+04 -0.1561694E+01  0.6920716E+04 -0.2782159E+01  0.3080042E+04  0.1577931E+01
  0.1040476E+01  0.7008696E+04 -0.1560060E+01  0.7312464E+04 -0.2766896E+01  0.3232192E+04  0.1579193E+01
  0.1071429E+01  0.7385170E+04 -0.1558202E+01  0.7709240E+04 -0.2751724E+01  0.3382513E+04  0.1580623E+01
  0.1102381E+01  0.7768557E+04 -0.1556105E+01  0.8112843E+04 -0.2736835E+01  0.3535840E+04  0.1582227E+01
  0.1133333E+01  0.8150910E+04 -0.1553741E+01  0.8521685E+04 -0.2722162E+01  0.3686274E+04  0.1584026E+01
  0.1164286E+01  0.8539321E+04 -0.1551099E+01  0.8934905E+04 -0.2707702E+01  0.3835803E+04  0.1586027E+01
  0.1195238E+01  0.8930229E+04 -0.1548155E+01  0.9350234E+04 -0.2693348E+01  0.3985249E+04  0.1588244E+01
  0.1226190E+01  0.9323138E+04 -0.1544890E+01  0.9765158E+04 -0.2678976E+01  0.4127125E+04  0.1590703E+01
  0.1257143E+01  0.9720684E+04 -0.1541292E+01  0.1018131E+05 -0.2664303E+01  0.4270426E+04  0.1593395E+01
  0.1288095E+01  0.1013381E+05 -0.1537358E+01  0.1059605E+05 -0.2650639E+01  0.4410774E+04  0.1596344E+01
  0.1319048E+01  0.1054429E+05 -0.1533045E+01  0.1101109E+05 -0.2636722E+01  0.4547444E+04  0.1599557E+01
  0.1350000E+01  0.1095554E+05 -0.1528341E+01  0.1142579E+05 -0.2623079E+01  0.4684057E+04  0.1603032E+01
  0.1380952E+01  0.1135981E+05 -0.1523203E+01  0.1184150E+05 -0.2609834E+01  0.4819136E+04  0.1606783E+01
  0.1411905E+01  0.1164449E+05 -0.1517931E+01  0.1218290E+05 -0.2596225E+01  0.4943917E+04  0.1610382E+01
  0.1442857E+01  0.1203123E+05 -0.1511926E+01  0.1259331E+05 -0.2583455E+01  0.5069805E+04  0.1614657E+01
  0.1473810E+01  0.1241389E+05 -0.1505471E+01  0.1300111E+05 -0.2570900E+01  0.5187215E+04  0.1619229E+01
  0.1504762E+01  0.1279070E+05 -0.1498552E+01  0.1340549E+05 -0.2558535E+01  0.5295187E+04  0.1624107E+01
  0.1535714E+01  0.1316599E+05 -0.1491189E+01  0.1380558E+05 -0.2546352E+01  0.5396938E+04  0.1629272E+01
  0.1566667E+01  0.1353840E+05 -0.1483373E+01  0.1420010E+05 -0.2534319E+01  0.5495449E+04  0.1634706E+01
  0.1597619E+01  0.1389748E+05 -0.1475057E+01  0.1458877E+05 -0.2522415E+01  0.5587850E+04  0.1640421E+01
  0.1628572E+01  0.1423987E+05 -0.1466228E+01  0.1497022E+05 -0.2510570E+01  0.5668572E+04  0.1646424E+01
  0.1659524E+01  0.1457448E+05 -0.1456934E+01  0.1534692E+05 -0.2499082E+01  0.5746480E+04  0.1652653E+01
  0.1690476E+01  0.1489579E+05 -0.1447167E+01  0.1571768E+05 -0.2487922E+01  0.5817928E+04  0.1659094E+01
  0.1721429E+01  0.1519113E+05 -0.1436862E+01  0.1608235E+05 -0.2477034E+01  0.5874630E+04  0.1665782E+01
  0.1752381E+01  0.1547045E+05 -0.1426096E+01  0.1644193E+05 -0.2466594E+01  0.5924999E+04  0.1672629E+01
  0.1783333E+01  0.1572526E+05 -0.1414840E+01  0.1679444E+05 -0.2456457E+01  0.5967507E+04  0.1679599E+01
  0.1814286E+01  0.1595437E+05 -0.1403106E+01  0.1714006E+05 -0.2446604E+01  0.6003165E+04  0.1686673E+01
  0.1845238E+01  0.1615532E+05 -0.1390924E+01  0.1747845E+05 -0.2437004E+01  0.6026865E+04  0.1693843E+01
  0.1876190E+01  0.1632388E+05 -0.1378299E+01  0.1780781E+05 -0.2427531E+01  0.6033675E+04  0.1701097E+01
  0.1907143E+01  0.1646921E+05 -0.1365347E+01  0.1812925E+05 -0.2418302E+01  0.6034105E+04  0.1708335E+01
  0.1938095E+01  0.1658909E+05 -0.1352101E+01  0.1844180E+05 -0.2409336E+01  0.6026839E+04  0.1715490E+01
  0.1969048E+01  0.1667560E+05 -0.1338542E+01  0.1874451E+05 -0.2400514E+01  0.6005416E+04  0.1722572E+01
  0.2000000E+01  0.1672870E+05 -0.1324703E+01  0.1903756E+05 -0.2391932E+01  0.5973365E+04  0.1729490E+01
