VARIABLES="w (rad/s)"
"abs(F   1   1)" "angle(F   1   1)"
"abs(F   1   2)" "angle(F   1   2)"
"abs(F   1   3)" "angle(F   1   3)"
Zone t="Diffraction force - beta =   0.000 deg",I=    64,F=POINT
  0.5000000E-01  0.1452749E+04 -0.1570803E+01  0.2344362E+06 -0.1602398E-04  0.1343058E+04  0.1570809E+01
  0.8095238E-01  0.2374149E+04 -0.1570804E+01  0.2341004E+06 -0.4312289E-04  0.2196457E+04  0.1570803E+01
  0.1119048E+00  0.3313854E+04 -0.1570788E+01  0.2336070E+06 -0.8567439E-04  0.3064744E+04  0.1570797E+01
  0.1428571E+00  0.4286581E+04 -0.1570787E+01  0.2329557E+06 -0.1469977E-03  0.3955957E+04  0.1570785E+01
  0.1738095E+00  0.5298080E+04 -0.1570790E+01  0.2321446E+06 -0.2321159E-03  0.4880867E+04  0.1570800E+01
  0.2047619E+00  0.6365621E+04 -0.1570795E+01  0.2311738E+06 -0.3482608E-03  0.5846723E+04  0.1570812E+01
  0.2357143E+00  0.7493824E+04 -0.1570783E+01  0.2300404E+06 -0.5061954E-03  0.6869379E+04  0.1570818E+01
  0.2666667E+00  0.8709188E+04 -0.1570777E+01  0.2287438E+06 -0.7190993E-03  0.7956888E+04  0.1570819E+01
  0.2976190E+00  0.1003178E+05 -0.1570766E+01  0.2272831E+06 -0.1009117E-02  0.9124697E+04  0.1570823E+01
  0.3285715E+00  0.1146081E+05 -0.1570756E+01  0.2256555E+06 -0.1399275E-02  0.1039624E+05  0.1570838E+01
  0.3595238E+00  0.1303786E+05 -0.1570737E+01  0.2238650E+06 -0.1925735E-02  0.1177618E+05  0.1570854E+01
  0.3904762E+00  0.1478961E+05 -0.1570707E+01  0.2219112E+06 -0.2629600E-02  0.1328260E+05  0.1570886E+01
  0.4214286E+00  0.1671774E+05 -0.1570661E+01  0.2198051E+06 -0.3538074E-02  0.1493867E+05  0.1570931E+01
  0.4523810E+00  0.1882052E+05 -0.1570596E+01  0.2175438E+06 -0.4721910E-02  0.1673527E+05  0.1570998E+01
  0.4833333E+00  0.2114016E+05 -0.1570507E+01  0.2151511E+06 -0.6155364E-02  0.1867193E+05  0.1571083E+01
  0.5142857E+00  0.2364289E+05 -0.1570382E+01  0.2126354E+06 -0.7920057E-02  0.2074844E+05  0.1571211E+01
  0.5452381E+00  0.2631166E+05 -0.1570213E+01  0.2099899E+06 -0.9995260E-02  0.2294141E+05  0.1571381E+01
  0.5761905E+00  0.2912783E+05 -0.1569997E+01  0.2072308E+06 -0.1239251E-01  0.2523305E+05  0.1571597E+01
  0.6071429E+00  0.3210755E+05 -0.1569714E+01  0.2043753E+06 -0.1518131E-01  0.2759965E+05  0.1571879E+01
  0.6380953E+00  0.3523302E+05 -0.1569361E+01  0.2014170E+06 -0.1830781E-01  0.3002682E+05  0.1572232E+01
  0.6690477E+00  0.3846116E+05 -0.1568919E+01  0.1983676E+06 -0.2183876E-01  0.3251627E+05  0.1572675E+01
  0.7000000E+00  0.4177786E+05 -0.1568376E+01  0.1952318E+06 -0.2581916E-01  0.3504791E+05  0.1573217E+01
  0.7309524E+00  0.4520298E+05 -0.1567719E+01  0.1920123E+06 -0.3023158E-01  0.3757032E+05  0.1573873E+01
  0.7619048E+00  0.4875072E+05 -0.1566930E+01  0.1887326E+06 -0.3512004E-01  0.4012789E+05  0.1574664E+01
  0.7928572E+00  0.5237796E+05 -0.1565987E+01  0.1854085E+06 -0.4051424E-01  0.4267857E+05  0.1575606E+01
  0.8238096E+00  0.5609102E+05 -0.1564875E+01  0.1820330E+06 -0.4642563E-01  0.4522611E+05  0.1576719E+01
  0.8547620E+00  0.5987405E+05 -0.1563574E+01  0.1786032E+06 -0.5286693E-01  0.4776132E+05  0.1578019E+01
  0.8857143E+00  0.6368025E+05 -0.1562066E+01  0.1751386E+06 -0.5986153E-01  0.5027541E+05  0.1579528E+01
  0.9166667E+00  0.6754877E+05 -0.1560329E+01  0.1716502E+06 -0.6743013E-01  0.5272360E+05  0.1581265E+01
  0.9476191E+00  0.7149265E+05 -0.1558348E+01  0.1681566E+06 -0.7558746E-01  0.5511374E+05  0.1583245E+01
  0.9785714E+00  0.7550259E+05 -0.1556104E+01  0.1646590E+06 -0.8434013E-01  0.5744938E+05  0.1585492E+01
  0.1009524E+01  0.7953970E+05 -0.1553574E+01  0.1611666E+06 -0.9369850E-01  0.5974781E+05  0.1588024E+01
  0.1040476E+01  0.8356133E+05 -0.1550744E+01  0.1576820E+06 -0.1036724E+00  0.6192851E+05  0.1590856E+01
  0.1071429E+01  0.8759512E+05 -0.1547598E+01  0.1541958E+06 -0.1142594E+00  0.6405651E+05  0.1594002E+01
  0.1102381E+01  0.9158266E+05 -0.1544123E+01  0.1507234E+06 -0.1254848E+00  0.6603980E+05  0.1597473E+01
  0.1133333E+01  0.9557248E+05 -0.1540320E+01  0.1472698E+06 -0.1373514E+00  0.6790481E+05  0.1601271E+01
  0.1164286E+01  0.9953139E+05 -0.1536185E+01  0.1438495E+06 -0.1498812E+00  0.6966201E+05  0.1605408E+01
  0.1195238E+01  0.1034342E+06 -0.1531718E+01  0.1404777E+06 -0.1630792E+00  0.7123827E+05  0.1609880E+01
  0.1226190E+01  0.1072970E+06 -0.1526922E+01  0.1371429E+06 -0.1769336E+00  0.7270842E+05  0.1614690E+01
  0.1257143E+01  0.1110414E+06 -0.1521791E+01  0.1338603E+06 -0.1916132E+00  0.7400366E+05  0.1619834E+01
  0.1288095E+01  0.1147513E+06 -0.1516390E+01  0.1306163E+06 -0.2066181E+00  0.7513402E+05  0.1625245E+01
  0.1319048E+01  0.1183100E+06 -0.1510696E+01  0.1274135E+06 -0.2224244E+00  0.7610403E+05  0.1630940E+01
  0.1350000E+01  0.1216943E+06 -0.1504735E+01  0.1242547E+06 -0.2388979E+00  0.7691243E+05  0.1636893E+01
  0.1380952E+01  0.1248750E+06 -0.1498558E+01  0.1211474E+06 -0.2560188E+00  0.7746880E+05  0.1643033E+01
  0.1411905E+01  0.1274254E+06 -0.1493077E+01  0.1182814E+06 -0.2721762E+00  0.7778905E+05  0.1648482E+01
  0.1442857E+01  0.1302448E+06 -0.1486729E+01  0.1152785E+06 -0.2905573E+00  0.7795920E+05  0.1654795E+01
  0.1473810E+01  0.1328474E+06 -0.1480360E+01  0.1123413E+06 -0.3096358E+00  0.7789288E+05  0.1661139E+01
  0.1504762E+01  0.1352509E+06 -0.1474041E+01  0.1094607E+06 -0.3293662E+00  0.7763366E+05  0.1667436E+01
  0.1535714E+01  0.1374173E+06 -0.1467823E+01  0.1066440E+06 -0.3497661E+00  0.7721258E+05  0.1673636E+01
  0.1566667E+01  0.1393043E+06 -0.1461777E+01  0.1038957E+06 -0.3708597E+00  0.7658662E+05  0.1679656E+01
  0.1597619E+01  0.1409003E+06 -0.1456008E+01  0.1012185E+06 -0.3925969E+00  0.7572000E+05  0.1685361E+01
  0.1628572E+01  0.1422471E+06 -0.1450608E+01  0.9858392E+05 -0.4149897E+00  0.7470583E+05  0.1690722E+01
  0.1659524E+01  0.1433252E+06 -0.1445688E+01  0.9600499E+05 -0.4380225E+00  0.7350423E+05  0.1695594E+01
  0.1690476E+01  0.1441007E+06 -0.1441344E+01  0.9349503E+05 -0.4617418E+00  0.7207995E+05  0.1699876E+01
  0.1721429E+01  0.1446210E+06 -0.1437665E+01  0.9103455E+05 -0.4861182E+00  0.7051373E+05  0.1703506E+01
  0.1752381E+01  0.1448741E+06 -0.1434737E+01  0.8863581E+05 -0.5111334E+00  0.6881428E+05  0.1706360E+01
  0.1783333E+01  0.1448489E+06 -0.1432602E+01  0.8629986E+05 -0.5368512E+00  0.6700055E+05  0.1708448E+01
  0.1814286E+01  0.1445558E+06 -0.1431383E+01  0.8402470E+05 -0.5632327E+00  0.6505505E+05  0.1709595E+01
  0.1845238E+01  0.1439949E+06 -0.1431155E+01  0.8182529E+05 -0.5902774E+00  0.6298242E+05  0.1709696E+01
  0.1876190E+01  0.1432241E+06 -0.1431976E+01  0.7966684E+05 -0.6180047E+00  0.6086321E+05  0.1708843E+01
  0.1907143E+01  0.1422490E+06 -0.1433912E+01  0.7756160E+05 -0.6464027E+00  0.5868978E+05  0.1706867E+01
  0.1938095E+01  0.1410457E+06 -0.1437051E+01  0.7552866E+05 -0.6754179E+00  0.5641766E+05  0.1703576E+01
  0.1969048E+01  0.1396723E+06 -0.1441405E+01  0.7354068E+05 -0.7051070E+00  0.5412860E+05  0.1699130E+01
  0.2000000E+01  0.1381384E+06 -0.1447044E+01  0.7160345E+05 -0.7354044E+00  0.5181125E+05  0.1693339E+01
