VARIABLES="w (rad/s)"
"abs(F   1   1)" "angle(F   1   1)"
"abs(F   1   2)" "angle(F   1   2)"
"abs(F   1   3)" "angle(F   1   3)"
Zone t="Diffraction force - beta =   0.000 deg",I=    64,F=POINT
  0.5000000E-01  0.1980713E+04 -0.1570810E+01  0.1986797E+06 -0.1362229E-04  0.2925309E+04  0.1570815E+01
  0.8095238E-01  0.3235011E+04 -0.1570800E+01  0.1982298E+06 -0.3662867E-04  0.4778241E+04  0.1570786E+01
  0.1119048E+00  0.4522751E+04 -0.1570796E+01  0.1975687E+06 -0.7267787E-04  0.6682869E+04  0.1570794E+01
  0.1428571E+00  0.5845300E+04 -0.1570795E+01  0.1966965E+06 -0.1245264E-03  0.8634609E+04  0.1570797E+01
  0.1738095E+00  0.7228956E+04 -0.1570792E+01  0.1956121E+06 -0.1962093E-03  0.1067802E+05  0.1570805E+01
  0.2047619E+00  0.8691378E+04 -0.1570789E+01  0.1943206E+06 -0.2937381E-03  0.1283154E+05  0.1570798E+01
  0.2357143E+00  0.1023557E+05 -0.1570780E+01  0.1928172E+06 -0.4258263E-03  0.1511279E+05  0.1570814E+01
  0.2666667E+00  0.1190720E+05 -0.1570770E+01  0.1911052E+06 -0.6029024E-03  0.1757471E+05  0.1570820E+01
  0.2976190E+00  0.1371949E+05 -0.1570760E+01  0.1891885E+06 -0.8432909E-03  0.2023564E+05  0.1570836E+01
  0.3285715E+00  0.1569265E+05 -0.1570742E+01  0.1870663E+06 -0.1164644E-02  0.2315090E+05  0.1570852E+01
  0.3595238E+00  0.1787530E+05 -0.1570714E+01  0.1847476E+06 -0.1596272E-02  0.2634968E+05  0.1570878E+01
  0.3904762E+00  0.2029026E+05 -0.1570673E+01  0.1822391E+06 -0.2169617E-02  0.2989864E+05  0.1570920E+01
  0.4214286E+00  0.2294467E+05 -0.1570612E+01  0.1795428E+06 -0.2904912E-02  0.3379527E+05  0.1570981E+01
  0.4523810E+00  0.2589121E+05 -0.1570522E+01  0.1766943E+06 -0.3860599E-02  0.3813293E+05  0.1571072E+01
  0.4833333E+00  0.2910261E+05 -0.1570397E+01  0.1736581E+06 -0.5003438E-02  0.4282552E+05  0.1571193E+01
  0.5142857E+00  0.3261344E+05 -0.1570224E+01  0.1705309E+06 -0.6406534E-02  0.4795014E+05  0.1571369E+01
  0.5452381E+00  0.3632685E+05 -0.1569989E+01  0.1672428E+06 -0.8042415E-02  0.5339378E+05  0.1571602E+01
  0.5761905E+00  0.4028049E+05 -0.1569684E+01  0.1638326E+06 -0.9912651E-02  0.5916469E+05  0.1571908E+01
  0.6071429E+00  0.4452288E+05 -0.1569286E+01  0.1603455E+06 -0.1208529E-01  0.6534817E+05  0.1572306E+01
  0.6380953E+00  0.4890646E+05 -0.1568786E+01  0.1567129E+06 -0.1448425E-01  0.7170515E+05  0.1572808E+01
  0.6690477E+00  0.5347323E+05 -0.1568156E+01  0.1530203E+06 -0.1717621E-01  0.7831796E+05  0.1573436E+01
  0.7000000E+00  0.5824600E+05 -0.1567377E+01  0.1492685E+06 -0.2020154E-01  0.8530197E+05  0.1574215E+01
  0.7309524E+00  0.6316257E+05 -0.1566428E+01  0.1454072E+06 -0.2351493E-01  0.9239587E+05  0.1575165E+01
  0.7619048E+00  0.6825986E+05 -0.1565279E+01  0.1414830E+06 -0.2715712E-01  0.9972075E+05  0.1576314E+01
  0.7928572E+00  0.7358015E+05 -0.1563898E+01  0.1375777E+06 -0.3115554E-01  0.1073536E+06  0.1577694E+01
  0.8238096E+00  0.7898124E+05 -0.1562255E+01  0.1336050E+06 -0.3551306E-01  0.1151198E+06  0.1579337E+01
  0.8547620E+00  0.8446336E+05 -0.1560317E+01  0.1295585E+06 -0.4022156E-01  0.1229692E+06  0.1581276E+01
  0.8857143E+00  0.9008635E+05 -0.1558050E+01  0.1255442E+06 -0.4529903E-01  0.1310105E+06  0.1583543E+01
  0.9166667E+00  0.9596834E+05 -0.1555420E+01  0.1215509E+06 -0.5077459E-01  0.1393728E+06  0.1586172E+01
  0.9476191E+00  0.1019149E+06 -0.1552384E+01  0.1175394E+06 -0.5665120E-01  0.1477984E+06  0.1589207E+01
  0.9785714E+00  0.1079237E+06 -0.1548902E+01  0.1135009E+06 -0.6291975E-01  0.1562139E+06  0.1592688E+01
  0.1009524E+01  0.1140228E+06 -0.1544933E+01  0.1094729E+06 -0.6958910E-01  0.1647505E+06  0.1596658E+01
  0.1040476E+01  0.1202335E+06 -0.1540439E+01  0.1055767E+06 -0.7664719E-01  0.1733674E+06  0.1601152E+01
  0.1071429E+01  0.1265541E+06 -0.1535377E+01  0.1016806E+06 -0.8418182E-01  0.1822585E+06  0.1606217E+01
  0.1102381E+01  0.1327835E+06 -0.1529714E+01  0.9780342E+05 -0.9214150E-01  0.1909341E+06  0.1611883E+01
  0.1133333E+01  0.1390489E+06 -0.1523436E+01  0.9393269E+05 -0.1005731E+00  0.1995385E+06  0.1618158E+01
  0.1164286E+01  0.1453595E+06 -0.1516512E+01  0.9011316E+05 -0.1094461E+00  0.2081229E+06  0.1625075E+01
  0.1195238E+01  0.1517099E+06 -0.1508909E+01  0.8647501E+05 -0.1186492E+00  0.2166210E+06  0.1632672E+01
  0.1226190E+01  0.1581285E+06 -0.1500588E+01  0.8286302E+05 -0.1284229E+00  0.2253148E+06  0.1640995E+01
  0.1257143E+01  0.1642058E+06 -0.1491552E+01  0.7930749E+05 -0.1387681E+00  0.2334346E+06  0.1650031E+01
  0.1288095E+01  0.1702898E+06 -0.1481768E+01  0.7579298E+05 -0.1494873E+00  0.2413919E+06  0.1659817E+01
  0.1319048E+01  0.1761128E+06 -0.1471258E+01  0.7231445E+05 -0.1609032E+00  0.2489969E+06  0.1670335E+01
  0.1350000E+01  0.1817338E+06 -0.1460045E+01  0.6896702E+05 -0.1726734E+00  0.2562510E+06  0.1681554E+01
  0.1380952E+01  0.1871432E+06 -0.1448171E+01  0.6578610E+05 -0.1846583E+00  0.2631037E+06  0.1693428E+01
  0.1411905E+01  0.1921866E+06 -0.1435585E+01  0.6266448E+05 -0.1974528E+00  0.2697148E+06  0.1706027E+01
  0.1442857E+01  0.1969777E+06 -0.1422644E+01  0.5961773E+05 -0.2108171E+00  0.2756223E+06  0.1718957E+01
  0.1473810E+01  0.2013614E+06 -0.1409286E+01  0.5663973E+05 -0.2247909E+00  0.2807900E+06  0.1732296E+01
  0.1504762E+01  0.2053210E+06 -0.1395559E+01  0.5372379E+05 -0.2395573E+00  0.2852968E+06  0.1746022E+01
  0.1535714E+01  0.2088144E+06 -0.1381547E+01  0.5086473E+05 -0.2551835E+00  0.2891474E+06  0.1760050E+01
  0.1566667E+01  0.2118134E+06 -0.1367427E+01  0.4821171E+05 -0.2704948E+00  0.2921725E+06  0.1774151E+01
  0.1597619E+01  0.2143279E+06 -0.1353304E+01  0.4567357E+05 -0.2861059E+00  0.2944654E+06  0.1788249E+01
  0.1628572E+01  0.2164332E+06 -0.1339292E+01  0.4320915E+05 -0.3026649E+00  0.2963395E+06  0.1802296E+01
  0.1659524E+01  0.2178654E+06 -0.1325709E+01  0.4083274E+05 -0.3199396E+00  0.2971494E+06  0.1815887E+01
  0.1690476E+01  0.2187036E+06 -0.1312671E+01  0.3853349E+05 -0.3379918E+00  0.2970304E+06  0.1828906E+01
  0.1721429E+01  0.2189236E+06 -0.1300327E+01  0.3630702E+05 -0.3569927E+00  0.2959467E+06  0.1841219E+01
  0.1752381E+01  0.2186116E+06 -0.1288693E+01  0.3415377E+05 -0.3771402E+00  0.2941904E+06  0.1852876E+01
  0.1783333E+01  0.2177706E+06 -0.1277954E+01  0.3208379E+05 -0.3982041E+00  0.2917041E+06  0.1863645E+01
  0.1814286E+01  0.2164407E+06 -0.1268360E+01  0.3019019E+05 -0.4177104E+00  0.2884438E+06  0.1873149E+01
  0.1845238E+01  0.2147195E+06 -0.1259988E+01  0.2837558E+05 -0.4377988E+00  0.2846559E+06  0.1881418E+01
  0.1876190E+01  0.2126757E+06 -0.1252741E+01  0.2663770E+05 -0.4589107E+00  0.2806185E+06  0.1888725E+01
  0.1907143E+01  0.2101491E+06 -0.1246911E+01  0.2498239E+05 -0.4807906E+00  0.2759128E+06  0.1894643E+01
  0.1938095E+01  0.2071840E+06 -0.1242646E+01  0.2339801E+05 -0.5036786E+00  0.2705531E+06  0.1898920E+01
  0.1969048E+01  0.2038635E+06 -0.1240009E+01  0.2188068E+05 -0.5278260E+00  0.2646713E+06  0.1901491E+01
  0.2000000E+01  0.2003176E+06 -0.1238919E+01  0.2043453E+05 -0.5531039E+00  0.2585388E+06  0.1902554E+01
