VARIABLES="w (rad/s)"
"A   1   1" "B   1   1"
"A   1   2" "B   1   2"
"A   1   3" "B   1   3"
Zone t="Motion of body    1 in DoF   1",I=    64,F=POINT
  0.5000000E-01  0.5146090E+05  0.2682960E-02 -0.2555847E-02 -0.1089784E-04 -0.8091055E+05 -0.3948817E-02
  0.8095238E-01  0.5178252E+05  0.1181522E-01 -0.2591750E-03 -0.9336654E-05 -0.8141198E+05 -0.1745039E-01
  0.1119048E+00  0.5204618E+05  0.3328941E-01 -0.4261098E-02 -0.5494524E-04 -0.8188577E+05 -0.4918836E-01
  0.1428571E+00  0.5204118E+05  0.7485984E-01 -0.1308441E-02 -0.4697376E-04 -0.8184103E+05 -0.1105936E+00
  0.1738095E+00  0.5212812E+05  0.1490190E+00 -0.2172810E-02 -0.5362811E-04 -0.8198048E+05 -0.2201014E+00
  0.2047619E+00  0.5228245E+05  0.2753713E+00 -0.1117795E-03 -0.2660928E-04 -0.8213597E+05 -0.4065231E+00
  0.2357143E+00  0.5227855E+05  0.4848836E+00  0.4207726E-03 -0.4056003E-04 -0.8217658E+05 -0.7158276E+00
  0.2666667E+00  0.5243401E+05  0.8283424E+00  0.9727477E-03 -0.9404682E-04 -0.8237241E+05 -0.1222600E+01
  0.2976190E+00  0.5258126E+05  0.1391272E+01 -0.2947998E-02 -0.1187138E-03 -0.8249805E+05 -0.2052103E+01
  0.3285715E+00  0.5266257E+05  0.2303991E+01 -0.5572775E-03 -0.1455285E-03 -0.8269942E+05 -0.3399100E+01
  0.3595238E+00  0.5283696E+05  0.3788876E+01 -0.6238924E-02 -0.4609935E-03 -0.8285264E+05 -0.5585240E+01
  0.3904762E+00  0.5303864E+05  0.6187071E+01 -0.3712351E-02 -0.4110932E-03 -0.8313354E+05 -0.9116832E+01
  0.4214286E+00  0.5316660E+05  0.9966926E+01  0.1955194E-02 -0.3835559E-04 -0.8329742E+05 -0.1468001E+02
  0.4523810E+00  0.5343145E+05  0.1593023E+02 -0.1315468E-02 -0.6032884E-03 -0.8373775E+05 -0.2346173E+02
  0.4833333E+00  0.5365451E+05  0.2482818E+02 -0.2904431E-02 -0.4938245E-03 -0.8397257E+05 -0.3653453E+02
  0.5142857E+00  0.5401792E+05  0.3810567E+02  0.0000000E+00 -0.3440678E-03 -0.8441830E+05 -0.5602468E+02
  0.5452381E+00  0.5420245E+05  0.5701629E+02 -0.2154888E-02 -0.5300641E-03 -0.8471567E+05 -0.8380378E+02
  0.5761905E+00  0.5444611E+05  0.8333412E+02 -0.7494461E-02 -0.1905322E-02 -0.8503325E+05 -0.1224007E+03
  0.6071429E+00  0.5493132E+05  0.1198062E+03 -0.1658720E-02 -0.1070023E-02 -0.8570330E+05 -0.1758446E+03
  0.6380953E+00  0.5525995E+05  0.1682487E+03 -0.2893476E-02 -0.1312971E-02 -0.8608816E+05 -0.2466780E+03
  0.6690477E+00  0.5561369E+05  0.2322791E+03 -0.2714001E-02 -0.1927376E-02 -0.8651881E+05 -0.3402001E+03
  0.7000000E+00  0.5607006E+05  0.3161029E+03 -0.3487723E-03 -0.1346350E-02 -0.8728902E+05 -0.4629488E+03
  0.7309524E+00  0.5649746E+05  0.4234208E+03  0.3757539E-03 -0.4620552E-03 -0.8782520E+05 -0.6193815E+03
  0.7619048E+00  0.5699566E+05  0.5600920E+03 -0.8411407E-03 -0.4878044E-03 -0.8844086E+05 -0.8182146E+03
  0.7928572E+00  0.5764473E+05  0.7328264E+03 -0.1424153E-02 -0.2102852E-02 -0.8928584E+05 -0.1069170E+04
  0.8238096E+00  0.5819928E+05  0.9474562E+03  0.7408892E-04 -0.2284050E-02 -0.9006476E+05 -0.1380965E+04
  0.8547620E+00  0.5869482E+05  0.1211430E+04  0.3106162E-02 -0.2193451E-04 -0.9073412E+05 -0.1763750E+04
  0.8857143E+00  0.5924913E+05  0.1534290E+04 -0.1481579E-02 -0.3259659E-02 -0.9150216E+05 -0.2231369E+04
  0.9166667E+00  0.6002217E+05  0.1928069E+04  0.1065341E-02 -0.1619339E-02 -0.9254366E+05 -0.2799995E+04
  0.9476191E+00  0.6074133E+05  0.2401203E+04 -0.3961151E-02 -0.3385544E-02 -0.9351455E+05 -0.3482057E+04
  0.9785714E+00  0.6142455E+05  0.2965585E+04  0.1652850E-02  0.5798340E-03 -0.9434866E+05 -0.4292269E+04
  0.1009524E+01  0.6213152E+05  0.3635312E+04 -0.2992738E-02 -0.6069183E-02 -0.9525257E+05 -0.5252369E+04
  0.1040476E+01  0.6289175E+05  0.4425438E+04  0.2669066E-02 -0.5531311E-03 -0.9618372E+05 -0.6380891E+04
  0.1071429E+01  0.6371312E+05  0.5352598E+04 -0.1110840E-02 -0.4116058E-02 -0.9737308E+05 -0.7708922E+04
  0.1102381E+01  0.6439477E+05  0.6423732E+04 -0.3875666E-02 -0.6416321E-02 -0.9831079E+05 -0.9237781E+04
  0.1133333E+01  0.6508007E+05  0.7656577E+04  0.1669491E-02 -0.1663208E-02 -0.9917142E+05 -0.1098770E+05
  0.1164286E+01  0.6579345E+05  0.9069156E+04  0.7863425E-03 -0.2746582E-03 -0.1000375E+06 -0.1298380E+05
  0.1195238E+01  0.6652970E+05  0.1067996E+05 -0.2246872E-02 -0.5592346E-02 -0.1008501E+06 -0.1524673E+05
  0.1226190E+01  0.6732668E+05  0.1251244E+05 -0.1742169E-02 -0.4936218E-02 -0.1018836E+06 -0.1782626E+05
  0.1257143E+01  0.6783809E+05  0.1454664E+05  0.2670288E-02  0.2258301E-02 -0.1024919E+06 -0.2067724E+05
  0.1288095E+01  0.6838055E+05  0.1682938E+05  0.8529127E-03 -0.2700806E-02 -0.1030460E+06 -0.2385394E+05
  0.1319048E+01  0.6875039E+05  0.1934335E+05  0.1388164E-03 -0.4501343E-02 -0.1034204E+06 -0.2734829E+05
  0.1350000E+01  0.6901643E+05  0.2210012E+05 -0.4521123E-04 -0.3097534E-02 -0.1036381E+06 -0.3116340E+05
  0.1380952E+01  0.6918412E+05  0.2510099E+05  0.1325936E-02 -0.7369995E-02 -0.1036791E+06 -0.3529080E+05
  0.1411905E+01  0.6916648E+05  0.2834016E+05 -0.1513013E-02 -0.6454468E-02 -0.1036874E+06 -0.3977753E+05
  0.1442857E+01  0.6903048E+05  0.3177213E+05  0.8883335E-03 -0.7766724E-02 -0.1033470E+06 -0.4445964E+05
  0.1473810E+01  0.6869629E+05  0.3538440E+05  0.3644361E-02 -0.4089355E-02 -0.1026549E+06 -0.4933855E+05
  0.1504762E+01  0.6816585E+05  0.3916185E+05  0.3812766E-02  0.1220703E-03 -0.1016903E+06 -0.5441166E+05
  0.1535714E+01  0.6744562E+05  0.4307638E+05  0.6756450E-03 -0.2410889E-02 -0.1005069E+06 -0.5964802E+05
  0.1566667E+01  0.6652178E+05  0.4707661E+05  0.1441468E-02 -0.7110596E-02 -0.9898667E+05 -0.6493032E+05
  0.1597619E+01  0.6543018E+05  0.5113475E+05  0.2636064E-02  0.1434326E-02 -0.9723645E+05 -0.7023938E+05
  0.1628572E+01  0.6423247E+05  0.5523586E+05  0.2248663E-02 -0.2014160E-02 -0.9547038E+05 -0.7562398E+05
  0.1659524E+01  0.6277639E+05  0.5923112E+05  0.1949272E-02 -0.2746582E-02 -0.9332601E+05 -0.8078471E+05
  0.1690476E+01  0.6113647E+05  0.6309685E+05  0.1696949E-02 -0.4486084E-02 -0.9089973E+05 -0.8568623E+05
  0.1721429E+01  0.5930384E+05  0.6677248E+05  0.1701893E-02  0.1220703E-02 -0.8817493E+05 -0.9024516E+05
  0.1752381E+01  0.5735746E+05  0.7027024E+05  0.3256591E-02 -0.4974365E-02 -0.8536871E+05 -0.9455030E+05
  0.1783333E+01  0.5531642E+05  0.7353860E+05  0.1112323E-02 -0.2929688E-02 -0.8246454E+05 -0.9850005E+05
  0.1814286E+01  0.5319749E+05  0.7651416E+05  0.2338079E-02 -0.5950928E-02 -0.7941095E+05 -0.1019306E+06
  0.1845238E+01  0.5108234E+05  0.7921725E+05  0.2017704E-02 -0.1556396E-02 -0.7639134E+05 -0.1049441E+06
  0.1876190E+01  0.4900363E+05  0.8169131E+05  0.1089803E-02 -0.3997803E-02 -0.7354444E+05 -0.1077283E+06
  0.1907143E+01  0.4687014E+05  0.8380265E+05  0.1616174E-02 -0.2441406E-03 -0.7065966E+05 -0.1099987E+06
  0.1938095E+01  0.4470687E+05  0.8552205E+05  0.1511632E-02  0.8239746E-03 -0.6772035E+05 -0.1116525E+06
  0.1969048E+01  0.4255509E+05  0.8686554E+05  0.1580862E-02  0.2746582E-03 -0.6478382E+05 -0.1127224E+06
  0.2000000E+01  0.4047295E+05  0.8790603E+05  0.2258301E-02 -0.3112793E-02 -0.6198125E+05 -0.1133887E+06
Zone t="Motion of body    1 in DoF   2",I=    64,F=POINT
  0.5000000E-01  0.1659393E-02 -0.1406670E-04  0.3901941E+05  0.5415346E+02 -0.1373291E-02  0.5722046E-05
  0.8095238E-01 -0.1437243E-02  0.2682209E-04  0.3881393E+05  0.8972779E+02 -0.1696418E-02 -0.1382828E-04
  0.1119048E+00  0.1687395E-02  0.1454353E-04  0.3865828E+05  0.1283537E+03  0.7635888E-02  0.2098083E-04
  0.1428571E+00  0.4352570E-02 -0.2121925E-04  0.3858938E+05  0.1714980E+03 -0.9185791E-02  0.5054474E-04
  0.1738095E+00  0.2436181E-02 -0.1430511E-05  0.3861170E+05  0.2208495E+03  0.0000000E+00 -0.1049042E-04
  0.2047619E+00  0.4676109E-02  0.1430511E-05  0.3855580E+05  0.2787579E+03 -0.8793321E-02 -0.7629395E-05
  0.2357143E+00 -0.9386467E-03  0.1764297E-04  0.3859556E+05  0.3482666E+03  0.2071496E-02 -0.6866455E-04
  0.2666667E+00 -0.3933907E-02  0.9155273E-04  0.3865511E+05  0.4318906E+03 -0.1144409E-02 -0.1068115E-03
  0.2976190E+00  0.3614502E-02 -0.5722046E-04  0.3870588E+05  0.5356917E+03 -0.8408203E-02  0.2136230E-03
  0.3285715E+00  0.4202801E-02  0.3719330E-04  0.3878749E+05  0.6623741E+03 -0.7430366E-02 -0.9918213E-04
  0.3595238E+00 -0.2313071E-02 -0.1296997E-03  0.3884926E+05  0.8190403E+03  0.3565100E-02 -0.3547668E-03
  0.3904762E+00  0.1172321E-02  0.1945496E-03  0.3888813E+05  0.1010449E+04  0.4689286E-02 -0.6103516E-04
  0.4214286E+00  0.3801766E-03  0.4329681E-03  0.3894380E+05  0.1234036E+04 -0.8544921E-02  0.2517700E-03
  0.4523810E+00  0.8314434E-02  0.1602173E-03  0.3885818E+05  0.1502220E+04 -0.7015830E-02  0.2365112E-03
  0.4833333E+00 -0.1104947E-02  0.3204346E-03  0.3888995E+05  0.1788722E+04 -0.1338564E-01  0.3051758E-04
  0.5142857E+00  0.3679064E-02 -0.5302429E-03  0.3862776E+05  0.2110723E+04 -0.4509820E-02  0.1525879E-02
  0.5452381E+00  0.4953443E-02 -0.2288818E-04  0.3845964E+05  0.2446719E+04  0.2238844E-02  0.6561279E-03
  0.5761905E+00  0.1853754E-02  0.3814697E-03  0.3825523E+05  0.2789375E+04  0.7626872E-02  0.1373291E-03
  0.6071429E+00  0.4599178E-02  0.4806519E-03  0.3791191E+05  0.3151144E+04 -0.3216911E-02 -0.1373291E-03
  0.6380953E+00  0.2176085E-02 -0.9307861E-03  0.3768495E+05  0.3501329E+04 -0.3826084E-03 -0.1113892E-02
  0.6690477E+00  0.2873648E-02 -0.2288818E-03  0.3734330E+05  0.3853192E+04 -0.4561346E-02 -0.1129150E-02
  0.7000000E+00 -0.5449567E-03 -0.4959106E-03  0.3694146E+05  0.4208920E+04 -0.1743862E-03 -0.3662109E-03
  0.7309524E+00  0.1169012E-02 -0.6637573E-03  0.3662779E+05  0.4549426E+04 -0.6513067E-02  0.2227783E-02
  0.7619048E+00 -0.9412764E-03  0.1358032E-02  0.3630796E+05  0.4879130E+04 -0.3204345E-03 -0.1342773E-02
  0.7928572E+00  0.1096983E-02 -0.8697510E-03  0.3583596E+05  0.5200605E+04 -0.1385663E-02 -0.2380371E-02
  0.8238096E+00  0.5056568E-02 -0.7629395E-04  0.3543358E+05  0.5504971E+04 -0.1066880E-01  0.4333496E-02
  0.8547620E+00  0.2427805E-02 -0.2029419E-02  0.3511939E+05  0.5784312E+04  0.2856241E-02  0.3936768E-02
  0.8857143E+00  0.6201959E-03 -0.1220703E-03  0.3470755E+05  0.6041923E+04  0.1791677E-02  0.2441406E-02
  0.9166667E+00  0.8822354E-03  0.1068115E-02  0.3425653E+05  0.6279479E+04 -0.4261364E-02  0.6103516E-04
  0.9476191E+00  0.7213803E-02 -0.1022339E-02  0.3385548E+05  0.6490770E+04 -0.8501982E-02  0.7568359E-02
  0.9785714E+00  0.9511683E-03 -0.5493164E-03  0.3352621E+05  0.6669343E+04 -0.4490762E-02  0.2746582E-02
  0.1009524E+01  0.4685600E-03  0.4577637E-03  0.3321855E+05  0.6815716E+04  0.7255123E-03 -0.3021240E-02
  0.1040476E+01  0.4839515E-03 -0.2410889E-02  0.3275668E+05  0.6932626E+04  0.2111788E-02  0.3051758E-02
  0.1071429E+01  0.1324463E-02 -0.1617432E-02  0.3237993E+05  0.7025140E+04  0.1822917E-02  0.1251221E-02
  0.1102381E+01  0.2186983E-02  0.3051758E-02  0.3205132E+05  0.7081376E+04 -0.8858666E-03 -0.2441406E-03
  0.1133333E+01  0.1326168E-02  0.1525879E-03  0.3180600E+05  0.7107398E+04 -0.2154182E-03 -0.1647949E-02
  0.1164286E+01  0.1677531E-02  0.3356934E-03  0.3157991E+05  0.7100938E+04 -0.5242283E-02  0.4028320E-02
  0.1195238E+01  0.3140514E-02 -0.8544922E-03  0.3119912E+05  0.7054773E+04 -0.5106527E-02  0.2655029E-02
  0.1226190E+01  0.3235456E-02 -0.2075195E-02  0.3091134E+05  0.6995640E+04 -0.2389260E-02  0.3723145E-02
  0.1257143E+01  0.1966303E-02 -0.2136230E-03  0.3066728E+05  0.6912004E+04 -0.7768110E-03 -0.2929688E-02
  0.1288095E+01  0.6337615E-03  0.3051758E-03  0.3048102E+05  0.6796915E+04  0.1895362E-02  0.1708984E-02
  0.1319048E+01  0.2455315E-02 -0.3021240E-02  0.3037923E+05  0.6672572E+04 -0.4997391E-02  0.4089355E-02
  0.1350000E+01  0.6357828E-03 -0.1068115E-02  0.3022686E+05  0.6507888E+04 -0.7233796E-03  0.8483887E-02
  0.1380952E+01  0.2037246E-02  0.2990723E-02  0.2998077E+05  0.6292281E+04  0.1060749E-02  0.2990723E-02
  0.1411905E+01  0.3440754E-02  0.6103516E-04  0.2981953E+05  0.6091004E+04 -0.3977063E-02 -0.1464844E-02
  0.1442857E+01  0.1679836E-02 -0.1159668E-02  0.2970044E+05  0.5885097E+04 -0.2538096E-02 -0.3387451E-02
  0.1473810E+01  0.1822827E-02  0.2410889E-02  0.2962074E+05  0.5666649E+04 -0.3147402E-02  0.1495361E-02
  0.1504762E+01  0.2288547E-02 -0.8239746E-03  0.2960458E+05  0.5461055E+04 -0.1946944E-02  0.2563477E-02
  0.1535714E+01  0.3230427E-02 -0.6103516E-03  0.2964960E+05  0.5268592E+04 -0.4928234E-02 -0.3570557E-02
  0.1566667E+01  0.1144409E-02  0.2288818E-02  0.2956425E+05  0.4985136E+04 -0.2025848E-02 -0.4150391E-02
  0.1597619E+01  0.2005701E-02  0.2777100E-02  0.2946297E+05  0.4668482E+04 -0.4584459E-03 -0.4272461E-03
  0.1628572E+01  0.2225240E-02  0.2990723E-02  0.2942683E+05  0.4407684E+04 -0.1649020E-02 -0.2471924E-02
  0.1659524E+01  0.2675652E-02  0.1159668E-02  0.2941716E+05  0.4159626E+04 -0.3824987E-02 -0.4211426E-02
  0.1690476E+01  0.2734977E-02  0.3112793E-02  0.2943280E+05  0.3917937E+04 -0.3754951E-02 -0.5065918E-02
  0.1721429E+01  0.2415447E-02  0.8850098E-03  0.2948305E+05  0.3699802E+04 -0.2978313E-02 -0.7629395E-03
  0.1752381E+01  0.2155097E-02 -0.1861572E-02  0.2957240E+05  0.3529041E+04 -0.4458220E-02  0.1831055E-03
  0.1783333E+01  0.2002181E-02  0.9460449E-03  0.2967432E+05  0.3366098E+04 -0.4107038E-02 -0.4119873E-03
  0.1814286E+01  0.3212756E-02 -0.9765625E-03  0.2966870E+05  0.3047918E+04 -0.1345657E-03 -0.2731323E-02
  0.1845238E+01  0.1285873E-02  0.1281738E-02  0.2967509E+05  0.2734892E+04 -0.5292339E-03 -0.2944946E-02
  0.1876190E+01  0.3480863E-02  0.1373291E-02  0.2971670E+05  0.2510302E+04 -0.4164023E-02 -0.2593994E-02
  0.1907143E+01  0.8080872E-03  0.2029419E-02  0.2976923E+05  0.2311109E+04 -0.2816304E-02 -0.3189087E-02
  0.1938095E+01  0.1810810E-02  0.7781982E-03  0.2983204E+05  0.2123092E+04  0.3779081E-03 -0.3814697E-02
  0.1969048E+01  0.2348045E-02  0.1434326E-02  0.2990748E+05  0.1954062E+04 -0.4959568E-02 -0.3509521E-03
  0.2000000E+01  0.2471924E-02  0.1358032E-02  0.2999706E+05  0.1843816E+04 -0.4516602E-02 -0.2197266E-02
Zone t="Motion of body    1 in DoF   3",I=    64,F=POINT
  0.5000000E-01 -0.8073039E+05 -0.3922357E-02  0.1754761E-01  0.6741767E-04  0.1680654E+06  0.5749713E-02
  0.8095238E-01 -0.8124211E+05 -0.1732833E-01  0.6385130E-02  0.6416028E-04  0.1688897E+06  0.2559914E-01
  0.1119048E+00 -0.8175744E+05 -0.4880549E-01  0.2045327E-03  0.4605879E-04  0.1696215E+06  0.7215414E-01
  0.1428571E+00 -0.8169816E+05 -0.1097952E+00  0.1869202E-03  0.5137397E-04  0.1695444E+06  0.1622053E+00
  0.1738095E+00 -0.8182311E+05 -0.2184334E+00  0.7506070E-02  0.1691701E-03  0.1698295E+06  0.3225801E+00
  0.2047619E+00 -0.8200404E+05 -0.4035500E+00 -0.1095439E-01 -0.2179202E-04  0.1699371E+06  0.5957615E+00
  0.2357143E+00 -0.8203047E+05 -0.7104092E+00 -0.5275841E-02  0.3377907E-05  0.1699895E+06  0.1048798E+01
  0.2666667E+00 -0.8222886E+05 -0.1213446E+01 -0.1293182E-01 -0.9348616E-05  0.1702863E+06  0.1791008E+01
  0.2976190E+00 -0.8235199E+05 -0.2037533E+01 -0.1717529E-02  0.1454148E-03  0.1703396E+06  0.3005540E+01
  0.3285715E+00 -0.8255973E+05 -0.3373004E+01 -0.3691963E-02  0.4746020E-04  0.1707712E+06  0.4976536E+01
  0.3595238E+00 -0.8269946E+05 -0.5544794E+01  0.2313071E-02  0.7176921E-03  0.1708116E+06  0.8173743E+01
  0.3904762E+00 -0.8299762E+05 -0.9051067E+01 -0.5705298E-02  0.1430064E-03  0.1712389E+06  0.1333701E+02
  0.4214286E+00 -0.8313320E+05 -0.1457407E+02 -0.1149582E-01 -0.3013462E-03  0.1715116E+06  0.2146503E+02
  0.4523810E+00 -0.8360792E+05 -0.2328240E+02  0.8904708E-02  0.1020610E-02  0.1721467E+06  0.3428909E+02
  0.4833333E+00 -0.8379383E+05 -0.3626888E+02  0.6503401E-02  0.1141220E-02  0.1725364E+06  0.5336960E+02
  0.5142857E+00 -0.8428012E+05 -0.5563202E+02 -0.1795027E-01 -0.7655025E-03  0.1728964E+06  0.8179285E+02
  0.5452381E+00 -0.8456590E+05 -0.8319082E+02  0.1001883E-01  0.1809835E-02  0.1734383E+06  0.1222765E+03
  0.5761905E+00 -0.8486001E+05 -0.1215097E+03  0.6620548E-02  0.2850652E-02  0.1738249E+06  0.1784731E+03
  0.6071429E+00 -0.8556409E+05 -0.1745682E+03 -0.1407399E-02  0.1369238E-02  0.1747243E+06  0.2562242E+03
  0.6380953E+00 -0.8591841E+05 -0.2449636E+03 -0.6360865E-02  0.6301403E-03  0.1752597E+06  0.3591559E+03
  0.6690477E+00 -0.8633954E+05 -0.3379060E+03  0.2531547E-02  0.1271248E-02  0.1757108E+06  0.4949073E+03
  0.7000000E+00 -0.8714037E+05 -0.4594427E+03 -0.5471366E-02  0.1097202E-02  0.1769464E+06  0.6728909E+03
  0.7309524E+00 -0.8765226E+05 -0.6148185E+03  0.1962270E-02  0.4163265E-02  0.1776389E+06  0.8993562E+03
  0.7619048E+00 -0.8824042E+05 -0.8124706E+03 -0.1111507E-01 -0.1916885E-03  0.1784559E+06  0.1186906E+04
  0.7928572E+00 -0.8911537E+05 -0.1061863E+04 -0.1712833E-01 -0.1606941E-02  0.1794219E+06  0.1549225E+04
  0.8238096E+00 -0.8989895E+05 -0.1371271E+04  0.8890670E-02  0.6386757E-02  0.1805824E+06  0.1998710E+04
  0.8547620E+00 -0.9052925E+05 -0.1751310E+04 -0.8800793E-02  0.8182526E-03  0.1815895E+06  0.2549833E+04
  0.8857143E+00 -0.9128430E+05 -0.2215208E+04 -0.1466074E-01 -0.3252029E-02  0.1825817E+06  0.3221680E+04
  0.9166667E+00 -0.9235086E+05 -0.2779562E+04 -0.7191051E-02  0.3719330E-03  0.1838639E+06  0.4036444E+04
  0.9476191E+00 -0.9332708E+05 -0.3456474E+04  0.7970609E-02  0.8747101E-02  0.1852311E+06  0.5012250E+04
  0.9785714E+00 -0.9413350E+05 -0.4262493E+04 -0.8622887E-02  0.2735138E-02  0.1863058E+06  0.6169389E+04
  0.1009524E+01 -0.9500916E+05 -0.5217030E+04 -0.8101554E-02  0.1888275E-02  0.1875523E+06  0.7537768E+04
  0.1040476E+01 -0.9595174E+05 -0.6339618E+04 -0.5220810E-02  0.4600525E-02  0.1885000E+06  0.9140688E+04
  0.1071429E+01 -0.9715949E+05 -0.7654558E+04 -0.6494141E-02 -0.1152039E-02  0.1902507E+06  0.1102452E+05
  0.1102381E+01 -0.9808404E+05 -0.9169288E+04  0.1411850E-02  0.8544922E-02  0.1915283E+06  0.1318647E+05
  0.1133333E+01 -0.9891613E+05 -0.1090681E+05 -0.4483391E-02  0.3570557E-02  0.1926692E+06  0.1565240E+05
  0.1164286E+01 -0.9975766E+05 -0.1289056E+05 -0.2293499E-02  0.1617432E-02  0.1937760E+06  0.1845460E+05
  0.1195238E+01 -0.1005859E+06 -0.1514361E+05  0.9753467E-02  0.1380920E-01  0.1944292E+06  0.2161694E+05
  0.1226190E+01 -0.1016434E+06 -0.1770206E+05  0.1493287E-02  0.8560181E-02  0.1957706E+06  0.2521887E+05
  0.1257143E+01 -0.1022522E+06 -0.2053039E+05 -0.8617748E-03  0.7797241E-02  0.1965397E+06  0.2918254E+05
  0.1288095E+01 -0.1027911E+06 -0.2369228E+05 -0.4501484E-03  0.5798340E-03  0.1970685E+06  0.3358159E+05
  0.1319048E+01 -0.1031386E+06 -0.2716480E+05 -0.2012838E-02  0.4592896E-02  0.1975546E+06  0.3841052E+05
  0.1350000E+01 -0.1033420E+06 -0.3095381E+05 -0.1130281E-03  0.8972168E-02  0.1976694E+06  0.4365219E+05
  0.1380952E+01 -0.1033909E+06 -0.3505125E+05 -0.3580028E-02  0.1184082E-01  0.1972615E+06  0.4927626E+05
  0.1411905E+01 -0.1033801E+06 -0.3945027E+05 -0.1923688E-02  0.9582520E-02  0.1971975E+06  0.5536938E+05
  0.1442857E+01 -0.1030547E+06 -0.4408418E+05 -0.7127819E-02  0.2471924E-02  0.1965946E+06  0.6168677E+05
  0.1473810E+01 -0.1023612E+06 -0.4892452E+05 -0.2443378E-02  0.8758545E-02  0.1953454E+06  0.6821377E+05
  0.1504762E+01 -0.1013892E+06 -0.5396549E+05 -0.7767496E-02  0.6164551E-02  0.1938207E+06  0.7498362E+05
  0.1535714E+01 -0.1001921E+06 -0.5916439E+05 -0.2007063E-02  0.6378174E-02  0.1921323E+06  0.8194645E+05
  0.1566667E+01 -0.9868330E+05 -0.6440866E+05 -0.8726728E-02  0.7446289E-02  0.1896315E+06  0.8883924E+05
  0.1597619E+01 -0.9695045E+05 -0.6967384E+05 -0.1031503E-01  0.5462646E-02  0.1867312E+06  0.9567748E+05
  0.1628572E+01 -0.9522627E+05 -0.7498430E+05 -0.1137449E-01  0.1281738E-02  0.1841884E+06  0.1026421E+06
  0.1659524E+01 -0.9311969E+05 -0.8008723E+05 -0.8017760E-02  0.4272461E-03  0.1811879E+06  0.1092236E+06
  0.1690476E+01 -0.9071766E+05 -0.8494159E+05 -0.8015377E-02  0.5126953E-02  0.1777009E+06  0.1153404E+06
  0.1721429E+01 -0.8799525E+05 -0.8947538E+05 -0.8225817E-02  0.1037598E-01  0.1737636E+06  0.1209235E+06
  0.1752381E+01 -0.8519580E+05 -0.9375293E+05 -0.8463653E-02  0.8300781E-02  0.1699450E+06  0.1261863E+06
  0.1783333E+01 -0.8229519E+05 -0.9767615E+05 -0.3525208E-02  0.7629395E-02  0.1660326E+06  0.1309174E+06
  0.1814286E+01 -0.7926683E+05 -0.1010795E+06 -0.5920891E-02  0.2990723E-02  0.1615360E+06  0.1346523E+06
  0.1845238E+01 -0.7627579E+05 -0.1040678E+06 -0.6185421E-02  0.2136230E-02  0.1571132E+06  0.1377561E+06
  0.1876190E+01 -0.7349292E+05 -0.1068098E+06 -0.5237560E-02  0.3784180E-02  0.1533095E+06  0.1407576E+06
  0.1907143E+01 -0.7066948E+05 -0.1090525E+06 -0.7136771E-02 -0.4089355E-02  0.1496026E+06  0.1431090E+06
  0.1938095E+01 -0.6776371E+05 -0.1106858E+06 -0.6424438E-02  0.6530762E-02  0.1457190E+06  0.1444713E+06
  0.1969048E+01 -0.6483257E+05 -0.1117371E+06 -0.3657681E-02  0.2441406E-03  0.1417642E+06  0.1449415E+06
  0.2000000E+01 -0.6203865E+05 -0.1124099E+06 -0.1098633E-02  0.6469727E-02  0.1381600E+06  0.1450120E+06
