VARIABLES="w (rad/s)"
"abs(F   1   1)" "angle(F   1   1)"
"abs(F   1   2)" "angle(F   1   2)"
"abs(F   1   3)" "angle(F   1   3)"
Zone t="Diffraction force - beta =   0.000 deg",I=    64,F=POINT
  0.5000000E-01  0.2073964E+04 -0.1570786E+01  0.2980288E+06 -0.2037026E-04  0.2136300E+04  0.1570804E+01
  0.8095238E-01  0.3386302E+04 -0.1570806E+01  0.2975488E+06 -0.5480825E-04  0.3490926E+04  0.1570810E+01
  0.1119048E+00  0.4727586E+04 -0.1570769E+01  0.2968433E+06 -0.1088631E-03  0.4865904E+04  0.1570823E+01
  0.1428571E+00  0.6109440E+04 -0.1570783E+01  0.2959116E+06 -0.1867181E-03  0.6279684E+04  0.1570808E+01
  0.1738095E+00  0.7554004E+04 -0.1570792E+01  0.2947534E+06 -0.2947082E-03  0.7742526E+04  0.1570811E+01
  0.2047619E+00  0.9068094E+04 -0.1570783E+01  0.2933647E+06 -0.4419372E-03  0.9274430E+04  0.1570818E+01
  0.2357143E+00  0.1067447E+05 -0.1570779E+01  0.2917455E+06 -0.6419806E-03  0.1088495E+05  0.1570826E+01
  0.2666667E+00  0.1241102E+05 -0.1570770E+01  0.2898932E+06 -0.9113022E-03  0.1259609E+05  0.1570823E+01
  0.2976190E+00  0.1427064E+05 -0.1570755E+01  0.2878054E+06 -0.1277833E-02  0.1444277E+05  0.1570829E+01
  0.3285715E+00  0.1630545E+05 -0.1570742E+01  0.2854803E+06 -0.1770245E-02  0.1643153E+05  0.1570850E+01
  0.3595238E+00  0.1855531E+05 -0.1570712E+01  0.2829262E+06 -0.2433877E-02  0.1859090E+05  0.1570877E+01
  0.3904762E+00  0.2102794E+05 -0.1570671E+01  0.2801352E+06 -0.3319646E-02  0.2095669E+05  0.1570926E+01
  0.4214286E+00  0.2373696E+05 -0.1570606E+01  0.2771322E+06 -0.4461111E-02  0.2353291E+05  0.1570990E+01
  0.4523810E+00  0.2673971E+05 -0.1570515E+01  0.2739185E+06 -0.5946612E-02  0.2632226E+05  0.1571080E+01
  0.4833333E+00  0.3000720E+05 -0.1570391E+01  0.2705278E+06 -0.7741155E-02  0.2933813E+05  0.1571204E+01
  0.5142857E+00  0.3352416E+05 -0.1570213E+01  0.2669548E+06 -0.9946278E-02  0.3255121E+05  0.1571382E+01
  0.5452381E+00  0.3727059E+05 -0.1569980E+01  0.2632149E+06 -0.1253432E-01  0.3593269E+05  0.1571614E+01
  0.5761905E+00  0.4126014E+05 -0.1569675E+01  0.2593368E+06 -0.1551749E-01  0.3944730E+05  0.1571917E+01
  0.6071429E+00  0.4547132E+05 -0.1569283E+01  0.2553327E+06 -0.1897953E-01  0.4307847E+05  0.1572310E+01
  0.6380953E+00  0.4981822E+05 -0.1568793E+01  0.2511830E+06 -0.2284975E-01  0.4679667E+05  0.1572800E+01
  0.6690477E+00  0.5430626E+05 -0.1568184E+01  0.2469127E+06 -0.2721062E-01  0.5057501E+05  0.1573407E+01
  0.7000000E+00  0.5897397E+05 -0.1567437E+01  0.2425499E+06 -0.3211855E-01  0.5436239E+05  0.1574156E+01
  0.7309524E+00  0.6377991E+05 -0.1566535E+01  0.2381013E+06 -0.3754530E-01  0.5817290E+05  0.1575057E+01
  0.7619048E+00  0.6872444E+05 -0.1565455E+01  0.2335790E+06 -0.4353874E-01  0.6200869E+05  0.1576140E+01
  0.7928572E+00  0.7376095E+05 -0.1564171E+01  0.2289893E+06 -0.5013052E-01  0.6578766E+05  0.1577422E+01
  0.8238096E+00  0.7887203E+05 -0.1562662E+01  0.2243380E+06 -0.5733681E-01  0.6957680E+05  0.1578933E+01
  0.8547620E+00  0.8403317E+05 -0.1560907E+01  0.2196453E+06 -0.6518187E-01  0.7324716E+05  0.1580687E+01
  0.8857143E+00  0.8931542E+05 -0.1558881E+01  0.2149317E+06 -0.7368204E-01  0.7686170E+05  0.1582712E+01
  0.9166667E+00  0.9468520E+05 -0.1556565E+01  0.2102099E+06 -0.8285454E-01  0.8035511E+05  0.1585031E+01
  0.9476191E+00  0.1001109E+06 -0.1553935E+01  0.2054996E+06 -0.9270835E-01  0.8379255E+05  0.1587663E+01
  0.9785714E+00  0.1055213E+06 -0.1550966E+01  0.2007986E+06 -0.1032534E+00  0.8706774E+05  0.1590634E+01
  0.1009524E+01  0.1109411E+06 -0.1547645E+01  0.1960969E+06 -0.1144922E+00  0.9023963E+05  0.1593955E+01
  0.1040476E+01  0.1163035E+06 -0.1543954E+01  0.1914148E+06 -0.1264492E+00  0.9319511E+05  0.1597641E+01
  0.1071429E+01  0.1216670E+06 -0.1539896E+01  0.1867590E+06 -0.1391326E+00  0.9595429E+05  0.1601695E+01
  0.1102381E+01  0.1269823E+06 -0.1535464E+01  0.1821543E+06 -0.1525654E+00  0.9854157E+05  0.1606131E+01
  0.1133333E+01  0.1322128E+06 -0.1530659E+01  0.1776221E+06 -0.1667517E+00  0.1008333E+06  0.1610943E+01
  0.1164286E+01  0.1373860E+06 -0.1525488E+01  0.1731421E+06 -0.1816777E+00  0.1029670E+06  0.1616129E+01
  0.1195238E+01  0.1424112E+06 -0.1519962E+01  0.1687353E+06 -0.1973508E+00  0.1047962E+06  0.1621668E+01
  0.1226190E+01  0.1472967E+06 -0.1514110E+01  0.1643777E+06 -0.2137434E+00  0.1063643E+06  0.1627528E+01
  0.1257143E+01  0.1519470E+06 -0.1507923E+01  0.1600834E+06 -0.2310465E+00  0.1076848E+06  0.1633710E+01
  0.1288095E+01  0.1563905E+06 -0.1501521E+01  0.1558593E+06 -0.2487586E+00  0.1086906E+06  0.1640086E+01
  0.1319048E+01  0.1605259E+06 -0.1494884E+01  0.1517080E+06 -0.2674158E+00  0.1093435E+06  0.1646684E+01
  0.1350000E+01  0.1644332E+06 -0.1488126E+01  0.1476228E+06 -0.2868322E+00  0.1097198E+06  0.1653409E+01
  0.1380952E+01  0.1680117E+06 -0.1481318E+01  0.1436310E+06 -0.3070193E+00  0.1096780E+06  0.1660183E+01
  0.1411905E+01  0.1707178E+06 -0.1475592E+01  0.1399840E+06 -0.3259163E+00  0.1092495E+06  0.1665891E+01
  0.1442857E+01  0.1736920E+06 -0.1469003E+01  0.1361687E+06 -0.3474752E+00  0.1086392E+06  0.1672456E+01
  0.1473810E+01  0.1762714E+06 -0.1462592E+01  0.1324510E+06 -0.3698252E+00  0.1077249E+06  0.1678848E+01
  0.1504762E+01  0.1784365E+06 -0.1456491E+01  0.1288360E+06 -0.3928941E+00  0.1064172E+06  0.1684877E+01
  0.1535714E+01  0.1802413E+06 -0.1450806E+01  0.1252839E+06 -0.4167044E+00  0.1048680E+06  0.1690519E+01
  0.1566667E+01  0.1816634E+06 -0.1445665E+01  0.1218099E+06 -0.4412388E+00  0.1030287E+06  0.1695608E+01
  0.1597619E+01  0.1826593E+06 -0.1441186E+01  0.1184346E+06 -0.4665518E+00  0.1008453E+06  0.1700024E+01
  0.1628572E+01  0.1832878E+06 -0.1437476E+01  0.1151329E+06 -0.4925979E+00  0.9843725E+05  0.1703681E+01
  0.1659524E+01  0.1835384E+06 -0.1434628E+01  0.1119150E+06 -0.5193594E+00  0.9582948E+05  0.1706447E+01
  0.1690476E+01  0.1833901E+06 -0.1432705E+01  0.1087892E+06 -0.5469388E+00  0.9303905E+05  0.1708329E+01
  0.1721429E+01  0.1828567E+06 -0.1431857E+01  0.1057618E+06 -0.5752375E+00  0.9002666E+05  0.1709065E+01
  0.1752381E+01  0.1819744E+06 -0.1432149E+01  0.1028195E+06 -0.6042935E+00  0.8686841E+05  0.1708660E+01
  0.1783333E+01  0.1807998E+06 -0.1433658E+01  0.9994307E+05 -0.6341264E+00  0.8364018E+05  0.1707126E+01
  0.1814286E+01  0.1793233E+06 -0.1436476E+01  0.9715378E+05 -0.6646896E+00  0.8029905E+05  0.1704221E+01
  0.1845238E+01  0.1775569E+06 -0.1440666E+01  0.9445545E+05 -0.6959633E+00  0.7685696E+05  0.1699872E+01
  0.1876190E+01  0.1755651E+06 -0.1446269E+01  0.9181614E+05 -0.7279612E+00  0.7339288E+05  0.1694148E+01
  0.1907143E+01  0.1733633E+06 -0.1453335E+01  0.8925093E+05 -0.7606799E+00  0.6991241E+05  0.1686908E+01
  0.1938095E+01  0.1709703E+06 -0.1461845E+01  0.8676422E+05 -0.7942098E+00  0.6645266E+05  0.1678339E+01
  0.1969048E+01  0.1684065E+06 -0.1471847E+01  0.8434920E+05 -0.8284842E+00  0.6300886E+05  0.1668318E+01
  0.2000000E+01  0.1656847E+06 -0.1483390E+01  0.8201863E+05 -0.8633243E+00  0.5956047E+05  0.1656519E+01
