VARIABLES="w (rad/s)"
"abs(F   1   1)" "angle(F   1   1)"
"abs(F   1   2)" "angle(F   1   2)"
"abs(F   1   3)" "angle(F   1   3)"
Zone t="Diffraction force - beta =   0.000 deg",I=    64,F=POINT
  0.5000000E-01  0.2704754E+04 -0.1570783E+01  0.4461091E+06 -0.3053348E-04  0.6274179E+02 -0.1570979E+01
  0.8095238E-01  0.4413291E+04 -0.1570808E+01  0.4452481E+06 -0.8212792E-04  0.1021662E+03 -0.1570891E+01
  0.1119048E+00  0.6159740E+04 -0.1570790E+01  0.4439840E+06 -0.1630489E-03  0.1429047E+03 -0.1570864E+01
  0.1428571E+00  0.7974185E+04 -0.1570789E+01  0.4423164E+06 -0.2794833E-03  0.1856690E+03 -0.1570843E+01
  0.1738095E+00  0.9850062E+04 -0.1570784E+01  0.4402422E+06 -0.4407581E-03  0.2301711E+03 -0.1570835E+01
  0.2047619E+00  0.1184207E+05 -0.1570787E+01  0.4377567E+06 -0.6603342E-03  0.2777073E+03 -0.1570815E+01
  0.2357143E+00  0.1395600E+05 -0.1570774E+01  0.4348575E+06 -0.9581303E-03  0.3296705E+03 -0.1570803E+01
  0.2666667E+00  0.1621541E+05 -0.1570761E+01  0.4315387E+06 -0.1358230E-02  0.3847173E+03 -0.1570793E+01
  0.2976190E+00  0.1868700E+05 -0.1570747E+01  0.4277984E+06 -0.1901724E-02  0.4466623E+03 -0.1570774E+01
  0.3285715E+00  0.2138192E+05 -0.1570721E+01  0.4236354E+06 -0.2629925E-02  0.5154515E+03 -0.1570744E+01
  0.3595238E+00  0.2433088E+05 -0.1570683E+01  0.4190554E+06 -0.3608837E-02  0.5915691E+03 -0.1570701E+01
  0.3904762E+00  0.2760859E+05 -0.1570629E+01  0.4140594E+06 -0.4911961E-02  0.6774216E+03 -0.1570644E+01
  0.4214286E+00  0.3125531E+05 -0.1570547E+01  0.4087004E+06 -0.6585638E-02  0.7780930E+03 -0.1570562E+01
  0.4523810E+00  0.3522057E+05 -0.1570428E+01  0.4029670E+06 -0.8757809E-02  0.8817351E+03 -0.1570440E+01
  0.4833333E+00  0.3955087E+05 -0.1570261E+01  0.3969256E+06 -0.1136827E-01  0.1002412E+04 -0.1570271E+01
  0.5142857E+00  0.4430064E+05 -0.1570029E+01  0.3905967E+06 -0.1456709E-01  0.1137304E+04 -0.1570039E+01
  0.5452381E+00  0.4938291E+05 -0.1569719E+01  0.3840112E+06 -0.1830435E-01  0.1286142E+04 -0.1569728E+01
  0.5761905E+00  0.5471379E+05 -0.1569316E+01  0.3771878E+06 -0.2258760E-01  0.1439412E+04 -0.1569324E+01
  0.6071429E+00  0.6033188E+05 -0.1568795E+01  0.3701654E+06 -0.2754356E-01  0.1605596E+04 -0.1568805E+01
  0.6380953E+00  0.6626042E+05 -0.1568145E+01  0.3629320E+06 -0.3304702E-01  0.1791502E+04 -0.1568153E+01
  0.6690477E+00  0.7246455E+05 -0.1567336E+01  0.3555403E+06 -0.3921924E-01  0.1993177E+04 -0.1567343E+01
  0.7000000E+00  0.7884844E+05 -0.1566340E+01  0.3480320E+06 -0.4613080E-01  0.2199198E+04 -0.1566344E+01
  0.7309524E+00  0.8534032E+05 -0.1565134E+01  0.3403825E+06 -0.5372068E-01  0.2409920E+04 -0.1565139E+01
  0.7619048E+00  0.9207272E+05 -0.1563692E+01  0.3326256E+06 -0.6206094E-01  0.2644044E+04 -0.1563697E+01
  0.7928572E+00  0.9904062E+05 -0.1561982E+01  0.3248171E+06 -0.7119145E-01  0.2890821E+04 -0.1561990E+01
  0.8238096E+00  0.1061876E+06 -0.1559974E+01  0.3169777E+06 -0.8112532E-01  0.3152286E+04 -0.1559982E+01
  0.8547620E+00  0.1134596E+06 -0.1557635E+01  0.3091092E+06 -0.9186853E-01  0.3433315E+04 -0.1557645E+01
  0.8857143E+00  0.1208182E+06 -0.1554936E+01  0.3012260E+06 -0.1034313E+00  0.3719736E+04 -0.1554940E+01
  0.9166667E+00  0.1281885E+06 -0.1551845E+01  0.2933520E+06 -0.1158326E+00  0.4003815E+04 -0.1551838E+01
  0.9476191E+00  0.1356415E+06 -0.1548348E+01  0.2855245E+06 -0.1290948E+00  0.4307190E+04 -0.1548348E+01
  0.9785714E+00  0.1431909E+06 -0.1544430E+01  0.2777579E+06 -0.1432245E+00  0.4636357E+04 -0.1544456E+01
  0.1009524E+01  0.1508232E+06 -0.1540079E+01  0.2700536E+06 -0.1582202E+00  0.4984633E+04 -0.1540112E+01
  0.1040476E+01  0.1584434E+06 -0.1535279E+01  0.2624368E+06 -0.1740851E+00  0.5337940E+04 -0.1535317E+01
  0.1071429E+01  0.1659790E+06 -0.1530019E+01  0.2549208E+06 -0.1908209E+00  0.5696658E+04 -0.1530061E+01
  0.1102381E+01  0.1733641E+06 -0.1524300E+01  0.2475133E+06 -0.2084356E+00  0.6064160E+04 -0.1524322E+01
  0.1133333E+01  0.1805212E+06 -0.1518135E+01  0.2402183E+06 -0.2269203E+00  0.6432637E+04 -0.1518107E+01
  0.1164286E+01  0.1874563E+06 -0.1511561E+01  0.2330122E+06 -0.2462764E+00  0.6811289E+04 -0.1511501E+01
  0.1195238E+01  0.1941864E+06 -0.1504670E+01  0.2259292E+06 -0.2665257E+00  0.7191089E+04 -0.1504612E+01
  0.1226190E+01  0.2006374E+06 -0.1497520E+01  0.2189824E+06 -0.2876715E+00  0.7571973E+04 -0.1497534E+01
  0.1257143E+01  0.2067291E+06 -0.1490122E+01  0.2121895E+06 -0.3098867E+00  0.7952365E+04 -0.1490153E+01
  0.1288095E+01  0.2124556E+06 -0.1482710E+01  0.2055584E+06 -0.3326392E+00  0.8343417E+04 -0.1482687E+01
  0.1319048E+01  0.2176939E+06 -0.1475217E+01  0.1990642E+06 -0.3564475E+00  0.8730070E+04 -0.1475142E+01
  0.1350000E+01  0.2224358E+06 -0.1467831E+01  0.1927025E+06 -0.3811156E+00  0.9111624E+04 -0.1467769E+01
  0.1380952E+01  0.2266647E+06 -0.1460733E+01  0.1864787E+06 -0.4066318E+00  0.9474508E+04 -0.1460677E+01
  0.1411905E+01  0.2298718E+06 -0.1454565E+01  0.1805013E+06 -0.4326564E+00  0.9762304E+04 -0.1454591E+01
  0.1442857E+01  0.2329138E+06 -0.1448463E+01  0.1746014E+06 -0.4599304E+00  0.1008871E+05 -0.1448497E+01
  0.1473810E+01  0.2353266E+06 -0.1443043E+01  0.1688756E+06 -0.4880870E+00  0.1040565E+05 -0.1442976E+01
  0.1504762E+01  0.2371144E+06 -0.1438463E+01  0.1632884E+06 -0.5171227E+00  0.1070884E+05 -0.1438372E+01
  0.1535714E+01  0.2383017E+06 -0.1434923E+01  0.1578414E+06 -0.5470392E+00  0.1099768E+05 -0.1434804E+01
  0.1566667E+01  0.2388854E+06 -0.1432554E+01  0.1525371E+06 -0.5778137E+00  0.1126112E+05 -0.1432460E+01
  0.1597619E+01  0.2388839E+06 -0.1431478E+01  0.1473826E+06 -0.6094431E+00  0.1149571E+05 -0.1431439E+01
  0.1628572E+01  0.2382970E+06 -0.1431803E+01  0.1423808E+06 -0.6419721E+00  0.1169849E+05 -0.1431749E+01
  0.1659524E+01  0.2371815E+06 -0.1433665E+01  0.1375207E+06 -0.6753890E+00  0.1188356E+05 -0.1433646E+01
  0.1690476E+01  0.2355801E+06 -0.1437170E+01  0.1328230E+06 -0.7096708E+00  0.1205219E+05 -0.1437155E+01
  0.1721429E+01  0.2335239E+06 -0.1442387E+01  0.1282605E+06 -0.7448398E+00  0.1220267E+05 -0.1442422E+01
  0.1752381E+01  0.2310562E+06 -0.1449386E+01  0.1238322E+06 -0.7809385E+00  0.1233206E+05 -0.1449360E+01
  0.1783333E+01  0.2282377E+06 -0.1458228E+01  0.1195246E+06 -0.8179004E+00  0.1244186E+05 -0.1458080E+01
  0.1814286E+01  0.2251131E+06 -0.1468936E+01  0.1153355E+06 -0.8557176E+00  0.1252776E+05 -0.1468647E+01
  0.1845238E+01  0.2217198E+06 -0.1481532E+01  0.1112728E+06 -0.8943884E+00  0.1259282E+05 -0.1481270E+01
  0.1876190E+01  0.2180905E+06 -0.1496032E+01  0.1073458E+06 -0.9340110E+00  0.1263277E+05 -0.1496046E+01
  0.1907143E+01  0.2142712E+06 -0.1512445E+01  0.1035392E+06 -0.9745793E+00  0.1266093E+05 -0.1512712E+01
  0.1938095E+01  0.2103062E+06 -0.1530757E+01  0.9985936E+05 -0.1016023E+01  0.1267854E+05 -0.1531156E+01
  0.1969048E+01  0.2062201E+06 -0.1550950E+01  0.9631233E+05 -0.1058371E+01  0.1268937E+05 -0.1551316E+01
  0.2000000E+01  0.2020453E+06 -0.1573002E+01  0.9286032E+05 -0.1101698E+01  0.1269059E+05 -0.1573335E+01
