VARIABLES="w (rad/s)"
"A   1   1" "B   1   1"
"A   1   2" "B   1   2"
"A   1   3" "B   1   3"
Zone t="Motion of body    1 in DoF   1",I=    64,F=POINT
  0.5000000E-01  0.1256229E+05  0.2556725E-03  0.6885529E-02  0.7028054E-05  0.1061718E+05  0.2648447E-03
  0.8095238E-01  0.1257862E+05  0.1073818E-02  0.4476659E-02  0.2655517E-05  0.1060978E+05  0.1143993E-02
  0.1119048E+00  0.1260998E+05  0.3044358E-02 -0.2113505E-02 -0.1378769E-04  0.1060990E+05  0.3216607E-02
  0.1428571E+00  0.1262867E+05  0.6844318E-02 -0.1628876E-02 -0.4369707E-05  0.1061807E+05  0.7242488E-02
  0.1738095E+00  0.1264110E+05  0.1364275E-01 -0.1909439E-02 -0.1197503E-04  0.1063546E+05  0.1444284E-01
  0.2047619E+00  0.1265020E+05  0.2520581E-01 -0.6334172E-03 -0.1111889E-04  0.1064484E+05  0.2668597E-01
  0.2357143E+00  0.1266075E+05  0.4442658E-01 -0.1294685E-03 -0.1092080E-04  0.1064989E+05  0.4707577E-01
  0.2666667E+00  0.1267319E+05  0.7590225E-01 -0.3690719E-02 -0.6288127E-04  0.1067703E+05  0.8053251E-01
  0.2976190E+00  0.1269049E+05  0.1274956E+00  0.2512207E-02  0.3805128E-04  0.1069857E+05  0.1354045E+00
  0.3285715E+00  0.1270841E+05  0.2113003E+00 -0.3622303E-02 -0.1093168E-03  0.1071141E+05  0.2246327E+00
  0.3595238E+00  0.1272936E+05  0.3475700E+00  0.7215082E-03 -0.8344650E-04  0.1075178E+05  0.3701031E+00
  0.3904762E+00  0.1274666E+05  0.5677890E+00 -0.1250476E-02 -0.1637004E-03  0.1077617E+05  0.6054684E+00
  0.4214286E+00  0.1277384E+05  0.9153397E+00 -0.1756054E-02 -0.3654882E-04  0.1080158E+05  0.9773286E+00
  0.4523810E+00  0.1279887E+05  0.1462707E+01  0.2023797E-03  0.9674579E-05  0.1083206E+05  0.1564148E+01
  0.4833333E+00  0.1282708E+05  0.2280372E+01 -0.1262796E-03 -0.4487857E-04  0.1088289E+05  0.2443648E+01
  0.5142857E+00  0.1285703E+05  0.3496299E+01  0.1587338E-02  0.3410131E-04  0.1092003E+05  0.3753350E+01
  0.5452381E+00  0.1289306E+05  0.5234942E+01 -0.2770570E-02 -0.3232360E-03  0.1095369E+05  0.5629331E+01
  0.5761905E+00  0.1292693E+05  0.7655014E+01 -0.5296438E-03 -0.2163500E-03  0.1099409E+05  0.8248219E+01
  0.6071429E+00  0.1297000E+05  0.1098885E+02 -0.3945743E-02 -0.5090833E-03  0.1106670E+05  0.1187015E+02
  0.6380953E+00  0.1301299E+05  0.1542698E+02 -0.4543475E-03 -0.1643300E-03  0.1112752E+05  0.1670396E+02
  0.6690477E+00  0.1306632E+05  0.2129292E+02  0.7754288E-03  0.8440018E-04  0.1119289E+05  0.2310933E+02
  0.7000000E+00  0.1311939E+05  0.2895058E+02  0.1656668E-02 -0.7444620E-04  0.1125534E+05  0.3149414E+02
  0.7309524E+00  0.1316302E+05  0.3874601E+02  0.1440390E-02  0.8435249E-03  0.1130312E+05  0.4224842E+02
  0.7619048E+00  0.1321310E+05  0.5117738E+02 -0.2042770E-02 -0.2048016E-03  0.1136937E+05  0.5595017E+02
  0.7928572E+00  0.1327762E+05  0.6679543E+02  0.1828305E-02  0.4042387E-03  0.1146322E+05  0.7323982E+02
  0.8238096E+00  0.1334602E+05  0.8619889E+02 -0.1389167E-02 -0.9162426E-03  0.1155089E+05  0.9478101E+02
  0.8547620E+00  0.1341374E+05  0.1100648E+03 -0.1249606E-03  0.7224083E-04  0.1163163E+05  0.1213604E+03
  0.8857143E+00  0.1348371E+05  0.1391689E+03 -0.3083752E-02 -0.1667738E-02  0.1171154E+05  0.1538802E+03
  0.9166667E+00  0.1355410E+05  0.1743378E+03  0.3778631E-02  0.1364708E-02  0.1180097E+05  0.1933470E+03
  0.9476191E+00  0.1362469E+05  0.2164631E+03 -0.2656869E-02 -0.1715660E-02  0.1189230E+05  0.2408009E+03
  0.9785714E+00  0.1370122E+05  0.2665637E+03 -0.4210089E-02 -0.1235962E-02  0.1199591E+05  0.2974854E+03
  0.1009524E+01  0.1378700E+05  0.3257257E+03  0.5441342E-03  0.1802444E-03  0.1211078E+05  0.3647054E+03
  0.1040476E+01  0.1387562E+05  0.3950902E+03 -0.3519648E-02 -0.1193047E-02  0.1222792E+05  0.4438541E+03
  0.1071429E+01  0.1396805E+05  0.4758957E+03 -0.5297852E-02 -0.2862930E-02  0.1234667E+05  0.5364536E+03
  0.1102381E+01  0.1405578E+05  0.5693645E+03  0.3681883E-02  0.1029015E-02  0.1245371E+05  0.6439733E+03
  0.1133333E+01  0.1413985E+05  0.6767397E+03 -0.4819982E-02 -0.8468628E-03  0.1256116E+05  0.7680644E+03
  0.1164286E+01  0.1422421E+05  0.7992521E+03 -0.2280393E-02 -0.1142502E-02  0.1267058E+05  0.9102504E+03
  0.1195238E+01  0.1430764E+05  0.9380922E+03 -0.2246872E-02 -0.2788544E-02  0.1278652E+05  0.1072191E+04
  0.1226190E+01  0.1439488E+05  0.1094515E+04 -0.3957212E-02 -0.3002167E-02  0.1291210E+05  0.1255556E+04
  0.1257143E+01  0.1447344E+05  0.1270413E+04 -0.6797097E-03  0.3929138E-03  0.1302592E+05  0.1462693E+04
  0.1288095E+01  0.1456309E+05  0.1464654E+04  0.1089833E-02  0.1617432E-02  0.1315055E+05  0.1692600E+04
  0.1319048E+01  0.1463939E+05  0.1680617E+04  0.0000000E+00 -0.3318787E-03  0.1326117E+05  0.1949630E+04
  0.1350000E+01  0.1471324E+05  0.1918427E+04 -0.6103516E-03 -0.4577637E-03  0.1336497E+05  0.2234181E+04
  0.1380952E+01  0.1477789E+05  0.2178815E+04 -0.1215442E-02 -0.2864838E-02  0.1345916E+05  0.2547552E+04
  0.1411905E+01  0.1459698E+05  0.2396959E+04 -0.8861934E-03 -0.4951477E-02  0.1320900E+05  0.2812203E+04
  0.1442857E+01  0.1464409E+05  0.2696402E+04 -0.1247897E-02  0.4959106E-03  0.1328569E+05  0.3176563E+04
  0.1473810E+01  0.1467979E+05  0.3018348E+04 -0.6211979E-03  0.1045227E-02  0.1334659E+05  0.3570316E+04
  0.1504762E+01  0.1470212E+05  0.3362341E+04  0.1804980E-02  0.5119324E-02  0.1339726E+05  0.3993760E+04
  0.1535714E+01  0.1471504E+05  0.3727652E+04 -0.1470521E-02  0.1831055E-03  0.1343668E+05  0.4446125E+04
  0.1566667E+01  0.1471849E+05  0.4113135E+04 -0.3077730E-02 -0.8132935E-02  0.1346563E+05  0.4926589E+04
  0.1597619E+01  0.1470683E+05  0.4518080E+04 -0.1661866E-02 -0.7995605E-02  0.1347746E+05  0.5434837E+04
  0.1628572E+01  0.1468451E+05  0.4940297E+04  0.1311720E-02 -0.2777100E-02  0.1347524E+05  0.5968168E+04
  0.1659524E+01  0.1464878E+05  0.5377739E+04 -0.8642998E-03 -0.4592896E-02  0.1345797E+05  0.6524667E+04
  0.1690476E+01  0.1460038E+05  0.5828540E+04  0.9748432E-03  0.3250122E-02  0.1342390E+05  0.7102157E+04
  0.1721429E+01  0.1453894E+05  0.6290387E+04  0.7800344E-03 -0.1571655E-02  0.1337327E+05  0.7697835E+04
  0.1752381E+01  0.1446241E+05  0.6760814E+04  0.2856047E-02  0.1464844E-02  0.1330744E+05  0.8309604E+04
  0.1783333E+01  0.1437583E+05  0.7236897E+04 -0.1095210E-02 -0.1861572E-02  0.1322560E+05  0.8933222E+04
  0.1814286E+01  0.1427560E+05  0.7715587E+04  0.9419599E-03 -0.1068115E-02  0.1312769E+05  0.9565589E+04
  0.1845238E+01  0.1416054E+05  0.8195597E+04  0.4300025E-03 -0.1525879E-04  0.1301122E+05  0.1020502E+05
  0.1876190E+01  0.1403536E+05  0.8672740E+04  0.3903772E-03  0.1113892E-02  0.1287913E+05  0.1084586E+05
  0.1907143E+01  0.1389796E+05  0.9144752E+04  0.1600173E-02  0.4272461E-03  0.1273180E+05  0.1148608E+05
  0.1938095E+01  0.1375027E+05  0.9609667E+04 -0.1480140E-02  0.1464844E-02  0.1256916E+05  0.1212326E+05
  0.1969048E+01  0.1359476E+05  0.1006553E+05  0.1735849E-02  0.1434326E-02  0.1239199E+05  0.1275336E+05
  0.2000000E+01  0.1342834E+05  0.1051032E+05  0.1281738E-02  0.9643555E-02  0.1220382E+05  0.1337617E+05
Zone t="Motion of body    1 in DoF   2",I=    64,F=POINT
  0.5000000E-01  0.2670288E-03 -0.1192093E-06  0.4486106E+05  0.8212125E+02  0.1525879E-03 -0.5960464E-05
  0.8095238E-01 -0.4476659E-02  0.1549721E-04  0.4452159E+05  0.1363841E+03  0.1979155E-02  0.4529953E-05
  0.1119048E+00 -0.3408878E-03 -0.1335144E-04  0.4440811E+05  0.1957823E+03 -0.8181308E-03 -0.1382828E-04
  0.1428571E+00 -0.2082825E-02 -0.8344650E-05  0.4431743E+05  0.2626553E+03 -0.3204345E-02 -0.6675720E-05
  0.1738095E+00 -0.5267418E-02 -0.2098083E-04  0.4439071E+05  0.3401954E+03 -0.1755806E-02 -0.1239777E-04
  0.2047619E+00 -0.5588975E-02 -0.2384186E-04  0.4446148E+05  0.4321324E+03  0.6706770E-03 -0.4577637E-04
  0.2357143E+00 -0.6473425E-03 -0.7629395E-05  0.4462648E+05  0.5439284E+03  0.9710138E-03 -0.4100800E-04
  0.2666667E+00 -0.1859665E-02  0.7486343E-04  0.4486045E+05  0.6806977E+03  0.2288818E-03  0.3051758E-04
  0.2976190E+00 -0.1743164E-02  0.2288818E-04  0.4507143E+05  0.8523485E+03 -0.3793945E-02 -0.2861023E-04
  0.3285715E+00 -0.6408690E-02  0.5149841E-04  0.4536134E+05  0.1065807E+04 -0.2321989E-02  0.3814697E-04
  0.3595238E+00 -0.2588941E-02 -0.2765656E-04  0.4567912E+05  0.1333501E+04  0.2376733E-02 -0.7247925E-04
  0.3904762E+00  0.1953869E-02  0.1525879E-04  0.4595564E+05  0.1667357E+04 -0.5470834E-03 -0.6103516E-04
  0.4214286E+00  0.3077620E-02 -0.1907349E-04  0.4615239E+05  0.2065505E+04 -0.2244852E-02 -0.4196167E-04
  0.4523810E+00  0.5329332E-02 -0.9918213E-04  0.4638473E+05  0.2549842E+04 -0.7420590E-03 -0.3814697E-04
  0.4833333E+00 -0.4072518E-02  0.1258850E-03  0.4651243E+05  0.3087887E+04 -0.6313982E-03 -0.1525879E-04
  0.5142857E+00 -0.4450480E-03  0.2136230E-03  0.4649893E+05  0.3703632E+04 -0.8307563E-03  0.1144409E-03
  0.5452381E+00 -0.2126902E-02 -0.1525879E-04  0.4644100E+05  0.4370758E+04  0.6716533E-03 -0.2517700E-03
  0.5761905E+00  0.3018970E-02 -0.2326965E-03  0.4635674E+05  0.5080595E+04 -0.3071934E-02  0.2899170E-03
  0.6071429E+00 -0.2060834E-02  0.4348755E-03  0.4619699E+05  0.5847974E+04 -0.2714269E-02 -0.7629395E-04
  0.6380953E+00 -0.3682606E-02 -0.1907349E-03  0.4596363E+05  0.6640294E+04  0.3826084E-03  0.4272461E-03
  0.6690477E+00 -0.9122692E-03 -0.6179810E-03  0.4567180E+05  0.7472521E+04 -0.1824538E-03 -0.5493164E-03
  0.7000000E+00  0.2354213E-02  0.6103516E-04  0.4535183E+05  0.8346488E+04  0.3226144E-02  0.7629395E-04
  0.7309524E+00 -0.1461265E-02 -0.9613037E-03  0.4501939E+05  0.9243979E+04  0.3256534E-02 -0.6408691E-03
  0.7619048E+00  0.4005432E-03  0.5645752E-03  0.4463490E+05  0.1017083E+05 -0.1121521E-02 -0.4272461E-03
  0.7928572E+00 -0.2617363E-02 -0.5798340E-03  0.4419672E+05  0.1112534E+05  0.7698127E-03 -0.8544922E-03
  0.8238096E+00  0.9631559E-03  0.4882812E-03  0.4370534E+05  0.1210233E+05  0.3704446E-02 -0.0000000E+00
  0.8547620E+00 -0.4284362E-03 -0.1281738E-02  0.4319577E+05  0.1309463E+05  0.2856241E-03 -0.1708984E-02
  0.8857143E+00 -0.2067320E-03 -0.5493164E-03  0.4267626E+05  0.1409656E+05 -0.3445533E-03  0.9155273E-04
  0.9166667E+00  0.8988813E-03 -0.3509521E-03  0.4214124E+05  0.1510482E+05 -0.2596768E-02  0.3051758E-03
  0.9476191E+00 -0.1288179E-03  0.1144409E-02  0.4156888E+05  0.1611825E+05 -0.1159361E-02  0.3356934E-03
  0.9785714E+00 -0.4054160E-03 -0.4577637E-03  0.4096558E+05  0.1713305E+05 -0.1995894E-02  0.3356934E-03
  0.1009524E+01 -0.9068903E-04  0.6713867E-03  0.4033499E+05  0.1814560E+05  0.2176537E-02  0.2197266E-02
  0.1040476E+01 -0.2258440E-02  0.1403809E-02  0.3968756E+05  0.1915060E+05 -0.2463753E-02  0.1281738E-02
  0.1071429E+01 -0.3104655E-02  0.1434326E-02  0.3903671E+05  0.2014152E+05 -0.2620443E-02  0.6713867E-03
  0.1102381E+01  0.2491500E-02 -0.1708984E-02  0.3838240E+05  0.2111572E+05  0.2546866E-02 -0.2258301E-02
  0.1133333E+01 -0.1965691E-02 -0.1678467E-02  0.3772535E+05  0.2207042E+05 -0.3446691E-02 -0.6103516E-04
  0.1164286E+01 -0.1834799E-02 -0.1220703E-03  0.3706720E+05  0.2300407E+05 -0.5242283E-03  0.9155273E-03
  0.1195238E+01 -0.1889415E-02  0.7629395E-03  0.3640366E+05  0.2391638E+05 -0.2451133E-02  0.4882812E-03
  0.1226190E+01  0.2065714E-02 -0.4882812E-03  0.3573884E+05  0.2480500E+05  0.5973150E-03 -0.6713867E-03
  0.1257143E+01  0.1529347E-02 -0.6103516E-04  0.3507571E+05  0.2569801E+05 -0.2330433E-02  0.9155273E-03
  0.1288095E+01  0.8292207E-03 -0.4272461E-03  0.3439581E+05  0.2651275E+05 -0.8529127E-03 -0.1342773E-02
  0.1319048E+01 -0.3077097E-02  0.3417969E-02  0.3372904E+05  0.2732500E+05 -0.3979404E-02 -0.0000000E+00
  0.1350000E+01 -0.1424154E-02 -0.9460449E-03  0.3307478E+05  0.2810075E+05  0.3616898E-03 -0.1708984E-02
  0.1380952E+01 -0.1679519E-02 -0.1617432E-02  0.3243573E+05  0.2883735E+05 -0.1767915E-03 -0.2746582E-02
  0.1411905E+01 -0.3026026E-03  0.2410889E-02  0.3147337E+05  0.2941831E+05 -0.9510368E-03 -0.1342773E-02
  0.1442857E+01 -0.9094843E-03 -0.9765625E-03  0.3086415E+05  0.3010069E+05  0.1015238E-02  0.3051758E-03
  0.1473810E+01 -0.2132779E-02 -0.9765625E-03  0.3026490E+05  0.3075194E+05 -0.2484791E-03 -0.0000000E+00
  0.1504762E+01 -0.1460208E-02  0.1129150E-02  0.2967682E+05  0.3137225E+05  0.8923494E-03  0.1220703E-03
  0.1535714E+01 -0.1689112E-02 -0.1434326E-02  0.2910139E+05  0.3196101E+05 -0.5564135E-03 -0.1647949E-02
  0.1566667E+01 -0.3681588E-02 -0.2899170E-02  0.2853742E+05  0.3251846E+05 -0.4597116E-02 -0.0000000E+00
  0.1597619E+01 -0.2960796E-02 -0.1403809E-02  0.2798583E+05  0.3304608E+05 -0.3896790E-02  0.2441406E-03
  0.1628572E+01  0.1986319E-02  0.6713867E-03  0.2744829E+05  0.3353996E+05  0.2698396E-02  0.2441406E-03
  0.1659524E+01 -0.1176919E-02 -0.2136230E-03  0.2692406E+05  0.3400339E+05  0.5884594E-03  0.3540039E-02
  0.1690476E+01 -0.1191475E-02  0.1617432E-02  0.2641478E+05  0.3443400E+05 -0.2021897E-02  0.3662109E-03
  0.1721429E+01 -0.1861446E-02 -0.2227783E-02  0.2592038E+05  0.3483405E+05 -0.2411015E-02 -0.2075195E-02
  0.1752381E+01 -0.2020131E-02 -0.8850098E-03  0.2543925E+05  0.3520667E+05 -0.2507749E-02  0.5004883E-02
  0.1783333E+01  0.1369013E-03 -0.1831055E-02  0.2497429E+05  0.3554446E+05 -0.6160558E-03 -0.2685547E-02
  0.1814286E+01 -0.4373385E-03  0.2624512E-02  0.2452314E+05  0.3585575E+05  0.6728285E-04 -0.1464844E-02
  0.1845238E+01 -0.8103893E-03 -0.9765625E-03  0.2408554E+05  0.3614237E+05 -0.6615424E-04  0.2807617E-02
  0.1876190E+01  0.3253143E-04 -0.2441406E-03  0.2366231E+05  0.3639874E+05 -0.4554400E-03 -0.7324219E-03
  0.1907143E+01 -0.6400691E-03  0.2258301E-02  0.2325280E+05  0.3663158E+05  0.2112228E-02  0.1220703E-02
  0.1938095E+01 -0.4094004E-03 -0.1525879E-02  0.2285699E+05  0.3684042E+05 -0.3149234E-04 -0.3540039E-02
  0.1969048E+01  0.8214284E-03  0.1220703E-03  0.2247596E+05  0.3702600E+05  0.1146900E-02 -0.0000000E+00
  0.2000000E+01  0.1434326E-02  0.2380371E-02  0.2210691E+05  0.3719359E+05  0.2868652E-02  0.6103516E-03
Zone t="Motion of body    1 in DoF   3",I=    64,F=POINT
  0.5000000E-01  0.1026988E+05  0.2520561E-03 -0.5378723E-02 -0.6135794E-05  0.1858372E+05  0.2620899E-03
  0.8095238E-01  0.1026451E+05  0.1097494E-02 -0.1672857E-02 -0.4654639E-05  0.1858775E+05  0.1176220E-02
  0.1119048E+00  0.1026690E+05  0.3082027E-02 -0.9203971E-02 -0.3602490E-04  0.1859903E+05  0.3268496E-02
  0.1428571E+00  0.1026578E+05  0.6945792E-02 -0.1041412E-01 -0.5836970E-04  0.1856293E+05  0.7357846E-02
  0.1738095E+00  0.1029217E+05  0.1384374E-01 -0.3884720E-02 -0.2653647E-04  0.1862836E+05  0.1463655E-01
  0.2047619E+00  0.1029608E+05  0.2558765E-01 -0.3278865E-02 -0.1979136E-04  0.1861778E+05  0.2706715E-01
  0.2357143E+00  0.1029704E+05  0.4514736E-01 -0.4757967E-02 -0.3681576E-04  0.1859434E+05  0.4782258E-01
  0.2666667E+00  0.1033263E+05  0.7723028E-01 -0.7009506E-02 -0.9775802E-04  0.1868112E+05  0.8193233E-01
  0.2976190E+00  0.1034680E+05  0.1298589E+00 -0.2255859E-02 -0.6048498E-04  0.1867986E+05  0.1379182E+00
  0.3285715E+00  0.1035350E+05  0.2155031E+00 -0.9984554E-02 -0.2142154E-03  0.1865687E+05  0.2291206E+00
  0.3595238E+00  0.1040357E+05  0.3549532E+00 -0.1145925E-02 -0.1238007E-04  0.1877007E+05  0.3780009E+00
  0.3904762E+00  0.1042488E+05  0.5806395E+00 -0.1524018E-02 -0.5940907E-04  0.1879435E+05  0.6191236E+00
  0.4214286E+00  0.1043731E+05  0.9374446E+00 -0.5720752E-02 -0.1335721E-03  0.1876345E+05  0.1000760E+01
  0.4523810E+00  0.1046908E+05  0.1500362E+01  0.2698396E-03  0.4892424E-04  0.1880697E+05  0.1604259E+01
  0.4833333E+00  0.1052860E+05  0.2343062E+01 -0.4956475E-02 -0.2373382E-03  0.1893517E+05  0.2510763E+01
  0.5142857E+00  0.1055772E+05  0.3598921E+01 -0.9791057E-03 -0.8770078E-04  0.1895306E+05  0.3863344E+01
  0.5452381E+00  0.1057902E+05  0.5399652E+01 -0.5569125E-02 -0.5736798E-03  0.1893229E+05  0.5806200E+01
  0.5761905E+00  0.1062141E+05  0.7912383E+01 -0.3018970E-02 -0.2436191E-03  0.1899455E+05  0.8525224E+01
  0.6071429E+00  0.1070446E+05  0.1138076E+02 -0.2010570E-02 -0.3032684E-03  0.1916091E+05  0.1229371E+02
  0.6380953E+00  0.1076262E+05  0.1601270E+02 -0.5954344E-02 -0.8586645E-03  0.1924317E+05  0.1733800E+02
  0.6690477E+00  0.1081960E+05  0.2215510E+02  0.2577160E-02  0.4805326E-03  0.1929827E+05  0.2404501E+02
  0.7000000E+00  0.1087770E+05  0.3019885E+02 -0.1961844E-02 -0.4957914E-03  0.1935845E+05  0.3285310E+02
  0.7309524E+00  0.1092416E+05  0.4052022E+02 -0.1962270E-02 -0.4784465E-03  0.1941221E+05  0.4418317E+02
  0.7619048E+00  0.1099171E+05  0.5365686E+02 -0.2803802E-02 -0.7067919E-03  0.1951704E+05  0.5865952E+02
  0.7928572E+00  0.1108682E+05  0.7021207E+02 -0.1347172E-02  0.1612902E-03  0.1966948E+05  0.7698326E+02
  0.8238096E+00  0.1116706E+05  0.9086582E+02 -0.5334402E-02 -0.1021385E-02  0.1976076E+05  0.9991042E+02
  0.8547620E+00  0.1123767E+05  0.1163782E+03 -0.4641392E-02 -0.1065016E-02  0.1982518E+05  0.1283258E+03
  0.8857143E+00  0.1131209E+05  0.1476131E+03 -0.7373441E-02 -0.2412558E-02  0.1990250E+05  0.1632273E+03
  0.9166667E+00  0.1140148E+05  0.1854702E+03 -0.4827326E-02 -0.1724243E-02  0.2002883E+05  0.2056998E+03
  0.9476191E+00  0.1149212E+05  0.2309781E+03 -0.7310417E-02 -0.2912521E-02  0.2015602E+05  0.2569390E+03
  0.9785714E+00  0.1159329E+05  0.2853014E+03 -0.6361913E-02 -0.2612591E-02  0.2030154E+05  0.3183697E+03
  0.1009524E+01  0.1170342E+05  0.3497346E+03  0.1874240E-02  0.1417160E-02  0.2045129E+05  0.3915493E+03
  0.1040476E+01  0.1181293E+05  0.4256436E+03 -0.2522414E-02 -0.5044937E-03  0.2058897E+05  0.4781535E+03
  0.1071429E+01  0.1192382E+05  0.5145397E+03 -0.9370931E-02 -0.5903244E-02  0.2072274E+05  0.5800438E+03
  0.1102381E+01  0.1202351E+05  0.6179069E+03 -0.5896550E-02 -0.4228592E-02  0.2083296E+05  0.6989663E+03
  0.1133333E+01  0.1212584E+05  0.7370811E+03 -0.2988928E-02 -0.1270294E-02  0.2096232E+05  0.8366448E+03
  0.1164286E+01  0.1223248E+05  0.8735638E+03 -0.2359027E-02 -0.1306534E-02  0.2110881E+05  0.9949006E+03
  0.1195238E+01  0.1234655E+05  0.1028780E+04 -0.1092797E-01 -0.6624222E-02  0.2127745E+05  0.1175716E+04
  0.1226190E+01  0.1247062E+05  0.1204372E+04 -0.2687917E-02 -0.6904602E-03  0.2146729E+05  0.1381292E+04
  0.1257143E+01  0.1258108E+05  0.1403072E+04 -0.4078258E-02 -0.3170013E-02  0.2162610E+05  0.1615037E+04
  0.1288095E+01  0.1269768E+05  0.1623613E+04  0.3316883E-03 -0.9918213E-04  0.2178256E+05  0.1875910E+04
  0.1319048E+01  0.1279939E+05  0.1870432E+04 -0.3146505E-02 -0.2792358E-02  0.2191675E+05  0.2169662E+04
  0.1350000E+01  0.1289571E+05  0.2144243E+04 -0.5696614E-02 -0.6553650E-02  0.2204014E+05  0.2497500E+04
  0.1380952E+01  0.1298431E+05  0.2445710E+04 -0.2607675E-02 -0.2548218E-02  0.2216097E+05  0.2860552E+04
  0.1411905E+01  0.1231821E+05  0.2583838E+04 -0.2723424E-02 -0.2510071E-02  0.2122427E+05  0.3032765E+04
  0.1442857E+01  0.1238967E+05  0.2919064E+04 -0.4230159E-02 -0.6965637E-02  0.2133564E+05  0.3440393E+04
  0.1473810E+01  0.1244655E+05  0.3281546E+04  0.2567618E-02  0.4852295E-02  0.2143011E+05  0.3883103E+04
  0.1504762E+01  0.1249320E+05  0.3670831E+04 -0.1581892E-02  0.4043579E-03  0.2151813E+05  0.4361461E+04
  0.1535714E+01  0.1252988E+05  0.4087001E+04 -0.7948764E-03  0.2159119E-02  0.2159608E+05  0.4875925E+04
  0.1566667E+01  0.1255780E+05  0.4529593E+04 -0.5181495E-02 -0.8880615E-02  0.2166157E+05  0.5426721E+04
  0.1597619E+01  0.1256818E+05  0.4997600E+04 -0.3170917E-02 -0.4226685E-02  0.2170543E+05  0.6013108E+04
  0.1628572E+01  0.1256615E+05  0.5489028E+04 -0.3747773E-04  0.6713867E-03  0.2173375E+05  0.6632428E+04
  0.1659524E+01  0.1254892E+05  0.6001759E+04 -0.3052633E-02  0.6103516E-03  0.2174066E+05  0.7282625E+04
  0.1690476E+01  0.1251649E+05  0.6534340E+04 -0.2491266E-02 -0.6072998E-02  0.2172755E+05  0.7962317E+04
  0.1721429E+01  0.1246900E+05  0.7083617E+04 -0.1808261E-02 -0.1678467E-02  0.2169942E+05  0.8667938E+04
  0.1752381E+01  0.1240665E+05  0.7646691E+04 -0.3691964E-02 -0.1235962E-02  0.2165664E+05  0.9397448E+04
  0.1783333E+01  0.1233152E+05  0.8221626E+04 -0.2258871E-02 -0.1251221E-02  0.2159834E+05  0.1014725E+05
  0.1814286E+01  0.1224186E+05  0.8804562E+04  0.1345657E-03 -0.4882812E-03  0.2152112E+05  0.1091332E+05
  0.1845238E+01  0.1213357E+05  0.9392781E+04 -0.2679246E-02 -0.5065918E-02  0.2142227E+05  0.1169258E+05
  0.1876190E+01  0.1201279E+05  0.9983125E+04 -0.1886823E-02 -0.2838135E-02  0.2130722E+05  0.1248058E+05
  0.1907143E+01  0.1187656E+05  0.1057273E+05 -0.1568169E-02 -0.5798340E-03  0.2117057E+05  0.1327516E+05
  0.1938095E+01  0.1172644E+05  0.1116087E+05 -0.3149234E-03 -0.1831055E-02  0.2101021E+05  0.1407477E+05
  0.1969048E+01  0.1156278E+05  0.1174333E+05 -0.2169811E-02 -0.8483887E-02  0.2083248E+05  0.1487394E+05
  0.2000000E+01  0.1138722E+05  0.1231702E+05 -0.2441406E-02  0.8850098E-03  0.2063801E+05  0.1566939E+05
