VARIABLES="w (rad/s)"
"A   1   1" "B   1   1"
"A   1   2" "B   1   2"
"A   1   3" "B   1   3"
Zone t="Motion of body    1 in DoF   1",I=    64,F=POINT
  0.5000000E-01  0.7910796E+05  0.6464998E-02  0.1983643E-02  0.1500171E-04 -0.1372557E+06 -0.1034214E-01
  0.8095238E-01  0.7949785E+05  0.2853061E-01 -0.9047564E-02 -0.2029122E-04 -0.1378725E+06 -0.4571876E-01
  0.1119048E+00  0.7979451E+05  0.8022857E-01  0.5079229E-02  0.8105172E-04 -0.1382118E+06 -0.1285304E+00
  0.1428571E+00  0.7995126E+05  0.1805396E+00 -0.1976013E-02  0.4874310E-05 -0.1385049E+06 -0.2892323E+00
  0.1738095E+00  0.8018643E+05  0.3596718E+00  0.6320901E-02  0.1704292E-03 -0.1387688E+06 -0.5759425E+00
  0.2047619E+00  0.8016033E+05  0.6633397E+00 -0.3018046E-02  0.4769675E-04 -0.1387962E+06 -0.1062287E+01
  0.2357143E+00  0.8045242E+05  0.1169322E+01 -0.6343957E-02 -0.2881885E-04 -0.1392100E+06 -0.1872135E+01
  0.2666667E+00  0.8060383E+05  0.1995822E+01 -0.7724761E-02 -0.1294874E-03 -0.1392984E+06 -0.3194054E+01
  0.2976190E+00  0.8081377E+05  0.3349336E+01 -0.1086914E-01 -0.3061444E-03 -0.1397628E+06 -0.5361868E+01
  0.3285715E+00  0.8108566E+05  0.5546247E+01  0.1718272E-02  0.2527758E-03 -0.1400275E+06 -0.8872896E+01
  0.3595238E+00  0.8147830E+05  0.9120048E+01 -0.6578458E-02 -0.2567172E-03 -0.1406524E+06 -0.1458839E+02
  0.3904762E+00  0.8155456E+05  0.1486166E+02  0.8597024E-03  0.4016906E-03 -0.1408224E+06 -0.2377260E+02
  0.4214286E+00  0.8210632E+05  0.2395997E+02  0.2281059E-02  0.4004538E-03 -0.1416510E+06 -0.3831358E+02
  0.4523810E+00  0.8249313E+05  0.3825705E+02  0.3372995E-03  0.3453493E-03 -0.1421275E+06 -0.6113763E+02
  0.4833333E+00  0.8300149E+05  0.5961016E+02 -0.3346410E-02  0.3004074E-04 -0.1428263E+06 -0.9520911E+02
  0.5142857E+00  0.8334452E+05  0.9127799E+02  0.2432929E-02  0.7026196E-03 -0.1434966E+06 -0.1458130E+03
  0.5452381E+00  0.8390352E+05  0.1365953E+03 -0.7052359E-02 -0.5352497E-04 -0.1441902E+06 -0.2180080E+03
  0.5761905E+00  0.8468916E+05  0.1998266E+03 -0.2277469E-02  0.6206036E-03 -0.1453978E+06 -0.3187874E+03
  0.6071429E+00  0.8522537E+05  0.2866185E+03  0.4875632E-02  0.1411438E-02 -0.1461408E+06 -0.4569512E+03
  0.6380953E+00  0.8581888E+05  0.4020720E+03  0.1195651E-02  0.1401424E-02 -0.1470297E+06 -0.6406762E+03
  0.6690477E+00  0.8668820E+05  0.5550576E+03  0.3694690E-02  0.2306938E-02 -0.1484850E+06 -0.8842632E+03
  0.7000000E+00  0.8749616E+05  0.7545710E+03  0.9155273E-03  0.2163887E-02 -0.1495748E+06 -0.1200832E+04
  0.7309524E+00  0.8840317E+05  0.1010419E+04  0.3674038E-02  0.2708435E-02 -0.1507600E+06 -0.1605901E+04
  0.7619048E+00  0.8948461E+05  0.1336402E+04 -0.1201629E-03  0.1129150E-02 -0.1524799E+06 -0.2122943E+04
  0.7928572E+00  0.9034556E+05  0.1744165E+04 -0.2771326E-02  0.7057190E-03 -0.1538037E+06 -0.2768812E+04
  0.8238096E+00  0.9128104E+05  0.2250898E+04 -0.3556268E-02  0.1335144E-04 -0.1552856E+06 -0.3570974E+04
  0.8547620E+00  0.9247423E+05  0.2876560E+04 -0.1856557E-02  0.2277374E-02 -0.1568694E+06 -0.4555674E+04
  0.8857143E+00  0.9382712E+05  0.3643158E+04 -0.3100980E-02 -0.1556396E-02 -0.1589544E+06 -0.5764474E+04
  0.9166667E+00  0.9501780E+05  0.4567755E+04 -0.2596768E-02 -0.1033783E-02 -0.1606034E+06 -0.7216434E+04
  0.9476191E+00  0.9620968E+05  0.5677301E+04 -0.1094952E-02  0.4467010E-02 -0.1623494E+06 -0.8958247E+04
  0.9785714E+00  0.9744285E+05  0.6998657E+04 -0.8357807E-02 -0.2403259E-02 -0.1640116E+06 -0.1102383E+05
  0.1009524E+01  0.9881266E+05  0.8564783E+04  0.1753321E-02  0.3494263E-02 -0.1662448E+06 -0.1348226E+05
  0.1040476E+01  0.1000292E+06  0.1038931E+05  0.3871612E-02  0.6492615E-02 -0.1680547E+06 -0.1633079E+05
  0.1071429E+01  0.1012298E+06  0.1250559E+05 -0.2164714E-02  0.6301880E-02 -0.1696407E+06 -0.1961441E+05
  0.1102381E+01  0.1024432E+06  0.1494976E+05 -0.4318600E-02 -0.2090454E-02 -0.1712781E+06 -0.2340058E+05
  0.1133333E+01  0.1036347E+06  0.1774941E+05 -0.2854291E-02  0.9384155E-02 -0.1727243E+06 -0.2771138E+05
  0.1164286E+01  0.1048518E+06  0.2094362E+05  0.5242283E-04  0.8163452E-02 -0.1744869E+06 -0.3264408E+05
  0.1195238E+01  0.1057115E+06  0.2451884E+05 -0.2910720E-02  0.6011963E-02 -0.1756225E+06 -0.3814049E+05
  0.1226190E+01  0.1063133E+06  0.2849363E+05  0.4479862E-03  0.1281738E-02 -0.1762581E+06 -0.4422001E+05
  0.1257143E+01  0.1066056E+06  0.3286793E+05  0.1942028E-03  0.3204346E-02 -0.1765782E+06 -0.5091436E+05
  0.1288095E+01  0.1068613E+06  0.3766927E+05 -0.4406716E-02 -0.3875732E-02 -0.1766730E+06 -0.5820202E+05
  0.1319048E+01  0.1068887E+06  0.4283932E+05  0.1388164E-03  0.4974365E-02 -0.1763331E+06 -0.6598552E+05
  0.1350000E+01  0.1067175E+06  0.4839545E+05 -0.1808449E-02 -0.6103516E-04 -0.1758962E+06 -0.7436305E+05
  0.1380952E+01  0.1060685E+06  0.5423424E+05 -0.3624226E-02 -0.1495361E-02 -0.1745938E+06 -0.8308927E+05
  0.1411905E+01  0.1047629E+06  0.6027191E+05 -0.5792679E-02 -0.5462646E-02 -0.1723560E+06 -0.9207994E+05
  0.1442857E+01  0.1033089E+06  0.6653010E+05 -0.2326588E-02 -0.1953125E-02 -0.1698410E+06 -0.1013302E+06
  0.1473810E+01  0.1014817E+06  0.7288824E+05  0.6211979E-03 -0.1647949E-02 -0.1667255E+06 -0.1106385E+06
  0.1504762E+01  0.9935650E+05  0.7923898E+05 -0.2352558E-02  0.2136230E-02 -0.1630258E+06 -0.1197679E+06
  0.1535714E+01  0.9704144E+05  0.8557355E+05 -0.3457712E-02 -0.4333496E-02 -0.1592500E+06 -0.1288880E+06
  0.1566667E+01  0.9437020E+05  0.9172734E+05 -0.3116689E-02  0.2868652E-02 -0.1550162E+06 -0.1376884E+06
  0.1597619E+01  0.9133745E+05  0.9756673E+05 -0.5119313E-02 -0.3784180E-02 -0.1501715E+06 -0.1458728E+06
  0.1628572E+01  0.8798191E+05  0.1029936E+06 -0.8994654E-03 -0.5249023E-02 -0.1447607E+06 -0.1532767E+06
  0.1659524E+01  0.8446922E+05  0.1080406E+06 -0.1324034E-02  0.1953125E-02 -0.1392604E+06 -0.1601077E+06
  0.1690476E+01  0.8087954E+05  0.1126132E+06 -0.1552528E-02 -0.2990723E-02 -0.1336743E+06 -0.1661224E+06
  0.1721429E+01  0.7722900E+05  0.1166415E+06 -0.3758348E-02  0.2441406E-03 -0.1279118E+06 -0.1710931E+06
  0.1752381E+01  0.7360959E+05  0.1201901E+06 -0.1010066E-02 -0.2441406E-02 -0.1222878E+06 -0.1753407E+06
  0.1783333E+01  0.7009446E+05  0.1233344E+06 -0.2566899E-02 -0.6164551E-02 -0.1170580E+06 -0.1791814E+06
  0.1814286E+01  0.6648040E+05  0.1257765E+06 -0.1177450E-02 -0.3967285E-02 -0.1116917E+06 -0.1818619E+06
  0.1845238E+01  0.6297241E+05  0.1276553E+06 -0.1091545E-02 -0.3356934E-02 -0.1064815E+06 -0.1835819E+06
  0.1876190E+01  0.5952347E+05  0.1288954E+06 -0.1528977E-02 -0.5493164E-03 -0.1012991E+06 -0.1841719E+06
  0.1907143E+01  0.5624805E+05  0.1297163E+06 -0.1488161E-02 -0.2441406E-03 -0.9649771E+05 -0.1842532E+06
  0.1938095E+01  0.5314631E+05  0.1301099E+06 -0.6770854E-03 -0.2807617E-02 -0.9202998E+05 -0.1837596E+06
  0.1969048E+01  0.5022536E+05  0.1300549E+06 -0.4603099E-02 -0.3417969E-02 -0.8779363E+05 -0.1824239E+06
  0.2000000E+01  0.4752891E+05  0.1296476E+06  0.3051758E-04 -0.2441406E-02 -0.8388790E+05 -0.1804590E+06
Zone t="Motion of body    1 in DoF   2",I=    64,F=POINT
  0.5000000E-01 -0.1640320E-02 -0.3266335E-04  0.6528752E+05  0.1058648E+03  0.1770020E-01 -0.6675720E-05
  0.8095238E-01 -0.2638873E-02 -0.1668930E-05  0.6458104E+05  0.1753041E+03 -0.2261891E-02  0.3433228E-04
  0.1119048E+00 -0.7226822E-02  0.2861023E-04  0.6433798E+05  0.2505379E+03  0.5454205E-02  0.8392334E-04
  0.1428571E+00 -0.3684997E-02 -0.2622604E-04  0.6414461E+05  0.3343498E+03 -0.2990722E-02 -0.9155273E-04
  0.1738095E+00 -0.1843596E-02 -0.9155273E-04  0.6405975E+05  0.4298926E+03  0.2106967E-02 -0.4196167E-04
  0.2047619E+00 -0.3167086E-02 -0.1811981E-04  0.6414466E+05  0.5415881E+03 -0.1311546E-01  0.6103516E-04
  0.2357143E+00 -0.2848307E-02  0.2202988E-03  0.6407527E+05  0.6752466E+03  0.1812559E-01  0.6103516E-04
  0.2666667E+00 -0.6866455E-02 -0.1373291E-03  0.6419615E+05  0.8351655E+03  0.9155273E-02 -0.1449585E-03
  0.2976190E+00 -0.2999268E-02 -0.1106262E-03  0.6423770E+05  0.1033035E+04 -0.2460937E-02  0.5340576E-04
  0.3285715E+00 -0.7569685E-02  0.2307892E-03  0.6440792E+05  0.1273047E+04  0.2637780E-01 -0.2593994E-03
  0.3595238E+00 -0.1018600E-02  0.1296997E-03  0.6440781E+05  0.1568781E+04 -0.1527900E-01 -0.6713867E-03
  0.3904762E+00  0.1406786E-02 -0.6103516E-04  0.6460420E+05  0.1927216E+04 -0.1250476E-02  0.3051758E-03
  0.4214286E+00 -0.3475900E-02 -0.2517700E-03  0.6442698E+05  0.2344085E+04 -0.4924192E-02  0.1663208E-02
  0.4523810E+00  0.2023797E-02  0.7591248E-03  0.6448570E+05  0.2839697E+04  0.1025391E-01 -0.2746582E-03
  0.4833333E+00 -0.5051185E-03 -0.3814697E-04  0.6411690E+05  0.3365688E+04  0.0000000E+00 -0.1220703E-02
  0.5142857E+00 -0.4005433E-02  0.8392334E-04  0.6380989E+05  0.3949750E+04 -0.1708985E-01 -0.5798340E-03
  0.5452381E+00 -0.6268764E-02  0.4196167E-03  0.6345754E+05  0.4552638E+04 -0.2238844E-02  0.2014160E-02
  0.5761905E+00  0.2515808E-02 -0.1083374E-02  0.6285957E+05  0.5162943E+04 -0.8474302E-03  0.1220703E-02
  0.6071429E+00 -0.4448385E-02 -0.3814697E-03  0.6241595E+05  0.5793897E+04  0.1085708E-01 -0.9155273E-04
  0.6380953E+00 -0.4782605E-02 -0.7476807E-03  0.6174234E+05  0.6397099E+04  0.2410433E-01 -0.5493164E-03
  0.6690477E+00 -0.8689364E-02  0.7629395E-03  0.6104974E+05  0.6997053E+04  0.1204195E-01 -0.6103516E-04
  0.7000000E+00 -0.1569475E-02  0.2288818E-03  0.6047952E+05  0.7585728E+04  0.5231584E-02  0.2685547E-02
  0.7309524E+00 -0.8350086E-04  0.1480103E-02  0.5974775E+05  0.8140663E+04 -0.7014072E-02 -0.1770020E-02
  0.7619048E+00 -0.2763748E-02 -0.3814697E-03  0.5895349E+05  0.8673511E+04  0.7690429E-02  0.3295898E-02
  0.7928572E+00 -0.7717372E-02 -0.9765625E-03  0.5825548E+05  0.9167929E+04 -0.3079251E-03  0.1159668E-02
  0.8238096E+00 -0.7612636E-02 -0.3479004E-02  0.5770863E+05  0.9616237E+04  0.8001603E-02  0.1037598E-02
  0.8547620E+00 -0.8925754E-02  0.6408691E-03  0.5681075E+05  0.1002947E+05 -0.1999369E-02  0.4150391E-02
  0.8857143E+00 -0.6736017E-02 -0.2349854E-02  0.5603986E+05  0.1040012E+05  0.4685925E-02  0.5798340E-02
  0.9166667E+00 -0.4744096E-02 -0.2380371E-02  0.5539905E+05  0.1070904E+05  0.6924716E-02  0.7324219E-03
  0.9476191E+00 -0.6537509E-02  0.1525879E-02  0.5492172E+05  0.1095739E+05  0.1365470E-01  0.2441406E-02
  0.9785714E+00 -0.5457523E-02 -0.5187988E-03  0.5406954E+05  0.1115289E+05  0.7484603E-02 -0.6164551E-02
  0.1009524E+01 -0.3672906E-02 -0.3051758E-02  0.5337781E+05  0.1130137E+05 -0.7255123E-03 -0.2746582E-02
  0.1040476E+01 -0.5587440E-02  0.1068115E-02  0.5277814E+05  0.1138975E+05  0.4223577E-02  0.1025391E-01
  0.1071429E+01 -0.3745524E-02 -0.3814697E-02  0.5232436E+05  0.1142190E+05  0.6152344E-02  0.7324219E-03
  0.1102381E+01 -0.8734091E-02 -0.5615234E-02  0.5191808E+05  0.1139403E+05  0.1063040E-01  0.2441406E-02
  0.1133333E+01 -0.5870146E-02 -0.3265381E-02  0.5125092E+05  0.1129770E+05  0.6893382E-02 -0.1220703E-03
  0.1164286E+01 -0.7778238E-02 -0.8850098E-03  0.5075123E+05  0.1117710E+05  0.1258148E-01  0.1647949E-02
  0.1195238E+01 -0.4008624E-02 -0.3967285E-03  0.5033426E+05  0.1100640E+05  0.4085221E-02 -0.1403809E-02
  0.1226190E+01 -0.4616747E-02 -0.6835938E-02  0.5003549E+05  0.1079160E+05  0.1075167E-01  0.9704590E-02
  0.1257143E+01 -0.4302805E-02 -0.3173828E-02  0.4989235E+05  0.1055839E+05  0.6602894E-02  0.1489258E-01
  0.1288095E+01 -0.1788747E-02  0.1678467E-02  0.4953171E+05  0.1022441E+05  0.1895362E-02 -0.4455566E-02
  0.1319048E+01 -0.6275658E-02 -0.2410889E-02  0.4915885E+05  0.9851904E+04  0.4442125E-02  0.1403809E-01
  0.1350000E+01 -0.3139355E-02 -0.2288818E-02  0.4891854E+05  0.9509218E+04  0.6148727E-02  0.1037598E-02
  0.1380952E+01 -0.5561335E-02 -0.6439209E-02  0.4874595E+05  0.9136879E+04  0.8839575E-02  0.7202148E-02
  0.1411905E+01 -0.6890964E-02 -0.6195068E-02  0.4866402E+05  0.8756781E+04  0.1106661E-01  0.9887695E-02
  0.1442857E+01 -0.2318656E-02 -0.1159668E-02  0.4870880E+05  0.8415413E+04  0.3045715E-02  0.2258301E-02
  0.1473810E+01 -0.5145589E-02 -0.6042480E-02  0.4868109E+05  0.7999885E+04  0.1093308E-01  0.7934570E-03
  0.1504762E+01 -0.3716432E-02 -0.4302979E-02  0.4849444E+05  0.7453776E+04  0.8112268E-02  0.2136230E-02
  0.1535714E+01 -0.4992818E-02 -0.3509521E-02  0.4842462E+05  0.6996782E+04  0.9538516E-02  0.7629395E-02
  0.1566667E+01 -0.2965724E-02  0.3662109E-03  0.4840793E+05  0.6575551E+04  0.4363364E-02 -0.9582520E-02
  0.1597619E+01 -0.1117462E-02 -0.1495361E-02  0.4843803E+05  0.6162262E+04  0.1528153E-02  0.7263184E-02
  0.1628572E+01 -0.4862735E-02 -0.1000977E-01  0.4852872E+05  0.5784396E+04  0.2698396E-02  0.1821899E-01
  0.1659524E+01 -0.4496198E-02 -0.1220703E-01  0.4869049E+05  0.5493755E+04  0.5884594E-03  0.1644897E-01
  0.1690476E+01 -0.2193397E-02 -0.4791260E-02  0.4886196E+05  0.5207881E+04  0.5199163E-02  0.1031494E-01
  0.1721429E+01 -0.5850258E-03 -0.6317139E-02  0.4886511E+05  0.4679178E+04  0.4538382E-02  0.9521484E-02
  0.1752381E+01 -0.3613597E-02 -0.7995605E-02  0.4890083E+05  0.4179641E+04  0.4458220E-02  0.1422119E-01
  0.1783333E+01 -0.1018203E-02 -0.7171631E-02  0.4898306E+05  0.3816469E+04  0.4654644E-02  0.1034546E-01
  0.1814286E+01 -0.2354900E-02 -0.8697510E-02  0.4908750E+05  0.3487447E+04  0.5382628E-02  0.6835938E-02
  0.1845238E+01 -0.1959819E-02 -0.1373291E-02  0.4921096E+05  0.3191192E+04  0.5292339E-02  0.5584717E-02
  0.1876190E+01 -0.1219929E-02 -0.1260376E-01  0.4935761E+05  0.2944331E+04  0.3383269E-02  0.1342773E-01
  0.1907143E+01 -0.1864201E-02 -0.1083374E-01  0.4952354E+05  0.2791820E+04  0.2560276E-02  0.1512146E-01
  0.1938095E+01 -0.1653348E-03 -0.5645752E-02  0.4970340E+05  0.2687087E+04  0.6046529E-02  0.1136780E-01
  0.1969048E+01 -0.5424527E-04 -0.3173828E-02  0.4982078E+05  0.2380543E+04 -0.7439352E-03  0.4028320E-02
  0.2000000E+01 -0.1159668E-02 -0.4211426E-02  0.4991880E+05  0.1994945E+04  0.5126953E-02  0.8850098E-03
Zone t="Motion of body    1 in DoF   3",I=    64,F=POINT
  0.5000000E-01 -0.1372532E+06 -0.1029090E-01 -0.8316040E-02 -0.7817228E-04  0.3241334E+06  0.1646698E-01
  0.8095238E-01 -0.1378544E+06 -0.4546611E-01  0.4646301E-01  0.6283406E-04  0.3252548E+06  0.7286757E-01
  0.1119048E+00 -0.1381699E+06 -0.1279150E+00 -0.4567897E-02 -0.1278443E-03  0.3255194E+06  0.2050045E+00
  0.1428571E+00 -0.1384819E+06 -0.2877624E+00 -0.1046753E-01 -0.2922555E-03  0.3259445E+06  0.4609754E+00
  0.1738095E+00 -0.1387482E+06 -0.5731397E+00 -0.3599402E-02 -0.2822857E-03  0.3262410E+06  0.9177086E+00
  0.2047619E+00 -0.1387287E+06 -0.1056776E+01  0.1102891E-01 -0.2587596E-03  0.3265228E+06  0.1692115E+01
  0.2357143E+00 -0.1391873E+06 -0.1862927E+01  0.2395167E-02 -0.4362259E-03  0.3269428E+06  0.2982668E+01
  0.2666667E+00 -0.1392358E+06 -0.3179086E+01 -0.9212493E-02 -0.4339181E-03  0.3269379E+06  0.5087897E+01
  0.2976190E+00 -0.1397395E+06 -0.5334032E+01  0.3778565E-01  0.2265200E-03  0.3278221E+06  0.8539533E+01
  0.3285715E+00 -0.1399575E+06 -0.8830720E+01 -0.1258518E-01 -0.1566797E-02  0.3280423E+06  0.1412775E+02
  0.3595238E+00 -0.1406335E+06 -0.1451760E+02  0.1931096E-01 -0.4199296E-03  0.3290389E+06  0.2322248E+02
  0.3904762E+00 -0.1407350E+06 -0.2365106E+02 -0.2352458E-01 -0.3107578E-02  0.3295562E+06  0.3783077E+02
  0.4214286E+00 -0.1416314E+06 -0.3811795E+02 -0.5431094E-02 -0.2409697E-02  0.3305637E+06  0.6095101E+02
  0.4523810E+00 -0.1420349E+06 -0.6084601E+02 -0.2806332E-01 -0.3033936E-02  0.3314098E+06  0.9723530E+02
  0.4833333E+00 -0.1427836E+06 -0.9476711E+02 -0.2651872E-02 -0.3037214E-02  0.3320568E+06  0.1513620E+03
  0.5142857E+00 -0.1434484E+06 -0.1450520E+03 -0.2521939E-01 -0.5592108E-02  0.3333997E+06  0.2317172E+03
  0.5452381E+00 -0.1440979E+06 -0.2169725E+03 -0.2182873E-02 -0.3031015E-02  0.3341923E+06  0.3462891E+03
  0.5761905E+00 -0.1453717E+06 -0.3172453E+03  0.6037940E-02 -0.3503799E-02  0.3360258E+06  0.5061089E+03
  0.6071429E+00 -0.1460428E+06 -0.4548196E+03 -0.1447610E-01 -0.8131027E-02  0.3373103E+06  0.7251263E+03
  0.6380953E+00 -0.1469360E+06 -0.6376017E+03  0.1004347E-01 -0.4115105E-02  0.3383352E+06  0.1015990E+04
  0.6690477E+00 -0.1484436E+06 -0.8795602E+03 -0.1236125E-01 -0.8859634E-02  0.3407813E+06  0.1401220E+04
  0.7000000E+00 -0.1494677E+06 -0.1194919E+04  0.7367815E-02 -0.2912521E-02  0.3424378E+06  0.1901631E+04
  0.7309524E+00 -0.1506440E+06 -0.1598795E+04  0.1970620E-01 -0.2944946E-02  0.3437690E+06  0.2541031E+04
  0.7619048E+00 -0.1524179E+06 -0.2112756E+04  0.5367279E-02 -0.5245209E-02  0.3465246E+06  0.3356256E+04
  0.7928572E+00 -0.1537068E+06 -0.2754888E+04  0.1828305E-01  0.4005432E-03  0.3485904E+06  0.4373407E+04
  0.8238096E+00 -0.1551117E+06 -0.3551934E+04 -0.2148578E-02 -0.3852844E-02  0.3512308E+06  0.5635129E+04
  0.8547620E+00 -0.1567319E+06 -0.4533465E+04  0.1160348E-01 -0.6145477E-02  0.3528111E+06  0.7179416E+04
  0.8857143E+00 -0.1588634E+06 -0.5734833E+04  0.6615423E-02 -0.1004028E-01  0.3561364E+06  0.9073972E+04
  0.9166667E+00 -0.1604798E+06 -0.7181433E+04  0.2783203E-01  0.2944946E-02  0.3584576E+06  0.1134568E+05
  0.9476191E+00 -0.1621472E+06 -0.8915485E+04  0.1497508E-01 -0.6088257E-02  0.3614270E+06  0.1406842E+05
  0.9785714E+00 -0.1638325E+06 -0.1097371E+05  0.3396139E-01  0.9353638E-02  0.3631565E+06  0.1728490E+05
  0.1009524E+01 -0.1661001E+06 -0.1340991E+05 -0.1980044E-01 -0.1365662E-01  0.3667840E+06  0.2110998E+05
  0.1040476E+01 -0.1679014E+06 -0.1623780E+05  0.5866079E-04 -0.1554871E-01  0.3694915E+06  0.2552393E+05
  0.1071429E+01 -0.1694382E+06 -0.1950821E+05  0.2677409E-02 -0.1780701E-01  0.3716759E+06  0.3059673E+05
  0.1102381E+01 -0.1710333E+06 -0.2327957E+05  0.5149100E-02 -0.8331299E-02  0.3740712E+06  0.3643964E+05
  0.1133333E+01 -0.1725128E+06 -0.2758014E+05  0.1561782E-01 -0.5035400E-02  0.3753005E+06  0.4305585E+05
  0.1164286E+01 -0.1743191E+06 -0.3247878E+05  0.2972374E-01 -0.3173828E-02  0.3779072E+06  0.5062222E+05
  0.1195238E+01 -0.1754507E+06 -0.3794150E+05  0.1434934E-01 -0.8483887E-02  0.3794817E+06  0.5902085E+05
  0.1226190E+01 -0.1760387E+06 -0.4399378E+05  0.2379305E-01  0.3906250E-02  0.3801121E+06  0.6827966E+05
  0.1257143E+01 -0.1762879E+06 -0.5063812E+05  0.1228333E-01 -0.5889893E-02  0.3807454E+06  0.7845777E+05
  0.1288095E+01 -0.1763831E+06 -0.5788373E+05  0.2681937E-01  0.1440430E-01  0.3802164E+06  0.8944057E+05
  0.1319048E+01 -0.1760722E+06 -0.6562492E+05  0.4627214E-02 -0.2221680E-01  0.3788059E+06  0.1010684E+06
  0.1350000E+01 -0.1756955E+06 -0.7392250E+05  0.2138491E-01  0.5310059E-02  0.3780243E+06  0.1135796E+06
  0.1380952E+01 -0.1744049E+06 -0.8258767E+05  0.1993324E-01  0.7446289E-02  0.3756570E+06  0.1265223E+06
  0.1411905E+01 -0.1720821E+06 -0.9146920E+05  0.6311426E-02  0.1831055E-02  0.3717976E+06  0.1397437E+06
  0.1442857E+01 -0.1695384E+06 -0.1006591E+06  0.2495794E-01  0.3540039E-02  0.3678975E+06  0.1533479E+06
  0.1473810E+01 -0.1664110E+06 -0.1099010E+06  0.1287950E-01 -0.4943848E-02  0.3627539E+06  0.1668569E+06
  0.1504762E+01 -0.1627462E+06 -0.1189781E+06  0.1208728E-01 -0.1318359E-01  0.3559904E+06  0.1797750E+06
  0.1535714E+01 -0.1590419E+06 -0.1280048E+06  0.5325672E-02 -0.1232910E-01  0.3499218E+06  0.1927377E+06
  0.1566667E+01 -0.1548933E+06 -0.1367058E+06  0.1153175E-01  0.4882812E-03  0.3435168E+06  0.2051856E+06
  0.1597619E+01 -0.1500903E+06 -0.1448130E+06  0.2055366E-01  0.7751465E-02  0.3359657E+06  0.2164949E+06
  0.1628572E+01 -0.1446670E+06 -0.1521770E+06  0.2998218E-02 -0.2990723E-02  0.3274134E+06  0.2264697E+06
  0.1659524E+01 -0.1391673E+06 -0.1589611E+06  0.6914399E-02 -0.9765625E-02  0.3192615E+06  0.2356712E+06
  0.1690476E+01 -0.1335866E+06 -0.1649474E+06  0.1444212E-03 -0.1464844E-02  0.3109868E+06  0.2435152E+06
  0.1721429E+01 -0.1278705E+06 -0.1698972E+06  0.2418107E-01  0.9765625E-02  0.3015985E+06  0.2491640E+06
  0.1752381E+01 -0.1222953E+06 -0.1741080E+06  0.5503116E-02 -0.1953125E-02  0.2926273E+06  0.2537571E+06
  0.1783333E+01 -0.1171978E+06 -0.1778689E+06  0.5955206E-02  0.6103516E-03  0.2850758E+06  0.2582328E+06
  0.1814286E+01 -0.1119161E+06 -0.1805064E+06  0.1547506E-01  0.8850098E-02  0.2774668E+06  0.2609434E+06
  0.1845238E+01 -0.1067616E+06 -0.1821977E+06  0.9526210E-02  0.1159668E-02  0.2699306E+06  0.2619594E+06
  0.1876190E+01 -0.1015628E+06 -0.1827807E+06  0.1717659E-01 -0.7019043E-02  0.2622355E+06  0.2610773E+06
  0.1907143E+01 -0.9676850E+05 -0.1828825E+06  0.7168774E-02  0.2868652E-02  0.2556292E+06  0.2599404E+06
  0.1938095E+01 -0.9229651E+05 -0.1824088E+06  0.1776168E-01  0.3295898E-02  0.2497082E+06  0.2581907E+06
  0.1969048E+01 -0.8807981E+05 -0.1810765E+06  0.2988140E-01  0.1129150E-01  0.2435028E+06  0.2543071E+06
  0.2000000E+01 -0.8419679E+05 -0.1791015E+06  0.1745605E-01  0.2502441E-02  0.2374595E+06  0.2488924E+06
