VARIABLES="w (rad/s)"
"abs(F   1   1)" "angle(F   1   1)"
"abs(F   1   2)" "angle(F   1   2)"
"abs(F   1   3)" "angle(F   1   3)"
Zone t="Diffraction force - beta =   0.000 deg",I=    64,F=POINT
  0.5000000E-01  0.2407470E+03 -0.1570779E+01  0.8888529E+05 -0.6083020E-05  0.2478935E+01 -0.1571833E+01
  0.8095238E-01  0.3925076E+03 -0.1570760E+01  0.8880902E+05 -0.1637967E-04  0.4056979E+01 -0.1571426E+01
  0.1119048E+00  0.5474770E+03 -0.1570790E+01  0.8869652E+05 -0.3256838E-04  0.5665198E+01 -0.1571245E+01
  0.1428571E+00  0.7088433E+03 -0.1570787E+01  0.8854788E+05 -0.5594296E-04  0.7349545E+01 -0.1571129E+01
  0.1738095E+00  0.8770283E+03 -0.1570794E+01  0.8836283E+05 -0.8847150E-04  0.9086306E+01 -0.1571075E+01
  0.2047619E+00  0.1055450E+04 -0.1570795E+01  0.8814125E+05 -0.1329510E-03  0.1096724E+02 -0.1571023E+01
  0.2357143E+00  0.1244211E+04 -0.1570802E+01  0.8788248E+05 -0.1936101E-03  0.1294339E+02 -0.1570976E+01
  0.2666667E+00  0.1449387E+04 -0.1570796E+01  0.8758649E+05 -0.2756981E-03  0.1509896E+02 -0.1570957E+01
  0.2976190E+00  0.1672306E+04 -0.1570795E+01  0.8725273E+05 -0.3878327E-03  0.1751004E+02 -0.1570932E+01
  0.3285715E+00  0.1914421E+04 -0.1570792E+01  0.8688080E+05 -0.5394032E-03  0.2010407E+02 -0.1570910E+01
  0.3595238E+00  0.2184428E+04 -0.1570786E+01  0.8647068E+05 -0.7446333E-03  0.2299159E+02 -0.1570894E+01
  0.3904762E+00  0.2483941E+04 -0.1570780E+01  0.8602263E+05 -0.1020288E-02  0.2627930E+02 -0.1570875E+01
  0.4214286E+00  0.2814995E+04 -0.1570774E+01  0.8553691E+05 -0.1378149E-02  0.2995428E+02 -0.1570852E+01
  0.4523810E+00  0.3178459E+04 -0.1570762E+01  0.8501422E+05 -0.1846407E-02  0.3390630E+02 -0.1570839E+01
  0.4833333E+00  0.3581652E+04 -0.1570748E+01  0.8445623E+05 -0.2417406E-02  0.3840211E+02 -0.1570809E+01
  0.5142857E+00  0.4021097E+04 -0.1570722E+01  0.8386427E+05 -0.3123847E-02  0.4341666E+02 -0.1570777E+01
  0.5452381E+00  0.4488680E+04 -0.1570695E+01  0.8323847E+05 -0.3961002E-02  0.4882357E+02 -0.1570745E+01
  0.5761905E+00  0.4987832E+04 -0.1570653E+01  0.8257951E+05 -0.4935127E-02  0.5450816E+02 -0.1570698E+01
  0.6071429E+00  0.5521329E+04 -0.1570602E+01  0.8189030E+05 -0.6076121E-02  0.6077999E+02 -0.1570644E+01
  0.6380953E+00  0.6084583E+04 -0.1570538E+01  0.8116865E+05 -0.7364918E-02  0.6775264E+02 -0.1570571E+01
  0.6690477E+00  0.6669642E+04 -0.1570455E+01  0.8041722E+05 -0.8833082E-02  0.7462698E+02 -0.1570484E+01
  0.7000000E+00  0.7272551E+04 -0.1570346E+01  0.7963838E+05 -0.1050133E-01  0.8166795E+02 -0.1570376E+01
  0.7309524E+00  0.7905982E+04 -0.1570220E+01  0.7882956E+05 -0.1236527E-01  0.8962392E+02 -0.1570246E+01
  0.7619048E+00  0.8569557E+04 -0.1570064E+01  0.7799441E+05 -0.1444784E-01  0.9798930E+02 -0.1570089E+01
  0.7928572E+00  0.9257080E+04 -0.1569874E+01  0.7713574E+05 -0.1676393E-01  0.1067547E+03 -0.1569898E+01
  0.8238096E+00  0.9963219E+04 -0.1569649E+01  0.7625458E+05 -0.1932484E-01  0.1160423E+03 -0.1569670E+01
  0.8547620E+00  0.1068575E+05 -0.1569379E+01  0.7534961E+05 -0.2214006E-01  0.1253472E+03 -0.1569399E+01
  0.8857143E+00  0.1142656E+05 -0.1569061E+01  0.7442346E+05 -0.2522293E-01  0.1348759E+03 -0.1569078E+01
  0.9166667E+00  0.1219516E+05 -0.1568689E+01  0.7347866E+05 -0.2858505E-01  0.1451371E+03 -0.1568705E+01
  0.9476191E+00  0.1298779E+05 -0.1568254E+01  0.7251858E+05 -0.3223742E-01  0.1562794E+03 -0.1568271E+01
  0.9785714E+00  0.1380514E+05 -0.1567751E+01  0.7154208E+05 -0.3618838E-01  0.1681120E+03 -0.1567768E+01
  0.1009524E+01  0.1464227E+05 -0.1567173E+01  0.7055180E+05 -0.4044714E-01  0.1802424E+03 -0.1567186E+01
  0.1040476E+01  0.1549281E+05 -0.1566509E+01  0.6954945E+05 -0.4502302E-01  0.1924487E+03 -0.1566522E+01
  0.1071429E+01  0.1635204E+05 -0.1565754E+01  0.6853705E+05 -0.4992471E-01  0.2047217E+03 -0.1565765E+01
  0.1102381E+01  0.1722314E+05 -0.1564898E+01  0.6751420E+05 -0.5515959E-01  0.2176264E+03 -0.1564908E+01
  0.1133333E+01  0.1811919E+05 -0.1563933E+01  0.6648210E+05 -0.6073454E-01  0.2315831E+03 -0.1563943E+01
  0.1164286E+01  0.1903724E+05 -0.1562852E+01  0.6544369E+05 -0.6665765E-01  0.2460011E+03 -0.1562863E+01
  0.1195238E+01  0.1997328E+05 -0.1561643E+01  0.6440154E+05 -0.7293434E-01  0.2608791E+03 -0.1561656E+01
  0.1226190E+01  0.2092461E+05 -0.1560300E+01  0.6335681E+05 -0.7957013E-01  0.2763811E+03 -0.1560313E+01
  0.1257143E+01  0.2187829E+05 -0.1558812E+01  0.6231370E+05 -0.8664365E-01  0.2925698E+03 -0.1558826E+01
  0.1288095E+01  0.2286006E+05 -0.1557168E+01  0.6126409E+05 -0.9393550E-01  0.3098176E+03 -0.1557181E+01
  0.1319048E+01  0.2383847E+05 -0.1555361E+01  0.6021598E+05 -0.1016688E+00  0.3268105E+03 -0.1555369E+01
  0.1350000E+01  0.2481910E+05 -0.1553380E+01  0.5916918E+05 -0.1097751E+00  0.3436399E+03 -0.1553383E+01
  0.1380952E+01  0.2580041E+05 -0.1551220E+01  0.5812284E+05 -0.1182520E+00  0.3606601E+03 -0.1551219E+01
  0.1411905E+01  0.2674242E+05 -0.1548962E+01  0.5708836E+05 -0.1270589E+00  0.3758321E+03 -0.1548963E+01
  0.1442857E+01  0.2774005E+05 -0.1546444E+01  0.5605306E+05 -0.1363109E+00  0.3949122E+03 -0.1546458E+01
  0.1473810E+01  0.2874672E+05 -0.1543737E+01  0.5502254E+05 -0.1459498E+00  0.4147602E+03 -0.1543769E+01
  0.1504762E+01  0.2976059E+05 -0.1540835E+01  0.5399772E+05 -0.1559720E+00  0.4354431E+03 -0.1540870E+01
  0.1535714E+01  0.3077317E+05 -0.1537735E+01  0.5298048E+05 -0.1663812E+00  0.4560072E+03 -0.1537772E+01
  0.1566667E+01  0.3178162E+05 -0.1534432E+01  0.5197215E+05 -0.1771786E+00  0.4771364E+03 -0.1534474E+01
  0.1597619E+01  0.3278170E+05 -0.1530925E+01  0.5097277E+05 -0.1883628E+00  0.4983380E+03 -0.1530970E+01
  0.1628572E+01  0.3377167E+05 -0.1527214E+01  0.4998262E+05 -0.1999363E+00  0.5199200E+03 -0.1527253E+01
  0.1659524E+01  0.3473928E+05 -0.1523300E+01  0.4900405E+05 -0.2119042E+00  0.5416828E+03 -0.1523318E+01
  0.1690476E+01  0.3568851E+05 -0.1519190E+01  0.4803348E+05 -0.2242580E+00  0.5634675E+03 -0.1519173E+01
  0.1721429E+01  0.3661805E+05 -0.1514893E+01  0.4707155E+05 -0.2369991E+00  0.5855870E+03 -0.1514833E+01
  0.1752381E+01  0.3752826E+05 -0.1510436E+01  0.4611893E+05 -0.2501286E+00  0.6081830E+03 -0.1510381E+01
  0.1783333E+01  0.3842080E+05 -0.1505846E+01  0.4517757E+05 -0.2636643E+00  0.6305054E+03 -0.1505785E+01
  0.1814286E+01  0.3928981E+05 -0.1501138E+01  0.4424866E+05 -0.2775966E+00  0.6531842E+03 -0.1501116E+01
  0.1845238E+01  0.4013093E+05 -0.1496330E+01  0.4333315E+05 -0.2919275E+00  0.6756826E+03 -0.1496364E+01
  0.1876190E+01  0.4094329E+05 -0.1491444E+01  0.4242982E+05 -0.3066481E+00  0.6984122E+03 -0.1491480E+01
  0.1907143E+01  0.4171643E+05 -0.1486496E+01  0.4154263E+05 -0.3217755E+00  0.7213912E+03 -0.1486500E+01
  0.1938095E+01  0.4245064E+05 -0.1481516E+01  0.4066715E+05 -0.3372873E+00  0.7443318E+03 -0.1481488E+01
  0.1969048E+01  0.4314419E+05 -0.1476535E+01  0.3980395E+05 -0.3531930E+00  0.7671987E+03 -0.1476470E+01
  0.2000000E+01  0.4379434E+05 -0.1471588E+01  0.3895222E+05 -0.3694805E+00  0.7900343E+03 -0.1471505E+01
