VARIABLES="w (rad/s)"
"A   1   1" "B   1   1"
"A   1   2" "B   1   2"
"A   1   3" "B   1   3"
Zone t="Motion of body    1 in DoF   1",I=    64,F=POINT
  0.5000000E-01  0.1448947E+05  0.1780758E-03  0.0000000E+00 -0.1411575E-05 -0.2134065E+05 -0.2396223E-03
  0.8095238E-01  0.1458849E+05  0.7229137E-03 -0.2356136E-04  0.1702228E-06 -0.2149534E+05 -0.1022793E-02
  0.1119048E+00  0.1465039E+05  0.2033802E-02 -0.7414310E-03 -0.5105190E-05 -0.2157086E+05 -0.2812574E-02
  0.1428571E+00  0.1468577E+05  0.4552356E-02 -0.2349854E-02 -0.1266230E-04 -0.2160260E+05 -0.6287959E-02
  0.1738095E+00  0.1470937E+05  0.8989401E-02 -0.2255113E-02 -0.1950741E-04 -0.2162276E+05 -0.1231541E-01
  0.2047619E+00  0.1471892E+05  0.1671341E-01 -0.2328740E-02 -0.2221060E-04 -0.2162419E+05 -0.2294090E-01
  0.2357143E+00  0.1472948E+05  0.2947337E-01 -0.1343236E-02 -0.2897630E-04 -0.2163804E+05 -0.4047157E-01
  0.2666667E+00  0.1472508E+05  0.5026387E-01 -0.5292892E-03 -0.8055824E-05 -0.2163654E+05 -0.6891085E-01
  0.2976190E+00  0.1477086E+05  0.8444791E-01 -0.3588867E-03 -0.8274568E-05 -0.2165610E+05 -0.1154655E+00
  0.3285715E+00  0.1476253E+05  0.1396727E+00  0.2304574E-02  0.2233905E-04 -0.2165748E+05 -0.1906563E+00
  0.3595238E+00  0.1477105E+05  0.2292840E+00  0.1145925E-02  0.3978820E-04 -0.2167691E+05 -0.3123193E+00
  0.3904762E+00  0.1479105E+05  0.3738957E+00  0.1299323E-02  0.2127397E-04 -0.2168263E+05 -0.5078820E+00
  0.4214286E+00  0.1483759E+05  0.6024816E+00 -0.9232860E-03 -0.2601091E-04 -0.2170870E+05 -0.8155871E+00
  0.4523810E+00  0.1483154E+05  0.9605883E+00  0.8685463E-03  0.2291938E-04 -0.2171410E+05 -0.1297040E+01
  0.4833333E+00  0.1486320E+05  0.1495405E+01 -0.2367743E-03 -0.1258962E-04 -0.2173139E+05 -0.2011486E+01
  0.5142857E+00  0.1490064E+05  0.2290536E+01  0.3857083E-03 -0.2832152E-05 -0.2175890E+05 -0.3069693E+01
  0.5452381E+00  0.1492591E+05  0.3423923E+01 -0.1539205E-03  0.6599352E-05 -0.2178003E+05 -0.4572085E+01
  0.5761905E+00  0.1495619E+05  0.4998080E+01 -0.6289521E-03 -0.9483472E-04 -0.2181571E+05 -0.6649469E+01
  0.6071429E+00  0.1497462E+05  0.7159117E+01  0.1256606E-03  0.2703443E-04 -0.2183332E+05 -0.9487290E+01
  0.6380953E+00  0.1502480E+05  0.1003911E+02  0.7771733E-04 -0.8966029E-04 -0.2186722E+05 -0.1324081E+02
  0.6690477E+00  0.1508368E+05  0.1384131E+02  0.1687698E-02  0.2144724E-03 -0.2191990E+05 -0.1816923E+02
  0.7000000E+00  0.1511023E+05  0.1877913E+02 -0.7629394E-04 -0.9413064E-04 -0.2194311E+05 -0.2453795E+02
  0.7309524E+00  0.1513599E+05  0.2508545E+02  0.1377764E-02  0.2391189E-03 -0.2197524E+05 -0.3262964E+02
  0.7619048E+00  0.1520077E+05  0.3310948E+02  0.1211643E-02  0.1654178E-03 -0.2203165E+05 -0.4283471E+02
  0.7928572E+00  0.1525319E+05  0.4316236E+02  0.1020002E-02  0.9140372E-04 -0.2207110E+05 -0.5552869E+02
  0.8238096E+00  0.1531340E+05  0.5565397E+02  0.5927113E-03  0.1164079E-03 -0.2212832E+05 -0.7120218E+02
  0.8547620E+00  0.1537220E+05  0.7100566E+02  0.2231438E-03  0.1607537E-03 -0.2216925E+05 -0.9028806E+02
  0.8857143E+00  0.1544107E+05  0.8974143E+02  0.6288098E-03  0.1221299E-03 -0.2223460E+05 -0.1134317E+03
  0.9166667E+00  0.1548195E+05  0.1122955E+03  0.7490678E-04 -0.1834035E-03 -0.2227722E+05 -0.1411129E+03
  0.9476191E+00  0.1554303E+05  0.1394074E+03 -0.4750160E-03 -0.5261898E-03 -0.2233792E+05 -0.1741004E+03
  0.9785714E+00  0.1561551E+05  0.1717496E+03 -0.2650797E-03 -0.5184412E-03 -0.2238934E+05 -0.2130001E+03
  0.1009524E+01  0.1571719E+05  0.2101973E+03  0.4232155E-03 -0.1194477E-03 -0.2246870E+05 -0.2587842E+03
  0.1040476E+01  0.1579739E+05  0.2552755E+03 -0.3666299E-04 -0.1758337E-03 -0.2253941E+05 -0.3120919E+03
  0.1071429E+01  0.1586732E+05  0.3078545E+03  0.4699707E-03 -0.8535385E-04 -0.2259183E+05 -0.3736217E+03
  0.1102381E+01  0.1594678E+05  0.3690212E+03  0.6851624E-03 -0.1192093E-04 -0.2266310E+05 -0.4446038E+03
  0.1133333E+01  0.1602163E+05  0.4395957E+03 -0.7472319E-03 -0.3583431E-03 -0.2272009E+05 -0.5255678E+03
  0.1164286E+01  0.1611583E+05  0.5209128E+03  0.4718055E-03  0.4339218E-04 -0.2279789E+05 -0.6178959E+03
  0.1195238E+01  0.1620080E+05  0.6137335E+03  0.3574569E-03 -0.5164146E-03 -0.2286914E+05 -0.7222632E+03
  0.1226190E+01  0.1628500E+05  0.7192903E+03  0.6346471E-03  0.1606941E-03 -0.2292309E+05 -0.8393103E+03
  0.1257143E+01  0.1637166E+05  0.8387066E+03  0.5340576E-03  0.8420944E-03 -0.2298767E+05 -0.9704831E+03
  0.1288095E+01  0.1647770E+05  0.9742942E+03  0.1350445E-02  0.1330853E-02 -0.2305922E+05 -0.1117330E+04
  0.1319048E+01  0.1657897E+05  0.1126140E+04  0.3239050E-03 -0.4472733E-03 -0.2312228E+05 -0.1279686E+04
  0.1350000E+01  0.1668754E+05  0.1296143E+04 -0.2825702E-03  0.3833771E-03 -0.2319740E+05 -0.1459433E+04
  0.1380952E+01  0.1677651E+05  0.1484730E+04 -0.3756819E-03 -0.5512238E-03 -0.2325735E+05 -0.1656600E+04
  0.1411905E+01  0.1676414E+05  0.1680332E+04 -0.5835908E-03 -0.4482269E-03 -0.2325565E+05 -0.1860416E+04
  0.1442857E+01  0.1683711E+05  0.1908193E+04 -0.6345239E-04 -0.8201599E-04 -0.2329955E+05 -0.2092904E+04
  0.1473810E+01  0.1691156E+05  0.2158467E+04 -0.1024976E-02 -0.1750946E-02 -0.2333893E+05 -0.2344482E+04
  0.1504762E+01  0.1698560E+05  0.2432103E+04 -0.1328384E-02 -0.1903534E-02 -0.2336148E+05 -0.2614499E+04
  0.1535714E+01  0.1707038E+05  0.2731153E+04 -0.1917639E-02 -0.2056122E-02 -0.2339063E+05 -0.2905205E+04
  0.1566667E+01  0.1715406E+05  0.3056100E+04 -0.7109946E-03 -0.2723694E-02 -0.2342309E+05 -0.3217066E+04
  0.1597619E+01  0.1721807E+05  0.3406113E+04 -0.1298930E-02 -0.2115250E-02 -0.2343609E+05 -0.3548039E+04
  0.1628572E+01  0.1726216E+05  0.3780821E+04 -0.7589239E-03 -0.3814697E-04 -0.2342107E+05 -0.3895357E+04
  0.1659524E+01  0.1730287E+05  0.4182872E+04 -0.1287255E-03 -0.6217957E-03 -0.2340788E+05 -0.4262961E+04
  0.1690476E+01  0.1733895E+05  0.4612318E+04  0.1353949E-03  0.7400513E-03 -0.2339444E+05 -0.4649714E+04
  0.1721429E+01  0.1735049E+05  0.5065109E+04  0.9395869E-03  0.1399994E-02 -0.2334191E+05 -0.5046880E+04
  0.1752381E+01  0.1735926E+05  0.5544667E+04 -0.5398626E-03 -0.5645752E-03 -0.2328856E+05 -0.5460085E+04
  0.1783333E+01  0.1735965E+05  0.6049042E+04 -0.2481336E-03 -0.7553101E-03 -0.2323082E+05 -0.5886551E+04
  0.1814286E+01  0.1733753E+05  0.6575647E+04  0.1093346E-03  0.6713867E-03 -0.2316131E+05 -0.6324592E+04
  0.1845238E+01  0.1729520E+05  0.7121793E+04 -0.1058468E-02 -0.2639771E-02 -0.2307055E+05 -0.6768515E+04
  0.1876190E+01  0.1722993E+05  0.7683223E+04 -0.5855658E-03 -0.1167297E-02 -0.2294726E+05 -0.7209769E+04
  0.1907143E+01  0.1715806E+05  0.8263998E+04  0.6880743E-03 -0.1159668E-02 -0.2282299E+05 -0.7658004E+04
  0.1938095E+01  0.1707817E+05  0.8861874E+04 -0.2361926E-03 -0.8163452E-03 -0.2270046E+05 -0.8111756E+04
  0.1969048E+01  0.1697919E+05  0.9468630E+04  0.1704851E-03 -0.1609802E-02 -0.2255437E+05 -0.8556521E+04
  0.2000000E+01  0.1686350E+05  0.1008242E+05 -0.8468628E-03 -0.1487732E-02 -0.2239169E+05 -0.8991902E+04
Zone t="Motion of body    1 in DoF   2",I=    64,F=POINT
  0.5000000E-01 -0.9346008E-03  0.2473593E-05  0.4352517E+04  0.7864262E+01  0.2413988E-02 -0.1952052E-05
  0.8095238E-01  0.6950602E-03 -0.1132488E-05  0.4331778E+04  0.1306135E+02  0.1253170E-02  0.1393259E-05
  0.1119048E+00 -0.1244241E-02 -0.6079674E-05  0.4321593E+04  0.1874948E+02  0.3259740E-03  0.1040846E-04
  0.1428571E+00 -0.4405975E-03 -0.2384186E-05  0.4316742E+04  0.2516479E+02  0.1895904E-02  0.2169609E-04
  0.1738095E+00 -0.2853184E-03  0.2384186E-05  0.4323208E+04  0.3260102E+02 -0.9876407E-04  0.3237277E-04
  0.2047619E+00  0.6893069E-03 -0.3695488E-05  0.4332411E+04  0.4142770E+02  0.9501257E-03 -0.4172325E-06
  0.2357143E+00 -0.1246134E-02 -0.1120567E-04  0.4349313E+04  0.5217382E+02 -0.1129815E-02 -0.1910329E-04
  0.2666667E+00 -0.9012222E-03 -0.3099442E-04  0.4370571E+04  0.6532556E+02 -0.1230240E-02  0.6064773E-05
  0.2976190E+00  0.9484863E-03  0.1358986E-04  0.4396042E+04  0.8186832E+02 -0.1674271E-02 -0.1975894E-04
  0.3285715E+00  0.2600628E-02 -0.8106232E-05  0.4424571E+04  0.1024598E+03 -0.2097047E-02 -0.9536743E-06
  0.3595238E+00 -0.3819750E-03  0.3480911E-04  0.4455278E+04  0.1283531E+03  0.1472195E-03 -0.5674362E-04
  0.3904762E+00  0.1074628E-02  0.1716614E-04  0.4484398E+04  0.1606493E+03 -0.1279784E-02 -0.7992983E-04
  0.4214286E+00  0.4525911E-03 -0.5531311E-04  0.4509866E+04  0.1993688E+03  0.1200498E-02  0.2419949E-04
  0.4523810E+00  0.1264873E-02 -0.1497269E-03  0.4532992E+04  0.2465987E+03  0.5765714E-03  0.1885295E-03
  0.4833333E+00  0.3314840E-03 -0.2670288E-04  0.4546766E+04  0.2992384E+03 -0.3610808E-03 -0.4017353E-04
  0.5142857E+00  0.2180735E-02 -0.1754761E-03  0.4550915E+04  0.3597190E+03 -0.2325376E-02  0.2169609E-04
  0.5452381E+00  0.4757544E-03  0.1029968E-03  0.4549906E+04  0.4255325E+03  0.6506641E-03  0.3826618E-04
  0.5761905E+00  0.3244069E-02 -0.1907349E-05  0.4544246E+04  0.4958835E+03  0.3690956E-03  0.1040697E-03
  0.6071429E+00 -0.1231474E-02  0.3623962E-04  0.4529448E+04  0.5723763E+03 -0.3934748E-02  0.1173019E-03
  0.6380953E+00  0.5978257E-03  0.5340576E-04  0.4510920E+04  0.6518021E+03 -0.2101357E-02  0.4649162E-04
  0.6690477E+00  0.8210423E-03  0.9918213E-04  0.4487554E+04  0.7356210E+03 -0.1060513E-02 -0.1363754E-03
  0.7000000E+00  0.1416888E-02 -0.2212524E-03  0.4458084E+04  0.8242479E+03  0.1114436E-02  0.1573563E-03
  0.7309524E+00  0.6262564E-04 -0.4844666E-03  0.4427323E+04  0.9159921E+03 -0.1135090E-02 -0.3981590E-03
  0.7619048E+00  0.9613036E-03  0.8392334E-04  0.4392843E+04  0.1011265E+04  0.9663104E-03 -0.1382828E-03
  0.7928572E+00 -0.4811329E-03 -0.1144409E-04  0.4350682E+04  0.1109986E+04  0.1200427E-02  0.4863739E-03
  0.8238096E+00  0.8149780E-03 -0.3814697E-04  0.4305683E+04  0.1211489E+04 -0.2234244E-03 -0.3194809E-04
  0.8547620E+00  0.9996844E-03  0.3242493E-03  0.4256805E+04  0.1315307E+04  0.2264910E-03  0.2460480E-03
  0.8857143E+00  0.4996023E-03 -0.0000000E+00  0.4206709E+04  0.1420939E+04  0.8053933E-03  0.2002716E-04
  0.9166667E+00  0.8156516E-03 -0.2746582E-03  0.4152175E+04  0.1528174E+04 -0.1466924E-03 -0.1077652E-03
  0.9476191E+00  0.3059426E-03  0.7629395E-04  0.4095092E+04  0.1636403E+04  0.2687061E-03  0.1549721E-03
  0.9785714E+00 -0.1871151E-03  0.5416870E-03  0.4033310E+04  0.1745312E+04 -0.3021129E-04 -0.5612373E-03
  0.1009524E+01 -0.8917755E-03 -0.3051758E-04  0.3969682E+04  0.1854120E+04  0.8624905E-03 -0.1066685E-02
  0.1040476E+01  0.8065859E-03 -0.3814697E-04  0.3903207E+04  0.1962614E+04  0.1240126E-02 -0.5435944E-04
  0.1071429E+01  0.1110840E-02 -0.8621216E-03  0.3833965E+04  0.2070388E+04 -0.7245382E-03  0.6494522E-03
  0.1102381E+01 -0.1522583E-03  0.7781982E-03  0.3765061E+04  0.2176643E+04 -0.6419072E-03 -0.5216599E-03
  0.1133333E+01  0.7539637E-03 -0.9460449E-03  0.3694164E+04  0.2281373E+04 -0.1203313E-02  0.4520416E-03
  0.1164286E+01 -0.9436110E-03  0.6408691E-03  0.3623122E+04  0.2383815E+04 -0.3341956E-03  0.3910065E-04
  0.1195238E+01 -0.1136202E-02  0.2593994E-03  0.3550817E+04  0.2484101E+04  0.8713012E-03 -0.9059906E-03
  0.1226190E+01 -0.1866609E-03  0.2746582E-03  0.3475757E+04  0.2581936E+04  0.1143298E-02  0.3013611E-03
  0.1257143E+01  0.1298731E-02 -0.1037598E-02  0.3400676E+04  0.2678198E+04 -0.1157631E-02 -0.9059906E-04
  0.1288095E+01  0.5093784E-03  0.3967285E-03  0.3326308E+04  0.2767733E+04  0.1060218E-02  0.1751900E-02
  0.1319048E+01 -0.2776328E-03  0.1373291E-03  0.3251627E+04  0.2855284E+04 -0.1793045E-03 -0.1115799E-03
  0.1350000E+01  0.4408095E-03 -0.0000000E+00  0.3178007E+04  0.2938508E+04 -0.2232304E-03  0.2279282E-03
  0.1380952E+01  0.4088303E-03  0.9155273E-04  0.3105782E+04  0.3017772E+04 -0.7596509E-04 -0.6093979E-03
  0.1411905E+01 -0.5943980E-03  0.1647949E-02  0.3025490E+04  0.3089761E+04  0.5092910E-03 -0.1571655E-02
  0.1442857E+01  0.4018651E-03 -0.3662109E-03  0.2954907E+04  0.3160820E+04  0.7931549E-04 -0.1776695E-02
  0.1473810E+01 -0.6833176E-03  0.8544922E-03  0.2885007E+04  0.3227494E+04  0.3184933E-02  0.3404617E-03
  0.1504762E+01  0.4258940E-03  0.6103516E-04  0.2815729E+04  0.3290022E+04  0.1263739E-02  0.1034737E-02
  0.1535714E+01 -0.2980786E-04 -0.4119873E-03  0.2748024E+04  0.3347687E+04  0.1047001E-02  0.2651215E-03
  0.1566667E+01  0.6428171E-03 -0.7629395E-04  0.2682084E+04  0.3400532E+04  0.5965537E-04  0.1487732E-03
  0.1597619E+01 -0.3438344E-03 -0.1205444E-02  0.2617361E+04  0.3449390E+04 -0.2220597E-03  0.2237320E-02
  0.1628572E+01 -0.1686498E-03 -0.2899170E-03  0.2552745E+04  0.3493804E+04  0.8818978E-03  0.4386902E-03
  0.1659524E+01 -0.5149020E-03 -0.1068115E-02  0.2491463E+04  0.3533594E+04 -0.1264268E-04 -0.7991791E-03
  0.1690476E+01 -0.4783952E-03 -0.1525879E-04  0.2432459E+04  0.3568249E+04  0.9116589E-03  0.7877350E-03
  0.1721429E+01  0.9218588E-03 -0.2136230E-03  0.2374142E+04  0.3598962E+04  0.7645223E-04  0.7076263E-03
  0.1752381E+01  0.2612238E-03  0.1892090E-02  0.2319073E+04  0.3624892E+04  0.6585018E-03  0.4978180E-03
  0.1783333E+01  0.4705982E-03 -0.1831055E-03  0.2266042E+04  0.3646027E+04  0.9256880E-03  0.1014709E-02
  0.1814286E+01  0.2859521E-03 -0.1678467E-03  0.2215453E+04  0.3663355E+04 -0.1166937E-03  0.3051758E-03
  0.1845238E+01  0.1736549E-03 -0.7476807E-03  0.2166672E+04  0.3677488E+04  0.8501853E-03 -0.6866455E-04
  0.1876190E+01  0.5367686E-03  0.4119873E-03  0.2118240E+04  0.3687832E+04 -0.5174531E-03 -0.3452301E-03
  0.1907143E+01  0.2800302E-03  0.4119873E-03  0.2072965E+04  0.3694890E+04 -0.1615174E-03 -0.2174377E-03
  0.1938095E+01  0.7873085E-05  0.1296997E-02  0.2030095E+04  0.3698043E+04 -0.1318742E-02 -0.5474091E-03
  0.1969048E+01 -0.1859838E-03  0.2746582E-03  0.1988311E+04  0.3697946E+04  0.9260443E-03  0.7705688E-03
  0.2000000E+01  0.6256104E-03 -0.1068115E-02  0.1948223E+04  0.3694505E+04  0.1287460E-03  0.1485825E-02
Zone t="Motion of body    1 in DoF   3",I=    64,F=POINT
  0.5000000E-01 -0.2129778E+05 -0.2411841E-03  0.2665520E-02  0.3022422E-05  0.5107054E+05  0.3269161E-03
  0.8095238E-01 -0.2145869E+05 -0.1015247E-02  0.8835512E-03  0.2440465E-05  0.5128546E+05  0.1474915E-02
  0.1119048E+00 -0.2153970E+05 -0.2802384E-02  0.4499719E-02  0.2114746E-04  0.5134712E+05  0.3842838E-02
  0.1428571E+00 -0.2157311E+05 -0.6261864E-02  0.4225731E-02  0.2836594E-04  0.5137423E+05  0.8596036E-02
  0.1738095E+00 -0.2159560E+05 -0.1226192E-01  0.4628194E-02  0.2842970E-04  0.5138120E+05  0.1673181E-01
  0.2047619E+00 -0.2159623E+05 -0.2284570E-01  0.4433920E-02  0.5695986E-04  0.5138964E+05  0.3138170E-01
  0.2357143E+00 -0.2161069E+05 -0.4027168E-01  0.4142992E-02  0.5182732E-04  0.5139710E+05  0.5533246E-01
  0.2666667E+00 -0.2160787E+05 -0.6856805E-01  0.7116794E-03  0.3195746E-04  0.5139820E+05  0.9402543E-01
  0.2976190E+00 -0.2162964E+05 -0.1149992E+00  0.3354950E-02  0.6947794E-04  0.5141119E+05  0.1572120E+00
  0.3285715E+00 -0.2162917E+05 -0.1897573E+00 -0.3686158E-03  0.3442052E-05  0.5141604E+05  0.2589401E+00
  0.3595238E+00 -0.2164822E+05 -0.3106984E+00  0.7719077E-03  0.4671258E-04  0.5143161E+05  0.4232017E+00
  0.3904762E+00 -0.2165407E+05 -0.5054183E+00  0.4371782E-03  0.7334608E-04  0.5143821E+05  0.6866795E+00
  0.4214286E+00 -0.2168170E+05 -0.8121824E+00 -0.1022856E-02 -0.4366925E-04  0.5145695E+05  0.1099516E+01
  0.4523810E+00 -0.2168453E+05 -0.1290814E+01  0.5438955E-03  0.1936965E-04  0.5146870E+05  0.1742826E+01
  0.4833333E+00 -0.2170234E+05 -0.2002596E+01  0.2454560E-02  0.1891917E-03  0.5148079E+05  0.2693649E+01
  0.5142857E+00 -0.2173056E+05 -0.3056700E+01  0.2269745E-02  0.2496857E-03  0.5150338E+05  0.4096570E+01
  0.5452381E+00 -0.2175084E+05 -0.4552448E+01 -0.9375160E-03  0.2898276E-05  0.5152841E+05  0.6079405E+01
  0.5761905E+00 -0.2178652E+05 -0.6619211E+01  0.2787251E-02  0.3229901E-03  0.5155902E+05  0.8806422E+01
  0.6071429E+00 -0.2180248E+05 -0.9441943E+01  0.2689137E-02  0.5117208E-03  0.5158126E+05  0.1251334E+02
  0.6380953E+00 -0.2183737E+05 -0.1318275E+02  0.3885867E-03  0.1137033E-03  0.5161139E+05  0.1738678E+02
  0.6690477E+00 -0.2189139E+05 -0.1809157E+02  0.4809369E-02  0.7812008E-03  0.5165607E+05  0.2374887E+02
  0.7000000E+00 -0.2191298E+05 -0.2442837E+02  0.8801051E-03  0.1760870E-03  0.5168241E+05  0.3192131E+02
  0.7309524E+00 -0.2194312E+05 -0.3246742E+02 -0.4827393E-03 -0.1297742E-03  0.5171657E+05  0.4223232E+02
  0.7619048E+00 -0.2200069E+05 -0.4262868E+02 -0.1196623E-02 -0.1132488E-03  0.5176310E+05  0.5515050E+02
  0.7928572E+00 -0.2204009E+05 -0.5526969E+02 -0.6014162E-03  0.1310408E-03  0.5179962E+05  0.7110485E+02
  0.8238096E+00 -0.2209707E+05 -0.7086150E+02 -0.3009862E-03  0.1513958E-04  0.5185724E+05  0.9065695E+02
  0.8547620E+00 -0.2213803E+05 -0.8987722E+02 -0.1477212E-02 -0.4597902E-03  0.5189404E+05  0.1142823E+03
  0.8857143E+00 -0.2220331E+05 -0.1128974E+03 -0.1102571E-02 -0.6402135E-03  0.5195012E+05  0.1426983E+03
  0.9166667E+00 -0.2224363E+05 -0.1403767E+03  0.1564719E-02  0.6024837E-03  0.5199097E+05  0.1763995E+03
  0.9476191E+00 -0.2230291E+05 -0.1731372E+03  0.2656869E-03  0.1854897E-03  0.5205257E+05  0.2162235E+03
  0.9785714E+00 -0.2235469E+05 -0.2118803E+03  0.6665975E-03  0.1341105E-03  0.5209671E+05  0.2627657E+03
  0.1009524E+01 -0.2243599E+05 -0.2575159E+03  0.8426523E-03  0.1019359E-02  0.5215532E+05  0.3170291E+03
  0.1040476E+01 -0.2250601E+05 -0.3105065E+03 -0.1998133E-02 -0.1387596E-03  0.5221826E+05  0.3795942E+03
  0.1071429E+01 -0.2255746E+05 -0.3717092E+03 -0.4628500E-04  0.1654625E-03  0.5226320E+05  0.4510896E+03
  0.1102381E+01 -0.2262714E+05 -0.4421771E+03 -0.4567750E-03 -0.5834103E-03  0.5232693E+05  0.5327112E+03
  0.1133333E+01 -0.2268307E+05 -0.5226382E+03  0.1329534E-02  0.1637220E-02  0.5237253E+05  0.6248264E+03
  0.1164286E+01 -0.2276058E+05 -0.6143459E+03  0.2224694E-02  0.1013279E-02  0.5242577E+05  0.7287102E+03
  0.1195238E+01 -0.2283041E+05 -0.7179142E+03  0.1825583E-02  0.1841068E-02  0.5248601E+05  0.8448466E+03
  0.1226190E+01 -0.2288424E+05 -0.8343567E+03 -0.1791945E-02 -0.1043320E-02  0.5251930E+05  0.9735149E+03
  0.1257143E+01 -0.2294859E+05 -0.9646209E+03  0.5461953E-04  0.1668930E-04  0.5256786E+05  0.1116044E+04
  0.1288095E+01 -0.2301975E+05 -0.1110672E+04  0.3820338E-02  0.3442764E-02  0.5261329E+05  0.1273511E+04
  0.1319048E+01 -0.2308327E+05 -0.1272285E+04 -0.1098963E-03  0.5960464E-03  0.5264985E+05  0.1445474E+04
  0.1350000E+01 -0.2315799E+05 -0.1450816E+04  0.2045808E-02  0.1230240E-02  0.5268957E+05  0.1633213E+04
  0.1380952E+01 -0.2321613E+05 -0.1646270E+04 -0.1104947E-03 -0.1993179E-03  0.5272565E+05  0.1836462E+04
  0.1411905E+01 -0.2324355E+05 -0.1853366E+04  0.2237098E-02  0.1655579E-02  0.5272907E+05  0.2051615E+04
  0.1442857E+01 -0.2328553E+05 -0.2084051E+04 -0.8618950E-03 -0.1884460E-02  0.5274686E+05  0.2285494E+04
  0.1473810E+01 -0.2332361E+05 -0.2333846E+04  0.3142226E-02  0.2265930E-02  0.5275425E+05  0.2534667E+04
  0.1504762E+01 -0.2334700E+05 -0.2603186E+04  0.2109190E-02  0.2214432E-02  0.5274219E+05  0.2797969E+04
  0.1535714E+01 -0.2337728E+05 -0.2893154E+04  0.1038307E-02  0.1296997E-02  0.5272693E+05  0.3076774E+04
  0.1566667E+01 -0.2340970E+05 -0.3203425E+04  0.1597303E-02  0.2107620E-02  0.5271377E+05  0.3370725E+04
  0.1597619E+01 -0.2342229E+05 -0.3532423E+04  0.1637989E-02  0.2681732E-02  0.5268814E+05  0.3677743E+04
  0.1628572E+01 -0.2340762E+05 -0.3878327E+04  0.1841093E-02  0.1914978E-02  0.5263044E+05  0.3993271E+04
  0.1659524E+01 -0.2339415E+05 -0.4243809E+04  0.3769818E-03  0.1029968E-02  0.5258149E+05  0.4322125E+04
  0.1690476E+01 -0.2337920E+05 -0.4626922E+04  0.7401587E-03  0.1308441E-02  0.5252813E+05  0.4660721E+04
  0.1721429E+01 -0.2332754E+05 -0.5022763E+04  0.1130163E-02  0.7743835E-03  0.5243648E+05  0.5000809E+04
  0.1752381E+01 -0.2327478E+05 -0.5434300E+04  0.1872104E-03  0.6179810E-03  0.5234510E+05  0.5347656E+04
  0.1783333E+01 -0.2321664E+05 -0.5857272E+04  0.2053519E-03  0.7667542E-03  0.5224126E+05  0.5695945E+04
  0.1814286E+01 -0.2314567E+05 -0.6289810E+04  0.1160629E-02  0.3128052E-02  0.5213536E+05  0.6045557E+04
  0.1845238E+01 -0.2305441E+05 -0.6729050E+04  0.2249244E-02  0.3017426E-02  0.5201589E+05  0.6391644E+04
  0.1876190E+01 -0.2293267E+05 -0.7168582E+04  0.8620829E-03  0.1853943E-02  0.5186202E+05  0.6722172E+04
  0.1907143E+01 -0.2280967E+05 -0.7614498E+04  0.1568169E-02  0.1983643E-02  0.5171504E+05  0.7050813E+04
  0.1938095E+01 -0.2268702E+05 -0.8062828E+04  0.1720269E-02  0.2326965E-02  0.5157114E+05  0.7372528E+04
  0.1969048E+01 -0.2254209E+05 -0.8504154E+04  0.9609163E-03  0.2105713E-02  0.5140561E+05  0.7674999E+04
  0.2000000E+01 -0.2238138E+05 -0.8937479E+04  0.1277924E-02  0.7629395E-04  0.5122808E+05  0.7958699E+04
