VARIABLES="w (rad/s)"
"abs(F   1   1)" "angle(F   1   1)"
"abs(F   1   2)" "angle(F   1   2)"
"abs(F   1   3)" "angle(F   1   3)"
Zone t="Diffraction force - beta =   0.000 deg",I=    64,F=POINT
  0.5000000E-01  0.7131063E+03 -0.1570765E+01  0.1468622E+06 -0.1094042E-04  0.1243951E+03  0.1570796E+01
  0.8095238E-01  0.1163559E+04 -0.1570788E+01  0.1466843E+06 -0.2945057E-04  0.2040546E+03  0.1570888E+01
  0.1119048E+00  0.1625842E+04 -0.1570795E+01  0.1464228E+06 -0.5853240E-04  0.2853810E+03  0.1570781E+01
  0.1428571E+00  0.2103542E+04 -0.1570793E+01  0.1460772E+06 -0.1004922E-03  0.3666646E+03  0.1570817E+01
  0.1738095E+00  0.2600523E+04 -0.1570794E+01  0.1456468E+06 -0.1588056E-03  0.4520675E+03  0.1570807E+01
  0.2047619E+00  0.3124471E+04 -0.1570792E+01  0.1451314E+06 -0.2384646E-03  0.5389905E+03  0.1570851E+01
  0.2357143E+00  0.3682613E+04 -0.1570792E+01  0.1445299E+06 -0.3469536E-03  0.6299666E+03  0.1570804E+01
  0.2666667E+00  0.4279902E+04 -0.1570781E+01  0.1438406E+06 -0.4934890E-03  0.7277564E+03  0.1570779E+01
  0.2976190E+00  0.4929749E+04 -0.1570778E+01  0.1430644E+06 -0.6934320E-03  0.8284561E+03  0.1570832E+01
  0.3285715E+00  0.5641410E+04 -0.1570775E+01  0.1421991E+06 -0.9630743E-03  0.9363586E+03  0.1570849E+01
  0.3595238E+00  0.6420396E+04 -0.1570762E+01  0.1412440E+06 -0.1327608E-02  0.1055931E+04  0.1570863E+01
  0.3904762E+00  0.7281282E+04 -0.1570747E+01  0.1402012E+06 -0.1816205E-02  0.1181691E+04  0.1570849E+01
  0.4214286E+00  0.8240263E+04 -0.1570722E+01  0.1390739E+06 -0.2449028E-02  0.1312499E+04  0.1570893E+01
  0.4523810E+00  0.9288979E+04 -0.1570686E+01  0.1378600E+06 -0.3275516E-02  0.1458456E+04  0.1570903E+01
  0.4833333E+00  0.1043100E+05 -0.1570637E+01  0.1365662E+06 -0.4280000E-02  0.1614508E+04  0.1570943E+01
  0.5142857E+00  0.1167323E+05 -0.1570567E+01  0.1351995E+06 -0.5520674E-02  0.1770452E+04  0.1571025E+01
  0.5452381E+00  0.1301064E+05 -0.1570475E+01  0.1337579E+06 -0.6986146E-02  0.1926314E+04  0.1571109E+01
  0.5761905E+00  0.1442254E+05 -0.1570354E+01  0.1322425E+06 -0.8685496E-02  0.2093991E+04  0.1571241E+01
  0.6071429E+00  0.1590194E+05 -0.1570197E+01  0.1306599E+06 -0.1067064E-01  0.2262593E+04  0.1571390E+01
  0.6380953E+00  0.1745507E+05 -0.1570000E+01  0.1290102E+06 -0.1290603E-01  0.2419033E+04  0.1571594E+01
  0.6690477E+00  0.1907700E+05 -0.1569755E+01  0.1273026E+06 -0.1544444E-01  0.2567818E+04  0.1571832E+01
  0.7000000E+00  0.2075428E+05 -0.1569451E+01  0.1255372E+06 -0.1831903E-01  0.2713347E+04  0.1572134E+01
  0.7309524E+00  0.2247971E+05 -0.1569082E+01  0.1237056E+06 -0.2151858E-01  0.2856661E+04  0.1572508E+01
  0.7619048E+00  0.2425219E+05 -0.1568638E+01  0.1218202E+06 -0.2508159E-01  0.2990221E+04  0.1572952E+01
  0.7928572E+00  0.2607222E+05 -0.1568107E+01  0.1198926E+06 -0.2903360E-01  0.3104004E+04  0.1573477E+01
  0.8238096E+00  0.2794579E+05 -0.1567479E+01  0.1179242E+06 -0.3339037E-01  0.3196645E+04  0.1574102E+01
  0.8547620E+00  0.2986245E+05 -0.1566743E+01  0.1159131E+06 -0.3816498E-01  0.3272944E+04  0.1574833E+01
  0.8857143E+00  0.3181528E+05 -0.1565889E+01  0.1138610E+06 -0.4337323E-01  0.3339958E+04  0.1575679E+01
  0.9166667E+00  0.3378657E+05 -0.1564901E+01  0.1117725E+06 -0.4903596E-01  0.3392837E+04  0.1576658E+01
  0.9476191E+00  0.3578690E+05 -0.1563772E+01  0.1096526E+06 -0.5516937E-01  0.3427507E+04  0.1577772E+01
  0.9785714E+00  0.3781306E+05 -0.1562488E+01  0.1075098E+06 -0.6179178E-01  0.3431136E+04  0.1579033E+01
  0.1009524E+01  0.3986651E+05 -0.1561040E+01  0.1053498E+06 -0.6891905E-01  0.3402881E+04  0.1580458E+01
  0.1040476E+01  0.4193663E+05 -0.1559417E+01  0.1031771E+06 -0.7656416E-01  0.3349550E+04  0.1582047E+01
  0.1071429E+01  0.4402249E+05 -0.1557612E+01  0.1009882E+06 -0.8473449E-01  0.3271765E+04  0.1583805E+01
  0.1102381E+01  0.4610865E+05 -0.1555613E+01  0.9878333E+05 -0.9343950E-01  0.3167014E+04  0.1585726E+01
  0.1133333E+01  0.4819200E+05 -0.1553415E+01  0.9656348E+05 -0.1026881E+00  0.3040793E+04  0.1587809E+01
  0.1164286E+01  0.5026089E+05 -0.1551015E+01  0.9433308E+05 -0.1125098E+00  0.2889174E+04  0.1590043E+01
  0.1195238E+01  0.5231120E+05 -0.1548412E+01  0.9210026E+05 -0.1229175E+00  0.2710175E+04  0.1592427E+01
  0.1226190E+01  0.5434148E+05 -0.1545610E+01  0.8986866E+05 -0.1339301E+00  0.2494262E+04  0.1594930E+01
  0.1257143E+01  0.5633898E+05 -0.1542609E+01  0.8764698E+05 -0.1456673E+00  0.2242186E+04  0.1597523E+01
  0.1288095E+01  0.5832882E+05 -0.1539439E+01  0.8542659E+05 -0.1578227E+00  0.1945509E+04  0.1600091E+01
  0.1319048E+01  0.6026645E+05 -0.1536088E+01  0.8321461E+05 -0.1707225E+00  0.1622466E+04  0.1602466E+01
  0.1350000E+01  0.6215450E+05 -0.1532581E+01  0.8100949E+05 -0.1842643E+00  0.1271047E+04  0.1604221E+01
  0.1380952E+01  0.6397889E+05 -0.1528932E+01  0.7880870E+05 -0.1984487E+00  0.8949141E+03  0.1604130E+01
  0.1411905E+01  0.6564230E+05 -0.1525374E+01  0.7664823E+05 -0.2127565E+00  0.5369026E+03  0.1598523E+01
  0.1442857E+01  0.6731804E+05 -0.1521544E+01  0.7445621E+05 -0.2282877E+00  0.1118493E+03  0.1512176E+01
  0.1473810E+01  0.6889990E+05 -0.1517665E+01  0.7227585E+05 -0.2445646E+00  0.3400077E+03 -0.1473199E+01
  0.1504762E+01  0.7039195E+05 -0.1513789E+01  0.7010438E+05 -0.2616161E+00  0.8149261E+03 -0.1490986E+01
  0.1535714E+01  0.7178085E+05 -0.1509967E+01  0.6794614E+05 -0.2794894E+00  0.1319754E+04 -0.1492865E+01
  0.1566667E+01  0.7306752E+05 -0.1506248E+01  0.6580705E+05 -0.2982230E+00  0.1840798E+04 -0.1491686E+01
  0.1597619E+01  0.7423338E+05 -0.1502686E+01  0.6369070E+05 -0.3178521E+00  0.2385781E+04 -0.1489412E+01
  0.1628572E+01  0.7528305E+05 -0.1499343E+01  0.6158876E+05 -0.3384322E+00  0.2943177E+04 -0.1486799E+01
  0.1659524E+01  0.7621215E+05 -0.1496291E+01  0.5949916E+05 -0.3600009E+00  0.3513535E+04 -0.1484142E+01
  0.1690476E+01  0.7700800E+05 -0.1493587E+01  0.5742477E+05 -0.3826461E+00  0.4092317E+04 -0.1481629E+01
  0.1721429E+01  0.7767270E+05 -0.1491307E+01  0.5536612E+05 -0.4064210E+00  0.4675741E+04 -0.1479447E+01
  0.1752381E+01  0.7820159E+05 -0.1489525E+01  0.5332027E+05 -0.4314626E+00  0.5260075E+04 -0.1477702E+01
  0.1783333E+01  0.7859441E+05 -0.1488322E+01  0.5128920E+05 -0.4578548E+00  0.5847112E+04 -0.1476455E+01
  0.1814286E+01  0.7885655E+05 -0.1487753E+01  0.4927909E+05 -0.4859598E+00  0.6417907E+04 -0.1475951E+01
  0.1845238E+01  0.7897450E+05 -0.1487902E+01  0.4730063E+05 -0.5157385E+00  0.6988971E+04 -0.1476080E+01
  0.1876190E+01  0.7896462E+05 -0.1488835E+01  0.4534093E+05 -0.5474879E+00  0.7542768E+04 -0.1477096E+01
  0.1907143E+01  0.7883003E+05 -0.1490632E+01  0.4340668E+05 -0.5813720E+00  0.8081631E+04 -0.1479027E+01
  0.1938095E+01  0.7856857E+05 -0.1493357E+01  0.4149655E+05 -0.6177493E+00  0.8603333E+04 -0.1481957E+01
  0.1969048E+01  0.7818660E+05 -0.1497062E+01  0.3962828E+05 -0.6568253E+00  0.9104048E+04 -0.1485969E+01
  0.2000000E+01  0.7769609E+05 -0.1501817E+01  0.3779215E+05 -0.6990439E+00  0.9577573E+04 -0.1491220E+01
