VARIABLES="w (rad/s)"
"A   1   1" "B   1   1"
"A   1   2" "B   1   2"
"A   1   3" "B   1   3"
Zone t="Motion of body    1 in DoF   1",I=    64,F=POINT
  0.5000000E-01  0.1533320E+06  0.1015155E-01  0.3318787E-02  0.2865241E-04 -0.1959595E+06 -0.1081598E-01
  0.8095238E-01  0.1542739E+06  0.4462425E-01 -0.3223195E-01 -0.1823364E-03 -0.1973802E+06 -0.4801393E-01
  0.1119048E+00  0.1546140E+06  0.1255864E+00  0.1196516E-01  0.8486543E-04 -0.1977806E+06 -0.1343867E+00
  0.1428571E+00  0.1549848E+06  0.2829897E+00  0.1716995E-01  0.2135459E-03 -0.1979454E+06 -0.3023595E+00
  0.1738095E+00  0.1551388E+06  0.5629981E+00 -0.1874323E-01 -0.3416380E-03 -0.1981236E+06 -0.6007240E+00
  0.2047619E+00  0.1554292E+06  0.1040674E+01 -0.3614204E-02 -0.6706873E-04 -0.1982017E+06 -0.1108752E+01
  0.2357143E+00  0.1556960E+06  0.1833383E+01 -0.7606274E-02 -0.3825263E-03 -0.1984831E+06 -0.1950994E+01
  0.2666667E+00  0.1559765E+06  0.3130694E+01 -0.1833916E-01 -0.2497267E-03 -0.1987183E+06 -0.3324944E+01
  0.2976190E+00  0.1563824E+06  0.5257998E+01 -0.6254883E-02  0.1567788E-03 -0.1989262E+06 -0.5572103E+01
  0.3285715E+00  0.1567824E+06  0.8708515E+01 -0.1170283E-01  0.1550019E-03 -0.1992627E+06 -0.9206739E+01
  0.3595238E+00  0.1571319E+06  0.1431179E+02  0.1192611E-01 -0.6483868E-04 -0.1996380E+06 -0.1509996E+02
  0.3904762E+00  0.1576450E+06  0.2336580E+02  0.1961685E-01  0.3944635E-03 -0.1998153E+06 -0.2456226E+02
  0.4214286E+00  0.1583142E+06  0.3767426E+02 -0.8906994E-02  0.8020103E-03 -0.2002823E+06 -0.3946795E+02
  0.4523810E+00  0.1589565E+06  0.6020535E+02 -0.1291857E-01 -0.1294836E-02 -0.2007857E+06 -0.6286567E+02
  0.4833333E+00  0.1595883E+06  0.9382054E+02  0.2405627E-01  0.3631324E-02 -0.2014345E+06 -0.9767852E+02
  0.5142857E+00  0.1604022E+06  0.1439290E+03  0.7031759E-02  0.7225275E-03 -0.2019379E+06 -0.1492108E+03
  0.5452381E+00  0.1614317E+06  0.2157317E+03 -0.1166998E-01 -0.3635287E-03 -0.2026488E+06 -0.2226439E+03
  0.5761905E+00  0.1622510E+06  0.3154907E+03  0.1387667E-01  0.4304528E-02 -0.2033730E+06 -0.3243580E+03
  0.6071429E+00  0.1632011E+06  0.4531653E+03  0.1874856E-01  0.3071427E-02 -0.2042571E+06 -0.4641314E+03
  0.6380953E+00  0.1643911E+06  0.6370588E+03  0.3099128E-01  0.4410505E-02 -0.2051249E+06 -0.6491769E+03
  0.6690477E+00  0.1656177E+06  0.8804261E+03 -0.3507675E-01 -0.7104158E-02 -0.2060147E+06 -0.8924579E+03
  0.7000000E+00  0.1669645E+06  0.1199115E+04 -0.4621233E-02 -0.1944065E-02 -0.2070466E+06 -0.1209098E+04
  0.7309524E+00  0.1684409E+06  0.1608624E+04  0.1649142E-01  0.3986359E-02 -0.2082495E+06 -0.1613507E+04
  0.7619048E+00  0.1698093E+06  0.2128815E+04 -0.2843857E-02  0.5022049E-02 -0.2094438E+06 -0.2124544E+04
  0.7928572E+00  0.1713972E+06  0.2785200E+04 -0.1147021E-01 -0.1449585E-02 -0.2107198E+06 -0.2763764E+04
  0.8238096E+00  0.1731717E+06  0.3604786E+04  0.8446136E-02  0.6618500E-03 -0.2118621E+06 -0.3551732E+04
  0.8547620E+00  0.1750859E+06  0.4618193E+04  0.2274282E-01  0.1826668E-01 -0.2133417E+06 -0.4521260E+04
  0.8857143E+00  0.1768988E+06  0.5856311E+04  0.2160349E-01  0.1237869E-01 -0.2146864E+06 -0.5695479E+04
  0.9166667E+00  0.1788655E+06  0.7360728E+04  0.1241788E-01  0.1304817E-01 -0.2162213E+06 -0.7111604E+04
  0.9476191E+00  0.1808085E+06  0.9168476E+04  0.6183260E-02 -0.4203796E-02 -0.2176525E+06 -0.8796518E+04
  0.9785714E+00  0.1828611E+06  0.1132786E+05 -0.1871151E-01 -0.7274628E-02 -0.2191989E+06 -0.1079174E+05
  0.1009524E+01  0.1848344E+06  0.1387819E+05  0.1245463E-01  0.3372192E-02 -0.2204566E+06 -0.1311586E+05
  0.1040476E+01  0.1869322E+06  0.1688110E+05  0.3789487E-01  0.1421356E-01 -0.2218203E+06 -0.1582386E+05
  0.1071429E+01  0.1889187E+06  0.2037394E+05  0.1173503E-01  0.6256104E-03 -0.2230254E+06 -0.1893795E+05
  0.1102381E+01  0.1908453E+06  0.2440677E+05 -0.6422533E-02  0.5111694E-02 -0.2241148E+06 -0.2248812E+05
  0.1133333E+01  0.1926318E+06  0.2902604E+05  0.7054946E-02  0.1037598E-01 -0.2251887E+06 -0.2652165E+05
  0.1164286E+01  0.1940634E+06  0.3424463E+05 -0.9540956E-02 -0.3738403E-02 -0.2258541E+06 -0.3101239E+05
  0.1195238E+01  0.1952920E+06  0.4010973E+05 -0.8119378E-02 -0.3585815E-02 -0.2264110E+06 -0.3600929E+05
  0.1226190E+01  0.1961827E+06  0.4661389E+05  0.6072702E-02  0.3204346E-02 -0.2265600E+06 -0.4146100E+05
  0.1257143E+01  0.1965217E+06  0.5370619E+05  0.4563765E-02  0.6027222E-02 -0.2261030E+06 -0.4729889E+05
  0.1288095E+01  0.1969220E+06  0.6148885E+05  0.4643636E-02  0.8392334E-02 -0.2254901E+06 -0.5356149E+05
  0.1319048E+01  0.1966086E+06  0.6980835E+05  0.5228751E-02  0.1220703E-03 -0.2245005E+06 -0.6019466E+05
  0.1350000E+01  0.1956547E+06  0.7859667E+05  0.4521123E-03 -0.2929688E-02 -0.2228521E+06 -0.6703747E+05
  0.1380952E+01  0.1942602E+06  0.8782400E+05 -0.2121498E-02 -0.5187988E-03 -0.2209323E+06 -0.7410341E+05
  0.1411905E+01  0.1911408E+06  0.9615955E+05 -0.6657258E-02 -0.1336670E-01 -0.2180993E+06 -0.8042470E+05
  0.1442857E+01  0.1885483E+06  0.1056830E+06 -0.1840119E-01 -0.1373291E-02 -0.2151714E+06 -0.8736867E+05
  0.1473810E+01  0.1854200E+06  0.1151846E+06 -0.6211978E-02 -0.4821777E-02 -0.2118473E+06 -0.9408604E+05
  0.1504762E+01  0.1818120E+06  0.1246031E+06  0.5678587E-03  0.1293945E-01 -0.2083354E+06 -0.1006081E+06
  0.1535714E+01  0.1776301E+06  0.1336610E+06 -0.1001544E-01 -0.1971436E-01 -0.2043732E+06 -0.1066249E+06
  0.1566667E+01  0.1729908E+06  0.1422396E+06  0.2064806E-02  0.9155273E-02 -0.2000173E+06 -0.1119968E+06
  0.1597619E+01  0.1681442E+06  0.1503520E+06  0.4890089E-02 -0.2746582E-02 -0.1956619E+06 -0.1168690E+06
  0.1628572E+01  0.1630720E+06  0.1578015E+06  0.1124332E-02  0.3540039E-02 -0.1911555E+06 -0.1210096E+06
  0.1659524E+01  0.1577792E+06  0.1644880E+06  0.7649973E-02  0.1373291E-01 -0.1865574E+06 -0.1243767E+06
  0.1690476E+01  0.1524572E+06  0.1704527E+06 -0.6426744E-02 -0.3094482E-01 -0.1820559E+06 -0.1270587E+06
  0.1721429E+01  0.1471824E+06  0.1756806E+06  0.7977624E-02  0.4211426E-02 -0.1777684E+06 -0.1291124E+06
  0.1752381E+01  0.1418820E+06  0.1801230E+06 -0.4667200E-02  0.2166748E-01 -0.1736067E+06 -0.1305080E+06
  0.1783333E+01  0.1366249E+06  0.1836932E+06 -0.3559433E-02  0.1306152E-01 -0.1694848E+06 -0.1310596E+06
  0.1814286E+01  0.1315470E+06  0.1865349E+06 -0.5618118E-02 -0.7080078E-02 -0.1656211E+06 -0.1310366E+06
  0.1845238E+01  0.1267292E+06  0.1887718E+06  0.8864667E-02  0.1538086E-01 -0.1621376E+06 -0.1306277E+06
  0.1876190E+01  0.1221292E+06  0.1903106E+06 -0.3806177E-02  0.1464844E-02 -0.1588574E+06 -0.1296274E+06
  0.1907143E+01  0.1177047E+06  0.1911380E+06 -0.5040544E-02  0.6958008E-02 -0.1557272E+06 -0.1280133E+06
  0.1938095E+01  0.1135793E+06  0.1914572E+06 -0.2724088E-02  0.5004883E-02 -0.1529210E+06 -0.1260824E+06
  0.1969048E+01  0.1097565E+06  0.1912956E+06  0.2014824E-02  0.9765625E-03 -0.1504116E+06 -0.1238191E+06
  0.2000000E+01  0.1061839E+06  0.1907822E+06 -0.6408691E-02  0.7324219E-02 -0.1482170E+06 -0.1214517E+06
Zone t="Motion of body    1 in DoF   2",I=    64,F=POINT
  0.5000000E-01 -0.1831055E-02  0.4053116E-05  0.7972695E+05  0.2152622E+03  0.9117126E-02  0.1001358E-04
  0.8095238E-01 -0.6691427E-02 -0.1907349E-05  0.7880041E+05  0.3571037E+03  0.1286450E-01 -0.5435944E-04
  0.1119048E+00  0.3681589E-02  0.2670288E-04  0.7829636E+05  0.5117719E+03 -0.2536206E-01  0.2431870E-04
  0.1428571E+00 -0.4165649E-02  0.8583069E-05  0.7805473E+05  0.6851964E+03  0.1783752E-01  0.6341934E-04
  0.1738095E+00 -0.7198804E-02  0.7629395E-04  0.7804238E+05  0.8850416E+03 -0.4521200E-02 -0.3724098E-03
  0.2047619E+00  0.1557461E-01  0.2145767E-03  0.7818595E+05  0.1120672E+04  0.1304094E-01 -0.3652573E-03
  0.2357143E+00  0.2977776E-02 -0.4959106E-04  0.7843361E+05  0.1405432E+04  0.1223477E-01  0.2813339E-03
  0.2666667E+00 -0.5722046E-04 -0.3128052E-03  0.7883183E+05  0.1750942E+04 -0.9212493E-02 -0.9860992E-03
  0.2976190E+00  0.3383789E-02  0.1888275E-03  0.7926625E+05  0.2182031E+04  0.2563476E-03  0.1525879E-04
  0.3285715E+00  0.2136230E-02 -0.2059937E-03  0.7976977E+05  0.2713142E+04 -0.7291046E-02  0.1188278E-02
  0.3595238E+00 -0.6875549E-02 -0.2517700E-03  0.8026909E+05  0.3374240E+04  0.1867433E-02 -0.6141663E-03
  0.3904762E+00 -0.9613036E-02 -0.5798340E-03  0.8078655E+05  0.4189887E+04  0.1613896E-01  0.6217957E-03
  0.4214286E+00  0.2027608E-01 -0.1564026E-03  0.8105270E+05  0.5153035E+04 -0.2730030E-01  0.1140594E-02
  0.4523810E+00  0.4924573E-02  0.8239746E-03  0.8127285E+05  0.6313419E+04 -0.3710295E-02 -0.8735657E-03
  0.4833333E+00 -0.1338564E-01  0.5569458E-03  0.8123763E+05  0.7581068E+04  0.6313982E-03 -0.8239746E-03
  0.5142857E+00 -0.1916674E-01 -0.1960754E-02  0.8095889E+05  0.9014717E+04  0.1281738E-01  0.1815796E-02
  0.5452381E+00  0.8843435E-02 -0.2426147E-02  0.8051377E+05  0.1054134E+05  0.2490714E-01  0.1281738E-02
  0.5761905E+00  0.4660866E-02  0.9155273E-03  0.7988502E+05  0.1213595E+05 -0.1747825E-02  0.3089905E-02
  0.6071429E+00 -0.4372989E-02 -0.3326416E-02  0.7909638E+05  0.1383272E+05  0.7439108E-02 -0.2685547E-02
  0.6380953E+00 -0.9230428E-02 -0.6408691E-03  0.7823532E+05  0.1554316E+05  0.2099564E-01 -0.5493164E-03
  0.6690477E+00  0.2280673E-02  0.7171631E-03  0.7721738E+05  0.1730391E+05  0.1386649E-01  0.3860474E-02
  0.7000000E+00  0.4272460E-02  0.8697510E-03  0.7608657E+05  0.1911829E+05 -0.6539481E-02 -0.5752563E-02
  0.7309524E+00  0.7181074E-02  0.3692627E-02  0.7493990E+05  0.2093582E+05  0.3674038E-02 -0.1388550E-02
  0.7619048E+00  0.5367279E-02 -0.5340576E-02  0.7370809E+05  0.2276871E+05  0.1586151E-01 -0.3845215E-02
  0.7928572E+00  0.4772839E-02  0.8636475E-02  0.7239032E+05  0.2461093E+05  0.4233970E-02  0.1785278E-02
  0.8238096E+00  0.6519824E-02 -0.1800537E-02  0.7101988E+05  0.2644841E+05 -0.1663296E-01 -0.1068115E-02
  0.8547620E+00  0.2777695E-01  0.9460449E-03  0.6961589E+05  0.2826580E+05  0.5034125E-02 -0.7324219E-03
  0.8857143E+00 -0.7924726E-02 -0.5126953E-02  0.6817127E+05  0.3005695E+05 -0.7442351E-02 -0.5676270E-02
  0.9166667E+00  0.1171875E-01  0.7324219E-03  0.6672017E+05  0.3180698E+05 -0.1404918E-01 -0.1324463E-01
  0.9476191E+00  0.1867860E-02 -0.2166748E-02  0.6525014E+05  0.3351428E+05  0.5603579E-02 -0.6164551E-02
  0.9785714E+00  0.1041607E-01 -0.1037598E-02  0.6376540E+05  0.3516932E+05 -0.8794409E-02  0.4455566E-02
  0.1009524E+01  0.1239417E-01 -0.4821777E-02  0.6226238E+05  0.3677186E+05  0.1142682E-01  0.4272461E-03
  0.1040476E+01  0.1437189E-01 -0.5432129E-02  0.6077278E+05  0.3830870E+05 -0.1111622E-01  0.1464844E-01
  0.1071429E+01 -0.1481120E-02  0.4394531E-02  0.5928748E+05  0.3978089E+05  0.2361247E-01  0.1922607E-02
  0.1102381E+01  0.4041766E-02  0.4638672E-02  0.5783637E+05  0.4117655E+05 -0.1724672E-01  0.1464844E-02
  0.1133333E+01  0.1831055E-02  0.1177979E-01  0.5641269E+05  0.4249372E+05 -0.8993709E-02 -0.1181030E-01
  0.1164286E+01  0.1625108E-02  0.3234863E-02  0.5501036E+05  0.4373937E+05 -0.6028626E-02  0.6500244E-02
  0.1195238E+01  0.1460467E-01 -0.4760742E-02  0.5365213E+05  0.4490340E+05 -0.1011092E-01 -0.9796143E-02
  0.1226190E+01 -0.8063751E-02  0.7141113E-02  0.5232621E+05  0.4599593E+05 -0.2453969E-01  0.3662109E-02
  0.1257143E+01  0.1796376E-02  0.4943848E-02  0.5104738E+05  0.4704288E+05 -0.9710138E-03 -0.4638672E-02
  0.1288095E+01 -0.5923005E-02 -0.5859375E-02  0.4979573E+05  0.4795378E+05  0.3909183E-02  0.4882812E-03
  0.1319048E+01  0.5737745E-02  0.6103516E-04  0.4859764E+05  0.4882589E+05  0.6640052E-02 -0.8544922E-03
  0.1350000E+01  0.9042245E-03  0.1770020E-02  0.4741882E+05  0.4963399E+05 -0.1071506E-01  0.1391602E-01
  0.1380952E+01 -0.2872862E-02 -0.1098633E-02  0.4630973E+05  0.5036020E+05  0.1076218E-01 -0.9460449E-02
  0.1411905E+01 -0.7694752E-02  0.9033203E-02  0.4521750E+05  0.5110630E+05 -0.1264447E-01  0.1647949E-02
  0.1442857E+01 -0.2220834E-02  0.3784180E-02  0.4420402E+05  0.5172395E+05  0.7931549E-02  0.8544922E-03
  0.1473810E+01  0.4721104E-02 -0.4455566E-02  0.4322893E+05  0.5227348E+05 -0.8696769E-02 -0.2746582E-02
  0.1504762E+01  0.1066763E-01  0.1525879E-02  0.4230919E+05  0.5278336E+05 -0.4380624E-02 -0.4638672E-02
  0.1535714E+01  0.1371162E-02 -0.8789062E-02  0.4142561E+05  0.5324991E+05  0.4491052E-02  0.9216309E-02
  0.1566667E+01  0.3194606E-02  0.1770020E-02  0.4056770E+05  0.5368409E+05  0.7557970E-02  0.1202393E-01
  0.1597619E+01 -0.6953096E-02  0.1928711E-01  0.3976205E+05  0.5407406E+05  0.5329433E-02 -0.3295898E-02
  0.1628572E+01  0.6895902E-02 -0.4394531E-02  0.3898161E+05  0.5443504E+05 -0.9538081E-02 -0.4699707E-02
  0.1659524E+01 -0.4082438E-02 -0.3295898E-02  0.3823970E+05  0.5477382E+05  0.2280280E-02  0.2807617E-02
  0.1690476E+01  0.4170162E-02  0.1464844E-02  0.3752366E+05  0.5507715E+05 -0.8466694E-02  0.2197266E-02
  0.1721429E+01 -0.1187780E-02 -0.1098633E-01  0.3683649E+05  0.5534598E+05  0.1258692E-01 -0.1129150E-01
  0.1752381E+01 -0.3065027E-02  0.5676270E-02  0.3617230E+05  0.5561492E+05  0.3961895E-02 -0.8361816E-02
  0.1783333E+01 -0.4483517E-02 -0.2075195E-02  0.3551198E+05  0.5585948E+05  0.1248369E-01 -0.6896973E-02
  0.1814286E+01  0.9419599E-03 -0.6713867E-03  0.3486885E+05  0.5608618E+05 -0.2985677E-02  0.8544922E-03
  0.1845238E+01  0.2298860E-02 -0.7934570E-03  0.3424415E+05  0.5627359E+05 -0.3307712E-04 -0.5676270E-02
  0.1876190E+01 -0.2447990E-02 -0.6164551E-02  0.3362202E+05  0.5642400E+05  0.1119894E-01 -0.6835938E-02
  0.1907143E+01  0.5704616E-02  0.2014160E-02  0.3300330E+05  0.5656069E+05 -0.9000972E-02  0.2441406E-03
  0.1938095E+01  0.1440775E-02 -0.1831055E-03  0.3239342E+05  0.5663305E+05  0.1348659E-01  0.1013184E-01
  0.1969048E+01 -0.5447776E-02 -0.4821777E-02  0.3179716E+05  0.5663283E+05  0.3595687E-02 -0.1831055E-01
  0.2000000E+01  0.3936768E-02 -0.1647949E-01  0.3120621E+05  0.5659072E+05 -0.1602173E-03  0.6164551E-02
Zone t="Motion of body    1 in DoF   3",I=    64,F=POINT
  0.5000000E-01 -0.1946907E+06 -0.1065578E-01 -0.2837181E-01 -0.1133227E-03  0.4115858E+06  0.1135800E-01
  0.8095238E-01 -0.1962649E+06 -0.4660216E-01  0.1287629E-01  0.2317857E-04  0.4136168E+06  0.5046508E-01
  0.1119048E+00 -0.1967696E+06 -0.1311267E+00 -0.4003728E-01 -0.1688770E-03  0.4137725E+06  0.1404228E+00
  0.1428571E+00 -0.1969646E+06 -0.2949290E+00 -0.7329940E-02 -0.1447264E-03  0.4139856E+06  0.3147348E+00
  0.1738095E+00 -0.1971412E+06 -0.5856603E+00 -0.1478169E-01 -0.3652764E-03  0.4140079E+06  0.6235176E+00
  0.2047619E+00 -0.1972240E+06 -0.1082851E+01  0.8085384E-02  0.3527771E-03  0.4141732E+06  0.1153499E+01
  0.2357143E+00 -0.1975070E+06 -0.1904240E+01  0.4979682E-01  0.8801720E-03  0.4143301E+06  0.2026392E+01
  0.2666667E+00 -0.1977227E+06 -0.3244255E+01  0.1802444E-01  0.5594110E-03  0.4145188E+06  0.3446107E+01
  0.2976190E+00 -0.1979277E+06 -0.5438006E+01  0.1461182E-02  0.4381016E-03  0.4147713E+06  0.5762626E+01
  0.3285715E+00 -0.1982715E+06 -0.8987261E+01  0.2020131E-02  0.2655871E-03  0.4149045E+06  0.9504062E+01
  0.3595238E+00 -0.1986047E+06 -0.1472992E+02  0.9549374E-03 -0.6185323E-03  0.4151732E+06  0.1554232E+02
  0.3904762E+00 -0.1987850E+06 -0.2397714E+02  0.1012104E-01  0.8528903E-03  0.4154193E+06  0.2520204E+02
  0.4214286E+00 -0.1992421E+06 -0.3854216E+02  0.5974203E-03  0.5463660E-03  0.4157932E+06  0.4037474E+02
  0.4523810E+00 -0.1997332E+06 -0.6138087E+02 -0.3069426E-02 -0.5817711E-03  0.4161891E+06  0.6409351E+02
  0.4833333E+00 -0.2003425E+06 -0.9530099E+02 -0.1123889E-01 -0.5840659E-03  0.4166408E+06  0.9921066E+02
  0.5142857E+00 -0.2008380E+06 -0.1456632E+03  0.5904304E-02  0.5321503E-03  0.4171435E+06  0.1509999E+03
  0.5452381E+00 -0.2015786E+06 -0.2174526E+03  0.1646950E-01  0.3564179E-02  0.4176766E+06  0.2244139E+03
  0.5761905E+00 -0.2022522E+06 -0.3166209E+03 -0.5309680E-01 -0.9896994E-02  0.4182158E+06  0.3255046E+03
  0.6071429E+00 -0.2030758E+06 -0.4527380E+03  0.2097275E-01  0.6940126E-02  0.4189419E+06  0.4637367E+03
  0.6380953E+00 -0.2039396E+06 -0.6334472E+03 -0.1554347E-01 -0.1019955E-02  0.4196728E+06  0.6454990E+03
  0.6690477E+00 -0.2048041E+06 -0.8710640E+03 -0.9113570E-01 -0.2117968E-01  0.4204438E+06  0.8829716E+03
  0.7000000E+00 -0.2058260E+06 -0.1180099E+04 -0.3051758E-02 -0.2913475E-03  0.4212381E+06  0.1189940E+04
  0.7309524E+00 -0.2070104E+06 -0.1574186E+04 -0.1690892E-02 -0.3314495E-02  0.4220812E+06  0.1578969E+04
  0.7619048E+00 -0.2081196E+06 -0.2071041E+04 -0.8627700E-01 -0.1915264E-01  0.4229762E+06  0.2066878E+04
  0.7928572E+00 -0.2093314E+06 -0.2693505E+04  0.1539625E-01  0.1029968E-02  0.4240897E+06  0.2672810E+04
  0.8238096E+00 -0.2104912E+06 -0.3464714E+04 -0.9409292E-02 -0.1453876E-01  0.4249864E+06  0.3413611E+04
  0.8547620E+00 -0.2119421E+06 -0.4409521E+04 -0.2279637E-01 -0.1256943E-02  0.4261349E+06  0.4317006E+04
  0.8857143E+00 -0.2132403E+06 -0.5553390E+04 -0.1955340E-01 -0.9403229E-03  0.4270488E+06  0.5400641E+04
  0.9166667E+00 -0.2147124E+06 -0.6929947E+04  0.7440740E-02  0.1983643E-03  0.4281602E+06  0.6695233E+04
  0.9476191E+00 -0.2160850E+06 -0.8568448E+04  0.5007796E-02 -0.1491928E-01  0.4291402E+06  0.8220856E+04
  0.9785714E+00 -0.2175556E+06 -0.1050575E+05  0.5248578E-01  0.3624725E-01  0.4302211E+06  0.1000827E+05
  0.1009524E+01 -0.2187814E+06 -0.1277234E+05  0.2879377E-01  0.8247375E-02  0.4310712E+06  0.1207086E+05
  0.1040476E+01 -0.2201271E+06 -0.1541184E+05 -0.3977202E-01 -0.4917908E-01  0.4319959E+06  0.1444539E+05
  0.1071429E+01 -0.2212982E+06 -0.1844588E+05  0.6522624E-02  0.1319885E-02  0.4327230E+06  0.1714565E+05
  0.1102381E+01 -0.2223744E+06 -0.2190328E+05  0.2153763E-01  0.8209229E-02  0.4331783E+06  0.2017920E+05
  0.1133333E+01 -0.2233810E+06 -0.2581147E+05 -0.2272662E-01 -0.1663208E-01  0.4336510E+06  0.2358467E+05
  0.1164286E+01 -0.2239897E+06 -0.3016776E+05 -0.1383963E-01 -0.7308960E-02  0.4337047E+06  0.2731826E+05
  0.1195238E+01 -0.2244735E+06 -0.3499633E+05  0.1023859E-01 -0.2726746E-01  0.4337270E+06  0.3141846E+05
  0.1226190E+01 -0.2245701E+06 -0.4027611E+05 -0.3857659E-01 -0.3828430E-01  0.4333980E+06  0.3582073E+05
  0.1257143E+01 -0.2241223E+06 -0.4594988E+05  0.1182209E-01  0.1574707E-01  0.4326395E+06  0.4046970E+05
  0.1288095E+01 -0.2235833E+06 -0.5207119E+05 -0.6491614E-02  0.1664734E-01  0.4315007E+06  0.4534484E+05
  0.1319048E+01 -0.2225941E+06 -0.5849492E+05  0.1179940E-01  0.1693726E-01  0.4302725E+06  0.5043157E+05
  0.1350000E+01 -0.2209772E+06 -0.6513798E+05 -0.1118978E-01 -0.1818848E-01  0.4283570E+06  0.5555121E+05
  0.1380952E+01 -0.2190882E+06 -0.7196156E+05  0.2099399E-02 -0.2685547E-02  0.4262647E+06  0.6070795E+05
  0.1411905E+01 -0.2175951E+06 -0.7897207E+05  0.2818527E-01  0.3088379E-01  0.4242512E+06  0.6603148E+05
  0.1442857E+01 -0.2147216E+06 -0.8579166E+05  0.1596885E-01  0.5065918E-02  0.4214537E+06  0.7091832E+05
  0.1473810E+01 -0.2114446E+06 -0.9235027E+05  0.1726930E-01  0.2490234E-01  0.4181698E+06  0.7541939E+05
  0.1504762E+01 -0.2079552E+06 -0.9865255E+05 -0.1784699E-01 -0.2432251E-01  0.4149262E+06  0.7962402E+05
  0.1535714E+01 -0.2040418E+06 -0.1045004E+06  0.2126294E-02  0.1867676E-01  0.4114909E+06  0.8336475E+05
  0.1566667E+01 -0.1997817E+06 -0.1098165E+06  0.1012924E-02  0.9368896E-02  0.4078072E+06  0.8645613E+05
  0.1597619E+01 -0.1955188E+06 -0.1145954E+06 -0.7258726E-02 -0.2038574E-01  0.4042268E+06  0.8903937E+05
  0.1628572E+01 -0.1911182E+06 -0.1186749E+06 -0.4441110E-02  0.8544922E-02  0.4005583E+06  0.9094298E+05
  0.1659524E+01 -0.1866314E+06 -0.1220454E+06  0.6353523E-02 -0.9460449E-02  0.3969975E+06  0.9223037E+05
  0.1690476E+01 -0.1822232E+06 -0.1246609E+06 -0.1137317E-01  0.1623535E-01  0.3934443E+06  0.9285557E+05
  0.1721429E+01 -0.1780102E+06 -0.1265658E+06 -0.2535112E-02 -0.1617432E-01  0.3900977E+06  0.9290349E+05
  0.1752381E+01 -0.1739341E+06 -0.1278686E+06  0.6965969E-04 -0.2990723E-02  0.3871189E+06  0.9255007E+05
  0.1783333E+01 -0.1699068E+06 -0.1284268E+06 -0.6062160E-02 -0.3033447E-01  0.3841164E+06  0.9149752E+05
  0.1814286E+01 -0.1661446E+06 -0.1284425E+06  0.1165045E-01  0.5670166E-01  0.3814392E+06  0.9004830E+05
  0.1845238E+01 -0.1627379E+06 -0.1279882E+06 -0.9801163E-02  0.5371094E-02  0.3791708E+06  0.8837461E+05
  0.1876190E+01 -0.1595325E+06 -0.1269765E+06  0.1605223E-01 -0.4882812E-02  0.3770378E+06  0.8621972E+05
  0.1907143E+01 -0.1564893E+06 -0.1254908E+06 -0.2844307E-02 -0.9643555E-02  0.3751131E+06  0.8375137E+05
  0.1938095E+01 -0.1537451E+06 -0.1236279E+06 -0.1011298E-01 -0.1171875E-01  0.3734640E+06  0.8109406E+05
  0.1969048E+01 -0.1512830E+06 -0.1213437E+06 -0.3975403E-02 -0.2807617E-01  0.3719379E+06  0.7810673E+05
  0.2000000E+01 -0.1491300E+06 -0.1189345E+06 -0.1200867E-01 -0.1196289E-01  0.3707928E+06  0.7521090E+05
