VARIABLES="w (rad/s)"
"abs(F   1   1)" "angle(F   1   1)"
"abs(F   1   2)" "angle(F   1   2)"
"abs(F   1   3)" "angle(F   1   3)"
Zone t="Diffraction force - beta =   0.000 deg",I=    64,F=POINT
  0.5000000E-01  0.1987259E+04 -0.1570793E+01  0.5466672E+03 -0.3074658E+01  0.3326291E+02 -0.1570791E+01
  0.8095238E-01  0.3244367E+04 -0.1570787E+01  0.1409313E+04 -0.3071963E+01  0.5393218E+02 -0.1570783E+01
  0.1119048E+00  0.4535020E+04 -0.1570777E+01  0.2668555E+04 -0.3068908E+01  0.7498406E+02 -0.1570769E+01
  0.1428571E+00  0.5847205E+04 -0.1570762E+01  0.4326280E+04 -0.3065182E+01  0.9694849E+02 -0.1570750E+01
  0.1738095E+00  0.7243379E+04 -0.1570741E+01  0.6388511E+04 -0.3060580E+01  0.1217815E+03 -0.1570720E+01
  0.2047619E+00  0.8686941E+04 -0.1570709E+01  0.8869401E+04 -0.3054926E+01  0.1473099E+03 -0.1570679E+01
  0.2357143E+00  0.1023265E+05 -0.1570664E+01  0.1177353E+05 -0.3047814E+01  0.1750201E+03 -0.1570617E+01
  0.2666667E+00  0.1190722E+05 -0.1570597E+01  0.1511614E+05 -0.3039269E+01  0.2083696E+03 -0.1570531E+01
  0.2976190E+00  0.1367823E+05 -0.1570498E+01  0.1890931E+05 -0.3028566E+01  0.2429651E+03 -0.1570399E+01
  0.3285715E+00  0.1564845E+05 -0.1570352E+01  0.2316413E+05 -0.3015895E+01  0.2828875E+03 -0.1570207E+01
  0.3595238E+00  0.1784267E+05 -0.1570133E+01  0.2785711E+05 -0.3000491E+01  0.3360648E+03 -0.1569937E+01
  0.3904762E+00  0.2019799E+05 -0.1569806E+01  0.3302383E+05 -0.2982491E+01  0.3800443E+03 -0.1569497E+01
  0.4214286E+00  0.2279531E+05 -0.1569328E+01  0.3853429E+05 -0.2962293E+01  0.4404602E+03 -0.1568890E+01
  0.4523810E+00  0.2574780E+05 -0.1568634E+01  0.4445609E+05 -0.2939085E+01  0.5117085E+03 -0.1568018E+01
  0.4833333E+00  0.2895364E+05 -0.1567676E+01  0.5060284E+05 -0.2915674E+01  0.5962336E+03 -0.1566841E+01
  0.5142857E+00  0.3231150E+05 -0.1566341E+01  0.5700643E+05 -0.2890400E+01  0.6725945E+03 -0.1565121E+01
  0.5452381E+00  0.3595561E+05 -0.1564575E+01  0.6360671E+05 -0.2865392E+01  0.7637939E+03 -0.1562887E+01
  0.5761905E+00  0.3992629E+05 -0.1562308E+01  0.7031511E+05 -0.2840878E+01  0.8855106E+03 -0.1560196E+01
  0.6071429E+00  0.4412034E+05 -0.1559403E+01  0.7711786E+05 -0.2815707E+01  0.1012781E+04 -0.1556733E+01
  0.6380953E+00  0.4832663E+05 -0.1555772E+01  0.8403805E+05 -0.2792392E+01  0.1123466E+04 -0.1552145E+01
  0.6690477E+00  0.5267302E+05 -0.1551295E+01  0.9099964E+05 -0.2769448E+01  0.1261684E+04 -0.1546752E+01
  0.7000000E+00  0.5732838E+05 -0.1545892E+01  0.9794441E+05 -0.2746377E+01  0.1415990E+04 -0.1540330E+01
  0.7309524E+00  0.6215879E+05 -0.1539463E+01  0.1048866E+06 -0.2724388E+01  0.1587255E+04 -0.1532793E+01
  0.7619048E+00  0.6709397E+05 -0.1531841E+01  0.1117694E+06 -0.2702924E+01  0.1789311E+04 -0.1524259E+01
  0.7928572E+00  0.7200091E+05 -0.1522848E+01  0.1185612E+06 -0.2681925E+01  0.1969332E+04 -0.1513600E+01
  0.8238096E+00  0.7681711E+05 -0.1512329E+01  0.1252511E+06 -0.2661522E+01  0.2139326E+04 -0.1500809E+01
  0.8547620E+00  0.8174217E+05 -0.1500333E+01  0.1318080E+06 -0.2641749E+01  0.2348793E+04 -0.1486994E+01
  0.8857143E+00  0.8680914E+05 -0.1486830E+01  0.1381984E+06 -0.2622622E+01  0.2600017E+04 -0.1472264E+01
  0.9166667E+00  0.9185476E+05 -0.1471670E+01  0.1443914E+06 -0.2604143E+01  0.2848792E+04 -0.1455376E+01
  0.9476191E+00  0.9674195E+05 -0.1454702E+01  0.1503293E+06 -0.2586090E+01  0.3097627E+04 -0.1436338E+01
  0.9785714E+00  0.1013451E+06 -0.1435779E+01  0.1560029E+06 -0.2568570E+01  0.3350975E+04 -0.1415127E+01
  0.1009524E+01  0.1055418E+06 -0.1414772E+01  0.1614295E+06 -0.2551796E+01  0.3590741E+04 -0.1391092E+01
  0.1040476E+01  0.1093778E+06 -0.1391827E+01  0.1666038E+06 -0.2535871E+01  0.3838674E+04 -0.1365475E+01
  0.1071429E+01  0.1128929E+06 -0.1367238E+01  0.1714776E+06 -0.2520494E+01  0.4075425E+04 -0.1337851E+01
  0.1102381E+01  0.1159643E+06 -0.1341012E+01  0.1760398E+06 -0.2505737E+01  0.4306428E+04 -0.1308580E+01
  0.1133333E+01  0.1184341E+06 -0.1313068E+01  0.1802404E+06 -0.2491271E+01  0.4542311E+04 -0.1277745E+01
  0.1164286E+01  0.1202263E+06 -0.1283471E+01  0.1841239E+06 -0.2477601E+01  0.4772613E+04 -0.1245783E+01
  0.1195238E+01  0.1212869E+06 -0.1252425E+01  0.1876667E+06 -0.2464671E+01  0.4990403E+04 -0.1213073E+01
  0.1226190E+01  0.1215652E+06 -0.1220320E+01  0.1908525E+06 -0.2452366E+01  0.5157983E+04 -0.1178208E+01
  0.1257143E+01  0.1209204E+06 -0.1186799E+01  0.1937025E+06 -0.2440366E+01  0.5260273E+04 -0.1140403E+01
  0.1288095E+01  0.1194074E+06 -0.1153111E+01  0.1961003E+06 -0.2429172E+01  0.5345222E+04 -0.1102867E+01
  0.1319048E+01  0.1169052E+06 -0.1118201E+01  0.1981538E+06 -0.2418256E+01  0.5402696E+04 -0.1064958E+01
  0.1350000E+01  0.1134927E+06 -0.1083005E+01  0.1998388E+06 -0.2408065E+01  0.5425827E+04 -0.1028349E+01
  0.1380952E+01  0.1091664E+06 -0.1047732E+01  0.2011381E+06 -0.2398720E+01  0.5395011E+04 -0.9916496E+00
  0.1411905E+01  0.1033000E+06 -0.1012309E+01  0.2018057E+06 -0.2389217E+01  0.5202358E+04 -0.9481877E+00
  0.1442857E+01  0.9716513E+05 -0.9764673E+00  0.2023319E+06 -0.2380738E+01  0.5028285E+04 -0.9075475E+00
  0.1473810E+01  0.9020645E+05 -0.9405783E+00  0.2024774E+06 -0.2372816E+01  0.4804638E+04 -0.8680515E+00
  0.1504762E+01  0.8247352E+05 -0.9045050E+00  0.2022331E+06 -0.2365241E+01  0.4536668E+04 -0.8305362E+00
  0.1535714E+01  0.7403657E+05 -0.8678964E+00  0.2016156E+06 -0.2358341E+01  0.4210139E+04 -0.7936527E+00
  0.1566667E+01  0.6496405E+05 -0.8301773E+00  0.2006218E+06 -0.2352067E+01  0.3823802E+04 -0.7561327E+00
  0.1597619E+01  0.5536328E+05 -0.7905037E+00  0.1992508E+06 -0.2346483E+01  0.3370256E+04 -0.7162260E+00
  0.1628572E+01  0.4530362E+05 -0.7465131E+00  0.1975014E+06 -0.2341441E+01  0.2844970E+04 -0.6709620E+00
  0.1659524E+01  0.3485939E+05 -0.6927217E+00  0.1953966E+06 -0.2336910E+01  0.2248542E+04 -0.6140304E+00
  0.1690476E+01  0.2414674E+05 -0.6146412E+00  0.1929400E+06 -0.2332990E+01  0.1603228E+04 -0.5353279E+00
  0.1721429E+01  0.1338063E+05 -0.4501154E+00  0.1901313E+06 -0.2329525E+01  0.9256816E+03 -0.3830082E+00
  0.1752381E+01  0.4365573E+04  0.4802483E+00  0.1869826E+06 -0.2326653E+01  0.2993968E+03  0.4012447E+00
  0.1783333E+01  0.1065509E+05  0.2029647E+01  0.1835092E+06 -0.2324521E+01  0.6753037E+03  0.2142509E+01
  0.1814286E+01  0.2159969E+05  0.2253943E+01  0.1796999E+06 -0.2323256E+01  0.1468225E+04  0.2379624E+01
  0.1845238E+01  0.3280166E+05  0.2338737E+01  0.1755655E+06 -0.2322832E+01  0.2330361E+04  0.2464782E+01
  0.1876190E+01  0.4398390E+05  0.2388641E+01  0.1711011E+06 -0.2323301E+01  0.3243927E+04  0.2515686E+01
  0.1907143E+01  0.5504262E+05  0.2424507E+01  0.1663338E+06 -0.2324661E+01  0.4202343E+04  0.2551621E+01
  0.1938095E+01  0.6591483E+05  0.2452993E+01  0.1612765E+06 -0.2326946E+01  0.5193097E+04  0.2580114E+01
  0.1969048E+01  0.7653509E+05  0.2476878E+01  0.1559276E+06 -0.2330285E+01  0.6209861E+04  0.2605396E+01
  0.2000000E+01  0.8682940E+05  0.2497926E+01  0.1503215E+06 -0.2334752E+01  0.7234529E+04  0.2629964E+01
