VARIABLES="w (rad/s)"
"A   1   1" "B   1   1"
"A   1   2" "B   1   2"
"A   1   3" "B   1   3"
Zone t="Motion of body    1 in DoF   1",I=    64,F=POINT
  0.5000000E-01  0.5674875E+05  0.4577368E-02  0.3156662E-02 -0.6540377E-05  0.1017413E+04  0.1050996E-03
  0.8095238E-01  0.5700676E+05  0.2009221E-01  0.4500221E-02  0.5678321E-05  0.1012126E+04  0.4594571E-03
  0.1119048E+00  0.5712063E+05  0.5648557E-01  0.9561904E-02  0.7529912E-04  0.1014662E+04  0.1296735E-02
  0.1428571E+00  0.5738518E+05  0.1272662E+00  0.5941391E-02  0.4636659E-04  0.1021290E+04  0.2916009E-02
  0.1738095E+00  0.5732180E+05  0.2532873E+00  0.1349776E-02  0.1197844E-04  0.1021893E+04  0.5820488E-02
  0.2047619E+00  0.5752489E+05  0.4677387E+00  0.3036676E-02  0.7371430E-04  0.1023940E+04  0.1078842E-01
  0.2357143E+00  0.5767123E+05  0.8242785E+00  0.5016904E-03  0.5172519E-04  0.1037292E+04  0.1916002E-01
  0.2666667E+00  0.5769254E+05  0.1406558E+01  0.1012802E-01  0.1901730E-03  0.1035135E+04  0.3281008E-01
  0.2976190E+00  0.5793166E+05  0.2362064E+01  0.2028992E-01  0.5190549E-03  0.1045858E+04  0.5551421E-01
  0.3285715E+00  0.5815061E+05  0.3913066E+01  0.7325877E-02  0.1517748E-03  0.1058997E+04  0.9272482E-01
  0.3595238E+00  0.5823648E+05  0.6427116E+01 -0.3172514E-02 -0.7496402E-04  0.1065901E+04  0.1535506E+00
  0.3904762E+00  0.5847642E+05  0.1049053E+02  0.3008958E-02  0.3195554E-04  0.1077180E+04  0.2528625E+00
  0.4214286E+00  0.5887582E+05  0.1690960E+02  0.6137136E-02  0.1624078E-03  0.1112226E+04  0.4137149E+00
  0.4523810E+00  0.5909583E+05  0.2699139E+02  0.3878945E-03 -0.2985820E-03  0.1109972E+04  0.6646562E+00
  0.4833333E+00  0.5925543E+05  0.4200543E+02 -0.5840433E-03 -0.8299425E-03  0.1118598E+04  0.1045438E+01
  0.5142857E+00  0.5971403E+05  0.6439598E+02  0.7358128E-02  0.1134381E-02  0.1145536E+04  0.1623659E+01
  0.5452381E+00  0.6018879E+05  0.9638871E+02  0.4435710E-02  0.9928346E-03  0.1174421E+04  0.2464408E+01
  0.5761905E+00  0.6050511E+05  0.1407626E+03  0.4554937E-02  0.1214713E-02  0.1185569E+04  0.3640560E+01
  0.6071429E+00  0.6082145E+05  0.2017415E+03  0.3845214E-02  0.2166629E-03  0.1191210E+04  0.5269500E+01
  0.6380953E+00  0.6133166E+05  0.2829975E+03  0.6599995E-02  0.1958251E-02  0.1221982E+04  0.7505531E+01
  0.6690477E+00  0.6197706E+05  0.3904231E+03  0.8107793E-02  0.2286553E-02  0.1263155E+04  0.1053352E+02
  0.7000000E+00  0.6258730E+05  0.5304269E+03  0.8446829E-02 -0.6556511E-04  0.1292096E+04  0.1451936E+02
  0.7309524E+00  0.6303698E+05  0.7088411E+03  0.9957477E-02  0.4729986E-02  0.1302285E+04  0.1963826E+02
  0.7619048E+00  0.6356962E+05  0.9349276E+03  0.1835489E-01  0.5131006E-02  0.1333108E+04  0.2632461E+02
  0.7928572E+00  0.6427957E+05  0.1218770E+04  0.9199262E-02  0.3150225E-02  0.1369249E+04  0.3486246E+02
  0.8238096E+00  0.6508005E+05  0.1571093E+04 -0.3963757E-02 -0.1421452E-02  0.1408221E+04  0.4567221E+02
  0.8547620E+00  0.6586968E+05  0.2003292E+04  0.8479466E-02  0.3590584E-03  0.1457767E+04  0.5934135E+02
  0.8857143E+00  0.6666536E+05  0.2528893E+04  0.5375031E-02  0.1573563E-02  0.1505336E+04  0.7631834E+02
  0.9166667E+00  0.6736810E+05  0.3160719E+04 -0.1281738E-02  0.6651878E-03  0.1530820E+04  0.9681392E+02
  0.9476191E+00  0.6806823E+05  0.3913950E+04 -0.3204346E-02 -0.7765770E-02  0.1560632E+04  0.1217383E+03
  0.9785714E+00  0.6883976E+05  0.4804655E+04  0.5816160E-02  0.3265381E-02  0.1609658E+04  0.1521895E+03
  0.1009524E+01  0.6971072E+05  0.5850145E+04  0.6302888E-02  0.6730080E-02  0.1669756E+04  0.1890297E+03
  0.1040476E+01  0.7059339E+05  0.7066114E+04  0.6951304E-02 -0.6322861E-03  0.1724570E+04  0.2326829E+03
  0.1071429E+01  0.7143096E+05  0.8468555E+04  0.6522624E-02  0.7028580E-02  0.1778992E+04  0.2841385E+03
  0.1102381E+01  0.7219480E+05  0.1007296E+05  0.1206993E-01  0.3561020E-02  0.1830186E+04  0.3444450E+03
  0.1133333E+01  0.7280432E+05  0.1188970E+05  0.2073400E-02 -0.4369736E-02  0.1874444E+04  0.4145020E+03
  0.1164286E+01  0.7331381E+05  0.1393162E+05  0.8204173E-02  0.2500534E-02  0.1916689E+04  0.4953847E+03
  0.1195238E+01  0.7375109E+05  0.1620169E+05  0.7008708E-02  0.1071930E-02  0.1956696E+04  0.5870974E+03
  0.1226190E+01  0.7411495E+05  0.1870081E+05  0.1431067E-02  0.1594543E-02  0.1997904E+04  0.6902955E+03
  0.1257143E+01  0.7433840E+05  0.2143734E+05  0.9552348E-02  0.1885223E-01  0.2031442E+04  0.8058103E+03
  0.1288095E+01  0.7448084E+05  0.2437576E+05  0.7711752E-02  0.3181458E-02  0.2070912E+04  0.9352956E+03
  0.1319048E+01  0.7442043E+05  0.2753386E+05  0.6825140E-02  0.2407074E-02  0.2103003E+04  0.1078718E+04
  0.1350000E+01  0.7419029E+05  0.3088423E+05  0.4622848E-02  0.8506775E-02  0.2133854E+04  0.1236214E+04
  0.1380952E+01  0.7379412E+05  0.3439190E+05  0.8331299E-02  0.1415253E-02  0.2151303E+04  0.1404542E+04
  0.1411905E+01  0.7288253E+05  0.3782466E+05  0.6030438E-02 -0.1571655E-02  0.2120539E+04  0.1569496E+04
  0.1442857E+01  0.7210176E+05  0.4152364E+05  0.4156132E-02  0.7789612E-02  0.2116474E+04  0.1755812E+04
  0.1473810E+01  0.7113189E+05  0.4527631E+05  0.3789307E-02 -0.1098633E-01  0.2107481E+04  0.1954107E+04
  0.1504762E+01  0.6996573E+05  0.4904226E+05  0.5749570E-02 -0.6538391E-02  0.2092563E+04  0.2162202E+04
  0.1535714E+01  0.6864746E+05  0.5277484E+05  0.6289459E-02  0.2944946E-02  0.2072256E+04  0.2377037E+04
  0.1566667E+01  0.6718388E+05  0.5642693E+05 -0.2123244E-02  0.1276398E-01  0.2044005E+04  0.2596341E+04
  0.1597619E+01  0.6559295E+05  0.5996242E+05  0.9789729E-02  0.1750183E-01  0.2002608E+04  0.2815217E+04
  0.1628572E+01  0.6387257E+05  0.6334624E+05  0.3335518E-02  0.1084900E-01  0.1952321E+04  0.3035201E+04
  0.1659524E+01  0.6205189E+05  0.6655215E+05  0.3034244E-02  0.6248474E-02  0.1892593E+04  0.3253500E+04
  0.1690476E+01  0.6016671E+05  0.6955274E+05  0.5849059E-02  0.2023315E-01  0.1829375E+04  0.3470380E+04
  0.1721429E+01  0.5821299E+05  0.7232571E+05 -0.2428744E-02  0.2014160E-02  0.1763813E+04  0.3685744E+04
  0.1752381E+01  0.5623911E+05  0.7485877E+05  0.2368430E-02 -0.6141663E-02  0.1691549E+04  0.3895321E+04
  0.1783333E+01  0.5425754E+05  0.7713899E+05  0.5424714E-02  0.4158020E-02  0.1614420E+04  0.4100246E+04
  0.1814286E+01  0.5229394E+05  0.7916527E+05  0.3986509E-02  0.1528931E-01  0.1535233E+04  0.4298606E+04
  0.1845238E+01  0.5036503E+05  0.8093780E+05  0.6375614E-02  0.3753662E-02  0.1449367E+04  0.4485870E+04
  0.1876190E+01  0.4846710E+05  0.8245976E+05  0.2960360E-02 -0.6103516E-04  0.1362991E+04  0.4662913E+04
  0.1907143E+01  0.4661425E+05  0.8374533E+05  0.4480483E-02  0.4737854E-02  0.1273333E+04  0.4826804E+04
  0.1938095E+01  0.4482839E+05  0.8480505E+05 -0.1763571E-02  0.8712769E-02  0.1186017E+04  0.4984752E+04
  0.1969048E+01  0.4309006E+05  0.8564920E+05  0.8547505E-02  0.4798889E-02  0.1097276E+04  0.5138344E+04
  0.2000000E+01  0.4142546E+05  0.8628823E+05  0.8354187E-02 -0.9078979E-02  0.1010754E+04  0.5283935E+04
Zone t="Motion of body    1 in DoF   2",I=    64,F=POINT
  0.5000000E-01 -0.1430511E-02 -0.9566545E-05  0.9828247E+05  0.2551578E+03  0.2574921E-02  0.4649162E-05
  0.8095238E-01 -0.1001358E-02 -0.8940697E-05  0.9717534E+05  0.4231053E+03  0.5419114E-03  0.9059906E-05
  0.1119048E+00  0.9715303E-03  0.2843142E-04  0.9654598E+05  0.6059656E+03  0.1159019E-02  0.1454353E-04
  0.1428571E+00 -0.4032135E-02  0.1045465E-03  0.9621972E+05  0.8106716E+03  0.3204346E-03  0.1323223E-04
  0.1738095E+00  0.5157680E-02 -0.2813339E-04  0.9612638E+05  0.1046000E+04 -0.7681650E-03  0.1382828E-04
  0.2047619E+00  0.1800581E-01 -0.2086163E-04  0.9624145E+05  0.1322881E+04  0.1713952E-02  0.9775162E-05
  0.2357143E+00  0.1705747E-01 -0.1578331E-03  0.9647040E+05  0.1656668E+04  0.3884055E-03  0.6723404E-04
  0.2666667E+00  0.1012802E-01 -0.1606941E-03  0.9683495E+05  0.2060433E+04  0.1230240E-02  0.5817413E-04
  0.2976190E+00  0.9305420E-02  0.1323223E-03  0.9727831E+05  0.2563007E+04  0.7434082E-03 -0.2336502E-04
  0.3285715E+00  0.3750013E-02 -0.1339912E-03  0.9776908E+05  0.3180031E+04  0.1346754E-02  0.2527237E-04
  0.3595238E+00  0.1577769E-01 -0.2088547E-03  0.9824058E+05  0.3945853E+04  0.1315692E-02  0.1058578E-03
  0.3904762E+00  0.3487656E-02 -0.4773140E-03  0.9871670E+05  0.4887127E+04  0.6252381E-03  0.3814697E-04
  0.4214286E+00 -0.3059516E-02  0.4339218E-04  0.9891315E+05  0.5993947E+04  0.1158633E-02  0.1468658E-03
  0.4523810E+00  0.7369995E-02  0.4043579E-03  0.9901616E+05  0.7322975E+04  0.8769787E-03 -0.3814697E-04
  0.4833333E+00  0.1641635E-02  0.8649826E-03  0.9879961E+05  0.8765211E+04  0.3156991E-02  0.2708435E-03
  0.5142857E+00  0.3827413E-02  0.3414154E-03  0.9834753E+05  0.1038863E+05  0.3560384E-03  0.1811981E-03
  0.5452381E+00  0.1451051E-01  0.2409935E-02  0.9765172E+05  0.1210609E+05  0.2602656E-02  0.2746582E-03
  0.5761905E+00  0.8103551E-02 -0.4711151E-03  0.9675823E+05  0.1388534E+05 -0.4766795E-03  0.1678467E-03
  0.6071429E+00  0.4083970E-02  0.6179810E-03  0.9566164E+05  0.1576867E+05  0.9047563E-03  0.3585815E-03
  0.6380953E+00 -0.6396735E-02 -0.9155273E-03  0.9448490E+05  0.1764627E+05 -0.4304345E-03  0.4730225E-03
  0.6690477E+00  0.6534128E-02 -0.2479553E-04  0.9316920E+05  0.1956111E+05  0.1254370E-02  0.2288818E-03
  0.7000000E+00 -0.4632132E-02  0.1037598E-02  0.9169763E+05  0.2151843E+05 -0.4577636E-03  0.8163452E-03
  0.7309524E+00  0.3058219E-02 -0.2944946E-02  0.9017734E+05  0.2345805E+05  0.2191897E-02  0.3471375E-03
  0.7619048E+00  0.1198625E-01  0.5321503E-02  0.8860091E+05  0.2538992E+05  0.1522064E-02  0.6752014E-03
  0.7928572E+00  0.1164342E-02 -0.1010895E-02  0.8694538E+05  0.2730791E+05  0.1424153E-02  0.6599426E-03
  0.8238096E+00  0.6297558E-02 -0.1678467E-02  0.8522289E+05  0.2919624E+05 -0.9075892E-03  0.8010864E-03
  0.8547620E+00  0.2186810E-02 -0.8010864E-04  0.8346109E+05  0.3103809E+05  0.3213271E-03  0.9460449E-03
  0.8857143E+00 -0.3368008E-02 -0.1274109E-02  0.8168931E+05  0.3281870E+05  0.1378213E-02  0.1190186E-02
  0.9166667E+00 -0.3137762E-02 -0.3723145E-02  0.7990483E+05  0.3452999E+05  0.6491921E-03  0.8697510E-03
  0.9476191E+00  0.5434506E-02 -0.1029968E-03  0.7809442E+05  0.3616583E+05  0.1674633E-02  0.8010864E-03
  0.9785714E+00 -0.1263027E-02 -0.1514435E-02  0.7627719E+05  0.3771975E+05  0.6704957E-03  0.5569458E-03
  0.1009524E+01 -0.2569523E-03 -0.5172729E-02  0.7448608E+05  0.3918055E+05  0.2100963E-02  0.1091003E-02
  0.1040476E+01  0.9752356E-02  0.1514435E-02  0.7271888E+05  0.4054087E+05  0.8359163E-03  0.5798340E-03
  0.1071429E+01  0.3417969E-02 -0.7511139E-02  0.7096858E+05  0.4179796E+05  0.3417969E-03  0.1869202E-02
  0.1102381E+01  0.7626758E-02 -0.8640289E-02  0.6924602E+05  0.4294834E+05  0.1231908E-02  0.6027222E-03
  0.1133333E+01  0.2962000E-02 -0.7331848E-02  0.6755636E+05  0.4399025E+05  0.5116182E-03  0.1083374E-02
  0.1164286E+01  0.4469046E-02 -0.3787994E-02  0.6593236E+05  0.4491534E+05  0.9567167E-03  0.1914978E-02
  0.1195238E+01  0.7468296E-03  0.1570892E-01  0.6436510E+05  0.4572296E+05  0.1187267E-02  0.2311707E-02
  0.1226190E+01  0.5537607E-02  0.4882812E-03  0.6285324E+05  0.4641946E+05 -0.1866609E-03  0.1426697E-02
  0.1257143E+01  0.1796376E-02 -0.2189636E-02  0.6140138E+05  0.4703694E+05  0.5340576E-03  0.3158569E-02
  0.1288095E+01  0.8706817E-02  0.9040833E-03  0.5997705E+05  0.4749538E+05 -0.3672263E-03  0.1014709E-02
  0.1319048E+01  0.4974255E-02  0.2868652E-02  0.5862972E+05  0.4787432E+05 -0.4048812E-03  0.1075745E-02
  0.1350000E+01  0.3096969E-02  0.1399994E-02  0.5735291E+05  0.4814339E+05 -0.7798937E-03  0.1792908E-02
  0.1380952E+01  0.2342487E-02 -0.5458832E-02  0.5614943E+05  0.4829957E+05  0.4198798E-03  0.1632690E-02
  0.1411905E+01  0.4204015E-02  0.5905151E-02  0.5500538E+05  0.4843167E+05 -0.1513013E-03  0.1525879E-02
  0.1442857E+01  0.4378215E-02  0.2304077E-02  0.5392101E+05  0.4840916E+05  0.2326588E-03  0.1152039E-02
  0.1473810E+01 -0.3582241E-02 -0.2517700E-03  0.5289086E+05  0.4830212E+05  0.1097450E-02  0.1869202E-02
  0.1504762E+01  0.3001539E-02  0.2777100E-02  0.5192463E+05  0.4810761E+05  0.6084201E-03  0.2433777E-02
  0.1535714E+01  0.2712516E-02  0.4531860E-02  0.5103104E+05  0.4783546E+05  0.2384629E-03  0.1510620E-02
  0.1566667E+01  0.3720547E-02  0.6637573E-03  0.5020699E+05  0.4748175E+05 -0.3895861E-04  0.1190186E-02
  0.1597619E+01  0.3151815E-03 -0.4402161E-02  0.4943997E+05  0.4705757E+05  0.1528153E-03  0.2716064E-02
  0.1628572E+01 -0.2407944E-02 -0.5187988E-02  0.4872707E+05  0.4656595E+05 -0.1311720E-03  0.2265930E-02
  0.1659524E+01  0.6105267E-02  0.6122589E-02  0.4807135E+05  0.4601365E+05  0.5332914E-03  0.2136230E-02
  0.1690476E+01  0.6769744E-02 -0.6752014E-03  0.4746574E+05  0.4540685E+05 -0.2527371E-03  0.2128601E-02
  0.1721429E+01  0.4423149E-02 -0.4596710E-02  0.4690423E+05  0.4474937E+05  0.4254733E-03  0.1815796E-02
  0.1752381E+01  0.3065027E-02  0.7125854E-02  0.4640505E+05  0.4404639E+05 -0.2960537E-03  0.1548767E-02
  0.1783333E+01  0.8607669E-02  0.6462097E-02  0.4596141E+05  0.4330571E+05 -0.3764785E-03  0.2716064E-02
  0.1814286E+01  0.8368305E-02  0.4776001E-02  0.4556408E+05  0.4251932E+05  0.1513864E-03  0.1834869E-02
  0.1845238E+01  0.8269280E-05  0.4405975E-02  0.4520542E+05  0.4170269E+05 -0.2315398E-03  0.2948761E-02
  0.1876190E+01 -0.1862424E-02  0.2180099E-02  0.4488576E+05  0.4085052E+05 -0.5205029E-03  0.1968384E-02
  0.1907143E+01  0.3960427E-02 -0.1914978E-02  0.4460950E+05  0.3997359E+05 -0.8800950E-03  0.2769470E-02
  0.1938095E+01  0.6455930E-03 -0.1401901E-02  0.4436816E+05  0.3907553E+05 -0.1889540E-03  0.2609253E-02
  0.1969048E+01  0.1069407E-01  0.2962112E-02  0.4415046E+05  0.3816746E+05 -0.6664419E-03  0.2029419E-02
  0.2000000E+01  0.2136230E-03 -0.5884171E-02  0.4397277E+05  0.3723294E+05 -0.3967285E-03  0.1216888E-02
Zone t="Motion of body    1 in DoF   3",I=    64,F=POINT
  0.5000000E-01  0.1039050E+04  0.1094425E-03  0.1890659E-02  0.9005607E-05  0.1886698E+04  0.3365050E-05
  0.8095238E-01  0.1033003E+04  0.4729447E-03  0.3545985E-02  0.1918064E-04  0.1898273E+04  0.9310922E-05
  0.1119048E+00  0.1037293E+04  0.1337691E-02  0.4565767E-02  0.4025055E-04  0.1910938E+04  0.3463921E-04
  0.1428571E+00  0.1042043E+04  0.3018581E-02  0.4142284E-02  0.5128828E-04  0.1911145E+04  0.6713348E-04
  0.1738095E+00  0.1044612E+04  0.6022193E-02 -0.3368952E-02 -0.1693100E-04  0.1920359E+04  0.1370497E-03
  0.2047619E+00  0.1044570E+04  0.1118825E-01  0.3071608E-02  0.6459329E-04  0.1914650E+04  0.2735124E-03
  0.2357143E+00  0.1058964E+04  0.1982491E-01  0.2449787E-02  0.5839186E-04  0.1913106E+04  0.4689984E-03
  0.2666667E+00  0.1057221E+04  0.3403319E-01 -0.2535581E-02 -0.3866066E-04  0.1918522E+04  0.8019742E-03
  0.2976190E+00  0.1066316E+04  0.5752531E-01  0.3758698E-02  0.1603727E-03  0.1909838E+04  0.1342062E-02
  0.3285715E+00  0.1080992E+04  0.9604140E-01  0.2551286E-02  0.1738250E-03  0.1917589E+04  0.2240527E-02
  0.3595238E+00  0.1088377E+04  0.1590735E+00  0.7671331E-02  0.3991500E-03  0.1914524E+04  0.3772819E-02
  0.3904762E+00  0.1100366E+04  0.2620730E+00  0.8108557E-03  0.8742866E-04  0.1920063E+04  0.6309240E-02
  0.4214286E+00  0.1137307E+04  0.4264088E+00  0.3767821E-02  0.3066231E-03  0.1919886E+04  0.1041075E-01
  0.4523810E+00  0.1134200E+04  0.6877828E+00  0.5845822E-02  0.5527121E-03  0.1923028E+04  0.1685664E-01
  0.4833333E+00  0.1142804E+04  0.1082308E+01  0.1734372E-02  0.3390356E-03  0.1921150E+04  0.2692135E-01
  0.5142857E+00  0.1169810E+04  0.1677194E+01 -0.7046594E-04  0.1664837E-03  0.1919776E+04  0.4227959E-01
  0.5452381E+00  0.1200532E+04  0.2539891E+01  0.6531128E-02  0.1118089E-02  0.1929722E+04  0.6487773E-01
  0.5761905E+00  0.1210647E+04  0.3757275E+01 -0.2697873E-02 -0.3722096E-03  0.1920933E+04  0.9717301E-01
  0.6071429E+00  0.1216513E+04  0.5456351E+01  0.5343717E-02  0.1322431E-02  0.1927141E+04  0.1425372E+00
  0.6380953E+00  0.1248174E+04  0.7755708E+01 -0.1775542E-02 -0.1165718E-03  0.1930407E+04  0.2058304E+00
  0.6690477E+00  0.1289389E+04  0.1084507E+02  0.9749877E-03  0.5493574E-03  0.1926424E+04  0.2927670E+00
  0.7000000E+00  0.1320178E+04  0.1495448E+02 -0.1580375E-03  0.2480298E-03  0.1934198E+04  0.4095997E+00
  0.7309524E+00  0.1329915E+04  0.2030206E+02  0.6565255E-02  0.2407782E-02  0.1935403E+04  0.5628437E+00
  0.7619048E+00  0.1361039E+04  0.2718574E+02 -0.7510184E-05  0.1958534E-03  0.1931175E+04  0.7645377E+00
  0.7928572E+00  0.1398070E+04  0.3599518E+02 -0.2862741E-03  0.4355982E-03  0.1932254E+04  0.1028986E+01
  0.8238096E+00  0.1437827E+04  0.4714850E+02 -0.3178878E-02 -0.8958951E-03  0.1940995E+04  0.1370337E+01
  0.8547620E+00  0.1488436E+04  0.6108101E+02  0.4306676E-02  0.2998278E-02  0.1946157E+04  0.1810491E+01
  0.8857143E+00  0.1536001E+04  0.7841171E+02 -0.8893782E-03  0.1343042E-03  0.1941553E+04  0.2365152E+01
  0.9166667E+00  0.1562576E+04  0.9988419E+02  0.5149841E-02  0.3772467E-02  0.1942328E+04  0.3063448E+01
  0.9476191E+00  0.1594206E+04  0.1259632E+03  0.5092333E-02  0.3459066E-02  0.1950351E+04  0.3929150E+01
  0.9785714E+00  0.1644329E+04  0.1572149E+03  0.2993841E-02  0.3110260E-02  0.1955271E+04  0.4971343E+01
  0.1009524E+01  0.1704302E+04  0.1946903E+03  0.5921238E-02  0.5652010E-02  0.1952557E+04  0.6270627E+01
  0.1040476E+01  0.1758120E+04  0.2393783E+03  0.5609438E-03  0.5799532E-03  0.1952655E+04  0.7866271E+01
  0.1071429E+01  0.1815813E+04  0.2924050E+03 -0.2987162E-02 -0.4184246E-03  0.1961993E+04  0.9813415E+01
  0.1102381E+01  0.1868403E+04  0.3545090E+03 -0.3045166E-03 -0.3778338E-03  0.1970188E+04  0.1214789E+02
  0.1133333E+01  0.1912468E+04  0.4267274E+03 -0.2187841E-03 -0.1377463E-03  0.1973263E+04  0.1492508E+02
  0.1164286E+01  0.1955052E+04  0.5104239E+03  0.1667701E-02  0.3260612E-02  0.1969629E+04  0.1815419E+02
  0.1195238E+01  0.1994734E+04  0.6053486E+03 -0.3255411E-03  0.1022935E-02  0.1968436E+04  0.2194976E+02
  0.1226190E+01  0.2040217E+04  0.7127820E+03  0.1773279E-03  0.6413460E-03  0.1974685E+04  0.2618210E+02
  0.1257143E+01  0.2076870E+04  0.8337280E+03  0.1517209E-03  0.1734734E-02  0.1984562E+04  0.3140164E+02
  0.1288095E+01  0.2114636E+04  0.9664927E+03 -0.2369202E-04  0.2158165E-02  0.1988942E+04  0.3716484E+02
  0.1319048E+01  0.2146214E+04  0.1113797E+04  0.1440220E-02  0.4771233E-02  0.1993088E+04  0.4379999E+02
  0.1350000E+01  0.2177117E+04  0.1274726E+04  0.1186795E-03 -0.9653568E-03  0.1991579E+04  0.5078668E+02
  0.1380952E+01  0.2193914E+04  0.1448326E+04  0.3977809E-03  0.6337404E-02  0.1991698E+04  0.5886950E+02
  0.1411905E+01  0.2078986E+04  0.1572925E+04  0.2593737E-03  0.3633261E-02  0.1982298E+04  0.6476172E+02
  0.1442857E+01  0.2076433E+04  0.1763461E+04 -0.2316012E-02 -0.3537893E-02  0.1991352E+04  0.7489837E+02
  0.1473810E+01  0.2065967E+04  0.1964038E+04 -0.8541470E-03 -0.6582737E-03  0.1994893E+04  0.8539307E+02
  0.1504762E+01  0.2048536E+04  0.2171471E+04 -0.4968764E-03 -0.4193783E-03  0.1998128E+04  0.9646284E+02
  0.1535714E+01  0.2026688E+04  0.2384803E+04 -0.1043275E-02  0.1460075E-02  0.1994757E+04  0.1077930E+03
  0.1566667E+01  0.1996079E+04  0.2601782E+04 -0.1107885E-02 -0.1320839E-03  0.1989390E+04  0.1183937E+03
  0.1597619E+01  0.1953973E+04  0.2822566E+04  0.2363862E-03  0.2587318E-02  0.1987187E+04  0.1304923E+03
  0.1628572E+01  0.1905458E+04  0.3047637E+04 -0.8713571E-03 -0.2892971E-02  0.1989331E+04  0.1444540E+03
  0.1659524E+01  0.1846421E+04  0.3271706E+04 -0.7769504E-03  0.1986980E-02  0.1997632E+04  0.1600217E+03
  0.1690476E+01  0.1782293E+04  0.3491281E+04 -0.1705976E-02 -0.1273632E-02  0.2003003E+04  0.1765182E+03
  0.1721429E+01  0.1715866E+04  0.3703408E+04  0.1196644E-03  0.3107548E-02  0.2005140E+04  0.1915227E+03
  0.1752381E+01  0.1643113E+04  0.3910445E+04  0.3395910E-03  0.6584644E-02  0.2004166E+04  0.2061995E+03
  0.1783333E+01  0.1564549E+04  0.4114214E+04 -0.2502727E-03  0.1854897E-02  0.1993476E+04  0.2174373E+03
  0.1814286E+01  0.1481457E+04  0.4307609E+04 -0.1562224E-02  0.4051685E-02  0.1984686E+04  0.2293039E+03
  0.1845238E+01  0.1392393E+04  0.4496826E+04 -0.4134640E-03  0.8034706E-02  0.1979212E+04  0.2418822E+03
  0.1876190E+01  0.1305948E+04  0.4680069E+04 -0.3049821E-04  0.4347324E-02  0.1978298E+04  0.2580962E+03
  0.1907143E+01  0.1215942E+04  0.4855534E+04  0.1080117E-02 -0.9279251E-03  0.1982451E+04  0.2778227E+03
  0.1938095E+01  0.1125461E+04  0.5015042E+04 -0.8463567E-03 -0.7309914E-03  0.1988014E+04  0.3002718E+03
  0.1969048E+01  0.1033969E+04  0.5166901E+04 -0.2247304E-03  0.3451824E-02  0.1986375E+04  0.3180945E+03
  0.2000000E+01  0.9459245E+03  0.5305386E+04 -0.1661301E-02  0.2090454E-02  0.1986001E+04  0.3352852E+03
