VARIABLES="w (rad/s)"
"abs(F   1   1)" "angle(F   1   1)"
"abs(F   1   2)" "angle(F   1   2)"
"abs(F   1   3)" "angle(F   1   3)"
Zone t="Diffraction force - beta =   0.000 deg",I=    64,F=POINT
  0.5000000E-01  0.6808331E+04 -0.1570798E+01  0.6043951E+06 -0.4294256E-04  0.7659711E+04  0.1570795E+01
  0.8095238E-01  0.1111403E+05 -0.1570792E+01  0.6029943E+06 -0.1154790E-03  0.1249215E+05  0.1570808E+01
  0.1119048E+00  0.1550943E+05 -0.1570794E+01  0.6009389E+06 -0.2291590E-03  0.1740124E+05  0.1570809E+01
  0.1428571E+00  0.2004322E+05 -0.1570782E+01  0.5982284E+06 -0.3925950E-03  0.2243208E+05  0.1570807E+01
  0.1738095E+00  0.2475270E+05 -0.1570772E+01  0.5948561E+06 -0.6186869E-03  0.2764688E+05  0.1570817E+01
  0.2047619E+00  0.2970633E+05 -0.1570758E+01  0.5908186E+06 -0.9261539E-03  0.3307012E+05  0.1570835E+01
  0.2357143E+00  0.3496091E+05 -0.1570740E+01  0.5861096E+06 -0.1342589E-02  0.3878953E+05  0.1570855E+01
  0.2666667E+00  0.4058003E+05 -0.1570707E+01  0.5807160E+06 -0.1900962E-02  0.4484581E+05  0.1570882E+01
  0.2976190E+00  0.4666081E+05 -0.1570667E+01  0.5746471E+06 -0.2658533E-02  0.5132104E+05  0.1570928E+01
  0.3285715E+00  0.5328682E+05 -0.1570600E+01  0.5678905E+06 -0.3671131E-02  0.5831419E+05  0.1570989E+01
  0.3595238E+00  0.6054191E+05 -0.1570507E+01  0.5604614E+06 -0.5030170E-02  0.6589432E+05  0.1571084E+01
  0.3904762E+00  0.6852443E+05 -0.1570364E+01  0.5523710E+06 -0.6834992E-02  0.7411007E+05  0.1571226E+01
  0.4214286E+00  0.7735722E+05 -0.1570157E+01  0.5437192E+06 -0.9147823E-02  0.8305276E+05  0.1571436E+01
  0.4523810E+00  0.8701340E+05 -0.1569854E+01  0.5344694E+06 -0.1214463E-01  0.9279093E+05  0.1571739E+01
  0.4833333E+00  0.9749048E+05 -0.1569437E+01  0.5247564E+06 -0.1573600E-01  0.1031950E+06  0.1572156E+01
  0.5142857E+00  0.1088380E+06 -0.1568858E+01  0.5146331E+06 -0.2013141E-01  0.1141763E+06  0.1572735E+01
  0.5452381E+00  0.1209399E+06 -0.1568092E+01  0.5041301E+06 -0.2525305E-01  0.1257387E+06  0.1573498E+01
  0.5761905E+00  0.1336895E+06 -0.1567101E+01  0.4932843E+06 -0.3111079E-01  0.1377876E+06  0.1574489E+01
  0.6071429E+00  0.1470360E+06 -0.1565830E+01  0.4821584E+06 -0.3787667E-01  0.1501127E+06  0.1575760E+01
  0.6380953E+00  0.1609158E+06 -0.1564256E+01  0.4707479E+06 -0.4538490E-01  0.1625420E+06  0.1577333E+01
  0.6690477E+00  0.1753104E+06 -0.1562317E+01  0.4591519E+06 -0.5379276E-01  0.1750526E+06  0.1579270E+01
  0.7000000E+00  0.1901175E+06 -0.1559952E+01  0.4473949E+06 -0.6319954E-01  0.1876471E+06  0.1581633E+01
  0.7309524E+00  0.2051710E+06 -0.1557124E+01  0.4354393E+06 -0.7352931E-01  0.2002191E+06  0.1584457E+01
  0.7619048E+00  0.2205403E+06 -0.1553772E+01  0.4233675E+06 -0.8488053E-01  0.2125623E+06  0.1587801E+01
  0.7928572E+00  0.2362118E+06 -0.1549845E+01  0.4112538E+06 -0.9732075E-01  0.2245524E+06  0.1591721E+01
  0.8238096E+00  0.2520505E+06 -0.1545291E+01  0.3991426E+06 -0.1108783E+00  0.2362329E+06  0.1596264E+01
  0.8547620E+00  0.2679977E+06 -0.1540067E+01  0.3870104E+06 -0.1255705E+00  0.2475300E+06  0.1601472E+01
  0.8857143E+00  0.2839283E+06 -0.1534135E+01  0.3748742E+06 -0.1414402E+00  0.2582926E+06  0.1607385E+01
  0.9166667E+00  0.2997482E+06 -0.1527472E+01  0.3627504E+06 -0.1585359E+00  0.2684993E+06  0.1614020E+01
  0.9476191E+00  0.3153270E+06 -0.1520069E+01  0.3507196E+06 -0.1769139E+00  0.2779929E+06  0.1621387E+01
  0.9785714E+00  0.3306073E+06 -0.1511940E+01  0.3387976E+06 -0.1966290E+00  0.2865173E+06  0.1629469E+01
  0.1009524E+01  0.3454856E+06 -0.1503117E+01  0.3270152E+06 -0.2177384E+00  0.2940344E+06  0.1638231E+01
  0.1040476E+01  0.3598227E+06 -0.1493641E+01  0.3153644E+06 -0.2402826E+00  0.3004987E+06  0.1647628E+01
  0.1071429E+01  0.3734717E+06 -0.1483587E+01  0.3038651E+06 -0.2643290E+00  0.3058856E+06  0.1657581E+01
  0.1102381E+01  0.3861716E+06 -0.1473040E+01  0.2925065E+06 -0.2899733E+00  0.3100669E+06  0.1667997E+01
  0.1133333E+01  0.3978811E+06 -0.1462135E+01  0.2812905E+06 -0.3173265E+00  0.3131152E+06  0.1678734E+01
  0.1164286E+01  0.4083712E+06 -0.1451051E+01  0.2702235E+06 -0.3465181E+00  0.3147053E+06  0.1689596E+01
  0.1195238E+01  0.4175722E+06 -0.1439991E+01  0.2593283E+06 -0.3777016E+00  0.3148393E+06  0.1700386E+01
  0.1226190E+01  0.4254266E+06 -0.1429212E+01  0.2486375E+06 -0.4110793E+00  0.3134395E+06  0.1710842E+01
  0.1257143E+01  0.4317879E+06 -0.1418777E+01  0.2382433E+06 -0.4470246E+00  0.3108081E+06  0.1720926E+01
  0.1288095E+01  0.4366145E+06 -0.1409278E+01  0.2280831E+06 -0.4852602E+00  0.3065469E+06  0.1729995E+01
  0.1319048E+01  0.4399956E+06 -0.1400636E+01  0.2181934E+06 -0.5265117E+00  0.3012098E+06  0.1738157E+01
  0.1350000E+01  0.4417618E+06 -0.1393199E+01  0.2085927E+06 -0.5709590E+00  0.2945593E+06  0.1745034E+01
  0.1380952E+01  0.4420776E+06 -0.1387224E+01  0.1992778E+06 -0.6189126E+00  0.2868978E+06  0.1750387E+01
  0.1411905E+01  0.4404479E+06 -0.1383663E+01  0.1902799E+06 -0.6690609E+00  0.2782694E+06  0.1753278E+01
  0.1442857E+01  0.4380820E+06 -0.1381171E+01  0.1817840E+06 -0.7256507E+00  0.2690515E+06  0.1755106E+01
  0.1473810E+01  0.4343479E+06 -0.1380793E+01  0.1738769E+06 -0.7868335E+00  0.2588278E+06  0.1754625E+01
  0.1504762E+01  0.4295938E+06 -0.1382601E+01  0.1665477E+06 -0.8534069E+00  0.2483313E+06  0.1752039E+01
  0.1535714E+01  0.4238829E+06 -0.1386804E+01  0.1599312E+06 -0.9254047E+00  0.2374338E+06  0.1747001E+01
  0.1566667E+01  0.4172623E+06 -0.1393459E+01  0.1542203E+06 -0.1002748E+01  0.2262658E+06  0.1739498E+01
  0.1597619E+01  0.4099931E+06 -0.1402672E+01  0.1494880E+06 -0.1085225E+01  0.2150915E+06  0.1729591E+01
  0.1628572E+01  0.4021444E+06 -0.1414566E+01  0.1458502E+06 -0.1171921E+01  0.2038211E+06  0.1716959E+01
  0.1659524E+01  0.3938974E+06 -0.1429008E+01  0.1434715E+06 -0.1261444E+01  0.1928493E+06  0.1702225E+01
  0.1690476E+01  0.3852767E+06 -0.1446143E+01  0.1424041E+06 -0.1351375E+01  0.1819547E+06  0.1684898E+01
  0.1721429E+01  0.3764641E+06 -0.1465894E+01  0.1426137E+06 -0.1439777E+01  0.1713852E+06  0.1665452E+01
  0.1752381E+01  0.3675961E+06 -0.1488270E+01  0.1440108E+06 -0.1524823E+01  0.1611779E+06  0.1643938E+01
  0.1783333E+01  0.3586827E+06 -0.1513255E+01  0.1464313E+06 -0.1604238E+01  0.1512822E+06  0.1620436E+01
  0.1814286E+01  0.3498215E+06 -0.1540732E+01  0.1496153E+06 -0.1676093E+01  0.1418223E+06  0.1595387E+01
  0.1845238E+01  0.3411056E+06 -0.1570680E+01  0.1532995E+06 -0.1740607E+01  0.1327791E+06  0.1569115E+01
  0.1876190E+01  0.3325534E+06 -0.1603133E+01  0.1572136E+06 -0.1797898E+01  0.1240192E+06  0.1541102E+01
  0.1907143E+01  0.3242765E+06 -0.1637773E+01  0.1610865E+06 -0.1847697E+01  0.1157370E+06  0.1512827E+01
  0.1938095E+01  0.3162686E+06 -0.1674552E+01  0.1645929E+06 -0.1891374E+01  0.1078919E+06  0.1484567E+01
  0.1969048E+01  0.3085576E+06 -0.1713344E+01  0.1675629E+06 -0.1929966E+01  0.1004074E+06  0.1456428E+01
  0.2000000E+01  0.3011911E+06 -0.1754039E+01  0.1699496E+06 -0.1965340E+01  0.9329937E+05  0.1429301E+01
