VARIABLES="w (rad/s)"
"abs(F   1   1)" "angle(F   1   1)"
"abs(F   1   2)" "angle(F   1   2)"
"abs(F   1   3)" "angle(F   1   3)"
Zone t="Diffraction force - beta =   0.000 deg",I=    64,F=POINT
  0.5000000E-01  0.5807760E+04 -0.1570790E+01  0.4160049E+03 -0.3093348E+01  0.2178518E+05  0.1570803E+01
  0.8095238E-01  0.9497581E+04 -0.1570779E+01  0.1076990E+04 -0.3091819E+01  0.3557400E+05  0.1570814E+01
  0.1119048E+00  0.1327058E+05 -0.1570761E+01  0.2038018E+04 -0.3089912E+01  0.4967155E+05  0.1570831E+01
  0.1428571E+00  0.1714421E+05 -0.1570734E+01  0.3299475E+04 -0.3087601E+01  0.6415563E+05  0.1570858E+01
  0.1738095E+00  0.2118566E+05 -0.1570695E+01  0.4859139E+04 -0.3084788E+01  0.7916168E+05  0.1570896E+01
  0.2047619E+00  0.2544433E+05 -0.1570639E+01  0.6701294E+04 -0.3081104E+01  0.9495896E+05  0.1570952E+01
  0.2357143E+00  0.2996776E+05 -0.1570558E+01  0.8845378E+04 -0.3076654E+01  0.1117188E+06  0.1571033E+01
  0.2666667E+00  0.3480968E+05 -0.1570440E+01  0.1125419E+05 -0.3071245E+01  0.1295574E+06  0.1571150E+01
  0.2976190E+00  0.4008234E+05 -0.1570266E+01  0.1394655E+05 -0.3064495E+01  0.1489001E+06  0.1571322E+01
  0.3285715E+00  0.4577846E+05 -0.1570010E+01  0.1687153E+05 -0.3056494E+01  0.1698686E+06  0.1571575E+01
  0.3595238E+00  0.5211870E+05 -0.1569630E+01  0.2004714E+05 -0.3046955E+01  0.1928418E+06  0.1571952E+01
  0.3904762E+00  0.5906709E+05 -0.1569069E+01  0.2336542E+05 -0.3035528E+01  0.2180688E+06  0.1572508E+01
  0.4214286E+00  0.6674795E+05 -0.1568257E+01  0.2689032E+05 -0.3023498E+01  0.2459422E+06  0.1573311E+01
  0.4523810E+00  0.7533428E+05 -0.1567082E+01  0.3038103E+05 -0.3008599E+01  0.2768341E+06  0.1574475E+01
  0.4833333E+00  0.8460838E+05 -0.1565475E+01  0.3397092E+05 -0.2994788E+01  0.3098959E+06  0.1576067E+01
  0.5142857E+00  0.9484201E+05 -0.1563278E+01  0.3746179E+05 -0.2979320E+01  0.3461797E+06  0.1578246E+01
  0.5452381E+00  0.1055905E+06 -0.1560386E+01  0.4087954E+05 -0.2964278E+01  0.3844951E+06  0.1581106E+01
  0.5761905E+00  0.1171706E+06 -0.1556700E+01  0.4431333E+05 -0.2950658E+01  0.4249017E+06  0.1584760E+01
  0.6071429E+00  0.1296548E+06 -0.1552036E+01  0.4735446E+05 -0.2935177E+01  0.4682829E+06  0.1589383E+01
  0.6380953E+00  0.1424017E+06 -0.1546299E+01  0.5038747E+05 -0.2922036E+01  0.5122611E+06  0.1595067E+01
  0.6690477E+00  0.1557962E+06 -0.1539323E+01  0.5332548E+05 -0.2909743E+01  0.5579090E+06  0.1601983E+01
  0.7000000E+00  0.1698943E+06 -0.1530936E+01  0.5578802E+05 -0.2896003E+01  0.6062991E+06  0.1610273E+01
  0.7309524E+00  0.1842266E+06 -0.1521009E+01  0.5817414E+05 -0.2883867E+01  0.6539743E+06  0.1620116E+01
  0.7619048E+00  0.1991227E+06 -0.1509387E+01  0.6050557E+05 -0.2873015E+01  0.7027312E+06  0.1631653E+01
  0.7928572E+00  0.2147104E+06 -0.1495945E+01  0.6224111E+05 -0.2861014E+01  0.7536306E+06  0.1644981E+01
  0.8238096E+00  0.2300883E+06 -0.1480402E+01  0.6378405E+05 -0.2849593E+01  0.8031281E+06  0.1660386E+01
  0.8547620E+00  0.2456487E+06 -0.1462704E+01  0.6518784E+05 -0.2838987E+01  0.8534056E+06  0.1677872E+01
  0.8857143E+00  0.2612416E+06 -0.1442835E+01  0.6644426E+05 -0.2829463E+01  0.9015326E+06  0.1697578E+01
  0.9166667E+00  0.2773309E+06 -0.1420823E+01  0.6706699E+05 -0.2819112E+01  0.9508209E+06  0.1719388E+01
  0.9476191E+00  0.2926534E+06 -0.1396338E+01  0.6749540E+05 -0.2809260E+01  0.9960659E+06  0.1743687E+01
  0.9785714E+00  0.3074880E+06 -0.1369392E+01  0.6772794E+05 -0.2799763E+01  0.1039149E+07  0.1770403E+01
  0.1009524E+01  0.3215788E+06 -0.1340040E+01  0.6785577E+05 -0.2791223E+01  0.1078373E+07  0.1799527E+01
  0.1040476E+01  0.3351964E+06 -0.1308474E+01  0.6749951E+05 -0.2782789E+01  0.1115247E+07  0.1830825E+01
  0.1071429E+01  0.3474178E+06 -0.1274496E+01  0.6679889E+05 -0.2774086E+01  0.1148026E+07  0.1864365E+01
  0.1102381E+01  0.3576820E+06 -0.1238430E+01  0.6594883E+05 -0.2765959E+01  0.1172421E+07  0.1900017E+01
  0.1133333E+01  0.3665992E+06 -0.1200728E+01  0.6491952E+05 -0.2757848E+01  0.1191678E+07  0.1937288E+01
  0.1164286E+01  0.3735492E+06 -0.1161557E+01  0.6383551E+05 -0.2750606E+01  0.1202802E+07  0.1976094E+01
  0.1195238E+01  0.3788156E+06 -0.1121239E+01  0.6241611E+05 -0.2744042E+01  0.1207990E+07  0.2015999E+01
  0.1226190E+01  0.3819801E+06 -0.1079791E+01  0.6064548E+05 -0.2737441E+01  0.1207484E+07  0.2056823E+01
  0.1257143E+01  0.3820862E+06 -0.1037280E+01  0.5880749E+05 -0.2730905E+01  0.1196572E+07  0.2098629E+01
  0.1288095E+01  0.3800467E+06 -0.9952494E+00  0.5686796E+05 -0.2725001E+01  0.1177392E+07  0.2140150E+01
  0.1319048E+01  0.3759099E+06 -0.9530596E+00  0.5485129E+05 -0.2718971E+01  0.1152846E+07  0.2181679E+01
  0.1350000E+01  0.3692848E+06 -0.9115742E+00  0.5286617E+05 -0.2713640E+01  0.1119101E+07  0.2222592E+01
  0.1380952E+01  0.3610547E+06 -0.8708448E+00  0.5066270E+05 -0.2709719E+01  0.1081643E+07  0.2262574E+01
  0.1411905E+01  0.3498050E+06 -0.8302201E+00  0.4824544E+05 -0.2705930E+01  0.1038258E+07  0.2301646E+01
  0.1442857E+01  0.3376678E+06 -0.7914735E+00  0.4587845E+05 -0.2702321E+01  0.9907884E+06  0.2339357E+01
  0.1473810E+01  0.3236018E+06 -0.7541962E+00  0.4353117E+05 -0.2699037E+01  0.9369121E+06  0.2375706E+01
  0.1504762E+01  0.3085451E+06 -0.7181166E+00  0.4115304E+05 -0.2696221E+01  0.8823455E+06  0.2410763E+01
  0.1535714E+01  0.2924124E+06 -0.6836660E+00  0.3885234E+05 -0.2693686E+01  0.8254888E+06  0.2444002E+01
  0.1566667E+01  0.2755073E+06 -0.6513324E+00  0.3665633E+05 -0.2691462E+01  0.7668411E+06  0.2475007E+01
  0.1597619E+01  0.2583325E+06 -0.6207356E+00  0.3435391E+05 -0.2691586E+01  0.7095226E+06  0.2503971E+01
  0.1628572E+01  0.2406989E+06 -0.5915517E+00  0.3202626E+05 -0.2692215E+01  0.6527873E+06  0.2531461E+01
  0.1659524E+01  0.2224741E+06 -0.5638084E+00  0.2980850E+05 -0.2692816E+01  0.5953623E+06  0.2557365E+01
  0.1690476E+01  0.2038742E+06 -0.5378671E+00  0.2771599E+05 -0.2693734E+01  0.5371492E+06  0.2581235E+01
  0.1721429E+01  0.1853989E+06 -0.5131962E+00  0.2566394E+05 -0.2695997E+01  0.4810561E+06  0.2603759E+01
  0.1752381E+01  0.1671368E+06 -0.4894498E+00  0.2369585E+05 -0.2699045E+01  0.4275104E+06  0.2625200E+01
  0.1783333E+01  0.1489776E+06 -0.4674806E+00  0.2187677E+05 -0.2702165E+01  0.3749462E+06  0.2644042E+01
  0.1814286E+01  0.1312468E+06 -0.4469832E+00  0.2015200E+05 -0.2706103E+01  0.3250378E+06  0.2660942E+01
  0.1845238E+01  0.1140349E+06 -0.4272150E+00  0.1844282E+05 -0.2713019E+01  0.2783780E+06  0.2676353E+01
  0.1876190E+01  0.9719463E+05 -0.4078735E+00  0.1678251E+05 -0.2721705E+01  0.2341465E+06  0.2690679E+01
  0.1907143E+01  0.8066969E+05 -0.3888583E+00  0.1524457E+05 -0.2731231E+01  0.1916331E+06  0.2703199E+01
  0.1938095E+01  0.6462374E+05 -0.3701365E+00  0.1383101E+05 -0.2742019E+01  0.1512619E+06  0.2712636E+01
  0.1969048E+01  0.4911880E+05 -0.3505471E+00  0.1257352E+05 -0.2752657E+01  0.1132528E+06  0.2718214E+01
  0.2000000E+01  0.3426518E+05 -0.3262896E+00  0.1140083E+05 -0.2764573E+01  0.7818616E+05  0.2720175E+01
