VARIABLES="w (rad/s)"
"abs(F   1   1)" "angle(F   1   1)"
"abs(F   1   2)" "angle(F   1   2)"
"abs(F   1   3)" "angle(F   1   3)"
Zone t="Diffraction force - beta =   0.000 deg",I=    64,F=POINT
  0.5000000E-01  0.2476169E+04 -0.1570793E+01  0.6021938E+03 -0.3091941E+01  0.2641103E+04  0.1570798E+01
  0.8095238E-01  0.4043213E+04 -0.1570788E+01  0.1556509E+04 -0.3090104E+01  0.4291663E+04  0.1570801E+01
  0.1119048E+00  0.5638043E+04 -0.1570779E+01  0.2954927E+04 -0.3088027E+01  0.5994114E+04  0.1570807E+01
  0.1428571E+00  0.7321964E+04 -0.1570767E+01  0.4790253E+04 -0.3085335E+01  0.7784840E+04  0.1570814E+01
  0.1738095E+00  0.9067161E+04 -0.1570748E+01  0.7068205E+04 -0.3081983E+01  0.9657144E+04  0.1570826E+01
  0.2047619E+00  0.1092135E+05 -0.1570721E+01  0.9803115E+04 -0.3077856E+01  0.1163712E+05  0.1570842E+01
  0.2357143E+00  0.1289864E+05 -0.1570681E+01  0.1298989E+05 -0.3072628E+01  0.1377399E+05  0.1570866E+01
  0.2666667E+00  0.1504627E+05 -0.1570622E+01  0.1663167E+05 -0.3066297E+01  0.1610394E+05  0.1570902E+01
  0.2976190E+00  0.1738971E+05 -0.1570535E+01  0.2074679E+05 -0.3058380E+01  0.1865968E+05  0.1570955E+01
  0.3285715E+00  0.1996600E+05 -0.1570406E+01  0.2530740E+05 -0.3048905E+01  0.2144209E+05  0.1571034E+01
  0.3595238E+00  0.2283227E+05 -0.1570213E+01  0.3031886E+05 -0.3037447E+01  0.2461445E+05  0.1571153E+01
  0.3904762E+00  0.2604824E+05 -0.1569923E+01  0.3577220E+05 -0.3023969E+01  0.2811331E+05  0.1571331E+01
  0.4214286E+00  0.2963478E+05 -0.1569500E+01  0.4153939E+05 -0.3008857E+01  0.3208605E+05  0.1571594E+01
  0.4523810E+00  0.3351147E+05 -0.1568876E+01  0.4773030E+05 -0.2991623E+01  0.3641601E+05  0.1571981E+01
  0.4833333E+00  0.3801698E+05 -0.1568017E+01  0.5404118E+05 -0.2974056E+01  0.4142789E+05  0.1572519E+01
  0.5142857E+00  0.4285000E+05 -0.1566820E+01  0.6068064E+05 -0.2955518E+01  0.4685540E+05  0.1573272E+01
  0.5452381E+00  0.4809336E+05 -0.1565223E+01  0.6731987E+05 -0.2936691E+01  0.5262180E+05  0.1574284E+01
  0.5761905E+00  0.5361815E+05 -0.1563136E+01  0.7410764E+05 -0.2918633E+01  0.5890476E+05  0.1575609E+01
  0.6071429E+00  0.5976232E+05 -0.1560459E+01  0.8102867E+05 -0.2900425E+01  0.6589566E+05  0.1577324E+01
  0.6380953E+00  0.6638336E+05 -0.1557130E+01  0.8782750E+05 -0.2883079E+01  0.7329378E+05  0.1579481E+01
  0.6690477E+00  0.7322534E+05 -0.1552976E+01  0.9470802E+05 -0.2866412E+01  0.8103914E+05  0.1582186E+01
  0.7000000E+00  0.8032759E+05 -0.1547849E+01  0.1016010E+06 -0.2850102E+01  0.8922665E+05  0.1585539E+01
  0.7309524E+00  0.8792612E+05 -0.1541689E+01  0.1082255E+06 -0.2833957E+01  0.9781396E+05  0.1589613E+01
  0.7619048E+00  0.9618161E+05 -0.1534365E+01  0.1148302E+06 -0.2818618E+01  0.1073026E+06  0.1594499E+01
  0.7928572E+00  0.1047453E+06 -0.1525654E+01  0.1214152E+06 -0.2804314E+01  0.1172228E+06  0.1600357E+01
  0.8238096E+00  0.1136521E+06 -0.1515416E+01  0.1276177E+06 -0.2789665E+01  0.1271982E+06  0.1607329E+01
  0.8547620E+00  0.1230388E+06 -0.1503549E+01  0.1336131E+06 -0.2775494E+01  0.1380635E+06  0.1615466E+01
  0.8857143E+00  0.1324086E+06 -0.1489744E+01  0.1394423E+06 -0.2762209E+01  0.1489497E+06  0.1624974E+01
  0.9166667E+00  0.1421322E+06 -0.1473972E+01  0.1452220E+06 -0.2750433E+01  0.1605609E+06  0.1635888E+01
  0.9476191E+00  0.1524978E+06 -0.1456266E+01  0.1504304E+06 -0.2737986E+01  0.1723850E+06  0.1648305E+01
  0.9785714E+00  0.1634241E+06 -0.1436467E+01  0.1552929E+06 -0.2725788E+01  0.1850680E+06  0.1662339E+01
  0.1009524E+01  0.1741433E+06 -0.1414150E+01  0.1599316E+06 -0.2714460E+01  0.1977605E+06  0.1678220E+01
  0.1040476E+01  0.1847905E+06 -0.1389333E+01  0.1643518E+06 -0.2704174E+01  0.2104051E+06  0.1695962E+01
  0.1071429E+01  0.1953193E+06 -0.1361986E+01  0.1684929E+06 -0.2694799E+01  0.2232781E+06  0.1715571E+01
  0.1102381E+01  0.2054520E+06 -0.1332083E+01  0.1719385E+06 -0.2684362E+01  0.2349992E+06  0.1737193E+01
  0.1133333E+01  0.2154152E+06 -0.1299845E+01  0.1751264E+06 -0.2674602E+01  0.2475089E+06  0.1760413E+01
  0.1164286E+01  0.2245652E+06 -0.1265128E+01  0.1780256E+06 -0.2665608E+01  0.2591493E+06  0.1785322E+01
  0.1195238E+01  0.2333572E+06 -0.1228563E+01  0.1806349E+06 -0.2657481E+01  0.2702804E+06  0.1811470E+01
  0.1226190E+01  0.2413180E+06 -0.1189920E+01  0.1829844E+06 -0.2650451E+01  0.2810757E+06  0.1839050E+01
  0.1257143E+01  0.2478149E+06 -0.1149075E+01  0.1846910E+06 -0.2642232E+01  0.2896655E+06  0.1868136E+01
  0.1288095E+01  0.2534949E+06 -0.1107455E+01  0.1858977E+06 -0.2634279E+01  0.2973177E+06  0.1897575E+01
  0.1319048E+01  0.2576884E+06 -0.1064487E+01  0.1868660E+06 -0.2626513E+01  0.3042495E+06  0.1927460E+01
  0.1350000E+01  0.2600071E+06 -0.1020534E+01  0.1875274E+06 -0.2619380E+01  0.3089635E+06  0.1957381E+01
  0.1380952E+01  0.2608045E+06 -0.9764847E+00  0.1878693E+06 -0.2613110E+01  0.3120714E+06  0.1986454E+01
  0.1411905E+01  0.2595792E+06 -0.9313866E+00  0.1879048E+06 -0.2607409E+01  0.3136704E+06  0.2015191E+01
  0.1442857E+01  0.2568728E+06 -0.8872920E+00  0.1873837E+06 -0.2600733E+01  0.3129900E+06  0.2042408E+01
  0.1473810E+01  0.2524912E+06 -0.8441089E+00  0.1863225E+06 -0.2593360E+01  0.3099717E+06  0.2067822E+01
  0.1504762E+01  0.2467894E+06 -0.8020754E+00  0.1850105E+06 -0.2586207E+01  0.3064757E+06  0.2090929E+01
  0.1535714E+01  0.2394175E+06 -0.7611945E+00  0.1833427E+06 -0.2579215E+01  0.3011386E+06  0.2111336E+01
  0.1566667E+01  0.2305525E+06 -0.7216615E+00  0.1813121E+06 -0.2572426E+01  0.2940409E+06  0.2128789E+01
  0.1597619E+01  0.2203388E+06 -0.6832745E+00  0.1789400E+06 -0.2565953E+01  0.2856692E+06  0.2143445E+01
  0.1628572E+01  0.2090473E+06 -0.6463057E+00  0.1762195E+06 -0.2559914E+01  0.2765037E+06  0.2154604E+01
  0.1659524E+01  0.1967335E+06 -0.6111904E+00  0.1729212E+06 -0.2553184E+01  0.2657321E+06  0.2161416E+01
  0.1690476E+01  0.1835488E+06 -0.5786305E+00  0.1690275E+06 -0.2545996E+01  0.2533259E+06  0.2162784E+01
  0.1721429E+01  0.1697654E+06 -0.5480623E+00  0.1648312E+06 -0.2539614E+01  0.2410074E+06  0.2159717E+01
  0.1752381E+01  0.1554220E+06 -0.5194695E+00  0.1603436E+06 -0.2533666E+01  0.2286719E+06  0.2151570E+01
  0.1783333E+01  0.1403788E+06 -0.4915843E+00  0.1555431E+06 -0.2528784E+01  0.2155673E+06  0.2137439E+01
  0.1814286E+01  0.1249342E+06 -0.4657278E+00  0.1505059E+06 -0.2525794E+01  0.2022087E+06  0.2115681E+01
  0.1845238E+01  0.1092110E+06 -0.4419931E+00  0.1452858E+06 -0.2524328E+01  0.1891258E+06  0.2086228E+01
  0.1876190E+01  0.9326122E+05 -0.4201975E+00  0.1398812E+06 -0.2524243E+01  0.1764780E+06  0.2048186E+01
  0.1907143E+01  0.7716442E+05 -0.4014744E+00  0.1343408E+06 -0.2525243E+01  0.1640872E+06  0.1999101E+01
  0.1938095E+01  0.6095564E+05 -0.3891421E+00  0.1286570E+06 -0.2527143E+01  0.1517228E+06  0.1934521E+01
  0.1969048E+01  0.4481200E+05 -0.3861905E+00  0.1229852E+06 -0.2530836E+01  0.1405519E+06  0.1855722E+01
  0.2000000E+01  0.2895571E+05 -0.4065138E+00  0.1174490E+06 -0.2535659E+01  0.1313193E+06  0.1765120E+01
