VARIABLES="w (rad/s)"
"abs(F   1   1)" "angle(F   1   1)"
"abs(F   1   2)" "angle(F   1   2)"
"abs(F   1   3)" "angle(F   1   3)"
Zone t="Diffraction force - beta =   0.000 deg",I=    64,F=POINT
  0.5000000E-01  0.1250552E+04 -0.1570755E+01  0.8246202E+05 -0.5571346E-05  0.2958007E+04  0.1570805E+01
  0.8095238E-01  0.2046322E+04 -0.1570787E+01  0.8225515E+05 -0.1497737E-04  0.4839344E+04  0.1570782E+01
  0.1119048E+00  0.2857537E+04 -0.1570789E+01  0.8195089E+05 -0.2970751E-04  0.6753604E+04  0.1570784E+01
  0.1428571E+00  0.3694754E+04 -0.1570776E+01  0.8154959E+05 -0.5088325E-04  0.8726134E+04  0.1570797E+01
  0.1738095E+00  0.4566409E+04 -0.1570784E+01  0.8105154E+05 -0.8012306E-04  0.1077419E+05  0.1570803E+01
  0.2047619E+00  0.5482979E+04 -0.1570796E+01  0.8045770E+05 -0.1198798E-03  0.1292396E+05  0.1570807E+01
  0.2357143E+00  0.6454805E+04 -0.1570790E+01  0.7976891E+05 -0.1736816E-03  0.1520244E+05  0.1570810E+01
  0.2666667E+00  0.7498060E+04 -0.1570781E+01  0.7898537E+05 -0.2456805E-03  0.1763400E+05  0.1570813E+01
  0.2976190E+00  0.8623934E+04 -0.1570778E+01  0.7811098E+05 -0.3433996E-03  0.2025764E+05  0.1570816E+01
  0.3285715E+00  0.9852153E+04 -0.1570765E+01  0.7714487E+05 -0.4738011E-03  0.2311393E+05  0.1570835E+01
  0.3595238E+00  0.1119963E+05 -0.1570743E+01  0.7609390E+05 -0.6488818E-03  0.2623162E+05  0.1570853E+01
  0.3904762E+00  0.1268732E+05 -0.1570720E+01  0.7495809E+05 -0.8810702E-03  0.2965536E+05  0.1570877E+01
  0.4214286E+00  0.1432218E+05 -0.1570680E+01  0.7374542E+05 -0.1178670E-02  0.3342121E+05  0.1570912E+01
  0.4523810E+00  0.1611996E+05 -0.1570627E+01  0.7246046E+05 -0.1565634E-02  0.3753985E+05  0.1570971E+01
  0.4833333E+00  0.1808084E+05 -0.1570548E+01  0.7110628E+05 -0.2027716E-02  0.4200484E+05  0.1571043E+01
  0.5142857E+00  0.2019200E+05 -0.1570439E+01  0.6969641E+05 -0.2595051E-02  0.4680332E+05  0.1571151E+01
  0.5452381E+00  0.2245806E+05 -0.1570297E+01  0.6822399E+05 -0.3256664E-02  0.5192702E+05  0.1571297E+01
  0.5761905E+00  0.2483776E+05 -0.1570108E+01  0.6670702E+05 -0.4013112E-02  0.5728583E+05  0.1571483E+01
  0.6071429E+00  0.2734427E+05 -0.1569866E+01  0.6514380E+05 -0.4892102E-02  0.6287961E+05  0.1571727E+01
  0.6380953E+00  0.2996471E+05 -0.1569562E+01  0.6352817E+05 -0.5864520E-02  0.6869404E+05  0.1572030E+01
  0.6690477E+00  0.3265828E+05 -0.1569184E+01  0.6189050E+05 -0.6956694E-02  0.7464927E+05  0.1572409E+01
  0.7000000E+00  0.3544696E+05 -0.1568716E+01  0.6021630E+05 -0.8185345E-02  0.8077588E+05  0.1572877E+01
  0.7309524E+00  0.3833127E+05 -0.1568150E+01  0.5850449E+05 -0.9536161E-02  0.8703312E+05  0.1573441E+01
  0.7619048E+00  0.4126409E+05 -0.1567469E+01  0.5678083E+05 -0.1102311E-01  0.9334561E+05  0.1574124E+01
  0.7928572E+00  0.4427520E+05 -0.1566654E+01  0.5504077E+05 -0.1265949E-01  0.9978694E+05  0.1574938E+01
  0.8238096E+00  0.4735475E+05 -0.1565691E+01  0.5328105E+05 -0.1445097E-01  0.1062951E+06  0.1575901E+01
  0.8547620E+00  0.5049513E+05 -0.1564562E+01  0.5150397E+05 -0.1640273E-01  0.1129010E+06  0.1577031E+01
  0.8857143E+00  0.5365251E+05 -0.1563248E+01  0.4974404E+05 -0.1850468E-01  0.1194768E+06  0.1578345E+01
  0.9166667E+00  0.5687745E+05 -0.1561728E+01  0.4797815E+05 -0.2078407E-01  0.1260975E+06  0.1579864E+01
  0.9476191E+00  0.6014996E+05 -0.1559983E+01  0.4621194E+05 -0.2324890E-01  0.1327026E+06  0.1581609E+01
  0.9785714E+00  0.6346734E+05 -0.1557991E+01  0.4444516E+05 -0.2591223E-01  0.1393385E+06  0.1583601E+01
  0.1009524E+01  0.6676754E+05 -0.1555731E+01  0.4270891E+05 -0.2872950E-01  0.1458547E+06  0.1585861E+01
  0.1040476E+01  0.7012085E+05 -0.1553180E+01  0.4099053E+05 -0.3175173E-01  0.1524182E+06  0.1588412E+01
  0.1071429E+01  0.7346428E+05 -0.1550318E+01  0.3928754E+05 -0.3499542E-01  0.1588488E+06  0.1591273E+01
  0.1102381E+01  0.7685005E+05 -0.1547124E+01  0.3760089E+05 -0.3847815E-01  0.1652609E+06  0.1594468E+01
  0.1133333E+01  0.8023235E+05 -0.1543577E+01  0.3593238E+05 -0.4222969E-01  0.1715640E+06  0.1598013E+01
  0.1164286E+01  0.8356241E+05 -0.1539661E+01  0.3431531E+05 -0.4608829E-01  0.1776137E+06  0.1601928E+01
  0.1195238E+01  0.8691334E+05 -0.1535346E+01  0.3273037E+05 -0.5020233E-01  0.1836126E+06  0.1606242E+01
  0.1226190E+01  0.9022628E+05 -0.1530620E+01  0.3117500E+05 -0.5459792E-01  0.1894064E+06  0.1610967E+01
  0.1257143E+01  0.9347248E+05 -0.1525481E+01  0.2965269E+05 -0.5932012E-01  0.1949523E+06  0.1616105E+01
  0.1288095E+01  0.9680947E+05 -0.1519854E+01  0.2816038E+05 -0.6433661E-01  0.2005193E+06  0.1621729E+01
  0.1319048E+01  0.1000040E+06 -0.1513780E+01  0.2670855E+05 -0.6969438E-01  0.2057456E+06  0.1627802E+01
  0.1350000E+01  0.1030904E+06 -0.1507238E+01  0.2531798E+05 -0.7504743E-01  0.2106165E+06  0.1634340E+01
  0.1380952E+01  0.1061584E+06 -0.1500194E+01  0.2396892E+05 -0.8075682E-01  0.2153925E+06  0.1641382E+01
  0.1411905E+01  0.1089958E+06 -0.1492763E+01  0.2266055E+05 -0.8680946E-01  0.2196670E+06  0.1648809E+01
  0.1442857E+01  0.1118748E+06 -0.1484810E+01  0.2139417E+05 -0.9327490E-01  0.2237040E+06  0.1656757E+01
  0.1473810E+01  0.1146876E+06 -0.1476385E+01  0.2016664E+05 -0.1002008E+00  0.2274619E+06  0.1665171E+01
  0.1504762E+01  0.1173545E+06 -0.1467472E+01  0.1898245E+05 -0.1076402E+00  0.2308708E+06  0.1674078E+01
  0.1535714E+01  0.1198496E+06 -0.1458112E+01  0.1785453E+05 -0.1150321E+00  0.2338035E+06  0.1683423E+01
  0.1566667E+01  0.1221898E+06 -0.1448302E+01  0.1677679E+05 -0.1225858E+00  0.2363236E+06  0.1693224E+01
  0.1597619E+01  0.1244200E+06 -0.1438023E+01  0.1574751E+05 -0.1305030E+00  0.2385889E+06  0.1703496E+01
  0.1628572E+01  0.1264500E+06 -0.1427365E+01  0.1476026E+05 -0.1389226E+00  0.2403220E+06  0.1714141E+01
  0.1659524E+01  0.1283141E+06 -0.1416332E+01  0.1381788E+05 -0.1478032E+00  0.2416232E+06  0.1725161E+01
  0.1690476E+01  0.1300089E+06 -0.1404970E+01  0.1291566E+05 -0.1572954E+00  0.2425220E+06  0.1736499E+01
  0.1721429E+01  0.1315220E+06 -0.1393284E+01  0.1205507E+05 -0.1674538E+00  0.2430624E+06  0.1748164E+01
  0.1752381E+01  0.1327728E+06 -0.1381381E+01  0.1123791E+05 -0.1782081E+00  0.2430622E+06  0.1760060E+01
  0.1783333E+01  0.1337451E+06 -0.1369475E+01  0.1047005E+05 -0.1881778E+00  0.2423650E+06  0.1771899E+01
  0.1814286E+01  0.1345343E+06 -0.1357415E+01  0.9743034E+04 -0.1986890E+00  0.2413135E+06  0.1783931E+01
  0.1845238E+01  0.1351410E+06 -0.1345244E+01  0.9059037E+04 -0.2094576E+00  0.2399454E+06  0.1796088E+01
  0.1876190E+01  0.1354813E+06 -0.1333182E+01  0.8410611E+04 -0.2208908E+00  0.2379909E+06  0.1808110E+01
  0.1907143E+01  0.1355802E+06 -0.1321232E+01  0.7800711E+04 -0.2326992E+00  0.2355478E+06  0.1819999E+01
  0.1938095E+01  0.1354836E+06 -0.1309406E+01  0.7224350E+04 -0.2451777E+00  0.2327737E+06  0.1831772E+01
  0.1969048E+01  0.1352059E+06 -0.1297791E+01  0.6678585E+04 -0.2587947E+00  0.2296860E+06  0.1843307E+01
  0.2000000E+01  0.1346350E+06 -0.1286447E+01  0.6170895E+04 -0.2725199E+00  0.2261786E+06  0.1854621E+01
