VARIABLES="w (rad/s)"
"A   1   1" "B   1   1"
"A   1   2" "B   1   2"
"A   1   3" "B   1   3"
Zone t="Motion of body    1 in DoF   1",I=    64,F=POINT
  0.5000000E-01  0.3697657E+05  0.1126649E-02 -0.5054474E-03 -0.2776282E-05 -0.8599085E+05 -0.2656058E-02
  0.8095238E-01  0.3734969E+05  0.4805080E-02 -0.9071126E-03 -0.7760871E-05 -0.8688491E+05 -0.1141039E-01
  0.1119048E+00  0.3745167E+05  0.1350295E-01 -0.1014141E-02 -0.5656613E-05 -0.8708034E+05 -0.3193273E-01
  0.1428571E+00  0.3752175E+05  0.3025736E-01 -0.2670288E-04 -0.1959885E-04 -0.8720660E+05 -0.7142264E-01
  0.1738095E+00  0.3757271E+05  0.6022542E-01  0.8010864E-03 -0.3595953E-05 -0.8725923E+05 -0.1420360E+00
  0.2047619E+00  0.3762204E+05  0.1113691E+00 -0.1080535E-02 -0.3341597E-04 -0.8732979E+05 -0.2624927E+00
  0.2357143E+00  0.3765674E+05  0.1957596E+00 -0.1043840E-02 -0.2084300E-04 -0.8742453E+05 -0.4611238E+00
  0.2666667E+00  0.3771391E+05  0.3332341E+00  0.6437302E-04 -0.2790778E-04 -0.8747579E+05 -0.7837287E+00
  0.2976190E+00  0.3774961E+05  0.5579369E+00  0.8139038E-03  0.9063631E-05 -0.8754783E+05 -0.1310696E+01
  0.3285715E+00  0.3779639E+05  0.9213706E+00  0.2263940E-02  0.5957019E-04 -0.8765978E+05 -0.2161931E+01
  0.3595238E+00  0.3784579E+05  0.1509778E+01 -0.4774687E-03  0.6668270E-06 -0.8772530E+05 -0.3536679E+01
  0.3904762E+00  0.3792335E+05  0.2455512E+01  0.6056994E-03 -0.2853666E-04 -0.8781032E+05 -0.5739697E+01
  0.4214286E+00  0.3798402E+05  0.3940380E+01 -0.9957005E-03 -0.6773137E-04 -0.8795029E+05 -0.9194446E+01
  0.4523810E+00  0.3807055E+05  0.6269014E+01 -0.1205846E-02 -0.1317561E-03 -0.8810454E+05 -0.1459924E+02
  0.4833333E+00  0.3817309E+05  0.9726017E+01  0.3946238E-03  0.1178309E-03 -0.8825079E+05 -0.2259393E+02
  0.5142857E+00  0.3826436E+05  0.1484019E+02 -0.1854367E-02 -0.2547726E-03 -0.8842120E+05 -0.3439697E+02
  0.5452381E+00  0.3840740E+05  0.2211334E+02 -0.7905919E-03 -0.2570450E-03 -0.8869352E+05 -0.5112840E+02
  0.5761905E+00  0.3850211E+05  0.3214777E+02  0.1145355E-02  0.1721829E-03 -0.8887438E+05 -0.7414210E+02
  0.6071429E+00  0.3864111E+05  0.4590313E+02  0.3581327E-03  0.1558363E-03 -0.8909631E+05 -0.1055565E+03
  0.6380953E+00  0.3881505E+05  0.6411239E+02  0.6576082E-03 -0.1354516E-03 -0.8940114E+05 -0.1469746E+03
  0.6690477E+00  0.3894416E+05  0.8794536E+02 -0.4105211E-03 -0.1465976E-03 -0.8965013E+05 -0.2010175E+03
  0.7000000E+00  0.3910935E+05  0.1188672E+03  0.3051758E-03 -0.1317859E-03 -0.8998075E+05 -0.2708711E+03
  0.7309524E+00  0.3931835E+05  0.1582405E+03 -0.1419515E-02 -0.5503297E-03 -0.9033495E+05 -0.3592892E+03
  0.7619048E+00  0.3948737E+05  0.2077644E+03 -0.5407333E-03 -0.3809929E-03 -0.9060946E+05 -0.4699872E+03
  0.7928572E+00  0.3969289E+05  0.2695972E+03 -0.1096983E-02 -0.7463694E-03 -0.9098598E+05 -0.6076062E+03
  0.8238096E+00  0.3992001E+05  0.3459540E+03 -0.5093613E-03 -0.4471540E-03 -0.9137281E+05 -0.7765381E+03
  0.8547620E+00  0.4016847E+05  0.4393074E+03  0.9729071E-03 -0.5245209E-05 -0.9184817E+05 -0.9822233E+03
  0.8857143E+00  0.4037635E+05  0.5520505E+03  0.1550490E-03 -0.8437634E-03 -0.9223484E+05 -0.1229320E+04
  0.9166667E+00  0.4062907E+05  0.6877100E+03  0.2746582E-03 -0.2713203E-03 -0.9267477E+05 -0.1524616E+04
  0.9476191E+00  0.4090042E+05  0.8494984E+03 -0.1127157E-03 -0.4525185E-03 -0.9310559E+05 -0.1874099E+04
  0.9785714E+00  0.4119670E+05  0.1041159E+04  0.1052522E-02 -0.4086494E-03 -0.9360560E+05 -0.2285701E+04
  0.1009524E+01  0.4144612E+05  0.1265518E+04  0.1088268E-02 -0.1287460E-04 -0.9401027E+05 -0.2764393E+04
  0.1040476E+01  0.4174570E+05  0.1528154E+04 -0.6526013E-03 -0.7200241E-04 -0.9453945E+05 -0.3321488E+04
  0.1071429E+01  0.4202248E+05  0.1832040E+04  0.8616130E-03  0.1072407E-02 -0.9499816E+05 -0.3961109E+04
  0.1102381E+01  0.4234127E+05  0.2183126E+04  0.1176542E-03 -0.8916855E-03 -0.9552355E+05 -0.4694344E+04
  0.1133333E+01  0.4265714E+05  0.2584916E+04  0.2692728E-04 -0.7295609E-03 -0.9603730E+05 -0.5526921E+04
  0.1164286E+01  0.4292421E+05  0.3040395E+04  0.0000000E+00 -0.7305145E-03 -0.9641072E+05 -0.6461599E+04
  0.1195238E+01  0.4322601E+05  0.3557896E+04 -0.4340548E-03 -0.3376007E-03 -0.9686155E+05 -0.7515353E+04
  0.1226190E+01  0.4350725E+05  0.4139886E+04  0.2488812E-03 -0.1402855E-02 -0.9725025E+05 -0.8689298E+04
  0.1257143E+01  0.4375123E+05  0.4788083E+04  0.4855069E-03  0.1564026E-03 -0.9756091E+05 -0.9984720E+04
  0.1288095E+01  0.4409100E+05  0.5521665E+04 -0.1220139E-02 -0.2328873E-02 -0.9801028E+05 -0.1143450E+05
  0.1319048E+01  0.4434347E+05  0.6328011E+04  0.2892009E-03 -0.4043579E-03 -0.9833282E+05 -0.1301618E+05
  0.1350000E+01  0.4453713E+05  0.7212815E+04 -0.8590133E-03 -0.1146317E-02 -0.9851355E+05 -0.1473208E+05
  0.1380952E+01  0.4475640E+05  0.8189264E+04 -0.3314840E-03 -0.7572174E-03 -0.9877195E+05 -0.1661126E+05
  0.1411905E+01  0.4484698E+05  0.9230901E+04 -0.1069916E-02 -0.1771927E-02 -0.9881229E+05 -0.1859800E+05
  0.1442857E+01  0.4498806E+05  0.1037475E+05 -0.2432342E-03 -0.5760193E-03 -0.9882548E+05 -0.2073796E+05
  0.1473810E+01  0.4511570E+05  0.1161017E+05 -0.7557907E-03 -0.8277893E-03 -0.9877895E+05 -0.2301640E+05
  0.1504762E+01  0.4518716E+05  0.1293360E+05  0.8619284E-03  0.3738403E-03 -0.9865637E+05 -0.2543153E+05
  0.1535714E+01  0.4518227E+05  0.1433654E+05  0.9439157E-03 -0.3585815E-03 -0.9836745E+05 -0.2795101E+05
  0.1566667E+01  0.4512008E+05  0.1582149E+05 -0.5454205E-03 -0.9002686E-03 -0.9796980E+05 -0.3058031E+05
  0.1597619E+01  0.4503920E+05  0.1739630E+05  0.1719172E-03  0.8544922E-03 -0.9756190E+05 -0.3333646E+05
  0.1628572E+01  0.4487531E+05  0.1903540E+05  0.7589239E-03  0.1296997E-03 -0.9697694E+05 -0.3615090E+05
  0.1659524E+01  0.4465914E+05  0.2074223E+05 -0.2574510E-03  0.4081726E-03 -0.9629123E+05 -0.3902829E+05
  0.1690476E+01  0.4439120E+05  0.2250638E+05 -0.1164396E-02 -0.3547668E-03 -0.9550752E+05 -0.4194652E+05
  0.1721429E+01  0.4407523E+05  0.2432425E+05 -0.5761618E-03  0.5378723E-03 -0.9466549E+05 -0.4490595E+05
  0.1752381E+01  0.4366925E+05  0.2616383E+05  0.4353731E-04 -0.5722046E-04 -0.9369462E+05 -0.4784760E+05
  0.1783333E+01  0.4314973E+05  0.2797606E+05  0.1882393E-03 -0.1831055E-03 -0.9246499E+05 -0.5062645E+05
  0.1814286E+01  0.4259561E+05  0.2980577E+05  0.3364143E-04  0.7247925E-04 -0.9121766E+05 -0.5338496E+05
  0.1845238E+01  0.4200968E+05  0.3164068E+05  0.8186586E-03 -0.4348755E-03 -0.8994857E+05 -0.5609209E+05
  0.1876190E+01  0.4134007E+05  0.3342132E+05  0.3822443E-03 -0.2326965E-03 -0.8852885E+05 -0.5861163E+05
  0.1907143E+01  0.4061028E+05  0.3514856E+05 -0.8800950E-04 -0.4653931E-03 -0.8701934E+05 -0.6095012E+05
  0.1938095E+01  0.3985230E+05  0.3683063E+05  0.1598236E-02  0.4539490E-03 -0.8549898E+05 -0.6315284E+05
  0.1969048E+01  0.3907114E+05  0.3844828E+05 -0.5192048E-03 -0.1106262E-03 -0.8395277E+05 -0.6515915E+05
  0.2000000E+01  0.3822859E+05  0.3996897E+05 -0.1037598E-02 -0.1029968E-03 -0.8237802E+05 -0.6697415E+05
Zone t="Motion of body    1 in DoF   2",I=    64,F=POINT
  0.5000000E-01 -0.4291534E-04  0.7450581E-06  0.1000153E+05  0.9179051E+01 -0.1373291E-02  0.1561642E-04
  0.8095238E-01  0.6714989E-03 -0.1072884E-05  0.9957176E+04  0.1520137E+02  0.2309014E-02 -0.1150370E-04
  0.1119048E+00  0.1056752E-02 -0.2622604E-05  0.9931329E+04  0.2172797E+02 -0.6272336E-02  0.2980232E-05
  0.1428571E+00 -0.5006790E-03 -0.2026558E-05  0.9918214E+04  0.2900404E+02 -0.4005432E-03  0.1764297E-04
  0.1738095E+00  0.2688578E-03  0.7867813E-05  0.9917431E+04  0.3729917E+02 -0.3336031E-02 -0.7033348E-05
  0.2047619E+00  0.1956141E-03 -0.5006790E-05  0.9915181E+04  0.4701104E+02 -0.1490393E-03  0.3957748E-04
  0.2357143E+00  0.5745165E-03 -0.4053116E-05  0.9914219E+04  0.5863586E+02 -0.9710138E-04  0.4339218E-04
  0.2666667E+00 -0.1466274E-02 -0.2193451E-04  0.9930884E+04  0.7255949E+02  0.2174377E-02 -0.4410744E-04
  0.2976190E+00 -0.1493225E-02 -0.1907349E-04  0.9928585E+04  0.8981039E+02  0.2742920E-02  0.2384186E-05
  0.3285715E+00  0.5050327E-03 -0.9536743E-05  0.9948420E+04  0.1107645E+03  0.3157906E-02  0.7677078E-04
  0.3595238E+00  0.6207093E-03  0.2765656E-04  0.9946358E+04  0.1366123E+03 -0.1527900E-02 -0.1525879E-04
  0.3904762E+00 -0.3516964E-03 -0.1020432E-03  0.9957467E+04  0.1680305E+03  0.2579107E-02  0.1754761E-03
  0.4214286E+00  0.2172438E-03 -0.4291534E-04  0.9953791E+04  0.2045800E+03 -0.2860376E-02  0.5626678E-04
  0.4523810E+00  0.1560010E-02  0.2670288E-04  0.9941829E+04  0.2482763E+03 -0.5565442E-02 -0.2050400E-03
  0.4833333E+00 -0.9155273E-03 -0.3433228E-04  0.9934294E+04  0.2946094E+03  0.6629680E-03 -0.2374649E-03
  0.5142857E+00 -0.1409319E-03 -0.5340576E-04  0.9892758E+04  0.3463273E+03 -0.1987881E-02 -0.6198883E-04
  0.5452381E+00  0.8745485E-03  0.1125336E-03  0.9872985E+04  0.3999015E+03 -0.3694093E-02  0.5779266E-03
  0.5761905E+00  0.3972329E-03 -0.5722046E-05  0.9820543E+04  0.4540545E+03  0.3972329E-03 -0.4730225E-03
  0.6071429E+00  0.6283030E-04 -0.4959106E-04  0.9765075E+04  0.5106100E+03  0.2337287E-02 -0.2288818E-04
  0.6380953E+00  0.5858691E-03  0.1220703E-03  0.9738389E+04  0.5647690E+03 -0.1602173E-02 -0.1314163E-02
  0.6690477E+00 -0.6271851E-04  0.5340576E-04  0.9660795E+04  0.6184993E+03 -0.2029799E-02 -0.8277893E-03
  0.7000000E+00  0.2724784E-04 -0.3433228E-03  0.9595512E+04  0.6719284E+03 -0.2179827E-02  0.4901886E-03
  0.7309524E+00 -0.1356889E-03  0.3814697E-05  0.9553373E+04  0.7224022E+03  0.2546776E-02 -0.7629395E-03
  0.7619048E+00 -0.1802444E-03  0.4730225E-03  0.9480428E+04  0.7703092E+03  0.8811950E-03 -0.1907349E-04
  0.7928572E+00  0.7698127E-04  0.9918213E-04  0.9405264E+04  0.8156372E+03  0.1347172E-02 -0.6217957E-03
  0.8238096E+00 -0.6853224E-03 -0.5722046E-04  0.9345000E+04  0.8576396E+03  0.4074890E-03  0.1174927E-02
  0.8547620E+00  0.6203399E-03  0.5035400E-03  0.9302493E+04  0.8957205E+03 -0.4677095E-02 -0.8010864E-03
  0.8857143E+00 -0.5125231E-03 -0.5340576E-04  0.9215828E+04  0.9284093E+03  0.6891066E-03  0.8583069E-03
  0.9166667E+00 -0.3870184E-03  0.6103516E-04  0.9145847E+04  0.9569346E+03  0.2130682E-02  0.9613037E-03
  0.9476191E+00  0.1207668E-03 -0.2212524E-03  0.9088304E+04  0.9810245E+03 -0.2833994E-02 -0.9727478E-03
  0.9785714E+00 -0.1130487E-03 -0.9155273E-04  0.9049517E+04  0.1000771E+04 -0.4054160E-03  0.2555847E-03
  0.1009524E+01 -0.3627561E-03  0.7858276E-03  0.8979101E+04  0.1012433E+04 -0.1269646E-02 -0.1960754E-02
  0.1040476E+01  0.1429857E-03  0.7858276E-03  0.8912321E+04  0.1019436E+04 -0.6452687E-03 -0.4920959E-03
  0.1071429E+01  0.2848307E-03 -0.8163452E-03  0.8857647E+04  0.1021964E+04 -0.3531901E-02  0.6561279E-03
  0.1102381E+01 -0.1418771E-03 -0.8926392E-03  0.8818153E+04  0.1020759E+04  0.1522583E-02  0.1827240E-02
  0.1133333E+01  0.1006407E-02 -0.6408691E-03  0.8796524E+04  0.1017175E+04 -0.4766128E-02  0.6675720E-03
  0.1164286E+01  0.3980859E-03  0.1602173E-03  0.8738784E+04  0.1000370E+04  0.7863424E-04  0.4081726E-03
  0.1195238E+01  0.4069264E-03 -0.3051758E-03  0.8688946E+04  0.9806861E+03 -0.1046838E-02  0.4692078E-03
  0.1226190E+01  0.1135521E-03 -0.5035400E-03  0.8651526E+04  0.9588027E+03 -0.8213081E-03 -0.3280640E-03
  0.1257143E+01  0.1850995E-03 -0.1449585E-03  0.8625214E+04  0.9357130E+03  0.6311590E-03 -0.1678467E-03
  0.1288095E+01  0.8025672E-03 -0.1831055E-03  0.8613368E+04  0.9125165E+03 -0.2724582E-02  0.9651184E-03
  0.1319048E+01  0.3069144E-03  0.4043579E-03  0.8607604E+04  0.8878531E+03 -0.6940820E-04 -0.1270294E-02
  0.1350000E+01 -0.5792688E-03 -0.2822876E-03  0.8569974E+04  0.8431805E+03  0.1559787E-02  0.9689331E-03
  0.1380952E+01 -0.1435136E-03 -0.9918213E-04  0.8544018E+04  0.8014128E+03 -0.1988904E-03 -0.6866455E-04
  0.1411905E+01 -0.4039205E-03  0.4043579E-03  0.8528224E+04  0.7617897E+03  0.5403618E-03  0.4272461E-03
  0.1442857E+01  0.4084748E-03  0.5187988E-03  0.8521039E+04  0.7247520E+03 -0.1078691E-02 -0.4653931E-03
  0.1473810E+01  0.6671406E-03  0.5645752E-03  0.8524281E+04  0.6920645E+03 -0.2484791E-03 -0.1373291E-02
  0.1504762E+01  0.1406971E-03 -0.2212524E-03  0.8538668E+04  0.6679135E+03 -0.1399366E-02  0.1255035E-02
  0.1535714E+01  0.2223170E-03  0.7629395E-05  0.8534253E+04  0.6213308E+03 -0.2046807E-02 -0.4997253E-03
  0.1566667E+01 -0.3396704E-03 -0.2059937E-03  0.8525296E+04  0.5675297E+03  0.1811575E-02 -0.5626678E-03
  0.1597619E+01  0.2387739E-05  0.5950928E-03  0.8520651E+04  0.5183336E+03  0.5348535E-03 -0.1583099E-02
  0.1628572E+01  0.5621659E-04 -0.2365112E-03  0.8523306E+04  0.4760258E+03 -0.1948842E-02  0.1691818E-02
  0.1659524E+01  0.4551366E-03 -0.5340576E-03  0.8530218E+04  0.4397584E+03 -0.2096387E-02  0.3738403E-03
  0.1690476E+01  0.5167571E-03  0.2975464E-03  0.8543438E+04  0.4122733E+03 -0.1408107E-02 -0.1188278E-02
  0.1721429E+01  0.2858649E-03  0.1296997E-03  0.8561664E+04  0.3949626E+03 -0.6736661E-03 -0.8125305E-03
  0.1752381E+01  0.3918358E-04 -0.3051758E-03  0.8584805E+04  0.3892003E+03  0.0000000E+00  0.5226135E-03
  0.1783333E+01  0.9198055E-04 -0.4425049E-03  0.8584729E+04  0.3260414E+03 -0.1026760E-03 -0.2632141E-03
  0.1814286E+01  0.4036971E-03  0.4653931E-03  0.8592209E+04  0.2822607E+03 -0.2085768E-02 -0.5731583E-03
  0.1845238E+01  0.2356745E-03 -0.3051758E-04  0.8599609E+04  0.2415911E+03 -0.1852319E-02 -0.6484985E-03
  0.1876190E+01  0.6750271E-03 -0.1037598E-02  0.8610581E+04  0.2108255E+03 -0.3480863E-02  0.1663208E-02
  0.1907143E+01  0.2560276E-03 -0.1678467E-03  0.8622089E+04  0.1856553E+03 -0.1920207E-03 -0.7534027E-04
  0.1938095E+01  0.1358107E-03 -0.3738403E-03  0.8636093E+04  0.1713360E+03 -0.3779081E-03  0.6589890E-03
  0.1969048E+01  0.9299190E-04 -0.1678467E-03  0.8651227E+04  0.1647482E+03 -0.1394878E-02  0.8244514E-03
  0.2000000E+01 -0.1144409E-03  0.5416870E-03  0.8666733E+04  0.1703695E+03  0.4577637E-03 -0.7309914E-03
Zone t="Motion of body    1 in DoF   3",I=    64,F=POINT
  0.5000000E-01 -0.8605148E+05 -0.2652953E-02  0.3604889E-02  0.1009305E-04  0.2466870E+06  0.6289318E-02
  0.8095238E-01 -0.8691926E+05 -0.1140088E-01  0.1861348E-02  0.2445563E-04  0.2483946E+06  0.2709212E-01
  0.1119048E+00 -0.8711748E+05 -0.3192887E-01 -0.2386215E-02  0.2700865E-05  0.2486880E+06  0.7547987E-01
  0.1428571E+00 -0.8724515E+05 -0.7140962E-01 -0.3698349E-02  0.6749440E-05  0.2488977E+06  0.1685210E+00
  0.1738095E+00 -0.8729898E+05 -0.1421033E+00  0.0000000E+00  0.4335999E-04  0.2489545E+06  0.3350980E+00
  0.2047619E+00 -0.8737470E+05 -0.2626182E+00  0.2216960E-02  0.9298464E-04  0.2490756E+06  0.6191336E+00
  0.2357143E+00 -0.8746655E+05 -0.4612764E+00  0.8739124E-03  0.1154414E-03  0.2492553E+06  0.1086601E+01
  0.2666667E+00 -0.8752347E+05 -0.7841494E+00 -0.2174377E-02  0.2828147E-04  0.2493300E+06  0.1844291E+01
  0.2976190E+00 -0.8759456E+05 -0.1311373E+01 -0.2845459E-02  0.8426141E-05  0.2494732E+06  0.3080922E+01
  0.3285715E+00 -0.8770231E+05 -0.2162638E+01 -0.7430366E-02 -0.1585595E-03  0.2496759E+06  0.5074695E+01
  0.3595238E+00 -0.8776928E+05 -0.3537857E+01  0.8445891E-02  0.3929622E-03  0.2497955E+06  0.8287359E+01
  0.3904762E+00 -0.8786129E+05 -0.5743889E+01 -0.8948721E-02 -0.9817258E-04  0.2499320E+06  0.1342555E+02
  0.4214286E+00 -0.8799528E+05 -0.9198526E+01 -0.5032814E-02  0.1130998E-04  0.2502209E+06  0.2146251E+02
  0.4523810E+00 -0.8815307E+05 -0.1460616E+02  0.2647801E-02  0.2954602E-03  0.2505134E+06  0.3401418E+02
  0.4833333E+00 -0.8830029E+05 -0.2260892E+02 -0.5524734E-03 -0.5260110E-05  0.2507398E+06  0.5252085E+02
  0.5142857E+00 -0.8847238E+05 -0.3441690E+02 -0.4673005E-02  0.2200902E-04  0.2510818E+06  0.7977222E+02
  0.5452381E+00 -0.8874375E+05 -0.5115693E+02  0.4533660E-02  0.8662939E-03  0.2515745E+06  0.1182803E+03
  0.5761905E+00 -0.8891978E+05 -0.7417426E+02 -0.4091499E-02 -0.4682243E-03  0.2519361E+06  0.1710679E+03
  0.6071429E+00 -0.8914928E+05 -0.1056194E+03  0.5780388E-02  0.7691979E-03  0.2523554E+06  0.2428852E+03
  0.6380953E+00 -0.8945498E+05 -0.1470781E+03 -0.7951082E-02 -0.9642243E-03  0.2529051E+06  0.3371718E+03
  0.6690477E+00 -0.8969934E+05 -0.2011242E+03  0.5177128E-02  0.1795173E-02  0.2533876E+06  0.4597108E+03
  0.7000000E+00 -0.9003022E+05 -0.2709663E+03 -0.2027239E-02  0.9353161E-03  0.2540267E+06  0.6174781E+03
  0.7309524E+00 -0.9038447E+05 -0.3594788E+03  0.3903665E-02  0.2320766E-02  0.2546334E+06  0.8162066E+03
  0.7619048E+00 -0.9065664E+05 -0.4702725E+03  0.2883911E-02  0.5676746E-03  0.2551459E+06  0.1063809E+04
  0.7928572E+00 -0.9103693E+05 -0.6079261E+03 -0.1347172E-02  0.1156807E-02  0.2558468E+06  0.1370116E+04
  0.8238096E+00 -0.9142674E+05 -0.7770476E+03 -0.4130457E-02  0.5900860E-03  0.2565601E+06  0.1744180E+04
  0.8547620E+00 -0.9189925E+05 -0.9827142E+03 -0.2963350E-02 -0.2527237E-04  0.2574361E+06  0.2197187E+04
  0.8857143E+00 -0.9227838E+05 -0.1229686E+04 -0.8906703E-02 -0.2301216E-02  0.2581397E+06  0.2738281E+04
  0.9166667E+00 -0.9272045E+05 -0.1525020E+04  0.5459872E-02  0.2946377E-02  0.2589136E+06  0.3380869E+04
  0.9476191E+00 -0.9315715E+05 -0.1875042E+04  0.2254314E-02  0.2727509E-02  0.2596727E+06  0.4136551E+04
  0.9785714E+00 -0.9365791E+05 -0.2287009E+04 -0.3695523E-02 -0.1239777E-04  0.2605155E+06  0.5020706E+04
  0.1009524E+01 -0.9405712E+05 -0.2765899E+04  0.6106395E-02  0.2875328E-02  0.2611921E+06  0.6041728E+04
  0.1040476E+01 -0.9458773E+05 -0.3322733E+04  0.2111788E-02  0.1254082E-02  0.2621044E+06  0.7221936E+04
  0.1071429E+01 -0.9504705E+05 -0.3962333E+04 -0.4585775E-02 -0.1422882E-02  0.2628798E+06  0.8566946E+04
  0.1102381E+01 -0.9557114E+05 -0.4695868E+04 -0.7737491E-02 -0.1983643E-02  0.2637219E+06  0.1009730E+05
  0.1133333E+01 -0.9608359E+05 -0.5528263E+04 -0.1252118E-02  0.1916885E-02  0.2645352E+06  0.1181988E+05
  0.1164286E+01 -0.9645207E+05 -0.6463438E+04  0.5334023E-02  0.4117966E-02  0.2650348E+06  0.1373589E+05
  0.1195238E+01 -0.9690588E+05 -0.7517214E+04  0.3280943E-02  0.1653671E-02  0.2656929E+06  0.1587791E+05
  0.1226190E+01 -0.9729662E+05 -0.8691540E+04 -0.7118003E-02 -0.7591248E-03  0.2662029E+06  0.1824220E+05
  0.1257143E+01 -0.9761098E+05 -0.9987919E+04 -0.5631880E-02 -0.2532959E-02  0.2665798E+06  0.2082746E+05
  0.1288095E+01 -0.9805819E+05 -0.1143932E+05  0.5923005E-02  0.3566742E-02  0.2670678E+06  0.2368758E+05
  0.1319048E+01 -0.9837923E+05 -0.1301998E+05 -0.3030825E-02 -0.3814697E-05  0.2674126E+06  0.2677889E+05
  0.1350000E+01 -0.9855139E+05 -0.1473501E+05 -0.3006547E-02  0.1239777E-02  0.2674284E+06  0.3009360E+05
  0.1380952E+01 -0.9880894E+05 -0.1661003E+05 -0.4132501E-02  0.1594543E-02  0.2675876E+06  0.3368846E+05
  0.1411905E+01 -0.9884508E+05 -0.1858912E+05  0.4539039E-02  0.2727509E-02  0.2673610E+06  0.3744915E+05
  0.1442857E+01 -0.9886250E+05 -0.2073029E+05 -0.1438254E-02 -0.5035400E-03  0.2670151E+06  0.4143361E+05
  0.1473810E+01 -0.9881537E+05 -0.2301161E+05 -0.3706480E-02 -0.1953125E-02  0.2664565E+06  0.4561382E+05
  0.1504762E+01 -0.9869245E+05 -0.2542472E+05  0.1642734E-02  0.1564026E-02  0.2658051E+06  0.4998453E+05
  0.1535714E+01 -0.9840049E+05 -0.2794318E+05 -0.3755791E-02 -0.9460449E-03  0.2648172E+06  0.5446630E+05
  0.1566667E+01 -0.9799894E+05 -0.3057170E+05  0.2629706E-02  0.3631592E-02  0.2636575E+06  0.5907842E+05
  0.1597619E+01 -0.9759116E+05 -0.3332028E+05 -0.1852885E-02 -0.4272461E-03  0.2624555E+06  0.6383361E+05
  0.1628572E+01 -0.9700588E+05 -0.3613097E+05 -0.2117492E-02 -0.6790161E-03  0.2609472E+06  0.6860088E+05
  0.1659524E+01 -0.9632495E+05 -0.3900989E+05  0.4799623E-02  0.3684998E-02  0.2592860E+06  0.7338116E+05
  0.1690476E+01 -0.9553937E+05 -0.4192685E+05  0.4856163E-02  0.9078979E-03  0.2574080E+06  0.7812248E+05
  0.1721429E+01 -0.9469282E+05 -0.4487644E+05  0.5318417E-03 -0.1220703E-03  0.2554122E+06  0.8281324E+05
  0.1752381E+01 -0.9372392E+05 -0.4780884E+05 -0.4371146E-02  0.8468628E-03  0.2533295E+06  0.8739284E+05
  0.1783333E+01 -0.9248713E+05 -0.5058135E+05  0.2566899E-03  0.1098633E-02  0.2506806E+06  0.9147673E+05
  0.1814286E+01 -0.9123881E+05 -0.5333425E+05  0.1547506E-02  0.9002686E-03  0.2481359E+06  0.9547304E+05
  0.1845238E+01 -0.8997355E+05 -0.5602819E+05 -0.4812721E-02 -0.4501343E-03  0.2455533E+06  0.9924945E+05
  0.1876190E+01 -0.8855521E+05 -0.5854116E+05 -0.7156914E-03  0.1365662E-02  0.2427721E+06  0.1025917E+06
  0.1907143E+01 -0.8705042E+05 -0.6088250E+05  0.1568169E-02  0.1823425E-02  0.2398912E+06  0.1054883E+06
  0.1938095E+01 -0.8553272E+05 -0.6308561E+05 -0.7715624E-03  0.3814697E-04  0.2370657E+06  0.1080989E+06
  0.1969048E+01 -0.8398178E+05 -0.6508025E+05 -0.1689353E-02 -0.4043579E-03  0.2341474E+06  0.1101825E+06
  0.2000000E+01 -0.8241088E+05 -0.6687984E+05 -0.1800537E-02 -0.1403809E-02  0.2313370E+06  0.1119246E+06
