VARIABLES="w (rad/s)"
"A   1   1" "B   1   1"
"A   1   2" "B   1   2"
"A   1   3" "B   1   3"
Zone t="Motion of body    1 in DoF   1",I=    64,F=POINT
  0.5000000E-01  0.1162806E+06  0.1016960E-01  0.3719330E-02  0.1307714E-04 -0.5332980E+06 -0.4779654E-01
  0.8095238E-01  0.1169887E+06  0.4345832E-01  0.6361568E-02  0.3324183E-04 -0.5352231E+06 -0.2028528E+00
  0.1119048E+00  0.1173027E+06  0.1212142E+00  0.3562278E-02  0.3209728E-04 -0.5358741E+06 -0.5650864E+00
  0.1428571E+00  0.1174635E+06  0.2718753E+00  0.2109528E-02  0.4376960E-04 -0.5362611E+06 -0.1266314E+01
  0.1738095E+00  0.1176584E+06  0.5391484E+00  0.4982099E-02  0.4810514E-04 -0.5367168E+06 -0.2506617E+01
  0.2047619E+00  0.1176559E+06  0.9889083E+00  0.4918298E-02  0.5675433E-04 -0.5368801E+06 -0.4590783E+01
  0.2357143E+00  0.1177800E+06  0.1727970E+01  0.4385746E-02  0.1756870E-03 -0.5372103E+06 -0.8005795E+01
  0.2666667E+00  0.1179870E+06  0.2922348E+01  0.3347397E-02  0.1776852E-03 -0.5377539E+06 -0.1350401E+02
  0.2976190E+00  0.1181023E+06  0.4856000E+01  0.4101562E-02  0.2884772E-03 -0.5382070E+06 -0.2238293E+02
  0.3285715E+00  0.1183048E+06  0.7948606E+01  0.7825105E-02  0.3897063E-03 -0.5387020E+06 -0.3652113E+02
  0.3595238E+00  0.1184819E+06  0.1290288E+02  0.4265387E-02  0.2341159E-03 -0.5393121E+06 -0.5909592E+02
  0.3904762E+00  0.1186679E+06  0.2076404E+02  0.1914792E-02  0.2753735E-04 -0.5400064E+06 -0.9477099E+02
  0.4214286E+00  0.1189799E+06  0.3295768E+02  0.1556914E-02  0.3779083E-03 -0.5408922E+06 -0.1497872E+03
  0.4523810E+00  0.1192129E+06  0.5181413E+02  0.1113088E-02  0.1372695E-03 -0.5416697E+06 -0.2345428E+03
  0.4833333E+00  0.1196521E+06  0.7941150E+02 -0.1688990E-02 -0.4468262E-03 -0.5430941E+06 -0.3577258E+03
  0.5142857E+00  0.1199541E+06  0.1196042E+03  0.2521939E-02  0.6940961E-04 -0.5441706E+06 -0.5362715E+03
  0.5452381E+00  0.1203829E+06  0.1757455E+03  0.3092404E-02  0.5564690E-03 -0.5453414E+06 -0.7836698E+03
  0.5761905E+00  0.1207966E+06  0.2518945E+03  0.2039129E-02  0.8572340E-03 -0.5466932E+06 -0.1116975E+04
  0.6071429E+00  0.1212368E+06  0.3542902E+03  0.4574046E-02  0.1074314E-02 -0.5482372E+06 -0.1562230E+04
  0.6380953E+00  0.1218607E+06  0.4873136E+03  0.8130429E-02  0.1722574E-02 -0.5501554E+06 -0.2134957E+04
  0.6690477E+00  0.1223328E+06  0.6577393E+03  0.3694690E-02  0.9052753E-03 -0.5516406E+06 -0.2862871E+04
  0.7000000E+00  0.1228762E+06  0.8742440E+03  0.6517682E-02  0.2588272E-02 -0.5533670E+06 -0.3779393E+04
  0.7309524E+00  0.1235644E+06  0.1144019E+04 -0.3548786E-03  0.1214266E-02 -0.5553111E+06 -0.4908311E+04
  0.7619048E+00  0.1242131E+06  0.1476020E+04  0.2263069E-02  0.1217365E-02 -0.5573754E+06 -0.6285174E+04
  0.7928572E+00  0.1248285E+06  0.1879987E+04  0.2925288E-02  0.2154350E-02 -0.5593419E+06 -0.7943394E+04
  0.8238096E+00  0.1254771E+06  0.2366328E+04  0.5056568E-02  0.6904602E-03 -0.5611357E+06 -0.9914290E+04
  0.8547620E+00  0.1262794E+06  0.2947300E+04  0.5623225E-02  0.2360344E-02 -0.5632374E+06 -0.1223671E+05
  0.8857143E+00  0.1269217E+06  0.3630516E+04  0.2032864E-02  0.3776550E-03 -0.5649294E+06 -0.1493662E+05
  0.9166667E+00  0.1276021E+06  0.4430043E+04  0.1248446E-02  0.1778603E-02 -0.5667506E+06 -0.1805493E+05
  0.9476191E+00  0.1282635E+06  0.5356190E+04  0.3043323E-02  0.3035545E-02 -0.5683064E+06 -0.2161286E+05
  0.9785714E+00  0.1290771E+06  0.6426006E+04  0.3742302E-02  0.2384186E-02 -0.5701779E+06 -0.2565740E+05
  0.1009524E+01  0.1297572E+06  0.7642398E+04  0.3325265E-02  0.2433777E-02 -0.5717844E+06 -0.3019562E+05
  0.1040476E+01  0.1302700E+06  0.9010354E+04  0.2126454E-02  0.9040833E-03 -0.5725262E+06 -0.3520480E+05
  0.1071429E+01  0.1308485E+06  0.1055126E+05  0.2221680E-02  0.2479553E-03 -0.5734476E+06 -0.4075157E+05
  0.1102381E+01  0.1313483E+06  0.1226696E+05  0.2020883E-02  0.1964569E-02 -0.5738398E+06 -0.4680200E+05
  0.1133333E+01  0.1319238E+06  0.1417644E+05  0.2585018E-02  0.1600266E-02 -0.5743138E+06 -0.5340222E+05
  0.1164286E+01  0.1323270E+06  0.1627223E+05  0.2961890E-02  0.1144409E-03 -0.5744337E+06 -0.6053022E+05
  0.1195238E+01  0.1325100E+06  0.1854317E+05  0.3089449E-02  0.1152039E-02 -0.5735778E+06 -0.6806473E+05
  0.1226190E+01  0.1327320E+06  0.2102479E+05 -0.2239931E-03 -0.4806519E-03 -0.5729679E+06 -0.7614373E+05
  0.1257143E+01  0.1326545E+06  0.2365784E+05  0.3131520E-02  0.2212524E-03 -0.5712253E+06 -0.8448909E+05
  0.1288095E+01  0.1327405E+06  0.2651986E+05  0.5307013E-02  0.3547668E-03 -0.5696520E+06 -0.9330503E+05
  0.1319048E+01  0.1326542E+06  0.2954389E+05  0.3794315E-02  0.2593994E-03 -0.5675957E+06 -0.1023786E+06
  0.1350000E+01  0.1323223E+06  0.3271186E+05  0.9720413E-03 -0.1380920E-02 -0.5648276E+06 -0.1116311E+06
  0.1380952E+01  0.1317507E+06  0.3599718E+05  0.2828664E-02  0.1670837E-02 -0.5611919E+06 -0.1208807E+06
  0.1411905E+01  0.1309436E+06  0.3941041E+05  0.3112484E-02  0.1525879E-02 -0.5574724E+06 -0.1303480E+06
  0.1442857E+01  0.1300948E+06  0.4292476E+05  0.4230159E-04 -0.1602173E-03 -0.5530697E+06 -0.1395874E+06
  0.1473810E+01  0.1291667E+06  0.4654834E+05  0.9732100E-03  0.2708435E-03 -0.5484636E+06 -0.1487680E+06
  0.1504762E+01  0.1281913E+06  0.5026134E+05  0.3691082E-02  0.1716614E-03 -0.5437202E+06 -0.1577834E+06
  0.1535714E+01  0.1269612E+06  0.5398870E+05  0.1430777E-02  0.1144409E-03 -0.5386446E+06 -0.1665801E+06
  0.1566667E+01  0.1254889E+06  0.5762881E+05  0.1207717E-02 -0.1247406E-02 -0.5328334E+06 -0.1745721E+06
  0.1597619E+01  0.1238492E+06  0.6117945E+05  0.5730574E-04 -0.4806519E-03 -0.5266628E+06 -0.1818806E+06
  0.1628572E+01  0.1221662E+06  0.6468770E+05  0.2136230E-02  0.1564026E-03 -0.5206726E+06 -0.1887278E+06
  0.1659524E+01  0.1203057E+06  0.6800219E+05  0.6987956E-03  0.1602173E-03 -0.5142357E+06 -0.1945232E+06
  0.1690476E+01  0.1183708E+06  0.7116544E+05 -0.1913581E-02  0.1182556E-03 -0.5077493E+06 -0.1994809E+06
  0.1721429E+01  0.1164121E+06  0.7417844E+05  0.2836489E-02  0.6370544E-03 -0.5013968E+06 -0.2036741E+06
  0.1752381E+01  0.1144498E+06  0.7705809E+05  0.3030197E-02 -0.2708435E-03 -0.4953773E+06 -0.2072916E+06
  0.1783333E+01  0.1123339E+06  0.7965585E+05  0.2926265E-02  0.3929138E-03 -0.4893465E+06 -0.2101797E+06
  0.1814286E+01  0.1100697E+06  0.8172552E+05  0.7232907E-03  0.7629395E-03 -0.4828949E+06 -0.2107908E+06
  0.1845238E+01  0.1078461E+06  0.8358352E+05  0.3539252E-02  0.3013611E-03 -0.4768999E+06 -0.2109597E+06
  0.1876190E+01  0.1057022E+06  0.8524966E+05  0.1772963E-02  0.1182556E-03 -0.4714865E+06 -0.2106638E+06
  0.1907143E+01  0.1035738E+06  0.8656223E+05  0.3632392E-02 -0.3814697E-04 -0.4662714E+06 -0.2092723E+06
  0.1938095E+01  0.1014452E+06  0.8743046E+05  0.3117742E-02  0.3833771E-03 -0.4611814E+06 -0.2063969E+06
  0.1969048E+01  0.9944788E+05  0.8815215E+05  0.1425876E-02  0.1869202E-03 -0.4566865E+06 -0.2034203E+06
  0.2000000E+01  0.9757791E+05  0.8865768E+05  0.1724243E-02  0.2632141E-03 -0.4526732E+06 -0.1998576E+06
Zone t="Motion of body    1 in DoF   2",I=    64,F=POINT
  0.5000000E-01 -0.3108978E-02 -0.1180172E-04  0.1886175E+05  0.2157821E+02  0.1899719E-01 -0.6198883E-04
  0.8095238E-01 -0.8953318E-03  0.2765656E-04  0.1872250E+05  0.3560160E+02 -0.3204346E-02 -0.6937981E-04
  0.1119048E+00 -0.8522196E-04  0.5960464E-05  0.1865967E+05  0.5060798E+02  0.9408505E-02  0.1506805E-03
  0.1428571E+00  0.1228333E-02  0.2479553E-04  0.1860902E+05  0.6706188E+02  0.1004028E-01 -0.2226830E-03
  0.1738095E+00 -0.6628167E-02 -0.8106232E-05  0.1857489E+05  0.8540585E+02  0.1624120E-01  0.3767014E-03
  0.2047619E+00 -0.3334755E-02 -0.4529953E-04  0.1856486E+05  0.1064763E+03  0.1572365E-01 -0.3027916E-03
  0.2357143E+00 -0.1618356E-03  0.7152557E-04  0.1853991E+05  0.1310866E+03  0.3262606E-01 -0.1382828E-03
  0.2666667E+00 -0.2431869E-02 -0.8964539E-04  0.1853530E+05  0.1596755E+03  0.1373291E-01  0.5216599E-03
  0.2976190E+00  0.2037964E-02 -0.7438660E-04  0.1852036E+05  0.1942974E+03 -0.1394531E-01  0.6151199E-03
  0.3285715E+00 -0.2205890E-02 -0.8392334E-04  0.1851746E+05  0.2348667E+03  0.1801864E-01  0.1077652E-02
  0.3595238E+00  0.1432406E-02 -0.6294250E-04  0.1849040E+05  0.2833316E+03 -0.1120460E-01 -0.6656647E-03
  0.3904762E+00 -0.1709635E-02  0.1811981E-03  0.1848218E+05  0.3404254E+03 -0.2422798E-02 -0.9040833E-03
  0.4214286E+00 -0.2697443E-02  0.2346039E-03  0.1842243E+05  0.4033960E+03  0.2027608E-02 -0.7381439E-03
  0.4523810E+00  0.8263838E-03  0.1907349E-04  0.1839375E+05  0.4767658E+03  0.1578562E-01  0.1136780E-02
  0.4833333E+00 -0.7261079E-03  0.1640320E-03  0.1829494E+05  0.5483476E+03  0.6945380E-02 -0.9384155E-03
  0.5142857E+00 -0.3412035E-02 -0.6103516E-04  0.1820913E+05  0.6248123E+03  0.2516005E-01 -0.3578186E-02
  0.5452381E+00 -0.3862006E-02 -0.8621216E-03  0.1811295E+05  0.6975790E+03  0.1679133E-01  0.2830505E-02
  0.5761905E+00 -0.2833595E-02  0.5111694E-03  0.1798840E+05  0.7638938E+03  0.1165217E-01  0.1438141E-02
  0.6071429E+00 -0.5403406E-03  0.1068115E-03  0.1789226E+05  0.8289451E+03  0.1568244E-01  0.6484985E-04
  0.6380953E+00 -0.6815213E-03 -0.2670288E-03  0.1776305E+05  0.8805250E+03  0.1080869E-01 -0.1514435E-02
  0.6690477E+00  0.1140336E-03 -0.9994507E-03  0.1763989E+05  0.9250898E+03  0.9031465E-02  0.2899170E-03
  0.7000000E+00 -0.2147130E-02 -0.0000000E+00  0.1754656E+05  0.9642325E+03  0.2563476E-01 -0.6072998E-02
  0.7309524E+00 -0.4801299E-03  0.7629395E-04  0.1742960E+05  0.9895184E+03  0.1302613E-01 -0.2738953E-02
  0.7619048E+00 -0.1952648E-02  0.6484985E-03  0.1731349E+05  0.1005662E+04  0.1249695E-01 -0.3753662E-02
  0.7928572E+00  0.8852846E-03 -0.1495361E-02  0.1722603E+05  0.1014862E+04  0.6774352E-02  0.3822327E-02
  0.8238096E+00 -0.1157639E-02 -0.1220703E-02  0.1716602E+05  0.1016889E+04  0.1296556E-01  0.2059937E-03
  0.8547620E+00 -0.1204977E-02  0.2441406E-03  0.1705585E+05  0.1000944E+04 -0.1428121E-03  0.3486633E-02
  0.8857143E+00 -0.1541876E-02  0.1251221E-02  0.1697486E+05  0.9806761E+03  0.1660747E-01 -0.1998901E-02
  0.9166667E+00  0.4036643E-03  0.1373291E-03  0.1692862E+05  0.9572663E+03  0.3728693E-02  0.2639771E-02
  0.9476191E+00 -0.2193930E-02 -0.6713867E-03  0.1691219E+05  0.9339095E+03  0.2086850E-01  0.2635956E-02
  0.9785714E+00 -0.1830219E-02  0.1419067E-02  0.1683530E+05  0.8821095E+03  0.1397126E-01 -0.7629395E-03
  0.1009524E+01 -0.3052253E-02  0.5950928E-03  0.1678764E+05  0.8329110E+03  0.1692862E-01 -0.2723694E-02
  0.1040476E+01  0.1005368E-03 -0.1983643E-03  0.1676241E+05  0.7858969E+03  0.6218044E-02  0.5802155E-02
  0.1071429E+01 -0.1294200E-02 -0.3662109E-03  0.1676264E+05  0.7461069E+03  0.1788737E-01 -0.4405975E-02
  0.1102381E+01 -0.8460718E-03 -0.8697510E-03  0.1676559E+05  0.7008998E+03  0.8969399E-02  0.7858276E-03
  0.1133333E+01 -0.1714931E-02  0.2151489E-02  0.1673780E+05  0.6284324E+03  0.1777200E-01 -0.4180908E-02
  0.1164286E+01 -0.1690636E-02  0.7476807E-03  0.1672881E+05  0.5663552E+03  0.8073116E-02  0.2166748E-02
  0.1195238E+01 -0.1538341E-02  0.1129150E-02  0.1673372E+05  0.5132341E+03  0.1664728E-01 -0.2609253E-02
  0.1226190E+01 -0.6222030E-03 -0.4882812E-03  0.1675387E+05  0.4745554E+03  0.6769569E-02  0.1491547E-02
  0.1257143E+01 -0.7828799E-03  0.2441406E-03  0.1678977E+05  0.4562258E+03  0.6894198E-02  0.3225327E-02
  0.1288095E+01 -0.1211255E-02 -0.7019043E-03  0.1679313E+05  0.3839007E+03  0.9476808E-02 -0.1953125E-02
  0.1319048E+01 -0.8213305E-03 -0.4730225E-03  0.1680160E+05  0.3193542E+03  0.8976795E-02  0.3604889E-02
  0.1350000E+01 -0.1028555E-02 -0.3356934E-03  0.1681785E+05  0.2699525E+03  0.3888165E-02  0.8792877E-03
  0.1380952E+01 -0.1044175E-02  0.1296997E-03  0.1683925E+05  0.2327624E+03  0.9546741E-02 -0.1755714E-02
  0.1411905E+01 -0.2377592E-03  0.4577637E-04  0.1686393E+05  0.2126571E+03  0.5706221E-02 -0.2927780E-03
  0.1442857E+01 -0.1951161E-02 -0.3204346E-03  0.1689495E+05  0.2141074E+03  0.1302889E-01  0.1323700E-02
  0.1473810E+01 -0.1294162E-02  0.8087158E-03  0.1691818E+05  0.1818862E+03  0.1118156E-01 -0.2061844E-02
  0.1504762E+01 -0.3108012E-02  0.4196167E-03  0.1693790E+05  0.1309877E+03  0.1784699E-01  0.1618385E-02
  0.1535714E+01 -0.4173101E-03  0.1083374E-02  0.1695700E+05  0.9286890E+02  0.7233375E-02 -0.3637314E-02
  0.1566667E+01 -0.1037273E-02  0.5340576E-04  0.1697669E+05  0.6667857E+02  0.5376288E-02 -0.9784698E-03
  0.1597619E+01  0.3342835E-04  0.2059937E-03  0.1699598E+05  0.5316215E+02  0.2750675E-02 -0.5817413E-03
  0.1628572E+01  0.4122550E-03  0.4577637E-04  0.1701374E+05  0.5172302E+02  0.4722193E-02  0.7812977E-03
  0.1659524E+01 -0.8964812E-03 -0.7781982E-03  0.1703026E+05  0.6608707E+02  0.1088650E-01  0.1063347E-03
  0.1690476E+01  0.4513163E-03 -0.2059937E-03  0.1704584E+05  0.7615369E+02  0.5776848E-03 -0.1130581E-02
  0.1721429E+01 -0.6249139E-03  0.2784729E-03  0.1706652E+05  0.3827153E+02  0.2907401E-02 -0.1096725E-03
  0.1752381E+01 -0.1741492E-02 -0.6866455E-04  0.1708398E+05  0.1622017E+02  0.1414092E-01  0.6139278E-03
  0.1783333E+01 -0.1929453E-02 -0.1831055E-03  0.1709841E+05  0.3618757E+01  0.1546985E-01  0.2566129E-03
  0.1814286E+01 -0.1177450E-02  0.1258850E-03  0.1711136E+05 -0.5384444E+01  0.7804811E-02 -0.9405613E-04
  0.1845238E+01 -0.7111580E-03  0.7247925E-04  0.1712188E+05 -0.5481634E+01  0.8401588E-02  0.3060699E-04
  0.1876190E+01  0.1626571E-03 -0.1792908E-03  0.1712996E+05 -0.1741930E+01 -0.8262984E-02  0.2610683E-04
  0.1907143E+01 -0.2208238E-02 -0.9536743E-04  0.1713568E+05  0.1023446E+02  0.1408152E-01 -0.7915497E-04
  0.1938095E+01 -0.7085777E-03  0.9346008E-04  0.1713821E+05  0.2636770E+02  0.5164744E-02 -0.2288818E-04
  0.1969048E+01 -0.8717991E-03 -0.3242493E-04  0.1715299E+05  0.1165397E+02  0.1525067E-01  0.1206398E-03
  0.2000000E+01 -0.3089905E-03 -0.9918213E-04  0.1716465E+05  0.5802290E+01  0.1306152E-01 -0.5310774E-04
Zone t="Motion of body    1 in DoF   3",I=    64,F=POINT
  0.5000000E-01 -0.5330408E+06 -0.4757303E-01 -0.3013611E-01 -0.1231905E-03  0.3068755E+07  0.2233660E+00
  0.8095238E-01 -0.5350650E+06 -0.2025736E+00 -0.1460805E-01 -0.1523579E-03  0.3073480E+07  0.9447074E+00
  0.1119048E+00 -0.5357792E+06 -0.5645481E+00 -0.2836187E-01 -0.2720114E-03  0.3075081E+07  0.2632018E+01
  0.1428571E+00 -0.5361849E+06 -0.1265754E+01 -0.4389953E-01 -0.5422579E-03  0.3076169E+07  0.5897935E+01
  0.1738095E+00 -0.5366668E+06 -0.2505240E+01 -0.2651267E-01 -0.4399801E-03  0.3077475E+07  0.1164783E+02
  0.2047619E+00 -0.5367972E+06 -0.4587437E+01 -0.6557730E-02 -0.1690295E-03  0.3078234E+07  0.2129532E+02
  0.2357143E+00 -0.5371358E+06 -0.8000014E+01 -0.3366181E-01 -0.6702915E-03  0.3079360E+07  0.3706180E+02
  0.2666667E+00 -0.5376906E+06 -0.1349676E+02  0.1659393E-01  0.3926456E-04  0.3080997E+07  0.6236010E+02
  0.2976190E+00 -0.5381344E+06 -0.2236670E+02  0.6357422E-02  0.6526709E-05  0.3082706E+07  0.1030859E+03
  0.3285715E+00 -0.5386392E+06 -0.3650073E+02 -0.5015497E-02 -0.5876571E-03  0.3084281E+07  0.1677039E+03
  0.3595238E+00 -0.5392464E+06 -0.5905637E+02 -0.6705783E-02 -0.7496774E-03  0.3086490E+07  0.2704772E+03
  0.3904762E+00 -0.5399262E+06 -0.9469209E+02 -0.2188333E-01 -0.4220903E-03  0.3088963E+07  0.4321911E+03
  0.4214286E+00 -0.5408222E+06 -0.1496762E+03  0.3837973E-02 -0.1425743E-03  0.3091771E+07  0.6802271E+03
  0.4523810E+00 -0.5415872E+06 -0.2343451E+03 -0.6341231E-02 -0.4171729E-03  0.3094736E+07  0.1060900E+04
  0.4833333E+00 -0.5430213E+06 -0.3574618E+03 -0.9470972E-02 -0.1370549E-02  0.3099362E+07  0.1610227E+04
  0.5142857E+00 -0.5440772E+06 -0.5357652E+03 -0.3845215E-01 -0.3498316E-02  0.3103207E+07  0.2402154E+04
  0.5452381E+00 -0.5452642E+06 -0.7830964E+03 -0.1119422E-01 -0.2753019E-02  0.3107134E+07  0.3491865E+04
  0.5761905E+00 -0.5466159E+06 -0.1116081E+04 -0.2298654E-01 -0.2665043E-02  0.3111786E+07  0.4948896E+04
  0.6071429E+00 -0.5481343E+06 -0.1560675E+04 -0.2704216E-01 -0.4733086E-02  0.3117230E+07  0.6882160E+04
  0.6380953E+00 -0.5500617E+06 -0.2133220E+04 -0.1281738E-01 -0.3157616E-02  0.3123168E+07  0.9345642E+04
  0.6690477E+00 -0.5515445E+06 -0.2860185E+04  0.9122692E-04  0.1295090E-02  0.3128297E+07  0.1244893E+05
  0.7000000E+00 -0.5532516E+06 -0.3775377E+04 -0.2650669E-01 -0.9620667E-02  0.3134045E+07  0.1632127E+05
  0.7309524E+00 -0.5552132E+06 -0.4904255E+04  0.5010052E-02 -0.2031326E-02  0.3139918E+07  0.2104085E+05
  0.7619048E+00 -0.5572698E+06 -0.6279063E+04 -0.2491379E-01 -0.1179695E-01  0.3146326E+07  0.2673679E+05
  0.7928572E+00 -0.5592078E+06 -0.7933740E+04  0.4156989E-02 -0.3036499E-02  0.3152416E+07  0.3352085E+05
  0.8238096E+00 -0.5609962E+06 -0.9902078E+04 -0.2807970E-01 -0.7802963E-02  0.3157574E+07  0.4148516E+05
  0.8547620E+00 -0.5631099E+06 -0.1222427E+05 -0.2899085E-01 -0.1216507E-01  0.3162942E+07  0.5075073E+05
  0.8857143E+00 -0.5647979E+06 -0.1491971E+05 -0.3500662E-01 -0.9113312E-02  0.3167403E+07  0.6137935E+05
  0.9166667E+00 -0.5665948E+06 -0.1803098E+05 -0.2183949E-01 -0.5641937E-02  0.3172006E+07  0.7348109E+05
  0.9476191E+00 -0.5681405E+06 -0.2158310E+05 -0.6440896E-02 -0.1146698E-01  0.3175261E+07  0.8708125E+05
  0.9785714E+00 -0.5700202E+06 -0.2562686E+05 -0.4665403E-01 -0.1653290E-01  0.3178710E+07  0.1023107E+06
  0.1009524E+01 -0.5716147E+06 -0.3015306E+05 -0.4014501E-01 -0.9834290E-02  0.3181553E+07  0.1191228E+06
  0.1040476E+01 -0.5723452E+06 -0.3515146E+05 -0.1841949E-01 -0.7972717E-02  0.3181294E+07  0.1373248E+06
  0.1071429E+01 -0.5732329E+06 -0.4068179E+05 -0.2301432E-01 -0.4913330E-02  0.3181050E+07  0.1570946E+06
  0.1102381E+01 -0.5736366E+06 -0.4672525E+05  0.2325400E-02 -0.6889343E-02  0.3178775E+07  0.1782218E+06
  0.1133333E+01 -0.5741114E+06 -0.5332207E+05 -0.1777200E-01 -0.3204346E-02  0.3175900E+07  0.2008054E+06
  0.1164286E+01 -0.5742230E+06 -0.6042663E+05 -0.1331540E-01 -0.4043579E-02  0.3172446E+07  0.2247100E+06
  0.1195238E+01 -0.5733598E+06 -0.6794270E+05 -0.1409401E-01 -0.3341675E-02  0.3165478E+07  0.2493156E+06
  0.1226190E+01 -0.5727125E+06 -0.7598216E+05  0.1343959E-01  0.1647949E-02  0.3158952E+07  0.2750494E+06
  0.1257143E+01 -0.5709589E+06 -0.8429622E+05 -0.2883911E-01 -0.1458740E-01  0.3148883E+07  0.3008692E+06
  0.1288095E+01 -0.5694015E+06 -0.9310758E+05 -0.3932875E-01 -0.3570557E-02  0.3138900E+07  0.3273766E+06
  0.1319048E+01 -0.5673333E+06 -0.1021515E+06 -0.3516683E-01 -0.7553101E-02  0.3126996E+07  0.3536970E+06
  0.1350000E+01 -0.5645695E+06 -0.1113685E+06 -0.1935040E-01  0.1342773E-02  0.3113748E+07  0.3797332E+06
  0.1380952E+01 -0.5609367E+06 -0.1205909E+06 -0.1396653E-01 -0.5050659E-02  0.3097913E+07  0.4046201E+06
  0.1411905E+01 -0.5570668E+06 -0.1298341E+06 -0.4383415E-01 -0.4470825E-02  0.3082097E+07  0.4289165E+06
  0.1442857E+01 -0.5526589E+06 -0.1390124E+06 -0.9221748E-02 -0.1663208E-02  0.3064286E+07  0.4514400E+06
  0.1473810E+01 -0.5480764E+06 -0.1481584E+06 -0.2153486E-02  0.2548218E-02  0.3046278E+07  0.4727268E+06
  0.1504762E+01 -0.5433307E+06 -0.1571241E+06 -0.1849597E-01 -0.2456665E-02  0.3027681E+07  0.4923584E+06
  0.1535714E+01 -0.5382786E+06 -0.1658410E+06  0.4530795E-02  0.2136230E-03  0.3009372E+07  0.5105984E+06
  0.1566667E+01 -0.5324962E+06 -0.1737719E+06 -0.8181307E-02  0.1312256E-02  0.2989307E+07  0.5251369E+06
  0.1597619E+01 -0.5263579E+06 -0.1810402E+06 -0.2101210E-01  0.6256104E-03  0.2969181E+07  0.5369716E+06
  0.1628572E+01 -0.5203730E+06 -0.1877645E+06 -0.1574064E-02 -0.4577637E-04  0.2949985E+07  0.5460997E+06
  0.1659524E+01 -0.5139503E+06 -0.1934751E+06  0.6473054E-02 -0.1068115E-02  0.2930256E+07  0.5515388E+06
  0.1690476E+01 -0.5075045E+06 -0.1984109E+06  0.2382950E-01  0.4730225E-03  0.2911180E+07  0.5538019E+06
  0.1721429E+01 -0.5011716E+06 -0.2025445E+06 -0.4751118E-02 -0.2418518E-02  0.2892949E+07  0.5536718E+06
  0.1752381E+01 -0.4951754E+06 -0.2060549E+06  0.6965969E-03  0.2517700E-03  0.2875981E+07  0.5510264E+06
  0.1783333E+01 -0.4892064E+06 -0.2089187E+06 -0.9240837E-02 -0.1197815E-02  0.2860804E+07  0.5480524E+06
  0.1814286E+01 -0.4827942E+06 -0.2094880E+06  0.1211091E-02 -0.4043579E-03  0.2844381E+07  0.5364553E+06
  0.1845238E+01 -0.4768427E+06 -0.2096622E+06 -0.2090474E-01 -0.8087158E-03  0.2830422E+07  0.5254362E+06
  0.1876190E+01 -0.4714711E+06 -0.2092760E+06  0.6441223E-02 -0.6866455E-04  0.2818541E+07  0.5126484E+06
  0.1907143E+01 -0.4662914E+06 -0.2078004E+06 -0.1676981E-01 -0.1907349E-03  0.2807591E+07  0.4975904E+06
  0.1938095E+01 -0.4612382E+06 -0.2049478E+06 -0.1776168E-01 -0.1117706E-02  0.2797516E+07  0.4782476E+06
  0.1969048E+01 -0.4567785E+06 -0.2019737E+06 -0.2169811E-01 -0.3776550E-03  0.2789431E+07  0.4603419E+06
  0.2000000E+01 -0.4528013E+06 -0.1983152E+06 -0.4760742E-02 -0.8735657E-03  0.2782398E+07  0.4406178E+06
