VARIABLES="w (rad/s)"
"abs(F   1   1)" "angle(F   1   1)"
"abs(F   1   2)" "angle(F   1   2)"
"abs(F   1   3)" "angle(F   1   3)"
Zone t="Diffraction force - beta =   0.000 deg",I=    64,F=POINT
  0.5000000E-01  0.2922233E+04 -0.1570793E+01  0.1862959E+03 -0.3104282E+01  0.9535187E+04  0.1570800E+01
  0.8095238E-01  0.4783299E+04 -0.1570788E+01  0.4823401E+03 -0.3103046E+01  0.1558723E+05  0.1570805E+01
  0.1119048E+00  0.6681000E+04 -0.1570779E+01  0.9159158E+03 -0.3101628E+01  0.2173967E+05  0.1570814E+01
  0.1428571E+00  0.8644042E+04 -0.1570765E+01  0.1484488E+04 -0.3099772E+01  0.2809714E+05  0.1570827E+01
  0.1738095E+00  0.1068692E+05 -0.1570746E+01  0.2188112E+04 -0.3097473E+01  0.3470274E+05  0.1570847E+01
  0.2047619E+00  0.1282405E+05 -0.1570717E+01  0.3029955E+04 -0.3094617E+01  0.4161595E+05  0.1570876E+01
  0.2357143E+00  0.1510653E+05 -0.1570676E+01  0.3995016E+04 -0.3090856E+01  0.4894460E+05  0.1570917E+01
  0.2666667E+00  0.1754446E+05 -0.1570616E+01  0.5098298E+04 -0.3086484E+01  0.5678189E+05  0.1570977E+01
  0.2976190E+00  0.2019665E+05 -0.1570528E+01  0.6317820E+04 -0.3080807E+01  0.6525398E+05  0.1571066E+01
  0.3285715E+00  0.2308592E+05 -0.1570397E+01  0.7668440E+04 -0.3074243E+01  0.7442969E+05  0.1571196E+01
  0.3595238E+00  0.2627172E+05 -0.1570203E+01  0.9108588E+04 -0.3066055E+01  0.8454857E+05  0.1571391E+01
  0.3904762E+00  0.2974895E+05 -0.1569914E+01  0.1067612E+05 -0.3056720E+01  0.9560420E+05  0.1571680E+01
  0.4214286E+00  0.3367535E+05 -0.1569496E+01  0.1226824E+05 -0.3046011E+01  0.1078823E+06  0.1572099E+01
  0.4523810E+00  0.3793717E+05 -0.1568886E+01  0.1396711E+05 -0.3033844E+01  0.1212244E+06  0.1572710E+01
  0.4833333E+00  0.4260643E+05 -0.1568050E+01  0.1563892E+05 -0.3021571E+01  0.1357997E+06  0.1573548E+01
  0.5142857E+00  0.4765264E+05 -0.1566897E+01  0.1734038E+05 -0.3008313E+01  0.1514868E+06  0.1574702E+01
  0.5452381E+00  0.5310435E+05 -0.1565379E+01  0.1905019E+05 -0.2995471E+01  0.1682007E+06  0.1576223E+01
  0.5761905E+00  0.5894312E+05 -0.1563431E+01  0.2068182E+05 -0.2982667E+01  0.1860451E+06  0.1578174E+01
  0.6071429E+00  0.6499727E+05 -0.1560933E+01  0.2233171E+05 -0.2969876E+01  0.2045678E+06  0.1580673E+01
  0.6380953E+00  0.7137730E+05 -0.1557860E+01  0.2389900E+05 -0.2958010E+01  0.2238718E+06  0.1583746E+01
  0.6690477E+00  0.7816054E+05 -0.1554107E+01  0.2538032E+05 -0.2946067E+01  0.2440815E+06  0.1587505E+01
  0.7000000E+00  0.8508002E+05 -0.1549532E+01  0.2684758E+05 -0.2934551E+01  0.2645088E+06  0.1592086E+01
  0.7309524E+00  0.9225684E+05 -0.1544086E+01  0.2820514E+05 -0.2923555E+01  0.2854989E+06  0.1597539E+01
  0.7619048E+00  0.9977206E+05 -0.1537663E+01  0.2942892E+05 -0.2912390E+01  0.3074521E+06  0.1603960E+01
  0.7928572E+00  0.1073331E+06 -0.1530112E+01  0.3060119E+05 -0.2901787E+01  0.3293654E+06  0.1611500E+01
  0.8238096E+00  0.1152204E+06 -0.1521393E+01  0.3175013E+05 -0.2892047E+01  0.3517605E+06  0.1620216E+01
  0.8547620E+00  0.1232893E+06 -0.1511386E+01  0.3262011E+05 -0.2881535E+01  0.3741077E+06  0.1630242E+01
  0.8857143E+00  0.1316024E+06 -0.1500003E+01  0.3340737E+05 -0.2871380E+01  0.3970423E+06  0.1641631E+01
  0.9166667E+00  0.1397917E+06 -0.1487062E+01  0.3414590E+05 -0.2862037E+01  0.4192166E+06  0.1654577E+01
  0.9476191E+00  0.1481611E+06 -0.1472562E+01  0.3482851E+05 -0.2853252E+01  0.4418818E+06  0.1669044E+01
  0.9785714E+00  0.1564479E+06 -0.1456375E+01  0.3522024E+05 -0.2843937E+01  0.4638342E+06  0.1685197E+01
  0.1009524E+01  0.1649553E+06 -0.1438634E+01  0.3549991E+05 -0.2834767E+01  0.4858781E+06  0.1702907E+01
  0.1040476E+01  0.1731730E+06 -0.1419119E+01  0.3569807E+05 -0.2825973E+01  0.5064657E+06  0.1722408E+01
  0.1071429E+01  0.1812257E+06 -0.1397827E+01  0.3582912E+05 -0.2817633E+01  0.5260748E+06  0.1743695E+01
  0.1102381E+01  0.1890520E+06 -0.1374761E+01  0.3587909E+05 -0.2809794E+01  0.5445642E+06  0.1766748E+01
  0.1133333E+01  0.1965328E+06 -0.1349897E+01  0.3564153E+05 -0.2801750E+01  0.5614905E+06  0.1791622E+01
  0.1164286E+01  0.2037852E+06 -0.1323351E+01  0.3532486E+05 -0.2793869E+01  0.5775972E+06  0.1818122E+01
  0.1195238E+01  0.2102436E+06 -0.1294931E+01  0.3493282E+05 -0.2786106E+01  0.5912368E+06  0.1846447E+01
  0.1226190E+01  0.2159147E+06 -0.1264801E+01  0.3449041E+05 -0.2778698E+01  0.6022411E+06  0.1876448E+01
  0.1257143E+01  0.2209675E+06 -0.1233249E+01  0.3398873E+05 -0.2771132E+01  0.6115837E+06  0.1907737E+01
  0.1288095E+01  0.2252829E+06 -0.1200770E+01  0.3331207E+05 -0.2764684E+01  0.6173544E+06  0.1940179E+01
  0.1319048E+01  0.2288230E+06 -0.1167169E+01  0.3251344E+05 -0.2758163E+01  0.6209579E+06  0.1973702E+01
  0.1350000E+01  0.2315085E+06 -0.1132602E+01  0.3164832E+05 -0.2751715E+01  0.6222306E+06  0.2008107E+01
  0.1380952E+01  0.2329505E+06 -0.1097066E+01  0.3074773E+05 -0.2745485E+01  0.6198937E+06  0.2043472E+01
  0.1411905E+01  0.2328065E+06 -0.1060238E+01  0.2982399E+05 -0.2739092E+01  0.6136419E+06  0.2079850E+01
  0.1442857E+01  0.2321426E+06 -0.1023632E+01  0.2886127E+05 -0.2732839E+01  0.6058086E+06  0.2116095E+01
  0.1473810E+01  0.2302864E+06 -0.9872137E+00  0.2785850E+05 -0.2727256E+01  0.5941871E+06  0.2152250E+01
  0.1504762E+01  0.2274870E+06 -0.9510542E+00  0.2675042E+05 -0.2722892E+01  0.5800958E+06  0.2188203E+01
  0.1535714E+01  0.2238925E+06 -0.9153948E+00  0.2561642E+05 -0.2718409E+01  0.5642635E+06  0.2223549E+01
  0.1566667E+01  0.2192350E+06 -0.8799039E+00  0.2445764E+05 -0.2714036E+01  0.5462389E+06  0.2258630E+01
  0.1597619E+01  0.2135234E+06 -0.8449993E+00  0.2331843E+05 -0.2709735E+01  0.5255089E+06  0.2293124E+01
  0.1628572E+01  0.2069458E+06 -0.8110925E+00  0.2220471E+05 -0.2705563E+01  0.5026929E+06  0.2326664E+01
  0.1659524E+01  0.1998752E+06 -0.7781262E+00  0.2106971E+05 -0.2701602E+01  0.4795268E+06  0.2359137E+01
  0.1690476E+01  0.1921349E+06 -0.7463319E+00  0.1997799E+05 -0.2697559E+01  0.4549013E+06  0.2390378E+01
  0.1721429E+01  0.1837741E+06 -0.7156634E+00  0.1885509E+05 -0.2695690E+01  0.4289414E+06  0.2420552E+01
  0.1752381E+01  0.1751237E+06 -0.6861769E+00  0.1774940E+05 -0.2693763E+01  0.4031142E+06  0.2449453E+01
  0.1783333E+01  0.1662733E+06 -0.6581327E+00  0.1665250E+05 -0.2692120E+01  0.3775819E+06  0.2476705E+01
  0.1814286E+01  0.1569609E+06 -0.6309123E+00  0.1557827E+05 -0.2690995E+01  0.3515383E+06  0.2503172E+01
  0.1845238E+01  0.1473816E+06 -0.6050724E+00  0.1456325E+05 -0.2689729E+01  0.3251785E+06  0.2528154E+01
  0.1876190E+01  0.1376000E+06 -0.5804007E+00  0.1360352E+05 -0.2688314E+01  0.2988649E+06  0.2551920E+01
  0.1907143E+01  0.1278872E+06 -0.5567120E+00  0.1265055E+05 -0.2687979E+01  0.2737152E+06  0.2574714E+01
  0.1938095E+01  0.1182435E+06 -0.5342969E+00  0.1174016E+05 -0.2687652E+01  0.2494492E+06  0.2596053E+01
  0.1969048E+01  0.1084478E+06 -0.5132301E+00  0.1089422E+05 -0.2687908E+01  0.2249115E+06  0.2615788E+01
  0.2000000E+01  0.9882323E+05 -0.4932081E+00  0.1008623E+05 -0.2688858E+01  0.2015550E+06  0.2634544E+01
