VARIABLES="w (rad/s)"
"abs(F   1   1)" "angle(F   1   1)"
"abs(F   1   2)" "angle(F   1   2)"
"abs(F   1   3)" "angle(F   1   3)"
Zone t="Diffraction force - beta =   0.000 deg",I=    64,F=POINT
  0.5000000E-01  0.8978931E+03 -0.1570795E+01  0.1371243E+03 -0.3087789E+01  0.8786525E+03  0.1570797E+01
  0.8095238E-01  0.1470389E+04 -0.1570793E+01  0.3554863E+03 -0.3085841E+01  0.1443533E+04  0.1570799E+01
  0.1119048E+00  0.2052453E+04 -0.1570790E+01  0.6750179E+03 -0.3083411E+01  0.2012619E+04  0.1570801E+01
  0.1428571E+00  0.2651469E+04 -0.1570786E+01  0.1097938E+04 -0.3080434E+01  0.2598044E+04  0.1570805E+01
  0.1738095E+00  0.3280226E+04 -0.1570779E+01  0.1624412E+04 -0.3076602E+01  0.3202382E+04  0.1570810E+01
  0.2047619E+00  0.3936060E+04 -0.1570769E+01  0.2261210E+04 -0.3071908E+01  0.3836255E+04  0.1570818E+01
  0.2357143E+00  0.4633096E+04 -0.1570755E+01  0.3007624E+04 -0.3065904E+01  0.4503880E+04  0.1570830E+01
  0.2666667E+00  0.5387694E+04 -0.1570734E+01  0.3870450E+04 -0.3058626E+01  0.5211541E+04  0.1570846E+01
  0.2976190E+00  0.6189248E+04 -0.1570703E+01  0.4855741E+04 -0.3049521E+01  0.5975998E+04  0.1570871E+01
  0.3285715E+00  0.7069095E+04 -0.1570657E+01  0.5964322E+04 -0.3038568E+01  0.6800366E+04  0.1570907E+01
  0.3595238E+00  0.8044410E+04 -0.1570588E+01  0.7194301E+04 -0.3025183E+01  0.7696941E+04  0.1570962E+01
  0.3904762E+00  0.9110807E+04 -0.1570484E+01  0.8564977E+04 -0.3009490E+01  0.8671285E+04  0.1571044E+01
  0.4214286E+00  0.1027494E+05 -0.1570332E+01  0.1004577E+05 -0.2991777E+01  0.9738943E+04  0.1571163E+01
  0.4523810E+00  0.1157930E+05 -0.1570110E+01  0.1164712E+05 -0.2971213E+01  0.1088713E+05  0.1571338E+01
  0.4833333E+00  0.1299441E+05 -0.1569802E+01  0.1334076E+05 -0.2950187E+01  0.1214235E+05  0.1571579E+01
  0.5142857E+00  0.1449562E+05 -0.1569373E+01  0.1514139E+05 -0.2927537E+01  0.1348787E+05  0.1571913E+01
  0.5452381E+00  0.1611728E+05 -0.1568802E+01  0.1703316E+05 -0.2904861E+01  0.1488749E+05  0.1572358E+01
  0.5761905E+00  0.1784062E+05 -0.1568060E+01  0.1898571E+05 -0.2882164E+01  0.1634755E+05  0.1572934E+01
  0.6071429E+00  0.1966087E+05 -0.1567103E+01  0.2100975E+05 -0.2858835E+01  0.1785675E+05  0.1573675E+01
  0.6380953E+00  0.2152911E+05 -0.1565905E+01  0.2312744E+05 -0.2836917E+01  0.1943657E+05  0.1574593E+01
  0.6690477E+00  0.2343922E+05 -0.1564414E+01  0.2530514E+05 -0.2815062E+01  0.2101256E+05  0.1575730E+01
  0.7000000E+00  0.2544831E+05 -0.1562588E+01  0.2752698E+05 -0.2792862E+01  0.2258018E+05  0.1577124E+01
  0.7309524E+00  0.2754171E+05 -0.1560394E+01  0.2979775E+05 -0.2771211E+01  0.2418698E+05  0.1578791E+01
  0.7619048E+00  0.2965946E+05 -0.1557759E+01  0.3210899E+05 -0.2749788E+01  0.2579008E+05  0.1580780E+01
  0.7928572E+00  0.3180347E+05 -0.1554626E+01  0.3446610E+05 -0.2728747E+01  0.2741090E+05  0.1583119E+01
  0.8238096E+00  0.3397546E+05 -0.1550944E+01  0.3686400E+05 -0.2708173E+01  0.2899554E+05  0.1585852E+01
  0.8547620E+00  0.3617812E+05 -0.1546662E+01  0.3928152E+05 -0.2687883E+01  0.3056172E+05  0.1589007E+01
  0.8857143E+00  0.3842066E+05 -0.1541731E+01  0.4170143E+05 -0.2667758E+01  0.3206816E+05  0.1592628E+01
  0.9166667E+00  0.4070202E+05 -0.1536101E+01  0.4411918E+05 -0.2647882E+01  0.3354648E+05  0.1596737E+01
  0.9476191E+00  0.4300014E+05 -0.1529714E+01  0.4653389E+05 -0.2628427E+01  0.3497712E+05  0.1601360E+01
  0.9785714E+00  0.4527161E+05 -0.1522496E+01  0.4894830E+05 -0.2609585E+01  0.3640318E+05  0.1606500E+01
  0.1009524E+01  0.4745806E+05 -0.1514357E+01  0.5135081E+05 -0.2591209E+01  0.3772562E+05  0.1612206E+01
  0.1040476E+01  0.4963538E+05 -0.1505331E+01  0.5374551E+05 -0.2573518E+01  0.3899988E+05  0.1618453E+01
  0.1071429E+01  0.5175348E+05 -0.1495365E+01  0.5610768E+05 -0.2556108E+01  0.4011043E+05  0.1625301E+01
  0.1102381E+01  0.5386457E+05 -0.1484515E+01  0.5843396E+05 -0.2539123E+01  0.4113110E+05  0.1632689E+01
  0.1133333E+01  0.5589349E+05 -0.1472687E+01  0.6070921E+05 -0.2522370E+01  0.4210169E+05  0.1640583E+01
  0.1164286E+01  0.5779441E+05 -0.1459844E+01  0.6293170E+05 -0.2505908E+01  0.4290508E+05  0.1649006E+01
  0.1195238E+01  0.5960455E+05 -0.1446055E+01  0.6511128E+05 -0.2490180E+01  0.4365058E+05  0.1657815E+01
  0.1226190E+01  0.6123648E+05 -0.1431239E+01  0.6724270E+05 -0.2475117E+01  0.4422139E+05  0.1667021E+01
  0.1257143E+01  0.6266939E+05 -0.1415328E+01  0.6935230E+05 -0.2460532E+01  0.4467328E+05  0.1676534E+01
  0.1288095E+01  0.6395749E+05 -0.1398754E+01  0.7134759E+05 -0.2447064E+01  0.4500153E+05  0.1686074E+01
  0.1319048E+01  0.6498337E+05 -0.1381172E+01  0.7330673E+05 -0.2433753E+01  0.4514806E+05  0.1695789E+01
  0.1350000E+01  0.6576782E+05 -0.1362815E+01  0.7519138E+05 -0.2420738E+01  0.4511107E+05  0.1705488E+01
  0.1380952E+01  0.6635881E+05 -0.1343928E+01  0.7700402E+05 -0.2408446E+01  0.4497059E+05  0.1714944E+01
  0.1411905E+01  0.6603393E+05 -0.1325904E+01  0.7822173E+05 -0.2394660E+01  0.4465227E+05  0.1722230E+01
  0.1442857E+01  0.6607514E+05 -0.1306066E+01  0.7985898E+05 -0.2382993E+01  0.4419368E+05  0.1730686E+01
  0.1473810E+01  0.6583045E+05 -0.1285934E+01  0.8140771E+05 -0.2371794E+01  0.4361722E+05  0.1738324E+01
  0.1504762E+01  0.6526784E+05 -0.1265516E+01  0.8287305E+05 -0.2361090E+01  0.4293778E+05  0.1745074E+01
  0.1535714E+01  0.6437072E+05 -0.1245008E+01  0.8424521E+05 -0.2350796E+01  0.4206916E+05  0.1750704E+01
  0.1566667E+01  0.6317646E+05 -0.1224668E+01  0.8553385E+05 -0.2341035E+01  0.4111234E+05  0.1755043E+01
  0.1597619E+01  0.6169110E+05 -0.1204717E+01  0.8672931E+05 -0.2331789E+01  0.4009072E+05  0.1757820E+01
  0.1628572E+01  0.5986422E+05 -0.1185117E+01  0.8782238E+05 -0.2322881E+01  0.3893285E+05  0.1758854E+01
  0.1659524E+01  0.5775155E+05 -0.1166278E+01  0.8881954E+05 -0.2314644E+01  0.3773282E+05  0.1757995E+01
  0.1690476E+01  0.5534209E+05 -0.1148363E+01  0.8971383E+05 -0.2306700E+01  0.3649262E+05  0.1754994E+01
  0.1721429E+01  0.5265439E+05 -0.1131538E+01  0.9050962E+05 -0.2299197E+01  0.3525889E+05  0.1749904E+01
  0.1752381E+01  0.4969388E+05 -0.1116065E+01  0.9120516E+05 -0.2292050E+01  0.3401272E+05  0.1742618E+01
  0.1783333E+01  0.4646579E+05 -0.1102217E+01  0.9179145E+05 -0.2285061E+01  0.3273591E+05  0.1732907E+01
  0.1814286E+01  0.4303344E+05 -0.1090673E+01  0.9227898E+05 -0.2278652E+01  0.3152744E+05  0.1721202E+01
  0.1845238E+01  0.3940852E+05 -0.1082097E+01  0.9265947E+05 -0.2272729E+01  0.3036473E+05  0.1707409E+01
  0.1876190E+01  0.3557927E+05 -0.1077058E+01  0.9292241E+05 -0.2267057E+01  0.2921755E+05  0.1691586E+01
  0.1907143E+01  0.3160517E+05 -0.1077118E+01  0.9307128E+05 -0.2262054E+01  0.2815010E+05  0.1674391E+01
  0.1938095E+01  0.2750081E+05 -0.1084402E+01  0.9309912E+05 -0.2257541E+01  0.2714047E+05  0.1655887E+01
  0.1969048E+01  0.2330402E+05 -0.1102589E+01  0.9301273E+05 -0.2253560E+01  0.2621144E+05  0.1636668E+01
  0.2000000E+01  0.1904761E+05 -0.1138093E+01  0.9282760E+05 -0.2249820E+01  0.2537522E+05  0.1617710E+01
