VARIABLES="w (rad/s)"
"A   1   1" "B   1   1"
"A   1   2" "B   1   2"
"A   1   3" "B   1   3"
Zone t="Motion of body    1 in DoF   1",I=    64,F=POINT
  0.5000000E-01  0.5107386E+06  0.2229245E+00  0.3494263E-01  0.2839650E-03 -0.2234541E+07 -0.9733622E+00
  0.8095238E-01  0.5123840E+06  0.9807283E+00 -0.2337287E-01 -0.2011359E-03 -0.2240046E+07 -0.4276909E+01
  0.1119048E+00  0.5138736E+06  0.2743646E+01  0.8181308E-02  0.1886990E-03 -0.2244908E+07 -0.1195558E+02
  0.1428571E+00  0.5145639E+06  0.6156209E+01 -0.8544922E-02 -0.2839975E-03 -0.2248492E+07 -0.2680888E+02
  0.1738095E+00  0.5159948E+06  0.1220630E+02  0.3564286E-01  0.7320344E-03 -0.2252645E+07 -0.5308330E+02
  0.2047619E+00  0.5174350E+06  0.2241488E+02 -0.1237027E-01  0.1426488E-03 -0.2258154E+07 -0.9735648E+02
  0.2357143E+00  0.5191091E+06  0.3925113E+02  0.2809467E-01  0.9904206E-03 -0.2263146E+07 -0.1701707E+03
  0.2666667E+00  0.5210304E+06  0.6649807E+02 -0.1075745E-01 -0.5584359E-03 -0.2269404E+07 -0.2877098E+03
  0.2976190E+00  0.5231534E+06  0.1107311E+03  0.1025391E-01 -0.2189279E-03 -0.2278164E+07 -0.4782266E+03
  0.3285715E+00  0.5258254E+06  0.1817015E+03 -0.1727560E-01 -0.1711369E-02 -0.2286872E+07 -0.7827100E+03
  0.3595238E+00  0.5288271E+06  0.2958438E+03 -0.1510923E-01 -0.2567291E-02 -0.2296980E+07 -0.1270928E+04
  0.3904762E+00  0.5321592E+06  0.4777507E+03  0.1922607E-01  0.2545118E-02 -0.2309510E+07 -0.2046774E+04
  0.4214286E+00  0.5358890E+06  0.7607792E+03 -0.1448292E-01 -0.6413460E-03 -0.2323740E+07 -0.3249412E+04
  0.4523810E+00  0.5409014E+06  0.1202097E+04 -0.5801552E-02  0.7066727E-03 -0.2340669E+07 -0.5115926E+04
  0.4833333E+00  0.5455689E+06  0.1849574E+04  0.2626616E-01  0.6615639E-02 -0.2357280E+07 -0.7841702E+04
  0.5142857E+00  0.5511124E+06  0.2800551E+04 -0.2610948E-02 -0.3160477E-02 -0.2377320E+07 -0.1182787E+05
  0.5452381E+00  0.5568365E+06  0.4135084E+04  0.5373226E-02  0.7114410E-03 -0.2398018E+07 -0.1739205E+05
  0.5761905E+00  0.5634600E+06  0.5961569E+04  0.8474302E-02  0.2868652E-02 -0.2420915E+07 -0.2495622E+05
  0.6071429E+00  0.5711564E+06  0.8440617E+04  0.1990464E-01  0.6740570E-02 -0.2447750E+07 -0.3516263E+05
  0.6380953E+00  0.5781579E+06  0.1167008E+05 -0.1530434E-01 -0.5271912E-02 -0.2472352E+07 -0.4837302E+05
  0.6690477E+00  0.5859545E+06  0.1585162E+05 -0.1824538E-01 -0.1380920E-01 -0.2501088E+07 -0.6537907E+05
  0.7000000E+00  0.5949516E+06  0.2120780E+05  0.2354213E-01  0.1004028E-01 -0.2531188E+07 -0.8695486E+05
  0.7309524E+00  0.6030962E+06  0.2788905E+05 -0.2338024E-02  0.2853394E-02 -0.2556538E+07 -0.1136184E+06
  0.7619048E+00  0.6117554E+06  0.3617546E+05 -0.1233673E-01 -0.1109314E-01 -0.2585251E+07 -0.1464542E+06
  0.7928572E+00  0.6204461E+06  0.4631061E+05 -0.2940685E-01 -0.1641846E-01 -0.2612333E+07 -0.1862135E+06
  0.8238096E+00  0.6286090E+06  0.5852121E+05 -0.9335203E-02 -0.9063721E-02 -0.2639215E+07 -0.2337847E+06
  0.8547620E+00  0.6354003E+06  0.7294389E+05  0.1313871E-01  0.1004028E-01 -0.2658060E+07 -0.2892635E+06
  0.8857143E+00  0.6418250E+06  0.8985425E+05 -0.2480784E-02  0.1391602E-01 -0.2673756E+07 -0.3534991E+06
  0.9166667E+00  0.6474004E+06  0.1094209E+06 -0.4794034E-02  0.1147461E-01 -0.2684383E+07 -0.4268245E+06
  0.9476191E+00  0.6510059E+06  0.1316752E+06 -0.3864537E-02 -0.2197266E-02 -0.2688843E+07 -0.5093508E+06
  0.9785714E+00  0.6515841E+06  0.1564774E+06 -0.1072793E-01  0.5554199E-02 -0.2679827E+07 -0.5997990E+06
  0.1009524E+01  0.6505636E+06  0.1839704E+06 -0.1209187E-02  0.1641846E-01 -0.2666982E+07 -0.6990297E+06
  0.1040476E+01  0.6461886E+06  0.2135798E+06 -0.2581075E-02  0.1245117E-01 -0.2640178E+07 -0.8039061E+06
  0.1071429E+01  0.6398568E+06  0.2450845E+06 -0.2734375E-02 -0.1147461E-01 -0.2606164E+07 -0.9134698E+06
  0.1102381E+01  0.6294082E+06  0.2774810E+06 -0.8637199E-02 -0.4272461E-02 -0.2556464E+07 -0.1023404E+07
  0.1133333E+01  0.6155606E+06  0.3102882E+06 -0.3662109E-02  0.1501465E-01 -0.2494004E+07 -0.1131695E+07
  0.1164286E+01  0.5994386E+06  0.3432493E+06 -0.1614623E-01 -0.1660156E-01 -0.2426607E+07 -0.1238551E+07
  0.1195238E+01  0.5798051E+06  0.3748179E+06 -0.2246872E-02  0.6103516E-03 -0.2345941E+07 -0.1336589E+07
  0.1226190E+01  0.5587153E+06  0.4049302E+06  0.2986575E-02  0.1708984E-02 -0.2262012E+07 -0.1426658E+07
  0.1257143E+01  0.5352744E+06  0.4323355E+06  0.5826083E-03 -0.7324219E-03 -0.2172584E+07 -0.1504823E+07
  0.1288095E+01  0.5101838E+06  0.4559588E+06 -0.5686085E-03  0.1171875E-01 -0.2076840E+07 -0.1565319E+07
  0.1319048E+01  0.4845880E+06  0.4766348E+06  0.9439516E-02 -0.1623535E-01 -0.1983776E+07 -0.1615205E+07
  0.1350000E+01  0.4588406E+06  0.4935392E+06 -0.1057943E-01  0.1208496E-01 -0.1892402E+07 -0.1649979E+07
  0.1380952E+01  0.4333303E+06  0.5061330E+06  0.1361294E-01 -0.5371094E-02 -0.1802955E+07 -0.1667484E+07
  0.1411905E+01  0.4084800E+06  0.5141850E+06  0.2593737E-02  0.1831055E-02 -0.1719800E+07 -0.1669959E+07
  0.1442857E+01  0.3853880E+06  0.5197503E+06  0.1353651E-02  0.4028320E-02 -0.1644317E+07 -0.1663618E+07
  0.1473810E+01  0.3632549E+06  0.5211813E+06  0.1623397E-01  0.1037598E-01 -0.1573133E+07 -0.1641692E+07
  0.1504762E+01  0.3426399E+06  0.5193294E+06  0.3488275E-02  0.7080078E-02 -0.1508585E+07 -0.1608628E+07
  0.1535714E+01  0.3242849E+06  0.5158255E+06  0.4769258E-02 -0.6103516E-04 -0.1454675E+07 -0.1573710E+07
  0.1566667E+01  0.3074434E+06  0.5091482E+06 -0.3350440E-02 -0.3601074E-02 -0.1405921E+07 -0.1526526E+07
  0.1597619E+01  0.2924204E+06  0.5005167E+06  0.4126013E-02 -0.3112793E-02 -0.1364188E+07 -0.1474272E+07
  0.1628572E+01  0.2794805E+06  0.4908261E+06  0.1154314E-01  0.6713867E-03 -0.1330342E+07 -0.1419538E+07
  0.1659524E+01  0.2681242E+06  0.4801430E+06 -0.9783139E-02  0.1953125E-02 -0.1303226E+07 -0.1365155E+07
  0.1690476E+01  0.2580119E+06  0.4677443E+06  0.7943166E-02  0.1220703E-02 -0.1280384E+07 -0.1305454E+07
  0.1721429E+01  0.2490525E+06  0.4535142E+06 -0.3545611E-03  0.1068115E-02 -0.1261252E+07 -0.1238352E+07
  0.1752381E+01  0.2416068E+06  0.4399762E+06  0.5572775E-02  0.1953125E-02 -0.1247722E+07 -0.1179060E+07
  0.1783333E+01  0.2355553E+06  0.4271814E+06 -0.7255768E-02  0.5493164E-03 -0.1239188E+07 -0.1125788E+07
  0.1814286E+01  0.2303184E+06  0.4120374E+06 -0.7670245E-02  0.3112793E-02 -0.1232660E+07 -0.1061340E+07
  0.1845238E+01  0.2262077E+06  0.3976584E+06 -0.6350806E-02 -0.3051758E-03 -0.1229516E+07 -0.1002762E+07
  0.1876190E+01  0.2231811E+06  0.3839575E+06 -0.1561509E-02  0.2548218E-02 -0.1230058E+07 -0.9473141E+06
  0.1907143E+01  0.2207870E+06  0.3712540E+06 -0.6144663E-02  0.1098633E-02 -0.1232440E+07 -0.8996753E+06
  0.1938095E+01  0.2188163E+06  0.3576277E+06 -0.6046529E-02  0.1876831E-02 -0.1235848E+07 -0.8489988E+06
  0.1969048E+01  0.2175544E+06  0.3436282E+06  0.3099730E-02  0.1068115E-02 -0.1241565E+07 -0.7956259E+06
  0.2000000E+01  0.2167275E+06  0.3297721E+06  0.8300781E-02 -0.2746582E-03 -0.1248258E+07 -0.7443837E+06
Zone t="Motion of body    1 in DoF   2",I=    64,F=POINT
  0.5000000E-01 -0.1708984E-01  0.1430511E-03  0.2208484E+06  0.5364125E+03 -0.4150391E-01 -0.3204346E-03
  0.8095238E-01 -0.1017851E-01 -0.1907349E-03  0.2173682E+06  0.8836879E+03  0.2865062E-01  0.7629395E-03
  0.1119048E+00  0.2181682E-01 -0.3433228E-04  0.2157195E+06  0.1253402E+04 -0.2138049E+00 -0.1861572E-02
  0.1428571E+00 -0.2691650E-01  0.3280640E-03  0.2143830E+06  0.1656032E+04  0.1110840E+00 -0.1022339E-02
  0.1738095E+00 -0.1018367E-01  0.8773804E-03  0.2134222E+06  0.2101046E+04  0.9832513E-01 -0.1190186E-02
  0.2047619E+00  0.8644281E-02 -0.3738403E-03  0.2130684E+06  0.2607565E+04 -0.4769259E-01 -0.2532959E-02
  0.2357143E+00  0.1644250E-01  0.3051758E-04  0.2122675E+06  0.3193364E+04 -0.1139323E+00  0.1037598E-02
  0.2666667E+00  0.8010864E-02  0.7171631E-03  0.2119726E+06  0.3864717E+04 -0.3662109E-01 -0.1953125E-02
  0.2976190E+00 -0.2050781E-02 -0.3662109E-03  0.2114052E+06  0.4669333E+04 -0.1640625E-01  0.4882812E-02
  0.3285715E+00 -0.1857591E-03  0.9155273E-04  0.2111118E+06  0.5596423E+04 -0.1144276E+00 -0.9155273E-03
  0.3595238E+00 -0.2105106E-01 -0.1007080E-02  0.2102279E+06  0.6688669E+04 -0.2444640E-01  0.4516602E-02
  0.3904762E+00  0.4220357E-02  0.7629395E-03  0.2098295E+06  0.7953467E+04 -0.7252762E-01 -0.1708984E-02
  0.4214286E+00  0.1260014E-01 -0.3356934E-03  0.2081337E+06  0.9317350E+04 -0.8110433E-01  0.9399414E-02
  0.4523810E+00  0.9984066E-02  0.2563477E-02  0.2072058E+06  0.1088381E+05 -0.1122533E+00 -0.7324219E-03
  0.4833333E+00 -0.1174401E-01  0.1098633E-02  0.2047328E+06  0.1234954E+05 -0.3636853E-01 -0.2124023E-01
  0.5142857E+00 -0.5340577E-02 -0.2624512E-02  0.2025395E+06  0.1388276E+05 -0.6456164E-01 -0.1855469E-01
  0.5452381E+00  0.1399278E-01  0.6347656E-02  0.2002229E+06  0.1527173E+05 -0.4298581E-01 -0.1928711E-01
  0.5761905E+00  0.2118575E-02 -0.4272461E-02  0.1973221E+06  0.1647618E+05  0.8474302E-02  0.7812500E-02
  0.6071429E+00 -0.2332261E-01 -0.3662109E-02  0.1951105E+06  0.1761468E+05  0.4825367E-01 -0.2197266E-01
  0.6380953E+00  0.1913042E-03  0.7324219E-02  0.1922975E+06  0.1838951E+05 -0.5050431E-01 -0.1342773E-01
  0.6690477E+00 -0.9670054E-02  0.7446289E-02  0.1896247E+06  0.1899246E+05 -0.6130449E-01  0.1147461E-01
  0.7000000E+00 -0.2790178E-02 -0.2075195E-02  0.1877028E+06  0.1945944E+05  0.6696428E-01 -0.1562500E-01
  0.7309524E+00 -0.3089532E-02 -0.2929688E-02  0.1853578E+06  0.1958222E+05 -0.9218495E-01 -0.2832031E-01
  0.7619048E+00 -0.9773253E-02  0.6591797E-02  0.1830708E+06  0.1952972E+05 -0.3845214E-02 -0.4223633E-01
  0.7928572E+00 -0.5234726E-02 -0.7934570E-02  0.1814797E+06  0.1932338E+05  0.5788992E-01 -0.1611328E-01
  0.8238096E+00  0.2370845E-02  0.4150391E-02  0.1805693E+06  0.1897685E+05 -0.1185423E-01 -0.2709961E-01
  0.8547620E+00  0.1249605E-02  0.1098633E-02  0.1786200E+06  0.1826995E+05 -0.2284993E-01 -0.4711914E-01
  0.8857143E+00  0.3738403E-02 -0.1464844E-01  0.1772342E+06  0.1750364E+05 -0.6174395E-01  0.8984375E-01
  0.9166667E+00 -0.8223100E-02 -0.5249023E-02  0.1766818E+06  0.1671482E+05  0.7457386E-01  0.4150391E-02
  0.9476191E+00 -0.4891055E-03  0.7202148E-02  0.1767640E+06  0.1599320E+05 -0.8244347E-02 -0.4187012E-01
  0.9785714E+00 -0.9121860E-03 -0.1367188E-01  0.1756071E+06  0.1467574E+05  0.2395073E-01  0.2734375E-01
  0.1009524E+01  0.6937711E-02  0.1135254E-01  0.1749951E+06  0.1349169E+05 -0.5417158E-01 -0.2368164E-01
  0.1040476E+01  0.2698396E-02  0.3295898E-02  0.1748889E+06  0.1241587E+05  0.3754291E-02 -0.2661133E-01
  0.1071429E+01 -0.2250163E-02  0.5371094E-02  0.1752457E+06  0.1158189E+05  0.5833333E-01  0.2868652E-01
  0.1102381E+01  0.5979599E-02  0.6958008E-02  0.1756977E+06  0.1068088E+05 -0.1240213E-01 -0.5712891E-01
  0.1133333E+01  0.7539637E-03 -0.3784180E-02  0.1754708E+06  0.9204648E+04 -0.1034007E-01 -0.2258301E-01
  0.1164286E+01  0.3564752E-02 -0.6958008E-02  0.1755583E+06  0.8004440E+04 -0.4026073E-01 -0.1635742E-01
  0.1195238E+01 -0.4595874E-03 -0.2563477E-02  0.1759363E+06  0.7046702E+04  0.3594995E-01  0.2130127E-01
  0.1226190E+01 -0.3484337E-03 -0.8544922E-03  0.1765089E+06  0.6414347E+04  0.3504248E-01 -0.9765625E-02
  0.1257143E+01 -0.7768110E-03 -0.2197266E-02  0.1773082E+06  0.6221732E+04  0.6214488E-02 -0.1171875E-01
  0.1288095E+01 -0.8529127E-03  0.2319336E-02  0.1776197E+06  0.4908510E+04 -0.1971176E-01 -0.2209473E-01
  0.1319048E+01  0.9532060E-02  0.1184082E-01  0.1779832E+06  0.3990817E+04 -0.5330550E-01 -0.3759766E-01
  0.1350000E+01  0.9042245E-03 -0.2441406E-03  0.1783770E+06  0.3158963E+04  0.1736111E-01  0.3356934E-03
  0.1380952E+01  0.6541285E-02  0.4516602E-02  0.1789046E+06  0.2686632E+04 -0.3677263E-01 -0.2328491E-01
  0.1411905E+01 -0.2507279E-02  0.9399414E-02  0.1793555E+06  0.2452563E+04  0.6224968E-01 -0.2780151E-01
  0.1442857E+01  0.2199683E-02  0.4150391E-02  0.1798721E+06  0.2534306E+04 -0.1353651E-02  0.7568359E-02
  0.1473810E+01  0.5135235E-02  0.5310059E-02  0.1803614E+06  0.2137702E+04 -0.5300888E-01 -0.1412964E-01
  0.1504762E+01  0.1054595E-02 -0.4943848E-02  0.1807781E+06  0.1414541E+04  0.1817148E-01  0.1417542E-01
  0.1535714E+01 -0.1907703E-02 -0.8300781E-02  0.1811417E+06  0.1037767E+04  0.3815407E-02  0.1464844E-01
  0.1566667E+01  0.3350440E-02  0.2380371E-02  0.1815001E+06  0.7369248E+03 -0.2368683E-01 -0.9857178E-02
  0.1597619E+01 -0.1986599E-02  0.5187988E-02  0.1818523E+06  0.6937816E+03  0.3789819E-01 -0.1503754E-01
  0.1628572E+01  0.6596080E-02  0.3601074E-02  0.1821287E+06  0.6649545E+03 -0.6356222E-01 -0.1686096E-02
  0.1659524E+01  0.3457199E-02  0.3295898E-02  0.1823792E+06  0.7543856E+03  0.7061514E-02 -0.1065063E-01
  0.1690476E+01  0.3032845E-02  0.4608154E-02  0.1826513E+06  0.7646279E+03 -0.6932218E-01 -0.1213074E-01
  0.1721429E+01  0.9679518E-02  0.2380371E-02  0.1830003E+06  0.3841864E+03  0.6807573E-02 -0.1239014E-01
  0.1752381E+01 -0.2089791E-02  0.1312256E-02  0.1832067E+06  0.3469147E+03  0.4235309E-01 -0.2838135E-02
  0.1783333E+01  0.9651541E-02  0.2319336E-02  0.1833971E+06  0.2806448E+03 -0.7666472E-01 -0.5863190E-02
  0.1814286E+01 -0.1682071E-02 -0.1007080E-02  0.1835726E+06  0.2853840E+03  0.2153051E-01  0.1796722E-02
  0.1845238E+01  0.6020035E-02  0.3845215E-02  0.1837152E+06  0.3961178E+03 -0.1693548E-01 -0.6591797E-02
  0.1876190E+01 -0.9434114E-03  0.1266479E-02  0.1838659E+06  0.3815848E+03  0.0000000E+00 -0.2910614E-02
  0.1907143E+01  0.7360795E-03  0.6561279E-03  0.1840268E+06  0.3572931E+03 -0.1228933E-01 -0.3276825E-02
  0.1938095E+01 -0.6518915E-02  0.1831055E-03  0.1842195E+06  0.2962813E+03 -0.5240326E-01 -0.1182556E-02
  0.1969048E+01 -0.4525606E-02  0.2731323E-02  0.1843926E+06  0.2262422E+03  0.1983827E-02 -0.6374359E-02
  0.2000000E+01  0.8544922E-03  0.2304077E-02  0.1845024E+06  0.1740926E+03  0.2148438E-01 -0.5331039E-02
Zone t="Motion of body    1 in DoF   3",I=    64,F=POINT
  0.5000000E-01 -0.2238656E+07 -0.9751089E+00 -0.1342773E+00 -0.8511804E-03  0.1197311E+08  0.4257854E+01
  0.8095238E-01 -0.2244272E+07 -0.4288128E+01 -0.2024392E+00 -0.1178946E-02  0.1198990E+08  0.1869849E+02
  0.1119048E+00 -0.2249189E+07 -0.1198547E+02 -0.1082660E+00 -0.1425296E-02  0.1200408E+08  0.5222696E+02
  0.1428571E+00 -0.2252696E+07 -0.2686865E+02 -0.1078796E+00 -0.3667176E-03  0.1202013E+08  0.1170106E+03
  0.1738095E+00 -0.2257001E+07 -0.5321465E+02 -0.1783899E+00 -0.5283713E-02  0.1203340E+08  0.2314363E+03
  0.2047619E+00 -0.2262312E+07 -0.9758459E+02 -0.1523182E+00 -0.2339184E-02  0.1205460E+08  0.4238546E+03
  0.2357143E+00 -0.2267456E+07 -0.1706030E+03 -0.2913041E+00 -0.1234472E-01  0.1207173E+08  0.7396271E+03
  0.2666667E+00 -0.2273603E+07 -0.2884597E+03 -0.1235962E+00 -0.1357079E-02  0.1209216E+08  0.1248040E+04
  0.2976190E+00 -0.2282508E+07 -0.4793283E+03 -0.3777539E+00 -0.1624274E-01  0.1212777E+08  0.2070087E+04
  0.3285715E+00 -0.2291015E+07 -0.7846360E+03  0.3250785E+00  0.2881622E-01  0.1215594E+08  0.3379955E+04
  0.3595238E+00 -0.2301386E+07 -0.1274161E+04 -0.8216706E-01  0.2389908E-02  0.1219426E+08  0.5473665E+04
  0.3904762E+00 -0.2313722E+07 -0.2051613E+04 -0.4545481E+00 -0.3833008E-01  0.1224017E+08  0.8789476E+04
  0.4214286E+00 -0.2328162E+07 -0.3256344E+04 -0.2375198E-01  0.3883362E-02  0.1229399E+08  0.1390804E+05
  0.4523810E+00 -0.2345120E+07 -0.5128539E+04  0.5180921E-01 -0.4165649E-02  0.1235467E+08  0.2182751E+05
  0.4833333E+00 -0.2361904E+07 -0.7860223E+04 -0.2389211E+00 -0.3158569E-01  0.1241506E+08  0.3332476E+05
  0.5142857E+00 -0.2381961E+07 -0.1185554E+05  0.1234267E+00  0.2727509E-01  0.1248835E+08  0.5006956E+05
  0.5452381E+00 -0.2402284E+07 -0.1743049E+05  0.1502264E+00  0.3374481E-01  0.1256228E+08  0.7331127E+05
  0.5761905E+00 -0.2425602E+07 -0.2501339E+05 -0.1571983E+00 -0.4603577E-01  0.1264605E+08  0.1047088E+06
  0.6071429E+00 -0.2452530E+07 -0.3524779E+05 -0.2722311E+00 -0.4621887E-01  0.1274190E+08  0.1468451E+06
  0.6380953E+00 -0.2476960E+07 -0.4848233E+05 -0.2287998E+00 -0.9347534E-01  0.1282876E+08  0.2009598E+06
  0.6690477E+00 -0.2505776E+07 -0.6549993E+05 -0.1503420E+00 -0.5349731E-01  0.1293394E+08  0.2701493E+06
  0.7000000E+00 -0.2535938E+07 -0.8712721E+05 -0.1067243E+00 -0.6323242E-01  0.1303496E+08  0.3572377E+06
  0.7309524E+00 -0.2561114E+07 -0.1138702E+06 -0.7448277E-01 -0.1385498E-01  0.1311379E+08  0.4638917E+06
  0.7619048E+00 -0.2590223E+07 -0.1467556E+06 -0.8619689E-01 -0.5004883E-02  0.1320996E+08  0.5941197E+06
  0.7928572E+00 -0.2617317E+07 -0.1866116E+06  0.2491114E+00  0.1365967E+00  0.1329439E+08  0.7503542E+06
  0.8238096E+00 -0.2643854E+07 -0.2341780E+06 -0.8416501E-01 -0.5371094E-02  0.1337962E+08  0.9355014E+06
  0.8547620E+00 -0.2662672E+07 -0.2897165E+06 -0.2533486E+00 -0.1445312E+00  0.1342646E+08  0.1148858E+07
  0.8857143E+00 -0.2678557E+07 -0.3540615E+06  0.5926317E-01  0.4919434E-01  0.1345777E+08  0.1392880E+07
  0.9166667E+00 -0.2689278E+07 -0.4276096E+06 -0.7137784E-01 -0.2758789E-01  0.1346474E+08  0.1667958E+07
  0.9476191E+00 -0.2693530E+07 -0.5102092E+06 -0.9480999E-01 -0.3491211E-01  0.1345231E+08  0.1973568E+07
  0.9785714E+00 -0.2684290E+07 -0.6008368E+06 -0.4490762E-01 -0.1245117E-01  0.1337979E+08  0.2302892E+07
  0.1009524E+01 -0.2671700E+07 -0.6999945E+06 -0.1146309E+00 -0.1269531E+00  0.1330090E+08  0.2659461E+07
  0.1040476E+01 -0.2644637E+07 -0.8049279E+06  0.2651468E-01  0.3930664E-01  0.1316896E+08  0.3029730E+07
  0.1071429E+01 -0.2610554E+07 -0.9143954E+06  0.3987630E-01  0.8544922E-02  0.1300560E+08  0.3407774E+07
  0.1102381E+01 -0.2560318E+07 -0.1024216E+07 -0.5824573E-01 -0.5957031E-01  0.1278706E+08  0.3776980E+07
  0.1133333E+01 -0.2497769E+07 -0.1132675E+07 -0.2154182E-02  0.2978516E-01  0.1252270E+08  0.4130254E+07
  0.1164286E+01 -0.2430740E+07 -0.1239280E+07 -0.9939369E-01  0.1220703E-01  0.1225146E+08  0.4470346E+07
  0.1195238E+01 -0.2349776E+07 -0.1337351E+07 -0.1135692E+00 -0.3808594E-01  0.1193671E+08  0.4768700E+07
  0.1226190E+01 -0.2265810E+07 -0.1427176E+07 -0.2598320E-01  0.3027344E-01  0.1161000E+08  0.5026806E+07
  0.1257143E+01 -0.2176227E+07 -0.1504764E+07  0.1660434E-01 -0.1074219E-01  0.1128092E+08  0.5236485E+07
  0.1288095E+01 -0.2079992E+07 -0.1565400E+07  0.7960518E-01 -0.2246094E-01  0.1092372E+08  0.5370177E+07
  0.1319048E+01 -0.1987448E+07 -0.1615378E+07 -0.5325923E-01  0.2685547E-01  0.1059776E+08  0.5470996E+07
  0.1350000E+01 -0.1896430E+07 -0.1649879E+07  0.3221300E-01 -0.7128906E-01  0.1028106E+08  0.5510261E+07
  0.1380952E+01 -0.1806689E+07 -0.1667367E+07 -0.1403248E-01  0.1489258E-01  0.9982347E+07  0.5491278E+07
  0.1411905E+01 -0.1724094E+07 -0.1669515E+07 -0.5499803E-01 -0.1806641E-01  0.9708178E+07  0.5416692E+07
  0.1442857E+01 -0.1648872E+07 -0.1662852E+07 -0.5031775E-01 -0.5053711E-01  0.9472886E+07  0.5317062E+07
  0.1473810E+01 -0.1577464E+07 -0.1640320E+07 -0.1076329E+00 -0.3417969E-01  0.9252073E+07  0.5158464E+07
  0.1504762E+01 -0.1512852E+07 -0.1607307E+07 -0.1327978E+00 -0.1977539E-01  0.9057524E+07  0.4965923E+07
  0.1535714E+01 -0.1459788E+07 -0.1572919E+07 -0.5015670E-01 -0.2294922E-01  0.8911287E+07  0.4786018E+07
  0.1566667E+01 -0.1411156E+07 -0.1525792E+07  0.7998203E-01  0.9765625E-02  0.8779914E+07  0.4558746E+07
  0.1597619E+01 -0.1369211E+07 -0.1473512E+07 -0.1031503E+00  0.3417969E-02  0.8677415E+07  0.4331104E+07
  0.1628572E+01 -0.1335666E+07 -0.1418553E+07 -0.8889717E-01 -0.2697754E-01  0.8598197E+07  0.4085162E+07
  0.1659524E+01 -0.1308966E+07 -0.1364262E+07 -0.1002956E+00  0.9155273E-02  0.8548915E+07  0.3861964E+07
  0.1690476E+01 -0.1286258E+07 -0.1304174E+07 -0.8439614E-01 -0.4516602E-02  0.8512502E+07  0.3623213E+07
  0.1721429E+01 -0.1266769E+07 -0.1236361E+07 -0.5864440E-01 -0.3051758E-02  0.8484744E+07  0.3345723E+07
  0.1752381E+01 -0.1253446E+07 -0.1178096E+07 -0.1460503E+00 -0.4272461E-02  0.8477035E+07  0.3129243E+07
  0.1783333E+01 -0.1245542E+07 -0.1125962E+07  0.4307685E-01 -0.4516602E-02  0.8486684E+07  0.2938975E+07
  0.1814286E+01 -0.1238877E+07 -0.1061320E+07 -0.2575251E-01 -0.6164551E-02  0.8498702E+07  0.2700926E+07
  0.1845238E+01 -0.1235600E+07 -0.1002557E+07  0.1548009E-01  0.4821777E-02  0.8519418E+07  0.2502888E+07
  0.1876190E+01 -0.1236622E+07 -0.9471902E+06  0.4038777E-01 -0.9948730E-02  0.8553440E+07  0.2301344E+07
  0.1907143E+01 -0.1239538E+07 -0.9002086E+06 -0.3826013E-01 -0.8239746E-03  0.8592032E+07  0.2149156E+07
  0.1938095E+01 -0.1243009E+07 -0.8498808E+06 -0.1077983E+00 -0.8239746E-03  0.8630402E+07  0.1993352E+07
  0.1969048E+01 -0.1248747E+07 -0.7959565E+06 -0.1560714E+00 -0.2166748E-02  0.8678448E+07  0.1808280E+07
  0.2000000E+01 -0.1255336E+07 -0.7444346E+06 -0.2929688E-02  0.1419067E-02  0.8726696E+07  0.1636988E+07
