VARIABLES="w (rad/s)"
"A   1   1" "B   1   1"
"A   1   2" "B   1   2"
"A   1   3" "B   1   3"
Zone t="Motion of body    1 in DoF   1",I=    64,F=POINT
  0.5000000E-01  0.3527648E+06  0.1042197E+00  0.2304077E-01  0.5910982E-04 -0.1451219E+07 -0.4313759E+00
  0.8095238E-01  0.3545658E+06  0.4571321E+00  0.7633882E-02  0.1906168E-03 -0.1457107E+07 -0.1888075E+01
  0.1119048E+00  0.3549614E+06  0.1279896E+01  0.8044953E-02  0.8965470E-04 -0.1459154E+07 -0.5284906E+01
  0.1428571E+00  0.3558119E+06  0.2871606E+01 -0.7156372E-02  0.6246008E-04 -0.1461018E+07 -0.1184240E+02
  0.1738095E+00  0.3562015E+06  0.5691788E+01 -0.7988917E-02 -0.3001094E-04 -0.1462870E+07 -0.2345069E+02
  0.2047619E+00  0.3570443E+06  0.1045704E+02  0.2831747E-02  0.3220215E-03 -0.1465374E+07 -0.4302469E+02
  0.2357143E+00  0.3582171E+06  0.1832399E+02 -0.8027047E-02 -0.2639145E-03 -0.1469319E+07 -0.7526728E+02
  0.2666667E+00  0.3592294E+06  0.3105999E+02 -0.9155273E-02 -0.5226731E-03 -0.1472444E+07 -0.1273292E+03
  0.2976190E+00  0.3606456E+06  0.5176167E+02 -0.5332031E-02 -0.3399849E-03 -0.1476527E+07 -0.2117116E+03
  0.3285715E+00  0.3619426E+06  0.8496448E+02  0.1857591E-01  0.1137853E-02 -0.1481575E+07 -0.3467761E+03
  0.3595238E+00  0.3637591E+06  0.1384327E+03  0.4838349E-02  0.3898144E-03 -0.1487166E+07 -0.5634483E+03
  0.3904762E+00  0.3653691E+06  0.2236086E+03 -0.9378572E-02 -0.6933212E-03 -0.1492236E+07 -0.9075035E+03
  0.4214286E+00  0.3676688E+06  0.3564509E+03 -0.6372483E-02  0.3764629E-03 -0.1499380E+07 -0.1441721E+04
  0.4523810E+00  0.3699531E+06  0.5630917E+03  0.8904708E-02  0.1406431E-02 -0.1508006E+07 -0.2270940E+04
  0.4833333E+00  0.3726951E+06  0.8670590E+03  0.1894194E-01  0.3518581E-02 -0.1516471E+07 -0.3482925E+04
  0.5142857E+00  0.3761246E+06  0.1314173E+04  0.2563477E-01  0.6392479E-02 -0.1527595E+07 -0.5257699E+04
  0.5452381E+00  0.3793060E+06  0.1941963E+04  0.2126902E-02  0.8964539E-03 -0.1538566E+07 -0.7738317E+04
  0.5761905E+00  0.3828768E+06  0.2800910E+04  0.1800789E-02  0.2950668E-02 -0.1550686E+07 -0.1111260E+05
  0.6071429E+00  0.3868398E+06  0.3965866E+04 -0.1085708E-01 -0.5165100E-02 -0.1563312E+07 -0.1565926E+05
  0.6380953E+00  0.3910915E+06  0.5489852E+04  0.1004347E-01  0.4463196E-03 -0.1576918E+07 -0.2156559E+05
  0.6690477E+00  0.3959032E+06  0.7468429E+04  0.2554354E-02  0.2674103E-02 -0.1591884E+07 -0.2917503E+05
  0.7000000E+00  0.4004334E+06  0.9998223E+04  0.6975446E-03 -0.6446838E-03 -0.1607177E+07 -0.3885458E+05
  0.7309524E+00  0.4054012E+06  0.1317353E+05 -0.6012062E-02 -0.6332397E-02 -0.1623910E+07 -0.5091300E+05
  0.7619048E+00  0.4105369E+06  0.1711531E+05  0.3845214E-02  0.2304077E-02 -0.1638691E+07 -0.6570952E+05
  0.7928572E+00  0.4161643E+06  0.2196664E+05  0.2463401E-02 -0.3738403E-03 -0.1655718E+07 -0.8377826E+05
  0.8238096E+00  0.4209610E+06  0.2782355E+05 -0.3111734E-02 -0.2441406E-02 -0.1669167E+07 -0.1053790E+06
  0.8547620E+00  0.4259002E+06  0.3484505E+05  0.5855294E-02  0.9918213E-02 -0.1683228E+07 -0.1310372E+06
  0.8857143E+00  0.4308172E+06  0.4317099E+05 -0.5926317E-02 -0.3952026E-02 -0.1696697E+07 -0.1611464E+06
  0.9166667E+00  0.4354075E+06  0.5290750E+05  0.1757812E-01  0.1095581E-01 -0.1709511E+07 -0.1960377E+06
  0.9476191E+00  0.4387727E+06  0.6406972E+05  0.6698532E-02  0.6958008E-02 -0.1715576E+07 -0.2353859E+06
  0.9785714E+00  0.4418672E+06  0.7684439E+05  0.1147639E-01  0.1022339E-01 -0.1720554E+07 -0.2798699E+06
  0.1009524E+01  0.4438115E+06  0.9121204E+05  0.1692862E-02 -0.3051758E-03 -0.1720560E+07 -0.3291365E+06
  0.1040476E+01  0.4451004E+06  0.1072564E+06 -0.5044828E-02  0.1434326E-02 -0.1718444E+07 -0.3834435E+06
  0.1071429E+01  0.4443895E+06  0.1247513E+06  0.1583659E-01 -0.3479004E-02 -0.1709530E+07 -0.4417535E+06
  0.1102381E+01  0.4421345E+06  0.1436409E+06 -0.8858666E-03  0.9155273E-03 -0.1695427E+07 -0.5037055E+06
  0.1133333E+01  0.4383758E+06  0.1637304E+06 -0.1400218E-02  0.2563477E-02 -0.1676341E+07 -0.5684311E+06
  0.1164286E+01  0.4328655E+06  0.1845697E+06 -0.1677531E-02  0.7934570E-03 -0.1650195E+07 -0.6337849E+06
  0.1195238E+01  0.4261005E+06  0.2060609E+06  0.1634089E-01  0.6164551E-02 -0.1620066E+07 -0.6996718E+06
  0.1226190E+01  0.4172081E+06  0.2275761E+06 -0.7068227E-02  0.6347656E-02 -0.1583852E+07 -0.7640181E+06
  0.1257143E+01  0.4059062E+06  0.2484743E+06 -0.4272461E-02 -0.3967285E-02 -0.1539667E+07 -0.8240930E+06
  0.1288095E+01  0.3940712E+06  0.2690310E+06 -0.2463970E-02 -0.5187988E-02 -0.1495362E+07 -0.8816948E+06
  0.1319048E+01  0.3803337E+06  0.2880367E+06  0.2128518E-02 -0.1220703E-03 -0.1444985E+07 -0.9318044E+06
  0.1350000E+01  0.3659920E+06  0.3055796E+06  0.6781684E-02  0.8300781E-02 -0.1393579E+07 -0.9754183E+06
  0.1380952E+01  0.3513329E+06  0.3215303E+06  0.4242996E-02  0.8605957E-02 -0.1342491E+07 -0.1012513E+07
  0.1411905E+01  0.3352716E+06  0.3342916E+06  0.7867668E-02 -0.2197266E-02 -0.1290085E+07 -0.1039361E+07
  0.1442857E+01  0.3191639E+06  0.3449904E+06  0.4906985E-02  0.6225586E-02 -0.1236608E+07 -0.1056502E+07
  0.1473810E+01  0.3035891E+06  0.3538275E+06 -0.2650444E-02 -0.1281738E-02 -0.1187300E+07 -0.1068165E+07
  0.1504762E+01  0.2885331E+06  0.3602275E+06  0.2433680E-03  0.2868652E-02 -0.1140445E+07 -0.1070935E+07
  0.1535714E+01  0.2738660E+06  0.3639809E+06 -0.1271802E-02 -0.2441406E-02 -0.1095681E+07 -0.1064465E+07
  0.1566667E+01  0.2602432E+06  0.3659642E+06 -0.4051695E-02  0.3295898E-02 -0.1055527E+07 -0.1053086E+07
  0.1597619E+01  0.2476960E+06  0.3663303E+06 -0.2292229E-03  0.3295898E-02 -0.1020036E+07 -0.1037360E+07
  0.1628572E+01  0.2358281E+06  0.3645800E+06 -0.3747772E-03  0.1586914E-02 -0.9881266E+06 -0.1016280E+07
  0.1659524E+01  0.2247212E+06  0.3604366E+06  0.2280280E-02 -0.2258301E-02 -0.9584008E+06 -0.9860453E+06
  0.1690476E+01  0.2148079E+06  0.3554504E+06  0.1877476E-02  0.2380371E-02 -0.9335568E+06 -0.9554294E+06
  0.1721429E+01  0.2061145E+06  0.3498290E+06  0.5885714E-02  0.3967285E-03 -0.9132470E+06 -0.9243976E+06
  0.1752381E+01  0.1981415E+06  0.3423885E+06  0.3204346E-02 -0.3051758E-03 -0.8950677E+06 -0.8869447E+06
  0.1783333E+01  0.1912347E+06  0.3345869E+06  0.5544502E-02  0.3509521E-02 -0.8805692E+06 -0.8503441E+06
  0.1814286E+01  0.1853038E+06  0.3262993E+06  0.6190022E-02  0.4028320E-02 -0.8690278E+06 -0.8127396E+06
  0.1845238E+01  0.1802890E+06  0.3180903E+06  0.5424647E-02  0.2731323E-02 -0.8606729E+06 -0.7774627E+06
  0.1876190E+01  0.1757984E+06  0.3091633E+06  0.9108800E-03  0.1770020E-02 -0.8541785E+06 -0.7420960E+06
  0.1907143E+01  0.1719872E+06  0.2993143E+06  0.2432263E-02  0.1525879E-04 -0.8495232E+06 -0.7025078E+06
  0.1938095E+01  0.1687769E+06  0.2894518E+06 -0.1448648E-02  0.1281738E-02 -0.8466668E+06 -0.6645381E+06
  0.1969048E+01  0.1661680E+06  0.2803483E+06 -0.2107816E-02 -0.6103516E-04 -0.8456275E+06 -0.6317431E+06
  0.2000000E+01  0.1641529E+06  0.2713686E+06 -0.5737305E-02  0.6179810E-03 -0.8462591E+06 -0.5993781E+06
Zone t="Motion of body    1 in DoF   2",I=    64,F=POINT
  0.5000000E-01 -0.1686096E-01 -0.1096725E-03  0.1336818E+06  0.2784743E+03 -0.9765625E-02 -0.5531311E-04
  0.8095238E-01 -0.1017851E-01  0.1049042E-03  0.1321634E+06  0.4591707E+03  0.3015855E-02 -0.9613037E-03
  0.1119048E+00 -0.1554449E-01  0.2670288E-04  0.1312540E+06  0.6521122E+03  0.8944897E-01  0.1754761E-03
  0.1428571E+00 -0.4806519E-02 -0.3662109E-03  0.1306382E+06  0.8630781E+03  0.3759766E-01 -0.5035400E-03
  0.1738095E+00 -0.1948944E-01  0.2670288E-04  0.1302809E+06  0.1097453E+04  0.8849261E-01  0.2822876E-03
  0.2047619E+00 -0.2012031E-02 -0.2136230E-03  0.1300076E+06  0.1365673E+04  0.7034656E-01  0.1266479E-02
  0.2357143E+00 -0.1275265E-01  0.2212524E-03  0.1296693E+06  0.1677607E+04  0.8907433E-01 -0.3021240E-02
  0.2666667E+00 -0.1899719E-01  0.2212524E-03  0.1297121E+06  0.2037982E+04  0.8056640E-01 -0.2563477E-02
  0.2976190E+00 -0.1866211E-01  0.3433228E-03  0.1293131E+06  0.2472542E+04  0.1484766E+00  0.5798340E-03
  0.3285715E+00 -0.2182670E-01 -0.1144409E-02  0.1293565E+06  0.2978091E+04  0.9065046E-01  0.5371094E-02
  0.3595238E+00 -0.1281738E-01  0.6561279E-03  0.1288485E+06  0.3579046E+04 -0.1493946E-01 -0.8605957E-02
  0.3904762E+00 -0.2047655E-01 -0.1373291E-02  0.1286402E+06  0.4280859E+04  0.9003429E-01 -0.2166748E-02
  0.4214286E+00 -0.2136230E-01 -0.1647949E-02  0.1279450E+06  0.5047527E+04  0.1054356E+00  0.2258301E-02
  0.4523810E+00 -0.1639276E-01 -0.5187988E-03  0.1271763E+06  0.5935871E+04  0.8526932E-01 -0.7324219E-03
  0.4833333E+00 -0.1187029E-01 -0.1037598E-02  0.1263142E+06  0.6786379E+04  0.6566541E-01  0.1281738E-02
  0.5142857E+00 -0.6408692E-02 -0.8850098E-03  0.1249258E+06  0.7689399E+04  0.1110840E+00  0.6103516E-04
  0.5452381E+00 -0.2955274E-01 -0.2929688E-02  0.1239698E+06  0.8531669E+04  0.7970285E-01  0.1898193E-01
  0.5761905E+00 -0.1663082E-01  0.1953125E-02  0.1223105E+06  0.9280189E+04  0.5338810E-01  0.7751465E-02
  0.6071429E+00 -0.7740693E-02  0.3051758E-03  0.1207632E+06  0.1000490E+05  0.1367187E-01 -0.9033203E-02
  0.6380953E+00 -0.2396085E-01  0.2441406E-02  0.1197652E+06  0.1055772E+05  0.7881734E-01 -0.7202148E-02
  0.6690477E+00 -0.2636458E-01 -0.2197266E-02  0.1179956E+06  0.1100424E+05  0.1328264E+00 -0.1525879E-01
  0.7000000E+00 -0.2345494E-01  0.6103516E-03  0.1165556E+06  0.1137663E+05  0.8998325E-01  0.4797363E-01
  0.7309524E+00 -0.1657492E-01  0.5493164E-03  0.1157238E+06  0.1161013E+05  0.8951292E-01  0.3149414E-01
  0.7619048E+00 -0.1810455E-01 -0.2929688E-02  0.1142422E+06  0.1169084E+05  0.6024169E-01 -0.1074219E-01
  0.7928572E+00 -0.1624305E-01 -0.3967285E-02  0.1129843E+06  0.1168234E+05  0.9976772E-01  0.2124023E-01
  0.8238096E+00 -0.1800361E-01  0.4821777E-02  0.1121450E+06  0.1158601E+05  0.8772127E-01 -0.1586914E-01
  0.8547620E+00 -0.2656304E-01 -0.3967285E-02  0.1115706E+06  0.1139192E+05  0.1302446E+00  0.1086426E-01
  0.8857143E+00 -0.1317916E-01  0.1281738E-02  0.1104512E+06  0.1101491E+05  0.6174395E-01  0.3295898E-02
  0.9166667E+00 -0.2473588E-01  0.1159668E-02  0.1097500E+06  0.1060294E+05  0.1129261E+00 -0.7446289E-02
  0.9476191E+00 -0.1516026E-01 -0.1953125E-02  0.1093549E+06  0.1016863E+05  0.6286314E-01  0.8544922E-03
  0.9785714E+00 -0.2547494E-01  0.2075195E-02  0.1093930E+06  0.9784315E+04  0.1317290E+00  0.3540039E-02
  0.1009524E+01 -0.1774860E-01 -0.1464844E-02  0.1087161E+06  0.9056144E+04  0.7545327E-01 -0.6713867E-02
  0.1040476E+01 -0.1859547E-01 -0.4272461E-02  0.1083092E+06  0.8372637E+04  0.6663866E-01 -0.3479004E-02
  0.1071429E+01 -0.1661987E-01 -0.3051758E-02  0.1081742E+06  0.7755286E+04  0.5559896E-01  0.2716064E-01
  0.1102381E+01 -0.1677610E-01  0.5493164E-02  0.1083119E+06  0.7243972E+04  0.8061386E-01  0.5004883E-02
  0.1133333E+01 -0.1518698E-01 -0.4882812E-02  0.1086552E+06  0.6839997E+04  0.8530561E-01  0.7629395E-02
  0.1164286E+01 -0.1478324E-01  0.7995605E-02  0.1084599E+06  0.5947430E+04  0.6710123E-01  0.2136230E-02
  0.1195238E+01 -0.1680047E-01  0.2807617E-02  0.1084358E+06  0.5197711E+04  0.7189990E-01 -0.1141357E-01
  0.1226190E+01 -0.9581927E-02 -0.4577637E-02  0.1085858E+06  0.4614144E+04  0.1911408E-01  0.6164551E-02
  0.1257143E+01 -0.2199346E-01 -0.9765625E-02  0.1088477E+06  0.4149784E+04  0.1141912E+00  0.7781982E-02
  0.1288095E+01 -0.2255480E-01 -0.9887695E-02  0.1092542E+06  0.3941467E+04  0.1311590E+00  0.2395630E-01
  0.1319048E+01 -0.1110531E-01 -0.1281738E-02  0.1095604E+06  0.3524165E+04  0.4071948E-01  0.1223755E-01
  0.1350000E+01 -0.1469365E-01 -0.3173828E-02  0.1097142E+06  0.2808113E+04  0.6727430E-01  0.1303101E-01
  0.1380952E+01 -0.1520407E-01 -0.4272461E-02  0.1099046E+06  0.2234394E+04  0.5445178E-01  0.2413940E-01
  0.1411905E+01 -0.1789678E-01 -0.2868652E-02  0.1101416E+06  0.1877594E+04  0.6294134E-01  0.1026917E-01
  0.1442857E+01 -0.9094843E-02 -0.6469727E-02  0.1104227E+06  0.1614618E+04  0.2098159E-01  0.1666260E-01
  0.1473810E+01 -0.5383715E-02 -0.5004883E-02  0.1107199E+06  0.1578058E+04  0.4770799E-01  0.7980347E-02
  0.1504762E+01 -0.1358805E-01 -0.9094238E-02  0.1110181E+06  0.1693701E+04  0.5840833E-01  0.2085876E-01
  0.1535714E+01 -0.1069109E-01 -0.2441406E-02  0.1112582E+06  0.1147938E+04  0.4578488E-01  0.6523132E-02
  0.1566667E+01 -0.1979097E-01 -0.8056641E-02  0.1114921E+06  0.8460530E+03  0.8228058E-01  0.1719666E-01
  0.1597619E+01 -0.1459386E-01 -0.6713867E-03  0.1116922E+06  0.5523445E+03  0.1008581E+00  0.4695892E-02
  0.1628572E+01 -0.1566569E-01 -0.8422852E-02  0.1118932E+06  0.4503693E+03  0.6236294E-01  0.2354050E-01
  0.1659524E+01 -0.9525687E-02 -0.1037598E-02  0.1120818E+06  0.3743309E+03  0.6943822E-01  0.2475739E-02
  0.1690476E+01 -0.1108433E-01  0.7934570E-03  0.1122471E+06  0.4177861E+03  0.6123459E-01 -0.2281189E-02
  0.1721429E+01 -0.1677074E-01 -0.6195068E-02  0.1123806E+06  0.5000641E+03  0.6694113E-01  0.1034164E-01
  0.1752381E+01 -0.1118038E-01 -0.4455566E-02  0.1125380E+06  0.4625975E+03  0.4904043E-01  0.1112747E-01
  0.1783333E+01 -0.1718111E-01 -0.7263184E-02  0.1127377E+06  0.2760570E+03  0.4928446E-01  0.1353264E-01
  0.1814286E+01 -0.1187542E-01 -0.4333496E-02  0.1128694E+06  0.2010684E+03  0.5274976E-01  0.7942200E-02
  0.1845238E+01 -0.7971585E-02 -0.1861572E-02  0.1129889E+06  0.1055860E+03  0.2752016E-01  0.4543304E-02
  0.1876190E+01 -0.1011727E-01 -0.3585815E-02  0.1130833E+06  0.1458898E+03  0.3539420E-01  0.7723808E-02
  0.1907143E+01 -0.1072116E-01 -0.1937866E-02  0.1131767E+06  0.1548029E+03  0.3584387E-01  0.5636215E-02
  0.1938095E+01 -0.1454946E-01 -0.2204895E-02  0.1132612E+06  0.1863833E+03  0.9875999E-01  0.4850388E-02
  0.1969048E+01 -0.1295687E-01 -0.1556396E-02  0.1133345E+06  0.2139262E+03  0.6546630E-01  0.3200531E-02
  0.2000000E+01 -0.1498413E-01 -0.1632690E-02  0.1134270E+06  0.1719549E+03  0.8105469E-01  0.2742767E-02
Zone t="Motion of body    1 in DoF   3",I=    64,F=POINT
  0.5000000E-01 -0.1454240E+07 -0.4325651E+00 -0.7873535E-01 -0.4452327E-03  0.7305163E+07  0.1791201E+01
  0.8095238E-01 -0.1460298E+07 -0.1894833E+01  0.1604058E+00  0.1168146E-02  0.7322082E+07  0.7824450E+01
  0.1119048E+00 -0.1462298E+07 -0.5303399E+01 -0.9926654E-01 -0.1999568E-02  0.7331276E+07  0.2189998E+02
  0.1428571E+00 -0.1464271E+07 -0.1188750E+02 -0.1093750E+00 -0.9218976E-03  0.7336444E+07  0.4902553E+02
  0.1738095E+00 -0.1465946E+07 -0.2353485E+02 -0.1576714E+00 -0.1815945E-02  0.7343670E+07  0.9697275E+02
  0.2047619E+00 -0.1468539E+07 -0.4318126E+02  0.4500988E-01  0.1926243E-02  0.7351971E+07  0.1776727E+03
  0.2357143E+00 -0.1472551E+07 -0.7554234E+02  0.4531398E-01  0.1345873E-02  0.7364802E+07  0.3102952E+03
  0.2666667E+00 -0.1475621E+07 -0.1277934E+03 -0.1007080E-01 -0.3182948E-02  0.7375542E+07  0.5238767E+03
  0.2976190E+00 -0.1479828E+07 -0.2125201E+03 -0.5578125E-01 -0.3356814E-02  0.7388237E+07  0.8692132E+03
  0.3285715E+00 -0.1484801E+07 -0.3479914E+03 -0.8804984E-01 -0.9473324E-02  0.7407182E+07  0.1420288E+04
  0.3595238E+00 -0.1490433E+07 -0.5655008E+03 -0.1376808E+00 -0.1470995E-01  0.7424100E+07  0.2301675E+04
  0.3904762E+00 -0.1495502E+07 -0.9107837E+03 -0.8409453E-01 -0.8548737E-02  0.7442720E+07  0.3696397E+04
  0.4214286E+00 -0.1502681E+07 -0.1447128E+04  0.2780720E-01  0.5922318E-03  0.7465938E+07  0.5853005E+04
  0.4523810E+00 -0.1511265E+07 -0.2278694E+04  0.9552322E-01  0.3648758E-02  0.7496773E+07  0.9190446E+04
  0.4833333E+00 -0.1519714E+07 -0.3495294E+04  0.1641635E-01 -0.1462936E-02  0.7525294E+07  0.1404019E+05
  0.5142857E+00 -0.1531107E+07 -0.5277146E+04 -0.1533339E+00 -0.2595520E-01  0.7562574E+07  0.2111207E+05
  0.5452381E+00 -0.1542008E+07 -0.7765294E+04 -0.1412711E+00 -0.1983261E-01  0.7600846E+07  0.3094290E+05
  0.5761905E+00 -0.1554086E+07 -0.1114979E+05 -0.5635411E-01 -0.5088806E-02  0.7641225E+07  0.4423603E+05
  0.6071429E+00 -0.1566782E+07 -0.1571310E+05 -0.5830652E-01 -0.5775452E-02  0.7682990E+07  0.6204618E+05
  0.6380953E+00 -0.1580397E+07 -0.2163986E+05 -0.6427822E-01 -0.2014160E-01  0.7728396E+07  0.8500625E+05
  0.6690477E+00 -0.1595511E+07 -0.2928127E+05 -0.6166940E-01 -0.4289246E-01  0.7775792E+07  0.1143842E+06
  0.7000000E+00 -0.1610790E+07 -0.3898252E+05 -0.6835937E-01 -0.1907349E-01  0.7827546E+07  0.1514944E+06
  0.7309524E+00 -0.1627407E+07 -0.5105978E+05 -0.2538426E-01 -0.2008057E-01  0.7882704E+07  0.1973336E+06
  0.7619048E+00 -0.1642244E+07 -0.6591832E+05 -0.2086029E+00 -0.7577515E-01  0.7926820E+07  0.2530719E+06
  0.7928572E+00 -0.1659517E+07 -0.8404641E+05 -0.9545677E-02  0.1513672E-01  0.7978724E+07  0.3205413E+06
  0.8238096E+00 -0.1672886E+07 -0.1057160E+06  0.8031239E-01  0.2178955E-01  0.8016340E+07  0.4003867E+06
  0.8547620E+00 -0.1686872E+07 -0.1314362E+06 -0.5741045E-01  0.5310059E-02  0.8054886E+07  0.4942592E+06
  0.8857143E+00 -0.1700382E+07 -0.1616283E+06 -0.1072250E+00 -0.5889893E-01  0.8089646E+07  0.6033011E+06
  0.9166667E+00 -0.1713253E+07 -0.1965473E+06 -0.1600675E+00 -0.7794189E-01  0.8122748E+07  0.7282545E+06
  0.9476191E+00 -0.1719183E+07 -0.2360080E+06 -0.5333062E-01 -0.1611328E-01  0.8126735E+07  0.8670489E+06
  0.9785714E+00 -0.1724112E+07 -0.2805971E+06 -0.7609347E-01 -0.2343750E-01  0.8125984E+07  0.1021878E+07
  0.1009524E+01 -0.1724148E+07 -0.3300669E+06 -0.9189822E-02  0.2526855E-01  0.8107224E+07  0.1190962E+07
  0.1040476E+01 -0.1722152E+07 -0.3845000E+06  0.3097290E-01  0.2697754E-01  0.8077457E+07  0.1374428E+07
  0.1071429E+01 -0.1713138E+07 -0.4428984E+06 -0.9456380E-01 -0.1416016E-01  0.8028125E+07  0.1568228E+07
  0.1102381E+01 -0.1698868E+07 -0.5048941E+06 -0.9102279E-01 -0.3686523E-01  0.7960998E+07  0.1770434E+07
  0.1133333E+01 -0.1679546E+07 -0.5695501E+06  0.8336684E-01  0.5249023E-01  0.7874426E+07  0.1977009E+07
  0.1164286E+01 -0.1653294E+07 -0.6350740E+06 -0.4550302E-01 -0.1269531E-01  0.7765304E+07  0.2180395E+07
  0.1195238E+01 -0.1623186E+07 -0.7010057E+06 -0.1715793E-01 -0.2685547E-01  0.7639858E+07  0.2379454E+07
  0.1226190E+01 -0.1586974E+07 -0.7653699E+06 -0.5774044E-01 -0.9521484E-01  0.7503146E+07  0.2569058E+07
  0.1257143E+01 -0.1542386E+07 -0.8252869E+06  0.7573908E-02  0.3417969E-02  0.7338016E+07  0.2736546E+07
  0.1288095E+01 -0.1498163E+07 -0.8828661E+06  0.1004542E-01  0.3247070E-01  0.7178970E+07  0.2892517E+07
  0.1319048E+01 -0.1447558E+07 -0.9328904E+06  0.3053961E-01  0.4125977E-01  0.7000358E+07  0.3016277E+07
  0.1350000E+01 -0.1396082E+07 -0.9766562E+06 -0.5009404E-01 -0.3417969E-02  0.6824296E+07  0.3116026E+07
  0.1380952E+01 -0.1345085E+07 -0.1013670E+07 -0.7902580E-01 -0.4370117E-01  0.6649299E+07  0.3188889E+07
  0.1411905E+01 -0.1293072E+07 -0.1040530E+07 -0.6890694E-01 -0.1635742E-01  0.6485403E+07  0.3233365E+07
  0.1442857E+01 -0.1239317E+07 -0.1057490E+07 -0.7402779E-01 -0.1904297E-01  0.6313061E+07  0.3235528E+07
  0.1473810E+01 -0.1190076E+07 -0.1069070E+07  0.1656528E-02  0.2441406E-02  0.6164465E+07  0.3225201E+07
  0.1504762E+01 -0.1143163E+07 -0.1071482E+07 -0.7714766E-01  0.1184082E-01  0.6022675E+07  0.3180612E+07
  0.1535714E+01 -0.1098199E+07 -0.1065068E+07 -0.2305142E-01  0.1708984E-02  0.5892746E+07  0.3108966E+07
  0.1566667E+01 -0.1058072E+07 -0.1053700E+07 -0.1994681E-01 -0.3540039E-02  0.5780130E+07  0.3026317E+07
  0.1597619E+01 -0.1022861E+07 -0.1037779E+07  0.3591159E-02 -0.2075195E-02  0.5682258E+07  0.2928128E+07
  0.1628572E+01 -0.9911799E+06 -0.1016823E+07 -0.3837719E-01 -0.1110840E-01  0.5605596E+07  0.2828146E+07
  0.1659524E+01 -0.9613215E+06 -0.9862388E+06  0.8076606E-01  0.9399414E-02  0.5530878E+07  0.2688238E+07
  0.1690476E+01 -0.9364881E+06 -0.9556787E+06 -0.2772887E-01 -0.5249023E-02  0.5476444E+07  0.2560128E+07
  0.1721429E+01 -0.9164138E+06 -0.9245784E+06 -0.1199835E+00 -0.1080322E-01  0.5436468E+07  0.2432018E+07
  0.1752381E+01 -0.8981122E+06 -0.8869296E+06 -0.8714428E-01 -0.9765625E-03  0.5402320E+07  0.2283211E+07
  0.1783333E+01 -0.8834410E+06 -0.8503697E+06 -0.2012449E-01 -0.1214600E-01  0.5381220E+07  0.2149420E+07
  0.1814286E+01 -0.8720442E+06 -0.8127517E+06 -0.8834238E-01 -0.7568359E-02  0.5365503E+07  0.2007364E+07
  0.1845238E+01 -0.8640553E+06 -0.7774543E+06 -0.1278100E+00 -0.4516602E-02  0.5360232E+07  0.1875270E+07
  0.1876190E+01 -0.8576722E+06 -0.7424447E+06 -0.9369052E-02 -0.2807617E-02  0.5362644E+07  0.1764689E+07
  0.1907143E+01 -0.8530261E+06 -0.7026089E+06 -0.8954567E-01 -0.2044678E-02  0.5368640E+07  0.1627451E+07
  0.1938095E+01 -0.8500844E+06 -0.6644716E+06 -0.4623076E-01 -0.2197266E-02  0.5379612E+07  0.1503169E+07
  0.1969048E+01 -0.8491481E+06 -0.6321192E+06  0.5542317E-01 -0.1525879E-03  0.5395446E+07  0.1406112E+07
  0.2000000E+01 -0.8500122E+06 -0.5997590E+06  0.7214355E-01 -0.4104614E-02  0.5416259E+07  0.1302301E+07
