VARIABLES="w (rad/s)"
"abs(F   1   1)" "angle(F   1   1)"
"abs(F   1   2)" "angle(F   1   2)"
"abs(F   1   3)" "angle(F   1   3)"
Zone t="Diffraction force - beta =   0.000 deg",I=    64,F=POINT
  0.5000000E-01  0.9074108E+03 -0.1570795E+01  0.2959985E+03 -0.3090171E+01  0.7711793E+03 -0.1570793E+01
  0.8095238E-01  0.1482488E+04 -0.1570792E+01  0.7667509E+03 -0.3088295E+01  0.1250375E+04 -0.1570788E+01
  0.1119048E+00  0.2065232E+04 -0.1570787E+01  0.1456542E+04 -0.3086042E+01  0.1736686E+04 -0.1570780E+01
  0.1428571E+00  0.2666356E+04 -0.1570780E+01  0.2365982E+04 -0.3083182E+01  0.2244280E+04 -0.1570767E+01
  0.1738095E+00  0.3287812E+04 -0.1570770E+01  0.3501012E+04 -0.3079614E+01  0.2769738E+04 -0.1570748E+01
  0.2047619E+00  0.3940278E+04 -0.1570755E+01  0.4864831E+04 -0.3075128E+01  0.3325996E+04 -0.1570722E+01
  0.2357143E+00  0.4624981E+04 -0.1570733E+01  0.6466607E+04 -0.3069496E+01  0.3901200E+04 -0.1570682E+01
  0.2666667E+00  0.5357387E+04 -0.1570702E+01  0.8311865E+04 -0.3062649E+01  0.4534223E+04 -0.1570625E+01
  0.2976190E+00  0.6144697E+04 -0.1570655E+01  0.1040510E+05 -0.3054018E+01  0.5210255E+04 -0.1570539E+01
  0.3285715E+00  0.6991228E+04 -0.1570585E+01  0.1276213E+05 -0.3043755E+01  0.5924081E+04 -0.1570411E+01
  0.3595238E+00  0.7916342E+04 -0.1570481E+01  0.1537253E+05 -0.3031260E+01  0.6727710E+04 -0.1570222E+01
  0.3904762E+00  0.8930894E+04 -0.1570326E+01  0.1824718E+05 -0.3016480E+01  0.7620367E+04 -0.1569939E+01
  0.4214286E+00  0.1003274E+05 -0.1570100E+01  0.2134487E+05 -0.2999911E+01  0.8560168E+04 -0.1569522E+01
  0.4523810E+00  0.1122526E+05 -0.1569768E+01  0.2469667E+05 -0.2980861E+01  0.9587787E+04 -0.1568911E+01
  0.4833333E+00  0.1251947E+05 -0.1569313E+01  0.2822306E+05 -0.2961521E+01  0.1074148E+05 -0.1568073E+01
  0.5142857E+00  0.1390207E+05 -0.1568682E+01  0.3192145E+05 -0.2940546E+01  0.1196934E+05 -0.1566912E+01
  0.5452381E+00  0.1534263E+05 -0.1567846E+01  0.3579309E+05 -0.2919780E+01  0.1320291E+05 -0.1565349E+01
  0.5761905E+00  0.1683832E+05 -0.1566765E+01  0.3980136E+05 -0.2899451E+01  0.1450917E+05 -0.1563327E+01
  0.6071429E+00  0.1838312E+05 -0.1565382E+01  0.4390961E+05 -0.2878503E+01  0.1588493E+05 -0.1560739E+01
  0.6380953E+00  0.1996194E+05 -0.1563673E+01  0.4814363E+05 -0.2858874E+01  0.1729535E+05 -0.1557528E+01
  0.6690477E+00  0.2154657E+05 -0.1561571E+01  0.5246649E+05 -0.2839548E+01  0.1866377E+05 -0.1553514E+01
  0.7000000E+00  0.2312158E+05 -0.1559011E+01  0.5686310E+05 -0.2820300E+01  0.2000477E+05 -0.1548571E+01
  0.7309524E+00  0.2468184E+05 -0.1555964E+01  0.6133524E+05 -0.2801931E+01  0.2134477E+05 -0.1542645E+01
  0.7619048E+00  0.2622718E+05 -0.1552372E+01  0.6583596E+05 -0.2783922E+01  0.2268958E+05 -0.1535622E+01
  0.7928572E+00  0.2773425E+05 -0.1548181E+01  0.7033467E+05 -0.2766172E+01  0.2398251E+05 -0.1527321E+01
  0.8238096E+00  0.2917722E+05 -0.1543338E+01  0.7483720E+05 -0.2748972E+01  0.2515141E+05 -0.1517501E+01
  0.8547620E+00  0.3053722E+05 -0.1537807E+01  0.7935033E+05 -0.2732608E+01  0.2617811E+05 -0.1505983E+01
  0.8857143E+00  0.3179656E+05 -0.1531556E+01  0.8382941E+05 -0.2716907E+01  0.2707276E+05 -0.1492647E+01
  0.9166667E+00  0.3293967E+05 -0.1524578E+01  0.8825202E+05 -0.2701791E+01  0.2781307E+05 -0.1477322E+01
  0.9476191E+00  0.3394803E+05 -0.1516874E+01  0.9257862E+05 -0.2687110E+01  0.2836988E+05 -0.1459800E+01
  0.9785714E+00  0.3480748E+05 -0.1508473E+01  0.9680535E+05 -0.2673074E+01  0.2871854E+05 -0.1439855E+01
  0.1009524E+01  0.3548468E+05 -0.1499396E+01  0.1009196E+06 -0.2659749E+01  0.2879001E+05 -0.1417008E+01
  0.1040476E+01  0.3595211E+05 -0.1489691E+01  0.1049129E+06 -0.2647279E+01  0.2852096E+05 -0.1390615E+01
  0.1071429E+01  0.3618645E+05 -0.1479452E+01  0.1087728E+06 -0.2635722E+01  0.2787491E+05 -0.1359922E+01
  0.1102381E+01  0.3615180E+05 -0.1468771E+01  0.1124788E+06 -0.2625021E+01  0.2682761E+05 -0.1323882E+01
  0.1133333E+01  0.3584469E+05 -0.1457874E+01  0.1160157E+06 -0.2615254E+01  0.2535793E+05 -0.1280974E+01
  0.1164286E+01  0.3523651E+05 -0.1446959E+01  0.1193788E+06 -0.2606272E+01  0.2342731E+05 -0.1228294E+01
  0.1195238E+01  0.3431672E+05 -0.1436362E+01  0.1225436E+06 -0.2598197E+01  0.2103934E+05 -0.1161242E+01
  0.1226190E+01  0.3306571E+05 -0.1426475E+01  0.1254976E+06 -0.2591008E+01  0.1820194E+05 -0.1070601E+01
  0.1257143E+01  0.3147455E+05 -0.1417689E+01  0.1282497E+06 -0.2584283E+01  0.1496982E+05 -0.9357536E+00
  0.1288095E+01  0.2953467E+05 -0.1411230E+01  0.1307198E+06 -0.2579218E+01  0.1154463E+05 -0.7106369E+00
  0.1319048E+01  0.2724293E+05 -0.1407769E+01  0.1329825E+06 -0.2574801E+01  0.8648212E+04 -0.2808370E+00
  0.1350000E+01  0.2459985E+05 -0.1409212E+01  0.1350004E+06 -0.2571459E+01  0.8206349E+04  0.4192103E+00
  0.1380952E+01  0.2161938E+05 -0.1418549E+01  0.1367691E+06 -0.2569332E+01  0.1151457E+05  0.9960878E+00
  0.1411905E+01  0.1857965E+05 -0.1436875E+01  0.1379077E+06 -0.2569171E+01  0.1658701E+05  0.1278681E+01
  0.1442857E+01  0.1503858E+05 -0.1481264E+01  0.1391999E+06 -0.2569200E+01  0.2333588E+05  0.1458656E+01
  0.1473810E+01  0.1130088E+05 -0.1575075E+01  0.1402718E+06 -0.2570369E+01  0.3097239E+05  0.1573754E+01
  0.1504762E+01  0.7597986E+04 -0.1797162E+01  0.1411220E+06 -0.2572906E+01  0.3931775E+05  0.1656232E+01
  0.1535714E+01  0.4916891E+04 -0.2399732E+01  0.1417593E+06 -0.2576689E+01  0.4830037E+05  0.1720206E+01
  0.1566667E+01  0.5875921E+04  0.2984587E+01  0.1421909E+06 -0.2581771E+01  0.5784445E+05  0.1772721E+01
  0.1597619E+01  0.9782730E+04  0.2571249E+01  0.1424305E+06 -0.2588078E+01  0.6787780E+05  0.1817669E+01
  0.1628572E+01  0.1462238E+05  0.2412519E+01  0.1424799E+06 -0.2595574E+01  0.7832941E+05  0.1857275E+01
  0.1659524E+01  0.1984278E+05  0.2339740E+01  0.1423867E+06 -0.2604039E+01  0.8916048E+05  0.1892793E+01
  0.1690476E+01  0.2528336E+05  0.2302408E+01  0.1421478E+06 -0.2613209E+01  0.1003084E+06  0.1925108E+01
  0.1721429E+01  0.3087369E+05  0.2282430E+01  0.1417761E+06 -0.2623371E+01  0.1117131E+06  0.1954739E+01
  0.1752381E+01  0.3655738E+05  0.2271950E+01  0.1412730E+06 -0.2634099E+01  0.1233298E+06  0.1982012E+01
  0.1783333E+01  0.4228809E+05  0.2267161E+01  0.1406052E+06 -0.2645058E+01  0.1350685E+06  0.2007329E+01
  0.1814286E+01  0.4803506E+05  0.2265879E+01  0.1397793E+06 -0.2656236E+01  0.1468524E+06  0.2030998E+01
  0.1845238E+01  0.5375668E+05  0.2266860E+01  0.1387679E+06 -0.2667184E+01  0.1586140E+06  0.2053241E+01
  0.1876190E+01  0.5942660E+05  0.2269223E+01  0.1375248E+06 -0.2677584E+01  0.1702686E+06  0.2074190E+01
  0.1907143E+01  0.6500801E+05  0.2272453E+01  0.1360095E+06 -0.2687479E+01  0.1817478E+06  0.2093928E+01
  0.1938095E+01  0.7045392E+05  0.2276218E+01  0.1341222E+06 -0.2696568E+01  0.1930021E+06  0.2112477E+01
  0.1969048E+01  0.7575248E+05  0.2280121E+01  0.1318686E+06 -0.2705232E+01  0.2039355E+06  0.2129911E+01
  0.2000000E+01  0.8087293E+05  0.2283976E+01  0.1291788E+06 -0.2713665E+01  0.2144778E+06  0.2146290E+01
