VARIABLES="w (rad/s)"
"abs(F   1   1)" "angle(F   1   1)"
"abs(F   1   2)" "angle(F   1   2)"
"abs(F   1   3)" "angle(F   1   3)"
Zone t="Diffraction force - beta =   0.000 deg",I=    64,F=POINT
  0.5000000E-01  0.2498395E+04 -0.1570792E+01  0.4502468E+06 -0.3379056E-04  0.3806849E+04 -0.1570799E+01
  0.8095238E-01  0.4074746E+04 -0.1570796E+01  0.4493652E+06 -0.9089703E-04  0.6198932E+04 -0.1570794E+01
  0.1119048E+00  0.5682628E+04 -0.1570792E+01  0.4480710E+06 -0.1804849E-03  0.8647162E+04 -0.1570796E+01
  0.1428571E+00  0.7343114E+04 -0.1570786E+01  0.4463633E+06 -0.3094367E-03  0.1118696E+05 -0.1570789E+01
  0.1738095E+00  0.9069764E+04 -0.1570785E+01  0.4442364E+06 -0.4881346E-03  0.1383874E+05 -0.1570785E+01
  0.2047619E+00  0.1088647E+05 -0.1570780E+01  0.4416875E+06 -0.7315208E-03  0.1664251E+05 -0.1570779E+01
  0.2357143E+00  0.1280975E+05 -0.1570773E+01  0.4387081E+06 -0.1061788E-02  0.1961784E+05 -0.1570772E+01
  0.2666667E+00  0.1487267E+05 -0.1570761E+01  0.4352929E+06 -0.1505854E-02  0.2283978E+05 -0.1570760E+01
  0.2976190E+00  0.1710259E+05 -0.1570745E+01  0.4314396E+06 -0.2109349E-02  0.2633509E+05 -0.1570746E+01
  0.3285715E+00  0.1952616E+05 -0.1570723E+01  0.4271347E+06 -0.2918584E-02  0.3014489E+05 -0.1570722E+01
  0.3595238E+00  0.2218636E+05 -0.1570685E+01  0.4223920E+06 -0.4007293E-02  0.3437076E+05 -0.1570684E+01
  0.3904762E+00  0.2511687E+05 -0.1570629E+01  0.4172063E+06 -0.5457776E-02  0.3906059E+05 -0.1570629E+01
  0.4214286E+00  0.2833467E+05 -0.1570549E+01  0.4116238E+06 -0.7322472E-02  0.4421478E+05 -0.1570549E+01
  0.4523810E+00  0.3185505E+05 -0.1570434E+01  0.4056261E+06 -0.9744253E-02  0.4990302E+05 -0.1570434E+01
  0.4833333E+00  0.3569150E+05 -0.1570275E+01  0.3992927E+06 -0.1265958E-01  0.5617471E+05 -0.1570275E+01
  0.5142857E+00  0.3982386E+05 -0.1570059E+01  0.3926431E+06 -0.1623568E-01  0.6297108E+05 -0.1570058E+01
  0.5452381E+00  0.4420772E+05 -0.1569772E+01  0.3856762E+06 -0.2041855E-01  0.7020290E+05 -0.1569772E+01
  0.5761905E+00  0.4882316E+05 -0.1569405E+01  0.3784322E+06 -0.2522159E-01  0.7791009E+05 -0.1569406E+01
  0.6071429E+00  0.5364679E+05 -0.1568941E+01  0.3709684E+06 -0.3078746E-01  0.8606176E+05 -0.1568940E+01
  0.6380953E+00  0.5864831E+05 -0.1568372E+01  0.3632439E+06 -0.3698223E-01  0.9459892E+05 -0.1568370E+01
  0.6690477E+00  0.6378605E+05 -0.1567680E+01  0.3553131E+06 -0.4393980E-01  0.1034243E+06 -0.1567677E+01
  0.7000000E+00  0.6903334E+05 -0.1566849E+01  0.3472028E+06 -0.5174206E-01  0.1125355E+06 -0.1566846E+01
  0.7309524E+00  0.7437499E+05 -0.1565875E+01  0.3389028E+06 -0.6033389E-01  0.1219440E+06 -0.1565869E+01
  0.7619048E+00  0.7980121E+05 -0.1564741E+01  0.3304737E+06 -0.6980114E-01  0.1316412E+06 -0.1564735E+01
  0.7928572E+00  0.8527952E+05 -0.1563442E+01  0.3219534E+06 -0.8018806E-01  0.1415560E+06 -0.1563433E+01
  0.8238096E+00  0.9077492E+05 -0.1561971E+01  0.3133339E+06 -0.9151115E-01  0.1516015E+06 -0.1561959E+01
  0.8547620E+00  0.9625870E+05 -0.1560332E+01  0.3046036E+06 -0.1037828E+00  0.1617424E+06 -0.1560313E+01
  0.8857143E+00  0.1017035E+06 -0.1558531E+01  0.2958109E+06 -0.1170328E+00  0.1719712E+06 -0.1558506E+01
  0.9166667E+00  0.1070834E+06 -0.1556584E+01  0.2869805E+06 -0.1313063E+00  0.1822456E+06 -0.1556551E+01
  0.9476191E+00  0.1123690E+06 -0.1554513E+01  0.2781554E+06 -0.1466367E+00  0.1925142E+06 -0.1554472E+01
  0.9785714E+00  0.1175356E+06 -0.1552350E+01  0.2693316E+06 -0.1630265E+00  0.2027294E+06 -0.1552299E+01
  0.1009524E+01  0.1225383E+06 -0.1550136E+01  0.2605143E+06 -0.1804985E+00  0.2127953E+06 -0.1550070E+01
  0.1040476E+01  0.1273382E+06 -0.1547920E+01  0.2517006E+06 -0.1990613E+00  0.2226200E+06 -0.1547835E+01
  0.1071429E+01  0.1319001E+06 -0.1545768E+01  0.2428932E+06 -0.2187407E+00  0.2321360E+06 -0.1545659E+01
  0.1102381E+01  0.1361767E+06 -0.1543754E+01  0.2341077E+06 -0.2395843E+00  0.2412856E+06 -0.1543617E+01
  0.1133333E+01  0.1401529E+06 -0.1541973E+01  0.2253456E+06 -0.2616116E+00  0.2500103E+06 -0.1541806E+01
  0.1164286E+01  0.1437894E+06 -0.1540522E+01  0.2166191E+06 -0.2849664E+00  0.2582296E+06 -0.1540323E+01
  0.1195238E+01  0.1470645E+06 -0.1539516E+01  0.2079322E+06 -0.3096421E+00  0.2658971E+06 -0.1539283E+01
  0.1226190E+01  0.1499491E+06 -0.1539076E+01  0.1992916E+06 -0.3357313E+00  0.2729505E+06 -0.1538809E+01
  0.1257143E+01  0.1524242E+06 -0.1539299E+01  0.1907339E+06 -0.3635948E+00  0.2793213E+06 -0.1538998E+01
  0.1288095E+01  0.1544747E+06 -0.1540412E+01  0.1821848E+06 -0.3925816E+00  0.2849639E+06 -0.1540085E+01
  0.1319048E+01  0.1560869E+06 -0.1542464E+01  0.1737016E+06 -0.4236182E+00  0.2898263E+06 -0.1542122E+01
  0.1350000E+01  0.1572544E+06 -0.1545626E+01  0.1652644E+06 -0.4566056E+00  0.2938803E+06 -0.1545287E+01
  0.1380952E+01  0.1579808E+06 -0.1550040E+01  0.1568623E+06 -0.4917462E+00  0.2971030E+06 -0.1549727E+01
  0.1411905E+01  0.1585186E+06 -0.1555146E+01  0.1485814E+06 -0.5267853E+00  0.3001531E+06 -0.1554881E+01
  0.1442857E+01  0.1584200E+06 -0.1562308E+01  0.1402821E+06 -0.5674301E+00  0.3017955E+06 -0.1562143E+01
  0.1473810E+01  0.1579148E+06 -0.1571102E+01  0.1320536E+06 -0.6117598E+00  0.3026083E+06 -0.1571099E+01
  0.1504762E+01  0.1570192E+06 -0.1581656E+01  0.1238947E+06 -0.6603673E+00  0.3026197E+06 -0.1581883E+01
  0.1535714E+01  0.1557619E+06 -0.1594069E+01  0.1158549E+06 -0.7142245E+00  0.3018358E+06 -0.1594618E+01
  0.1566667E+01  0.1541658E+06 -0.1608450E+01  0.1079749E+06 -0.7744365E+00  0.3002996E+06 -0.1609437E+01
  0.1597619E+01  0.1522666E+06 -0.1624900E+01  0.1003278E+06 -0.8424605E+00  0.2980681E+06 -0.1626475E+01
  0.1628572E+01  0.1500907E+06 -0.1643518E+01  0.9300527E+05 -0.9198766E+00  0.2952031E+06 -0.1645845E+01
  0.1659524E+01  0.1476765E+06 -0.1664368E+01  0.8614870E+05 -0.1008991E+01  0.2917367E+06 -0.1667664E+01
  0.1690476E+01  0.1450526E+06 -0.1687509E+01  0.7994580E+05 -0.1111545E+01  0.2877280E+06 -0.1692045E+01
  0.1721429E+01  0.1422444E+06 -0.1713022E+01  0.7453623E+05 -0.1229087E+01  0.2832306E+06 -0.1719082E+01
  0.1752381E+01  0.1392851E+06 -0.1740931E+01  0.7018356E+05 -0.1361846E+01  0.2782808E+06 -0.1748887E+01
  0.1783333E+01  0.1362099E+06 -0.1771277E+01  0.6711666E+05 -0.1507366E+01  0.2729657E+06 -0.1781562E+01
  0.1814286E+01  0.1330433E+06 -0.1804141E+01  0.6547842E+05 -0.1661318E+01  0.2673607E+06 -0.1817228E+01
  0.1845238E+01  0.1298187E+06 -0.1839534E+01  0.6535196E+05 -0.1816389E+01  0.2615344E+06 -0.1856019E+01
  0.1876190E+01  0.1265558E+06 -0.1877522E+01  0.6664918E+05 -0.1964611E+01  0.2555631E+06 -0.1898002E+01
  0.1907143E+01  0.1232820E+06 -0.1918107E+01  0.6913135E+05 -0.2100348E+01  0.2495074E+06 -0.1943267E+01
  0.1938095E+01  0.1200299E+06 -0.1961203E+01  0.7247228E+05 -0.2219816E+01  0.2434080E+06 -0.1991945E+01
  0.1969048E+01  0.1168012E+06 -0.2006910E+01  0.7637770E+05 -0.2323696E+01  0.2373406E+06 -0.2044042E+01
  0.2000000E+01  0.1136142E+06 -0.2055224E+01  0.8054096E+05 -0.2413306E+01  0.2313642E+06 -0.2099629E+01
