VARIABLES="w (rad/s)"
"A   1   1" "B   1   1"
"A   1   2" "B   1   2"
"A   1   3" "B   1   3"
Zone t="Motion of body    1 in DoF   1",I=    64,F=POINT
  0.5000000E-01  0.5839898E+05  0.4134084E-02 -0.2593994E-02  0.5141817E-05  0.5566712E+04  0.1474871E-02
  0.8095238E-01  0.5870396E+05  0.1816466E-01 -0.1517352E-01 -0.4799571E-04  0.5392831E+04  0.6470775E-02
  0.1119048E+00  0.5886133E+05  0.5106281E-01  0.8863084E-03 -0.9110430E-05  0.5452223E+04  0.1821886E-01
  0.1428571E+00  0.5898109E+05  0.1148114E+00  0.1682281E-01  0.1562575E-03  0.5657999E+04  0.4132266E-01
  0.1738095E+00  0.5899884E+05  0.2284087E+00  0.1229064E-02  0.1294538E-05  0.5558517E+04  0.8246007E-01
  0.2047619E+00  0.5906221E+05  0.4211166E+00  0.1266834E-01  0.1655212E-03  0.5658972E+04  0.1528439E+00
  0.2357143E+00  0.5921612E+05  0.7411707E+00 -0.7509173E-02 -0.1980970E-03  0.5796610E+04  0.2711580E+00
  0.2666667E+00  0.5923632E+05  0.1262986E+01 -0.7038116E-02 -0.2099741E-03  0.5730153E+04  0.4647955E+00
  0.2976190E+00  0.5937666E+05  0.2116553E+01 -0.2922363E-02 -0.1576841E-03  0.5925229E+04  0.7866406E+00
  0.3285715E+00  0.5957964E+05  0.3499975E+01  0.1021675E-02  0.9350106E-04  0.6120151E+04  0.1314377E+01
  0.3595238E+00  0.5964279E+05  0.5737310E+01  0.8742983E-02 -0.6467849E-04  0.6057837E+04  0.2171021E+01
  0.3904762E+00  0.5974211E+05  0.9337900E+01 -0.9065953E-02 -0.9515882E-04  0.6151803E+04  0.3572966E+01
  0.4214286E+00  0.6006532E+05  0.1500864E+02  0.1643811E-01  0.1016885E-02  0.6556016E+04  0.5832205E+01
  0.4523810E+00  0.6027154E+05  0.2389693E+02 -0.2313875E-01 -0.1384735E-02  0.6635460E+04  0.9386800E+01
  0.4833333E+00  0.6042707E+05  0.3708934E+02  0.3156991E-03  0.5723238E-03  0.6714805E+04  0.1475158E+02
  0.5142857E+00  0.6069137E+05  0.5663460E+02  0.9791057E-02  0.1234412E-02  0.6985004E+04  0.2285846E+02
  0.5452381E+00  0.6101598E+05  0.8443385E+02  0.5709053E-02  0.7039309E-03  0.7248621E+04  0.3458490E+02
  0.5761905E+00  0.6133199E+05  0.1229025E+03  0.2489326E-02  0.6477833E-03  0.7445654E+04  0.5107033E+02
  0.6071429E+00  0.6159582E+05  0.1754985E+03 -0.5026424E-02  0.3342628E-03  0.7569670E+04  0.7393330E+02
  0.6380953E+00  0.6191414E+05  0.2450406E+03  0.2582607E-02  0.5254745E-03  0.7827446E+04  0.1048692E+03
  0.6690477E+00  0.6233481E+05  0.3363242E+03 -0.5108708E-02 -0.1403809E-02  0.8224630E+04  0.1464490E+03
  0.7000000E+00  0.6278524E+05  0.4546230E+03 -0.1020159E-01 -0.1939774E-02  0.8528674E+04  0.2011497E+03
  0.7309524E+00  0.6319637E+05  0.6047600E+03  0.6179064E-02  0.7486343E-03  0.8763869E+04  0.2718210E+03
  0.7619048E+00  0.6361177E+05  0.7935582E+03  0.1033401E-01 -0.6952286E-03  0.9054088E+04  0.3626655E+03
  0.7928572E+00  0.6406303E+05  0.1028230E+04 -0.3387176E-02 -0.2250671E-03  0.9418293E+04  0.4781082E+03
  0.8238096E+00  0.6455702E+05  0.1316747E+04 -0.2296756E-02 -0.3080368E-02  0.9844818E+04  0.6232242E+03
  0.8547620E+00  0.6512313E+05  0.1667873E+04 -0.1321012E-01 -0.6990433E-02  0.1030080E+05  0.8035618E+03
  0.8857143E+00  0.6569177E+05  0.2090891E+04  0.6891066E-04  0.2361298E-02  0.1076916E+05  0.1025731E+04
  0.9166667E+00  0.6623229E+05  0.2595351E+04 -0.1864347E-02 -0.1964569E-02  0.1115179E+05  0.1295642E+04
  0.9476191E+00  0.6672357E+05  0.3190768E+04  0.5796806E-02 -0.7629395E-04  0.1153322E+05  0.1621367E+04
  0.9785714E+00  0.6722870E+05  0.3887062E+04 -0.1871151E-03 -0.2609253E-02  0.1195492E+05  0.2010615E+04
  0.1009524E+01  0.6774209E+05  0.4693575E+04 -0.4957667E-02 -0.1144409E-03  0.1247484E+05  0.2472829E+04
  0.1040476E+01  0.6827216E+05  0.5619830E+04 -0.7039295E-03 -0.3662109E-03  0.1302832E+05  0.3015823E+04
  0.1071429E+01  0.6878320E+05  0.6674633E+04 -0.4329427E-02 -0.4989624E-02  0.1352190E+05  0.3646449E+04
  0.1102381E+01  0.6922261E+05  0.7864859E+04 -0.2402913E-01 -0.2255249E-01  0.1401514E+05  0.4376297E+04
  0.1133333E+01  0.6962927E+05  0.9197675E+04 -0.2154182E-03 -0.1327515E-02  0.1444134E+05  0.5211575E+04
  0.1164286E+01  0.6993109E+05  0.1067575E+05 -0.1572685E-02 -0.4882812E-02  0.1482900E+05  0.6161763E+04
  0.1195238E+01  0.7016027E+05  0.1229759E+05  0.6944877E-02  0.7690430E-02  0.1519855E+05  0.7230328E+04
  0.1226190E+01  0.7029341E+05  0.1405976E+05  0.3882547E-02  0.4333496E-02  0.1549899E+05  0.8417237E+04
  0.1257143E+01  0.7030779E+05  0.1597004E+05  0.1097246E-01  0.1373291E-02  0.1575671E+05  0.9734747E+04
  0.1288095E+01  0.7026797E+05  0.1797829E+05  0.2937810E-02  0.1364136E-01  0.1600003E+05  0.1115758E+05
  0.1319048E+01  0.7012105E+05  0.2011552E+05  0.7866263E-02  0.2044678E-01  0.1616689E+05  0.1270897E+05
  0.1350000E+01  0.6985682E+05  0.2235208E+05 -0.4521123E-02 -0.5310059E-02  0.1626398E+05  0.1437635E+05
  0.1380952E+01  0.6949252E+05  0.2466607E+05 -0.1944706E-02  0.2807617E-02  0.1629456E+05  0.1614781E+05
  0.1411905E+01  0.6831162E+05  0.2657937E+05 -0.4063521E-02  0.1135254E-01  0.1549202E+05  0.1768592E+05
  0.1442857E+01  0.6774604E+05  0.2897139E+05 -0.4230159E-03 -0.5615234E-02  0.1536926E+05  0.1961588E+05
  0.1473810E+01  0.6707001E+05  0.3138265E+05 -0.2484791E-02  0.4272461E-03  0.1517444E+05  0.2162004E+05
  0.1504762E+01  0.6631184E+05  0.3378819E+05  0.3244907E-02 -0.6164551E-02  0.1489258E+05  0.2367771E+05
  0.1535714E+01  0.6544279E+05  0.3616695E+05  0.1001544E-01  0.1293945E-01  0.1453093E+05  0.2577837E+05
  0.1566667E+01  0.6449539E+05  0.3849474E+05  0.5064619E-02 -0.8239746E-02  0.1408372E+05  0.2789665E+05
  0.1597619E+01  0.6346899E+05  0.4074810E+05 -0.4508051E-02  0.3540039E-02  0.1357161E+05  0.3002588E+05
  0.1628572E+01  0.6238329E+05  0.4291741E+05  0.8245099E-03 -0.2380371E-02  0.1296532E+05  0.3214541E+05
  0.1659524E+01  0.6124446E+05  0.4498654E+05 -0.6767284E-02 -0.7812500E-02  0.1228710E+05  0.3424006E+05
  0.1690476E+01  0.6004877E+05  0.4694086E+05 -0.3610530E-03 -0.1318359E-01  0.1157177E+05  0.3631104E+05
  0.1721429E+01  0.5885030E+05  0.4876800E+05 -0.7871256E-02 -0.6591797E-02  0.1078876E+05  0.3831780E+05
  0.1752381E+01  0.5763678E+05  0.5045470E+05  0.3622304E-02 -0.1855469E-01  0.9986826E+04  0.4026880E+05
  0.1783333E+01  0.5640311E+05  0.5200633E+05 -0.1369013E-03  0.1562500E-01  0.9158628E+04  0.4215612E+05
  0.1814286E+01  0.5519067E+05  0.5341225E+05  0.2893163E-02  0.1818848E-01  0.8300329E+04  0.4394644E+05
  0.1845238E+01  0.5398515E+05  0.5467127E+05 -0.4498488E-02 -0.2075195E-02  0.7433266E+04  0.4566660E+05
  0.1876190E+01  0.5280620E+05  0.5579680E+05  0.1041006E-01  0.2075195E-02  0.6540477E+04  0.4729942E+05
  0.1907143E+01  0.5165331E+05  0.5680216E+05  0.8064871E-02 -0.5737305E-02  0.5614252E+04  0.4883173E+05
  0.1938095E+01  0.5050284E+05  0.5767156E+05  0.1322678E-02 -0.8544922E-03  0.4720956E+04  0.5031840E+05
  0.1969048E+01  0.4940145E+05  0.5842286E+05 -0.1239892E-03 -0.1477051E-01  0.3806435E+04  0.5169290E+05
  0.2000000E+01  0.4834875E+05  0.5905040E+05 -0.6286621E-02  0.2319336E-01  0.2900873E+04  0.5297825E+05
Zone t="Motion of body    1 in DoF   2",I=    64,F=POINT
  0.5000000E-01 -0.1098633E-01  0.1096725E-04  0.1151429E+06  0.3237147E+03  0.2136230E-02  0.6675720E-05
  0.8095238E-01 -0.1130946E-01 -0.3528595E-04  0.1137235E+06  0.5369666E+03  0.2638873E-02  0.3051758E-04
  0.1119048E+00 -0.5045140E-02 -0.2288818E-04  0.1129640E+06  0.7694377E+03  0.6817757E-02  0.1335144E-04
  0.1428571E+00 -0.1602173E-02  0.5722046E-05  0.1125997E+06  0.1029916E+04  0.2990722E-02 -0.7247925E-04
  0.1738095E+00  0.1755806E-03  0.4959106E-04  0.1125500E+06  0.1329969E+04 -0.3160450E-02  0.9536743E-04
  0.2047619E+00  0.8793321E-02 -0.1792908E-03  0.1127511E+06  0.1683469E+04  0.5961573E-02 -0.1296997E-03
  0.2357143E+00  0.4790334E-02  0.6484985E-04  0.1130765E+06  0.2110368E+04  0.3625118E-02  0.9918213E-04
  0.2666667E+00 -0.1533508E-01  0.8773804E-04  0.1136556E+06  0.2627938E+04  0.2059937E-02  0.7629395E-05
  0.2976190E+00 -0.4921875E-02  0.5607605E-03  0.1142851E+06  0.3273032E+04  0.4921875E-02  0.6866455E-04
  0.3285715E+00  0.0000000E+00 -0.1144409E-03  0.1149821E+06  0.4067050E+04  0.7058848E-02  0.3051758E-04
  0.3595238E+00 -0.6960433E-02 -0.4577637E-03  0.1156899E+06  0.5054046E+04  0.9846466E-02  0.2441406E-03
  0.3904762E+00 -0.1922607E-01 -0.1068115E-02  0.1164269E+06  0.6270571E+04 -0.3438810E-02 -0.3051758E-03
  0.4214286E+00  0.1839330E-01 -0.1091003E-02  0.1167790E+06  0.7704336E+04  0.7241458E-02 -0.5493164E-03
  0.4523810E+00 -0.1241262E-01 -0.7629395E-04  0.1170107E+06  0.9428995E+04  0.4857113E-02 -0.1831055E-03
  0.4833333E+00  0.8965854E-02 -0.1129150E-02  0.1169436E+06  0.1130921E+05  0.1490100E-01  0.3051758E-04
  0.5142857E+00  0.6764730E-02 -0.8392334E-03  0.1165063E+06  0.1343153E+05  0.8544923E-02  0.2441406E-03
  0.5452381E+00  0.4477688E-03  0.1373291E-02  0.1157209E+06  0.1568821E+05  0.1611968E-01  0.6713867E-03
  0.5761905E+00  0.6885370E-02 -0.1159668E-02  0.1147295E+06  0.1803842E+05  0.1694860E-01 -0.2441406E-03
  0.6071429E+00 -0.2010570E-03  0.7629395E-03  0.1135283E+06  0.2053166E+05  0.9248620E-02  0.2258301E-02
  0.6380953E+00  0.1147825E-01 -0.1556396E-02  0.1122148E+06  0.2304010E+05  0.2295651E-02 -0.1159668E-02
  0.6690477E+00  0.5291161E-02  0.5187988E-03  0.1106531E+06  0.2561713E+05  0.9122692E-02 -0.6103516E-03
  0.7000000E+00 -0.2685547E-01  0.1770020E-02  0.1088908E+06  0.2826771E+05 -0.3487723E-02 -0.7324219E-03
  0.7309524E+00 -0.6513067E-02 -0.3204346E-02  0.1071290E+06  0.3091397E+05  0.6346065E-02  0.1220703E-02
  0.7619048E+00 -0.1409912E-01  0.1892090E-02  0.1053004E+06  0.3357010E+05  0.1922607E-02  0.1464844E-02
  0.7928572E+00 -0.7236240E-02  0.3601074E-02  0.1033424E+06  0.3623573E+05  0.5850576E-02  0.4882812E-03
  0.8238096E+00 -0.1259512E-01  0.6713867E-03  0.1012724E+06  0.3889384E+05  0.1778134E-02  0.2441406E-03
  0.8547620E+00 -0.5855294E-02  0.1770020E-02  0.9914030E+05  0.4152124E+05 -0.3713113E-02  0.7324219E-03
  0.8857143E+00 -0.1143917E-01 -0.7202148E-02  0.9697952E+05  0.4409738E+05 -0.5788495E-02  0.2075195E-02
  0.9166667E+00  0.4927202E-02 -0.1586914E-02  0.9481388E+05  0.4660748E+05  0.1864347E-02  0.3540039E-02
  0.9476191E+00  0.7857893E-02  0.3662109E-02  0.9262856E+05  0.4904754E+05  0.2061087E-02  0.4882812E-03
  0.9785714E+00 -0.1995894E-02  0.5065918E-02  0.9043732E+05  0.5140726E+05  0.4989735E-02 -0.3906250E-02
  0.1009524E+01  0.1209187E-03  0.1159668E-02  0.8823248E+05  0.5368632E+05  0.2902049E-02 -0.6347656E-02
  0.1040476E+01  0.7391260E-02 -0.7507324E-02  0.8602551E+05  0.5587630E+05  0.3285004E-02 -0.2685547E-02
  0.1071429E+01 -0.1298828E-01  0.4638672E-02  0.8382323E+05  0.5797021E+05 -0.7063802E-02  0.1220703E-02
  0.1102381E+01 -0.3764933E-02 -0.3173828E-02  0.8164771E+05  0.5995689E+05 -0.4207866E-02 -0.2441406E-02
  0.1133333E+01 -0.1217113E-01 -0.6958008E-02  0.7952252E+05  0.6181717E+05  0.1507927E-02 -0.8056641E-02
  0.1164286E+01 -0.4508364E-02  0.6103516E-03  0.7745770E+05  0.6355389E+05  0.1467839E-02  0.1220703E-02
  0.1195238E+01 -0.3063916E-03 -0.8666992E-02  0.7545205E+05  0.6516318E+05  0.1184714E-01 -0.4394531E-02
  0.1226190E+01 -0.2787470E-02  0.2441406E-03  0.7349948E+05  0.6665931E+05  0.2986575E-02  0.1464844E-02
  0.1257143E+01 -0.2621737E-02  0.4394531E-02  0.7160945E+05  0.6809244E+05  0.2524636E-02 -0.1464844E-02
  0.1288095E+01  0.6823302E-02  0.4028320E-02  0.6974312E+05  0.6932597E+05  0.2274434E-02  0.6347656E-02
  0.1319048E+01 -0.7033365E-02 -0.6591797E-02  0.6794670E+05  0.7049205E+05  0.1850885E-03 -0.2929688E-02
  0.1350000E+01  0.1944083E-01 -0.1464844E-02  0.6620960E+05  0.7154472E+05  0.5425347E-03 -0.1147461E-01
  0.1380952E+01 -0.3005455E-02  0.9399414E-02  0.6454347E+05  0.7246475E+05  0.6187702E-02  0.4882812E-02
  0.1411905E+01 -0.8645789E-04 -0.7446289E-02  0.6244810E+05  0.7335215E+05  0.1210410E-02 -0.9033203E-02
  0.1442857E+01 -0.4145556E-02 -0.4882812E-02  0.6091214E+05  0.7410788E+05 -0.1353651E-02 -0.9765625E-02
  0.1473810E+01 -0.4969583E-03  0.7934570E-02  0.5943752E+05  0.7476560E+05  0.0000000E+00 -0.0000000E+00
  0.1504762E+01  0.6489814E-03 -0.0000000E+00  0.5802870E+05  0.7531317E+05  0.2920416E-02 -0.2441406E-02
  0.1535714E+01  0.8664153E-02 -0.1257324E-01  0.5667936E+05  0.7578038E+05  0.5087209E-02 -0.5371094E-02
  0.1566667E+01  0.2649185E-02 -0.1953125E-02  0.5539160E+05  0.7615005E+05 -0.3272523E-02 -0.6347656E-02
  0.1597619E+01  0.4584459E-03 -0.1354980E-01  0.5416346E+05  0.7643418E+05 -0.3056306E-03  0.2441406E-02
  0.1628572E+01 -0.6071392E-02  0.1708984E-02  0.5299727E+05  0.7664105E+05  0.5546703E-02  0.2685547E-02
  0.1659524E+01 -0.1213698E-01 -0.9399414E-02  0.5189158E+05  0.7677610E+05  0.3383642E-02 -0.1269531E-01
  0.1690476E+01 -0.4404847E-02 -0.7812500E-02  0.5083455E+05  0.7685339E+05 -0.8665273E-03 -0.2685547E-02
  0.1721429E+01 -0.6949397E-02 -0.3906250E-02  0.4984253E+05  0.7684129E+05  0.1418244E-03 -0.8789062E-02
  0.1752381E+01 -0.1393194E-03 -0.8422852E-02  0.4889833E+05  0.7675687E+05  0.2786388E-02 -0.3417969E-02
  0.1783333E+01  0.3217180E-02 -0.2075195E-02  0.4799953E+05  0.7661620E+05  0.5749854E-02 -0.1000977E-01
  0.1814286E+01  0.2085768E-02  0.6103516E-02  0.4715181E+05  0.7639284E+05  0.7266548E-02 -0.7324219E-03
  0.1845238E+01 -0.4895413E-02 -0.1330566E-01  0.4635121E+05  0.7611420E+05  0.6086190E-02 -0.5126953E-02
  0.1876190E+01  0.5270091E-02 -0.2197266E-02  0.4560096E+05  0.7578030E+05  0.4294149E-02 -0.6835938E-02
  0.1907143E+01  0.1472159E-02 -0.3417969E-02  0.4490236E+05  0.7541230E+05  0.1664180E-02  0.3417969E-02
  0.1938095E+01  0.1889540E-02  0.4516602E-02  0.4423436E+05  0.7502662E+05 -0.3149234E-02  0.1464844E-02
  0.1969048E+01 -0.9020214E-02 -0.6835938E-02  0.4361426E+05  0.7459145E+05 -0.2107816E-02 -0.5371094E-02
  0.2000000E+01  0.5065918E-02  0.5615234E-02  0.4303286E+05  0.7409270E+05  0.3295898E-02 -0.4882812E-02
Zone t="Motion of body    1 in DoF   3",I=    64,F=POINT
  0.5000000E-01  0.4705989E+04  0.1392420E-02  0.8316040E-02  0.2902129E-04  0.1100539E+06  0.6586321E-03
  0.8095238E-01  0.4526339E+04  0.6103102E-02  0.3062977E-01  0.1712431E-03  0.1102161E+06  0.2250732E-02
  0.1119048E+00  0.4567817E+04  0.1716998E-01 -0.1840794E-02  0.1879057E-04  0.1101849E+06  0.6176198E-02
  0.1428571E+00  0.4814817E+04  0.3884574E-01 -0.5020142E-02 -0.2140249E-04  0.1106999E+06  0.1367688E-01
  0.1738095E+00  0.4677489E+04  0.7774329E-01  0.8603448E-02  0.1346228E-03  0.1103227E+06  0.2776888E-01
  0.2047619E+00  0.4801846E+04  0.1440104E+00  0.3331029E-01  0.5368998E-03  0.1105895E+06  0.5238418E-01
  0.2357143E+00  0.4919634E+04  0.2554676E+00  0.9515935E-02  0.2188175E-03  0.1106193E+06  0.9393439E-01
  0.2666667E+00  0.4847086E+04  0.4391259E+00  0.1705170E-01  0.4308363E-03  0.1104599E+06  0.1619930E+00
  0.2976190E+00  0.5059446E+04  0.7419658E+00  0.1045898E-01  0.3663013E-03  0.1108018E+06  0.2754109E+00
  0.3285715E+00  0.5240466E+04  0.1239073E+01  0.2424157E-01  0.9444710E-03  0.1109522E+06  0.4656941E+00
  0.3595238E+00  0.5151313E+04  0.2052961E+01  0.4821373E-01  0.2297711E-02  0.1106294E+06  0.7773555E+00
  0.3904762E+00  0.5260012E+04  0.3381979E+01  0.1242661E-01  0.9223893E-03  0.1108190E+06  0.1293339E+01
  0.4214286E+00  0.5687717E+04  0.5500781E+01  0.2331750E-01  0.1850933E-02  0.1114716E+06  0.2134075E+01
  0.4523810E+00  0.5717745E+04  0.8871146E+01  0.2023797E-03  0.5130470E-04  0.1111945E+06  0.3486184E+01
  0.4833333E+00  0.5814577E+04  0.1396192E+02  0.7955616E-02  0.1355305E-02  0.1113381E+06  0.5553820E+01
  0.5142857E+00  0.6101315E+04  0.2160905E+02  0.1222399E-01  0.1765192E-02  0.1117637E+06  0.8717664E+01
  0.5452381E+00  0.6335724E+04  0.3269204E+02  0.2955274E-01  0.4753888E-02  0.1118903E+06  0.1338737E+02
  0.5761905E+00  0.6503960E+04  0.4834376E+02  0.2256283E-01  0.4507542E-02  0.1118894E+06  0.2009050E+02
  0.6071429E+00  0.6630982E+04  0.7012315E+02  0.1417452E-01  0.3360510E-02  0.1119555E+06  0.2958334E+02
  0.6380953E+00  0.6900125E+04  0.9947723E+02 -0.6504343E-02 -0.1078486E-02  0.1123062E+06  0.4255977E+02
  0.6690477E+00  0.7296036E+04  0.1387708E+03  0.1988747E-01  0.5604029E-02  0.1127709E+06  0.6038968E+02
  0.7000000E+00  0.7556201E+04  0.1908506E+03 -0.1133510E-02 -0.4951954E-03  0.1127932E+06  0.8445915E+02
  0.7309524E+00  0.7759063E+04  0.2584895E+03 -0.6847071E-02 -0.2717495E-02  0.1127667E+06  0.1162534E+03
  0.7619048E+00  0.8062128E+04  0.3452184E+03  0.2803802E-02  0.5488396E-03  0.1131037E+06  0.1578506E+03
  0.7928572E+00  0.8432917E+04  0.4551876E+03 -0.1085436E-01 -0.3754616E-02  0.1135052E+06  0.2115760E+03
  0.8238096E+00  0.8846830E+04  0.5932787E+03  0.4815780E-02  0.2874374E-02  0.1139089E+06  0.2805011E+03
  0.8547620E+00  0.9277662E+04  0.7653865E+03  0.5712482E-03  0.2014160E-02  0.1142312E+06  0.3683520E+03
  0.8857143E+00  0.9716990E+04  0.9776077E+03 -0.1467797E-01 -0.7827759E-02  0.1145569E+06  0.4794532E+03
  0.9166667E+00  0.1006982E+05  0.1237643E+04  0.5326705E-02  0.5920410E-02  0.1146666E+06  0.6184477E+03
  0.9476191E+00  0.1044420E+05  0.1550833E+04 -0.6440896E-02 -0.7057190E-04  0.1149707E+06  0.7889752E+03
  0.9785714E+00  0.1086848E+05  0.1924583E+04 -0.4490762E-02 -0.3475189E-02  0.1154089E+06  0.9956034E+03
  0.1009524E+01  0.1138500E+05  0.2365770E+04 -0.9673497E-03  0.1575470E-02  0.1160074E+06  0.1244788E+04
  0.1040476E+01  0.1192695E+05  0.2884740E+04  0.7039295E-02  0.9567261E-02  0.1165616E+06  0.1544687E+04
  0.1071429E+01  0.1239930E+05  0.3491809E+04 -0.2210286E-01 -0.2263641E-01  0.1169619E+06  0.1903470E+04
  0.1102381E+01  0.1285596E+05  0.4193881E+04 -0.4540066E-02 -0.6530762E-02  0.1173105E+06  0.2330939E+04
  0.1133333E+01  0.1326037E+05  0.5004218E+04  0.4739200E-02  0.7148743E-02  0.1175947E+06  0.2837314E+04
  0.1164286E+01  0.1363540E+05  0.5923978E+04  0.2170305E-01  0.2805328E-01  0.1179644E+06  0.3427527E+04
  0.1195238E+01  0.1400927E+05  0.6955398E+04  0.2083463E-01  0.3515625E-01  0.1184406E+06  0.4101647E+04
  0.1226190E+01  0.1431347E+05  0.8104307E+04  0.6769569E-02  0.8117676E-02  0.1188325E+06  0.4863738E+04
  0.1257143E+01  0.1457267E+05  0.9381290E+04  0.7476806E-02  0.1196289E-01  0.1192291E+06  0.5727303E+04
  0.1288095E+01  0.1481054E+05  0.1075358E+05  0.1516289E-02  0.6011963E-02  0.1196285E+06  0.6680088E+04
  0.1319048E+01  0.1498187E+05  0.1226310E+05  0.3053961E-02  0.5615234E-02  0.1199281E+06  0.7754917E+04
  0.1350000E+01  0.1507827E+05  0.1388188E+05  0.1175492E-01  0.1544189E-01  0.1202045E+06  0.8935697E+04
  0.1380952E+01  0.1510833E+05  0.1560319E+05  0.1325936E-01  0.3668213E-01  0.1204184E+06  0.1021822E+05
  0.1411905E+01  0.1253679E+05  0.1594112E+05  0.5101016E-02  0.5676270E-02  0.1179311E+06  0.1060008E+05
  0.1442857E+01  0.1243570E+05  0.1770915E+05  0.1015238E-02 -0.2746582E-03  0.1180750E+06  0.1197440E+05
  0.1473810E+01  0.1226772E+05  0.1954291E+05 -0.4638277E-02 -0.1470947E-01  0.1182068E+06  0.1344326E+05
  0.1504762E+01  0.1203454E+05  0.2143775E+05  0.3407152E-02 -0.7629395E-02  0.1182794E+06  0.1499159E+05
  0.1535714E+01  0.1171974E+05  0.2336681E+05  0.1025391E-01  0.7812500E-02  0.1183134E+06  0.1661434E+05
  0.1566667E+01  0.1133198E+05  0.2531468E+05  0.1324593E-02 -0.1184082E-01  0.1183079E+06  0.1829282E+05
  0.1597619E+01  0.1087690E+05  0.2728071E+05  0.4278828E-02  0.3845215E-02  0.1181961E+06  0.2003775E+05
  0.1628572E+01  0.1033576E+05  0.2925838E+05  0.2998218E-02 -0.7690430E-02  0.1179693E+06  0.2183435E+05
  0.1659524E+01  0.9724096E+04  0.3121231E+05  0.5884595E-02  0.4333496E-02  0.1177171E+06  0.2367289E+05
  0.1690476E+01  0.9063038E+04  0.3312758E+05  0.8665273E-03 -0.2441406E-03  0.1174032E+06  0.2552766E+05
  0.1721429E+01  0.8345975E+04  0.3500553E+05  0.3332874E-02 -0.1800537E-01  0.1170336E+06  0.2739340E+05
  0.1752381E+01  0.7614190E+04  0.3683737E+05  0.2577409E-02  0.7324219E-03  0.1166045E+06  0.2925735E+05
  0.1783333E+01  0.6849995E+04  0.3857647E+05  0.3422532E-02  0.1739502E-01  0.1162039E+06  0.3110810E+05
  0.1814286E+01  0.6073785E+04  0.4023933E+05  0.2691314E-03  0.2038574E-01  0.1157995E+06  0.3292792E+05
  0.1845238E+01  0.5282252E+04  0.4184707E+05  0.6218498E-02  0.1446533E-01  0.1153166E+06  0.3474286E+05
  0.1876190E+01  0.4468321E+04  0.4339329E+05 -0.9759429E-03 -0.1733398E-01  0.1147678E+06  0.3652123E+05
  0.1907143E+01  0.3618609E+04  0.4484882E+05  0.7872850E-02  0.3417969E-02  0.1142212E+06  0.3829718E+05
  0.1938095E+01  0.2782335E+04  0.4622617E+05  0.6802346E-02 -0.3784180E-02  0.1136261E+06  0.4001969E+05
  0.1969048E+01  0.1929898E+04  0.4751737E+05  0.1053908E-02 -0.1013184E-01  0.1130213E+06  0.4172107E+05
  0.2000000E+01  0.1089752E+04  0.4874976E+05 -0.1220703E-02  0.1037598E-01  0.1123670E+06  0.4334915E+05
