VARIABLES="w (rad/s)"
"abs(F   1   1)" "angle(F   1   1)"
"abs(F   1   2)" "angle(F   1   2)"
"abs(F   1   3)" "angle(F   1   3)"
Zone t="Diffraction force - beta =   0.000 deg",I=    64,F=POINT
  0.5000000E-01  0.1180023E+04 -0.1570795E+01  0.2063143E+03 -0.3089970E+01  0.6229004E+03  0.1570796E+01
  0.8095238E-01  0.1930382E+04 -0.1570792E+01  0.5344673E+03 -0.3088089E+01  0.1019766E+04  0.1570796E+01
  0.1119048E+00  0.2691812E+04 -0.1570788E+01  0.1015382E+04 -0.3085832E+01  0.1422193E+04  0.1570796E+01
  0.1428571E+00  0.3479103E+04 -0.1570781E+01  0.1649080E+04 -0.3082944E+01  0.1826519E+04  0.1570796E+01
  0.1738095E+00  0.4290880E+04 -0.1570772E+01  0.2441004E+04 -0.3079381E+01  0.2252534E+04  0.1570795E+01
  0.2047619E+00  0.5146996E+04 -0.1570758E+01  0.3391749E+04 -0.3074866E+01  0.2683080E+04  0.1570794E+01
  0.2357143E+00  0.6049685E+04 -0.1570737E+01  0.4508942E+04 -0.3069208E+01  0.3144550E+04  0.1570793E+01
  0.2666667E+00  0.7010115E+04 -0.1570708E+01  0.5797515E+04 -0.3062350E+01  0.3629424E+04  0.1570790E+01
  0.2976190E+00  0.8051215E+04 -0.1570664E+01  0.7257114E+04 -0.3053654E+01  0.4134361E+04  0.1570787E+01
  0.3285715E+00  0.9178812E+04 -0.1570599E+01  0.8902713E+04 -0.3043338E+01  0.4685495E+04  0.1570780E+01
  0.3595238E+00  0.1040267E+05 -0.1570501E+01  0.1072968E+05 -0.3030807E+01  0.5284940E+04  0.1570769E+01
  0.3904762E+00  0.1175022E+05 -0.1570355E+01  0.1273813E+05 -0.3015928E+01  0.5912347E+04  0.1570749E+01
  0.4214286E+00  0.1323721E+05 -0.1570143E+01  0.1490162E+05 -0.2999199E+01  0.6591538E+04  0.1570717E+01
  0.4523810E+00  0.1484484E+05 -0.1569832E+01  0.1725406E+05 -0.2980052E+01  0.7340754E+04  0.1570667E+01
  0.4833333E+00  0.1658109E+05 -0.1569403E+01  0.1972978E+05 -0.2960580E+01  0.8124090E+04  0.1570587E+01
  0.5142857E+00  0.1846206E+05 -0.1568809E+01  0.2232349E+05 -0.2939363E+01  0.8913392E+04  0.1570460E+01
  0.5452381E+00  0.2045442E+05 -0.1568020E+01  0.2503917E+05 -0.2918298E+01  0.9756098E+04  0.1570273E+01
  0.5761905E+00  0.2251346E+05 -0.1566998E+01  0.2786157E+05 -0.2897729E+01  0.1066561E+05  0.1570013E+01
  0.6071429E+00  0.2465520E+05 -0.1565684E+01  0.3076909E+05 -0.2876601E+01  0.1154346E+05  0.1569636E+01
  0.6380953E+00  0.2688225E+05 -0.1564060E+01  0.3376170E+05 -0.2856649E+01  0.1238797E+05  0.1569101E+01
  0.6690477E+00  0.2915684E+05 -0.1562057E+01  0.3680797E+05 -0.2836805E+01  0.1322599E+05  0.1568370E+01
  0.7000000E+00  0.3145225E+05 -0.1559607E+01  0.3992145E+05 -0.2817100E+01  0.1410043E+05  0.1567414E+01
  0.7309524E+00  0.3375428E+05 -0.1556674E+01  0.4311229E+05 -0.2798440E+01  0.1496733E+05  0.1566164E+01
  0.7619048E+00  0.3606242E+05 -0.1553193E+01  0.4632729E+05 -0.2780023E+01  0.1578290E+05  0.1564519E+01
  0.7928572E+00  0.3838532E+05 -0.1549112E+01  0.4954562E+05 -0.2761766E+01  0.1651891E+05  0.1562359E+01
  0.8238096E+00  0.4070177E+05 -0.1544380E+01  0.5276977E+05 -0.2743933E+01  0.1721067E+05  0.1559596E+01
  0.8547620E+00  0.4297295E+05 -0.1538936E+01  0.5600137E+05 -0.2726780E+01  0.1791301E+05  0.1556192E+01
  0.8857143E+00  0.4515729E+05 -0.1532712E+01  0.5922942E+05 -0.2710355E+01  0.1862840E+05  0.1552063E+01
  0.9166667E+00  0.4725428E+05 -0.1525684E+01  0.6244614E+05 -0.2694722E+01  0.1930396E+05  0.1547037E+01
  0.9476191E+00  0.4925620E+05 -0.1517837E+01  0.6561517E+05 -0.2679538E+01  0.1992442E+05  0.1540971E+01
  0.9785714E+00  0.5114812E+05 -0.1509162E+01  0.6871728E+05 -0.2664794E+01  0.2048994E+05  0.1533739E+01
  0.1009524E+01  0.5288730E+05 -0.1499639E+01  0.7174084E+05 -0.2650514E+01  0.2101598E+05  0.1525253E+01
  0.1040476E+01  0.5447232E+05 -0.1489302E+01  0.7469511E+05 -0.2637024E+01  0.2153346E+05  0.1515529E+01
  0.1071429E+01  0.5584067E+05 -0.1478129E+01  0.7756546E+05 -0.2624310E+01  0.2208311E+05  0.1504702E+01
  0.1102381E+01  0.5696516E+05 -0.1466163E+01  0.8036087E+05 -0.2612658E+01  0.2268209E+05  0.1492940E+01
  0.1133333E+01  0.5782536E+05 -0.1453478E+01  0.8305836E+05 -0.2601925E+01  0.2334835E+05  0.1480551E+01
  0.1164286E+01  0.5836743E+05 -0.1440135E+01  0.8564601E+05 -0.2591983E+01  0.2403529E+05  0.1467538E+01
  0.1195238E+01  0.5861149E+05 -0.1426341E+01  0.8812621E+05 -0.2582836E+01  0.2478420E+05  0.1454509E+01
  0.1226190E+01  0.5851261E+05 -0.1412199E+01  0.9047355E+05 -0.2574412E+01  0.2560173E+05  0.1441888E+01
  0.1257143E+01  0.5805834E+05 -0.1397785E+01  0.9269789E+05 -0.2566531E+01  0.2652663E+05  0.1430316E+01
  0.1288095E+01  0.5723333E+05 -0.1383717E+01  0.9476316E+05 -0.2560231E+01  0.2752306E+05  0.1420310E+01
  0.1319048E+01  0.5601641E+05 -0.1369827E+01  0.9669318E+05 -0.2554453E+01  0.2868142E+05  0.1412804E+01
  0.1350000E+01  0.5439055E+05 -0.1356547E+01  0.9847868E+05 -0.2549599E+01  0.2997354E+05  0.1408157E+01
  0.1380952E+01  0.5236584E+05 -0.1344355E+01  0.1001260E+06 -0.2545995E+01  0.3139922E+05  0.1406790E+01
  0.1411905E+01  0.4994614E+05 -0.1333522E+01  0.1014436E+06 -0.2543869E+01  0.3296802E+05  0.1408981E+01
  0.1442857E+01  0.4714164E+05 -0.1324779E+01  0.1027856E+06 -0.2542377E+01  0.3467698E+05  0.1414857E+01
  0.1473810E+01  0.4394746E+05 -0.1318959E+01  0.1039980E+06 -0.2542002E+01  0.3653058E+05  0.1424567E+01
  0.1504762E+01  0.4039473E+05 -0.1317254E+01  0.1050811E+06 -0.2542525E+01  0.3854555E+05  0.1438181E+01
  0.1535714E+01  0.3648993E+05 -0.1321281E+01  0.1060189E+06 -0.2543935E+01  0.4070386E+05  0.1455363E+01
  0.1566667E+01  0.3228638E+05 -0.1333877E+01  0.1068479E+06 -0.2546599E+01  0.4302450E+05  0.1475992E+01
  0.1597619E+01  0.2781922E+05 -0.1359692E+01  0.1075736E+06 -0.2550548E+01  0.4547954E+05  0.1499547E+01
  0.1628572E+01  0.2315691E+05 -0.1407138E+01  0.1081883E+06 -0.2555450E+01  0.4809592E+05  0.1525734E+01
  0.1659524E+01  0.1841563E+05 -0.1493905E+01  0.1087171E+06 -0.2561490E+01  0.5085393E+05  0.1554109E+01
  0.1690476E+01  0.1382945E+05 -0.1659999E+01  0.1091753E+06 -0.2568464E+01  0.5375316E+05  0.1584309E+01
  0.1721429E+01  0.1001888E+05 -0.1998008E+01  0.1095778E+06 -0.2575978E+01  0.5676534E+05  0.1615828E+01
  0.1752381E+01  0.8554991E+04 -0.2596710E+01  0.1099190E+06 -0.2583961E+01  0.5992323E+05  0.1648377E+01
  0.1783333E+01  0.1070460E+05  0.3117005E+01  0.1101723E+06 -0.2591984E+01  0.6320296E+05  0.1681584E+01
  0.1814286E+01  0.1511378E+05  0.2808619E+01  0.1103885E+06 -0.2600356E+01  0.6659953E+05  0.1715081E+01
  0.1845238E+01  0.2042271E+05  0.2653050E+01  0.1105511E+06 -0.2608784E+01  0.7010103E+05  0.1748599E+01
  0.1876190E+01  0.2609169E+05  0.2568001E+01  0.1106053E+06 -0.2616574E+01  0.7370711E+05  0.1781960E+01
  0.1907143E+01  0.3192374E+05  0.2517400E+01  0.1105449E+06 -0.2623542E+01  0.7738375E+05  0.1814840E+01
  0.1938095E+01  0.3780888E+05  0.2485769E+01  0.1103348E+06 -0.2629532E+01  0.8113522E+05  0.1847223E+01
  0.1969048E+01  0.4369417E+05  0.2465130E+01  0.1099314E+06 -0.2634583E+01  0.8492107E+05  0.1878917E+01
  0.2000000E+01  0.4952157E+05  0.2451672E+01  0.1092838E+06 -0.2638404E+01  0.8870488E+05  0.1909796E+01
