VARIABLES="w (rad/s)"
"abs(F   1   1)" "angle(F   1   1)"
"abs(F   1   2)" "angle(F   1   2)"
"abs(F   1   3)" "angle(F   1   3)"
Zone t="Diffraction force - beta =   0.000 deg",I=    64,F=POINT
  0.5000000E-01  0.2801833E+04 -0.1570789E+01  0.4566824E+06 -0.3125763E-04  0.6574181E+02 -0.1571078E+01
  0.8095238E-01  0.4571767E+04 -0.1570803E+01  0.4557907E+06 -0.8407338E-04  0.1070368E+03 -0.1570952E+01
  0.1119048E+00  0.6379904E+04 -0.1570790E+01  0.4544814E+06 -0.1669046E-03  0.1497282E+03 -0.1570910E+01
  0.1428571E+00  0.8259287E+04 -0.1570799E+01  0.4527543E+06 -0.2860810E-03  0.1946170E+03 -0.1570887E+01
  0.1738095E+00  0.1020215E+05 -0.1570791E+01  0.4506061E+06 -0.4511355E-03  0.2412106E+03 -0.1570854E+01
  0.2047619E+00  0.1226527E+05 -0.1570780E+01  0.4480323E+06 -0.6758330E-03  0.2911165E+03 -0.1570844E+01
  0.2357143E+00  0.1445323E+05 -0.1570772E+01  0.4450299E+06 -0.9805431E-03  0.3455195E+03 -0.1570828E+01
  0.2666667E+00  0.1679376E+05 -0.1570763E+01  0.4415927E+06 -0.1389878E-02  0.4032217E+03 -0.1570806E+01
  0.2976190E+00  0.1935374E+05 -0.1570742E+01  0.4377193E+06 -0.1945839E-02  0.4682629E+03 -0.1570783E+01
  0.3285715E+00  0.2214168E+05 -0.1570721E+01  0.4334083E+06 -0.2690619E-02  0.5403118E+03 -0.1570754E+01
  0.3595238E+00  0.2519571E+05 -0.1570682E+01  0.4286659E+06 -0.3691640E-02  0.6201964E+03 -0.1570708E+01
  0.3904762E+00  0.2859074E+05 -0.1570620E+01  0.4234942E+06 -0.5023931E-02  0.7104738E+03 -0.1570647E+01
  0.4214286E+00  0.3236520E+05 -0.1570539E+01  0.4179465E+06 -0.6734671E-02  0.8157631E+03 -0.1570559E+01
  0.4523810E+00  0.3646211E+05 -0.1570415E+01  0.4120138E+06 -0.8954649E-02  0.9242601E+03 -0.1570435E+01
  0.4833333E+00  0.4095212E+05 -0.1570242E+01  0.4057620E+06 -0.1162164E-01  0.1051640E+04 -0.1570258E+01
  0.5142857E+00  0.4586957E+05 -0.1570002E+01  0.3992174E+06 -0.1488919E-01  0.1192920E+04 -0.1570017E+01
  0.5452381E+00  0.5112404E+05 -0.1569683E+01  0.3924083E+06 -0.1870559E-01  0.1348940E+04 -0.1569695E+01
  0.5761905E+00  0.5663278E+05 -0.1569266E+01  0.3853550E+06 -0.2307807E-01  0.1509201E+04 -0.1569279E+01
  0.6071429E+00  0.6245322E+05 -0.1568728E+01  0.3781000E+06 -0.2813648E-01  0.1683964E+04 -0.1568739E+01
  0.6380953E+00  0.6859089E+05 -0.1568057E+01  0.3706292E+06 -0.3375162E-01  0.1880385E+04 -0.1568064E+01
  0.6690477E+00  0.7500787E+05 -0.1567221E+01  0.3629984E+06 -0.4004681E-01  0.2092006E+04 -0.1567230E+01
  0.7000000E+00  0.8159761E+05 -0.1566193E+01  0.3552498E+06 -0.4709432E-01  0.2305829E+04 -0.1566200E+01
  0.7309524E+00  0.8830345E+05 -0.1564950E+01  0.3473578E+06 -0.5483143E-01  0.2528367E+04 -0.1564955E+01
  0.7619048E+00  0.9527394E+05 -0.1563462E+01  0.3393577E+06 -0.6333110E-01  0.2774308E+04 -0.1563470E+01
  0.7928572E+00  0.1024811E+06 -0.1561700E+01  0.3313110E+06 -0.7263321E-01  0.3033702E+04 -0.1561710E+01
  0.8238096E+00  0.1098612E+06 -0.1559631E+01  0.3232363E+06 -0.8275075E-01  0.3309584E+04 -0.1559641E+01
  0.8547620E+00  0.1173727E+06 -0.1557223E+01  0.3151300E+06 -0.9368861E-01  0.3605359E+04 -0.1557234E+01
  0.8857143E+00  0.1249530E+06 -0.1554444E+01  0.3070134E+06 -0.1054577E+00  0.3901793E+04 -0.1554448E+01
  0.9166667E+00  0.1325455E+06 -0.1551265E+01  0.2989103E+06 -0.1180780E+00  0.4200294E+04 -0.1551262E+01
  0.9476191E+00  0.1402411E+06 -0.1547674E+01  0.2908604E+06 -0.1315733E+00  0.4521504E+04 -0.1547678E+01
  0.9785714E+00  0.1480343E+06 -0.1543656E+01  0.2828734E+06 -0.1459458E+00  0.4867919E+04 -0.1543686E+01
  0.1009524E+01  0.1558976E+06 -0.1539194E+01  0.2749544E+06 -0.1611929E+00  0.5232064E+04 -0.1539227E+01
  0.1040476E+01  0.1637317E+06 -0.1534277E+01  0.2671311E+06 -0.1773230E+00  0.5601651E+04 -0.1534316E+01
  0.1071429E+01  0.1714728E+06 -0.1528893E+01  0.2594121E+06 -0.1943312E+00  0.5978178E+04 -0.1528935E+01
  0.1102381E+01  0.1790261E+06 -0.1523045E+01  0.2518111E+06 -0.2122324E+00  0.6360600E+04 -0.1523060E+01
  0.1133333E+01  0.1863498E+06 -0.1516751E+01  0.2443199E+06 -0.2310123E+00  0.6746177E+04 -0.1516711E+01
  0.1164286E+01  0.1934435E+06 -0.1510062E+01  0.2369226E+06 -0.2506735E+00  0.7142306E+04 -0.1510006E+01
  0.1195238E+01  0.2003213E+06 -0.1503068E+01  0.2296609E+06 -0.2712456E+00  0.7539701E+04 -0.1503021E+01
  0.1226190E+01  0.2068880E+06 -0.1495825E+01  0.2225433E+06 -0.2927235E+00  0.7934955E+04 -0.1495858E+01
  0.1257143E+01  0.2130645E+06 -0.1488346E+01  0.2155886E+06 -0.3152812E+00  0.8333128E+04 -0.1488365E+01
  0.1288095E+01  0.2188503E+06 -0.1480876E+01  0.2087915E+06 -0.3383792E+00  0.8740609E+04 -0.1480845E+01
  0.1319048E+01  0.2241227E+06 -0.1473350E+01  0.2021389E+06 -0.3625432E+00  0.9142244E+04 -0.1473261E+01
  0.1350000E+01  0.2288730E+06 -0.1465980E+01  0.1956251E+06 -0.3875827E+00  0.9535744E+04 -0.1465925E+01
  0.1380952E+01  0.2330718E+06 -0.1458934E+01  0.1892604E+06 -0.4134788E+00  0.9908578E+04 -0.1458888E+01
  0.1411905E+01  0.2362170E+06 -0.1452869E+01  0.1831495E+06 -0.4398843E+00  0.1020351E+05 -0.1452918E+01
  0.1442857E+01  0.2391829E+06 -0.1446905E+01  0.1771207E+06 -0.4675560E+00  0.1053980E+05 -0.1446927E+01
  0.1473810E+01  0.2414825E+06 -0.1441666E+01  0.1712665E+06 -0.4961204E+00  0.1086672E+05 -0.1441565E+01
  0.1504762E+01  0.2431492E+06 -0.1437340E+01  0.1655535E+06 -0.5255826E+00  0.1117985E+05 -0.1437260E+01
  0.1535714E+01  0.2441917E+06 -0.1434107E+01  0.1599872E+06 -0.5559246E+00  0.1147455E+05 -0.1433988E+01
  0.1566667E+01  0.2446136E+06 -0.1432094E+01  0.1545705E+06 -0.5871330E+00  0.1173824E+05 -0.1432031E+01
  0.1597619E+01  0.2444271E+06 -0.1431423E+01  0.1493099E+06 -0.6192132E+00  0.1197409E+05 -0.1431372E+01
  0.1628572E+01  0.2436495E+06 -0.1432208E+01  0.1442049E+06 -0.6522133E+00  0.1217843E+05 -0.1432163E+01
  0.1659524E+01  0.2423445E+06 -0.1434589E+01  0.1392441E+06 -0.6861038E+00  0.1236468E+05 -0.1434580E+01
  0.1690476E+01  0.2405383E+06 -0.1438655E+01  0.1344599E+06 -0.7208627E+00  0.1253598E+05 -0.1438646E+01
  0.1721429E+01  0.2382809E+06 -0.1444475E+01  0.1298044E+06 -0.7565423E+00  0.1268557E+05 -0.1444508E+01
  0.1752381E+01  0.2356121E+06 -0.1452122E+01  0.1252883E+06 -0.7931415E+00  0.1281343E+05 -0.1452046E+01
  0.1783333E+01  0.2326001E+06 -0.1461643E+01  0.1208933E+06 -0.8306139E+00  0.1291998E+05 -0.1461449E+01
  0.1814286E+01  0.2292863E+06 -0.1473063E+01  0.1166244E+06 -0.8689389E+00  0.1300040E+05 -0.1472781E+01
  0.1845238E+01  0.2257011E+06 -0.1486394E+01  0.1124892E+06 -0.9081561E+00  0.1306021E+05 -0.1486217E+01
  0.1876190E+01  0.2218899E+06 -0.1501659E+01  0.1084891E+06 -0.9483613E+00  0.1309616E+05 -0.1501773E+01
  0.1907143E+01  0.2178969E+06 -0.1518856E+01  0.1046122E+06 -0.9894992E+00  0.1312086E+05 -0.1519208E+01
  0.1938095E+01  0.2137666E+06 -0.1537971E+01  0.1008806E+06 -0.1031497E+01  0.1313776E+05 -0.1538352E+01
  0.1969048E+01  0.2095224E+06 -0.1558977E+01  0.9726288E+05 -0.1074448E+01  0.1314467E+05 -0.1559348E+01
  0.2000000E+01  0.2051962E+06 -0.1581861E+01  0.9374978E+05 -0.1118408E+01  0.1314377E+05 -0.1582123E+01
