VARIABLES="w (rad/s)"
"abs(F   1   1)" "angle(F   1   1)"
"abs(F   1   2)" "angle(F   1   2)"
"abs(F   1   3)" "angle(F   1   3)"
Zone t="Diffraction force - beta =   0.000 deg",I=    64,F=POINT
  0.5000000E-01  0.5859187E+04 -0.1570800E+01  0.2102450E+06 -0.1443327E-04  0.2537070E+05  0.1570818E+01
  0.8095238E-01  0.9568022E+04 -0.1570793E+01  0.2093303E+06 -0.3873510E-04  0.4136430E+05  0.1570797E+01
  0.1119048E+00  0.1334050E+05 -0.1570787E+01  0.2079865E+06 -0.7663969E-04  0.5761129E+05  0.1570804E+01
  0.1428571E+00  0.1722119E+05 -0.1570785E+01  0.2062168E+06 -0.1308347E-03  0.7428550E+05  0.1570801E+01
  0.1738095E+00  0.2124721E+05 -0.1570777E+01  0.2040245E+06 -0.2050822E-03  0.9150295E+05  0.1570818E+01
  0.2047619E+00  0.2545289E+05 -0.1570765E+01  0.2014154E+06 -0.3054074E-03  0.1094552E+06  0.1570824E+01
  0.2357143E+00  0.2988892E+05 -0.1570747E+01  0.1983991E+06 -0.4399722E-03  0.1283116E+06  0.1570843E+01
  0.2666667E+00  0.3462708E+05 -0.1570726E+01  0.1949790E+06 -0.6179446E-03  0.1482998E+06  0.1570868E+01
  0.2976190E+00  0.3969733E+05 -0.1570689E+01  0.1911816E+06 -0.8575658E-03  0.1696242E+06  0.1570905E+01
  0.3285715E+00  0.4521160E+05 -0.1570640E+01  0.1870077E+06 -0.1172922E-02  0.1926669E+06  0.1570951E+01
  0.3595238E+00  0.5119909E+05 -0.1570566E+01  0.1825037E+06 -0.1591670E-02  0.2175342E+06  0.1571029E+01
  0.3904762E+00  0.5775941E+05 -0.1570452E+01  0.1776753E+06 -0.2141247E-02  0.2445737E+06  0.1571140E+01
  0.4214286E+00  0.6492145E+05 -0.1570290E+01  0.1725835E+06 -0.2833313E-02  0.2739798E+06  0.1571302E+01
  0.4523810E+00  0.7273868E+05 -0.1570052E+01  0.1672493E+06 -0.3729329E-02  0.3057619E+06  0.1571539E+01
  0.4833333E+00  0.8117534E+05 -0.1569730E+01  0.1617199E+06 -0.4775685E-02  0.3397737E+06  0.1571864E+01
  0.5142857E+00  0.9019834E+05 -0.1569284E+01  0.1560478E+06 -0.6052454E-02  0.3758959E+06  0.1572308E+01
  0.5452381E+00  0.9980162E+05 -0.1568698E+01  0.1502245E+06 -0.7520912E-02  0.4139719E+06  0.1572894E+01
  0.5761905E+00  0.1097694E+06 -0.1567944E+01  0.1443474E+06 -0.9171535E-02  0.4530941E+06  0.1573648E+01
  0.6071429E+00  0.1201545E+06 -0.1566981E+01  0.1383928E+06 -0.1108529E-01  0.4932094E+06  0.1574611E+01
  0.6380953E+00  0.1308823E+06 -0.1565798E+01  0.1323703E+06 -0.1317024E-01  0.5341813E+06  0.1575795E+01
  0.6690477E+00  0.1417925E+06 -0.1564345E+01  0.1263761E+06 -0.1548406E-01  0.5754126E+06  0.1577247E+01
  0.7000000E+00  0.1529137E+06 -0.1562582E+01  0.1203757E+06 -0.1808619E-01  0.6167362E+06  0.1579011E+01
  0.7309524E+00  0.1642820E+06 -0.1560482E+01  0.1143677E+06 -0.2093901E-01  0.6581594E+06  0.1581110E+01
  0.7619048E+00  0.1756308E+06 -0.1557997E+01  0.1084765E+06 -0.2402199E-01  0.6987203E+06  0.1583594E+01
  0.7928572E+00  0.1871015E+06 -0.1555082E+01  0.1026486E+06 -0.2742608E-01  0.7389779E+06  0.1586509E+01
  0.8238096E+00  0.1987296E+06 -0.1551697E+01  0.9689272E+05 -0.3117543E-01  0.7787869E+06  0.1589895E+01
  0.8547620E+00  0.2102116E+06 -0.1547800E+01  0.9125138E+05 -0.3524704E-01  0.8175004E+06  0.1593791E+01
  0.8857143E+00  0.2216253E+06 -0.1543351E+01  0.8578555E+05 -0.3958784E-01  0.8550183E+06  0.1598238E+01
  0.9166667E+00  0.2329743E+06 -0.1538316E+01  0.8044823E+05 -0.4433592E-01  0.8910151E+06  0.1603271E+01
  0.9476191E+00  0.2443316E+06 -0.1532656E+01  0.7525752E+05 -0.4953938E-01  0.9257279E+06  0.1608930E+01
  0.9785714E+00  0.2554330E+06 -0.1526325E+01  0.7022560E+05 -0.5524430E-01  0.9588311E+06  0.1615259E+01
  0.1009524E+01  0.2661285E+06 -0.1519305E+01  0.6543668E+05 -0.6106058E-01  0.9892837E+06  0.1622275E+01
  0.1040476E+01  0.2766941E+06 -0.1511548E+01  0.6083125E+05 -0.6740654E-01  0.1018470E+07  0.1630028E+01
  0.1071429E+01  0.2868531E+06 -0.1503057E+01  0.5641476E+05 -0.7432231E-01  0.1044875E+07  0.1638514E+01
  0.1102381E+01  0.2967941E+06 -0.1493818E+01  0.5217882E+05 -0.8191976E-01  0.1069474E+07  0.1647744E+01
  0.1133333E+01  0.3061195E+06 -0.1483857E+01  0.4815515E+05 -0.9007256E-01  0.1090871E+07  0.1657695E+01
  0.1164286E+01  0.3147816E+06 -0.1473188E+01  0.4437255E+05 -0.9820105E-01  0.1108624E+07  0.1668350E+01
  0.1195238E+01  0.3231022E+06 -0.1461747E+01  0.4080123E+05 -0.1069478E+00  0.1124545E+07  0.1679783E+01
  0.1226190E+01  0.3305730E+06 -0.1449656E+01  0.3742690E+05 -0.1164128E+00  0.1136100E+07  0.1691852E+01
  0.1257143E+01  0.3374174E+06 -0.1436910E+01  0.3424948E+05 -0.1267385E+00  0.1144831E+07  0.1704573E+01
  0.1288095E+01  0.3438071E+06 -0.1423455E+01  0.3125990E+05 -0.1379141E+00  0.1151200E+07  0.1718005E+01
  0.1319048E+01  0.3490095E+06 -0.1409524E+01  0.2848232E+05 -0.1492121E+00  0.1152943E+07  0.1731892E+01
  0.1350000E+01  0.3533211E+06 -0.1395104E+01  0.2590120E+05 -0.1607657E+00  0.1151243E+07  0.1746281E+01
  0.1380952E+01  0.3569539E+06 -0.1380206E+01  0.2351112E+05 -0.1728552E+00  0.1147275E+07  0.1761167E+01
  0.1411905E+01  0.3588774E+06 -0.1365418E+01  0.2129664E+05 -0.1856876E+00  0.1137402E+07  0.1775876E+01
  0.1442857E+01  0.3605691E+06 -0.1350372E+01  0.1924316E+05 -0.1994608E+00  0.1125503E+07  0.1790855E+01
  0.1473810E+01  0.3614596E+06 -0.1335276E+01  0.1734210E+05 -0.2145754E+00  0.1111049E+07  0.1805876E+01
  0.1504762E+01  0.3611208E+06 -0.1320332E+01  0.1560102E+05 -0.2302539E+00  0.1092778E+07  0.1820779E+01
  0.1535714E+01  0.3596188E+06 -0.1305862E+01  0.1399508E+05 -0.2459770E+00  0.1070521E+07  0.1835057E+01
  0.1566667E+01  0.3573497E+06 -0.1291593E+01  0.1254088E+05 -0.2613938E+00  0.1046624E+07  0.1849282E+01
  0.1597619E+01  0.3543151E+06 -0.1277791E+01  0.1121781E+05 -0.2774302E+00  0.1020982E+07  0.1863064E+01
  0.1628572E+01  0.3502518E+06 -0.1265092E+01  0.1001082E+05 -0.2941346E+00  0.9916844E+06  0.1875523E+01
  0.1659524E+01  0.3456387E+06 -0.1253117E+01  0.8911636E+04 -0.3118191E+00  0.9613932E+06  0.1887312E+01
  0.1690476E+01  0.3405130E+06 -0.1241966E+01  0.7908416E+04 -0.3322044E+00  0.9304075E+06  0.1898279E+01
  0.1721429E+01  0.3344647E+06 -0.1231964E+01  0.7010803E+04 -0.3513362E+00  0.8977241E+06  0.1908217E+01
  0.1752381E+01  0.3277940E+06 -0.1223310E+01  0.6192688E+04 -0.3725777E+00  0.8637116E+06  0.1916592E+01
  0.1783333E+01  0.3205463E+06 -0.1216103E+01  0.5448850E+04 -0.3974667E+00  0.8287258E+06  0.1923408E+01
  0.1814286E+01  0.3130575E+06 -0.1209954E+01  0.4797542E+04 -0.4157129E+00  0.7944529E+06  0.1929556E+01
  0.1845238E+01  0.3053650E+06 -0.1205158E+01  0.4214731E+04 -0.4353004E+00  0.7606219E+06  0.1934442E+01
  0.1876190E+01  0.2972424E+06 -0.1202360E+01  0.3686684E+04 -0.4570619E+00  0.7257679E+06  0.1936640E+01
  0.1907143E+01  0.2890969E+06 -0.1200832E+01  0.3215187E+04 -0.4800004E+00  0.6919892E+06  0.1937783E+01
  0.1938095E+01  0.2809311E+06 -0.1200634E+01  0.2795994E+04 -0.5086191E+00  0.6593263E+06  0.1937649E+01
  0.1969048E+01  0.2726882E+06 -0.1201833E+01  0.2427079E+04 -0.5354818E+00  0.6276806E+06  0.1936575E+01
  0.2000000E+01  0.2643001E+06 -0.1204950E+01  0.2097281E+04 -0.5632167E+00  0.5963108E+06  0.1933307E+01
