VARIABLES="w (rad/s)"
"A   1   1" "B   1   1"
"A   1   2" "B   1   2"
"A   1   3" "B   1   3"
Zone t="Motion of body    1 in DoF   1",I=    64,F=POINT
  0.5000000E-01  0.2974493E+06  0.7016855E-01 -0.9155273E-03 -0.1838387E-04 -0.1356276E+07 -0.3255749E+00
  0.8095238E-01  0.2987086E+06  0.3062833E+00 -0.1187493E-01 -0.5151960E-04 -0.1359954E+07 -0.1416303E+01
  0.1119048E+00  0.2992233E+06  0.8583053E+00  0.1138565E-01  0.1238631E-03 -0.1361517E+07 -0.3966424E+01
  0.1428571E+00  0.2997026E+06  0.1923295E+01 -0.1708984E-01 -0.3048796E-03 -0.1362913E+07 -0.8876989E+01
  0.1738095E+00  0.3001398E+06  0.3809235E+01 -0.3423821E-02 -0.4053488E-04 -0.1364636E+07 -0.1755850E+02
  0.2047619E+00  0.3006416E+06  0.6988412E+01 -0.7228408E-02 -0.6661564E-04 -0.1366365E+07 -0.3216265E+02
  0.2357143E+00  0.3014092E+06  0.1222854E+02  0.5114006E-02  0.6036460E-04 -0.1368490E+07 -0.5615582E+02
  0.2666667E+00  0.3020663E+06  0.2069112E+02 -0.9727477E-03 -0.5102754E-03 -0.1371323E+07 -0.9481667E+02
  0.2976190E+00  0.3030096E+06  0.3442266E+02 -0.1573975E-01 -0.1149535E-02 -0.1374145E+07 -0.1573222E+03
  0.3285715E+00  0.3038959E+06  0.5638590E+02 -0.2693508E-02 -0.5403459E-03 -0.1377052E+07 -0.2569462E+03
  0.3595238E+00  0.3050109E+06  0.9165102E+02  0.7979033E-02  0.4507303E-03 -0.1381210E+07 -0.4163828E+03
  0.3904762E+00  0.3061496E+06  0.1476840E+03 -0.7033929E-02 -0.1429021E-02 -0.1385385E+07 -0.6687098E+03
  0.4214286E+00  0.3076610E+06  0.2347527E+03  0.1303463E-02 -0.7853508E-03 -0.1390331E+07 -0.1058674E+04
  0.4523810E+00  0.3094792E+06  0.3699715E+03 -0.1221024E-01 -0.2412915E-02 -0.1396624E+07 -0.1661766E+04
  0.4833333E+00  0.3111147E+06  0.5677328E+03  0.8713295E-02 -0.3795624E-03 -0.1403226E+07 -0.2539527E+04
  0.5142857E+00  0.3133106E+06  0.8574367E+03  0.1121521E-01  0.3504753E-03 -0.1410376E+07 -0.3816648E+04
  0.5452381E+00  0.3153512E+06  0.1262462E+04 -0.3190353E-02 -0.1798153E-02 -0.1417242E+07 -0.5591075E+04
  0.5761905E+00  0.3177347E+06  0.1814362E+04  0.5084581E-02 -0.1923561E-02 -0.1425713E+07 -0.7992659E+04
  0.6071429E+00  0.3206061E+06  0.2560392E+04 -0.1910041E-02 -0.3159523E-02 -0.1436262E+07 -0.1121837E+05
  0.6380953E+00  0.3232028E+06  0.3528810E+04 -0.3921736E-02 -0.3438950E-02 -0.1445392E+07 -0.1537113E+05
  0.6690477E+00  0.3261944E+06  0.4778905E+04  0.5017480E-02  0.1415253E-02 -0.1455075E+07 -0.2068056E+05
  0.7000000E+00  0.3295738E+06  0.6374855E+04  0.5057198E-02  0.1617432E-02 -0.1466251E+07 -0.2740120E+05
  0.7309524E+00  0.3325994E+06  0.8361654E+04 -0.2171022E-02 -0.2346039E-02 -0.1476247E+07 -0.3569320E+05
  0.7619048E+00  0.3359721E+06  0.1082084E+05  0.8171081E-02 -0.8735657E-03 -0.1487730E+07 -0.4586321E+05
  0.7928572E+00  0.3396888E+06  0.1382935E+05  0.8852846E-02  0.3879547E-02 -0.1499461E+07 -0.5815875E+05
  0.8238096E+00  0.3430381E+06  0.1744911E+05  0.4889868E-02 -0.2845764E-02 -0.1509419E+07 -0.7278432E+05
  0.8547620E+00  0.3464146E+06  0.2176813E+05  0.2284993E-02 -0.3242493E-02 -0.1519219E+07 -0.9003230E+05
  0.8857143E+00  0.3496162E+06  0.2686338E+05  0.3445533E-03  0.2128601E-02 -0.1527743E+07 -0.1101141E+06
  0.9166667E+00  0.3529799E+06  0.3283057E+05 -0.4727450E-02 -0.1132202E-01 -0.1536296E+07 -0.1333114E+06
  0.9476191E+00  0.3557188E+06  0.3970687E+05  0.2769585E-02 -0.3128052E-02 -0.1542944E+07 -0.1597240E+06
  0.9785714E+00  0.3579973E+06  0.4755675E+05  0.7484603E-02 -0.5859375E-02 -0.1547663E+07 -0.1894635E+06
  0.1009524E+01  0.3598969E+06  0.5640329E+05  0.6348232E-02  0.2441406E-03 -0.1549686E+07 -0.2223653E+06
  0.1040476E+01  0.3613037E+06  0.6628593E+05  0.1044162E-01  0.9460449E-03 -0.1548974E+07 -0.2584265E+06
  0.1071429E+01  0.3621742E+06  0.7721972E+05  0.5810547E-02 -0.4577637E-02 -0.1546049E+07 -0.2976090E+06
  0.1102381E+01  0.3617694E+06  0.8907855E+05  0.6810099E-02 -0.2243042E-02 -0.1538299E+07 -0.3392541E+06
  0.1133333E+01  0.3606683E+06  0.1019194E+06  0.1507927E-02 -0.6225586E-02 -0.1528404E+07 -0.3835549E+06
  0.1164286E+01  0.3585954E+06  0.1155819E+06  0.6814968E-03 -0.3356934E-03 -0.1514665E+07 -0.4295821E+06
  0.1195238E+01  0.3555146E+06  0.1299368E+06  0.8681096E-03  0.5615234E-02 -0.1497285E+07 -0.4767248E+06
  0.1226190E+01  0.3516291E+06  0.1448643E+06  0.4330533E-02 -0.2502441E-02 -0.1477301E+07 -0.5244941E+06
  0.1257143E+01  0.3461607E+06  0.1598465E+06  0.6068836E-02  0.2502441E-02 -0.1452363E+07 -0.5709578E+06
  0.1288095E+01  0.3396322E+06  0.1747468E+06 -0.1421521E-02 -0.1281738E-02 -0.1423027E+07 -0.6150442E+06
  0.1319048E+01  0.3324637E+06  0.1896200E+06  0.6246739E-02  0.7385254E-02 -0.1392965E+07 -0.6578642E+06
  0.1350000E+01  0.3240290E+06  0.2037767E+06  0.2531829E-02 -0.3265381E-02 -0.1358756E+07 -0.6962215E+06
  0.1380952E+01  0.3150356E+06  0.2173203E+06  0.4198798E-02 -0.1159668E-02 -0.1323616E+07 -0.7309692E+06
  0.1411905E+01  0.3050570E+06  0.2294547E+06 -0.2680195E-02  0.1464844E-02 -0.1287104E+07 -0.7600203E+06
  0.1442857E+01  0.2949944E+06  0.2408087E+06  0.9729366E-03  0.3692627E-02 -0.1251014E+07 -0.7850889E+06
  0.1473810E+01  0.2841999E+06  0.2502155E+06 -0.2484791E-02 -0.1861572E-02 -0.1212420E+07 -0.8012353E+06
  0.1504762E+01  0.2736052E+06  0.2585713E+06 -0.2433680E-02  0.9460449E-03 -0.1176539E+07 -0.8140616E+06
  0.1535714E+01  0.2631924E+06  0.2655280E+06  0.4332076E-02 -0.5432129E-02 -0.1142370E+07 -0.8216368E+06
  0.1566667E+01  0.2525722E+06  0.2703746E+06  0.1986889E-02 -0.1068115E-02 -0.1108267E+07 -0.8210040E+06
  0.1597619E+01  0.2425424E+06  0.2739648E+06  0.3285529E-02  0.1800537E-02 -0.1077359E+07 -0.8165106E+06
  0.1628572E+01  0.2331517E+06  0.2761853E+06  0.1649020E-02  0.8239746E-03 -0.1049278E+07 -0.8072229E+06
  0.1659524E+01  0.2241070E+06  0.2769201E+06  0.4707675E-02 -0.1190186E-02 -0.1023882E+07 -0.7943756E+06
  0.1690476E+01  0.2154596E+06  0.2757973E+06 -0.5018637E-02 -0.2044678E-02 -0.1000063E+07 -0.7746727E+06
  0.1721429E+01  0.2074535E+06  0.2735999E+06  0.7623063E-02  0.7476807E-03 -0.9791628E+06 -0.7527793E+06
  0.1752381E+01  0.2002959E+06  0.2708960E+06 -0.2786388E-02 -0.2899170E-03 -0.9618491E+06 -0.7308899E+06
  0.1783333E+01  0.1937691E+06  0.2670091E+06  0.4107039E-03 -0.3204346E-03 -0.9467331E+06 -0.7055524E+06
  0.1814286E+01  0.1878472E+06  0.2620610E+06  0.2287617E-02 -0.4577637E-03 -0.9338486E+06 -0.6771493E+06
  0.1845238E+01  0.1826837E+06  0.2567891E+06 -0.4432334E-02  0.2517700E-03 -0.9235809E+06 -0.6492314E+06
  0.1876190E+01  0.1782601E+06  0.2511868E+06  0.3708583E-02  0.4730225E-03 -0.9157115E+06 -0.6206463E+06
  0.1907143E+01  0.1742496E+06  0.2451382E+06 -0.3840415E-02  0.5493164E-03 -0.9096267E+06 -0.5929729E+06
  0.1938095E+01  0.1707822E+06  0.2385999E+06  0.3023265E-02 -0.2441406E-03 -0.9051744E+06 -0.5643062E+06
  0.1969048E+01  0.1676872E+06  0.2311381E+06  0.2789757E-02 -0.4501343E-03 -0.9018217E+06 -0.5325168E+06
  0.2000000E+01  0.1651033E+06  0.2242611E+06  0.3967285E-02 -0.3051758E-04 -0.8999728E+06 -0.5052532E+06
Zone t="Motion of body    1 in DoF   2",I=    64,F=POINT
  0.5000000E-01 -0.2822876E-02  0.5769730E-04  0.8371562E+05  0.1519243E+03  0.1464844E-01 -0.1764297E-03
  0.8095238E-01 -0.1031988E-01 -0.1239777E-04  0.8270973E+05  0.2504341E+03 -0.3015855E-02 -0.4596710E-03
  0.1119048E+00 -0.6204159E-02 -0.6866455E-04  0.8226946E+05  0.3555294E+03  0.1199925E-01 -0.2136230E-03
  0.1428571E+00  0.7049560E-02  0.1392365E-03  0.8188497E+05  0.4703035E+03 -0.1281738E-02 -0.7629395E-04
  0.1738095E+00 -0.2019177E-02  0.1735687E-03  0.8160662E+05  0.5976009E+03 -0.1123716E-01 -0.1422882E-02
  0.2047619E+00 -0.5961573E-03  0.3814697E-05  0.8150223E+05  0.7430552E+03  0.2742324E-01  0.1808167E-02
  0.2357143E+00 -0.5308209E-02 -0.2822876E-03  0.8132506E+05  0.9118819E+03  0.2485795E-01  0.5111694E-03
  0.2666667E+00  0.8583068E-03 -0.6446838E-03  0.8123593E+05  0.1106607E+04 -0.1007080E-01  0.1449585E-02
  0.2976190E+00  0.8664551E-02 -0.8239746E-03  0.8112598E+05  0.1340883E+04 -0.7792969E-02 -0.8697510E-03
  0.3285715E+00 -0.5572775E-03  0.6942749E-03  0.8103532E+05  0.1612810E+04 -0.8173402E-02 -0.2624512E-02
  0.3595238E+00  0.1824991E-02 -0.3662109E-03  0.8083305E+05  0.1934833E+04  0.4753466E-01 -0.1022339E-02
  0.3904762E+00 -0.2500952E-02  0.5874634E-03  0.8070187E+05  0.2310763E+04 -0.2188333E-01  0.2838135E-02
  0.4214286E+00 -0.2896583E-03 -0.8697510E-03  0.8026873E+05  0.2719761E+04 -0.5213850E-02 -0.2151489E-02
  0.4523810E+00  0.4722193E-03  0.1068115E-03  0.8003999E+05  0.3192301E+04 -0.9174547E-02 -0.8544922E-03
  0.4833333E+00 -0.4735486E-02  0.3967285E-03  0.7931022E+05  0.3642341E+04  0.1363820E-01 -0.2685547E-02
  0.5142857E+00  0.2373590E-03 -0.1525879E-04  0.7874636E+05  0.4117157E+04  0.5981446E-01  0.1620483E-01
  0.5452381E+00  0.1013077E-01  0.1098633E-02  0.7801380E+05  0.4556810E+04 -0.4029919E-02  0.3051758E-04
  0.5761905E+00  0.3230828E-02  0.7934570E-03  0.7719066E+05  0.4945478E+04  0.1906718E-01 -0.4943848E-02
  0.6071429E+00 -0.6584615E-02  0.4272461E-03  0.7661330E+05  0.5318994E+04  0.4825367E-02 -0.4028320E-02
  0.6380953E+00  0.2343477E-02  0.1464844E-02  0.7566130E+05  0.5590529E+04  0.1951303E-01 -0.9338379E-02
  0.6690477E+00 -0.8119196E-02  0.1342773E-02  0.7489517E+05  0.5814042E+04  0.4670818E-01  0.8911133E-02
  0.7000000E+00  0.4316057E-02  0.2136230E-03  0.7437368E+05  0.5998931E+04  0.2441406E-02 -0.6103516E-04
  0.7309524E+00  0.3548786E-03 -0.5798340E-03  0.7353713E+05  0.6078903E+04  0.3006031E-01 -0.3540039E-02
  0.7619048E+00 -0.1562118E-02 -0.1953125E-02  0.7284575E+05  0.6107292E+04  0.9613036E-02 -0.2020264E-01
  0.7928572E+00 -0.3406421E-02 -0.6713867E-03  0.7238179E+05  0.6092904E+04  0.4064611E-01  0.8850098E-02
  0.8238096E+00 -0.6871747E-02 -0.8483887E-02  0.7193199E+05  0.6010413E+04  0.1718863E-01  0.9277344E-02
  0.8547620E+00 -0.3034756E-03 -0.2075195E-02  0.7134203E+05  0.5843477E+04  0.3998737E-01  0.1013184E-01
  0.8857143E+00 -0.7709380E-02  0.9765625E-03  0.7091844E+05  0.5651981E+04  0.6725680E-01  0.1129150E-01
  0.9166667E+00  0.1689564E-02 -0.3356934E-02  0.7075448E+05  0.5452561E+04 -0.2183949E-01 -0.1373291E-02
  0.9476191E+00 -0.2507924E-02 -0.3112793E-02  0.7060088E+05  0.5208459E+04  0.4431336E-01  0.2441406E-02
  0.9785714E+00 -0.7750414E-02 -0.4272461E-03  0.7024121E+05  0.4847854E+04  0.6137375E-01 -0.8850098E-02
  0.1009524E+01 -0.2656433E-02 -0.2197266E-02  0.7003933E+05  0.4507635E+04  0.4353074E-02  0.3417969E-02
  0.1040476E+01 -0.1796487E-02  0.4150391E-02  0.6999245E+05  0.4205928E+04  0.3285004E-01  0.1495361E-02
  0.1071429E+01 -0.4699707E-02 -0.1464844E-02  0.7011880E+05  0.3976077E+04  0.4694011E-01 -0.1171875E-01
  0.1102381E+01 -0.3681883E-02  0.5065918E-02  0.7007164E+05  0.3580823E+04  0.2126080E-01 -0.1596069E-01
  0.1133333E+01  0.8078183E-03  0.1708984E-02  0.7000095E+05  0.3157132E+04  0.0000000E+00 -0.1333618E-01
  0.1164286E+01  0.2227970E-03  0.6713867E-03  0.7002422E+05  0.2794357E+04 -0.2096913E-02 -0.2746582E-02
  0.1195238E+01 -0.5872506E-03  0.1525879E-02  0.7012933E+05  0.2512794E+04  0.1225566E-01  0.2807617E-02
  0.1226190E+01 -0.1194630E-02  0.3417969E-02  0.7032823E+05  0.2337892E+04  0.9158829E-02 -0.6286621E-02
  0.1257143E+01 -0.3981157E-02 -0.2258301E-02  0.7053934E+05  0.2192598E+04  0.1980868E-01  0.1040649E-01
  0.1288095E+01  0.1682133E-02 -0.2685547E-02  0.7059057E+05  0.1741577E+04 -0.1250939E-01  0.5584717E-02
  0.1319048E+01 -0.8097624E-03  0.3906250E-02  0.7067692E+05  0.1404018E+04  0.8884250E-02 -0.6408691E-03
  0.1350000E+01 -0.4973235E-03  0.3967285E-02  0.7080849E+05  0.1161167E+04 -0.3616898E-03  0.2059937E-03
  0.1380952E+01 -0.1812113E-02 -0.1098633E-02  0.7096460E+05  0.1012082E+04  0.1131466E-01  0.1204681E-01
  0.1411905E+01 -0.1750772E-02 -0.2593994E-02  0.7113107E+05  0.9676679E+03  0.2074989E-01  0.6309509E-02
  0.1442857E+01 -0.4230159E-03 -0.3479004E-02  0.7131880E+05  0.1065054E+04  0.1353651E-02  0.8575439E-02
  0.1473810E+01  0.6833176E-03  0.1159668E-02  0.7144107E+05  0.7025938E+03 -0.2650444E-02  0.3288269E-02
  0.1504762E+01 -0.3914169E-02  0.1953125E-02  0.7156860E+05  0.4878872E+03  0.2595926E-01 -0.3250122E-02
  0.1535714E+01 -0.1251930E-02 -0.6103516E-03  0.7168746E+05  0.3298171E+03  0.1398982E-01 -0.3376007E-03
  0.1566667E+01 -0.1870013E-02 -0.1831055E-03  0.7180235E+05  0.2335613E+03  0.2244016E-01  0.1926422E-02
  0.1597619E+01 -0.2215822E-02  0.1525879E-04  0.7191107E+05  0.2163310E+03  0.2200540E-01 -0.9288788E-03
  0.1628572E+01 -0.6708513E-02 -0.2487183E-02  0.7200753E+05  0.2507771E+03  0.5456757E-01  0.2151489E-02
  0.1659524E+01 -0.5296135E-02  0.4730225E-03  0.7208371E+05  0.3569593E+03  0.3236527E-01 -0.1823425E-02
  0.1690476E+01 -0.4747847E-02 -0.4882812E-03  0.7219884E+05  0.2205700E+03  0.4679247E-01  0.1302719E-02
  0.1721429E+01  0.4432014E-03  0.2166748E-02  0.7230571E+05  0.1340419E+03  0.4084544E-01 -0.1194954E-02
  0.1752381E+01 -0.3065027E-02  0.4577637E-04  0.7238995E+05  0.4485938E+02 -0.1226011E-01 -0.3447533E-03
  0.1783333E+01 -0.5647178E-03  0.2899170E-03  0.7245998E+05  0.2590634E+02  0.5476052E-03  0.1280308E-03
  0.1814286E+01 -0.4171537E-02 -0.5340576E-04  0.7252152E+05  0.6066474E+01  0.5274976E-01  0.2194449E-02
  0.1845238E+01 -0.3142326E-03  0.5340576E-03  0.7257089E+05  0.3715198E+02  0.4233871E-02 -0.2057552E-03
  0.1876190E+01  0.4879714E-02  0.2975464E-03  0.7261360E+05  0.6337675E+02 -0.2238162E-01  0.8296967E-04
  0.1907143E+01  0.1568169E-02  0.8926392E-03  0.7264508E+05  0.9761810E+02  0.0000000E+00 -0.1363754E-02
  0.1938095E+01 -0.8597409E-02 -0.4882812E-03  0.7269636E+05  0.9077433E+02  0.5189938E-01  0.3585815E-03
  0.1969048E+01 -0.2479784E-03  0.3280640E-03  0.7276588E+05  0.4626138E+02 -0.1140701E-01 -0.4625320E-04
  0.2000000E+01 -0.3479004E-02 -0.5569458E-03  0.7280904E+05  0.4591113E+02  0.5322266E-01  0.8897781E-03
Zone t="Motion of body    1 in DoF   3",I=    64,F=POINT
  0.5000000E-01 -0.1357072E+07 -0.3252528E+00  0.3845215E-01  0.2907191E-03  0.7588855E+07  0.1509121E+01
  0.8095238E-01 -0.1360911E+07 -0.1417326E+01  0.7765826E-01  0.4835567E-03  0.7599288E+07  0.6552170E+01
  0.1119048E+00 -0.1362500E+07 -0.3970367E+01  0.2290766E-01  0.4764274E-04  0.7604162E+07  0.1835105E+02
  0.1428571E+00 -0.1363921E+07 -0.8886042E+01  0.5276489E-01  0.1066558E-02  0.7609014E+07  0.4101284E+02
  0.1738095E+00 -0.1365642E+07 -0.1757543E+02  0.3055102E-01  0.5732030E-03  0.7615660E+07  0.8101743E+02
  0.2047619E+00 -0.1367304E+07 -0.3219246E+02 -0.6855810E-01 -0.1019031E-02  0.7621434E+07  0.1481613E+03
  0.2357143E+00 -0.1369552E+07 -0.5621973E+02 -0.5178740E-02 -0.7268488E-03  0.7629342E+07  0.2581578E+03
  0.2666667E+00 -0.1372290E+07 -0.9490488E+02  0.2677917E-01  0.2466202E-02  0.7639918E+07  0.4348873E+03
  0.2976190E+00 -0.1375185E+07 -0.1574931E+03 -0.4224610E-01  0.9518266E-03  0.7649535E+07  0.7197717E+03
  0.3285715E+00 -0.1378066E+07 -0.2572300E+03 -0.3882366E-01 -0.2856374E-02  0.7660114E+07  0.1172172E+04
  0.3595238E+00 -0.1382265E+07 -0.4168029E+03 -0.7232060E-01 -0.6592989E-02  0.7676042E+07  0.1893558E+04
  0.3904762E+00 -0.1386335E+07 -0.6693170E+03 -0.1469310E-01  0.2426386E-02  0.7690598E+07  0.3030667E+04
  0.4214286E+00 -0.1391404E+07 -0.1059745E+04 -0.1158633E-02 -0.2164841E-03  0.7708904E+07  0.4779059E+04
  0.4523810E+00 -0.1397716E+07 -0.1663652E+04  0.6665038E-01  0.3316879E-02  0.7731642E+07  0.7473117E+04
  0.4833333E+00 -0.1404236E+07 -0.2541467E+04  0.2778152E-01  0.1843452E-02  0.7756552E+07  0.1136805E+05
  0.5142857E+00 -0.1411437E+07 -0.3820613E+04 -0.8544923E-01 -0.6525040E-02  0.7781352E+07  0.1700594E+05
  0.5452381E+00 -0.1418296E+07 -0.5597111E+04  0.8709104E-01  0.1360130E-01  0.7806965E+07  0.2478776E+05
  0.5761905E+00 -0.1426855E+07 -0.8000729E+04 -0.1188521E+00 -0.2282715E-01  0.7838496E+07  0.3524415E+05
  0.6071429E+00 -0.1437358E+07 -0.1122865E+05 -0.1487822E-01 -0.1659393E-02  0.7876314E+07  0.4920119E+05
  0.6380953E+00 -0.1446404E+07 -0.1538270E+05 -0.5873039E-01  0.1342773E-02  0.7908428E+07  0.6700450E+05
  0.6690477E+00 -0.1456205E+07 -0.2069966E+05  0.3101715E-01 -0.4959106E-03  0.7942305E+07  0.8957570E+05
  0.7000000E+00 -0.1467402E+07 -0.2742981E+05  0.1011440E-01  0.1057434E-01  0.7979706E+07  0.1179034E+06
  0.7309524E+00 -0.1477315E+07 -0.3572624E+05  0.8617289E-01  0.2726746E-01  0.8013364E+07  0.1525014E+06
  0.7619048E+00 -0.1488804E+07 -0.4589536E+05  0.2755737E-01  0.1998901E-01  0.8051440E+07  0.1945203E+06
  0.7928572E+00 -0.1500528E+07 -0.5820474E+05 -0.1139323E-01 -0.4531860E-02  0.8087577E+07  0.2447717E+06
  0.8238096E+00 -0.1510454E+07 -0.7284019E+05  0.5778935E-01  0.2450562E-01  0.8116750E+07  0.3038201E+06
  0.8547620E+00 -0.1520273E+07 -0.9009721E+05 -0.2370680E-01  0.9063721E-02  0.8144446E+07  0.3726222E+06
  0.8857143E+00 -0.1528864E+07 -0.1101989E+06 -0.3638483E-01 -0.9124756E-02  0.8166258E+07  0.4516919E+06
  0.9166667E+00 -0.1537403E+07 -0.1334288E+06 -0.1571378E-01  0.6134033E-02  0.8184478E+07  0.5417704E+06
  0.9476191E+00 -0.1543974E+07 -0.1598290E+06  0.4817790E-01  0.2673340E-01  0.8196386E+07  0.6428659E+06
  0.9785714E+00 -0.1548590E+07 -0.1895368E+06  0.1846202E-01  0.1806641E-01  0.8200272E+07  0.7550369E+06
  0.1009524E+01 -0.1550616E+07 -0.2224321E+06 -0.5538077E-01  0.1586914E-02  0.8190680E+07  0.8768382E+06
  0.1040476E+01 -0.1549988E+07 -0.2585562E+06 -0.8916440E-02  0.9948730E-02  0.8170884E+07  0.1007954E+07
  0.1071429E+01 -0.1547026E+07 -0.2977656E+06  0.7587891E-01  0.4718018E-01  0.8139560E+07  0.1147418E+07
  0.1102381E+01 -0.1539179E+07 -0.3394190E+06 -0.6356093E-01 -0.3015137E-01  0.8091448E+07  0.1292359E+07
  0.1133333E+01 -0.1529247E+07 -0.3836763E+06  0.7022633E-01  0.2197266E-01  0.8037184E+07  0.1443538E+07
  0.1164286E+01 -0.1515499E+07 -0.4296644E+06  0.4445456E-01  0.4907227E-01  0.7967940E+07  0.1596536E+07
  0.1195238E+01 -0.1498171E+07 -0.4768371E+06  0.1838350E-02  0.3051758E-02  0.7887718E+07  0.1749077E+07
  0.1226190E+01 -0.1478066E+07 -0.5245086E+06  0.6231986E-01  0.2136230E-01  0.7795774E+07  0.1898261E+07
  0.1257143E+01 -0.1453042E+07 -0.5707748E+06 -0.4369562E-01 -0.1232910E-01  0.7691715E+07  0.2037739E+07
  0.1288095E+01 -0.1423616E+07 -0.6149016E+06  0.2312341E-01  0.9277344E-02  0.7572154E+07  0.2163039E+07
  0.1319048E+01 -0.1393641E+07 -0.6575776E+06 -0.8569600E-01 -0.2014160E-01  0.7453656E+07  0.2279601E+07
  0.1350000E+01 -0.1359462E+07 -0.6959038E+06  0.5479601E-01 -0.6591797E-02  0.7324429E+07  0.2375767E+07
  0.1380952E+01 -0.1324384E+07 -0.7306969E+06 -0.1343615E-01  0.7568359E-02  0.7196546E+07  0.2456046E+07
  0.1411905E+01 -0.1287852E+07 -0.7593224E+06 -0.1106661E-01 -0.4760742E-02  0.7065463E+07  0.2512227E+07
  0.1442857E+01 -0.1251887E+07 -0.7842724E+06  0.3198000E-01 -0.7812500E-02  0.6943378E+07  0.2553776E+07
  0.1473810E+01 -0.1213159E+07 -0.8002778E+06  0.4870191E-01  0.8544922E-02  0.6811948E+07  0.2557949E+07
  0.1504762E+01 -0.1177400E+07 -0.8131101E+06  0.3212458E-01  0.1611328E-01  0.6697716E+07  0.2555147E+07
  0.1535714E+01 -0.1143386E+07 -0.8204937E+06 -0.7296965E-01 -0.4943848E-02  0.6590114E+07  0.2532420E+07
  0.1566667E+01 -0.1109335E+07 -0.8199811E+06  0.3740026E-02 -0.1129150E-01  0.6488214E+07  0.2483081E+07
  0.1597619E+01 -0.1078477E+07 -0.8155241E+06 -0.1054426E-01  0.3234863E-02  0.6400492E+07  0.2424581E+07
  0.1628572E+01 -0.1050384E+07 -0.8058744E+06  0.6521124E-01  0.1586914E-02  0.6320972E+07  0.2346147E+07
  0.1659524E+01 -0.1025136E+07 -0.7930044E+06  0.5766902E-01  0.4821777E-02  0.6256884E+07  0.2265126E+07
  0.1690476E+01 -0.1001303E+07 -0.7731074E+06  0.3480551E-01 -0.4272461E-03  0.6197484E+07  0.2158815E+07
  0.1721429E+01 -0.9803899E+06 -0.7511961E+06  0.8807297E-01  0.6164551E-02  0.6150074E+07  0.2054203E+07
  0.1752381E+01 -0.9633050E+06 -0.7293847E+06  0.4430357E-01  0.3356934E-02  0.6114576E+07  0.1952024E+07
  0.1783333E+01 -0.9483108E+06 -0.7040358E+06  0.3901687E-01  0.1342773E-02  0.6086306E+07  0.1843421E+07
  0.1814286E+01 -0.9354279E+06 -0.6758702E+06  0.5665216E-01  0.4364014E-02  0.6066736E+07  0.1728455E+07
  0.1845238E+01 -0.9251864E+06 -0.6480563E+06  0.9870212E-01  0.4974365E-02  0.6054900E+07  0.1622400E+07
  0.1876190E+01 -0.9174351E+06 -0.6190910E+06  0.1197157E-01 -0.5340576E-02  0.6049035E+07  0.1507994E+07
  0.1907143E+01 -0.9114809E+06 -0.5915258E+06  0.6080656E-01 -0.1174927E-02  0.6050398E+07  0.1408178E+07
  0.1938095E+01 -0.9071048E+06 -0.5628583E+06  0.1914734E-01  0.2319336E-02  0.6056221E+07  0.1308158E+07
  0.1969048E+01 -0.9036983E+06 -0.5308706E+06 -0.1487870E-01 -0.1800537E-02  0.6064484E+07  0.1196013E+07
  0.2000000E+01 -0.9018532E+06 -0.5038795E+06  0.1708984E-01  0.1678467E-03  0.6076032E+07  0.1109565E+07
