VARIABLES="w (rad/s)"
"A   1   1" "B   1   1"
"A   1   2" "B   1   2"
"A   1   3" "B   1   3"
Zone t="Motion of body    1 in DoF   1",I=    64,F=POINT
  0.5000000E-01  0.2638356E+06  0.3107931E-01 -0.2593994E-02  0.2447399E-04 -0.6254441E+06 -0.6393357E-01
  0.8095238E-01  0.2654178E+06  0.1363379E+00  0.1578612E-01  0.5063161E-04 -0.6280285E+06 -0.2792035E+00
  0.1119048E+00  0.2656960E+06  0.3821423E+00  0.3654318E-01  0.3591598E-03 -0.6283489E+06 -0.7799361E+00
  0.1428571E+00  0.2660342E+06  0.8601721E+00  0.1345825E-01  0.1716339E-03 -0.6290432E+06 -0.1756109E+01
  0.1738095E+00  0.2666198E+06  0.1711027E+01  0.4828466E-02  0.3359849E-03 -0.6294963E+06 -0.3484334E+01
  0.2047619E+00  0.2668518E+06  0.3150382E+01  0.1609625E-01  0.9658933E-04 -0.6302013E+06 -0.6409970E+01
  0.2357143E+00  0.2674823E+06  0.5539226E+01 -0.3689852E-02  0.8045137E-04 -0.6308042E+06 -0.1124249E+02
  0.2666667E+00  0.2680327E+06  0.9429905E+01  0.7152557E-02  0.4753210E-03 -0.6316008E+06 -0.1909349E+02
  0.2976190E+00  0.2685586E+06  0.1577739E+02  0.4562988E-02  0.3336631E-03 -0.6326414E+06 -0.3187566E+02
  0.3285715E+00  0.2692997E+06  0.2603947E+02 -0.3529424E-02  0.2642125E-03 -0.6335828E+06 -0.5243748E+02
  0.3595238E+00  0.2704004E+06  0.4267175E+02 -0.3773064E-01 -0.1852065E-02 -0.6348581E+06 -0.8560064E+02
  0.3904762E+00  0.2711409E+06  0.6932593E+02 -0.5470834E-02 -0.1751900E-02 -0.6361504E+06 -0.1386193E+03
  0.4214286E+00  0.2722307E+06  0.1112144E+03  0.3157276E-01  0.5285740E-03 -0.6378419E+06 -0.2215159E+03
  0.4523810E+00  0.2734758E+06  0.1768872E+03  0.5801552E-02 -0.5865097E-04 -0.6395861E+06 -0.3508437E+03
  0.4833333E+00  0.2749710E+06  0.2744026E+03 -0.5177465E-02  0.1304746E-03 -0.6414822E+06 -0.5414985E+03
  0.5142857E+00  0.2763186E+06  0.4185592E+03  0.2349854E-01  0.1430273E-02 -0.6438026E+06 -0.8224664E+03
  0.5452381E+00  0.2778501E+06  0.6232638E+03  0.9403146E-02  0.2430916E-02 -0.6462942E+06 -0.1218865E+04
  0.5761905E+00  0.2798720E+06  0.9068754E+03 -0.3177863E-03 -0.2227068E-02 -0.6490641E+06 -0.1763137E+04
  0.6071429E+00  0.2819264E+06  0.1295317E+04 -0.2221680E-01 -0.8053780E-03 -0.6519827E+06 -0.2503708E+04
  0.6380953E+00  0.2840293E+06  0.1808979E+04 -0.3644345E-01 -0.8228302E-02 -0.6552305E+06 -0.3476216E+04
  0.6690477E+00  0.2862954E+06  0.2482965E+04 -0.4333279E-02 -0.9756088E-03 -0.6588721E+06 -0.4743212E+04
  0.7000000E+00  0.2886403E+06  0.3356482E+04 -0.7175990E-01 -0.1603794E-01 -0.6623438E+06 -0.6370560E+04
  0.7309524E+00  0.2913973E+06  0.4469617E+04  0.1803618E-01  0.6456375E-02 -0.6661074E+06 -0.8421877E+04
  0.7619048E+00  0.2944772E+06  0.5875680E+04 -0.3044128E-02 -0.9746552E-03 -0.6702382E+06 -0.1098611E+05
  0.7928572E+00  0.2973099E+06  0.7624716E+04  0.2401816E-01  0.8556366E-02 -0.6743904E+06 -0.1415284E+05
  0.8238096E+00  0.3003347E+06  0.9782785E+04  0.8446136E-02  0.6244659E-02 -0.6789498E+06 -0.1802505E+05
  0.8547620E+00  0.3032798E+06  0.1240854E+05  0.1756588E-01  0.6420135E-02 -0.6829636E+06 -0.2267897E+05
  0.8857143E+00  0.3065900E+06  0.1558659E+05 -0.1419560E-01 -0.4951477E-02 -0.6872405E+06 -0.2824099E+05
  0.9166667E+00  0.3097526E+06  0.1938186E+05  0.8056641E-02 -0.7171631E-03 -0.6910931E+06 -0.3480203E+05
  0.9476191E+00  0.3130892E+06  0.2388620E+05 -0.2383131E-02 -0.2326965E-02 -0.6951017E+06 -0.4249113E+05
  0.9785714E+00  0.3160781E+06  0.2915752E+05 -0.1066556E-01 -0.1612854E-01 -0.6984944E+06 -0.5137797E+05
  0.1009524E+01  0.3189442E+06  0.3527401E+05  0.3325265E-02  0.3051758E-04 -0.7014926E+06 -0.6154573E+05
  0.1040476E+01  0.3213937E+06  0.4229204E+05  0.1255341E-01  0.4058838E-02 -0.7040430E+06 -0.7307952E+05
  0.1071429E+01  0.3232987E+06  0.5023841E+05  0.4728190E-02  0.1260376E-01 -0.7053321E+06 -0.8591937E+05
  0.1102381E+01  0.3250044E+06  0.5917958E+05  0.1118407E-01  0.2899170E-03 -0.7060314E+06 -0.1001236E+06
  0.1133333E+01  0.3260605E+06  0.6908888E+05 -0.1238655E-01 -0.1657104E-01 -0.7053543E+06 -0.1155659E+06
  0.1164286E+01  0.3265698E+06  0.7995670E+05  0.1614623E-01  0.6042480E-02 -0.7034964E+06 -0.1321566E+06
  0.1195238E+01  0.3263270E+06  0.9174572E+05  0.4698005E-02 -0.1428223E-01 -0.7007428E+06 -0.1498675E+06
  0.1226190E+01  0.3249254E+06  0.1042669E+06  0.1692392E-01 -0.1647949E-02 -0.6960206E+06 -0.1682424E+06
  0.1257143E+01  0.3226388E+06  0.1174731E+06 -0.1553622E-02  0.2319336E-01 -0.6902968E+06 -0.1872763E+06
  0.1288095E+01  0.3195451E+06  0.1311188E+06  0.9097735E-02 -0.6835938E-02 -0.6830303E+06 -0.2063443E+06
  0.1319048E+01  0.3153595E+06  0.1449967E+06 -0.1017987E-02  0.7873535E-02 -0.6742861E+06 -0.2252118E+06
  0.1350000E+01  0.3103404E+06  0.1588715E+06 -0.8138021E-03  0.4943848E-02 -0.6642349E+06 -0.2433987E+06
  0.1380952E+01  0.3044898E+06  0.1725809E+06 -0.3182247E-02 -0.1873779E-01 -0.6533382E+06 -0.2608083E+06
  0.1411905E+01  0.2966666E+06  0.1842660E+06  0.5187474E-03  0.1074219E-01 -0.6402814E+06 -0.2748307E+06
  0.1442857E+01  0.2894706E+06  0.1968385E+06  0.1438254E-02  0.1568604E-01 -0.6277609E+06 -0.2893446E+06
  0.1473810E+01  0.2817043E+06  0.2085394E+06  0.2981750E-02 -0.1879883E-01 -0.6145742E+06 -0.3019192E+06
  0.1504762E+01  0.2734723E+06  0.2192358E+06  0.3731643E-02  0.1599121E-01 -0.6010511E+06 -0.3124841E+06
  0.1535714E+01  0.2650524E+06  0.2288236E+06  0.9061591E-02 -0.1342773E-02 -0.5875977E+06 -0.3209561E+06
  0.1566667E+01  0.2565895E+06  0.2372847E+06 -0.6233377E-03 -0.2111816E-01 -0.5745328E+06 -0.3274655E+06
  0.1597619E+01  0.2480600E+06  0.2445221E+06  0.1069707E-01  0.2526855E-01 -0.5619256E+06 -0.3320500E+06
  0.1628572E+01  0.2394524E+06  0.2503186E+06 -0.1386676E-01 -0.1123047E-01 -0.5492944E+06 -0.3340299E+06
  0.1659524E+01  0.2312506E+06  0.2551329E+06 -0.1158530E-01 -0.6958008E-02 -0.5378530E+06 -0.3347402E+06
  0.1690476E+01  0.2234056E+06  0.2588001E+06 -0.1032612E-01 -0.4150391E-02 -0.5271683E+06 -0.3336349E+06
  0.1721429E+01  0.2157171E+06  0.2611841E+06 -0.1786988E-01 -0.5493164E-02 -0.5169089E+06 -0.3305244E+06
  0.1752381E+01  0.2085561E+06  0.2626772E+06 -0.5363796E-02 -0.9765625E-02 -0.5077711E+06 -0.3263528E+06
  0.1783333E+01  0.2018449E+06  0.2631793E+06 -0.2635350E-02 -0.0000000E+00 -0.4993848E+06 -0.3206658E+06
  0.1814286E+01  0.1956037E+06  0.2630083E+06  0.4978931E-02  0.1171875E-01 -0.4920538E+06 -0.3144091E+06
  0.1845238E+01  0.1897628E+06  0.2621119E+06  0.3638483E-03 -0.2307129E-01 -0.4855702E+06 -0.3074689E+06
  0.1876190E+01  0.1842012E+06  0.2602569E+06 -0.1737178E-01  0.5126953E-02 -0.4793901E+06 -0.2988728E+06
  0.1907143E+01  0.1791980E+06  0.2580678E+06  0.2080224E-02  0.1696777E-01 -0.4743108E+06 -0.2904714E+06
  0.1938095E+01  0.1747046E+06  0.2554814E+06  0.2598118E-02 -0.3051758E-02 -0.4700648E+06 -0.2817631E+06
  0.1969048E+01  0.1705429E+06  0.2523743E+06  0.1177897E-01  0.4516602E-02 -0.4662808E+06 -0.2724166E+06
  0.2000000E+01  0.1667418E+06  0.2488867E+06  0.4776001E-02  0.1037598E-01 -0.4630674E+06 -0.2627909E+06
Zone t="Motion of body    1 in DoF   2",I=    64,F=POINT
  0.5000000E-01 -0.7781982E-02 -0.5674362E-04  0.8594523E+05  0.2728283E+03  0.2784729E-01 -0.1456738E-03
  0.8095238E-01 -0.2855637E-01 -0.3337860E-04  0.8468823E+05  0.4521889E+03  0.4429537E-01 -0.2150536E-03
  0.1119048E+00  0.7022290E-02  0.5149841E-04  0.8398520E+05  0.6471476E+03  0.1956696E-01  0.4830360E-03
  0.1428571E+00  0.1538086E-01 -0.6961823E-04  0.8365136E+05  0.8649860E+03  0.1992035E-01  0.4892349E-03
  0.1738095E+00 -0.1509993E-01  0.1277924E-03  0.8351298E+05  0.1114683E+04 -0.6373575E-01  0.1363754E-03
  0.2047619E+00 -0.6855809E-02  0.1907349E-03  0.8360005E+05  0.1407811E+04  0.5738014E-01 -0.3051758E-03
  0.2357143E+00  0.6214488E-02  0.6484985E-04  0.8381233E+05  0.1760225E+04 -0.7353811E-01 -0.1907349E-05
  0.2666667E+00  0.1144409E-03  0.5035400E-03  0.8412329E+05  0.2184890E+04 -0.8462905E-01  0.1010895E-02
  0.2976190E+00 -0.2860840E-01  0.5302429E-03  0.8453930E+05  0.2712287E+04  0.3127442E-01 -0.1468658E-03
  0.3285715E+00  0.1941183E-01  0.7705688E-03  0.8500895E+05  0.3356949E+04  0.2052639E-01  0.1968384E-02
  0.3595238E+00  0.5941833E-03 -0.9193420E-03  0.8541541E+05  0.4154937E+04 -0.9337165E-02  0.6523132E-03
  0.3904762E+00  0.3126191E-02 -0.1098633E-02  0.8583047E+05  0.5131014E+04  0.3196530E-01 -0.8583069E-03
  0.4214286E+00  0.7531117E-02 -0.1220703E-02  0.8598634E+05  0.6273583E+04  0.5329713E-01  0.1274109E-02
  0.4523810E+00  0.6745990E-03  0.1472473E-02  0.8597825E+05  0.7641107E+04 -0.6482897E-01  0.5317688E-02
  0.4833333E+00  0.5935143E-02 -0.3128052E-02  0.8566472E+05  0.9115178E+04  0.6389749E-01  0.3166199E-02
  0.5142857E+00  0.1079983E-01  0.3311157E-02  0.8509636E+05  0.1076667E+05  0.4236857E-01  0.3799438E-02
  0.5452381E+00 -0.5709053E-02  0.7476807E-03  0.8432066E+05  0.1250025E+05  0.2031751E-01  0.1342773E-02
  0.5761905E+00  0.6991299E-02 -0.1525879E-02  0.8329473E+05  0.1428379E+05  0.6053830E-01  0.3906250E-02
  0.6071429E+00  0.5227481E-02 -0.9460449E-03  0.8205823E+05  0.1615806E+05  0.2382525E-01 -0.6164551E-02
  0.6380953E+00 -0.2582607E-02 -0.2716064E-02  0.8078695E+05  0.1801119E+05  0.3873910E-01  0.1278687E-01
  0.6690477E+00  0.3557850E-02  0.2716064E-02  0.7938662E+05  0.1988263E+05  0.1240686E-01 -0.7629395E-03
  0.7000000E+00 -0.1691546E-01  0.2105713E-02  0.7781691E+05  0.2178208E+05 -0.3923688E-01 -0.1782227E-01
  0.7309524E+00  0.1085511E-02  0.1342773E-02  0.7621077E+05  0.2364836E+05  0.1043761E-01  0.1159668E-02
  0.7619048E+00 -0.7690429E-02 -0.1800537E-02  0.7456058E+05  0.2548645E+05 -0.7610320E-02 -0.4272461E-02
  0.7928572E+00  0.6081520E-02  0.6225586E-02  0.7283612E+05  0.2729324E+05 -0.4688159E-01 -0.4608154E-02
  0.8238096E+00 -0.1592912E-01  0.6408691E-02  0.7109777E+05  0.2904869E+05  0.1785543E-01 -0.1986694E-01
  0.8547620E+00  0.1378136E-01  0.4394531E-02  0.6934637E+05  0.3074182E+05 -0.5848154E-01  0.3570557E-02
  0.8857143E+00  0.1936390E-01 -0.4394531E-02  0.6757843E+05  0.3236287E+05 -0.1024012E+00 -0.2362061E-01
  0.9166667E+00 -0.1378285E-01 -0.6958008E-02  0.6579706E+05  0.3390753E+05 -0.1258434E-01  0.5737305E-02
  0.9476191E+00  0.4508627E-02 -0.9155273E-03  0.6402660E+05  0.3535896E+05 -0.7284653E-01  0.1623535E-01
  0.9785714E+00 -0.4116532E-02  0.2685547E-02  0.6228434E+05  0.3671480E+05 -0.4116532E-02  0.1470947E-01
  0.1009524E+01  0.1469162E-01 -0.4760742E-02  0.6058339E+05  0.3796655E+05 -0.3506643E-01 -0.9582520E-02
  0.1040476E+01  0.7215277E-02  0.3601074E-02  0.5892924E+05  0.3911388E+05 -0.6839848E-01 -0.7263184E-02
  0.1071429E+01  0.4785156E-02 -0.3051758E-02  0.5730549E+05  0.4016097E+05 -0.1150716E-01  0.4882812E-03
  0.1102381E+01  0.2436133E-02 -0.1190186E-01  0.5574353E+05  0.4109817E+05 -0.2762797E-01  0.2526855E-01
  0.1133333E+01 -0.1610251E-01  0.3540039E-02  0.5422561E+05  0.4193600E+05  0.7593492E-02  0.4693604E-01
  0.1164286E+01 -0.5766511E-03 -0.6225586E-02  0.5278177E+05  0.4266539E+05 -0.4241007E-01  0.2380371E-02
  0.1195238E+01  0.2451133E-02 -0.9826660E-02  0.5141129E+05  0.4328693E+05  0.3303923E-01 -0.1428223E-01
  0.1226190E+01 -0.2857156E-01 -0.5676270E-02  0.5009630E+05  0.4381496E+05  0.2802403E-01  0.1306152E-01
  0.1257143E+01 -0.1699274E-02  0.1647949E-02  0.4886093E+05  0.4425480E+05  0.2427534E-02 -0.1031494E-01
  0.1288095E+01  0.1800594E-02 -0.1123047E-01  0.4770586E+05  0.4457017E+05  0.1795855E-01  0.4638672E-02
  0.1319048E+01  0.1573253E-01  0.1062012E-01  0.4663265E+05  0.4482384E+05 -0.4071948E-01 -0.1409912E-01
  0.1350000E+01  0.5334925E-02  0.7324219E-02  0.4562785E+05  0.4499185E+05 -0.1225224E-01 -0.2868652E-02
  0.1380952E+01 -0.7867222E-02 -0.1293945E-01  0.4471242E+05  0.4509354E+05 -0.1608803E-01 -0.3540039E-02
  0.1411905E+01  0.1495721E-01  0.1416016E-01  0.4387048E+05  0.4528090E+05 -0.2502956E-01  0.1477051E-01
  0.1442857E+01  0.5160795E-02  0.6958008E-02  0.4307316E+05  0.4527641E+05  0.1123107E-01 -0.1599121E-01
  0.1473810E+01 -0.2940336E-02  0.1123047E-01  0.4234071E+05  0.4522948E+05  0.9939166E-02  0.1336670E-01
  0.1504762E+01 -0.3650520E-03 -0.9277344E-02  0.4167545E+05  0.4513995E+05 -0.2900136E-02  0.8605957E-02
  0.1535714E+01  0.5564135E-02 -0.8178711E-02  0.4108152E+05  0.4502174E+05 -0.3223224E-01  0.2716064E-01
  0.1566667E+01  0.3778985E-02  0.5249023E-02  0.4054949E+05  0.4487226E+05  0.3108897E-01 -0.9765625E-03
  0.1597619E+01  0.7258726E-03  0.7202148E-02  0.4007708E+05  0.4473534E+05  0.1761196E-01 -0.7995605E-02
  0.1628572E+01 -0.1094350E-01  0.6591797E-02  0.3961974E+05  0.4461079E+05 -0.2252411E-01  0.7202148E-02
  0.1659524E+01 -0.9819917E-02 -0.5004883E-02  0.3922709E+05  0.4449129E+05  0.1465632E-01  0.7263184E-02
  0.1690476E+01 -0.5090848E-02 -0.6103516E-02  0.3887114E+05  0.4437202E+05  0.1550723E-01 -0.4333496E-02
  0.1721429E+01 -0.6470740E-02 -0.2929688E-02  0.3853008E+05  0.4430063E+05  0.9183132E-02  0.2319336E-01
  0.1752381E+01 -0.9160249E-02  0.8911133E-02  0.3822113E+05  0.4425465E+05  0.3392427E-01  0.1708984E-02
  0.1783333E+01  0.8727457E-03  0.4882812E-02  0.3792731E+05  0.4422724E+05 -0.8008725E-02  0.5310059E-02
  0.1814286E+01  0.1426396E-01  0.1464844E-02  0.3764064E+05  0.4424619E+05 -0.2521425E-01  0.6713867E-03
  0.1845238E+01 -0.1968089E-02 -0.5493164E-02  0.3734712E+05  0.4431863E+05 -0.1283392E-01 -0.3540039E-02
  0.1876190E+01  0.6132174E-02 -0.3295898E-02  0.3701274E+05  0.4439736E+05  0.2342263E-02  0.1513672E-01
  0.1907143E+01  0.2400259E-02  0.8544922E-02  0.3668002E+05  0.4449831E+05  0.1294540E-01  0.1281738E-02
  0.1938095E+01 -0.3464157E-02 -0.2050781E-01  0.3633324E+05  0.4458692E+05  0.4597882E-02  0.2044678E-01
  0.1969048E+01  0.3487196E-02 -0.8666992E-02  0.3595745E+05  0.4466267E+05 -0.6726414E-02  0.8422852E-02
  0.2000000E+01 -0.4730225E-03 -0.9765625E-02  0.3556188E+05  0.4468829E+05 -0.8705139E-02 -0.2593994E-01
Zone t="Motion of body    1 in DoF   3",I=    64,F=POINT
  0.5000000E-01 -0.6218464E+06 -0.6214205E-01 -0.3990173E-01 -0.3592534E-03  0.2167722E+07  0.1285142E+00
  0.8095238E-01 -0.6251546E+06 -0.2723072E+00 -0.1031988E-01 -0.2412875E-03  0.2171237E+07  0.5567304E+00
  0.1119048E+00 -0.6255064E+06 -0.7616971E+00 -0.8505151E-01 -0.2805740E-03  0.2171803E+07  0.1553205E+01
  0.1428571E+00 -0.6262188E+06 -0.1713326E+01 -0.9629058E-01 -0.1373717E-02  0.2172641E+07  0.3496910E+01
  0.1738095E+00 -0.6267416E+06 -0.3402790E+01 -0.9380393E-01 -0.2576943E-02  0.2173420E+07  0.6929386E+01
  0.2047619E+00 -0.6273678E+06 -0.6256578E+01 -0.1113696E+00 -0.1396727E-02  0.2174400E+07  0.1273081E+02
  0.2357143E+00 -0.6279839E+06 -0.1097989E+02  0.7314971E-02 -0.3059804E-03  0.2175534E+07  0.2229107E+02
  0.2666667E+00 -0.6287503E+06 -0.1864060E+02 -0.1968384E-01  0.1969710E-03  0.2176650E+07  0.3774440E+02
  0.2976190E+00 -0.6297249E+06 -0.3110688E+02  0.6121582E-01  0.1062028E-02  0.2177968E+07  0.6283888E+02
  0.3285715E+00 -0.6305962E+06 -0.5118316E+02  0.3715183E-01  0.8480102E-03  0.2179658E+07  0.1030756E+03
  0.3595238E+00 -0.6319456E+06 -0.8359706E+02 -0.2117839E-01 -0.1435846E-02  0.2181525E+07  0.1676923E+03
  0.3904762E+00 -0.6331356E+06 -0.1353148E+03  0.6709587E-01  0.6566256E-02  0.2183418E+07  0.2705725E+03
  0.4214286E+00 -0.6347505E+06 -0.2162061E+03 -0.4308668E-01 -0.2134264E-02  0.2185887E+07  0.4306362E+03
  0.4523810E+00 -0.6364388E+06 -0.3424698E+03 -0.7683683E-01 -0.1177824E-01  0.2188745E+07  0.6792911E+03
  0.4833333E+00 -0.6383421E+06 -0.5288062E+03 -0.2866548E-01 -0.2887845E-02  0.2191607E+07  0.1043463E+04
  0.5142857E+00 -0.6405346E+06 -0.8027498E+03  0.5583869E-01  0.3041267E-02  0.2194976E+07  0.1577360E+04
  0.5452381E+00 -0.6428926E+06 -0.1189238E+04 -0.5037399E-01 -0.4808426E-02  0.2198902E+07  0.2325658E+04
  0.5761905E+00 -0.6456939E+06 -0.1720956E+04 -0.2012647E-02 -0.4019737E-03  0.2203153E+07  0.3345848E+04
  0.6071429E+00 -0.6485559E+06 -0.2444184E+04 -0.3056066E-01 -0.3252983E-02  0.2207648E+07  0.4724688E+04
  0.6380953E+00 -0.6516829E+06 -0.3392546E+04 -0.1994346E-01 -0.1603889E-01  0.2212500E+07  0.6519193E+04
  0.6690477E+00 -0.6551941E+06 -0.4626594E+04 -0.9738474E-01 -0.2820206E-01  0.2217757E+07  0.8838200E+04
  0.7000000E+00 -0.6585176E+06 -0.6213204E+04  0.6116594E-01  0.1815987E-01  0.2223077E+07  0.1179289E+05
  0.7309524E+00 -0.6622362E+06 -0.8216438E+04 -0.4801299E-01 -0.3028679E-01  0.2228653E+07  0.1548165E+05
  0.7619048E+00 -0.6663824E+06 -0.1072171E+05  0.6328582E-02 -0.5210876E-02  0.2234260E+07  0.2004630E+05
  0.7928572E+00 -0.6703518E+06 -0.1380640E+05  0.4726650E-01  0.6782532E-02  0.2240084E+07  0.2562667E+05
  0.8238096E+00 -0.6747148E+06 -0.1757129E+05 -0.1450661E+00 -0.7077789E-01  0.2246258E+07  0.3237525E+05
  0.8547620E+00 -0.6785562E+06 -0.2210492E+05 -0.6355137E-02  0.9841919E-03  0.2251786E+07  0.4040027E+05
  0.8857143E+00 -0.6827794E+06 -0.2752894E+05 -0.7125362E-01 -0.3352356E-01  0.2257114E+07  0.4987713E+05
  0.9166667E+00 -0.6865466E+06 -0.3392974E+05  0.1081987E+00  0.6462097E-01  0.2261837E+07  0.6092164E+05
  0.9476191E+00 -0.6905071E+06 -0.4142641E+05  0.1442761E-01  0.1049805E-01  0.2266327E+07  0.7368624E+05
  0.9785714E+00 -0.6937732E+06 -0.5008491E+05  0.1202526E+00  0.4861450E-01  0.2269945E+07  0.8824755E+05
  0.1009524E+01 -0.6966831E+06 -0.5998164E+05  0.5568307E-01 -0.2824402E-01  0.2272013E+07  0.1046460E+06
  0.1040476E+01 -0.6990419E+06 -0.7117076E+05 -0.8095189E-02 -0.7171631E-02  0.2273634E+07  0.1229745E+06
  0.1071429E+01 -0.7002170E+06 -0.8365343E+05 -0.4733887E-01 -0.1394653E-01  0.2273180E+07  0.1430590E+06
  0.1102381E+01 -0.7008984E+06 -0.9747071E+05  0.7601843E-01  0.4248047E-01  0.2271460E+07  0.1648871E+06
  0.1133333E+01 -0.7002831E+06 -0.1125374E+06  0.3505931E-01  0.4745483E-01  0.2267859E+07  0.1882156E+06
  0.1164286E+01 -0.6985388E+06 -0.1287208E+06 -0.1048457E-01  0.9094238E-02  0.2261549E+07  0.2127170E+06
  0.1195238E+01 -0.6958302E+06 -0.1459296E+06 -0.5535475E-01 -0.5175781E-01  0.2254232E+07  0.2383135E+06
  0.1226190E+01 -0.6911735E+06 -0.1637882E+06  0.4678967E-01  0.3790283E-01  0.2243765E+07  0.2642272E+06
  0.1257143E+01 -0.6854606E+06 -0.1821306E+06  0.3311157E-01  0.2386475E-01  0.2231832E+07  0.2902842E+06
  0.1288095E+01 -0.6783552E+06 -0.2006514E+06 -0.2975718E-01 -0.4046631E-01  0.2217774E+07  0.3156847E+06
  0.1319048E+01 -0.6698052E+06 -0.2189316E+06 -0.2776328E-02 -0.3045654E-01  0.2202026E+07  0.3399806E+06
  0.1350000E+01 -0.6600203E+06 -0.2365491E+06 -0.4304109E-01 -0.4345703E-01  0.2183990E+07  0.3622902E+06
  0.1380952E+01 -0.6494179E+06 -0.2534004E+06  0.3398816E-01  0.6237793E-01  0.2165874E+07  0.3827905E+06
  0.1411905E+01 -0.6383955E+06 -0.2687212E+06  0.7180328E-01  0.9399414E-02  0.2146690E+07  0.4006235E+06
  0.1442857E+01 -0.6261733E+06 -0.2828814E+06 -0.4145556E-02  0.1354980E-01  0.2126909E+07  0.4156021E+06
  0.1473810E+01 -0.6133056E+06 -0.2951560E+06  0.2853369E-01  0.6262207E-01  0.2106316E+07  0.4269780E+06
  0.1504762E+01 -0.6001236E+06 -0.3055643E+06  0.2458017E-01  0.2136230E-01  0.2086180E+07  0.4350958E+06
  0.1535714E+01 -0.5870094E+06 -0.3138716E+06  0.8664153E-02  0.6103516E-02  0.2066464E+07  0.4397574E+06
  0.1566667E+01 -0.5742494E+06 -0.3201348E+06  0.1044091E-01  0.4223633E-01  0.2047455E+07  0.4410572E+06
  0.1597619E+01 -0.5619468E+06 -0.3245569E+06 -0.1593099E-01 -0.1892090E-01  0.2030450E+07  0.4399304E+06
  0.1628572E+01 -0.5496539E+06 -0.3266424E+06  0.4905834E-01  0.6164551E-01  0.2013547E+07  0.4348941E+06
  0.1659524E+01 -0.5385014E+06 -0.3273192E+06 -0.6362718E-02 -0.1672363E-01  0.1999146E+07  0.4283328E+06
  0.1690476E+01 -0.5280656E+06 -0.3260883E+06 -0.2488558E-01 -0.3662109E-02  0.1985555E+07  0.4188366E+06
  0.1721429E+01 -0.5180824E+06 -0.3232648E+06  0.1090275E-01  0.3076172E-01  0.1973524E+07  0.4073675E+06
  0.1752381E+01 -0.5091668E+06 -0.3192947E+06  0.2364947E-01  0.8300781E-02  0.1963452E+07  0.3948342E+06
  0.1783333E+01 -0.5009817E+06 -0.3137714E+06  0.3642577E-01  0.1965332E-01  0.1954046E+07  0.3799904E+06
  0.1814286E+01 -0.4938231E+06 -0.3075133E+06  0.1455833E-01  0.6103516E-03  0.1946407E+07  0.3646862E+06
  0.1845238E+01 -0.4874826E+06 -0.3006641E+06  0.1758876E-01 -0.3173828E-02  0.1940684E+07  0.3497481E+06
  0.1876190E+01 -0.4814562E+06 -0.2924858E+06  0.2709868E-01  0.2075195E-01  0.1935052E+07  0.3324535E+06
  0.1907143E+01 -0.4765079E+06 -0.2843340E+06 -0.6848739E-02 -0.3833008E-01  0.1931387E+07  0.3164398E+06
  0.1938095E+01 -0.4723838E+06 -0.2756565E+06  0.4698657E-01  0.3247070E-01  0.1928482E+07  0.2994871E+06
  0.1969048E+01 -0.4687099E+06 -0.2665954E+06 -0.1015162E-01 -0.1806641E-01  0.1926436E+07  0.2828946E+06
  0.2000000E+01 -0.4655691E+06 -0.2573576E+06 -0.2581787E-01 -0.4272461E-02  0.1925258E+07  0.2665208E+06
