VARIABLES="w (rad/s)"
"abs(F   1   1)" "angle(F   1   1)"
"abs(F   1   2)" "angle(F   1   2)"
"abs(F   1   3)" "angle(F   1   3)"
Zone t="Diffraction force - beta =   0.000 deg",I=    64,F=POINT
  0.5000000E-01  0.4489375E+03 -0.1570796E+01  0.1208314E+03 -0.3099909E+01  0.4601398E+01 -0.1570794E+01
  0.8095238E-01  0.7321572E+03 -0.1570794E+01  0.3146838E+03 -0.3098588E+01  0.7439750E+01 -0.1570792E+01
  0.1119048E+00  0.1023766E+04 -0.1570792E+01  0.5987070E+03 -0.3096788E+01  0.1016581E+02 -0.1570787E+01
  0.1428571E+00  0.1321616E+04 -0.1570789E+01  0.9736207E+03 -0.3094465E+01  0.1328385E+02 -0.1570783E+01
  0.1738095E+00  0.1639487E+04 -0.1570784E+01  0.1441069E+04 -0.3091505E+01  0.1652765E+02 -0.1570776E+01
  0.2047619E+00  0.1967216E+04 -0.1570776E+01  0.2003198E+04 -0.3087779E+01  0.2016130E+02 -0.1570766E+01
  0.2357143E+00  0.2319460E+04 -0.1570766E+01  0.2662737E+04 -0.3083064E+01  0.2366963E+02 -0.1570751E+01
  0.2666667E+00  0.2702289E+04 -0.1570751E+01  0.3421481E+04 -0.3077283E+01  0.2802822E+02 -0.1570730E+01
  0.2976190E+00  0.3111531E+04 -0.1570728E+01  0.4283294E+04 -0.3070007E+01  0.3270280E+02 -0.1570699E+01
  0.3285715E+00  0.3557760E+04 -0.1570693E+01  0.5250754E+04 -0.3061245E+01  0.3733844E+02 -0.1570652E+01
  0.3595238E+00  0.4061956E+04 -0.1570642E+01  0.6322750E+04 -0.3050553E+01  0.4331313E+02 -0.1570584E+01
  0.3904762E+00  0.4610022E+04 -0.1570565E+01  0.7502763E+04 -0.3037810E+01  0.5001785E+02 -0.1570483E+01
  0.4214286E+00  0.5211051E+04 -0.1570451E+01  0.8779033E+04 -0.3023462E+01  0.5737561E+02 -0.1570336E+01
  0.4523810E+00  0.5888185E+04 -0.1570284E+01  0.1015564E+05 -0.3006778E+01  0.6589258E+02 -0.1570117E+01
  0.4833333E+00  0.6639500E+04 -0.1570052E+01  0.1161204E+05 -0.2989688E+01  0.7737907E+02 -0.1569833E+01
  0.5142857E+00  0.7430731E+04 -0.1569727E+01  0.1314759E+05 -0.2971086E+01  0.8622475E+02 -0.1569397E+01
  0.5452381E+00  0.8268755E+04 -0.1569288E+01  0.1475649E+05 -0.2952338E+01  0.9723123E+02 -0.1568830E+01
  0.5761905E+00  0.9198339E+04 -0.1568720E+01  0.1643060E+05 -0.2933733E+01  0.1111897E+03 -0.1568123E+01
  0.6071429E+00  0.1018404E+05 -0.1567983E+01  0.1815635E+05 -0.2914412E+01  0.1263551E+03 -0.1567212E+01
  0.6380953E+00  0.1119701E+05 -0.1567054E+01  0.1994804E+05 -0.2896026E+01  0.1422005E+03 -0.1566062E+01
  0.6690477E+00  0.1222569E+05 -0.1565884E+01  0.2179120E+05 -0.2877660E+01  0.1555578E+03 -0.1564532E+01
  0.7000000E+00  0.1332324E+05 -0.1564443E+01  0.2367026E+05 -0.2858969E+01  0.1724903E+03 -0.1562721E+01
  0.7309524E+00  0.1448833E+05 -0.1562704E+01  0.2559457E+05 -0.2840766E+01  0.1938000E+03 -0.1560647E+01
  0.7619048E+00  0.1570562E+05 -0.1560612E+01  0.2755142E+05 -0.2822699E+01  0.2169916E+03 -0.1558187E+01
  0.7928572E+00  0.1693862E+05 -0.1558099E+01  0.2952881E+05 -0.2804658E+01  0.2383837E+03 -0.1555110E+01
  0.8238096E+00  0.1815788E+05 -0.1555093E+01  0.3152282E+05 -0.2786739E+01  0.2577826E+03 -0.1551293E+01
  0.8547620E+00  0.1942279E+05 -0.1551573E+01  0.3354013E+05 -0.2769192E+01  0.2827116E+03 -0.1547079E+01
  0.8857143E+00  0.2076153E+05 -0.1547510E+01  0.3556350E+05 -0.2751883E+01  0.3098522E+03 -0.1542265E+01
  0.9166667E+00  0.2214733E+05 -0.1542834E+01  0.3758319E+05 -0.2734783E+01  0.3381268E+03 -0.1536691E+01
  0.9476191E+00  0.2355512E+05 -0.1537468E+01  0.3958309E+05 -0.2717767E+01  0.3704929E+03 -0.1530527E+01
  0.9785714E+00  0.2498746E+05 -0.1531357E+01  0.4157412E+05 -0.2701135E+01  0.4067939E+03 -0.1523717E+01
  0.1009524E+01  0.2640892E+05 -0.1524404E+01  0.4354831E+05 -0.2684883E+01  0.4384437E+03 -0.1515475E+01
  0.1040476E+01  0.2780071E+05 -0.1516520E+01  0.4549864E+05 -0.2668973E+01  0.4670885E+03 -0.1505778E+01
  0.1071429E+01  0.2921158E+05 -0.1507734E+01  0.4741894E+05 -0.2653379E+01  0.5001423E+03 -0.1495325E+01
  0.1102381E+01  0.3064736E+05 -0.1498036E+01  0.4930230E+05 -0.2638078E+01  0.5402580E+03 -0.1484476E+01
  0.1133333E+01  0.3211729E+05 -0.1487419E+01  0.5114547E+05 -0.2623142E+01  0.5847952E+03 -0.1472898E+01
  0.1164286E+01  0.3358086E+05 -0.1475791E+01  0.5294471E+05 -0.2608601E+01  0.6282233E+03 -0.1459904E+01
  0.1195238E+01  0.3501685E+05 -0.1463086E+01  0.5468934E+05 -0.2594353E+01  0.6724404E+03 -0.1445739E+01
  0.1226190E+01  0.3641043E+05 -0.1449253E+01  0.5638221E+05 -0.2580529E+01  0.7172951E+03 -0.1430292E+01
  0.1257143E+01  0.3768488E+05 -0.1434032E+01  0.5802897E+05 -0.2566646E+01  0.7594466E+03 -0.1412958E+01
  0.1288095E+01  0.3893456E+05 -0.1417822E+01  0.5958554E+05 -0.2553848E+01  0.8034077E+03 -0.1394570E+01
  0.1319048E+01  0.4006611E+05 -0.1400251E+01  0.6110233E+05 -0.2541252E+01  0.8473238E+03 -0.1374911E+01
  0.1350000E+01  0.4113301E+05 -0.1381666E+01  0.6255610E+05 -0.2529086E+01  0.8892259E+03 -0.1353916E+01
  0.1380952E+01  0.4211797E+05 -0.1362087E+01  0.6393998E+05 -0.2517352E+01  0.9310267E+03 -0.1332088E+01
  0.1411905E+01  0.4274137E+05 -0.1341657E+01  0.6519121E+05 -0.2505679E+01  0.9503323E+03 -0.1306154E+01
  0.1442857E+01  0.4347636E+05 -0.1320038E+01  0.6642044E+05 -0.2494382E+01  0.9916083E+03 -0.1282064E+01
  0.1473810E+01  0.4405921E+05 -0.1297381E+01  0.6757428E+05 -0.2483488E+01  0.1032388E+04 -0.1257252E+01
  0.1504762E+01  0.4448707E+05 -0.1273775E+01  0.6865307E+05 -0.2473039E+01  0.1072070E+04 -0.1231777E+01
  0.1535714E+01  0.4474471E+05 -0.1249356E+01  0.6965512E+05 -0.2463053E+01  0.1109018E+04 -0.1205942E+01
  0.1566667E+01  0.4482720E+05 -0.1224314E+01  0.7057433E+05 -0.2453387E+01  0.1138576E+04 -0.1178525E+01
  0.1597619E+01  0.4470304E+05 -0.1198579E+01  0.7141045E+05 -0.2444046E+01  0.1159082E+04 -0.1149536E+01
  0.1628572E+01  0.4438171E+05 -0.1172318E+01  0.7216243E+05 -0.2435039E+01  0.1175613E+04 -0.1119875E+01
  0.1659524E+01  0.4384854E+05 -0.1145517E+01  0.7282746E+05 -0.2426239E+01  0.1189011E+04 -0.1089899E+01
  0.1690476E+01  0.4309828E+05 -0.1118210E+01  0.7340862E+05 -0.2417825E+01  0.1198675E+04 -0.1060112E+01
  0.1721429E+01  0.4214433E+05 -0.1090736E+01  0.7390588E+05 -0.2409811E+01  0.1204111E+04 -0.1031434E+01
  0.1752381E+01  0.4098348E+05 -0.1063172E+01  0.7431795E+05 -0.2402231E+01  0.1203009E+04 -0.1002643E+01
  0.1783333E+01  0.3961504E+05 -0.1035521E+01  0.7464299E+05 -0.2395022E+01  0.1191392E+04 -0.9731719E+00
  0.1814286E+01  0.3804102E+05 -0.1007767E+01  0.7487870E+05 -0.2388108E+01  0.1171103E+04 -0.9431797E+00
  0.1845238E+01  0.3626050E+05 -0.9797875E+00  0.7502910E+05 -0.2381496E+01  0.1139872E+04 -0.9112781E+00
  0.1876190E+01  0.3429172E+05 -0.9517589E+00  0.7509346E+05 -0.2375210E+01  0.1102314E+04 -0.8802820E+00
  0.1907143E+01  0.3214869E+05 -0.9237579E+00  0.7507024E+05 -0.2369191E+01  0.1058138E+04 -0.8501629E+00
  0.1938095E+01  0.2983333E+05 -0.8954735E+00  0.7496031E+05 -0.2363461E+01  0.1007545E+04 -0.8213335E+00
  0.1969048E+01  0.2736404E+05 -0.8668175E+00  0.7476704E+05 -0.2358149E+01  0.9485979E+03 -0.7925785E+00
  0.2000000E+01  0.2475091E+05 -0.8374659E+00  0.7448805E+05 -0.2353205E+01  0.8813530E+03 -0.7632367E+00
