VARIABLES="w (rad/s)"
"A   1   1" "B   1   1"
"A   1   2" "B   1   2"
"A   1   3" "B   1   3"
Zone t="Motion of body    1 in DoF   1",I=    64,F=POINT
  0.5000000E-01  0.1287228E+06  0.2330883E-01 -0.3280640E-02 -0.2457617E-04  0.3029718E+04  0.6963218E-03
  0.8095238E-01  0.1290959E+06  0.1026521E+00  0.3267961E-01  0.4175695E-04  0.3026600E+04  0.3092186E-02
  0.1119048E+00  0.1295299E+06  0.2879443E+00  0.2843005E-01  0.1234503E-03  0.3021735E+04  0.8622934E-02
  0.1428571E+00  0.1294224E+06  0.6476562E+00 -0.9559631E-02 -0.1485270E-03  0.3017562E+04  0.1948986E-01
  0.1738095E+00  0.1299701E+06  0.1289593E+01  0.2122330E-01  0.8111075E-04  0.3051190E+04  0.3905015E-01
  0.2047619E+00  0.1300755E+06  0.2376494E+01  0.1389792E-01  0.1201099E-03  0.3054602E+04  0.7234237E-01
  0.2357143E+00  0.1304840E+06  0.4183679E+01 -0.9548302E-02 -0.2544457E-03  0.3074536E+04  0.1281031E+00
  0.2666667E+00  0.1310425E+06  0.7135796E+01  0.9899138E-02  0.6716140E-04  0.3120184E+04  0.2205788E+00
  0.2976190E+00  0.1312706E+06  0.1195095E+02  0.2514770E-01  0.8353405E-03  0.3142825E+04  0.3726913E+00
  0.3285715E+00  0.1319095E+06  0.1976170E+02  0.2113010E-01  0.5443469E-03  0.3185279E+04  0.6226275E+00
  0.3595238E+00  0.1327936E+06  0.3244130E+02  0.2221821E-01  0.6618723E-03  0.3280959E+04  0.1037596E+01
  0.3904762E+00  0.1332195E+06  0.5280796E+02  0.2555661E-01  0.1311228E-02  0.3261710E+04  0.1700968E+01
  0.4214286E+00  0.1338580E+06  0.8482009E+02 -0.1328808E-01 -0.9167194E-03  0.3327222E+04  0.2771426E+01
  0.4523810E+00  0.1350444E+06  0.1352279E+03  0.1865266E-01 -0.1371503E-03  0.3404140E+04  0.4479276E+01
  0.4833333E+00  0.1361278E+06  0.2101614E+03  0.4072518E-02 -0.1901984E-02  0.3492367E+04  0.7075078E+01
  0.5142857E+00  0.1368643E+06  0.3209092E+03  0.5112119E-01  0.4748404E-02  0.3512573E+04  0.1093080E+02
  0.5452381E+00  0.1379766E+06  0.4785864E+03  0.8171782E-02  0.9943247E-03  0.3576001E+04  0.1653767E+02
  0.5761905E+00  0.1395415E+06  0.6974728E+03  0.4202724E-01  0.5450606E-02  0.3711985E+04  0.2458003E+02
  0.6071429E+00  0.1411787E+06  0.9976526E+03  0.2382525E-01  0.3525019E-02  0.3821512E+04  0.3576114E+02
  0.6380953E+00  0.1423771E+06  0.1393701E+04  0.1528042E-01  0.4080772E-02  0.3859013E+04  0.5066311E+02
  0.6690477E+00  0.1437961E+06  0.1913366E+04  0.7275347E-02 -0.3108978E-03  0.3966226E+04  0.7086081E+02
  0.7000000E+00  0.1456820E+06  0.2588136E+04  0.1988002E-01  0.6286621E-02  0.4089449E+04  0.9757732E+02
  0.7309524E+00  0.1477413E+06  0.3446049E+04 -0.5093552E-02 -0.4648209E-02  0.4235301E+04  0.1325075E+03
  0.7619048E+00  0.1498479E+06  0.4526220E+04  0.2255058E-01  0.1567841E-02  0.4412835E+04  0.1779412E+03
  0.7928572E+00  0.1517581E+06  0.5867337E+04  0.5927558E-02 -0.2605438E-02  0.4521031E+04  0.2349053E+03
  0.8238096E+00  0.1535328E+06  0.7511513E+04  0.2670905E-01  0.3362656E-02  0.4615555E+04  0.3059595E+03
  0.8547620E+00  0.1555130E+06  0.9505296E+04 -0.1553081E-01 -0.6200790E-02  0.4772867E+04  0.3951624E+03
  0.8857143E+00  0.1577760E+06  0.1190026E+05  0.9819769E-02 -0.3059387E-02  0.4976147E+04  0.5061278E+03
  0.9166667E+00  0.1600496E+06  0.1474298E+05  0.2203924E-01  0.1792336E-01  0.5165519E+04  0.6408272E+03
  0.9476191E+00  0.1621525E+06  0.1808030E+05  0.1925828E-01  0.4886627E-02  0.5343425E+04  0.8027851E+03
  0.9785714E+00  0.1639141E+06  0.2195343E+05  0.1646613E-01  0.1255417E-01  0.5504114E+04  0.9964012E+03
  0.1009524E+01  0.1653179E+06  0.2639610E+05  0.1674724E-01  0.1112747E-01  0.5645219E+04  0.1225172E+04
  0.1040476E+01  0.1664707E+06  0.3142857E+05  0.3003432E-01 -0.2502441E-02  0.5787284E+04  0.1491282E+04
  0.1071429E+01  0.1674207E+06  0.3705330E+05  0.1125081E-01  0.5798340E-02  0.5924275E+04  0.1795633E+04
  0.1102381E+01  0.1680670E+06  0.4326661E+05  0.2768333E-03 -0.2182007E-01  0.6049142E+04  0.2141800E+04
  0.1133333E+01  0.1682211E+06  0.5004759E+05  0.1200956E-01  0.1410675E-01  0.6168699E+04  0.2536494E+04
  0.1164286E+01  0.1678961E+06  0.5735948E+05  0.9462321E-02  0.3799438E-02  0.6276486E+04  0.2978746E+04
  0.1195238E+01  0.1670513E+06  0.6512789E+05  0.5106527E-02 -0.7919312E-02  0.6360993E+04  0.3463367E+04
  0.1226190E+01  0.1656607E+06  0.7324346E+05  0.2227487E-01  0.1983643E-01  0.6394957E+04  0.3983554E+04
  0.1257143E+01  0.1636550E+06  0.8165873E+05  0.6481517E-02 -0.5630493E-02  0.6373958E+04  0.4535824E+04
  0.1288095E+01  0.1611601E+06  0.9011008E+05  0.1679764E-01 -0.8544922E-03  0.6348259E+04  0.5124061E+04
  0.1319048E+01  0.1580606E+06  0.9864235E+05  0.1897158E-01 -0.1985168E-01  0.6292311E+04  0.5746319E+04
  0.1350000E+01  0.1545216E+06  0.1070561E+06  0.2396195E-01  0.2507019E-01  0.6214394E+04  0.6391146E+04
  0.1380952E+01  0.1505751E+06  0.1152226E+06  0.9303652E-02 -0.3123474E-01  0.6098679E+04  0.7043772E+04
  0.1411905E+01  0.1457210E+06  0.1225063E+06  0.7629909E-02 -0.2288818E-03  0.5846715E+04  0.7645322E+04
  0.1442857E+01  0.1410691E+06  0.1298713E+06  0.1066000E-01  0.2578735E-01  0.5648717E+04  0.8293277E+04
  0.1473810E+01  0.1362178E+06  0.1367193E+06  0.2165910E-01 -0.2665710E-01  0.5435125E+04  0.8936302E+04
  0.1504762E+01  0.1311670E+06  0.1429833E+06  0.2403259E-01  0.7247925E-02  0.5212299E+04  0.9574174E+04
  0.1535714E+01  0.1260538E+06  0.1486241E+06  0.9061591E-02  0.1182556E-01  0.4962546E+04  0.1019252E+05
  0.1566667E+01  0.1209347E+06  0.1536086E+06  0.7986515E-02  0.5950928E-02  0.4702166E+04  0.1079563E+05
  0.1597619E+01  0.1158924E+06  0.1579351E+06  0.1977048E-01 -0.3143311E-02  0.4421454E+04  0.1137166E+05
  0.1628572E+01  0.1109546E+06  0.1616064E+06  0.1397919E-01 -0.1858521E-01  0.4131008E+04  0.1190875E+05
  0.1659524E+01  0.1061180E+06  0.1646552E+06  0.2776793E-02  0.5462646E-02  0.3826796E+04  0.1240307E+05
  0.1690476E+01  0.1014748E+06  0.1671143E+06  0.2132018E-01 -0.1330566E-01  0.3529693E+04  0.1287354E+05
  0.1721429E+01  0.9698185E+05  0.1690135E+06  0.6541652E-02  0.1525879E-02  0.3228921E+04  0.1332829E+05
  0.1752381E+01  0.9270968E+05  0.1703840E+06  0.1206854E-01  0.5401611E-02  0.2937364E+04  0.1375789E+05
  0.1783333E+01  0.8868346E+05  0.1712743E+06  0.1336499E-01  0.1388550E-02  0.2650665E+04  0.1416274E+05
  0.1814286E+01  0.8490779E+05  0.1717203E+06  0.1724123E-01 -0.5203247E-02  0.2374515E+04  0.1454695E+05
  0.1845238E+01  0.8137036E+05  0.1717633E+06  0.1030352E-01  0.2532959E-02  0.2094295E+04  0.1489647E+05
  0.1876190E+01  0.7806561E+05  0.1714292E+06  0.1270352E-01  0.8453369E-02  0.1823693E+04  0.1521034E+05
  0.1907143E+01  0.7496377E+05  0.1707847E+06  0.1339345E-01  0.2485657E-01  0.1557453E+04  0.1549408E+05
  0.1938095E+01  0.7209911E+05  0.1698837E+06  0.1625005E-01 -0.3051758E-02  0.1295319E+04  0.1574380E+05
  0.1969048E+01  0.6943173E+05  0.1687271E+06  0.2114016E-01  0.1698303E-01  0.1045159E+04  0.1598319E+05
  0.2000000E+01  0.6693091E+05  0.1673641E+06  0.1370239E-01  0.2044678E-01  0.8041885E+03  0.1621939E+05
Zone t="Motion of body    1 in DoF   2",I=    64,F=POINT
  0.5000000E-01 -0.1564026E-01 -0.1013279E-04  0.2248765E+06  0.7555983E+03  0.2601624E-01  0.1142025E-03
  0.8095238E-01  0.3472945E-01  0.3073215E-03  0.2211138E+06  0.1251447E+04  0.2148796E-01  0.1716614E-03
  0.1119048E+00  0.3647500E-02 -0.9202957E-04  0.2190727E+06  0.1789123E+04  0.2433939E-01  0.2360344E-03
  0.1428571E+00  0.1292419E-01  0.1609325E-03  0.2178998E+06  0.2388106E+04  0.2574158E-01  0.3595352E-03
  0.1738095E+00  0.1722885E-01 -0.3440380E-03  0.2173388E+06  0.3072198E+04  0.3230683E-01  0.4348755E-03
  0.2047619E+00 -0.1829458E-01  0.4720688E-04  0.2173575E+06  0.3871935E+04  0.2287754E-01  0.5664825E-03
  0.2357143E+00 -0.3570094E-01  0.3128052E-03  0.2176706E+06  0.4829174E+04  0.2084443E-01  0.6999969E-03
  0.2666667E+00 -0.9241103E-02 -0.9536743E-04  0.2182666E+06  0.5976685E+04  0.1968384E-01  0.8029938E-03
  0.2976190E+00  0.2061035E-01  0.5779266E-03  0.2190605E+06  0.7394553E+04  0.2512207E-01  0.1247406E-02
  0.3285715E+00 -0.2995366E-01  0.1100540E-02  0.2199730E+06  0.9117021E+04  0.2284838E-01  0.1329422E-02
  0.3595238E+00  0.2907254E-02 -0.6484985E-04  0.2206740E+06  0.1123565E+05  0.2368245E-01  0.1651764E-02
  0.3904762E+00  0.9261340E-02  0.1054764E-02  0.2213652E+06  0.1380883E+05  0.2024208E-01  0.2109528E-02
  0.4214286E+00  0.2038470E-01 -0.4482269E-03  0.2212394E+06  0.1679538E+05  0.2476579E-01  0.2731323E-02
  0.4523810E+00 -0.3713668E-01 -0.4596710E-03  0.2208072E+06  0.2034365E+05  0.1990067E-01  0.2986908E-02
  0.4833333E+00 -0.4552381E-01 -0.4196167E-02  0.2194036E+06  0.2411858E+05  0.2304603E-01  0.4394531E-02
  0.5142857E+00  0.1970079E-01 -0.3910065E-02  0.2173656E+06  0.2830975E+05  0.1952277E-01  0.4699707E-02
  0.5452381E+00  0.1309724E-01  0.2216339E-02  0.2147577E+06  0.3265420E+05  0.2138096E-01  0.5538940E-02
  0.5761905E+00  0.1109604E-01 -0.1403809E-02  0.2115633E+06  0.3705729E+05  0.2870670E-01  0.5950928E-02
  0.6071429E+00  0.8017146E-02  0.4463196E-03  0.2078438E+06  0.4163532E+05  0.1970358E-01  0.5958557E-02
  0.6380953E+00 -0.3323911E-02 -0.1777649E-02  0.2039886E+06  0.4606773E+05  0.2367390E-01  0.8132935E-02
  0.6690477E+00 -0.9920928E-02 -0.5302429E-02  0.1998558E+06  0.5047721E+05  0.2385584E-01  0.7904053E-02
  0.7000000E+00  0.2833775E-02  0.4783630E-02  0.1954171E+06  0.5488420E+05  0.2380371E-01  0.9445190E-02
  0.7309524E+00  0.6095563E-02 -0.7308960E-02  0.1909202E+06  0.5911962E+05  0.2129272E-01  0.9460449E-02
  0.7619048E+00  0.8651732E-02 -0.7171631E-03  0.1863210E+06  0.6321409E+05  0.1329803E-01  0.9826660E-02
  0.7928572E+00 -0.3772082E-01  0.1054382E-01  0.1816326E+06  0.6715070E+05  0.2116985E-01  0.1152039E-01
  0.8238096E+00 -0.3296957E-02 -0.1624298E-01  0.1769188E+06  0.7089555E+05  0.1829996E-01  0.1161194E-01
  0.8547620E+00  0.9389892E-02  0.8010864E-03  0.1722328E+06  0.7441881E+05  0.1963666E-01  0.1338196E-01
  0.8857143E+00 -0.1545322E-01 -0.7568359E-02  0.1676207E+06  0.7769701E+05  0.1640074E-01  0.1522827E-01
  0.9166667E+00  0.1647949E-01  0.8453369E-02  0.1630841E+06  0.8070927E+05  0.1584695E-01  0.1533508E-01
  0.9476191E+00  0.5313739E-02  0.3753662E-02  0.1585807E+06  0.8345742E+05  0.1481406E-01  0.1565552E-01
  0.9785714E+00  0.2395073E-01 -0.9773254E-02  0.1541462E+06  0.8592992E+05  0.1908574E-01  0.1856995E-01
  0.1009524E+01  0.2351869E-01 -0.2616882E-01  0.1498811E+06  0.8810908E+05  0.1009671E-01  0.1470947E-01
  0.1040476E+01 -0.9019096E-02  0.2182007E-02  0.1457931E+06  0.8998131E+05  0.1108689E-01  0.1908875E-01
  0.1071429E+01 -0.1130778E-01 -0.1151276E-01  0.1418610E+06  0.9156905E+05  0.1452637E-01  0.1898193E-01
  0.1102381E+01  0.1209762E-01 -0.5012512E-02  0.1381026E+06  0.9287089E+05  0.1079650E-01  0.1646423E-01
  0.1133333E+01  0.6677964E-02  0.4600525E-02  0.1344644E+06  0.9391277E+05  0.1319436E-01  0.2076721E-01
  0.1164286E+01  0.3276427E-02 -0.4066467E-02  0.1310653E+06  0.9466732E+05  0.1058941E-01  0.1882935E-01
  0.1195238E+01 -0.2680927E-02 -0.8094788E-02  0.1278641E+06  0.9513732E+05  0.1164288E-01  0.2027893E-01
  0.1226190E+01  0.4927848E-02  0.2068329E-01  0.1248522E+06  0.9535616E+05  0.1040324E-01  0.1976013E-01
  0.1257143E+01  0.4078258E-02 -0.1089478E-01  0.1220360E+06  0.9537728E+05  0.7962313E-02  0.2447510E-01
  0.1288095E+01 -0.1461798E-01 -0.4425049E-03  0.1193561E+06  0.9508813E+05  0.9998033E-02  0.2243042E-01
  0.1319048E+01 -0.4604078E-02  0.8918762E-02  0.1168741E+06  0.9462310E+05  0.7496086E-02  0.2247620E-01
  0.1350000E+01  0.5221897E-02  0.1045227E-02  0.1146110E+06  0.9395355E+05  0.7143374E-02  0.2018738E-01
  0.1380952E+01 -0.4419787E-02 -0.3495026E-01  0.1125516E+06  0.9305762E+05  0.7292649E-02  0.2407837E-01
  0.1411905E+01  0.1748611E-01  0.1358032E-02  0.1106255E+06  0.9218648E+05  0.7824440E-02  0.2032471E-01
  0.1442857E+01 -0.1713215E-02 -0.1844788E-01  0.1088910E+06  0.9097991E+05  0.5668413E-02  0.1908875E-01
  0.1473810E+01 -0.3520121E-03  0.1894379E-01  0.1073076E+06  0.8962616E+05  0.3851427E-02  0.2348328E-01
  0.1504762E+01 -0.1297963E-01 -0.1035309E-01  0.1058539E+06  0.8814173E+05  0.3853327E-02  0.2153015E-01
  0.1535714E+01  0.3358353E-02 -0.9078979E-03  0.1045844E+06  0.8654460E+05  0.5683366E-02  0.2328491E-01
  0.1566667E+01  0.6467129E-02 -0.4592896E-02  0.1034722E+06  0.8484135E+05  0.3545234E-02  0.2653503E-01
  0.1597619E+01  0.6303631E-03 -0.5996704E-02  0.1024913E+06  0.8303015E+05  0.2177618E-02  0.2398682E-01
  0.1628572E+01  0.4253722E-02 -0.3890991E-02  0.1016179E+06  0.8113593E+05  0.1948842E-02  0.2368164E-01
  0.1659524E+01  0.1191630E-01  0.9807587E-02  0.1008775E+06  0.7917339E+05  0.1691821E-02  0.2815247E-01
  0.1690476E+01  0.6589218E-02 -0.1799393E-01  0.1002395E+06  0.7715052E+05  0.2888424E-02  0.1995850E-01
  0.1721429E+01  0.9112220E-02 -0.8171082E-02  0.9967954E+05  0.7509804E+05  0.1418244E-02  0.2398682E-01
  0.1752381E+01 -0.4144752E-02 -0.5290985E-02  0.9923627E+05  0.7298432E+05  0.2995367E-02  0.2436829E-01
  0.1783333E+01  0.1262914E-01  0.5645752E-03  0.9888585E+05  0.7086951E+05  0.4586193E-02  0.2262878E-01
  0.1814286E+01  0.2035306E-02 -0.5489349E-02  0.9862205E+05  0.6870450E+05  0.2354900E-02  0.2246094E-01
  0.1845238E+01  0.1073352E-01 -0.1916885E-01  0.9842628E+05  0.6650008E+05  0.2150013E-02  0.1866150E-01
  0.1876190E+01  0.7400900E-02 -0.2829361E-01  0.9828065E+05  0.6426658E+05  0.1691634E-02  0.2007294E-01
  0.1907143E+01  0.4032435E-02  0.2872467E-02  0.9819722E+05  0.6201952E+05  0.1632176E-02  0.2421570E-01
  0.1938095E+01  0.8266740E-02  0.1609039E-01  0.9816266E+05  0.5976318E+05  0.7873086E-03  0.2281952E-01
  0.1969048E+01  0.1188746E-01 -0.2826691E-02  0.9816228E+05  0.5748279E+05  0.1797843E-02  0.2335358E-01
  0.2000000E+01  0.1184082E-01 -0.2142525E-01  0.9820222E+05  0.5518413E+05 -0.6103516E-03  0.2227020E-01
Zone t="Motion of body    1 in DoF   3",I=    64,F=POINT
  0.5000000E-01  0.3104758E+04  0.7171923E-03  0.1727104E-01  0.8190332E-04  0.7488558E+04  0.1745428E-04
  0.8095238E-01  0.3096001E+04  0.3182094E-02  0.2001538E-01  0.1556129E-03  0.7433626E+04  0.9849965E-04
  0.1119048E+00  0.3084141E+04  0.8931182E-02  0.1626887E-01  0.1925848E-03  0.7433978E+04  0.2657630E-03
  0.1428571E+00  0.3081851E+04  0.2018316E-01  0.1078129E-01  0.1944813E-03  0.7453827E+04  0.6101033E-03
  0.1738095E+00  0.3113822E+04  0.4042947E-01  0.1665272E-01  0.3353374E-03  0.7440567E+04  0.1262105E-02
  0.2047619E+00  0.3120237E+04  0.7494093E-01  0.6427321E-02  0.2286771E-03  0.7458911E+04  0.2319183E-02
  0.2357143E+00  0.3134832E+04  0.1328139E+00  0.2985867E-02  0.1620230E-03  0.7427790E+04  0.4072042E-02
  0.2666667E+00  0.3185117E+04  0.2284229E+00  0.7560253E-02  0.4520874E-03  0.7454814E+04  0.6970239E-02
  0.2976190E+00  0.3209326E+04  0.3858978E+00  0.1491943E-01  0.7785801E-03  0.7446021E+04  0.1191398E-01
  0.3285715E+00  0.3253500E+04  0.6446766E+00  0.2185572E-01  0.1248497E-02  0.7466871E+04  0.2027253E-01
  0.3595238E+00  0.3354380E+04  0.1069651E+01  0.4286608E-02  0.5314392E-03  0.7464906E+04  0.3416677E-01
  0.3904762E+00  0.3332411E+04  0.1763289E+01  0.1068766E-01  0.1167628E-02  0.7475687E+04  0.5659172E-01
  0.4214286E+00  0.3399942E+04  0.2866115E+01  0.1137814E-01  0.1325078E-02  0.7466060E+04  0.9361561E-01
  0.4523810E+00  0.3477647E+04  0.4627285E+01  0.8769788E-02  0.1393169E-02  0.7482689E+04  0.1533454E+00
  0.4833333E+00  0.3570090E+04  0.7293969E+01  0.1800274E-01  0.3066419E-02  0.7496803E+04  0.2451853E+00
  0.5142857E+00  0.3586898E+04  0.1130289E+02  0.2093951E-01  0.4018430E-02  0.7470774E+04  0.3850199E+00
  0.5452381E+00  0.3652710E+04  0.1711274E+02  0.1673536E-01  0.3867161E-02  0.7501215E+04  0.5919051E+00
  0.5761905E+00  0.3790374E+04  0.2532486E+02 -0.4813139E-02  0.9043515E-04  0.7491996E+04  0.8929203E+00
  0.6071429E+00  0.3904584E+04  0.3681994E+02  0.1884281E-01  0.6131314E-02  0.7513718E+04  0.1320137E+01
  0.6380953E+00  0.3940978E+04  0.5238030E+02  0.9349993E-02  0.3992140E-02  0.7525039E+04  0.1905369E+01
  0.6690477E+00  0.4048749E+04  0.7316698E+02  0.2460846E-01  0.9312660E-02  0.7505177E+04  0.2705468E+01
  0.7000000E+00  0.4176580E+04  0.1007607E+03  0.1274109E-01  0.6444946E-02  0.7523208E+04  0.3796301E+01
  0.7309524E+00  0.4324168E+04  0.1366159E+03  0.1645489E-01  0.8278131E-02  0.7557099E+04  0.5258461E+01
  0.7619048E+00  0.4505113E+04  0.1828298E+03  0.9723186E-02  0.6653994E-02  0.7557632E+04  0.7187482E+01
  0.7928572E+00  0.4612981E+04  0.2419542E+03  0.1762871E-01  0.1111209E-01  0.7546737E+04  0.9693592E+01
  0.8238096E+00  0.4715323E+04  0.3164080E+03  0.1577168E-01  0.1036817E-01  0.7582014E+04  0.1292289E+02
  0.8547620E+00  0.4875654E+04  0.4081894E+03  0.8559798E-02  0.9187579E-02  0.7602586E+04  0.1694129E+02
  0.8857143E+00  0.5077250E+04  0.5210580E+03  0.1559965E-01  0.1487625E-01  0.7588655E+04  0.2210113E+02
  0.9166667E+00  0.5267246E+04  0.6590157E+03  0.1489813E-02  0.6353140E-02  0.7600228E+04  0.2862860E+02
  0.9476191E+00  0.5454849E+04  0.8260217E+03  0.6779043E-02  0.1064932E-01  0.7650601E+04  0.3673182E+02
  0.9785714E+00  0.5617289E+04  0.1025591E+04  0.7632736E-02  0.7811308E-02  0.7669234E+04  0.4665067E+02
  0.1009524E+01  0.5758385E+04  0.1262536E+04  0.5539589E-02  0.1025891E-01  0.7658167E+04  0.5874851E+02
  0.1040476E+01  0.5899777E+04  0.1537186E+04  0.3886277E-02  0.9094238E-02  0.7652767E+04  0.7301539E+02
  0.1071429E+01  0.6050292E+04  0.1854313E+04  0.1306661E-01  0.1563644E-01  0.7678961E+04  0.8943089E+02
  0.1102381E+01  0.6181946E+04  0.2214432E+04 -0.2090092E-02  0.3064156E-02  0.7722362E+04  0.1097924E+03
  0.1133333E+01  0.6297709E+04  0.2620538E+04  0.7324219E-02  0.1369238E-01  0.7741907E+04  0.1330661E+03
  0.1164286E+01  0.6404095E+04  0.3074225E+04  0.2916020E-02  0.1559067E-01  0.7742795E+04  0.1599626E+03
  0.1195238E+01  0.6487028E+04  0.3569767E+04  0.7532127E-02  0.1941633E-01  0.7739429E+04  0.1890026E+03
  0.1226190E+01  0.6526434E+04  0.4111031E+04  0.1114366E-01  0.2479887E-01  0.7754559E+04  0.2217119E+03
  0.1257143E+01  0.6513357E+04  0.4695836E+04  0.1766031E-02  0.6889343E-02  0.7791714E+04  0.2616960E+03
  0.1288095E+01  0.6478410E+04  0.5302942E+04  0.3565649E-02  0.6321907E-02  0.7809586E+04  0.3037839E+03
  0.1319048E+01  0.6410640E+04  0.5938642E+04  0.5194047E-02  0.9305000E-02  0.7822214E+04  0.3480452E+03
  0.1350000E+01  0.6322141E+04  0.6594765E+04  0.4701967E-02  0.2725792E-01  0.7797989E+04  0.3932952E+03
  0.1380952E+01  0.6193684E+04  0.7258974E+04 -0.1961281E-02  0.1066017E-01  0.7778381E+04  0.4370974E+03
  0.1411905E+01  0.5705277E+04  0.7669604E+04  0.2696405E-02  0.1818371E-01  0.7727658E+04  0.4726195E+03
  0.1442857E+01  0.5512846E+04  0.8339013E+04  0.1898284E-02  0.1388264E-01  0.7757904E+04  0.5305690E+03
  0.1473810E+01  0.5295594E+04  0.8990125E+04 -0.1169923E-02  0.2181435E-01  0.7788508E+04  0.5952944E+03
  0.1504762E+01  0.5070211E+04  0.9619471E+04 -0.3949660E-02  0.1012135E-01  0.7797046E+04  0.6539469E+03
  0.1535714E+01  0.4818681E+04  0.1023182E+05  0.2583348E-03  0.3141022E-01  0.7786728E+04  0.7099717E+03
  0.1566667E+01  0.4551797E+04  0.1082678E+05  0.1558344E-03  0.2258110E-01  0.7741343E+04  0.7519422E+03
  0.1597619E+01  0.4255861E+04  0.1139478E+05  0.1337134E-03  0.2054310E-01  0.7701691E+04  0.7991575E+03
  0.1628572E+01  0.3961841E+04  0.1194343E+05 -0.2304880E-02  0.1963043E-01  0.7688370E+04  0.8556238E+03
  0.1659524E+01  0.3658178E+04  0.1247582E+05  0.1976856E-02  0.2314949E-01  0.7701719E+04  0.9283348E+03
  0.1690476E+01  0.3350932E+04  0.1295154E+05 -0.2175344E-02  0.2918530E-01  0.7729163E+04  0.1015136E+04
  0.1721429E+01  0.3040767E+04  0.1340049E+05 -0.4901807E-02  0.1657772E-01  0.7723030E+04  0.1084430E+04
  0.1752381E+01  0.2744131E+04  0.1380698E+05  0.2185573E-02  0.2580738E-01  0.7718668E+04  0.1149844E+04
  0.1783333E+01  0.2454740E+04  0.1419962E+05 -0.4577637E-02  0.2618027E-01  0.7678329E+04  0.1184345E+04
  0.1814286E+01  0.2177366E+04  0.1456178E+05 -0.1110167E-02  0.1060486E-01  0.7632968E+04  0.1200683E+04
  0.1845238E+01  0.1888729E+04  0.1489896E+05 -0.5292339E-02  0.1682663E-01  0.7596036E+04  0.1223015E+04
  0.1876190E+01  0.1617056E+04  0.1522603E+05 -0.4058296E-02  0.2419281E-01  0.7579786E+04  0.1267558E+04
  0.1907143E+01  0.1348282E+04  0.1554206E+05 -0.4376472E-02  0.2364159E-01  0.7586623E+04  0.1354295E+04
  0.1938095E+01  0.1076705E+04  0.1579492E+05 -0.1921033E-02  0.1706886E-01  0.7611882E+04  0.1476772E+04
  0.1969048E+01  0.8076225E+03  0.1603759E+05 -0.4525606E-02  0.1789761E-01  0.7610320E+04  0.1586264E+04
  0.2000000E+01  0.5592583E+03  0.1624506E+05 -0.5043030E-02  0.1838779E-01  0.7592064E+04  0.1660526E+04
