VARIABLES="w (rad/s)"
"abs(F   1   1)" "angle(F   1   1)"
"abs(F   1   2)" "angle(F   1   2)"
"abs(F   1   3)" "angle(F   1   3)"
Zone t="Diffraction force - beta =   0.000 deg",I=    64,F=POINT
  0.5000000E-01  0.3939491E+03 -0.1570815E+01  0.1234782E+06 -0.8450797E-05  0.4813784E+01 -0.1571522E+01
  0.8095238E-01  0.6421970E+03 -0.1570804E+01  0.1233531E+06 -0.2275114E-04  0.7848377E+01 -0.1571294E+01
  0.1119048E+00  0.8972887E+03 -0.1570806E+01  0.1231688E+06 -0.4522742E-04  0.1095677E+02 -0.1571122E+01
  0.1428571E+00  0.1160048E+04 -0.1570808E+01  0.1229255E+06 -0.7766372E-04  0.1416324E+02 -0.1571062E+01
  0.1738095E+00  0.1436907E+04 -0.1570806E+01  0.1226227E+06 -0.1227717E-03  0.1757928E+02 -0.1571005E+01
  0.2047619E+00  0.1726364E+04 -0.1570800E+01  0.1222596E+06 -0.1844147E-03  0.2114582E+02 -0.1570971E+01
  0.2357143E+00  0.2037776E+04 -0.1570790E+01  0.1218363E+06 -0.2684147E-03  0.2500300E+02 -0.1570950E+01
  0.2666667E+00  0.2372163E+04 -0.1570791E+01  0.1213513E+06 -0.3819698E-03  0.2924501E+02 -0.1570921E+01
  0.2976190E+00  0.2733267E+04 -0.1570792E+01  0.1208046E+06 -0.5369628E-03  0.3380883E+02 -0.1570899E+01
  0.3285715E+00  0.3133275E+04 -0.1570784E+01  0.1201952E+06 -0.7462084E-03  0.3884659E+02 -0.1570876E+01
  0.3595238E+00  0.3574063E+04 -0.1570783E+01  0.1195240E+06 -0.1029253E-02  0.4461313E+02 -0.1570868E+01
  0.3904762E+00  0.4058859E+04 -0.1570773E+01  0.1187893E+06 -0.1408945E-02  0.5090568E+02 -0.1570840E+01
  0.4214286E+00  0.4597116E+04 -0.1570758E+01  0.1179952E+06 -0.1901102E-02  0.5784091E+02 -0.1570819E+01
  0.4523810E+00  0.5197025E+04 -0.1570744E+01  0.1171401E+06 -0.2544299E-02  0.6581110E+02 -0.1570799E+01
  0.4833333E+00  0.5852006E+04 -0.1570714E+01  0.1162304E+06 -0.3326979E-02  0.7462999E+02 -0.1570761E+01
  0.5142857E+00  0.6558021E+04 -0.1570677E+01  0.1152647E+06 -0.4293880E-02  0.8419421E+02 -0.1570721E+01
  0.5452381E+00  0.7324181E+04 -0.1570632E+01  0.1142458E+06 -0.5437349E-02  0.9464549E+02 -0.1570672E+01
  0.5761905E+00  0.8144497E+04 -0.1570566E+01  0.1131783E+06 -0.6765163E-02  0.1063894E+03 -0.1570598E+01
  0.6071429E+00  0.9011348E+04 -0.1570480E+01  0.1120617E+06 -0.8317024E-02  0.1187735E+03 -0.1570512E+01
  0.6380953E+00  0.9908771E+04 -0.1570375E+01  0.1108956E+06 -0.1006542E-01  0.1309429E+03 -0.1570403E+01
  0.6690477E+00  0.1085262E+05 -0.1570241E+01  0.1096842E+06 -0.1205276E-01  0.1447533E+03 -0.1570268E+01
  0.7000000E+00  0.1184820E+05 -0.1570076E+01  0.1084311E+06 -0.1430563E-01  0.1596171E+03 -0.1570097E+01
  0.7309524E+00  0.1288388E+05 -0.1569870E+01  0.1071359E+06 -0.1681577E-01  0.1751692E+03 -0.1569888E+01
  0.7619048E+00  0.1395044E+05 -0.1569623E+01  0.1058038E+06 -0.1961299E-01  0.1916786E+03 -0.1569641E+01
  0.7928572E+00  0.1504371E+05 -0.1569322E+01  0.1044344E+06 -0.2271480E-01  0.2081541E+03 -0.1569340E+01
  0.8238096E+00  0.1617061E+05 -0.1568962E+01  0.1030316E+06 -0.2613525E-01  0.2254110E+03 -0.1568980E+01
  0.8547620E+00  0.1734140E+05 -0.1568538E+01  0.1015997E+06 -0.2988717E-01  0.2442336E+03 -0.1568552E+01
  0.8857143E+00  0.1855314E+05 -0.1568036E+01  0.1001407E+06 -0.3398429E-01  0.2644807E+03 -0.1568050E+01
  0.9166667E+00  0.1980162E+05 -0.1567451E+01  0.9865588E+05 -0.3843768E-01  0.2858387E+03 -0.1567464E+01
  0.9476191E+00  0.2107708E+05 -0.1566770E+01  0.9715162E+05 -0.4326008E-01  0.3076391E+03 -0.1566783E+01
  0.9785714E+00  0.2236983E+05 -0.1565985E+01  0.9562933E+05 -0.4846222E-01  0.3292983E+03 -0.1565995E+01
  0.1009524E+01  0.2367690E+05 -0.1565082E+01  0.9409093E+05 -0.5405498E-01  0.3518769E+03 -0.1565091E+01
  0.1040476E+01  0.2502229E+05 -0.1564054E+01  0.9253604E+05 -0.6004734E-01  0.3764397E+03 -0.1564063E+01
  0.1071429E+01  0.2640452E+05 -0.1562890E+01  0.9097089E+05 -0.6644845E-01  0.4020089E+03 -0.1562902E+01
  0.1102381E+01  0.2781670E+05 -0.1561579E+01  0.8939876E+05 -0.7326656E-01  0.4284780E+03 -0.1561590E+01
  0.1133333E+01  0.2925284E+05 -0.1560105E+01  0.8782392E+05 -0.8050828E-01  0.4562082E+03 -0.1560118E+01
  0.1164286E+01  0.3070678E+05 -0.1558459E+01  0.8624601E+05 -0.8817872E-01  0.4855383E+03 -0.1558472E+01
  0.1195238E+01  0.3217925E+05 -0.1556628E+01  0.8466556E+05 -0.9628057E-01  0.5160773E+03 -0.1556639E+01
  0.1226190E+01  0.3365612E+05 -0.1554601E+01  0.8308418E+05 -0.1048173E+00  0.5458633E+03 -0.1554608E+01
  0.1257143E+01  0.3512060E+05 -0.1552366E+01  0.8150800E+05 -0.1138981E+00  0.5754120E+03 -0.1552363E+01
  0.1288095E+01  0.3662248E+05 -0.1549918E+01  0.7993232E+05 -0.1232266E+00  0.6071876E+03 -0.1549919E+01
  0.1319048E+01  0.3812631E+05 -0.1547253E+01  0.7836743E+05 -0.1331172E+00  0.6403751E+03 -0.1547260E+01
  0.1350000E+01  0.3964387E+05 -0.1544365E+01  0.7681055E+05 -0.1434602E+00  0.6753362E+03 -0.1544394E+01
  0.1380952E+01  0.4117627E+05 -0.1541249E+01  0.7526038E+05 -0.1542471E+00  0.7121324E+03 -0.1541283E+01
  0.1411905E+01  0.4262451E+05 -0.1538028E+01  0.7373598E+05 -0.1654090E+00  0.7436397E+03 -0.1538064E+01
  0.1442857E+01  0.4414616E+05 -0.1534453E+01  0.7221448E+05 -0.1771106E+00  0.7811353E+03 -0.1534493E+01
  0.1473810E+01  0.4565410E+05 -0.1530637E+01  0.7070752E+05 -0.1892686E+00  0.8188489E+03 -0.1530681E+01
  0.1504762E+01  0.4714383E+05 -0.1526582E+01  0.6921634E+05 -0.2018869E+00  0.8572994E+03 -0.1526617E+01
  0.1535714E+01  0.4859714E+05 -0.1522287E+01  0.6774295E+05 -0.2149664E+00  0.8959341E+03 -0.1522296E+01
  0.1566667E+01  0.5002045E+05 -0.1517765E+01  0.6628277E+05 -0.2285034E+00  0.9348333E+03 -0.1517733E+01
  0.1597619E+01  0.5141099E+05 -0.1513028E+01  0.6483702E+05 -0.2424951E+00  0.9746324E+03 -0.1512967E+01
  0.1628572E+01  0.5277165E+05 -0.1508121E+01  0.6340741E+05 -0.2569541E+00  0.1014405E+04 -0.1508060E+01
  0.1659524E+01  0.5410079E+05 -0.1503066E+01  0.6199784E+05 -0.2718853E+00  0.1054818E+04 -0.1503021E+01
  0.1690476E+01  0.5538377E+05 -0.1497882E+01  0.6060929E+05 -0.2872875E+00  0.1094620E+04 -0.1497898E+01
  0.1721429E+01  0.5662174E+05 -0.1492599E+01  0.5924164E+05 -0.3031507E+00  0.1134978E+04 -0.1492633E+01
  0.1752381E+01  0.5780041E+05 -0.1487238E+01  0.5789907E+05 -0.3194912E+00  0.1175725E+04 -0.1487247E+01
  0.1783333E+01  0.5891405E+05 -0.1481834E+01  0.5657662E+05 -0.3362877E+00  0.1216495E+04 -0.1481806E+01
  0.1814286E+01  0.5996145E+05 -0.1476426E+01  0.5527417E+05 -0.3535461E+00  0.1257168E+04 -0.1476360E+01
  0.1845238E+01  0.6093758E+05 -0.1471060E+01  0.5399069E+05 -0.3712570E+00  0.1297736E+04 -0.1470981E+01
  0.1876190E+01  0.6183889E+05 -0.1465814E+01  0.5272783E+05 -0.3894297E+00  0.1336944E+04 -0.1465759E+01
  0.1907143E+01  0.6266235E+05 -0.1460742E+01  0.5148813E+05 -0.4080680E+00  0.1374821E+04 -0.1460689E+01
  0.1938095E+01  0.6339690E+05 -0.1455889E+01  0.5027200E+05 -0.4271752E+00  0.1410531E+04 -0.1455896E+01
  0.1969048E+01  0.6404772E+05 -0.1451312E+01  0.4907821E+05 -0.4467402E+00  0.1445269E+04 -0.1451370E+01
  0.2000000E+01  0.6461222E+05 -0.1447065E+01  0.4790710E+05 -0.4667618E+00  0.1479184E+04 -0.1447090E+01
