VARIABLES="w (rad/s)"
"A   1   1" "B   1   1"
"A   1   2" "B   1   2"
"A   1   3" "B   1   3"
Zone t="Motion of body    1 in DoF   1",I=    64,F=POINT
  0.5000000E-01  0.1536259E+06  0.2363530E-01  0.3356934E-01  0.3101429E-04 -0.1679265E+06 -0.1931633E-01
  0.8095238E-01  0.1543532E+06  0.1036770E+00  0.2412684E-01  0.7966929E-04 -0.1686406E+06 -0.8328882E-01
  0.1119048E+00  0.1544246E+06  0.2905711E+00  0.4227009E-02  0.2081832E-04 -0.1686150E+06 -0.2329613E+00
  0.1428571E+00  0.1547651E+06  0.6532946E+00  0.3524780E-01  0.4202463E-03 -0.1686559E+06 -0.5216232E+00
  0.1738095E+00  0.1549114E+06  0.1297711E+01  0.8779029E-03  0.5404837E-04 -0.1686515E+06 -0.1031113E+01
  0.2047619E+00  0.1552792E+06  0.2388742E+01  0.2652900E-01  0.2448801E-03 -0.1687612E+06 -0.1887357E+01
  0.2357143E+00  0.1554519E+06  0.4194294E+01 -0.2200965E-02 -0.2357215E-03 -0.1687819E+06 -0.3293277E+01
  0.2666667E+00  0.1558571E+06  0.7134726E+01  0.1876831E-01  0.5270094E-03 -0.1688499E+06 -0.5558978E+01
  0.2976190E+00  0.1562909E+06  0.1192575E+02  0.2091797E-01  0.3817976E-03 -0.1689368E+06 -0.9211364E+01
  0.3285715E+00  0.1566862E+06  0.1964864E+02 -0.1448921E-01 -0.9553730E-03 -0.1688908E+06 -0.1501641E+02
  0.3595238E+00  0.1572600E+06  0.3213105E+02  0.1154413E-01  0.7493794E-03 -0.1688667E+06 -0.2428410E+02
  0.3904762E+00  0.1579965E+06  0.5216387E+02  0.2500952E-02 -0.6670952E-03 -0.1688288E+06 -0.3891983E+02
  0.4214286E+00  0.1584775E+06  0.8344148E+02  0.0000000E+00 -0.1490116E-04 -0.1691908E+06 -0.6150267E+02
  0.4523810E+00  0.1591535E+06  0.1323454E+03  0.1214278E-01  0.6178617E-03 -0.1691277E+06 -0.9614300E+02
  0.4833333E+00  0.1601174E+06  0.2047351E+03 -0.2096242E-01 -0.5250454E-02 -0.1691781E+06 -0.1463233E+03
  0.5142857E+00  0.1611119E+06  0.3114706E+03  0.2385457E-01  0.2887249E-02 -0.1694469E+06 -0.2190629E+03
  0.5452381E+00  0.1619939E+06  0.4621610E+03  0.2563477E-01  0.5085468E-02 -0.1698560E+06 -0.3196962E+03
  0.5761905E+00  0.1629441E+06  0.6693230E+03  0.1144031E-01  0.2670288E-04 -0.1699908E+06 -0.4543387E+03
  0.6071429E+00  0.1643083E+06  0.9518715E+03 -0.3619025E-02 -0.1951218E-02 -0.1699790E+06 -0.6326583E+03
  0.6380953E+00  0.1657644E+06  0.1323409E+04  0.1262608E-01  0.2908707E-02 -0.1703463E+06 -0.8612675E+03
  0.6690477E+00  0.1669950E+06  0.1806531E+04  0.1642085E-02  0.1602173E-03 -0.1707915E+06 -0.1150635E+04
  0.7000000E+00  0.1682849E+06  0.2427525E+04  0.1743861E-02  0.6931305E-02 -0.1709786E+06 -0.1509918E+04
  0.7309524E+00  0.1698508E+06  0.3210213E+04  0.2388125E-01  0.8953094E-02 -0.1711078E+06 -0.1946264E+04
  0.7619048E+00  0.1715016E+06  0.4186710E+04  0.7209777E-02  0.3215790E-02 -0.1711278E+06 -0.2469633E+04
  0.7928572E+00  0.1732707E+06  0.5391285E+04 -0.4618876E-02 -0.4882812E-02 -0.1712523E+06 -0.3090562E+04
  0.8238096E+00  0.1750098E+06  0.6857629E+04  0.4000802E-02  0.6401062E-02 -0.1713419E+06 -0.3813921E+04
  0.8547620E+00  0.1765497E+06  0.8618424E+04  0.1999369E-02 -0.1050568E-01 -0.1715995E+06 -0.4648102E+04
  0.8857143E+00  0.1780327E+06  0.1070937E+05 -0.1336867E-01 -0.4577637E-04 -0.1714756E+06 -0.5585182E+04
  0.9166667E+00  0.1795936E+06  0.1316588E+05  0.1225142E-01  0.5371094E-02 -0.1710901E+06 -0.6622709E+04
  0.9476191E+00  0.1811950E+06  0.1602152E+05  0.1288179E-01 -0.1724243E-02 -0.1705493E+06 -0.7755388E+04
  0.9785714E+00  0.1826886E+06  0.1930506E+05  0.3218379E-01  0.1889038E-01 -0.1701617E+06 -0.8984695E+04
  0.1009524E+01  0.1838542E+06  0.2303351E+05  0.2636028E-01  0.1577759E-01 -0.1694378E+06 -0.1027089E+05
  0.1040476E+01  0.1848369E+06  0.2722773E+05 -0.5162150E-02 -0.5828857E-02 -0.1688520E+06 -0.1161118E+05
  0.1071429E+01  0.1853778E+06  0.3187932E+05 -0.3623047E-01 -0.2957153E-01 -0.1679180E+06 -0.1294736E+05
  0.1102381E+01  0.1856575E+06  0.3697032E+05  0.2214666E-02 -0.2136230E-02 -0.1667382E+06 -0.1424734E+05
  0.1133333E+01  0.1855772E+06  0.4247984E+05 -0.2585018E-02 -0.1446533E-01 -0.1655705E+06 -0.1550509E+05
  0.1164286E+01  0.1850688E+06  0.4836084E+05  0.1027487E-01 -0.1263428E-01 -0.1639670E+06 -0.1662870E+05
  0.1195238E+01  0.1842887E+06  0.5458029E+05  0.3247751E-01  0.1641846E-01 -0.1625194E+06 -0.1763247E+05
  0.1226190E+01  0.1830164E+06  0.6105769E+05  0.2329528E-01  0.9399414E-02 -0.1608197E+06 -0.1841611E+05
  0.1257143E+01  0.1813634E+06  0.6776712E+05 -0.1359419E-02 -0.1464844E-02 -0.1590951E+06 -0.1898313E+05
  0.1288095E+01  0.1793389E+06  0.7445266E+05 -0.1061403E-01 -0.1879883E-01 -0.1573310E+06 -0.1924862E+05
  0.1319048E+01  0.1768584E+06  0.8119722E+05 -0.1499217E-01 -0.1879883E-01 -0.1555471E+06 -0.1923557E+05
  0.1350000E+01  0.1739825E+06  0.8785078E+05  0.1265914E-02 -0.0000000E+00 -0.1536867E+06 -0.1887855E+05
  0.1380952E+01  0.1708898E+06  0.9433712E+05 -0.7602034E-02  0.2136230E-01 -0.1520280E+06 -0.1821866E+05
  0.1411905E+01  0.1663643E+06  0.9942694E+05  0.1089369E-01  0.1086426E-01 -0.1507853E+06 -0.1708791E+05
  0.1442857E+01  0.1627711E+06  0.1053047E+06  0.1015238E-02  0.1843262E-01 -0.1492119E+06 -0.1575760E+05
  0.1473810E+01  0.1590220E+06  0.1107908E+06 -0.1109874E-01 -0.9399414E-02 -0.1477845E+06 -0.1408629E+05
  0.1504762E+01  0.1551277E+06  0.1158925E+06 -0.1606229E-01  0.9765625E-03 -0.1466899E+06 -0.1220237E+05
  0.1535714E+01  0.1510827E+06  0.1204978E+06  0.1589753E-03  0.3173828E-02 -0.1455107E+06 -0.9926420E+04
  0.1566667E+01  0.1470680E+06  0.1246414E+06 -0.8415059E-02 -0.6591797E-02 -0.1446280E+06 -0.7486577E+04
  0.1597619E+01  0.1431446E+06  0.1283010E+06 -0.5654166E-02 -0.1416016E-01 -0.1439881E+06 -0.4864526E+04
  0.1628572E+01  0.1391889E+06  0.1314372E+06  0.1499109E-03  0.2270508E-01 -0.1433354E+06 -0.1988311E+04
  0.1659524E+01  0.1353869E+06  0.1340967E+06  0.1000381E-01  0.1635742E-01 -0.1429348E+06  0.9445234E+03
  0.1690476E+01  0.1317083E+06  0.1362635E+06  0.4765900E-02 -0.1220703E-01 -0.1426518E+06  0.4064566E+04
  0.1721429E+01  0.1281837E+06  0.1380392E+06 -0.5389329E-02  0.1220703E-01 -0.1426559E+06  0.7157145E+04
  0.1752381E+01  0.1247807E+06  0.1394154E+06 -0.1142419E-01  0.2856445E-01 -0.1428180E+06  0.1025774E+05
  0.1783333E+01  0.1214575E+06  0.1403768E+06 -0.4107039E-03  0.1367188E-01 -0.1429527E+06  0.1355583E+05
  0.1814286E+01  0.1183855E+06  0.1410312E+06 -0.1211091E-01 -0.1147461E-01 -0.1433797E+06  0.1664045E+05
  0.1845238E+01  0.1155354E+06  0.1413545E+06 -0.6747732E-02  0.2685547E-02 -0.1439235E+06  0.1974437E+05
  0.1876190E+01  0.1127670E+06  0.1413255E+06 -0.7156915E-02  0.2929688E-02 -0.1444079E+06  0.2291247E+05
  0.1907143E+01  0.1102237E+06  0.1410572E+06 -0.8064871E-02  0.5371094E-02 -0.1450719E+06  0.2586265E+05
  0.1938095E+01  0.1078614E+06  0.1404894E+06 -0.4219974E-02 -0.1123047E-01 -0.1457334E+06  0.2890378E+05
  0.1969048E+01  0.1057090E+06  0.1397274E+06  0.1053908E-02  0.6347656E-02 -0.1465235E+06  0.3186314E+05
  0.2000000E+01  0.1036791E+06  0.1388750E+06 -0.1159668E-02  0.2001953E-01 -0.1474379E+06  0.3447948E+05
Zone t="Motion of body    1 in DoF   2",I=    64,F=POINT
  0.5000000E-01 -0.9155273E-02 -0.3337860E-04  0.1729519E+06  0.6393857E+03  0.3662109E-02 -0.3814697E-05
  0.8095238E-01  0.1734116E-01  0.3242493E-04  0.1699255E+06  0.1059455E+04 -0.2111098E-01 -0.5340576E-04
  0.1119048E+00 -0.2454392E-02 -0.7629395E-04  0.1683757E+06  0.1515663E+04 -0.4963327E-01 -0.4959106E-04
  0.1428571E+00  0.3417969E-01 -0.2479553E-03  0.1674946E+06  0.2024763E+04 -0.2563476E-01  0.1831055E-03
  0.1738095E+00  0.6672062E-02 -0.3814697E-05  0.1671302E+06  0.2607690E+04  0.6320901E-02 -0.7629395E-03
  0.2047619E+00  0.1699048E-01  0.1373291E-03  0.1672180E+06  0.3290718E+04 -0.1073083E-01 -0.7629395E-05
  0.2357143E+00  0.1087535E-01  0.3280640E-03  0.1677003E+06  0.4110411E+04 -0.1812559E-01  0.1831055E-03
  0.2666667E+00 -0.1190185E-01 -0.6103516E-03  0.1682978E+06  0.5096437E+04 -0.1327515E-01 -0.1434326E-02
  0.2976190E+00 -0.3281250E-02 -0.1373291E-03  0.1691229E+06  0.6317978E+04 -0.1968750E-01 -0.1327515E-02
  0.3285715E+00 -0.2340565E-01  0.3204346E-03  0.1702055E+06  0.7806998E+04  0.8173402E-02 -0.2502441E-02
  0.3595238E+00  0.2784173E-01 -0.6408691E-03  0.1709852E+06  0.9645514E+04 -0.4889280E-01 -0.6408691E-03
  0.3904762E+00  0.2125810E-01  0.3051758E-03  0.1717587E+06  0.1188744E+05 -0.2125810E-01  0.1464844E-02
  0.4214286E+00  0.1680018E-01 -0.1464844E-02  0.1719557E+06  0.1450128E+05 -0.1911745E-01 -0.4455566E-02
  0.4523810E+00 -0.3453947E-01  0.6408691E-03  0.1718956E+06  0.1761572E+05  0.3022204E-01 -0.0000000E+00
  0.4833333E+00  0.9092133E-02  0.4272461E-03  0.1709323E+06  0.2096304E+05 -0.1464844E-01 -0.2319336E-02
  0.5142857E+00 -0.1234267E-01 -0.1831055E-02  0.1694082E+06  0.2469492E+05  0.5174425E-01 -0.2075195E-02
  0.5452381E+00  0.1186587E-01  0.1647949E-02  0.1675460E+06  0.2858776E+05 -0.9850915E-02  0.5249023E-02
  0.5761905E+00 -0.9321732E-02 -0.5004883E-02  0.1651096E+06  0.3257488E+05  0.6609955E-01 -0.2197266E-02
  0.6071429E+00 -0.4021139E-03  0.6103516E-03  0.1621383E+06  0.3674665E+05  0.3900505E-01  0.7202148E-02
  0.6380953E+00  0.1453912E-01  0.1708984E-02  0.1590581E+06  0.4084859E+05 -0.2104346E-01 -0.2441406E-02
  0.6690477E+00 -0.2079974E-01  0.6164551E-02  0.1557332E+06  0.4496539E+05  0.2335409E-01  0.9033203E-02
  0.7000000E+00  0.6626674E-02  0.1831055E-02  0.1521898E+06  0.4911514E+05 -0.3173828E-01  0.3051758E-02
  0.7309524E+00 -0.6680069E-03  0.8544922E-03  0.1485571E+06  0.5317350E+05 -0.2538426E-01 -0.1098633E-01
  0.7619048E+00  0.5447387E-02 -0.2197266E-02  0.1447217E+06  0.5716686E+05  0.1794433E-01 -0.9765625E-03
  0.7928572E+00 -0.1724380E-01 -0.6225586E-02  0.1407634E+06  0.6107214E+05  0.6158501E-02  0.9521484E-02
  0.8238096E+00  0.4237886E-01 -0.8300781E-02  0.1368240E+06  0.6484300E+05  0.1718863E-01  0.7324219E-03
  0.8547620E+00 -0.5426858E-02 -0.1586914E-02  0.1329239E+06  0.6845486E+05  0.8568724E-02 -0.9765625E-02
  0.8857143E+00  0.2205141E-02  0.1025391E-01  0.1290204E+06  0.7190659E+05  0.9923135E-02 -0.9277344E-02
  0.9166667E+00 -0.5060369E-02 -0.3662109E-03  0.1251226E+06  0.7518474E+05  0.1970881E-01 -0.6591797E-02
  0.9476191E+00  0.4637445E-02  0.1953125E-02  0.1212231E+06  0.7828059E+05 -0.3606902E-02 -0.7324219E-02
  0.9785714E+00 -0.6736143E-02 -0.1806641E-01  0.1173658E+06  0.8117232E+05 -0.2494868E-02 -0.8056641E-02
  0.1009524E+01  0.8222473E-02  0.6103516E-02  0.1135759E+06  0.8385349E+05 -0.1015717E-01 -0.4882812E-03
  0.1040476E+01 -0.7977867E-02 -0.9277344E-02  0.1099360E+06  0.8628561E+05 -0.9855012E-02  0.4882812E-02
  0.1071429E+01 -0.9114583E-03 -0.4150391E-02  0.1064119E+06  0.8849454E+05  0.1959636E-01 -0.5859375E-02
  0.1102381E+01 -0.3122680E-01  0.1684570E-01  0.1030300E+06  0.9046830E+05  0.2214666E-02  0.1220703E-01
  0.1133333E+01 -0.2951229E-01  0.1000977E-01  0.9975991E+05  0.9224159E+05  0.7755055E-02  0.5371094E-02
  0.1164286E+01  0.9226418E-02 -0.3417969E-02  0.9659712E+05  0.9381794E+05  0.2516296E-02 -0.1464844E-01
  0.1195238E+01  0.4698005E-02  0.2685547E-02  0.9357970E+05  0.9517225E+05  0.4902266E-02  0.2294922E-01
  0.1226190E+01  0.4579415E-02  0.7568359E-02  0.9068977E+05  0.9632710E+05  0.9557039E-02  0.7324219E-02
  0.1257143E+01 -0.4058838E-01 -0.2929688E-02  0.8796062E+05  0.9730386E+05  0.1048695E-01  0.4882812E-02
  0.1288095E+01 -0.1194078E-01  0.7080078E-02  0.8534686E+05  0.9799217E+05  0.1667918E-01  0.2490234E-01
  0.1319048E+01  0.1665797E-02 -0.7324219E-03  0.8288458E+05  0.9856130E+05  0.1832377E-01 -0.1953125E-02
  0.1350000E+01  0.5787037E-02  0.1416016E-01  0.8055150E+05  0.9896402E+05  0.3616898E-03 -0.9765625E-03
  0.1380952E+01 -0.9369949E-02  0.3173828E-02  0.7837753E+05  0.9915155E+05  0.4419787E-02  0.2246094E-01
  0.1411905E+01  0.3544773E-02 -0.3662109E-02  0.7584270E+05  0.9942736E+05 -0.9164536E-02 -0.1318359E-01
  0.1442857E+01  0.6260636E-02  0.4638672E-02  0.7391556E+05  0.9936996E+05  0.0000000E+00  0.4394531E-02
  0.1473810E+01  0.1408048E-01  0.2075195E-01  0.7211399E+05  0.9916377E+05 -0.9110902E-02  0.1611328E-01
  0.1504762E+01  0.1070819E-01  0.2734375E-01  0.7044932E+05  0.9886525E+05  0.8112267E-03  0.1269531E-01
  0.1535714E+01 -0.1065134E-01 -0.2685547E-02  0.6886798E+05  0.9846266E+05 -0.1716933E-01  0.7812500E-02
  0.1566667E+01 -0.1355760E-01 -0.1269531E-01  0.6741932E+05  0.9794226E+05  0.8726728E-02  0.1220703E-01
  0.1597619E+01 -0.4660866E-02  0.1928711E-01  0.6608718E+05  0.9728210E+05  0.6876688E-02 -0.1416016E-01
  0.1628572E+01  0.7495545E-02  0.3173828E-02  0.6482937E+05  0.9655516E+05 -0.1094350E-01  0.1708984E-01
  0.1659524E+01 -0.5369693E-02  0.2416992E-01  0.6367901E+05  0.9570405E+05  0.8532662E-02  0.2490234E-01
  0.1690476E+01 -0.1054275E-01 -0.5126953E-02  0.6262172E+05  0.9475766E+05  0.1964128E-01  0.6835938E-02
  0.1721429E+01 -0.7233046E-02  0.8056641E-02  0.6166776E+05  0.9375749E+05 -0.9502237E-02  0.1660156E-01
  0.1752381E+01 -0.9752357E-02  0.5615234E-02  0.6079645E+05  0.9272721E+05  0.2103723E-01  0.1123047E-01
  0.1783333E+01  0.1985069E-02  0.1464844E-01  0.5997902E+05  0.9167558E+05  0.1355323E-01  0.2929688E-02
  0.1814286E+01 -0.1816637E-02  0.4150391E-02  0.5925710E+05  0.9054511E+05  0.9150468E-02  0.1660156E-01
  0.1845238E+01 -0.7475428E-02  0.1416016E-01  0.5861144E+05  0.8931830E+05  0.8203125E-02  0.1318359E-01
  0.1876190E+01 -0.2862766E-02  0.1196289E-01  0.5800349E+05  0.8808349E+05  0.1301257E-01  0.8789062E-02
  0.1907143E+01 -0.1324943E-01  0.3125000E-01  0.5746338E+05  0.8676894E+05  0.6784732E-02  0.1074219E-01
  0.1938095E+01 -0.5164744E-02  0.7812500E-02  0.5697872E+05  0.8538202E+05 -0.2065898E-01  0.1318359E-01
  0.1969048E+01 -0.6013476E-02  0.7324219E-02  0.5655998E+05  0.8392293E+05  0.1041509E-01  0.1318359E-01
  0.2000000E+01 -0.6164551E-02  0.1660156E-01  0.5619273E+05  0.8248873E+05  0.8056641E-02  0.1123047E-01
Zone t="Motion of body    1 in DoF   3",I=    64,F=POINT
  0.5000000E-01 -0.1684290E+06 -0.1932486E-01  0.6896973E-01  0.2554520E-03  0.7485512E+06  0.1693861E-01
  0.8095238E-01 -0.1692519E+06 -0.8349007E-01 -0.7058985E-01 -0.3145389E-03  0.7485268E+06  0.6659854E-01
  0.1119048E+00 -0.1691598E+06 -0.2334643E+00 -0.8569920E-01 -0.7698981E-03  0.7491035E+06  0.1867612E+00
  0.1428571E+00 -0.1692083E+06 -0.5229206E+00 -0.2365875E-01 -0.1948634E-03  0.7492362E+06  0.4168110E+00
  0.1738095E+00 -0.1692094E+06 -0.1033472E+01 -0.3397484E-01 -0.1251772E-03  0.7492232E+06  0.8208098E+00
  0.2047619E+00 -0.1693691E+06 -0.1891333E+01 -0.7593554E-01 -0.1225030E-02  0.7489185E+06  0.1495838E+01
  0.2357143E+00 -0.1693109E+06 -0.3299785E+01 -0.3935843E-01 -0.8266643E-03  0.7495109E+06  0.2591562E+01
  0.2666667E+00 -0.1694324E+06 -0.5569921E+01  0.2174377E-01  0.9323806E-03  0.7491724E+06  0.4340680E+01
  0.2976190E+00 -0.1695447E+06 -0.9229871E+01 -0.7905762E-01 -0.1836218E-02  0.7490289E+06  0.7127647E+01
  0.3285715E+00 -0.1694151E+06 -0.1504963E+02 -0.3520136E-01 -0.1740947E-02  0.7496742E+06  0.1149951E+02
  0.3595238E+00 -0.1693933E+06 -0.2435302E+02 -0.6739736E-01 -0.2810895E-02  0.7497911E+06  0.1839965E+02
  0.3904762E+00 -0.1693888E+06 -0.3905283E+02 -0.2883911E-01 -0.1913309E-02  0.7496684E+06  0.2914423E+02
  0.4214286E+00 -0.1697537E+06 -0.6164581E+02 -0.1082598E+00 -0.7693529E-02  0.7496216E+06  0.4542504E+02
  0.4523810E+00 -0.1696181E+06 -0.9645136E+02 -0.7197972E-01 -0.6445169E-02  0.7503426E+06  0.7015167E+02
  0.4833333E+00 -0.1697178E+06 -0.1469191E+03  0.3295898E-01  0.4238248E-02  0.7501594E+06  0.1049738E+03
  0.5142857E+00 -0.1700445E+06 -0.2199808E+03 -0.7773506E-02  0.1224995E-02  0.7499678E+06  0.1546465E+03
  0.5452381E+00 -0.1704338E+06 -0.3206790E+03  0.4360149E-01  0.9093285E-02  0.7500892E+06  0.2218409E+03
  0.5761905E+00 -0.1705165E+06 -0.4558228E+03 -0.2987191E-01 -0.5908489E-02  0.7507197E+06  0.3092814E+03
  0.6071429E+00 -0.1705242E+06 -0.6358269E+03 -0.2005543E-01 -0.1849174E-02  0.7510080E+06  0.4229819E+03
  0.6380953E+00 -0.1709650E+06 -0.8653603E+03 -0.4447823E-01 -0.1157761E-01  0.7506923E+06  0.5629986E+03
  0.6690477E+00 -0.1714282E+06 -0.1154364E+04  0.1952256E-01  0.7375717E-02  0.7504708E+06  0.7354092E+03
  0.7000000E+00 -0.1715445E+06 -0.1514970E+04  0.2371652E-01  0.1498413E-01  0.7511545E+06  0.9431171E+03
  0.7309524E+00 -0.1716677E+06 -0.1954079E+04 -0.2145972E-01 -0.4024506E-03  0.7514074E+06  0.1184082E+04
  0.7619048E+00 -0.1717249E+06 -0.2481904E+04  0.1145553E-01  0.9757996E-02  0.7513956E+06  0.1462150E+04
  0.7928572E+00 -0.1718941E+06 -0.3106446E+04 -0.9676546E-01 -0.4650116E-01  0.7511919E+06  0.1778579E+04
  0.8238096E+00 -0.1720114E+06 -0.3832449E+04 -0.2459752E-01 -0.1472855E-01  0.7509644E+06  0.2131647E+04
  0.8547620E+00 -0.1722448E+06 -0.4660701E+04  0.3420349E-01  0.1679993E-01  0.7507844E+06  0.2517366E+04
  0.8857143E+00 -0.1720861E+06 -0.5601530E+04 -0.1109462E-01 -0.2540588E-02  0.7510756E+06  0.2923195E+04
  0.9166667E+00 -0.1716956E+06 -0.6651000E+04  0.1138583E-01  0.7362366E-02  0.7511461E+06  0.3338794E+04
  0.9476191E+00 -0.1711810E+06 -0.7800219E+04 -0.3664870E-01 -0.9529114E-02  0.7509834E+06  0.3758822E+04
  0.9785714E+00 -0.1708098E+06 -0.9029126E+04 -0.4191378E-01 -0.2629089E-01  0.7505360E+06  0.4179473E+04
  0.1009524E+01 -0.1701390E+06 -0.1032367E+05 -0.5652950E-01 -0.4968262E-01  0.7499118E+06  0.4585569E+04
  0.1040476E+01 -0.1695440E+06 -0.1164281E+05 -0.1683565E-01  0.8331299E-02  0.7492891E+06  0.4966939E+04
  0.1071429E+01 -0.1686040E+06 -0.1297802E+05  0.1879883E-01  0.1976013E-01  0.7490758E+06  0.5303364E+04
  0.1102381E+01 -0.1673952E+06 -0.1428647E+05 -0.2031956E-01 -0.2632141E-01  0.7487339E+06  0.5546791E+04
  0.1133333E+01 -0.1661939E+06 -0.1553275E+05 -0.1486386E-01 -0.1091003E-01  0.7485191E+06  0.5698333E+04
  0.1164286E+01 -0.1646239E+06 -0.1667610E+05 -0.4545059E-01 -0.5743408E-01  0.7479655E+06  0.5735611E+04
  0.1195238E+01 -0.1631568E+06 -0.1763610E+05 -0.7047007E-02  0.1141357E-01  0.7473169E+06  0.5676748E+04
  0.1226190E+01 -0.1614811E+06 -0.1840711E+05  0.2787470E-02  0.1260376E-01  0.7467889E+06  0.5529391E+04
  0.1257143E+01 -0.1597579E+06 -0.1893005E+05 -0.2485795E-01 -0.6286621E-02  0.7463809E+06  0.5262479E+04
  0.1288095E+01 -0.1580177E+06 -0.1919224E+05 -0.4738404E-03  0.2462769E-01  0.7457500E+06  0.4852696E+04
  0.1319048E+01 -0.1562584E+06 -0.1916704E+05  0.5552656E-03  0.3717041E-01  0.7455677E+06  0.4374715E+04
  0.1350000E+01 -0.1544429E+06 -0.1883675E+05  0.1989294E-02  0.2371216E-01  0.7455213E+06  0.3843477E+04
  0.1380952E+01 -0.1527630E+06 -0.1813710E+05 -0.1564605E-01  0.2938843E-01  0.7454952E+06  0.3212990E+04
  0.1411905E+01 -0.1544597E+06 -0.2015976E+05 -0.3371858E-02  0.4660034E-01  0.7442858E+06  0.3110773E+04
  0.1442857E+01 -0.1527825E+06 -0.1906068E+05 -0.6514445E-02  0.3106689E-01  0.7446359E+06  0.2429353E+04
  0.1473810E+01 -0.1512483E+06 -0.1751957E+05 -0.2236312E-01 -0.2197266E-02  0.7445057E+06  0.1656910E+04
  0.1504762E+01 -0.1500489E+06 -0.1572606E+05 -0.1314187E-01 -0.4159546E-01  0.7448638E+06  0.1045215E+04
  0.1535714E+01 -0.1488095E+06 -0.1364267E+05 -0.2440271E-01 -0.5419922E-01  0.7450562E+06  0.3696810E+03
  0.1566667E+01 -0.1478559E+06 -0.1136095E+05 -0.9116314E-02  0.3541565E-01  0.7455563E+06 -0.1395490E+03
  0.1597619E+01 -0.1471128E+06 -0.8789354E+04  0.3285529E-02 -0.1182556E-01  0.7458508E+06 -0.7431509E+03
  0.1628572E+01 -0.1463938E+06 -0.6136603E+04 -0.1896373E-01 -0.1743317E-01  0.7464644E+06 -0.1124503E+04
  0.1659524E+01 -0.1458770E+06 -0.3375233E+04 -0.2030185E-01 -0.3031158E-01  0.7472836E+06 -0.1355870E+04
  0.1690476E+01 -0.1454865E+06 -0.3409677E+03 -0.2310739E-02  0.1014328E-01  0.7477272E+06 -0.1645823E+04
  0.1721429E+01 -0.1453787E+06  0.2751157E+04 -0.1730258E-01 -0.9048462E-02  0.7482393E+06 -0.1825639E+04
  0.1752381E+01 -0.1454445E+06  0.5817547E+04 -0.1950471E-01  0.2065277E-01  0.7489918E+06 -0.1626336E+04
  0.1783333E+01 -0.1455365E+06  0.8942270E+04 -0.2190421E-01  0.9429932E-02  0.7495221E+06 -0.1527111E+04
  0.1814286E+01 -0.1458948E+06  0.1197596E+05 -0.6593720E-02 -0.9674072E-02  0.7502290E+06 -0.1048811E+04
  0.1845238E+01 -0.1463664E+06  0.1515194E+05 -0.3175403E-02  0.6469727E-02  0.7505936E+06 -0.9388544E+03
  0.1876190E+01 -0.1468013E+06  0.1815922E+05  0.3643520E-02 -0.1452637E-01  0.7512102E+06 -0.3638778E+03
  0.1907143E+01 -0.1473869E+06  0.2102637E+05 -0.1100919E-01 -0.7171631E-02  0.7518966E+06  0.4839230E+03
  0.1938095E+01 -0.1479949E+06  0.2401634E+05 -0.1687990E-01 -0.9033203E-02  0.7523288E+06  0.1172368E+04
  0.1969048E+01 -0.1487455E+06  0.2705886E+05 -0.4835579E-02  0.9765625E-02  0.7524976E+06  0.1474839E+04
  0.2000000E+01 -0.1496243E+06  0.2969839E+05 -0.2050781E-01 -0.4516602E-02  0.7529876E+06  0.2657925E+04
