VARIABLES="w (rad/s)"
"abs(F   1   1)" "angle(F   1   1)"
"abs(F   1   2)" "angle(F   1   2)"
"abs(F   1   3)" "angle(F   1   3)"
Zone t="Diffraction force - beta =   0.000 deg",I=    64,F=POINT
  0.5000000E-01  0.1888263E+04 -0.1570800E+01  0.3510770E+06 -0.2402903E-04  0.3888403E+02 -0.1570668E+01
  0.8095238E-01  0.3079393E+04 -0.1570781E+01  0.3504761E+06 -0.6464558E-04  0.6330612E+02 -0.1570729E+01
  0.1119048E+00  0.4302986E+04 -0.1570776E+01  0.3495936E+06 -0.1283842E-03  0.8862854E+02 -0.1570753E+01
  0.1428571E+00  0.5563791E+04 -0.1570790E+01  0.3484288E+06 -0.2201541E-03  0.1146042E+03 -0.1570763E+01
  0.1738095E+00  0.6882920E+04 -0.1570792E+01  0.3469796E+06 -0.3473875E-03  0.1425461E+03 -0.1570755E+01
  0.2047619E+00  0.8266929E+04 -0.1570776E+01  0.3452421E+06 -0.5207682E-03  0.1717524E+03 -0.1570764E+01
  0.2357143E+00  0.9750145E+04 -0.1570783E+01  0.3432161E+06 -0.7561918E-03  0.2035622E+03 -0.1570761E+01
  0.2666667E+00  0.1133724E+05 -0.1570773E+01  0.3408955E+06 -0.1072938E-02  0.2383503E+03 -0.1570755E+01
  0.2976190E+00  0.1305482E+05 -0.1570756E+01  0.3382805E+06 -0.1503710E-02  0.2755243E+03 -0.1570747E+01
  0.3285715E+00  0.1495055E+05 -0.1570746E+01  0.3353664E+06 -0.2081936E-02  0.3179054E+03 -0.1570733E+01
  0.3595238E+00  0.1702838E+05 -0.1570717E+01  0.3321628E+06 -0.2860403E-02  0.3650847E+03 -0.1570703E+01
  0.3904762E+00  0.1931161E+05 -0.1570677E+01  0.3286599E+06 -0.3898589E-02  0.4173943E+03 -0.1570667E+01
  0.4214286E+00  0.2186269E+05 -0.1570618E+01  0.3248974E+06 -0.5234961E-02  0.4770089E+03 -0.1570612E+01
  0.4523810E+00  0.2468205E+05 -0.1570536E+01  0.3208654E+06 -0.6972163E-02  0.5459929E+03 -0.1570529E+01
  0.4833333E+00  0.2772815E+05 -0.1570419E+01  0.3166050E+06 -0.9065857E-02  0.6163696E+03 -0.1570412E+01
  0.5142857E+00  0.3102844E+05 -0.1570253E+01  0.3121293E+06 -0.1163653E-01  0.6978351E+03 -0.1570246E+01
  0.5452381E+00  0.3461559E+05 -0.1570034E+01  0.3074488E+06 -0.1464818E-01  0.7881298E+03 -0.1570028E+01
  0.5761905E+00  0.3842022E+05 -0.1569746E+01  0.3025972E+06 -0.1811107E-01  0.8865342E+03 -0.1569742E+01
  0.6071429E+00  0.4239197E+05 -0.1569372E+01  0.2975812E+06 -0.2212581E-01  0.9885840E+03 -0.1569368E+01
  0.6380953E+00  0.4653563E+05 -0.1568906E+01  0.2923877E+06 -0.2659759E-01  0.1095591E+04 -0.1568901E+01
  0.6690477E+00  0.5089520E+05 -0.1568323E+01  0.2870697E+06 -0.3163035E-01  0.1215604E+04 -0.1568321E+01
  0.7000000E+00  0.5544952E+05 -0.1567604E+01  0.2816407E+06 -0.3728121E-01  0.1346303E+04 -0.1567602E+01
  0.7309524E+00  0.6014957E+05 -0.1566732E+01  0.2760894E+06 -0.4350483E-01  0.1481411E+04 -0.1566730E+01
  0.7619048E+00  0.6493234E+05 -0.1565682E+01  0.2704552E+06 -0.5036463E-01  0.1617257E+04 -0.1565679E+01
  0.7928572E+00  0.6982618E+05 -0.1564431E+01  0.2647472E+06 -0.5789364E-01  0.1763689E+04 -0.1564427E+01
  0.8238096E+00  0.7490688E+05 -0.1562953E+01  0.2589777E+06 -0.6610721E-01  0.1922227E+04 -0.1562953E+01
  0.8547620E+00  0.8013242E+05 -0.1561228E+01  0.2531688E+06 -0.7501869E-01  0.2087773E+04 -0.1561230E+01
  0.8857143E+00  0.8546281E+05 -0.1559227E+01  0.2473458E+06 -0.8464511E-01  0.2264692E+04 -0.1559231E+01
  0.9166667E+00  0.9088398E+05 -0.1556925E+01  0.2415045E+06 -0.9499603E-01  0.2453013E+04 -0.1556929E+01
  0.9476191E+00  0.9633976E+05 -0.1554292E+01  0.2356670E+06 -0.1060815E+00  0.2639552E+04 -0.1554291E+01
  0.9785714E+00  0.1018038E+06 -0.1551308E+01  0.2298435E+06 -0.1179128E+00  0.2827818E+04 -0.1551301E+01
  0.1009524E+01  0.1073400E+06 -0.1547963E+01  0.2240482E+06 -0.1305107E+00  0.3029555E+04 -0.1547961E+01
  0.1040476E+01  0.1129402E+06 -0.1544246E+01  0.2182939E+06 -0.1438805E+00  0.3246713E+04 -0.1544268E+01
  0.1071429E+01  0.1185973E+06 -0.1540140E+01  0.2125846E+06 -0.1580169E+00  0.3475995E+04 -0.1540169E+01
  0.1102381E+01  0.1242465E+06 -0.1535638E+01  0.2069343E+06 -0.1729245E+00  0.3707850E+04 -0.1535673E+01
  0.1133333E+01  0.1298387E+06 -0.1530727E+01  0.2013583E+06 -0.1886037E+00  0.3943421E+04 -0.1530767E+01
  0.1164286E+01  0.1353392E+06 -0.1525409E+01  0.1958535E+06 -0.2050606E+00  0.4184518E+04 -0.1525436E+01
  0.1195238E+01  0.1406763E+06 -0.1519691E+01  0.1904283E+06 -0.2222921E+00  0.4426423E+04 -0.1519677E+01
  0.1226190E+01  0.1458623E+06 -0.1513597E+01  0.1850661E+06 -0.2402953E+00  0.4673097E+04 -0.1513533E+01
  0.1257143E+01  0.1508644E+06 -0.1507161E+01  0.1797829E+06 -0.2592616E+00  0.4919260E+04 -0.1507094E+01
  0.1288095E+01  0.1557705E+06 -0.1500554E+01  0.1745981E+06 -0.2786752E+00  0.5173709E+04 -0.1500531E+01
  0.1319048E+01  0.1604220E+06 -0.1493711E+01  0.1695168E+06 -0.2990565E+00  0.5424426E+04 -0.1493745E+01
  0.1350000E+01  0.1648125E+06 -0.1486729E+01  0.1645450E+06 -0.3202261E+00  0.5678821E+04 -0.1486733E+01
  0.1380952E+01  0.1688955E+06 -0.1479674E+01  0.1596646E+06 -0.3421396E+00  0.5933651E+04 -0.1479635E+01
  0.1411905E+01  0.1723165E+06 -0.1473067E+01  0.1549401E+06 -0.3645470E+00  0.6152601E+04 -0.1472978E+01
  0.1442857E+01  0.1757088E+06 -0.1466214E+01  0.1502574E+06 -0.3880105E+00  0.6399638E+04 -0.1466157E+01
  0.1473810E+01  0.1787255E+06 -0.1459646E+01  0.1456848E+06 -0.4122599E+00  0.6634611E+04 -0.1459597E+01
  0.1504762E+01  0.1813239E+06 -0.1453470E+01  0.1412228E+06 -0.4372962E+00  0.6853926E+04 -0.1453511E+01
  0.1535714E+01  0.1835159E+06 -0.1447807E+01  0.1368663E+06 -0.4631014E+00  0.7067087E+04 -0.1447838E+01
  0.1566667E+01  0.1852624E+06 -0.1442762E+01  0.1326338E+06 -0.4896894E+00  0.7275184E+04 -0.1442687E+01
  0.1597619E+01  0.1865749E+06 -0.1438472E+01  0.1284957E+06 -0.5170599E+00  0.7474275E+04 -0.1438379E+01
  0.1628572E+01  0.1874691E+06 -0.1435105E+01  0.1244554E+06 -0.5452103E+00  0.7664574E+04 -0.1434985E+01
  0.1659524E+01  0.1879411E+06 -0.1432770E+01  0.1205155E+06 -0.5741220E+00  0.7839638E+04 -0.1432667E+01
  0.1690476E+01  0.1880037E+06 -0.1431569E+01  0.1166794E+06 -0.6037945E+00  0.7995910E+04 -0.1431534E+01
  0.1721429E+01  0.1876547E+06 -0.1431593E+01  0.1129494E+06 -0.6342559E+00  0.8133887E+04 -0.1431534E+01
  0.1752381E+01  0.1869276E+06 -0.1432953E+01  0.1093206E+06 -0.6655085E+00  0.8258095E+04 -0.1432922E+01
  0.1783333E+01  0.1858583E+06 -0.1435749E+01  0.1057970E+06 -0.6975328E+00  0.8371746E+04 -0.1435730E+01
  0.1814286E+01  0.1844548E+06 -0.1440042E+01  0.1023819E+06 -0.7303337E+00  0.8476220E+04 -0.1440053E+01
  0.1845238E+01  0.1827569E+06 -0.1445889E+01  0.9905470E+05 -0.7639557E+00  0.8567458E+04 -0.1445913E+01
  0.1876190E+01  0.1807893E+06 -0.1453349E+01  0.9581914E+05 -0.7983673E+00  0.8645903E+04 -0.1453252E+01
  0.1907143E+01  0.1785965E+06 -0.1462455E+01  0.9266631E+05 -0.8335429E+00  0.8711412E+04 -0.1462248E+01
  0.1938095E+01  0.1762023E+06 -0.1473230E+01  0.8959843E+05 -0.8694619E+00  0.8761347E+04 -0.1472948E+01
  0.1969048E+01  0.1736253E+06 -0.1485679E+01  0.8662011E+05 -0.9061646E+00  0.8799537E+04 -0.1485488E+01
  0.2000000E+01  0.1708944E+06 -0.1499823E+01  0.8373348E+05 -0.9437353E+00  0.8822771E+04 -0.1499912E+01
