VARIABLES="w (rad/s)"
"abs(F   1   1)" "angle(F   1   1)"
"abs(F   1   2)" "angle(F   1   2)"
"abs(F   1   3)" "angle(F   1   3)"
Zone t="Diffraction force - beta =   0.000 deg",I=    64,F=POINT
  0.5000000E-01  0.4529055E+04 -0.1570792E+01  0.1943598E+03 -0.3102441E+01  0.2010501E+05  0.1570801E+01
  0.8095238E-01  0.7409368E+04 -0.1570784E+01  0.5027642E+03 -0.3101179E+01  0.3281641E+05  0.1570809E+01
  0.1119048E+00  0.1033860E+05 -0.1570771E+01  0.9536655E+03 -0.3099751E+01  0.4573280E+05  0.1570822E+01
  0.1428571E+00  0.1335445E+05 -0.1570753E+01  0.1543887E+04 -0.3097903E+01  0.5900675E+05  0.1570841E+01
  0.1738095E+00  0.1649416E+05 -0.1570725E+01  0.2272350E+04 -0.3095641E+01  0.7277927E+05  0.1570869E+01
  0.2047619E+00  0.1977519E+05 -0.1570686E+01  0.3140610E+04 -0.3092813E+01  0.8713321E+05  0.1570909E+01
  0.2357143E+00  0.2325522E+05 -0.1570628E+01  0.4134152E+04 -0.3089131E+01  0.1022396E+06  0.1570967E+01
  0.2666667E+00  0.2696600E+05 -0.1570546E+01  0.5262749E+04 -0.3084872E+01  0.1183545E+06  0.1571051E+01
  0.2976190E+00  0.3097679E+05 -0.1570424E+01  0.6505128E+04 -0.3079340E+01  0.1356121E+06  0.1571175E+01
  0.3285715E+00  0.3533396E+05 -0.1570245E+01  0.7868764E+04 -0.3072987E+01  0.1542460E+06  0.1571356E+01
  0.3595238E+00  0.4009949E+05 -0.1569980E+01  0.9312931E+04 -0.3065121E+01  0.1746056E+06  0.1571625E+01
  0.3904762E+00  0.4534297E+05 -0.1569590E+01  0.1086388E+05 -0.3056076E+01  0.1968450E+06  0.1572021E+01
  0.4214286E+00  0.5111084E+05 -0.1569027E+01  0.1242461E+05 -0.3045902E+01  0.2210546E+06  0.1572592E+01
  0.4523810E+00  0.5746884E+05 -0.1568213E+01  0.1406168E+05 -0.3034199E+01  0.2475521E+06  0.1573419E+01
  0.4833333E+00  0.6431679E+05 -0.1567102E+01  0.1564329E+05 -0.3022608E+01  0.2761587E+06  0.1574543E+01
  0.5142857E+00  0.7175865E+05 -0.1565585E+01  0.1722336E+05 -0.3010017E+01  0.3066465E+06  0.1576083E+01
  0.5452381E+00  0.7967920E+05 -0.1563600E+01  0.1877182E+05 -0.2997869E+01  0.3388154E+06  0.1578095E+01
  0.5761905E+00  0.8803170E+05 -0.1561070E+01  0.2021458E+05 -0.2985902E+01  0.3725963E+06  0.1580657E+01
  0.6071429E+00  0.9688855E+05 -0.1557870E+01  0.2163351E+05 -0.2973747E+01  0.4080163E+06  0.1583897E+01
  0.6380953E+00  0.1059579E+06 -0.1553954E+01  0.2293480E+05 -0.2962613E+01  0.4438853E+06  0.1587859E+01
  0.6690477E+00  0.1154317E+06 -0.1549205E+01  0.2412749E+05 -0.2951481E+01  0.4806497E+06  0.1592667E+01
  0.7000000E+00  0.1253025E+06 -0.1543500E+01  0.2526656E+05 -0.2940538E+01  0.5183039E+06  0.1598444E+01
  0.7309524E+00  0.1352140E+06 -0.1536745E+01  0.2626430E+05 -0.2930150E+01  0.5557985E+06  0.1605272E+01
  0.7619048E+00  0.1454612E+06 -0.1528845E+01  0.2711126E+05 -0.2919678E+01  0.5942979E+06  0.1613243E+01
  0.7928572E+00  0.1558976E+06 -0.1519690E+01  0.2787392E+05 -0.2909474E+01  0.6323781E+06  0.1622489E+01
  0.8238096E+00  0.1665789E+06 -0.1509202E+01  0.2857508E+05 -0.2899801E+01  0.6705305E+06  0.1633082E+01
  0.8547620E+00  0.1771022E+06 -0.1497228E+01  0.2900730E+05 -0.2889926E+01  0.7071088E+06  0.1645175E+01
  0.8857143E+00  0.1877909E+06 -0.1483728E+01  0.2933902E+05 -0.2880162E+01  0.7436629E+06  0.1658793E+01
  0.9166667E+00  0.1985210E+06 -0.1468626E+01  0.2959973E+05 -0.2870824E+01  0.7792177E+06  0.1674034E+01
  0.9476191E+00  0.2091923E+06 -0.1451836E+01  0.2978383E+05 -0.2861611E+01  0.8141659E+06  0.1690930E+01
  0.9785714E+00  0.2193413E+06 -0.1433240E+01  0.2969923E+05 -0.2852623E+01  0.8460664E+06  0.1709631E+01
  0.1009524E+01  0.2295338E+06 -0.1413012E+01  0.2950294E+05 -0.2843548E+01  0.8770807E+06  0.1729965E+01
  0.1040476E+01  0.2391930E+06 -0.1391016E+01  0.2922074E+05 -0.2834546E+01  0.9042867E+06  0.1752136E+01
  0.1071429E+01  0.2486491E+06 -0.1367364E+01  0.2887718E+05 -0.2825710E+01  0.9295956E+06  0.1775973E+01
  0.1102381E+01  0.2573207E+06 -0.1341851E+01  0.2843714E+05 -0.2817009E+01  0.9516470E+06  0.1801616E+01
  0.1133333E+01  0.2650072E+06 -0.1314545E+01  0.2779702E+05 -0.2809153E+01  0.9688359E+06  0.1829070E+01
  0.1164286E+01  0.2722823E+06 -0.1285636E+01  0.2707962E+05 -0.2801140E+01  0.9844005E+06  0.1858044E+01
  0.1195238E+01  0.2782747E+06 -0.1255113E+01  0.2630418E+05 -0.2793011E+01  0.9938639E+06  0.1888681E+01
  0.1226190E+01  0.2835194E+06 -0.1223291E+01  0.2549616E+05 -0.2784986E+01  0.1000196E+07  0.1920551E+01
  0.1257143E+01  0.2874409E+06 -0.1190243E+01  0.2464101E+05 -0.2776456E+01  0.1001579E+07  0.1953570E+01
  0.1288095E+01  0.2901843E+06 -0.1156409E+01  0.2369246E+05 -0.2769833E+01  0.9971671E+06  0.1987487E+01
  0.1319048E+01  0.2916127E+06 -0.1121574E+01  0.2267377E+05 -0.2763292E+01  0.9883412E+06  0.2022382E+01
  0.1350000E+01  0.2919001E+06 -0.1086064E+01  0.2162708E+05 -0.2756770E+01  0.9757616E+06  0.2057841E+01
  0.1380952E+01  0.2906312E+06 -0.1050086E+01  0.2056679E+05 -0.2750432E+01  0.9570747E+06  0.2093837E+01
  0.1411905E+01  0.2874708E+06 -0.1013906E+01  0.1951321E+05 -0.2744193E+01  0.9337633E+06  0.2129553E+01
  0.1442857E+01  0.2839114E+06 -0.9778872E+00  0.1846912E+05 -0.2737713E+01  0.9083852E+06  0.2165365E+01
  0.1473810E+01  0.2789048E+06 -0.9421471E+00  0.1741638E+05 -0.2732086E+01  0.8782406E+06  0.2200933E+01
  0.1504762E+01  0.2725158E+06 -0.9068103E+00  0.1638108E+05 -0.2727727E+01  0.8437101E+06  0.2236105E+01
  0.1535714E+01  0.2654158E+06 -0.8718506E+00  0.1530320E+05 -0.2723904E+01  0.8086690E+06  0.2270799E+01
  0.1566667E+01  0.2572536E+06 -0.8376437E+00  0.1427338E+05 -0.2719930E+01  0.7706898E+06  0.2304671E+01
  0.1597619E+01  0.2482016E+06 -0.8044539E+00  0.1326746E+05 -0.2716552E+01  0.7303030E+06  0.2337596E+01
  0.1628572E+01  0.2386444E+06 -0.7725714E+00  0.1231942E+05 -0.2713143E+01  0.6894757E+06  0.2369083E+01
  0.1659524E+01  0.2286060E+06 -0.7416744E+00  0.1140712E+05 -0.2709642E+01  0.6489397E+06  0.2399465E+01
  0.1690476E+01  0.2177985E+06 -0.7116980E+00  0.1052377E+05 -0.2706954E+01  0.6071006E+06  0.2428985E+01
  0.1721429E+01  0.2063597E+06 -0.6831463E+00  0.9710493E+04 -0.2704815E+01  0.5638459E+06  0.2456684E+01
  0.1752381E+01  0.1948240E+06 -0.6555696E+00  0.8911700E+04 -0.2704126E+01  0.5222302E+06  0.2483623E+01
  0.1783333E+01  0.1833224E+06 -0.6290861E+00  0.8121638E+04 -0.2704843E+01  0.4826967E+06  0.2509445E+01
  0.1814286E+01  0.1714938E+06 -0.6042672E+00  0.7406051E+04 -0.2705418E+01  0.4424425E+06  0.2533326E+01
  0.1845238E+01  0.1597066E+06 -0.5808206E+00  0.6736964E+04 -0.2707115E+01  0.4034836E+06  0.2555916E+01
  0.1876190E+01  0.1480516E+06 -0.5585724E+00  0.6128467E+04 -0.2707733E+01  0.3663612E+06  0.2577019E+01
  0.1907143E+01  0.1366131E+06 -0.5373902E+00  0.5558163E+04 -0.2707952E+01  0.3314698E+06  0.2597149E+01
  0.1938095E+01  0.1251023E+06 -0.5169551E+00  0.5018761E+04 -0.2710817E+01  0.2974314E+06  0.2616579E+01
  0.1969048E+01  0.1137276E+06 -0.4978408E+00  0.4541769E+04 -0.2712180E+01  0.2646150E+06  0.2634086E+01
  0.2000000E+01  0.1024984E+06 -0.4798435E+00  0.4117875E+04 -0.2711748E+01  0.2331132E+06  0.2650260E+01
