VARIABLES="w (rad/s)"
"A   1   1" "B   1   1"
"A   1   2" "B   1   2"
"A   1   3" "B   1   3"
Zone t="Motion of body    1 in DoF   1",I=    64,F=POINT
  0.5000000E-01  0.2883052E+06  0.6634554E-01  0.1724243E-01  0.4843157E-04 -0.1280114E+07 -0.2994133E+00
  0.8095238E-01  0.2898381E+06  0.2903230E+00 -0.1385408E-01 -0.1585853E-03 -0.1284477E+07 -0.1305676E+01
  0.1119048E+00  0.2903470E+06  0.8132721E+00 -0.4090654E-02 -0.1269402E-03 -0.1285828E+07 -0.3654797E+01
  0.1428571E+00  0.2907979E+06  0.1822520E+01  0.8171082E-02 -0.1160149E-04 -0.1287308E+07 -0.8181613E+01
  0.1738095E+00  0.2913961E+06  0.3611467E+01  0.0000000E+00 -0.1579095E-03 -0.1289352E+07 -0.1619007E+02
  0.2047619E+00  0.2918649E+06  0.6627532E+01 -0.2161070E-02 -0.2432577E-03 -0.1291008E+07 -0.2966755E+02
  0.2357143E+00  0.2925232E+06  0.1159974E+02  0.1456521E-01  0.2823845E-03 -0.1292720E+07 -0.5181653E+02
  0.2666667E+00  0.2931906E+06  0.1963656E+02 -0.1493454E-01 -0.4620478E-03 -0.1295379E+07 -0.8753321E+02
  0.2976190E+00  0.2940558E+06  0.3267648E+02  0.1117676E-01  0.5979836E-04 -0.1298064E+07 -0.1452959E+03
  0.3285715E+00  0.2949965E+06  0.5355861E+02  0.8173402E-02  0.5275011E-05 -0.1300925E+07 -0.2374520E+03
  0.3595238E+00  0.2960440E+06  0.8709457E+02  0.6451133E-02  0.4608631E-03 -0.1304888E+07 -0.3850310E+03
  0.3904762E+00  0.2972770E+06  0.1404478E+03  0.0000000E+00 -0.4029274E-04 -0.1309285E+07 -0.6188651E+03
  0.4214286E+00  0.2986689E+06  0.2233598E+03  0.1354153E-01  0.6413460E-04 -0.1313697E+07 -0.9803951E+03
  0.4523810E+00  0.3004204E+06  0.3522244E+03  0.1592054E-01  0.1440763E-02 -0.1319509E+07 -0.1539947E+04
  0.4833333E+00  0.3020242E+06  0.5408721E+03  0.4230367E-02  0.4124641E-03 -0.1325858E+07 -0.2355342E+04
  0.5142857E+00  0.3040545E+06  0.8172927E+03 -0.2848307E-02 -0.1495838E-02 -0.1332366E+07 -0.3542422E+04
  0.5452381E+00  0.3061888E+06  0.1204520E+04  0.8171782E-02 -0.9627342E-03 -0.1339282E+07 -0.5194758E+04
  0.5761905E+00  0.3084706E+06  0.1732315E+04 -0.1535967E-02 -0.3940582E-02 -0.1347345E+07 -0.7433170E+04
  0.6071429E+00  0.3112772E+06  0.2446578E+04  0.5830652E-02 -0.4768372E-04 -0.1357226E+07 -0.1044250E+05
  0.6380953E+00  0.3138084E+06  0.3374709E+04  0.1071304E-01  0.1407623E-02 -0.1365942E+07 -0.1432245E+05
  0.6690477E+00  0.3167449E+06  0.4574292E+04  0.2463127E-02  0.2191544E-02 -0.1375484E+07 -0.1929268E+05
  0.7000000E+00  0.3200939E+06  0.6107824E+04  0.1229422E-01  0.5809784E-02 -0.1386137E+07 -0.2558997E+05
  0.7309524E+00  0.3230741E+06  0.8018966E+04  0.1603216E-01  0.3650665E-02 -0.1395839E+07 -0.3337313E+05
  0.7619048E+00  0.3264722E+06  0.1038904E+05  0.5207061E-02  0.2689362E-02 -0.1407504E+07 -0.4294548E+05
  0.7928572E+00  0.3299074E+06  0.1328616E+05  0.9545677E-02  0.3589630E-02 -0.1418144E+07 -0.5451120E+05
  0.8238096E+00  0.3335483E+06  0.1679077E+05  0.9483381E-02  0.2578735E-02 -0.1429058E+07 -0.6834477E+05
  0.8547620E+00  0.3366622E+06  0.2096030E+05  0.1278168E-01 -0.1220703E-03 -0.1437478E+07 -0.8460659E+05
  0.8857143E+00  0.3399395E+06  0.2589954E+05  0.4961567E-02 -0.5378723E-02 -0.1446491E+07 -0.1036529E+06
  0.9166667E+00  0.3431351E+06  0.3168127E+05  0.6525213E-02  0.7949829E-02 -0.1454519E+07 -0.1256450E+06
  0.9476191E+00  0.3461802E+06  0.3838181E+05  0.2383131E-02 -0.4806519E-02 -0.1462339E+07 -0.1508422E+06
  0.9785714E+00  0.3483360E+06  0.4600674E+05  0.3555187E-02  0.1388550E-02 -0.1466304E+07 -0.1790940E+06
  0.1009524E+01  0.3505100E+06  0.5465712E+05  0.3022968E-02 -0.4882812E-03 -0.1469865E+07 -0.2106604E+06
  0.1040476E+01  0.3518178E+06  0.6429373E+05  0.6570009E-02  0.4577637E-02 -0.1469099E+07 -0.2451406E+06
  0.1071429E+01  0.3528021E+06  0.7499068E+05  0.7747396E-02  0.1205444E-02 -0.1466543E+07 -0.2827087E+06
  0.1102381E+01  0.3528121E+06  0.8667619E+05  0.9578433E-02  0.3082275E-02 -0.1461089E+07 -0.3231013E+06
  0.1133333E+01  0.3515617E+06  0.9922261E+05  0.8239746E-02 -0.4852295E-02 -0.1450616E+07 -0.3655100E+06
  0.1164286E+01  0.3499310E+06  0.1127478E+06  0.7863425E-02  0.3601074E-02 -0.1439377E+07 -0.4104692E+06
  0.1195238E+01  0.3468064E+06  0.1268487E+06  0.4953331E-02  0.5187988E-03 -0.1422371E+07 -0.4560292E+06
  0.1226190E+01  0.3429790E+06  0.1415569E+06  0.1035346E-01  0.5279541E-02 -0.1403128E+07 -0.5023977E+06
  0.1257143E+01  0.3378983E+06  0.1564555E+06  0.6699995E-02  0.1922607E-02 -0.1380151E+07 -0.5480536E+06
  0.1288095E+01  0.3317174E+06  0.1712988E+06 -0.5686085E-03 -0.1892090E-02 -0.1352778E+07 -0.5915341E+06
  0.1319048E+01  0.3245341E+06  0.1859766E+06  0.9948510E-02 -0.4577637E-03 -0.1323134E+07 -0.6331989E+06
  0.1350000E+01  0.3166165E+06  0.2002975E+06  0.7459852E-02  0.4058838E-02 -0.1291788E+07 -0.6722042E+06
  0.1380952E+01  0.3076237E+06  0.2137262E+06  0.7602034E-02  0.2685547E-02 -0.1257255E+07 -0.7063513E+06
  0.1411905E+01  0.2976908E+06  0.2257975E+06 -0.1123953E-02  0.1953125E-02 -0.1221590E+07 -0.7352536E+06
  0.1442857E+01  0.2879070E+06  0.2372309E+06  0.3045715E-02 -0.2990723E-02 -0.1186529E+07 -0.7603104E+06
  0.1473810E+01  0.2775932E+06  0.2471126E+06  0.6419044E-02  0.3814697E-02 -0.1150756E+07 -0.7790337E+06
  0.1504762E+01  0.2668622E+06  0.2552462E+06  0.8112268E-02 -0.2197266E-02 -0.1114404E+07 -0.7907655E+06
  0.1535714E+01  0.2565055E+06  0.2623181E+06  0.3298737E-02  0.2288818E-02 -0.1080996E+07 -0.7992154E+06
  0.1566667E+01  0.2461708E+06  0.2676325E+06 -0.6233377E-03  0.2166748E-02 -0.1048484E+07 -0.8012324E+06
  0.1597619E+01  0.2360921E+06  0.2712620E+06  0.1207241E-01  0.2868652E-02 -0.1017719E+07 -0.7972807E+06
  0.1628572E+01  0.2266092E+06  0.2734896E+06  0.7495545E-03 -0.3051758E-04 -0.9896441E+06 -0.7887723E+06
  0.1659524E+01  0.2177585E+06  0.2745350E+06 -0.2022829E-02 -0.7324219E-03 -0.9646256E+06 -0.7769466E+06
  0.1690476E+01  0.2093070E+06  0.2741205E+06  0.8304220E-02  0.6103516E-03 -0.9420587E+06 -0.7615589E+06
  0.1721429E+01  0.2012094E+06  0.2717854E+06  0.4219277E-02 -0.6103516E-04 -0.9206815E+06 -0.7389405E+06
  0.1752381E+01  0.1939341E+06  0.2689412E+06  0.3099856E-02 -0.1068115E-03 -0.9028705E+06 -0.7168791E+06
  0.1783333E+01  0.1874923E+06  0.2656006E+06  0.1221844E-01  0.1312256E-02 -0.8881655E+06 -0.6944007E+06
  0.1814286E+01  0.1815280E+06  0.2608452E+06 -0.1143808E-02  0.9155273E-03 -0.8750790E+06 -0.6674549E+06
  0.1845238E+01  0.1762677E+06  0.2556059E+06  0.6218498E-02 -0.2288818E-03 -0.8645158E+06 -0.6401679E+06
  0.1876190E+01  0.1716767E+06  0.2499160E+06  0.3903772E-02  0.6942749E-03 -0.8560659E+06 -0.6122814E+06
  0.1907143E+01  0.1677744E+06  0.2440892E+06  0.8640933E-02  0.6713867E-03 -0.8498744E+06 -0.5847238E+06
  0.1938095E+01  0.1642520E+06  0.2378647E+06  0.1517931E-01  0.3433228E-03 -0.8451798E+06 -0.5581419E+06
  0.1969048E+01  0.1612050E+06  0.2309933E+06  0.6013476E-02 -0.2517700E-03 -0.8418441E+06 -0.5293741E+06
  0.2000000E+01  0.1585414E+06  0.2236372E+06 -0.2441406E-03  0.4730225E-03 -0.8395992E+06 -0.4997118E+06
Zone t="Motion of body    1 in DoF   2",I=    64,F=POINT
  0.5000000E-01 -0.4425049E-02 -0.8392334E-04  0.8370363E+05  0.1517048E+03  0.5065918E-01  0.5683899E-03
  0.8095238E-01  0.6738550E-02  0.4863739E-04  0.8273299E+05  0.2501196E+03 -0.5126953E-01 -0.1983643E-03
  0.1119048E+00  0.6817757E-04 -0.1811981E-04  0.8227751E+05  0.3551762E+03  0.1090841E-01  0.6866455E-03
  0.1428571E+00 -0.3845215E-02  0.5340576E-04  0.8191245E+05  0.4700049E+03  0.2050781E-01  0.1518250E-02
  0.1738095E+00  0.5530788E-02 -0.2269745E-03  0.8166391E+05  0.5974996E+03 -0.1123716E-01  0.1106262E-02
  0.2047619E+00 -0.5216377E-02  0.1106262E-03  0.8159388E+05  0.7433270E+03  0.4828874E-01  0.8926392E-03
  0.2357143E+00  0.6861831E-02 -0.9918213E-04  0.8137059E+05  0.9128660E+03  0.4660866E-02  0.4272461E-03
  0.2666667E+00  0.1853943E-01 -0.6484985E-04  0.8132773E+05  0.1108564E+04 -0.4394531E-01  0.6256104E-03
  0.2976190E+00  0.2666016E-02  0.9918213E-04  0.8117872E+05  0.1344440E+04 -0.2419922E-01  0.2815247E-02
  0.3285715E+00  0.7755444E-02  0.7934570E-03  0.8114366E+05  0.1618648E+04 -0.7133152E-01 -0.2304077E-02
  0.3595238E+00 -0.7130199E-02 -0.7629395E-04  0.8090490E+05  0.1944137E+04 -0.1629760E-01 -0.1770020E-02
  0.3904762E+00 -0.8597024E-03  0.4043579E-03  0.8084804E+05  0.2324505E+04  0.4376667E-02  0.9765625E-03
  0.4214286E+00 -0.4417290E-02 -0.1983643E-03  0.8037152E+05  0.2739620E+04  0.5213850E-01 -0.7766724E-02
  0.4523810E+00 -0.8365029E-02 -0.2899170E-03  0.8012179E+05  0.3219988E+04  0.8796772E-01  0.2136230E-02
  0.4833333E+00  0.3662109E-02 -0.5798340E-03  0.7943697E+05  0.3679594E+04 -0.2980199E-01  0.5798340E-02
  0.5142857E+00 -0.3263686E-02  0.8544922E-03  0.7881046E+05  0.4165931E+04  0.5032010E-01  0.1583862E-01
  0.5452381E+00  0.7276244E-03 -0.3051758E-03  0.7816708E+05  0.4618518E+04  0.4298581E-01  0.8544922E-03
  0.5761905E+00  0.2012647E-02  0.6103516E-03  0.7729384E+05  0.5021256E+04 -0.4703237E-01  0.1058960E-01
  0.6071429E+00 -0.7288315E-02  0.9155273E-04  0.7662250E+05  0.5409287E+04  0.4101562E-01  0.7537842E-02
  0.6380953E+00 -0.4782605E-03  0.2716064E-02  0.7579966E+05  0.5698726E+04  0.5739126E-02 -0.3540039E-02
  0.6690477E+00  0.3694690E-02 -0.3082275E-02  0.7496140E+05  0.5937388E+04 -0.2992243E-01 -0.1892090E-02
  0.7000000E+00 -0.1028878E-01  0.9460449E-03  0.7434345E+05  0.6135706E+04  0.2197265E-01 -0.4211426E-02
  0.7309524E+00 -0.4091542E-02  0.1525879E-02  0.7363739E+05  0.6239013E+04 -0.2004021E-02 -0.6774902E-02
  0.7619048E+00 -0.9753226E-02 -0.1373291E-02  0.7288605E+05  0.6280384E+04  0.2819824E-01  0.3662109E-01
  0.7928572E+00  0.5369443E-02  0.1831055E-03  0.7233812E+05  0.6275650E+04 -0.2956081E-01  0.2301025E-01
  0.8238096E+00 -0.3093212E-02  0.2319336E-02  0.7204817E+05  0.6233387E+04  0.3259912E-01  0.3784180E-02
  0.8547620E+00 -0.4552134E-02  0.3540039E-02  0.7136512E+05  0.6064719E+04  0.5483983E-01  0.1098633E-01
  0.8857143E+00 -0.5245824E-02 -0.2380371E-02  0.7086941E+05  0.5873095E+04  0.3032069E-01 -0.5065918E-02
  0.9166667E+00 -0.2746582E-02  0.5310059E-02  0.7062084E+05  0.5666810E+04  0.1225142E-01  0.4516602E-02
  0.9476191E+00 -0.1086901E-02 -0.4089355E-02  0.7059427E+05  0.5478543E+04  0.2164141E-01 -0.9155273E-03
  0.9785714E+00 -0.1157775E-02  0.6286621E-02  0.7018863E+05  0.5106879E+04 -0.9979471E-03  0.7263184E-02
  0.1009524E+01  0.2758458E-03 -0.3112793E-02  0.6992593E+05  0.4751572E+04 -0.2902049E-02 -0.1354980E-01
  0.1040476E+01  0.2940372E-02 -0.6225586E-02  0.6981330E+05  0.4422690E+04 -0.2815718E-02  0.1342773E-02
  0.1071429E+01  0.2050781E-02  0.1281738E-02  0.6986595E+05  0.4147822E+04 -0.4283854E-01 -0.2471924E-02
  0.1102381E+01 -0.1854783E-02  0.1220703E-03  0.7000458E+05  0.3901507E+04  0.9744532E-02 -0.5462646E-02
  0.1133333E+01 -0.4712273E-03 -0.5493164E-03  0.6986664E+05  0.3417530E+04 -0.2024931E-01  0.1202393E-01
  0.1164286E+01  0.1323676E-02  0.3662109E-03  0.6984129E+05  0.3013857E+04 -0.2138852E-01  0.1770020E-01
  0.1195238E+01  0.7915117E-03 -0.3112793E-02  0.6990434E+05  0.2680588E+04 -0.1511532E-01  0.2075195E-02
  0.1226190E+01 -0.2488812E-04 -0.1281738E-02  0.7006613E+05  0.2449146E+04 -0.2389260E-02  0.1567078E-01
  0.1257143E+01 -0.8496371E-03 -0.5493164E-03  0.7030513E+05  0.2350666E+04  0.1786665E-01  0.1647949E-02
  0.1288095E+01 -0.1776902E-02 -0.1037598E-02  0.7039716E+05  0.1968602E+04  0.3070486E-01 -0.5035400E-02
  0.1319048E+01 -0.5807153E-02 -0.6103516E-03  0.7048403E+05  0.1601841E+04  0.2258080E-01  0.1153564E-01
  0.1350000E+01  0.2328378E-02 -0.4241943E-02  0.7059650E+05  0.1303905E+04 -0.9042245E-02  0.1311493E-01
  0.1380952E+01 -0.2121498E-02  0.8544922E-03  0.7073583E+05  0.1090863E+04  0.3040814E-01 -0.1457214E-02
  0.1411905E+01  0.1966917E-02  0.4577637E-03  0.7089583E+05  0.9912457E+03 -0.1106661E-01 -0.2593994E-02
  0.1442857E+01 -0.4864683E-02 -0.5798340E-03  0.7107511E+05  0.1002576E+04  0.3282604E-01 -0.1319122E-01
  0.1473810E+01  0.3416588E-02  0.4394531E-02  0.7123737E+05  0.9291194E+03 -0.2948619E-01 -0.1464844E-02
  0.1504762E+01 -0.5475780E-03  0.3326416E-02  0.7137009E+05  0.6259434E+03  0.2336333E-01 -0.6626129E-02
  0.1535714E+01 -0.1371162E-02 -0.8850098E-03  0.7148704E+05  0.4115243E+03  0.6359011E-02 -0.7629395E-05
  0.1566667E+01 -0.3798464E-02 -0.1678467E-02  0.7160930E+05  0.2950495E+03  0.1620678E-01  0.6126404E-02
  0.1597619E+01 -0.6742975E-02 -0.1434326E-02  0.7171948E+05  0.2199784E+03  0.4645585E-01  0.1699448E-02
  0.1628572E+01 -0.3166868E-02 -0.1358032E-02  0.7182587E+05  0.2265625E+03  0.3477933E-01  0.1327515E-02
  0.1659524E+01 -0.7539637E-03  0.1739502E-02  0.7191412E+05  0.2791831E+03  0.7649973E-02  0.2841949E-02
  0.1690476E+01 -0.1624739E-02 -0.8850098E-03  0.7199047E+05  0.3792480E+03 -0.5199163E-02  0.2563477E-02
  0.1721429E+01  0.2907401E-02 -0.4882812E-03  0.7211645E+05  0.1826787E+03 -0.1077866E-01  0.3643036E-03
  0.1752381E+01 -0.3361080E-02  0.1190186E-02  0.7221390E+05  0.1125326E+03  0.2953571E-01 -0.1841545E-02
  0.1783333E+01 -0.8214077E-03  0.6408691E-03  0.7229293E+05  0.4123642E+02  0.1204731E-01  0.1659393E-03
  0.1814286E+01 -0.3431425E-02 -0.4577637E-03  0.7236065E+05  0.2523359E+02  0.1022699E-01  0.2072573E-02
  0.1845238E+01 -0.6516192E-02  0.6866455E-04  0.7241877E+05  0.1788610E+02  0.6033266E-01 -0.1668930E-05
  0.1876190E+01 -0.2944094E-02 -0.4043579E-03  0.7246612E+05  0.5140886E+02  0.9369052E-02  0.2035141E-02
  0.1907143E+01 -0.1424154E-02  0.7705688E-03  0.7250713E+05  0.7175140E+02 -0.2560276E-02  0.3552437E-03
  0.1938095E+01 -0.2613864E-02  0.6866455E-04  0.7253886E+05  0.1078384E+03  0.2015510E-02 -0.4100800E-04
  0.1969048E+01 -0.1270889E-02  0.2899170E-03  0.7260079E+05  0.7621173E+02  0.1289488E-01 -0.1065731E-02
  0.2000000E+01  0.3067017E-02 -0.8392334E-04  0.7266205E+05  0.5233147E+02 -0.2001953E-01 -0.4982948E-03
Zone t="Motion of body    1 in DoF   3",I=    64,F=POINT
  0.5000000E-01 -0.1281061E+07 -0.2993023E+00 -0.1629639E+00 -0.7153546E-03  0.6968792E+07  0.1350555E+01
  0.8095238E-01 -0.1285640E+07 -0.1307285E+01  0.2638873E-01  0.7567722E-03  0.6980990E+07  0.5878446E+01
  0.1119048E+00 -0.1287023E+07 -0.3659790E+01  0.2699832E-01  0.6565508E-03  0.6985068E+07  0.1644961E+02
  0.1428571E+00 -0.1288523E+07 -0.8193410E+01 -0.5960083E-01 -0.1754314E-03  0.6990289E+07  0.3678406E+02
  0.1738095E+00 -0.1290578E+07 -0.1621421E+02  0.6830084E-01  0.2356581E-02  0.6997219E+07  0.7269067E+02
  0.2047619E+00 -0.1292190E+07 -0.2970958E+02 -0.8077932E-01  0.4276633E-04  0.7002844E+07  0.1329961E+03
  0.2357143E+00 -0.1293998E+07 -0.5189917E+02 -0.4142992E-02  0.9759665E-03  0.7009236E+07  0.2318272E+03
  0.2666667E+00 -0.1296550E+07 -0.8765844E+02  0.1457977E+00  0.4536211E-02  0.7018485E+07  0.3907414E+03
  0.2976190E+00 -0.1299320E+07 -0.1455181E+03 -0.9987305E-01 -0.1297712E-02  0.7028150E+07  0.6470320E+03
  0.3285715E+00 -0.1302152E+07 -0.2378349E+03  0.3715183E-02  0.1880765E-02  0.7037472E+07  0.1054435E+04
  0.3595238E+00 -0.1306158E+07 -0.3855800E+03 -0.1044065E+00 -0.4361868E-02  0.7052687E+07  0.1704557E+04
  0.3904762E+00 -0.1310496E+07 -0.6197183E+03  0.2782310E-01  0.6745100E-02  0.7067782E+07  0.2730728E+04
  0.4214286E+00 -0.1314970E+07 -0.9818240E+03 -0.3360037E-01 -0.2171040E-02  0.7083396E+07  0.4309410E+04
  0.4523810E+00 -0.1320827E+07 -0.1542446E+04 -0.3912675E-01 -0.1911163E-02  0.7103986E+07  0.6744225E+04
  0.4833333E+00 -0.1327092E+07 -0.2358245E+04  0.6465517E-01  0.1877499E-01  0.7127503E+07  0.1026929E+05
  0.5142857E+00 -0.1333660E+07 -0.3547549E+04  0.3299290E-01  0.1694298E-01  0.7150395E+07  0.1537581E+05
  0.5452381E+00 -0.1340563E+07 -0.5202934E+04  0.6716533E-02  0.9851456E-02  0.7174231E+07  0.2243857E+05
  0.5761905E+00 -0.1348690E+07 -0.7443845E+04  0.4427823E-01  0.2070236E-01  0.7203604E+07  0.3194012E+05
  0.6071429E+00 -0.1358555E+07 -0.1045731E+05 -0.9047563E-01 -0.1353455E-01  0.7238002E+07  0.4463641E+05
  0.6380953E+00 -0.1367174E+07 -0.1434056E+05 -0.4993040E-01 -0.3868103E-02  0.7268746E+07  0.6086145E+05
  0.6690477E+00 -0.1376829E+07 -0.1931832E+05  0.7973233E-01  0.2538300E-01  0.7301106E+07  0.8147638E+05
  0.7000000E+00 -0.1387529E+07 -0.2562957E+05  0.2441406E-01  0.4402161E-02  0.7335786E+07  0.1073816E+06
  0.7309524E+00 -0.1397141E+07 -0.3342053E+05 -0.1235813E-01  0.1181030E-01  0.7368156E+07  0.1390864E+06
  0.7619048E+00 -0.1408804E+07 -0.4299259E+05 -0.4229736E-01  0.8270264E-02  0.7406888E+07  0.1777173E+06
  0.7928572E+00 -0.1419479E+07 -0.5457306E+05 -0.1539625E-02 -0.1556396E-02  0.7440230E+07  0.2239021E+06
  0.8238096E+00 -0.1430398E+07 -0.6842471E+05  0.1215058E-01  0.2178955E-01  0.7472346E+07  0.2785058E+06
  0.8547620E+00 -0.1438786E+07 -0.8471009E+05 -0.1253890E+00 -0.3060913E-01  0.7494582E+07  0.3419220E+06
  0.8857143E+00 -0.1447842E+07 -0.1037715E+06 -0.3638483E-01  0.1892090E-02  0.7517716E+07  0.4152907E+06
  0.9166667E+00 -0.1455916E+07 -0.1258026E+06 -0.3755327E-01 -0.1370239E-01  0.7536292E+07  0.4989066E+06
  0.9476191E+00 -0.1463679E+07 -0.1510010E+06 -0.3916065E-01 -0.1226807E-01  0.7552624E+07  0.5934018E+06
  0.9785714E+00 -0.1467480E+07 -0.1792500E+06 -0.1062814E+00 -0.1745605E-01  0.7553286E+07  0.6977278E+06
  0.1009524E+01 -0.1471058E+07 -0.2107994E+06 -0.7521144E-01 -0.6225586E-02  0.7550799E+07  0.8123844E+06
  0.1040476E+01 -0.1470389E+07 -0.2453460E+06 -0.2369896E-01  0.2331543E-01  0.7532763E+07  0.9353724E+06
  0.1071429E+01 -0.1467800E+07 -0.2829912E+06 -0.3486328E-01 -0.3131104E-01  0.7504152E+07  0.1066713E+07
  0.1102381E+01 -0.1462320E+07 -0.3233869E+06 -0.9301599E-01 -0.3619385E-01  0.7467601E+07  0.1205253E+07
  0.1133333E+01 -0.1451709E+07 -0.3658080E+06 -0.7884306E-01 -0.1586914E-02  0.7412258E+07  0.1347281E+07
  0.1164286E+01 -0.1440471E+07 -0.4106863E+06 -0.4718055E-01 -0.1867676E-01  0.7354137E+07  0.1494727E+07
  0.1195238E+01 -0.1423494E+07 -0.4562779E+06 -0.4432466E-01  0.9643555E-02  0.7277600E+07  0.1639901E+07
  0.1226190E+01 -0.1404198E+07 -0.5026403E+06 -0.1662527E+00 -0.3906250E-01  0.7192908E+07  0.1783446E+07
  0.1257143E+01 -0.1381095E+07 -0.5480972E+06 -0.1301158E-01  0.3161621E-01  0.7096917E+07  0.1919136E+07
  0.1288095E+01 -0.1353658E+07 -0.5916112E+06  0.3866538E-01  0.4333496E-01  0.6986326E+07  0.2041690E+07
  0.1319048E+01 -0.1324008E+07 -0.6332398E+06 -0.7792228E-01 -0.6347656E-02  0.6873220E+07  0.2154719E+07
  0.1350000E+01 -0.1292682E+07 -0.6720786E+06 -0.9675203E-01 -0.2929688E-02  0.6755302E+07  0.2253852E+07
  0.1380952E+01 -0.1258215E+07 -0.7062929E+06 -0.5675007E-01 -0.2441406E-03  0.6631266E+07  0.2332374E+07
  0.1411905E+01 -0.1222612E+07 -0.7349839E+06 -0.6138510E-01 -0.3906250E-02  0.6507784E+07  0.2391469E+07
  0.1442857E+01 -0.1187537E+07 -0.7598414E+06 -0.2098159E-01 -0.2197266E-02  0.6386898E+07  0.2432158E+07
  0.1473810E+01 -0.1151788E+07 -0.7784872E+06 -0.4588581E-01 -0.9155273E-02  0.6269476E+07  0.2450446E+07
  0.1504762E+01 -0.1115314E+07 -0.7901289E+06 -0.6862978E-01  0.1879883E-01  0.6152914E+07  0.2443599E+07
  0.1535714E+01 -0.1082093E+07 -0.7985279E+06  0.5405160E-02  0.7202148E-02  0.6050174E+07  0.2427264E+07
  0.1566667E+01 -0.1049667E+07 -0.8004389E+06  0.2072598E-01 -0.2807617E-02  0.5953340E+07  0.2390371E+07
  0.1597619E+01 -0.1018967E+07 -0.7966349E+06 -0.9382859E-01 -0.1092529E-01  0.5866360E+07  0.2335108E+07
  0.1628572E+01 -0.9908811E+06 -0.7880201E+06  0.1049376E-01  0.2441406E-03  0.5789236E+07  0.2266442E+07
  0.1659524E+01 -0.9659142E+06 -0.7758689E+06 -0.2074319E-01  0.2197266E-02  0.5722648E+07  0.2186038E+07
  0.1690476E+01 -0.9434661E+06 -0.7605148E+06 -0.1086047E+00 -0.2380371E-02  0.5669796E+07  0.2103790E+07
  0.1721429E+01 -0.9220138E+06 -0.7376568E+06 -0.5091497E-01 -0.4699707E-02  0.5618588E+07  0.1992774E+07
  0.1752381E+01 -0.9042666E+06 -0.7157015E+06 -0.7077425E-01 -0.3540039E-02  0.5581811E+07  0.1895266E+07
  0.1783333E+01 -0.8897934E+06 -0.6932258E+06 -0.5640333E-01 -0.1831055E-02  0.5553886E+07  0.1796077E+07
  0.1814286E+01 -0.8767378E+06 -0.6663538E+06 -0.1143808E-01 -0.4760742E-02  0.5532143E+07  0.1688350E+07
  0.1845238E+01 -0.8661686E+06 -0.6393224E+06 -0.7925277E-01  0.1647949E-02  0.5519317E+07  0.1585029E+07
  0.1876190E+01 -0.8577491E+06 -0.6113929E+06 -0.1782722E-01 -0.3417969E-02  0.5511538E+07  0.1482227E+07
  0.1907143E+01 -0.8517001E+06 -0.5834760E+06 -0.9882667E-01 -0.3921509E-02  0.5510010E+07  0.1375990E+07
  0.1938095E+01 -0.8470967E+06 -0.5570677E+06 -0.8125024E-01 -0.1998901E-02  0.5514358E+07  0.1286566E+07
  0.1969048E+01 -0.8438086E+06 -0.5282164E+06 -0.5852290E-01 -0.3662109E-03  0.5521900E+07  0.1187630E+07
  0.2000000E+01 -0.8415098E+06 -0.4983847E+06 -0.6311035E-01  0.9002686E-03  0.5531798E+07  0.1088454E+07
