VARIABLES="w (rad/s)"
"abs(F   1   1)" "angle(F   1   1)"
"abs(F   1   2)" "angle(F   1   2)"
"abs(F   1   3)" "angle(F   1   3)"
Zone t="Diffraction force - beta =   0.000 deg",I=    64,F=POINT
  0.5000000E-01  0.1853021E+04 -0.1570795E+01  0.8732045E+02 -0.3094258E+01  0.2729451E+04  0.1570797E+01
  0.8095238E-01  0.3037682E+04 -0.1570794E+01  0.2269097E+03 -0.3092639E+01  0.4473466E+04  0.1570798E+01
  0.1119048E+00  0.4249093E+04 -0.1570792E+01  0.4315574E+03 -0.3090555E+01  0.6256228E+04  0.1570800E+01
  0.1428571E+00  0.5501108E+04 -0.1570788E+01  0.7019224E+03 -0.3087898E+01  0.8091358E+04  0.1570804E+01
  0.1738095E+00  0.6811566E+04 -0.1570783E+01  0.1039755E+04 -0.3084543E+01  0.1000567E+05  0.1570808E+01
  0.2047619E+00  0.8186129E+04 -0.1570775E+01  0.1446727E+04 -0.3080320E+01  0.1201196E+05  0.1570815E+01
  0.2357143E+00  0.9648556E+04 -0.1570764E+01  0.1925236E+04 -0.3074979E+01  0.1414767E+05  0.1570825E+01
  0.2666667E+00  0.1122617E+05 -0.1570748E+01  0.2477751E+04 -0.3068453E+01  0.1643799E+05  0.1570840E+01
  0.2976190E+00  0.1294602E+05 -0.1570724E+01  0.3107609E+04 -0.3060249E+01  0.1892062E+05  0.1570862E+01
  0.3285715E+00  0.1480754E+05 -0.1570687E+01  0.3817580E+04 -0.3050385E+01  0.2162885E+05  0.1570894E+01
  0.3595238E+00  0.1687681E+05 -0.1570633E+01  0.4606759E+04 -0.3038335E+01  0.2461098E+05  0.1570943E+01
  0.3904762E+00  0.1917268E+05 -0.1570551E+01  0.5482453E+04 -0.3024060E+01  0.2788666E+05  0.1571016E+01
  0.4214286E+00  0.2172207E+05 -0.1570431E+01  0.6432137E+04 -0.3007952E+01  0.3153734E+05  0.1571124E+01
  0.4523810E+00  0.2450828E+05 -0.1570253E+01  0.7463015E+04 -0.2989268E+01  0.3552627E+05  0.1571284E+01
  0.4833333E+00  0.2761363E+05 -0.1570006E+01  0.8558836E+04 -0.2970133E+01  0.3989874E+05  0.1571506E+01
  0.5142857E+00  0.3095569E+05 -0.1569659E+01  0.9719413E+04 -0.2949298E+01  0.4462455E+05  0.1571816E+01
  0.5452381E+00  0.3454741E+05 -0.1569194E+01  0.1094463E+05 -0.2928378E+01  0.4968113E+05  0.1572234E+01
  0.5761905E+00  0.3839366E+05 -0.1568584E+01  0.1222472E+05 -0.2907581E+01  0.5507768E+05  0.1572780E+01
  0.6071429E+00  0.4247783E+05 -0.1567791E+01  0.1355427E+05 -0.2886052E+01  0.6075127E+05  0.1573491E+01
  0.6380953E+00  0.4680651E+05 -0.1566792E+01  0.1494468E+05 -0.2865567E+01  0.6667602E+05  0.1574388E+01
  0.6690477E+00  0.5130067E+05 -0.1565539E+01  0.1638087E+05 -0.2845051E+01  0.7288138E+05  0.1575511E+01
  0.7000000E+00  0.5598557E+05 -0.1563981E+01  0.1786113E+05 -0.2824315E+01  0.7930307E+05  0.1576906E+01
  0.7309524E+00  0.6088632E+05 -0.1562082E+01  0.1938852E+05 -0.2804095E+01  0.8592614E+05  0.1578609E+01
  0.7619048E+00  0.6606102E+05 -0.1559783E+01  0.2095370E+05 -0.2784018E+01  0.9284549E+05  0.1580670E+01
  0.7928572E+00  0.7136839E+05 -0.1557017E+01  0.2254778E+05 -0.2763934E+01  0.9988834E+05  0.1583151E+01
  0.8238096E+00  0.7689512E+05 -0.1553724E+01  0.2417606E+05 -0.2744122E+01  0.1071885E+06  0.1586105E+01
  0.8547620E+00  0.8264369E+05 -0.1549838E+01  0.2583666E+05 -0.2724684E+01  0.1146915E+06  0.1589591E+01
  0.8857143E+00  0.8854231E+05 -0.1545278E+01  0.2751979E+05 -0.2705507E+01  0.1223677E+06  0.1593679E+01
  0.9166667E+00  0.9460666E+05 -0.1539968E+01  0.2922049E+05 -0.2686564E+01  0.1301893E+06  0.1598439E+01
  0.9476191E+00  0.1009318E+06 -0.1533841E+01  0.3092992E+05 -0.2667811E+01  0.1381900E+06  0.1603937E+01
  0.9785714E+00  0.1075123E+06 -0.1526816E+01  0.3265511E+05 -0.2649502E+01  0.1463469E+06  0.1610250E+01
  0.1009524E+01  0.1142881E+06 -0.1518793E+01  0.3438767E+05 -0.2631563E+01  0.1547341E+06  0.1617457E+01
  0.1040476E+01  0.1210972E+06 -0.1509670E+01  0.3612174E+05 -0.2613907E+01  0.1631176E+06  0.1625643E+01
  0.1071429E+01  0.1281152E+06 -0.1499372E+01  0.3786204E+05 -0.2596761E+01  0.1717029E+06  0.1634883E+01
  0.1102381E+01  0.1352206E+06 -0.1487834E+01  0.3960265E+05 -0.2579995E+01  0.1801530E+06  0.1645239E+01
  0.1133333E+01  0.1425517E+06 -0.1474981E+01  0.4134227E+05 -0.2563679E+01  0.1888055E+06  0.1656778E+01
  0.1164286E+01  0.1499877E+06 -0.1460738E+01  0.4307549E+05 -0.2547729E+01  0.1974699E+06  0.1669565E+01
  0.1195238E+01  0.1574013E+06 -0.1445005E+01  0.4479066E+05 -0.2531958E+01  0.2059172E+06  0.1683680E+01
  0.1226190E+01  0.1649034E+06 -0.1427749E+01  0.4650282E+05 -0.2516806E+01  0.2143492E+06  0.1699164E+01
  0.1257143E+01  0.1721528E+06 -0.1408977E+01  0.4821420E+05 -0.2501622E+01  0.2223859E+06  0.1715963E+01
  0.1288095E+01  0.1797930E+06 -0.1388508E+01  0.4988804E+05 -0.2487701E+01  0.2305722E+06  0.1734330E+01
  0.1319048E+01  0.1871312E+06 -0.1366512E+01  0.5156590E+05 -0.2473870E+01  0.2383672E+06  0.1754005E+01
  0.1350000E+01  0.1941339E+06 -0.1342852E+01  0.5322783E+05 -0.2460431E+01  0.2457298E+06  0.1775117E+01
  0.1380952E+01  0.2007439E+06 -0.1317685E+01  0.5487021E+05 -0.2447368E+01  0.2523265E+06  0.1797514E+01
  0.1411905E+01  0.2053824E+06 -0.1292727E+01  0.5642707E+05 -0.2433743E+01  0.2573739E+06  0.1819314E+01
  0.1442857E+01  0.2112780E+06 -0.1264989E+01  0.5803809E+05 -0.2421307E+01  0.2629611E+06  0.1843833E+01
  0.1473810E+01  0.2165144E+06 -0.1236127E+01  0.5963054E+05 -0.2409024E+01  0.2674661E+06  0.1869254E+01
  0.1504762E+01  0.2213169E+06 -0.1206263E+01  0.6120340E+05 -0.2397119E+01  0.2713397E+06  0.1895456E+01
  0.1535714E+01  0.2255517E+06 -0.1175510E+01  0.6276244E+05 -0.2385593E+01  0.2745246E+06  0.1922293E+01
  0.1566667E+01  0.2289052E+06 -0.1144009E+01  0.6429304E+05 -0.2374212E+01  0.2766126E+06  0.1949584E+01
  0.1597619E+01  0.2313280E+06 -0.1112154E+01  0.6579813E+05 -0.2362919E+01  0.2774572E+06  0.1976897E+01
  0.1628572E+01  0.2330622E+06 -0.1079896E+01  0.6730175E+05 -0.2351952E+01  0.2776314E+06  0.2004316E+01
  0.1659524E+01  0.2340456E+06 -0.1047719E+01  0.6877741E+05 -0.2341352E+01  0.2769672E+06  0.2031365E+01
  0.1690476E+01  0.2338910E+06 -0.1016007E+01  0.7022827E+05 -0.2330576E+01  0.2747822E+06  0.2057580E+01
  0.1721429E+01  0.2330358E+06 -0.9848474E+00  0.7166673E+05 -0.2320137E+01  0.2718492E+06  0.2082947E+01
  0.1752381E+01  0.2315001E+06 -0.9546571E+00  0.7308727E+05 -0.2309820E+01  0.2682010E+06  0.2107042E+01
  0.1783333E+01  0.2291431E+06 -0.9252288E+00  0.7448235E+05 -0.2299414E+01  0.2638397E+06  0.2129962E+01
  0.1814286E+01  0.2260532E+06 -0.8970749E+00  0.7584230E+05 -0.2288725E+01  0.2586337E+06  0.2151269E+01
  0.1845238E+01  0.2221383E+06 -0.8703102E+00  0.7716491E+05 -0.2277687E+01  0.2525239E+06  0.2170725E+01
  0.1876190E+01  0.2178144E+06 -0.8447694E+00  0.7845220E+05 -0.2266540E+01  0.2461545E+06  0.2188646E+01
  0.1907143E+01  0.2131065E+06 -0.8207082E+00  0.7969480E+05 -0.2255377E+01  0.2395485E+06  0.2204726E+01
  0.1938095E+01  0.2077725E+06 -0.7983888E+00  0.8088080E+05 -0.2243790E+01  0.2322318E+06  0.2218556E+01
  0.1969048E+01  0.2021065E+06 -0.7777142E+00  0.8201021E+05 -0.2232124E+01  0.2247088E+06  0.2230355E+01
  0.2000000E+01  0.1961904E+06 -0.7587862E+00  0.8306878E+05 -0.2220288E+01  0.2170947E+06  0.2239971E+01
