VARIABLES="w (rad/s)"
"abs(F   1   1)" "angle(F   1   1)"
"abs(F   1   2)" "angle(F   1   2)"
"abs(F   1   3)" "angle(F   1   3)"
Zone t="Diffraction force - beta =   0.000 deg",I=    64,F=POINT
  0.5000000E-01  0.1842929E+04 -0.1570793E+01  0.4288447E+03 -0.3097293E+01  0.2432976E+04  0.1570798E+01
  0.8095238E-01  0.3012604E+04 -0.1570788E+01  0.1112635E+04 -0.3095832E+01  0.3968845E+04  0.1570802E+01
  0.1119048E+00  0.4213403E+04 -0.1570780E+01  0.2111443E+04 -0.3093974E+01  0.5563898E+04  0.1570808E+01
  0.1428571E+00  0.5445341E+04 -0.1570768E+01  0.3426812E+04 -0.3091647E+01  0.7192627E+04  0.1570817E+01
  0.1738095E+00  0.6747823E+04 -0.1570750E+01  0.5064254E+04 -0.3088769E+01  0.8928868E+04  0.1570830E+01
  0.2047619E+00  0.8129802E+04 -0.1570723E+01  0.7012354E+04 -0.3085027E+01  0.1076120E+05  0.1570848E+01
  0.2357143E+00  0.9574885E+04 -0.1570685E+01  0.9287162E+04 -0.3080372E+01  0.1270098E+05  0.1570875E+01
  0.2666667E+00  0.1117819E+05 -0.1570629E+01  0.1189065E+05 -0.3074772E+01  0.1486029E+05  0.1570915E+01
  0.2976190E+00  0.1291291E+05 -0.1570545E+01  0.1480570E+05 -0.3067627E+01  0.1717806E+05  0.1570974E+01
  0.3285715E+00  0.1478047E+05 -0.1570421E+01  0.1805542E+05 -0.3059210E+01  0.1973534E+05  0.1571062E+01
  0.3595238E+00  0.1691654E+05 -0.1570236E+01  0.2159691E+05 -0.3048899E+01  0.2260623E+05  0.1571194E+01
  0.3904762E+00  0.1927673E+05 -0.1569960E+01  0.2544141E+05 -0.3036757E+01  0.2583098E+05  0.1571391E+01
  0.4214286E+00  0.2182913E+05 -0.1569553E+01  0.2953853E+05 -0.3023327E+01  0.2933275E+05  0.1571681E+01
  0.4523810E+00  0.2475523E+05 -0.1568961E+01  0.3382736E+05 -0.3007474E+01  0.3337943E+05  0.1572103E+01
  0.4833333E+00  0.2798970E+05 -0.1568143E+01  0.3837234E+05 -0.2992166E+01  0.3784174E+05  0.1572689E+01
  0.5142857E+00  0.3154076E+05 -0.1567010E+01  0.4288290E+05 -0.2974760E+01  0.4269142E+05  0.1573505E+01
  0.5452381E+00  0.3520094E+05 -0.1565486E+01  0.4760209E+05 -0.2958095E+01  0.4783952E+05  0.1574597E+01
  0.5761905E+00  0.3927469E+05 -0.1563524E+01  0.5234722E+05 -0.2941795E+01  0.5346072E+05  0.1576014E+01
  0.6071429E+00  0.4376910E+05 -0.1561017E+01  0.5704362E+05 -0.2924621E+01  0.5974901E+05  0.1577831E+01
  0.6380953E+00  0.4839875E+05 -0.1557880E+01  0.6191609E+05 -0.2909606E+01  0.6623831E+05  0.1580110E+01
  0.6690477E+00  0.5319505E+05 -0.1553978E+01  0.6661412E+05 -0.2894176E+01  0.7287517E+05  0.1582962E+01
  0.7000000E+00  0.5825781E+05 -0.1549203E+01  0.7122816E+05 -0.2878527E+01  0.8016710E+05  0.1586441E+01
  0.7309524E+00  0.6368238E+05 -0.1543503E+01  0.7593212E+05 -0.2864507E+01  0.8783330E+05  0.1590623E+01
  0.7619048E+00  0.6941831E+05 -0.1536721E+01  0.8048820E+05 -0.2850694E+01  0.9587177E+05  0.1595637E+01
  0.7928572E+00  0.7549145E+05 -0.1528739E+01  0.8475438E+05 -0.2836389E+01  0.1044117E+06  0.1601577E+01
  0.8238096E+00  0.8158314E+05 -0.1519314E+01  0.8897639E+05 -0.2823038E+01  0.1130820E+06  0.1608599E+01
  0.8547620E+00  0.8770546E+05 -0.1508300E+01  0.9319177E+05 -0.2811098E+01  0.1220344E+06  0.1616794E+01
  0.8857143E+00  0.9411878E+05 -0.1495741E+01  0.9698114E+05 -0.2798465E+01  0.1310925E+06  0.1626206E+01
  0.9166667E+00  0.1010718E+06 -0.1481686E+01  0.1005806E+06 -0.2786242E+01  0.1410393E+06  0.1636788E+01
  0.9476191E+00  0.1080745E+06 -0.1465765E+01  0.1040011E+06 -0.2774738E+01  0.1510815E+06  0.1648829E+01
  0.9785714E+00  0.1151094E+06 -0.1447845E+01  0.1073071E+06 -0.2764453E+01  0.1612642E+06  0.1662427E+01
  0.1009524E+01  0.1221496E+06 -0.1427837E+01  0.1102908E+06 -0.2754414E+01  0.1714490E+06  0.1677682E+01
  0.1040476E+01  0.1291462E+06 -0.1405694E+01  0.1127930E+06 -0.2743733E+01  0.1813432E+06  0.1694685E+01
  0.1071429E+01  0.1360032E+06 -0.1381308E+01  0.1151307E+06 -0.2733847E+01  0.1917118E+06  0.1713283E+01
  0.1102381E+01  0.1424536E+06 -0.1354645E+01  0.1172664E+06 -0.2724972E+01  0.2013409E+06  0.1733589E+01
  0.1133333E+01  0.1488295E+06 -0.1326247E+01  0.1192599E+06 -0.2717211E+01  0.2109797E+06  0.1755077E+01
  0.1164286E+01  0.1548892E+06 -0.1295881E+01  0.1208613E+06 -0.2709568E+01  0.2201166E+06  0.1778161E+01
  0.1195238E+01  0.1604891E+06 -0.1263640E+01  0.1219274E+06 -0.2701126E+01  0.2282067E+06  0.1802757E+01
  0.1226190E+01  0.1656280E+06 -0.1229597E+01  0.1228222E+06 -0.2693416E+01  0.2364225E+06  0.1828490E+01
  0.1257143E+01  0.1696620E+06 -0.1193167E+01  0.1234898E+06 -0.2686270E+01  0.2430918E+06  0.1855803E+01
  0.1288095E+01  0.1730666E+06 -0.1156233E+01  0.1239456E+06 -0.2680505E+01  0.2487381E+06  0.1883122E+01
  0.1319048E+01  0.1755588E+06 -0.1117976E+01  0.1242445E+06 -0.2675556E+01  0.2535901E+06  0.1910930E+01
  0.1350000E+01  0.1770350E+06 -0.1078920E+01  0.1240001E+06 -0.2669917E+01  0.2566467E+06  0.1939073E+01
  0.1380952E+01  0.1775058E+06 -0.1039341E+01  0.1233668E+06 -0.2664227E+01  0.2580945E+06  0.1967163E+01
  0.1411905E+01  0.1766720E+06 -0.9987788E+00  0.1225557E+06 -0.2658904E+01  0.2586983E+06  0.1994847E+01
  0.1442857E+01  0.1749455E+06 -0.9589833E+00  0.1215591E+06 -0.2654323E+01  0.2577376E+06  0.2021139E+01
  0.1473810E+01  0.1720365E+06 -0.9193982E+00  0.1203719E+06 -0.2650595E+01  0.2550557E+06  0.2046266E+01
  0.1504762E+01  0.1681203E+06 -0.8801990E+00  0.1190414E+06 -0.2647580E+01  0.2514266E+06  0.2069931E+01
  0.1535714E+01  0.1631455E+06 -0.8414183E+00  0.1175382E+06 -0.2645417E+01  0.2464688E+06  0.2091818E+01
  0.1566667E+01  0.1571723E+06 -0.8042291E+00  0.1154545E+06 -0.2642064E+01  0.2393177E+06  0.2110823E+01
  0.1597619E+01  0.1504220E+06 -0.7685000E+00  0.1132040E+06 -0.2639278E+01  0.2312662E+06  0.2126925E+01
  0.1628572E+01  0.1430810E+06 -0.7343881E+00  0.1108447E+06 -0.2636817E+01  0.2230969E+06  0.2140069E+01
  0.1659524E+01  0.1347879E+06 -0.7009119E+00  0.1083487E+06 -0.2634920E+01  0.2135660E+06  0.2150078E+01
  0.1690476E+01  0.1258734E+06 -0.6690595E+00  0.1057317E+06 -0.2633752E+01  0.2031674E+06  0.2155798E+01
  0.1721429E+01  0.1164589E+06 -0.6386495E+00  0.1030157E+06 -0.2633163E+01  0.1923258E+06  0.2157188E+01
  0.1752381E+01  0.1066265E+06 -0.6093919E+00  0.1002037E+06 -0.2633228E+01  0.1812483E+06  0.2154136E+01
  0.1783333E+01  0.9641131E+05 -0.5817125E+00  0.9719638E+05 -0.2633488E+01  0.1695601E+06  0.2145193E+01
  0.1814286E+01  0.8590098E+05 -0.5564239E+00  0.9392942E+05 -0.2633574E+01  0.1571237E+06  0.2128302E+01
  0.1845238E+01  0.7526549E+05 -0.5329893E+00  0.9061871E+05 -0.2634319E+01  0.1449711E+06  0.2103881E+01
  0.1876190E+01  0.6462827E+05 -0.5119640E+00  0.8728327E+05 -0.2635280E+01  0.1335297E+06  0.2071657E+01
  0.1907143E+01  0.5381414E+05 -0.4919889E+00  0.8390897E+05 -0.2636748E+01  0.1221516E+06  0.2028755E+01
  0.1938095E+01  0.4296420E+05 -0.4742007E+00  0.8050186E+05 -0.2638928E+01  0.1111808E+06  0.1972627E+01
  0.1969048E+01  0.3209783E+05 -0.4585930E+00  0.7707415E+05 -0.2641704E+01  0.1008024E+06  0.1900853E+01
  0.2000000E+01  0.2141228E+05 -0.4481847E+00  0.7363216E+05 -0.2644906E+01  0.9165900E+05  0.1813713E+01
