VARIABLES="w (rad/s)"
"A   1   1" "B   1   1"
"A   1   2" "B   1   2"
"A   1   3" "B   1   3"
Zone t="Motion of body    1 in DoF   1",I=    64,F=POINT
  0.5000000E-01  0.9317146E+04  0.1304955E-03 -0.3056526E-02 -0.2606163E-05  0.9246736E+02  0.1500641E-05
  0.8095238E-01  0.9323837E+04  0.5353627E-03 -0.2356136E-04  0.1133556E-06  0.9164036E+02  0.6946280E-05
  0.1119048E+00  0.9354767E+04  0.1518464E-02 -0.1817358E-02 -0.8453786E-05  0.9167980E+02  0.1908455E-04
  0.1428571E+00  0.9349657E+04  0.3411843E-02  0.1535416E-03  0.4829508E-07  0.9101766E+02  0.4238297E-04
  0.1738095E+00  0.9383640E+04  0.6820286E-02 -0.4938204E-03 -0.3187170E-05  0.9164464E+02  0.8538034E-04
  0.2047619E+00  0.9372442E+04  0.1261656E-01  0.6450608E-03 -0.7860788E-05  0.9102504E+02  0.1583273E-03
  0.2357143E+00  0.9407236E+04  0.2228473E-01 -0.8739124E-03 -0.1162554E-04  0.9137530E+02  0.2800834E-03
  0.2666667E+00  0.9414812E+04  0.3811158E-01 -0.1961589E-02 -0.1782017E-04  0.9217339E+02  0.4821268E-03
  0.2976190E+00  0.9412173E+04  0.6407791E-01 -0.1116714E-02 -0.1203186E-04  0.9195264E+02  0.8104257E-03
  0.3285715E+00  0.9445904E+04  0.1064521E+00 -0.1297412E-02 -0.6764167E-05  0.9222823E+02  0.1351885E-02
  0.3595238E+00  0.9470055E+04  0.1754763E+00 -0.3474911E-03  0.6893446E-05  0.9351903E+02  0.2245648E-02
  0.3904762E+00  0.9468957E+04  0.2869954E+00 -0.1179648E-02 -0.3437028E-04  0.9334190E+02  0.3684357E-02
  0.4214286E+00  0.9487891E+04  0.4637709E+00 -0.8531343E-03 -0.7096573E-04  0.9357108E+02  0.5978494E-02
  0.4523810E+00  0.9532175E+04  0.7436088E+00 -0.2761640E-03  0.7083640E-05  0.9473140E+02  0.9646633E-02
  0.4833333E+00  0.9553688E+04  0.1162510E+01 -0.2490076E-02 -0.1141741E-03  0.9564126E+02  0.1519112E-01
  0.5142857E+00  0.9562951E+04  0.1786788E+01 -0.1672639E-02 -0.7551583E-04  0.9621794E+02  0.2350410E-01
  0.5452381E+00  0.9601771E+04  0.2684744E+01 -0.2886010E-03  0.2623722E-04  0.9718494E+02  0.3556285E-01
  0.5761905E+00  0.9652581E+04  0.3941951E+01 -0.2747528E-03  0.4634075E-04  0.9999797E+02  0.5286620E-01
  0.6071429E+00  0.9688949E+04  0.5679721E+01 -0.9832942E-03 -0.1322934E-03  0.1004760E+03  0.7664244E-01
  0.6380953E+00  0.9694280E+04  0.7996269E+01 -0.1733694E-02 -0.1492817E-03  0.9957800E+02  0.1083537E+00
  0.6690477E+00  0.9730870E+04  0.1107964E+02 -0.2383303E-02 -0.1519918E-03  0.1013397E+03  0.1516828E+00
  0.7000000E+00  0.9791021E+04  0.1513703E+02 -0.5122593E-03  0.6714091E-04  0.1029547E+03  0.2091312E+00
  0.7309524E+00  0.9850028E+04  0.2036564E+02 -0.2656371E-02 -0.6028228E-03  0.1048461E+03  0.2842551E+00
  0.7619048E+00  0.9895775E+04  0.2703666E+02 -0.8211135E-03  0.1076609E-04  0.1063039E+03  0.3811049E+00
  0.7928572E+00  0.9926304E+04  0.3544952E+02 -0.4618876E-03 -0.1437441E-03  0.1062799E+03  0.5031074E+00
  0.8238096E+00  0.9969686E+04  0.4598376E+02 -0.6066030E-03 -0.4691631E-04  0.1069757E+03  0.6579354E+00
  0.8547620E+00  0.1002935E+05  0.5906063E+02 -0.1591016E-02 -0.3786087E-03  0.1088845E+03  0.8543073E+00
  0.8857143E+00  0.1010481E+05  0.7517146E+02  0.3574741E-03  0.2747029E-03  0.1117043E+03  0.1101566E+01
  0.9166667E+00  0.1018475E+05  0.9483820E+02 -0.1797763E-02 -0.5118102E-03  0.1142337E+03  0.1406606E+01
  0.9476191E+00  0.1025637E+05  0.1186229E+03 -0.2785687E-02 -0.5114675E-03  0.1158670E+03  0.1777392E+01
  0.9785714E+00  0.1031213E+05  0.1471396E+03 -0.4034669E-03  0.6419420E-04  0.1165813E+03  0.2224304E+01
  0.1009524E+01  0.1036627E+05  0.1811428E+03  0.3249690E-03  0.4655123E-04  0.1179228E+03  0.2767788E+01
  0.1040476E+01  0.1044117E+05  0.2215504E+03 -0.1538013E-02 -0.7563829E-03  0.1202675E+03  0.3426809E+01
  0.1071429E+01  0.1052870E+05  0.2692431E+03  0.6978353E-03  0.7419586E-03  0.1226992E+03  0.4213379E+01
  0.1102381E+01  0.1062494E+05  0.3252118E+03 -0.5865406E-03 -0.2221465E-03  0.1252394E+03  0.5149890E+01
  0.1133333E+01  0.1072064E+05  0.3904696E+03 -0.6311080E-03 -0.3092289E-03  0.1282743E+03  0.6265534E+01
  0.1164286E+01  0.1081854E+05  0.4661885E+03 -0.1127091E-02 -0.5927086E-03  0.1316750E+03  0.7587177E+01
  0.1195238E+01  0.1091468E+05  0.5535438E+03 -0.6574654E-03 -0.5339384E-03  0.1347935E+03  0.9133260E+01
  0.1226190E+01  0.1100251E+05  0.6536776E+03 -0.3235456E-03 -0.9763241E-04  0.1366445E+03  0.1090762E+02
  0.1257143E+01  0.1107095E+05  0.7676503E+03 -0.1074184E-02 -0.9021759E-03  0.1378221E+03  0.1294260E+02
  0.1288095E+01  0.1117112E+05  0.8976912E+03 -0.1388945E-02 -0.1163960E-02  0.1404837E+03  0.1532124E+02
  0.1319048E+01  0.1126465E+05  0.1044442E+04 -0.1995486E-03  0.2932549E-03  0.1438193E+03  0.1807019E+02
  0.1350000E+01  0.1136797E+05  0.1209765E+04 -0.2122102E-02 -0.2021313E-02  0.1475882E+03  0.2123124E+02
  0.1380952E+01  0.1147690E+05  0.1395188E+04 -0.1115996E-02 -0.8180141E-03  0.1516337E+03  0.2485324E+02
  0.1411905E+01  0.1153011E+05  0.1593471E+04  0.1242832E-03  0.1104832E-02  0.1518138E+03  0.2863808E+02
  0.1442857E+01  0.1163104E+05  0.1821813E+04  0.1046964E-02  0.6849766E-03  0.1553673E+03  0.3319808E+02
  0.1473810E+01  0.1172727E+05  0.2074316E+04 -0.2389023E-02 -0.2100468E-02  0.1588961E+03  0.3833759E+02
  0.1504762E+01  0.1180979E+05  0.2351923E+04 -0.1531190E-02 -0.8711815E-03  0.1620497E+03  0.4409533E+02
  0.1535714E+01  0.1188087E+05  0.2655664E+04 -0.1910187E-02 -0.2699375E-02  0.1648378E+03  0.5050776E+02
  0.1566667E+01  0.1194311E+05  0.2986703E+04 -0.1071362E-03 -0.1528740E-02  0.1675819E+03  0.5764530E+02
  0.1597619E+01  0.1199785E+05  0.3345213E+04  0.1320420E-02  0.5912781E-03  0.1705351E+03  0.6551072E+02
  0.1628572E+01  0.1204827E+05  0.3731380E+04 -0.9486550E-03 -0.1778126E-02  0.1731394E+03  0.7409877E+02
  0.1659524E+01  0.1208998E+05  0.4145113E+04  0.2298670E-05 -0.3938675E-03  0.1757523E+03  0.8343507E+02
  0.1690476E+01  0.1212303E+05  0.4586327E+04 -0.9409944E-03 -0.4529953E-03  0.1781761E+03  0.9357064E+02
  0.1721429E+01  0.1214430E+05  0.5054647E+04  0.2326807E-03  0.7753372E-03  0.1806601E+03  0.1046604E+03
  0.1752381E+01  0.1214873E+05  0.5548854E+04 -0.1310473E-02  0.6933212E-03  0.1829661E+03  0.1166763E+03
  0.1783333E+01  0.1213948E+05  0.6068070E+04  0.6802283E-03  0.7619858E-03  0.1851023E+03  0.1295989E+03
  0.1814286E+01  0.1211499E+05  0.6610669E+04 -0.8263175E-03 -0.2534866E-02  0.1871928E+03  0.1434727E+03
  0.1845238E+01  0.1207442E+05  0.7173309E+04 -0.2625496E-03 -0.1234055E-02  0.1888271E+03  0.1580885E+03
  0.1876190E+01  0.1201871E+05  0.7752992E+04 -0.2683843E-03 -0.5741119E-03  0.1897290E+03  0.1734174E+03
  0.1907143E+01  0.1194387E+05  0.8346068E+04 -0.1682182E-02  0.2079010E-02  0.1900870E+03  0.1893588E+03
  0.1938095E+01  0.1185260E+05  0.8950078E+04 -0.5767035E-03 -0.5741119E-03  0.1898678E+03  0.2058824E+03
  0.1969048E+01  0.1174623E+05  0.9561921E+04 -0.2286051E-03 -0.2519608E-02  0.1894504E+03  0.2232009E+03
  0.2000000E+01  0.1162018E+05  0.1017823E+05  0.4425049E-03  0.8029938E-03  0.1887240E+03  0.2412991E+03
Zone t="Motion of body    1 in DoF   2",I=    64,F=POINT
  0.5000000E-01 -0.2527237E-02 -0.8717179E-06  0.1579262E+05  0.2289399E+02 -0.8654594E-03 -0.1981854E-05
  0.8095238E-01 -0.2261891E-02 -0.2115965E-05  0.1570602E+05  0.3802847E+02 -0.7716347E-03 -0.2246350E-05
  0.1119048E+00 -0.3749766E-03  0.4410744E-05  0.1568684E+05  0.5460186E+02 -0.8927000E-03 -0.3598630E-05
  0.1428571E+00 -0.8428096E-03  0.7078052E-06  0.1568038E+05  0.7329332E+02 -0.7877349E-03 -0.5044043E-05
  0.1738095E+00 -0.2949205E-02  0.1829863E-04  0.1568987E+05  0.9498182E+02 -0.9656932E-03 -0.7912517E-05
  0.2047619E+00 -0.1350669E-03 -0.4574656E-05  0.1572481E+05  0.1207293E+03 -0.8919073E-03 -0.1014769E-04
  0.2357143E+00  0.4673004E-03  0.2756715E-04  0.1577111E+05  0.1520912E+03 -0.8516600E-03 -0.1035631E-04
  0.2666667E+00 -0.8851289E-03  0.5355477E-04  0.1583310E+05  0.1905112E+03 -0.8869171E-03 -0.1561642E-04
  0.2976190E+00  0.1169586E-03  0.8225441E-05  0.1590924E+05  0.2388263E+03 -0.8315277E-03 -0.1844764E-04
  0.3285715E+00 -0.1320631E-02  0.1639128E-04  0.1599444E+05  0.2990297E+03 -0.9287957E-03 -0.2512336E-04
  0.3595238E+00  0.2599552E-03 -0.7599592E-05  0.1607957E+05  0.3747226E+03 -0.7453817E-03 -0.2962351E-04
  0.3904762E+00 -0.6056994E-03  0.2408028E-04  0.1617130E+05  0.4692341E+03 -0.8303944E-03 -0.3898144E-04
  0.4214286E+00 -0.4209098E-03  0.9614229E-04  0.1624386E+05  0.5824944E+03 -0.8395566E-03 -0.4744530E-04
  0.4523810E+00 -0.9591955E-03 -0.4827976E-04  0.1631018E+05  0.7206683E+03 -0.8748706E-03 -0.5865097E-04
  0.4833333E+00 -0.2565055E-03  0.1407862E-03  0.1634528E+05  0.8747532E+03 -0.8109520E-03 -0.7116795E-04
  0.5142857E+00  0.1322164E-02  0.7271767E-04  0.1636496E+05  0.1051687E+04 -0.1025465E-02 -0.9071827E-04
  0.5452381E+00 -0.2217855E-02 -0.1443624E-03  0.1636283E+05  0.1244373E+04 -0.1042462E-02 -0.1131296E-03
  0.5761905E+00 -0.1297627E-02  0.2813339E-04  0.1633721E+05  0.1450489E+04 -0.9864618E-03 -0.1112223E-03
  0.6071429E+00  0.1814225E-02 -0.2233982E-03  0.1629356E+05  0.1674535E+04 -0.8811950E-03 -0.1292229E-03
  0.6380953E+00  0.6576082E-03  0.6604195E-04  0.1623953E+05  0.1906839E+04 -0.6785321E-03 -0.1654625E-03
  0.6690477E+00 -0.2739658E-02  0.1263618E-03  0.1617245E+05  0.2152240E+04 -0.1051960E-02 -0.1718998E-03
  0.7000000E+00 -0.2446856E-02 -0.1981258E-03  0.1608703E+05  0.2411720E+04 -0.7847377E-03 -0.1821518E-03
  0.7309524E+00  0.1461265E-02 -0.5631447E-03  0.1599022E+05  0.2680073E+04 -0.8715402E-03 -0.2279282E-03
  0.7619048E+00 -0.2778768E-03 -0.2217293E-04  0.1588159E+05  0.2958742E+04 -0.1008868E-02 -0.2439022E-03
  0.7928572E+00  0.9478319E-03  0.2770424E-03  0.1576243E+05  0.3246975E+04 -0.1010379E-02 -0.2417564E-03
  0.8238096E+00 -0.1447049E-02 -0.4949570E-03  0.1563155E+05  0.3543419E+04 -0.9168503E-03 -0.2942085E-03
  0.8547620E+00 -0.1642339E-02  0.3514290E-03  0.1548754E+05  0.3846677E+04 -0.9505927E-03 -0.2565384E-03
  0.8857143E+00 -0.1292075E-04  0.2217293E-03  0.1533539E+05  0.4155336E+04 -0.9346008E-03 -0.3299713E-03
  0.9166667E+00  0.8780739E-03 -0.1279831E-02  0.1517427E+05  0.4467927E+04 -0.8801547E-03 -0.3738403E-03
  0.9476191E+00 -0.1690735E-03  0.3018379E-03  0.1500145E+05  0.4783383E+04 -0.9319171E-03 -0.3643036E-03
  0.9785714E+00 -0.1762000E-02 -0.7057190E-03  0.1481874E+05  0.5100336E+04 -0.8459161E-03 -0.4224777E-03
  0.1009524E+01 -0.1137392E-02  0.7481575E-03  0.1463004E+05  0.5417291E+04 -0.8313162E-03 -0.4467964E-03
  0.1040476E+01 -0.1699330E-02  0.1397133E-03  0.1443801E+05  0.5732634E+04 -0.6965969E-03 -0.4911423E-03
  0.1071429E+01  0.7120768E-03 -0.7367134E-03  0.1423866E+05  0.6045738E+04 -0.7815043E-03 -0.5064011E-03
  0.1102381E+01 -0.1996660E-02 -0.3533363E-03  0.1403363E+05  0.6355096E+04 -0.6713208E-03 -0.5531311E-03
  0.1133333E+01 -0.1342998E-02 -0.2779961E-03  0.1382129E+05  0.6659938E+04 -0.7691103E-03 -0.5235672E-03
  0.1164286E+01  0.1362994E-02 -0.5111694E-03  0.1360750E+05  0.6958422E+04 -0.6339886E-03 -0.5893707E-03
  0.1195238E+01  0.6670401E-03 -0.4386902E-03  0.1339268E+05  0.7249195E+04 -0.8154485E-03 -0.6265640E-03
  0.1226190E+01 -0.1294182E-02 -0.3480911E-03  0.1317614E+05  0.7531859E+04 -0.7062005E-03 -0.6456375E-03
  0.1257143E+01 -0.6706064E-03  0.5340576E-03  0.1295729E+05  0.7812234E+04 -0.6432966E-03 -0.6637573E-03
  0.1288095E+01 -0.1953111E-02 -0.3166199E-03  0.1273825E+05  0.8069699E+04 -0.7270488E-03 -0.7219315E-03
  0.1319048E+01 -0.2482789E-02 -0.2002716E-02  0.1251843E+05  0.8323891E+04 -0.6116598E-03 -0.7247925E-03
  0.1350000E+01 -0.8533619E-03  0.1877785E-02  0.1230108E+05  0.8566711E+04 -0.6018744E-03 -0.7839203E-03
  0.1380952E+01 -0.5055132E-03  0.2784729E-03  0.1208743E+05  0.8796297E+04 -0.6850670E-03 -0.8468628E-03
  0.1411905E+01 -0.1407642E-02  0.1271248E-02  0.1187468E+05  0.9020075E+04 -0.6119598E-03 -0.8363724E-03
  0.1442857E+01 -0.1487165E-02  0.1621246E-02  0.1166327E+05  0.9226372E+04 -0.7032640E-03 -0.9307861E-03
  0.1473810E+01 -0.1089685E-02 -0.1490593E-02  0.1145407E+05  0.9419604E+04 -0.5966087E-03 -0.8802414E-03
  0.1504762E+01  0.1571752E-03  0.4415512E-03  0.1124652E+05  0.9600506E+04 -0.5779990E-03 -0.8773804E-03
  0.1535714E+01 -0.1527653E-02  0.9012222E-03  0.1104408E+05  0.9767444E+04 -0.5191537E-03 -0.9565353E-03
  0.1566667E+01 -0.2434913E-02 -0.7715225E-03  0.1084686E+05  0.9920425E+04 -0.5442031E-03 -0.1040459E-02
  0.1597619E+01 -0.8763002E-03 -0.1354218E-02  0.1065492E+05  0.1005862E+05 -0.6267815E-03 -0.9412766E-03
  0.1628572E+01 -0.1712264E-02  0.3395081E-03  0.1046776E+05  0.1018382E+05 -0.5434270E-03 -0.9584427E-03
  0.1659524E+01  0.5988035E-03  0.8201599E-04  0.1028561E+05  0.1029546E+05 -0.5585767E-03 -0.1012802E-02
  0.1690476E+01 -0.1701462E-02 -0.2511024E-02  0.1010793E+05  0.1039404E+05 -0.4817801E-03 -0.9603500E-03
  0.1721429E+01 -0.2049806E-03 -0.3261566E-03  0.9934630E+04  0.1047995E+05 -0.3213210E-03 -0.1011848E-02
  0.1752381E+01 -0.1307208E-02 -0.1078606E-02  0.9766234E+04  0.1055314E+05 -0.4614955E-03 -0.1013756E-02
  0.1783333E+01 -0.2919848E-03 -0.2803802E-03  0.9604639E+04  0.1061316E+05 -0.3668527E-03 -0.1125336E-02
  0.1814286E+01  0.1366683E-04  0.2994537E-03  0.9449079E+04  0.1066003E+05 -0.3763635E-03 -0.1009941E-02
  0.1845238E+01 -0.1325152E-02  0.7114410E-03  0.9299732E+04  0.1069329E+05 -0.3566127E-03 -0.1079559E-02
  0.1876190E+01 -0.1220945E-02 -0.2422333E-03  0.9155862E+04  0.1071546E+05 -0.4290082E-03 -0.1255989E-02
  0.1907143E+01  0.2220240E-03  0.5397797E-03  0.9017814E+04  0.1072567E+05 -0.3780408E-03 -0.1151085E-02
  0.1938095E+01 -0.1617919E-02 -0.1833916E-02  0.8885171E+04  0.1072450E+05 -0.3700350E-03 -0.1235962E-02
  0.1969048E+01 -0.8979530E-03 -0.1337051E-02  0.8758438E+04  0.1071217E+05 -0.3119103E-03 -0.1188278E-02
  0.2000000E+01 -0.1075745E-02  0.8840561E-03  0.8634954E+04  0.1069093E+05 -0.3013611E-03 -0.1235008E-02
Zone t="Motion of body    1 in DoF   3",I=    64,F=POINT
  0.5000000E-01  0.9492883E+02  0.1496292E-05 -0.1412928E-02 -0.2235128E-05  0.9409845E+02  0.4044850E-07
  0.8095238E-01  0.9385527E+02  0.7065266E-05 -0.1171073E-02 -0.3269276E-05  0.9372549E+02  0.1142524E-06
  0.1119048E+00  0.9383358E+02  0.1970508E-04 -0.9752588E-03 -0.3966019E-05  0.9438788E+02  0.2121307E-06
  0.1428571E+00  0.9294614E+02  0.4403297E-04 -0.1087517E-02 -0.5669018E-05  0.9327686E+02  0.4554758E-06
  0.1738095E+00  0.9372867E+02  0.8843779E-04 -0.1265072E-02 -0.8714622E-05  0.9431850E+02  0.1121238E-05
  0.2047619E+00  0.9303692E+02  0.1643327E-03 -0.1113720E-02 -0.9583183E-05  0.9398954E+02  0.2456052E-05
  0.2357143E+00  0.9315164E+02  0.2906513E-03 -0.1669436E-02 -0.1755199E-04  0.9355952E+02  0.3656156E-05
  0.2666667E+00  0.9424310E+02  0.4985263E-03 -0.8562952E-03 -0.1121708E-04  0.9433825E+02  0.5800674E-05
  0.2976190E+00  0.9392749E+02  0.8399127E-03 -0.1555910E-02 -0.2608979E-04  0.9407235E+02  0.1068350E-04
  0.3285715E+00  0.9405962E+02  0.1404017E-02 -0.1287616E-02 -0.2642083E-04  0.9387214E+02  0.1902993E-04
  0.3595238E+00  0.9543008E+02  0.2325361E-02 -0.1460093E-02 -0.3747193E-04  0.9372417E+02  0.3046599E-04
  0.3904762E+00  0.9536864E+02  0.3820469E-02 -0.1085313E-02 -0.3681403E-04  0.9413258E+02  0.4969382E-04
  0.4214286E+00  0.9542345E+02  0.6205418E-02 -0.9275290E-03 -0.3927341E-04  0.9370033E+02  0.8069106E-04
  0.4523810E+00  0.9655510E+02  0.1000383E-01 -0.1583727E-02 -0.8008326E-04  0.9374754E+02  0.1280136E-03
  0.4833333E+00  0.9761597E+02  0.1573660E-01 -0.1132324E-02 -0.6980496E-04  0.9403609E+02  0.2023059E-03
  0.5142857E+00  0.9822457E+02  0.2434026E-01 -0.1570185E-02 -0.1171662E-03  0.9383942E+02  0.3175878E-03
  0.5452381E+00  0.9922669E+02  0.3682109E-01 -0.1584026E-02 -0.1369747E-03  0.9416332E+02  0.4874780E-03
  0.5761905E+00  0.1022472E+03  0.5445471E-01 -0.1267214E-02 -0.1173409E-03  0.9420857E+02  0.7292239E-03
  0.6071429E+00  0.1026800E+03  0.7905634E-01 -0.1426837E-02 -0.1651696E-03  0.9417439E+02  0.1062976E-02
  0.6380953E+00  0.1017049E+03  0.1122227E+00 -0.1050679E-02 -0.1424644E-03  0.9433611E+02  0.1516960E-02
  0.6690477E+00  0.1035277E+03  0.1567344E+00 -0.1230672E-02 -0.1725393E-03  0.9412935E+02  0.2145486E-02
  0.7000000E+00  0.1051274E+03  0.2159250E+00 -0.1413141E-02 -0.2476440E-03  0.9417505E+02  0.2982994E-02
  0.7309524E+00  0.1071436E+03  0.2930593E+00 -0.1485239E-02 -0.2849115E-03  0.9458584E+02  0.4086909E-02
  0.7619048E+00  0.1086326E+03  0.3926238E+00 -0.1288623E-02 -0.2670566E-03  0.9443486E+02  0.5529392E-02
  0.7928572E+00  0.1084923E+03  0.5198979E+00 -0.9562517E-03 -0.2125191E-03  0.9420992E+02  0.7379054E-02
  0.8238096E+00  0.1092548E+03  0.6811711E+00 -0.1414635E-02 -0.3745334E-03  0.9454730E+02  0.9752576E-02
  0.8547620E+00  0.1112199E+03  0.8833748E+00 -0.1183220E-02 -0.3379441E-03  0.9468529E+02  0.1279194E-01
  0.8857143E+00  0.1140664E+03  0.1135377E+01 -0.1486155E-02 -0.4814949E-03  0.9453890E+02  0.1664601E-01
  0.9166667E+00  0.1166285E+03  0.1447322E+01 -0.1462243E-02 -0.5042129E-03  0.9452201E+02  0.2146728E-01
  0.9476191E+00  0.1183823E+03  0.1830818E+01 -0.1462788E-02 -0.5365247E-03  0.9488084E+02  0.2743030E-01
  0.9785714E+00  0.1190630E+03  0.2297381E+01 -0.1413596E-02 -0.5629128E-03  0.9491267E+02  0.3475375E-01
  0.1009524E+01  0.1204278E+03  0.2860909E+01 -0.1223357E-02 -0.5292632E-03  0.9483420E+02  0.4374765E-01
  0.1040476E+01  0.1227545E+03  0.3538172E+01 -0.9438429E-03 -0.4379535E-03  0.9464544E+02  0.5463738E-01
  0.1071429E+01  0.1252800E+03  0.4350163E+01 -0.8337975E-03 -0.4123570E-03  0.9476599E+02  0.6803349E-01
  0.1102381E+01  0.1278795E+03  0.5316686E+01 -0.8348254E-03 -0.4620673E-03  0.9512535E+02  0.8412935E-01
  0.1133333E+01  0.1309642E+03  0.6458861E+01 -0.1230450E-02 -0.7643634E-03  0.9534307E+02  0.1037553E+00
  0.1164286E+01  0.1344391E+03  0.7804409E+01 -0.1392686E-02 -0.8981265E-03  0.9541477E+02  0.1270770E+00
  0.1195238E+01  0.1375505E+03  0.9382763E+01 -0.1143184E-02 -0.7459018E-03  0.9524527E+02  0.1547335E+00
  0.1226190E+01  0.1394140E+03  0.1123330E+02 -0.1067467E-02 -0.8138232E-03  0.9518230E+02  0.1875576E+00
  0.1257143E+01  0.1407959E+03  0.1338373E+02 -0.8629127E-03 -0.6803349E-03  0.9546951E+02  0.2255541E+00
  0.1288095E+01  0.1435023E+03  0.1585493E+02 -0.8047883E-03 -0.6157644E-03  0.9566005E+02  0.2710820E+00
  0.1319048E+01  0.1469204E+03  0.1867217E+02 -0.1470948E-02 -0.1228470E-02  0.9588203E+02  0.3223847E+00
  0.1350000E+01  0.1507000E+03  0.2189895E+02 -0.1113326E-02 -0.9945855E-03  0.9579522E+02  0.3840511E+00
  0.1380952E+01  0.1546349E+03  0.2557603E+02 -0.8737712E-03 -0.7619485E-03  0.9567757E+02  0.4544117E+00
  0.1411905E+01  0.1477067E+03  0.2843203E+02 -0.1070254E-02 -0.1050089E-02  0.9515730E+02  0.5102103E+00
  0.1442857E+01  0.1514148E+03  0.3298839E+02 -0.9550907E-03 -0.9435117E-03  0.9550305E+02  0.6013635E+00
  0.1473810E+01  0.1549759E+03  0.3810058E+02 -0.1082890E-02 -0.1207508E-02  0.9592826E+02  0.7053090E+00
  0.1504762E+01  0.1580862E+03  0.4384643E+02 -0.9259393E-03 -0.1063161E-02  0.9605085E+02  0.8236367E+00
  0.1535714E+01  0.1607950E+03  0.5026578E+02 -0.9463997E-03 -0.1097545E-02  0.9613375E+02  0.9593757E+00
  0.1566667E+01  0.1635030E+03  0.5744243E+02 -0.1075927E-02 -0.1509525E-02  0.9593886E+02  0.1110960E+01
  0.1597619E+01  0.1663871E+03  0.6527394E+02 -0.8864481E-03 -0.1097396E-02  0.9587944E+02  0.1279049E+01
  0.1628572E+01  0.1689999E+03  0.7393297E+02 -0.8450056E-03 -0.1055256E-02  0.9593211E+02  0.1463264E+01
  0.1659524E+01  0.1718867E+03  0.8339907E+02 -0.8393018E-03 -0.1471981E-02  0.9621584E+02  0.1670384E+01
  0.1690476E+01  0.1744399E+03  0.9365199E+02 -0.6366380E-03 -0.7349551E-03  0.9660676E+02  0.1913995E+01
  0.1721429E+01  0.1768829E+03  0.1047972E+03 -0.5972138E-03 -0.9805560E-03  0.9679507E+02  0.2171840E+01
  0.1752381E+01  0.1790710E+03  0.1167936E+03 -0.7999981E-03 -0.1465738E-02  0.9697755E+02  0.2460582E+01
  0.1783333E+01  0.1811601E+03  0.1296846E+03 -0.9291640E-03 -0.1559347E-02  0.9709056E+02  0.2780544E+01
  0.1814286E+01  0.1832452E+03  0.1434972E+03 -0.7790092E-03 -0.1335680E-02  0.9699493E+02  0.3111423E+01
  0.1845238E+01  0.1848264E+03  0.1580094E+03 -0.8054795E-03 -0.1247078E-02  0.9696206E+02  0.3467222E+01
  0.1876190E+01  0.1857643E+03  0.1734843E+03 -0.8981724E-03 -0.1597106E-02  0.9702522E+02  0.3855566E+01
  0.1907143E+01  0.1863463E+03  0.1897451E+03 -0.7145772E-03 -0.1180768E-02  0.9721237E+02  0.4271420E+01
  0.1938095E+01  0.1862915E+03  0.2066966E+03 -0.8443884E-03 -0.1789689E-02  0.9752606E+02  0.4756937E+01
  0.1969048E+01  0.1858186E+03  0.2242842E+03 -0.7059150E-03 -0.1325965E-02  0.9779273E+02  0.5269823E+01
  0.2000000E+01  0.1849546E+03  0.2424920E+03 -0.5953312E-03 -0.1368523E-02  0.9786831E+02  0.5797434E+01
