VARIABLES="w (rad/s)"
"abs(F   1   1)" "angle(F   1   1)"
"abs(F   1   2)" "angle(F   1   2)"
"abs(F   1   3)" "angle(F   1   3)"
Zone t="Diffraction force - beta =   0.000 deg",I=    64,F=POINT
  0.5000000E-01  0.1957374E+03 -0.1570806E+01  0.7748377E+05 -0.5303074E-05  0.1887450E+01 -0.1571390E+01
  0.8095238E-01  0.3193038E+03 -0.1570815E+01  0.7742164E+05 -0.1427943E-04  0.3076257E+01 -0.1571135E+01
  0.1119048E+00  0.4454978E+03 -0.1570793E+01  0.7733016E+05 -0.2839444E-04  0.4304789E+01 -0.1571012E+01
  0.1428571E+00  0.5770769E+03 -0.1570802E+01  0.7720916E+05 -0.4878038E-04  0.5585021E+01 -0.1570991E+01
  0.1738095E+00  0.7136144E+03 -0.1570807E+01  0.7705855E+05 -0.7715424E-04  0.6906608E+01 -0.1570932E+01
  0.2047619E+00  0.8592196E+03 -0.1570782E+01  0.7687813E+05 -0.1159635E-03  0.8323258E+01 -0.1570902E+01
  0.2357143E+00  0.1013172E+04 -0.1570791E+01  0.7666769E+05 -0.1689032E-03  0.9854854E+01 -0.1570896E+01
  0.2666667E+00  0.1179261E+04 -0.1570804E+01  0.7642673E+05 -0.2405744E-03  0.1146564E+02 -0.1570882E+01
  0.2976190E+00  0.1361647E+04 -0.1570796E+01  0.7615518E+05 -0.3385052E-03  0.1329298E+02 -0.1570865E+01
  0.3285715E+00  0.1559506E+04 -0.1570790E+01  0.7585262E+05 -0.4709394E-03  0.1528244E+02 -0.1570858E+01
  0.3595238E+00  0.1778079E+04 -0.1570795E+01  0.7551889E+05 -0.6503288E-03  0.1745992E+02 -0.1570841E+01
  0.3904762E+00  0.2022510E+04 -0.1570790E+01  0.7515417E+05 -0.8913762E-03  0.1991431E+02 -0.1570830E+01
  0.4214286E+00  0.2293285E+04 -0.1570782E+01  0.7475902E+05 -0.1204513E-02  0.2273236E+02 -0.1570823E+01
  0.4523810E+00  0.2590060E+04 -0.1570767E+01  0.7433332E+05 -0.1614399E-02  0.2577121E+02 -0.1570806E+01
  0.4833333E+00  0.2916533E+04 -0.1570756E+01  0.7387900E+05 -0.2114627E-02  0.2911366E+02 -0.1570786E+01
  0.5142857E+00  0.3275205E+04 -0.1570738E+01  0.7339620E+05 -0.2733854E-02  0.3288848E+02 -0.1570766E+01
  0.5452381E+00  0.3659502E+04 -0.1570712E+01  0.7288608E+05 -0.3468232E-02  0.3698603E+02 -0.1570739E+01
  0.5761905E+00  0.4065700E+04 -0.1570681E+01  0.7234848E+05 -0.4323409E-02  0.4136262E+02 -0.1570701E+01
  0.6071429E+00  0.4499031E+04 -0.1570637E+01  0.7178473E+05 -0.5325773E-02  0.4599693E+02 -0.1570658E+01
  0.6380953E+00  0.4957895E+04 -0.1570583E+01  0.7119517E+05 -0.6459279E-02  0.5112029E+02 -0.1570600E+01
  0.6690477E+00  0.5439618E+04 -0.1570517E+01  0.7058026E+05 -0.7751647E-02  0.5666745E+02 -0.1570529E+01
  0.7000000E+00  0.5936357E+04 -0.1570431E+01  0.6994200E+05 -0.9221246E-02  0.6203202E+02 -0.1570442E+01
  0.7309524E+00  0.6448905E+04 -0.1570323E+01  0.6927959E+05 -0.1086495E-01  0.6769646E+02 -0.1570334E+01
  0.7619048E+00  0.6987723E+04 -0.1570196E+01  0.6859398E+05 -0.1270338E-01  0.7407549E+02 -0.1570206E+01
  0.7928572E+00  0.7549957E+04 -0.1570041E+01  0.6788775E+05 -0.1475006E-01  0.8068432E+02 -0.1570051E+01
  0.8238096E+00  0.8131292E+04 -0.1569855E+01  0.6716230E+05 -0.1701535E-01  0.8764414E+02 -0.1569865E+01
  0.8547620E+00  0.8727303E+04 -0.1569631E+01  0.6641808E+05 -0.1950893E-01  0.9495264E+02 -0.1569641E+01
  0.8857143E+00  0.9336605E+04 -0.1569370E+01  0.6565457E+05 -0.2224176E-01  0.1022697E+03 -0.1569378E+01
  0.9166667E+00  0.9960888E+04 -0.1569063E+01  0.6487407E+05 -0.2522495E-01  0.1097748E+03 -0.1569069E+01
  0.9476191E+00  0.1060793E+05 -0.1568702E+01  0.6407896E+05 -0.2846908E-01  0.1178315E+03 -0.1568709E+01
  0.9785714E+00  0.1127447E+05 -0.1568287E+01  0.6327090E+05 -0.3198387E-01  0.1265737E+03 -0.1568291E+01
  0.1009524E+01  0.1196141E+05 -0.1567806E+01  0.6244956E+05 -0.3577717E-01  0.1358410E+03 -0.1567812E+01
  0.1040476E+01  0.1266468E+05 -0.1567256E+01  0.6161663E+05 -0.3985676E-01  0.1453367E+03 -0.1567261E+01
  0.1071429E+01  0.1337969E+05 -0.1566627E+01  0.6077386E+05 -0.4423133E-01  0.1549693E+03 -0.1566633E+01
  0.1102381E+01  0.1410244E+05 -0.1565915E+01  0.5992247E+05 -0.4890874E-01  0.1645645E+03 -0.1565919E+01
  0.1133333E+01  0.1483262E+05 -0.1565109E+01  0.5906312E+05 -0.5389572E-01  0.1745550E+03 -0.1565112E+01
  0.1164286E+01  0.1558209E+05 -0.1564204E+01  0.5819535E+05 -0.5919923E-01  0.1853613E+03 -0.1564207E+01
  0.1195238E+01  0.1635009E+05 -0.1563192E+01  0.5732185E+05 -0.6482520E-01  0.1965525E+03 -0.1563197E+01
  0.1226190E+01  0.1713403E+05 -0.1562065E+01  0.5644477E+05 -0.7077986E-01  0.2082027E+03 -0.1562072E+01
  0.1257143E+01  0.1792533E+05 -0.1560815E+01  0.5556758E+05 -0.7713224E-01  0.2200468E+03 -0.1560823E+01
  0.1288095E+01  0.1873772E+05 -0.1559432E+01  0.5468579E+05 -0.8369632E-01  0.2328104E+03 -0.1559439E+01
  0.1319048E+01  0.1955360E+05 -0.1557907E+01  0.5380428E+05 -0.9066495E-01  0.2459717E+03 -0.1557916E+01
  0.1350000E+01  0.2037760E+05 -0.1556234E+01  0.5292149E+05 -0.9797346E-01  0.2595461E+03 -0.1556241E+01
  0.1380952E+01  0.2120289E+05 -0.1554404E+01  0.5203773E+05 -0.1056229E+00  0.2726791E+03 -0.1554405E+01
  0.1411905E+01  0.2198673E+05 -0.1552477E+01  0.5116238E+05 -0.1135766E+00  0.2838050E+03 -0.1552472E+01
  0.1442857E+01  0.2281527E+05 -0.1550321E+01  0.5028340E+05 -0.1219323E+00  0.2975384E+03 -0.1550318E+01
  0.1473810E+01  0.2365211E+05 -0.1547994E+01  0.4940846E+05 -0.1306510E+00  0.3119276E+03 -0.1547996E+01
  0.1504762E+01  0.2449525E+05 -0.1545493E+01  0.4853769E+05 -0.1397305E+00  0.3271517E+03 -0.1545511E+01
  0.1535714E+01  0.2534591E+05 -0.1542814E+01  0.4767140E+05 -0.1491716E+00  0.3429785E+03 -0.1542843E+01
  0.1566667E+01  0.2619994E+05 -0.1539951E+01  0.4680997E+05 -0.1589699E+00  0.3592707E+03 -0.1539983E+01
  0.1597619E+01  0.2705241E+05 -0.1536902E+01  0.4595527E+05 -0.1691319E+00  0.3755486E+03 -0.1536937E+01
  0.1628572E+01  0.2790019E+05 -0.1533663E+01  0.4510764E+05 -0.1796550E+00  0.3921552E+03 -0.1533702E+01
  0.1659524E+01  0.2874104E+05 -0.1530233E+01  0.4426749E+05 -0.1905398E+00  0.4088995E+03 -0.1530275E+01
  0.1690476E+01  0.2957239E+05 -0.1526613E+01  0.4343532E+05 -0.2017895E+00  0.4259235E+03 -0.1526647E+01
  0.1721429E+01  0.3038490E+05 -0.1522804E+01  0.4261207E+05 -0.2134053E+00  0.4430228E+03 -0.1522815E+01
  0.1752381E+01  0.3118277E+05 -0.1518813E+01  0.4179530E+05 -0.2253822E+00  0.4601732E+03 -0.1518790E+01
  0.1783333E+01  0.3196449E+05 -0.1514648E+01  0.4098564E+05 -0.2377205E+00  0.4776114E+03 -0.1514587E+01
  0.1814286E+01  0.3273055E+05 -0.1510337E+01  0.4018356E+05 -0.2504218E+00  0.4953788E+03 -0.1510279E+01
  0.1845238E+01  0.3348222E+05 -0.1505901E+01  0.3939070E+05 -0.2635028E+00  0.5129218E+03 -0.1505838E+01
  0.1876190E+01  0.3421489E+05 -0.1501355E+01  0.3860805E+05 -0.2769538E+00  0.5307785E+03 -0.1501328E+01
  0.1907143E+01  0.3492472E+05 -0.1496715E+01  0.3783621E+05 -0.2907770E+00  0.5484551E+03 -0.1496743E+01
  0.1938095E+01  0.3561149E+05 -0.1492000E+01  0.3707410E+05 -0.3049637E+00  0.5663337E+03 -0.1492033E+01
  0.1969048E+01  0.3626736E+05 -0.1487225E+01  0.3632548E+05 -0.3195313E+00  0.5843734E+03 -0.1487232E+01
  0.2000000E+01  0.3689111E+05 -0.1482416E+01  0.3558653E+05 -0.3344586E+00  0.6023947E+03 -0.1482390E+01
