VARIABLES="w (rad/s)"
"abs(F   1   1)" "angle(F   1   1)"
"abs(F   1   2)" "angle(F   1   2)"
"abs(F   1   3)" "angle(F   1   3)"
Zone t="Diffraction force - beta =   0.000 deg",I=    64,F=POINT
  0.5000000E-01  0.1895427E+04 -0.1570786E+01  0.3222838E+06 -0.2221807E-04  0.7042343E+03  0.1570722E+01
  0.8095238E-01  0.3093036E+04 -0.1570803E+01  0.3218208E+06 -0.5979551E-04  0.1152208E+04  0.1570807E+01
  0.1119048E+00  0.4326002E+04 -0.1570783E+01  0.3211404E+06 -0.1188059E-03  0.1610781E+04  0.1570819E+01
  0.1428571E+00  0.5595250E+04 -0.1570796E+01  0.3202415E+06 -0.2038348E-03  0.2082939E+04  0.1570817E+01
  0.1738095E+00  0.6924340E+04 -0.1570786E+01  0.3191221E+06 -0.3218940E-03  0.2569670E+04  0.1570813E+01
  0.2047619E+00  0.8318009E+04 -0.1570786E+01  0.3177785E+06 -0.4829520E-03  0.3083311E+04  0.1570822E+01
  0.2357143E+00  0.9808574E+04 -0.1570782E+01  0.3162099E+06 -0.7019652E-03  0.3621224E+04  0.1570807E+01
  0.2666667E+00  0.1140910E+05 -0.1570774E+01  0.3144084E+06 -0.9972577E-03  0.4200466E+04  0.1570827E+01
  0.2976190E+00  0.1314340E+05 -0.1570762E+01  0.3123737E+06 -0.1399358E-02  0.4825838E+04  0.1570837E+01
  0.3285715E+00  0.1504826E+05 -0.1570743E+01  0.3101028E+06 -0.1940459E-02  0.5498720E+04  0.1570848E+01
  0.3595238E+00  0.1715148E+05 -0.1570717E+01  0.3075942E+06 -0.2670144E-02  0.6233270E+04  0.1570882E+01
  0.3904762E+00  0.1945768E+05 -0.1570676E+01  0.3048458E+06 -0.3646008E-02  0.7052277E+04  0.1570924E+01
  0.4214286E+00  0.2203004E+05 -0.1570616E+01  0.3018858E+06 -0.4904723E-02  0.7943100E+04  0.1570972E+01
  0.4523810E+00  0.2487306E+05 -0.1570526E+01  0.2987027E+06 -0.6544291E-02  0.8899253E+04  0.1571058E+01
  0.4833333E+00  0.2797910E+05 -0.1570403E+01  0.2953242E+06 -0.8528239E-02  0.9953292E+04  0.1571190E+01
  0.5142857E+00  0.3133269E+05 -0.1570232E+01  0.2917657E+06 -0.1096878E-01  0.1108756E+05  0.1571361E+01
  0.5452381E+00  0.3495618E+05 -0.1570000E+01  0.2880387E+06 -0.1383854E-01  0.1227195E+05  0.1571595E+01
  0.5761905E+00  0.3882076E+05 -0.1569699E+01  0.2841569E+06 -0.1715127E-01  0.1351369E+05  0.1571895E+01
  0.6071429E+00  0.4288832E+05 -0.1569305E+01  0.2801328E+06 -0.2100092E-01  0.1483259E+05  0.1572285E+01
  0.6380953E+00  0.4714306E+05 -0.1568810E+01  0.2759479E+06 -0.2530959E-01  0.1618183E+05  0.1572785E+01
  0.6690477E+00  0.5159629E+05 -0.1568189E+01  0.2716519E+06 -0.3017580E-01  0.1756634E+05  0.1573398E+01
  0.7000000E+00  0.5624763E+05 -0.1567420E+01  0.2672610E+06 -0.3565897E-01  0.1896949E+05  0.1574174E+01
  0.7309524E+00  0.6107015E+05 -0.1566481E+01  0.2627461E+06 -0.4172518E-01  0.2037154E+05  0.1575109E+01
  0.7619048E+00  0.6605789E+05 -0.1565345E+01  0.2581407E+06 -0.4843619E-01  0.2184527E+05  0.1576246E+01
  0.7928572E+00  0.7116852E+05 -0.1563982E+01  0.2534673E+06 -0.5583283E-01  0.2332088E+05  0.1577608E+01
  0.8238096E+00  0.7645436E+05 -0.1562363E+01  0.2487320E+06 -0.6393645E-01  0.2478367E+05  0.1579225E+01
  0.8547620E+00  0.8190663E+05 -0.1560458E+01  0.2439508E+06 -0.7276964E-01  0.2623983E+05  0.1581127E+01
  0.8857143E+00  0.8750327E+05 -0.1558231E+01  0.2391394E+06 -0.8235269E-01  0.2768862E+05  0.1583351E+01
  0.9166667E+00  0.9322696E+05 -0.1555647E+01  0.2342967E+06 -0.9270699E-01  0.2911900E+05  0.1585934E+01
  0.9476191E+00  0.9906705E+05 -0.1552672E+01  0.2294462E+06 -0.1038532E+00  0.3056718E+05  0.1588903E+01
  0.9785714E+00  0.1050062E+06 -0.1549273E+01  0.2245804E+06 -0.1158062E+00  0.3198710E+05  0.1592297E+01
  0.1009524E+01  0.1110605E+06 -0.1545414E+01  0.2197257E+06 -0.1285954E+00  0.3339422E+05  0.1596148E+01
  0.1040476E+01  0.1171642E+06 -0.1541063E+01  0.2148978E+06 -0.1422468E+00  0.3472004E+05  0.1600489E+01
  0.1071429E+01  0.1233886E+06 -0.1536193E+01  0.2101046E+06 -0.1567698E+00  0.3603107E+05  0.1605343E+01
  0.1102381E+01  0.1296411E+06 -0.1530772E+01  0.2053456E+06 -0.1721878E+00  0.3723657E+05  0.1610748E+01
  0.1133333E+01  0.1359584E+06 -0.1524787E+01  0.2006259E+06 -0.1885049E+00  0.3836479E+05  0.1616704E+01
  0.1164286E+01  0.1422805E+06 -0.1518205E+01  0.1959453E+06 -0.2057447E+00  0.3949676E+05  0.1623258E+01
  0.1195238E+01  0.1485257E+06 -0.1511020E+01  0.1913281E+06 -0.2239384E+00  0.4053711E+05  0.1630405E+01
  0.1226190E+01  0.1547356E+06 -0.1503235E+01  0.1867552E+06 -0.2430895E+00  0.4151379E+05  0.1638134E+01
  0.1257143E+01  0.1607771E+06 -0.1494851E+01  0.1822546E+06 -0.2634818E+00  0.4237920E+05  0.1646463E+01
  0.1288095E+01  0.1668420E+06 -0.1485933E+01  0.1778171E+06 -0.2844651E+00  0.4310107E+05  0.1655290E+01
  0.1319048E+01  0.1726991E+06 -0.1476490E+01  0.1734645E+06 -0.3067605E+00  0.4371560E+05  0.1664646E+01
  0.1350000E+01  0.1783604E+06 -0.1466562E+01  0.1692066E+06 -0.3301447E+00  0.4423292E+05  0.1674461E+01
  0.1380952E+01  0.1837550E+06 -0.1456202E+01  0.1650370E+06 -0.3546377E+00  0.4455626E+05  0.1684702E+01
  0.1411905E+01  0.1881786E+06 -0.1446557E+01  0.1611777E+06 -0.3785699E+00  0.4480847E+05  0.1694198E+01
  0.1442857E+01  0.1930230E+06 -0.1435693E+01  0.1571903E+06 -0.4052949E+00  0.4487448E+05  0.1704856E+01
  0.1473810E+01  0.1974684E+06 -0.1424661E+01  0.1533050E+06 -0.4332778E+00  0.4479705E+05  0.1715668E+01
  0.1504762E+01  0.2015275E+06 -0.1413611E+01  0.1495276E+06 -0.4625309E+00  0.4458549E+05  0.1726436E+01
  0.1535714E+01  0.2051842E+06 -0.1402659E+01  0.1458600E+06 -0.4931056E+00  0.4425170E+05  0.1737061E+01
  0.1566667E+01  0.2083572E+06 -0.1391923E+01  0.1423205E+06 -0.5250823E+00  0.4377736E+05  0.1747411E+01
  0.1597619E+01  0.2110169E+06 -0.1381580E+01  0.1389390E+06 -0.5585341E+00  0.4309307E+05  0.1757300E+01
  0.1628572E+01  0.2132323E+06 -0.1371795E+01  0.1356900E+06 -0.5934212E+00  0.4230901E+05  0.1766610E+01
  0.1659524E+01  0.2149927E+06 -0.1362745E+01  0.1326053E+06 -0.6297960E+00  0.4139270E+05  0.1775025E+01
  0.1690476E+01  0.2162119E+06 -0.1354484E+01  0.1297117E+06 -0.6677003E+00  0.4031792E+05  0.1782712E+01
  0.1721429E+01  0.2169781E+06 -0.1347260E+01  0.1269907E+06 -0.7070135E+00  0.3912985E+05  0.1789220E+01
  0.1752381E+01  0.2173014E+06 -0.1341171E+01  0.1244792E+06 -0.7477034E+00  0.3782776E+05  0.1794413E+01
  0.1783333E+01  0.2171973E+06 -0.1336250E+01  0.1221743E+06 -0.7897090E+00  0.3648442E+05  0.1798487E+01
  0.1814286E+01  0.2166727E+06 -0.1332665E+01  0.1200991E+06 -0.8329294E+00  0.3505625E+05  0.1801107E+01
  0.1845238E+01  0.2157349E+06 -0.1330473E+01  0.1182874E+06 -0.8771190E+00  0.3354343E+05  0.1802126E+01
  0.1876190E+01  0.2144931E+06 -0.1329777E+01  0.1167130E+06 -0.9221421E+00  0.3202886E+05  0.1801732E+01
  0.1907143E+01  0.2129642E+06 -0.1330648E+01  0.1153860E+06 -0.9676814E+00  0.3049739E+05  0.1799686E+01
  0.1938095E+01  0.2111137E+06 -0.1333105E+01  0.1143321E+06 -0.1013442E+01  0.2889962E+05  0.1795886E+01
  0.1969048E+01  0.2090381E+06 -0.1337214E+01  0.1135236E+06 -0.1059034E+01  0.2730011E+05  0.1790363E+01
  0.2000000E+01  0.2067671E+06 -0.1343015E+01  0.1129505E+06 -0.1104147E+01  0.2568626E+05  0.1782914E+01
