VARIABLES="w (rad/s)"
"abs(F   1   1)" "angle(F   1   1)"
"abs(F   1   2)" "angle(F   1   2)"
"abs(F   1   3)" "angle(F   1   3)"
Zone t="Diffraction force - beta =   0.000 deg",I=    64,F=POINT
  0.5000000E-01  0.4108649E+04 -0.1570804E+01  0.4660922E+06 -0.3389632E-04  0.2238279E+04  0.1570816E+01
  0.8095238E-01  0.6707730E+04 -0.1570794E+01  0.4651195E+06 -0.9116653E-04  0.3654246E+04  0.1570801E+01
  0.1119048E+00  0.9358771E+04 -0.1570792E+01  0.4636913E+06 -0.1809770E-03  0.5085679E+04  0.1570807E+01
  0.1428571E+00  0.1209868E+05 -0.1570786E+01  0.4618069E+06 -0.3102020E-03  0.6538739E+04  0.1570805E+01
  0.1738095E+00  0.1493877E+05 -0.1570779E+01  0.4594626E+06 -0.4891481E-03  0.8051295E+04  0.1570810E+01
  0.2047619E+00  0.1793285E+05 -0.1570776E+01  0.4566546E+06 -0.7327552E-03  0.9599695E+04  0.1570831E+01
  0.2357143E+00  0.2110628E+05 -0.1570763E+01  0.4533772E+06 -0.1063112E-02  0.1122965E+05  0.1570842E+01
  0.2666667E+00  0.2449322E+05 -0.1570742E+01  0.4496250E+06 -0.1506818E-02  0.1295431E+05  0.1570851E+01
  0.2976190E+00  0.2817616E+05 -0.1570716E+01  0.4453977E+06 -0.2109568E-02  0.1475035E+05  0.1570878E+01
  0.3285715E+00  0.3217736E+05 -0.1570675E+01  0.4406889E+06 -0.2916888E-02  0.1669155E+05  0.1570923E+01
  0.3595238E+00  0.3654945E+05 -0.1570616E+01  0.4355082E+06 -0.4002245E-02  0.1879455E+05  0.1570969E+01
  0.3904762E+00  0.4137282E+05 -0.1570528E+01  0.4298599E+06 -0.5446747E-02  0.2102412E+05  0.1571058E+01
  0.4214286E+00  0.4671179E+05 -0.1570401E+01  0.4237944E+06 -0.7302224E-02  0.2338758E+05  0.1571188E+01
  0.4523810E+00  0.5252527E+05 -0.1570211E+01  0.4172993E+06 -0.9710799E-02  0.2598644E+05  0.1571379E+01
  0.4833333E+00  0.5884680E+05 -0.1569952E+01  0.4104521E+06 -0.1260600E-01  0.2871477E+05  0.1571636E+01
  0.5142857E+00  0.6569031E+05 -0.1569592E+01  0.4032911E+06 -0.1615702E-01  0.3151386E+05  0.1571999E+01
  0.5452381E+00  0.7299457E+05 -0.1569118E+01  0.3958183E+06 -0.2030685E-01  0.3439888E+05  0.1572474E+01
  0.5761905E+00  0.8065978E+05 -0.1568503E+01  0.3880664E+06 -0.2506649E-01  0.3737835E+05  0.1573087E+01
  0.6071429E+00  0.8865895E+05 -0.1567715E+01  0.3800914E+06 -0.3057834E-01  0.4036621E+05  0.1573877E+01
  0.6380953E+00  0.9700806E+05 -0.1566741E+01  0.3718720E+06 -0.3671250E-01  0.4324336E+05  0.1574845E+01
  0.6690477E+00  0.1056615E+06 -0.1565542E+01  0.3634634E+06 -0.4360133E-01  0.4599970E+05  0.1576041E+01
  0.7000000E+00  0.1145052E+06 -0.1564080E+01  0.3549040E+06 -0.5132629E-01  0.4873543E+05  0.1577501E+01
  0.7309524E+00  0.1235263E+06 -0.1562335E+01  0.3461476E+06 -0.5982644E-01  0.5138643E+05  0.1579236E+01
  0.7619048E+00  0.1327078E+06 -0.1560268E+01  0.3372751E+06 -0.6919257E-01  0.5382763E+05  0.1581295E+01
  0.7928572E+00  0.1420534E+06 -0.1557851E+01  0.3283412E+06 -0.7947648E-01  0.5604073E+05  0.1583699E+01
  0.8238096E+00  0.1515122E+06 -0.1555052E+01  0.3193478E+06 -0.9070887E-01  0.5798003E+05  0.1586483E+01
  0.8547620E+00  0.1610297E+06 -0.1551847E+01  0.3102780E+06 -0.1028959E+00  0.5966821E+05  0.1589661E+01
  0.8857143E+00  0.1705427E+06 -0.1548211E+01  0.3011605E+06 -0.1160674E+00  0.6115305E+05  0.1593257E+01
  0.9166667E+00  0.1799849E+06 -0.1544129E+01  0.2920212E+06 -0.1302636E+00  0.6242345E+05  0.1597283E+01
  0.9476191E+00  0.1893133E+06 -0.1539599E+01  0.2829144E+06 -0.1455349E+00  0.6334502E+05  0.1601744E+01
  0.9785714E+00  0.1985193E+06 -0.1534634E+01  0.2738420E+06 -0.1619139E+00  0.6385377E+05  0.1606626E+01
  0.1009524E+01  0.2075530E+06 -0.1529250E+01  0.2648188E+06 -0.1794332E+00  0.6396781E+05  0.1611910E+01
  0.1040476E+01  0.2163330E+06 -0.1523475E+01  0.2558495E+06 -0.1981399E+00  0.6367279E+05  0.1617543E+01
  0.1071429E+01  0.2247530E+06 -0.1517342E+01  0.2469423E+06 -0.2180534E+00  0.6301997E+05  0.1623474E+01
  0.1102381E+01  0.2327713E+06 -0.1510912E+01  0.2380814E+06 -0.2392172E+00  0.6205684E+05  0.1629616E+01
  0.1133333E+01  0.2402726E+06 -0.1504259E+01  0.2292910E+06 -0.2616994E+00  0.6070145E+05  0.1635870E+01
  0.1164286E+01  0.2472228E+06 -0.1497486E+01  0.2205526E+06 -0.2855887E+00  0.5900179E+05  0.1642120E+01
  0.1195238E+01  0.2535464E+06 -0.1490726E+01  0.2119170E+06 -0.3110010E+00  0.5686710E+05  0.1648200E+01
  0.1226190E+01  0.2591938E+06 -0.1484105E+01  0.2033857E+06 -0.3380452E+00  0.5438173E+05  0.1653984E+01
  0.1257143E+01  0.2641018E+06 -0.1477708E+01  0.1950051E+06 -0.3670062E+00  0.5153752E+05  0.1659337E+01
  0.1288095E+01  0.2683018E+06 -0.1471915E+01  0.1866697E+06 -0.3975535E+00  0.4831258E+05  0.1663800E+01
  0.1319048E+01  0.2716616E+06 -0.1466661E+01  0.1784841E+06 -0.4303455E+00  0.4479897E+05  0.1667333E+01
  0.1350000E+01  0.2742187E+06 -0.1462215E+01  0.1703897E+06 -0.4654597E+00  0.4106183E+05  0.1669619E+01
  0.1380952E+01  0.2759483E+06 -0.1458759E+01  0.1624165E+06 -0.5031421E+00  0.3710778E+05  0.1670277E+01
  0.1411905E+01  0.2767062E+06 -0.1456688E+01  0.1545948E+06 -0.5417938E+00  0.3312481E+05  0.1669055E+01
  0.1442857E+01  0.2768221E+06 -0.1455649E+01  0.1469357E+06 -0.5856322E+00  0.2888691E+05  0.1665541E+01
  0.1473810E+01  0.2761836E+06 -0.1456121E+01  0.1394390E+06 -0.6334165E+00  0.2459094E+05  0.1659009E+01
  0.1504762E+01  0.2747935E+06 -0.1458239E+01  0.1321775E+06 -0.6856907E+00  0.2026678E+05  0.1648527E+01
  0.1535714E+01  0.2727271E+06 -0.1462155E+01  0.1251751E+06 -0.7430883E+00  0.1598261E+05  0.1632571E+01
  0.1566667E+01  0.2700212E+06 -0.1468015E+01  0.1184912E+06 -0.8064878E+00  0.1174788E+05  0.1607302E+01
  0.1597619E+01  0.2667571E+06 -0.1475925E+01  0.1122064E+06 -0.8765171E+00  0.7624525E+04  0.1562175E+01
  0.1628572E+01  0.2629925E+06 -0.1485965E+01  0.1064226E+06 -0.9539171E+00  0.3691461E+04  0.1446658E+01
  0.1659524E+01  0.2587747E+06 -0.1498230E+01  0.1012956E+06 -0.1039389E+01  0.7553810E+03 -0.2363476E+00
  0.1690476E+01  0.2542157E+06 -0.1512801E+01  0.9688546E+05 -0.1133248E+01  0.3907216E+04 -0.1350720E+01
  0.1721429E+01  0.2493408E+06 -0.1529754E+01  0.9336555E+05 -0.1234756E+01  0.7335975E+04 -0.1461053E+01
  0.1752381E+01  0.2442253E+06 -0.1549078E+01  0.9089324E+05 -0.1342054E+01  0.1056238E+05 -0.1518749E+01
  0.1783333E+01  0.2389409E+06 -0.1570829E+01  0.8952288E+05 -0.1453279E+01  0.1356014E+05 -0.1565731E+01
  0.1814286E+01  0.2335195E+06 -0.1595067E+01  0.8935140E+05 -0.1564695E+01  0.1638167E+05 -0.1609677E+01
  0.1845238E+01  0.2280401E+06 -0.1621752E+01  0.9032464E+05 -0.1672501E+01  0.1900349E+05 -0.1654024E+01
  0.1876190E+01  0.2225447E+06 -0.1650845E+01  0.9231015E+05 -0.1773474E+01  0.2140115E+05 -0.1701691E+01
  0.1907143E+01  0.2170631E+06 -0.1682350E+01  0.9511480E+05 -0.1865012E+01  0.2363029E+05 -0.1752072E+01
  0.1938095E+01  0.2116499E+06 -0.1716248E+01  0.9851077E+05 -0.1946569E+01  0.2569804E+05 -0.1805674E+01
  0.1969048E+01  0.2063165E+06 -0.1752577E+01  0.1022399E+06 -0.2017996E+01  0.2766548E+05 -0.1861391E+01
  0.2000000E+01  0.2011123E+06 -0.1791112E+01  0.1060547E+06 -0.2079643E+01  0.2948005E+05 -0.1922183E+01
