VARIABLES="w (rad/s)"
"abs(F   1   1)" "angle(F   1   1)"
"abs(F   1   2)" "angle(F   1   2)"
"abs(F   1   3)" "angle(F   1   3)"
Zone t="Diffraction force - beta =   0.000 deg",I=    64,F=POINT
  0.5000000E-01  0.2272479E+04 -0.1570795E+01  0.5128760E+06 -0.3623515E-04  0.3335512E+04 -0.1570796E+01
  0.8095238E-01  0.3705540E+04 -0.1570804E+01  0.5119300E+06 -0.9747907E-04  0.5429271E+04 -0.1570801E+01
  0.1119048E+00  0.5171689E+04 -0.1570792E+01  0.5105419E+06 -0.1935801E-03  0.7577755E+04 -0.1570792E+01
  0.1428571E+00  0.6684761E+04 -0.1570788E+01  0.5087093E+06 -0.3318769E-03  0.9801486E+04 -0.1570790E+01
  0.1738095E+00  0.8261461E+04 -0.1570779E+01  0.5064275E+06 -0.5236040E-03  0.1212428E+05 -0.1570791E+01
  0.2047619E+00  0.9919833E+04 -0.1570780E+01  0.5036877E+06 -0.7847244E-03  0.1457405E+05 -0.1570781E+01
  0.2357143E+00  0.1168315E+05 -0.1570776E+01  0.5004871E+06 -0.1139100E-02  0.1718879E+05 -0.1570777E+01
  0.2666667E+00  0.1357413E+05 -0.1570764E+01  0.4968101E+06 -0.1615758E-02  0.2000078E+05 -0.1570767E+01
  0.2976190E+00  0.1562090E+05 -0.1570751E+01  0.4926579E+06 -0.2263382E-02  0.2305410E+05 -0.1570754E+01
  0.3285715E+00  0.1785637E+05 -0.1570731E+01  0.4880184E+06 -0.3132234E-02  0.2640612E+05 -0.1570731E+01
  0.3595238E+00  0.2031097E+05 -0.1570699E+01  0.4828982E+06 -0.4300640E-02  0.3009457E+05 -0.1570698E+01
  0.3904762E+00  0.2301433E+05 -0.1570653E+01  0.4772872E+06 -0.5858285E-02  0.3417400E+05 -0.1570652E+01
  0.4214286E+00  0.2600077E+05 -0.1570581E+01  0.4712587E+06 -0.7859414E-02  0.3870656E+05 -0.1570581E+01
  0.4523810E+00  0.2927870E+05 -0.1570477E+01  0.4647864E+06 -0.1045758E-01  0.4369786E+05 -0.1570479E+01
  0.4833333E+00  0.3285303E+05 -0.1570338E+01  0.4579382E+06 -0.1358535E-01  0.4916470E+05 -0.1570338E+01
  0.5142857E+00  0.3670756E+05 -0.1570143E+01  0.4507611E+06 -0.1741924E-01  0.5508847E+05 -0.1570143E+01
  0.5452381E+00  0.4083169E+05 -0.1569887E+01  0.4432643E+06 -0.2190376E-01  0.6147803E+05 -0.1569887E+01
  0.5761905E+00  0.4518743E+05 -0.1569553E+01  0.4354890E+06 -0.2705257E-01  0.6825367E+05 -0.1569554E+01
  0.6071429E+00  0.4974374E+05 -0.1569128E+01  0.4274780E+06 -0.3301097E-01  0.7535898E+05 -0.1569128E+01
  0.6380953E+00  0.5449170E+05 -0.1568604E+01  0.4191837E+06 -0.3963894E-01  0.8283274E+05 -0.1568603E+01
  0.6690477E+00  0.5940995E+05 -0.1567960E+01  0.4107022E+06 -0.4708309E-01  0.9064099E+05 -0.1567959E+01
  0.7000000E+00  0.6447087E+05 -0.1567177E+01  0.4020680E+06 -0.5542842E-01  0.9874026E+05 -0.1567175E+01
  0.7309524E+00  0.6965654E+05 -0.1566246E+01  0.3932419E+06 -0.6460546E-01  0.1070693E+06 -0.1566244E+01
  0.7619048E+00  0.7494670E+05 -0.1565150E+01  0.3842799E+06 -0.7470326E-01  0.1156335E+06 -0.1565146E+01
  0.7928572E+00  0.8033046E+05 -0.1563873E+01  0.3752352E+06 -0.8577438E-01  0.1244220E+06 -0.1563869E+01
  0.8238096E+00  0.8578527E+05 -0.1562403E+01  0.3661216E+06 -0.9784222E-01  0.1334254E+06 -0.1562398E+01
  0.8547620E+00  0.9129887E+05 -0.1560736E+01  0.3569396E+06 -0.1109228E+00  0.1426240E+06 -0.1560727E+01
  0.8857143E+00  0.9684480E+05 -0.1558860E+01  0.3477187E+06 -0.1250341E+00  0.1519645E+06 -0.1558848E+01
  0.9166667E+00  0.1023917E+06 -0.1556777E+01  0.3384927E+06 -0.1402083E+00  0.1613492E+06 -0.1556761E+01
  0.9476191E+00  0.1079070E+06 -0.1554492E+01  0.3292844E+06 -0.1564716E+00  0.1707922E+06 -0.1554471E+01
  0.9785714E+00  0.1133797E+06 -0.1552020E+01  0.3200890E+06 -0.1738438E+00  0.1802645E+06 -0.1551993E+01
  0.1009524E+01  0.1187798E+06 -0.1549381E+01  0.3109384E+06 -0.1923601E+00  0.1897241E+06 -0.1549347E+01
  0.1040476E+01  0.1240703E+06 -0.1546604E+01  0.3018438E+06 -0.2120392E+00  0.1991126E+06 -0.1546561E+01
  0.1071429E+01  0.1292220E+06 -0.1543727E+01  0.2928198E+06 -0.2329099E+00  0.2083809E+06 -0.1543672E+01
  0.1102381E+01  0.1342060E+06 -0.1540801E+01  0.2838476E+06 -0.2549782E+00  0.2174751E+06 -0.1540730E+01
  0.1133333E+01  0.1389749E+06 -0.1537880E+01  0.2749613E+06 -0.2782927E+00  0.2263078E+06 -0.1537791E+01
  0.1164286E+01  0.1435102E+06 -0.1535041E+01  0.2661440E+06 -0.3028775E+00  0.2348272E+06 -0.1534930E+01
  0.1195238E+01  0.1477673E+06 -0.1532370E+01  0.2574094E+06 -0.3287870E+00  0.2429845E+06 -0.1532233E+01
  0.1226190E+01  0.1517217E+06 -0.1529958E+01  0.2487548E+06 -0.3561201E+00  0.2507030E+06 -0.1529792E+01
  0.1257143E+01  0.1553341E+06 -0.1527863E+01  0.2402135E+06 -0.3852433E+00  0.2579432E+06 -0.1527665E+01
  0.1288095E+01  0.1586028E+06 -0.1526357E+01  0.2317569E+06 -0.4153102E+00  0.2646774E+06 -0.1526127E+01
  0.1319048E+01  0.1614866E+06 -0.1525403E+01  0.2234092E+06 -0.4473450E+00  0.2708348E+06 -0.1525141E+01
  0.1350000E+01  0.1639821E+06 -0.1525191E+01  0.2151566E+06 -0.4811552E+00  0.2763840E+06 -0.1524899E+01
  0.1380952E+01  0.1660688E+06 -0.1525857E+01  0.2070060E+06 -0.5167990E+00  0.2813151E+06 -0.1525535E+01
  0.1411905E+01  0.1679755E+06 -0.1526998E+01  0.1992352E+06 -0.5498834E+00  0.2860572E+06 -0.1526652E+01
  0.1442857E+01  0.1692895E+06 -0.1529630E+01  0.1912936E+06 -0.5897685E+00  0.2897614E+06 -0.1529268E+01
  0.1473810E+01  0.1702072E+06 -0.1533514E+01  0.1834819E+06 -0.6322235E+00  0.2927905E+06 -0.1533151E+01
  0.1504762E+01  0.1707172E+06 -0.1538763E+01  0.1758129E+06 -0.6775419E+00  0.2951373E+06 -0.1538414E+01
  0.1535714E+01  0.1708478E+06 -0.1545484E+01  0.1683376E+06 -0.7260521E+00  0.2967983E+06 -0.1545184E+01
  0.1566667E+01  0.1706066E+06 -0.1553804E+01  0.1610668E+06 -0.7782705E+00  0.2978154E+06 -0.1553577E+01
  0.1597619E+01  0.1700246E+06 -0.1563828E+01  0.1540714E+06 -0.8344948E+00  0.2982151E+06 -0.1563713E+01
  0.1628572E+01  0.1691301E+06 -0.1575629E+01  0.1473663E+06 -0.8953159E+00  0.2980192E+06 -0.1575688E+01
  0.1659524E+01  0.1679376E+06 -0.1589288E+01  0.1410411E+06 -0.9611213E+00  0.2972825E+06 -0.1589591E+01
  0.1690476E+01  0.1664885E+06 -0.1604877E+01  0.1351232E+06 -0.1032294E+01  0.2960226E+06 -0.1605492E+01
  0.1721429E+01  0.1647957E+06 -0.1622455E+01  0.1297650E+06 -0.1109299E+01  0.2942947E+06 -0.1623458E+01
  0.1752381E+01  0.1629040E+06 -0.1642021E+01  0.1250791E+06 -0.1191976E+01  0.2921263E+06 -0.1643536E+01
  0.1783333E+01  0.1608439E+06 -0.1663654E+01  0.1211265E+06 -0.1280167E+01  0.2895888E+06 -0.1665827E+01
  0.1814286E+01  0.1586390E+06 -0.1687407E+01  0.1180310E+06 -0.1373143E+01  0.2867693E+06 -0.1690357E+01
  0.1845238E+01  0.1563254E+06 -0.1713289E+01  0.1158968E+06 -0.1469461E+01  0.2837139E+06 -0.1717175E+01
  0.1876190E+01  0.1539330E+06 -0.1741247E+01  0.1147833E+06 -0.1567304E+01  0.2804415E+06 -0.1746281E+01
  0.1907143E+01  0.1514789E+06 -0.1771285E+01  0.1146757E+06 -0.1664522E+01  0.2770140E+06 -0.1777678E+01
  0.1938095E+01  0.1489920E+06 -0.1803388E+01  0.1154975E+06 -0.1759513E+01  0.2734682E+06 -0.1811358E+01
  0.1969048E+01  0.1464865E+06 -0.1837544E+01  0.1171545E+06 -0.1850098E+01  0.2698536E+06 -0.1847314E+01
  0.2000000E+01  0.1439882E+06 -0.1873683E+01  0.1194833E+06 -0.1934871E+01  0.2662118E+06 -0.1885510E+01
