VARIABLES="w (rad/s)"
"A   1   1" "B   1   1"
"A   1   2" "B   1   2"
"A   1   3" "B   1   3"
Zone t="Motion of body    1 in DoF   1",I=    64,F=POINT
  0.5000000E-01  0.5449075E+05  0.4296709E-02  0.4196167E-03 -0.1454227E-05 -0.4700335E+05 -0.1218774E-02
  0.8095238E-01  0.5462757E+05  0.1879160E-01 -0.2356137E-03 -0.1228540E-04 -0.4691159E+05 -0.5158631E-02
  0.1119048E+00  0.5474164E+05  0.5275463E-01  0.1806705E-02  0.1880288E-04 -0.4705583E+05 -0.1442664E-01
  0.1428571E+00  0.5505514E+05  0.1190918E+00 -0.3765106E-02 -0.4609593E-04 -0.4729411E+05 -0.3287347E-01
  0.1738095E+00  0.5497724E+05  0.2372289E+00 -0.1272959E-02  0.4455447E-05 -0.4722947E+05 -0.6592438E-01
  0.2047619E+00  0.5525845E+05  0.4387357E+00  0.1043275E-02  0.1244852E-04 -0.4743325E+05 -0.1233573E+00
  0.2357143E+00  0.5524671E+05  0.7731868E+00 -0.2589370E-02 -0.2218969E-04 -0.4737494E+05 -0.2186545E+00
  0.2666667E+00  0.5547182E+05  0.1322329E+01 -0.6294250E-03 -0.1452677E-04 -0.4758023E+05 -0.3781060E+00
  0.2976190E+00  0.5571403E+05  0.2223467E+01 -0.2307129E-03 -0.1217723E-03 -0.4769757E+05 -0.6430608E+00
  0.3285715E+00  0.5575899E+05  0.3685087E+01  0.7337486E-02  0.3660582E-03 -0.4772990E+05 -0.1079085E+01
  0.3595238E+00  0.5598471E+05  0.6067467E+01  0.1740108E-02 -0.3375858E-04 -0.4780177E+05 -0.1799024E+01
  0.3904762E+00  0.5636163E+05  0.9929618E+01 -0.5060521E-02 -0.3215969E-03 -0.4809322E+05 -0.2995442E+01
  0.4214286E+00  0.5662647E+05  0.1602642E+02 -0.1303463E-02 -0.1857281E-03 -0.4816070E+05 -0.4903871E+01
  0.4523810E+00  0.5677648E+05  0.2562267E+02  0.1349198E-02  0.2188683E-03 -0.4829991E+05 -0.7970031E+01
  0.4833333E+00  0.5716022E+05  0.4001807E+02 -0.8523875E-03 -0.3648400E-03 -0.4859563E+05 -0.1269022E+02
  0.5142857E+00  0.5774559E+05  0.6155022E+02 -0.1424154E-02 -0.3224015E-03 -0.4891903E+05 -0.1987777E+02
  0.5452381E+00  0.5804150E+05  0.9227412E+02 -0.6968403E-02 -0.8811951E-03 -0.4908098E+05 -0.3034179E+02
  0.5761905E+00  0.5826049E+05  0.1350179E+03  0.3548614E-02  0.1263022E-02 -0.4907360E+05 -0.4509249E+02
  0.6071429E+00  0.5886505E+05  0.1943375E+03  0.1935173E-02  0.9536743E-05 -0.4957178E+05 -0.6632343E+02
  0.6380953E+00  0.5949270E+05  0.2736069E+03  0.1195651E-02 -0.1487732E-03 -0.4998747E+05 -0.9537730E+02
  0.6690477E+00  0.6007780E+05  0.3785605E+03 -0.4949060E-02 -0.6928444E-03 -0.5018408E+05 -0.1343083E+03
  0.7000000E+00  0.6060325E+05  0.5157908E+03 -0.6059919E-02 -0.3090382E-02 -0.5056833E+05 -0.1869669E+03
  0.7309524E+00  0.6103808E+05  0.6913671E+03 -0.2442400E-02 -0.1407623E-02 -0.5082961E+05 -0.2556411E+03
  0.7619048E+00  0.6179730E+05  0.9157175E+03 -0.1441955E-02  0.3738403E-03 -0.5124446E+05 -0.3449992E+03
  0.7928572E+00  0.6276315E+05  0.1199671E+04  0.1693588E-02  0.1182556E-03 -0.5190727E+05 -0.4621098E+03
  0.8238096E+00  0.6357039E+05  0.1552650E+04  0.2630156E-02  0.1207352E-02 -0.5236662E+05 -0.6104224E+03
  0.8547620E+00  0.6431769E+05  0.1987743E+04 -0.4284362E-02 -0.3393173E-02 -0.5290706E+05 -0.7996117E+03
  0.8857143E+00  0.6506016E+05  0.2519132E+04  0.9302939E-03  0.5302429E-03 -0.5320846E+05 -0.1031705E+04
  0.9166667E+00  0.6588270E+05  0.3163317E+04 -0.1564719E-02  0.1125336E-02 -0.5382971E+05 -0.1324020E+04
  0.9476191E+00  0.6677524E+05  0.3934188E+04  0.4315400E-02  0.3475189E-02 -0.5441636E+05 -0.1677374E+04
  0.9785714E+00  0.6781798E+05  0.4854126E+04  0.1029133E-02 -0.5569458E-03 -0.5519650E+05 -0.2113197E+04
  0.1009524E+01  0.6883820E+05  0.5941642E+04  0.8766607E-03 -0.6256104E-03 -0.5583626E+05 -0.2637156E+04
  0.1040476E+01  0.6986205E+05  0.7218961E+04 -0.4399559E-02 -0.7331848E-02 -0.5649273E+05 -0.3267414E+04
  0.1071429E+01  0.7078934E+05  0.8704181E+04 -0.3275553E-02 -0.4447937E-02 -0.5725754E+05 -0.4027119E+04
  0.1102381E+01  0.7156301E+05  0.1041222E+05  0.1107333E-02 -0.4554749E-02 -0.5783348E+05 -0.4914398E+04
  0.1133333E+01  0.7225352E+05  0.1236347E+05  0.5385455E-04  0.1541138E-02 -0.5849190E+05 -0.5962501E+04
  0.1164286E+01  0.7288713E+05  0.1456617E+05 -0.9436110E-03 -0.1373291E-02 -0.5898962E+05 -0.7150580E+04
  0.1195238E+01  0.7359255E+05  0.1703122E+05  0.3625634E-02  0.1251221E-02 -0.5951242E+05 -0.8483029E+04
  0.1226190E+01  0.7427190E+05  0.1978043E+05  0.2687917E-02 -0.2578735E-02 -0.6026915E+05 -0.1003541E+05
  0.1257143E+01  0.7462503E+05  0.2280337E+05  0.1456521E-02 -0.6881714E-02 -0.6072812E+05 -0.1177823E+05
  0.1288095E+01  0.7489488E+05  0.2610166E+05 -0.3316883E-03  0.3051758E-03 -0.6115041E+05 -0.1372654E+05
  0.1319048E+01  0.7489661E+05  0.2966652E+05 -0.9717149E-03 -0.7507324E-02 -0.6152637E+05 -0.1591672E+05
  0.1350000E+01  0.7469742E+05  0.3345660E+05  0.8138021E-03  0.2746582E-03 -0.6157294E+05 -0.1822055E+05
  0.1380952E+01  0.7440988E+05  0.3744568E+05  0.2033102E-02 -0.5950928E-02 -0.6162149E+05 -0.2067045E+05
  0.1411905E+01  0.7380975E+05  0.4160660E+05  0.1772387E-02 -0.1098633E-02 -0.6169116E+05 -0.2335772E+05
  0.1442857E+01  0.7300099E+05  0.4590010E+05 -0.2115080E-03 -0.7690430E-02 -0.6152635E+05 -0.2619456E+05
  0.1473810E+01  0.7192595E+05  0.5026895E+05 -0.1242396E-03  0.2014160E-02 -0.6112362E+05 -0.2912600E+05
  0.1504762E+01  0.7063052E+05  0.5468371E+05  0.2311996E-02  0.4455566E-02 -0.6067405E+05 -0.3222698E+05
  0.1535714E+01  0.6915644E+05  0.5904863E+05 -0.1112827E-02  0.1098633E-02 -0.6005865E+05 -0.3533177E+05
  0.1566667E+01  0.6752038E+05  0.6329657E+05 -0.3311482E-03 -0.3387451E-02 -0.5914346E+05 -0.3826838E+05
  0.1597619E+01  0.6573865E+05  0.6745795E+05  0.0000000E+00  0.6774902E-02 -0.5821352E+05 -0.4131719E+05
  0.1628572E+01  0.6382632E+05  0.7148373E+05  0.9369432E-03  0.2136230E-02 -0.5730877E+05 -0.4445549E+05
  0.1659524E+01  0.6171245E+05  0.7523877E+05  0.1838936E-03 -0.1281738E-02 -0.5615710E+05 -0.4742462E+05
  0.1690476E+01  0.5952761E+05  0.7871657E+05 -0.6318428E-03  0.6164551E-02 -0.5488619E+05 -0.5021747E+05
  0.1721429E+01  0.5729482E+05  0.8194332E+05 -0.7445783E-03 -0.6103516E-03 -0.5362440E+05 -0.5299620E+05
  0.1752381E+01  0.5500433E+05  0.8488816E+05  0.1706662E-02  0.2258301E-02 -0.5228675E+05 -0.5571303E+05
  0.1783333E+01  0.5270951E+05  0.8750816E+05  0.2241759E-02 -0.3479004E-02 -0.5080287E+05 -0.5805798E+05
  0.1814286E+01  0.5047515E+05  0.8981773E+05 -0.2439003E-03  0.2868652E-02 -0.4926338E+05 -0.6004913E+05
  0.1845238E+01  0.4833458E+05  0.9189480E+05 -0.3803869E-03  0.3356934E-02 -0.4788390E+05 -0.6208254E+05
  0.1876190E+01  0.4625032E+05  0.9373259E+05  0.3985100E-03  0.1403809E-02 -0.4657377E+05 -0.6412819E+05
  0.1907143E+01  0.4414798E+05  0.9522795E+05  0.6480700E-03  0.1892090E-02 -0.4514729E+05 -0.6587698E+05
  0.1938095E+01  0.4213554E+05  0.9647719E+05 -0.3227965E-03  0.6103516E-02 -0.4373803E+05 -0.6741041E+05
  0.1969048E+01  0.4019685E+05  0.9749007E+05 -0.7090632E-03  0.6652832E-02 -0.4234539E+05 -0.6880409E+05
  0.2000000E+01  0.3833613E+05  0.9829288E+05  0.1438141E-02 -0.3173828E-02 -0.4099418E+05 -0.7020084E+05
Zone t="Motion of body    1 in DoF   2",I=    64,F=POINT
  0.5000000E-01 -0.1144409E-03  0.3337860E-05  0.9634501E+05  0.1787486E+03  0.9155273E-02  0.2288818E-04
  0.8095238E-01 -0.1696418E-02  0.3337860E-05  0.9595535E+05  0.2962158E+03  0.3769818E-02 -0.2384186E-04
  0.1119048E+00 -0.1874883E-02 -0.5340576E-04  0.9546400E+05  0.4238519E+03  0.6545046E-02  0.6294250E-04
  0.1428571E+00  0.3471374E-02 -0.6294250E-04  0.9522230E+05  0.5664169E+03  0.3417969E-02  0.3433228E-04
  0.1738095E+00 -0.2194757E-03 -0.6103516E-04  0.9519871E+05  0.7297173E+03  0.0000000E+00  0.1792908E-03
  0.2047619E+00 -0.7079368E-03 -0.1716614E-04  0.9516844E+05  0.9213599E+03  0.5961573E-02 -0.1029968E-03
  0.2357143E+00 -0.1585989E-02  0.1525879E-03  0.9526173E+05  0.1151588E+04 -0.4142992E-02  0.1564026E-03
  0.2666667E+00 -0.2632141E-02  0.3623962E-04  0.9550916E+05  0.1428848E+04  0.9155273E-03  0.1831055E-03
  0.2976190E+00 -0.2153320E-02  0.3814697E-04  0.9566664E+05  0.1773018E+04  0.8203125E-03 -0.1525879E-03
  0.3285715E+00 -0.4086701E-02 -0.3814697E-05  0.9599209E+05  0.2193431E+04  0.6687329E-02 -0.4577637E-04
  0.3595238E+00 -0.2588941E-02 -0.1068115E-03  0.9616445E+05  0.2713528E+04  0.1358133E-01 -0.7629395E-04
  0.3904762E+00 -0.2500952E-02 -0.2288818E-04  0.9638975E+05  0.3349465E+04 -0.4064048E-02  0.3051758E-04
  0.4214286E+00  0.2172438E-03  0.1792908E-03  0.9644917E+05  0.4092630E+04  0.2201403E-01  0.9307861E-03
  0.4523810E+00  0.3710295E-03 -0.1220703E-03  0.9632659E+05  0.4982779E+04  0.1349198E-01  0.1022339E-02
  0.4833333E+00  0.3156991E-03 -0.1678467E-03  0.9622584E+05  0.5936889E+04  0.3788389E-02 -0.3051758E-04
  0.5142857E+00  0.4331801E-02 -0.2441406E-03  0.9559445E+05  0.7008034E+04  0.6408692E-02 -0.4577637E-03
  0.5452381E+00 -0.2350786E-02  0.2746582E-03  0.9509788E+05  0.8126722E+04  0.3582151E-02  0.1525879E-03
  0.5761905E+00  0.3124899E-02  0.4272461E-03  0.9430816E+05  0.9273426E+04  0.1016916E-01  0.1098633E-02
  0.6071429E+00  0.7036994E-03 -0.3814697E-03  0.9334423E+05  0.1048162E+05  0.1769301E-01 -0.3051758E-02
  0.6380953E+00  0.1673912E-02 -0.3051758E-03  0.9258510E+05  0.1165460E+05 -0.7652169E-03  0.3051758E-03
  0.6690477E+00  0.2599967E-02  0.4119873E-03  0.9142884E+05  0.1284211E+05  0.6203431E-02  0.1708984E-02
  0.7000000E+00  0.2485003E-02  0.1129150E-02  0.9024094E+05  0.1404313E+05  0.1395089E-02  0.5493164E-03
  0.7309524E+00  0.2505026E-03  0.2441406E-03  0.8922362E+05  0.1519607E+05  0.2672028E-02 -0.1220703E-02
  0.7619048E+00 -0.2563476E-02  0.9460449E-03  0.8801592E+05  0.1632726E+05  0.1922607E-02 -0.2441406E-03
  0.7928572E+00 -0.1116228E-02 -0.5798340E-03  0.8665905E+05  0.1743372E+05  0.7390202E-02  0.4089355E-02
  0.8238096E+00  0.5371446E-02  0.1373291E-02  0.8540988E+05  0.1848467E+05 -0.1155787E-01 -0.1464844E-02
  0.8547620E+00  0.4534283E-02  0.1831055E-03  0.8433323E+05  0.1946210E+05  0.7997476E-02  0.1220703E-02
  0.8857143E+00  0.3307712E-02 -0.1068115E-02  0.8289520E+05  0.2039717E+05  0.4961567E-02 -0.5004883E-02
  0.9166667E+00 -0.1664595E-02 -0.2014160E-02  0.8157356E+05  0.2126122E+05  0.5326705E-03  0.4150391E-02
  0.9476191E+00 -0.1610224E-03 -0.3356934E-03  0.8031591E+05  0.2203967E+05  0.1571579E-01  0.4882812E-02
  0.9785714E+00 -0.1684036E-02 -0.1220703E-03  0.7921493E+05  0.2271994E+05  0.7235116E-02 -0.1220703E-02
  0.1009524E+01  0.1058039E-02  0.3967285E-03  0.7797749E+05  0.2331859E+05  0.7980635E-02 -0.5615234E-02
  0.1040476E+01 -0.1437189E-02 -0.4028320E-02  0.7666113E+05  0.2383965E+05  0.9385726E-02  0.2807617E-02
  0.1071429E+01  0.2392578E-02 -0.3234863E-02  0.7547235E+05  0.2427028E+05  0.9114584E-02  0.1220703E-03
  0.1102381E+01  0.9135499E-03 -0.1770020E-02  0.7440573E+05  0.2459270E+05 -0.4207866E-02  0.1123047E-01
  0.1133333E+01  0.9424546E-03 -0.5493164E-03  0.7350626E+05  0.2480958E+05  0.9047564E-02 -0.7080078E-02
  0.1164286E+01  0.3394378E-02  0.2014160E-02  0.7247601E+05  0.2493806E+05  0.2516296E-02 -0.5493164E-02
  0.1195238E+01 -0.2004312E-02 -0.3234863E-02  0.7138933E+05  0.2498650E+05  0.4085221E-03  0.5249023E-02
  0.1226190E+01  0.1045301E-02 -0.1098633E-02  0.7045793E+05  0.2496542E+05  0.1194630E-02 -0.4638672E-02
  0.1257143E+01  0.1759963E-02 -0.9155273E-03  0.6962612E+05  0.2485861E+05 -0.1165217E-02  0.2319336E-02
  0.1288095E+01 -0.6752225E-03  0.1525879E-02  0.6894654E+05  0.2462543E+05  0.1705825E-02 -0.5249023E-02
  0.1319048E+01  0.7461382E-03  0.4272461E-03  0.6842819E+05  0.2432780E+05  0.5367568E-02  0.4028320E-02
  0.1350000E+01 -0.1124629E-02  0.1831055E-02  0.6764417E+05  0.2394418E+05  0.6329572E-02 -0.7202148E-02
  0.1380952E+01 -0.1174006E-02  0.2563477E-02  0.6694221E+05  0.2350202E+05  0.3712621E-02 -0.7324219E-02
  0.1411905E+01  0.7105758E-03 -0.4333496E-02  0.6636802E+05  0.2303605E+05  0.2420821E-02  0.6713867E-02
  0.1442857E+01  0.2259169E-02  0.1098633E-02  0.6589719E+05  0.2250322E+05  0.6260636E-02  0.3540039E-02
  0.1473810E+01 -0.6639052E-03 -0.2441406E-02  0.6553991E+05  0.2191476E+05  0.3810013E-02  0.1391602E-01
  0.1504762E+01 -0.1153463E-02 -0.5065918E-02  0.6532896E+05  0.2131746E+05  0.9734721E-03  0.6225586E-02
  0.1535714E+01 -0.7402286E-03  0.9155273E-03  0.6511622E+05  0.2065789E+05  0.6359011E-02 -0.2160645E-01
  0.1566667E+01 -0.1217457E-02 -0.1098633E-02  0.6471424E+05  0.1987419E+05  0.3584192E-02 -0.4882812E-03
  0.1597619E+01 -0.8213822E-03 -0.4455566E-02  0.6441886E+05  0.1910260E+05  0.8252026E-02  0.1733398E-01
  0.1628572E+01 -0.7776628E-03 -0.6103516E-02  0.6422605E+05  0.1837500E+05  0.1244260E-01  0.3601074E-02
  0.1659524E+01  0.2151555E-02  0.5249023E-02  0.6410498E+05  0.1762259E+05  0.5884594E-03 -0.6896973E-02
  0.1690476E+01 -0.2301713E-02  0.4882812E-03  0.6405484E+05  0.1685711E+05  0.7221060E-02 -0.3967285E-02
  0.1721429E+01 -0.5761618E-03  0.1342773E-02  0.6409845E+05  0.1615616E+05  0.1843718E-02 -0.7080078E-02
  0.1752381E+01  0.7401342E-03  0.4272461E-03  0.6421911E+05  0.1549096E+05  0.8219844E-02  0.6652832E-02
  0.1783333E+01  0.8128514E-03 -0.4272461E-03  0.6422159E+05  0.1467939E+05  0.4928446E-02 -0.1403809E-02
  0.1814286E+01  0.9251392E-03 -0.2441406E-03  0.6417260E+05  0.1375762E+05  0.7535679E-02  0.5737305E-02
  0.1845238E+01  0.3307712E-03  0.7934570E-03  0.6419746E+05  0.1294161E+05  0.5292339E-02 -0.2563477E-02
  0.1876190E+01  0.1626571E-04 -0.1647949E-02  0.6426587E+05  0.1221503E+05  0.3253143E-02 -0.1831055E-03
  0.1907143E+01  0.1600173E-03 -0.5493164E-03  0.6437830E+05  0.1150602E+05  0.2688290E-02  0.8483887E-02
  0.1938095E+01  0.4408928E-03  0.4638672E-02  0.6452667E+05  0.1082919E+05  0.7306223E-02 -0.4394531E-02
  0.1969048E+01 -0.1270889E-02  0.2502441E-02  0.6470640E+05  0.1021214E+05  0.8431265E-02 -0.0000000E+00
  0.2000000E+01 -0.3143311E-02 -0.2288818E-02  0.6490997E+05  0.9657616E+04  0.3540039E-02  0.7507324E-02
Zone t="Motion of body    1 in DoF   3",I=    64,F=POINT
  0.5000000E-01 -0.4743260E+05 -0.1237108E-02  0.2662659E-01  0.8653616E-04  0.1968755E+06  0.4285506E-03
  0.8095238E-01 -0.4714681E+05 -0.5240662E-02  0.4900764E-02  0.5204327E-04  0.1974244E+06  0.1514780E-02
  0.1119048E+00 -0.4732732E+05 -0.1460841E-01  0.1404458E-01  0.1196980E-03  0.1977535E+06  0.4125423E-02
  0.1428571E+00 -0.4759453E+05 -0.3327541E-01  0.3952026E-02  0.4670821E-04  0.1979720E+06  0.9079096E-02
  0.1738095E+00 -0.4744670E+05 -0.6694569E-01  0.4828466E-02  0.3603287E-04  0.1981578E+06  0.1831899E-01
  0.2047619E+00 -0.4772423E+05 -0.1249315E+00  0.2831747E-02  0.1061172E-04  0.1981565E+06  0.3574132E-01
  0.2357143E+00 -0.4763113E+05 -0.2218715E+00 -0.9321732E-02 -0.1255458E-03  0.1979846E+06  0.6320047E-01
  0.2666667E+00 -0.4783371E+05 -0.3826698E+00  0.2174377E-02  0.6410619E-04  0.1984301E+06  0.1087467E+00
  0.2976190E+00 -0.4800629E+05 -0.6503732E+00 -0.3281250E-02  0.1148880E-04  0.1982105E+06  0.1869995E+00
  0.3285715E+00 -0.4797557E+05 -0.1091607E+01 -0.7523246E-02 -0.4688576E-03  0.1984660E+06  0.3191299E+00
  0.3595238E+00 -0.4806863E+05 -0.1820778E+01  0.8233682E-02  0.4487950E-03  0.1981719E+06  0.5398178E+00
  0.3904762E+00 -0.4841111E+05 -0.3023261E+01 -0.8597025E-02 -0.3703311E-03  0.1985076E+06  0.9141753E+00
  0.4214286E+00 -0.4844754E+05 -0.4956322E+01  0.1737950E-02  0.3309250E-03  0.1984481E+06  0.1518346E+01
  0.4523810E+00 -0.4859571E+05 -0.8044005E+01  0.1180548E-01  0.1356818E-02  0.1984857E+06  0.2504198E+01
  0.4833333E+00 -0.4882107E+05 -0.1278097E+02 -0.4924905E-02 -0.2059042E-03  0.1992825E+06  0.4049617E+01
  0.5142857E+00 -0.4929184E+05 -0.1998562E+02  0.2248976E-01  0.2707481E-02  0.1988914E+06  0.6452092E+01
  0.5452381E+00 -0.4936865E+05 -0.3051213E+02  0.9850915E-02  0.1630753E-02  0.1993123E+06  0.1004053E+02
  0.5761905E+00 -0.4930591E+05 -0.4546847E+02  0.2775334E-01  0.2612352E-02  0.1988671E+06  0.1520295E+02
  0.6071429E+00 -0.4989857E+05 -0.6658896E+02 -0.7338579E-02 -0.2357364E-03  0.1992389E+06  0.2271313E+02
  0.6380953E+00 -0.5024379E+05 -0.9559429E+02  0.3921736E-02  0.1699805E-02  0.2001521E+06  0.3330684E+02
  0.6690477E+00 -0.5048574E+05 -0.1348806E+03  0.2125587E-01  0.4786372E-02  0.1995768E+06  0.4791063E+02
  0.7000000E+00 -0.5088939E+05 -0.1873641E+03  0.1979283E-01  0.5292177E-02  0.1998479E+06  0.6810975E+02
  0.7309524E+00 -0.5101731E+05 -0.2561886E+03  0.7097573E-02  0.3973246E-02  0.2003966E+06  0.9490346E+02
  0.7619048E+00 -0.5145366E+05 -0.3456289E+03  0.7209777E-03  0.9646416E-03  0.2004306E+06  0.1297633E+03
  0.7928572E+00 -0.5222977E+05 -0.4614308E+03 -0.2317136E-01 -0.8256912E-02  0.2006878E+06  0.1773083E+03
  0.8238096E+00 -0.5267830E+05 -0.6095737E+03 -0.1652183E-01 -0.7239342E-02  0.2009408E+06  0.2395607E+03
  0.8547620E+00 -0.5309790E+05 -0.7979479E+03  0.1870838E-01  0.6594658E-02  0.2020975E+06  0.3220179E+03
  0.8857143E+00 -0.5340842E+05 -0.1031906E+04  0.6822155E-02 -0.1743317E-02  0.2014355E+06  0.4241276E+03
  0.9166667E+00 -0.5404296E+05 -0.1320805E+04  0.5726207E-02  0.1531601E-02  0.2018340E+06  0.5546184E+03
  0.9476191E+00 -0.5462381E+05 -0.1671309E+04  0.5861215E-02  0.5014420E-02  0.2021716E+06  0.7106132E+03
  0.9785714E+00 -0.5535738E+05 -0.2101181E+04  0.7048002E-02  0.2325058E-02  0.2032980E+06  0.9111807E+03
  0.1009524E+01 -0.5600325E+05 -0.2622832E+04  0.7799257E-02 -0.4119873E-03  0.2035903E+06  0.1160635E+04
  0.1040476E+01 -0.5672097E+05 -0.3250086E+04  0.2041396E-01  0.1590729E-01  0.2035342E+06  0.1469989E+04
  0.1071429E+01 -0.5748982E+05 -0.3998660E+04  0.6551107E-02  0.3143311E-02  0.2041682E+06  0.1856007E+04
  0.1102381E+01 -0.5799459E+05 -0.4883253E+04 -0.2768333E-02 -0.9231567E-03  0.2045878E+06  0.2316587E+04
  0.1133333E+01 -0.5851748E+05 -0.5922049E+04  0.6462546E-02  0.4215240E-02  0.2057083E+06  0.2878895E+04
  0.1164286E+01 -0.5896812E+05 -0.7106278E+04  0.1205725E-01  0.6301880E-02  0.2058528E+06  0.3508332E+04
  0.1195238E+01 -0.5956220E+05 -0.8434007E+04 -0.2451133E-02 -0.2365112E-03  0.2056050E+06  0.4192222E+04
  0.1226190E+01 -0.6037374E+05 -0.9949974E+04  0.1363869E-01  0.1310730E-01  0.2063234E+06  0.5031346E+04
  0.1257143E+01 -0.6080875E+05 -0.1167187E+05  0.2330433E-02  0.6507874E-02  0.2067435E+06  0.6019220E+04
  0.1288095E+01 -0.6116958E+05 -0.1361030E+05 -0.1137217E-02 -0.4989624E-02  0.2073827E+06  0.7158398E+04
  0.1319048E+01 -0.6143551E+05 -0.1577949E+05  0.2035974E-02  0.1165771E-01  0.2085364E+06  0.8510724E+04
  0.1350000E+01 -0.6148575E+05 -0.1807828E+05 -0.1446759E-02 -0.6912231E-02  0.2080698E+06  0.9868059E+04
  0.1380952E+01 -0.6159648E+05 -0.2051533E+05 -0.3447434E-02 -0.2746582E-03  0.2077571E+06  0.1128572E+05
  0.1411905E+01 -0.6169024E+05 -0.2315393E+05  0.3890605E-02  0.9231567E-02  0.2081744E+06  0.1296045E+05
  0.1442857E+01 -0.6150274E+05 -0.2593786E+05  0.8967938E-02  0.3494263E-02  0.2083012E+06  0.1478415E+05
  0.1473810E+01 -0.6105266E+05 -0.2884952E+05  0.2484791E-02  0.6866455E-03  0.2082947E+06  0.1670850E+05
  0.1504762E+01 -0.6053540E+05 -0.3190746E+05 -0.5354097E-02  0.1049805E-01  0.2087816E+06  0.1887862E+05
  0.1535714E+01 -0.5988257E+05 -0.3497954E+05  0.1120776E-01  0.4821777E-02  0.2089453E+06  0.2104605E+05
  0.1566667E+01 -0.5901559E+05 -0.3791382E+05  0.3428358E-02 -0.4394531E-02  0.2077180E+06  0.2285529E+05
  0.1597619E+01 -0.5812764E+05 -0.4092607E+05  0.1146115E-02  0.9735107E-02  0.2069651E+06  0.2494738E+05
  0.1628572E+01 -0.5727518E+05 -0.4395239E+05  0.8395011E-02 -0.6042480E-02  0.2067419E+06  0.2727556E+05
  0.1659524E+01 -0.5612154E+05 -0.4684930E+05  0.5075463E-02  0.1644897E-01  0.2061796E+06  0.2948661E+05
  0.1690476E+01 -0.5483313E+05 -0.4960578E+05  0.8232009E-02 -0.5279541E-02  0.2054855E+06  0.3157492E+05
  0.1721429E+01 -0.5355052E+05 -0.5232529E+05  0.2694664E-02 -0.2319336E-02  0.2052685E+06  0.3394113E+05
  0.1752381E+01 -0.5217006E+05 -0.5498764E+05  0.1010066E-01 -0.8361816E-02  0.2051820E+06  0.3650821E+05
  0.1783333E+01 -0.5068008E+05 -0.5729489E+05  0.2327322E-02  0.9552002E-02  0.2040614E+06  0.3834057E+05
  0.1814286E+01 -0.4916660E+05 -0.5928312E+05  0.1083254E-01 -0.7537842E-02  0.2022593E+06  0.3946233E+05
  0.1845238E+01 -0.4785241E+05 -0.6128300E+05  0.4630796E-03  0.5706787E-02  0.2012363E+06  0.4108616E+05
  0.1876190E+01 -0.4664574E+05 -0.6321624E+05 -0.1951886E-02  0.6652832E-02  0.2006001E+06  0.4306991E+05
  0.1907143E+01 -0.4524908E+05 -0.6488036E+05 -0.1280138E-02 -0.9490967E-02  0.1997142E+06  0.4477268E+05
  0.1938095E+01 -0.4384635E+05 -0.6636426E+05  0.1889540E-02  0.3540039E-02  0.1987956E+06  0.4626369E+05
  0.1969048E+01 -0.4243270E+05 -0.6773474E+05  0.1983827E-02 -0.4638672E-02  0.1980067E+06  0.4786657E+05
  0.2000000E+01 -0.4106666E+05 -0.6908675E+05 -0.6103516E-03  0.1434326E-02  0.1975227E+06  0.5000986E+05
