VARIABLES="w (rad/s)"
"abs(F   1   1)" "angle(F   1   1)"
"abs(F   1   2)" "angle(F   1   2)"
"abs(F   1   3)" "angle(F   1   3)"
Zone t="Diffraction force - beta =   0.000 deg",I=    64,F=POINT
  0.5000000E-01  0.5990938E+04 -0.1570783E+01  0.6746532E+06 -0.4602147E-04  0.5735998E+04  0.1570791E+01
  0.8095238E-01  0.9772710E+04 -0.1570797E+01  0.6731103E+06 -0.1237442E-03  0.9342567E+04  0.1570794E+01
  0.1119048E+00  0.1362813E+05 -0.1570791E+01  0.6708454E+06 -0.2455373E-03  0.1299484E+05  0.1570792E+01
  0.1428571E+00  0.1760818E+05 -0.1570785E+01  0.6678611E+06 -0.4206026E-03  0.1673056E+05  0.1570800E+01
  0.1738095E+00  0.2174125E+05 -0.1570777E+01  0.6641498E+06 -0.6627220E-03  0.2057441E+05  0.1570821E+01
  0.2047619E+00  0.2609398E+05 -0.1570762E+01  0.6597042E+06 -0.9918502E-03  0.2455683E+05  0.1570822E+01
  0.2357143E+00  0.3067707E+05 -0.1570747E+01  0.6545161E+06 -0.1437479E-02  0.2872027E+05  0.1570843E+01
  0.2666667E+00  0.3560586E+05 -0.1570724E+01  0.6485861E+06 -0.2034758E-02  0.3310224E+05  0.1570866E+01
  0.2976190E+00  0.4092706E+05 -0.1570690E+01  0.6419018E+06 -0.2844582E-02  0.3774064E+05  0.1570902E+01
  0.3285715E+00  0.4669695E+05 -0.1570636E+01  0.6344507E+06 -0.3926232E-02  0.4270512E+05  0.1570960E+01
  0.3595238E+00  0.5303243E+05 -0.1570556E+01  0.6262893E+06 -0.5377350E-02  0.4800783E+05  0.1571033E+01
  0.3904762E+00  0.6001854E+05 -0.1570438E+01  0.6173975E+06 -0.7302199E-02  0.5373770E+05  0.1571152E+01
  0.4214286E+00  0.6764322E+05 -0.1570268E+01  0.6078815E+06 -0.9766041E-02  0.5993949E+05  0.1571321E+01
  0.4523810E+00  0.7600634E+05 -0.1570023E+01  0.5977335E+06 -0.1295388E-01  0.6647885E+05  0.1571572E+01
  0.4833333E+00  0.8512285E+05 -0.1569681E+01  0.5871379E+06 -0.1677315E-01  0.7343009E+05  0.1571909E+01
  0.5142857E+00  0.9493920E+05 -0.1569212E+01  0.5761014E+06 -0.2143573E-01  0.8072230E+05  0.1572381E+01
  0.5452381E+00  0.1053132E+06 -0.1568592E+01  0.5646385E+06 -0.2685670E-01  0.8829527E+05  0.1573001E+01
  0.5761905E+00  0.1162429E+06 -0.1567795E+01  0.5528771E+06 -0.3304845E-01  0.9589550E+05  0.1573799E+01
  0.6071429E+00  0.1277382E+06 -0.1566777E+01  0.5409046E+06 -0.4018256E-01  0.1034443E+06  0.1574815E+01
  0.6380953E+00  0.1396275E+06 -0.1565522E+01  0.5286471E+06 -0.4807890E-01  0.1110311E+06  0.1576072E+01
  0.6690477E+00  0.1518011E+06 -0.1563985E+01  0.5161848E+06 -0.5688670E-01  0.1185297E+06  0.1577607E+01
  0.7000000E+00  0.1642309E+06 -0.1562122E+01  0.5035938E+06 -0.6671211E-01  0.1256547E+06  0.1579472E+01
  0.7309524E+00  0.1769555E+06 -0.1559915E+01  0.4908911E+06 -0.7747447E-01  0.1324775E+06  0.1581679E+01
  0.7619048E+00  0.1899117E+06 -0.1557318E+01  0.4781807E+06 -0.8925719E-01  0.1389176E+06  0.1584279E+01
  0.7928572E+00  0.2030164E+06 -0.1554297E+01  0.4654942E+06 -0.1020990E+00  0.1448989E+06  0.1587305E+01
  0.8238096E+00  0.2161651E+06 -0.1550822E+01  0.4528010E+06 -0.1160009E+00  0.1504659E+06  0.1590781E+01
  0.8547620E+00  0.2291530E+06 -0.1546867E+01  0.4401328E+06 -0.1309869E+00  0.1554813E+06  0.1594730E+01
  0.8857143E+00  0.2421342E+06 -0.1542431E+01  0.4275432E+06 -0.1470779E+00  0.1598378E+06  0.1599163E+01
  0.9166667E+00  0.2549829E+06 -0.1537517E+01  0.4151094E+06 -0.1643125E+00  0.1632909E+06  0.1604090E+01
  0.9476191E+00  0.2676972E+06 -0.1532133E+01  0.4028963E+06 -0.1826849E+00  0.1660949E+06  0.1609495E+01
  0.9785714E+00  0.2800282E+06 -0.1526290E+01  0.3909173E+06 -0.2021985E+00  0.1681528E+06  0.1615366E+01
  0.1009524E+01  0.2919352E+06 -0.1520026E+01  0.3791207E+06 -0.2228225E+00  0.1694242E+06  0.1621647E+01
  0.1040476E+01  0.3032668E+06 -0.1513395E+01  0.3675066E+06 -0.2445599E+00  0.1698177E+06  0.1628262E+01
  0.1071429E+01  0.3139258E+06 -0.1506479E+01  0.3560795E+06 -0.2674209E+00  0.1693010E+06  0.1635122E+01
  0.1102381E+01  0.3238488E+06 -0.1499398E+01  0.3448794E+06 -0.2914470E+00  0.1678858E+06  0.1642139E+01
  0.1133333E+01  0.3328860E+06 -0.1492270E+01  0.3340001E+06 -0.3166767E+00  0.1654613E+06  0.1649215E+01
  0.1164286E+01  0.3410776E+06 -0.1485239E+01  0.3233687E+06 -0.3430663E+00  0.1621772E+06  0.1656222E+01
  0.1195238E+01  0.3482920E+06 -0.1478455E+01  0.3130497E+06 -0.3706060E+00  0.1580179E+06  0.1662958E+01
  0.1226190E+01  0.3544488E+06 -0.1472084E+01  0.3029858E+06 -0.3992583E+00  0.1530008E+06  0.1669246E+01
  0.1257143E+01  0.3595054E+06 -0.1466248E+01  0.2932085E+06 -0.4292004E+00  0.1472627E+06  0.1674960E+01
  0.1288095E+01  0.3634176E+06 -0.1461366E+01  0.2836817E+06 -0.4599340E+00  0.1408663E+06  0.1679785E+01
  0.1319048E+01  0.3661050E+06 -0.1457399E+01  0.2744956E+06 -0.4920149E+00  0.1336102E+06  0.1683591E+01
  0.1350000E+01  0.3677181E+06 -0.1454609E+01  0.2655424E+06 -0.5252320E+00  0.1259662E+06  0.1686300E+01
  0.1380952E+01  0.3682026E+06 -0.1453191E+01  0.2568440E+06 -0.5594827E+00  0.1177853E+06  0.1687535E+01
  0.1411905E+01  0.3669482E+06 -0.1454381E+01  0.2492582E+06 -0.5898999E+00  0.1094590E+06  0.1686191E+01
  0.1442857E+01  0.3654404E+06 -0.1456099E+01  0.2411088E+06 -0.6260435E+00  0.1006295E+06  0.1684192E+01
  0.1473810E+01  0.3629985E+06 -0.1459584E+01  0.2332355E+06 -0.6633865E+00  0.9173045E+05  0.1680523E+01
  0.1504762E+01  0.3596616E+06 -0.1464987E+01  0.2256685E+06 -0.7018511E+00  0.8267902E+05  0.1674758E+01
  0.1535714E+01  0.3555558E+06 -0.1472398E+01  0.2183602E+06 -0.7414185E+00  0.7362672E+05  0.1666956E+01
  0.1566667E+01  0.3508135E+06 -0.1481895E+01  0.2112633E+06 -0.7821012E+00  0.6471640E+05  0.1657149E+01
  0.1597619E+01  0.3454547E+06 -0.1493554E+01  0.2044095E+06 -0.8237702E+00  0.5587231E+05  0.1644892E+01
  0.1628572E+01  0.3396052E+06 -0.1507387E+01  0.1977391E+06 -0.8664773E+00  0.4727022E+05  0.1630629E+01
  0.1659524E+01  0.3333365E+06 -0.1523454E+01  0.1912637E+06 -0.9101712E+00  0.3887257E+05  0.1613537E+01
  0.1690476E+01  0.3267454E+06 -0.1541713E+01  0.1850102E+06 -0.9551249E+00  0.3080226E+05  0.1594297E+01
  0.1721429E+01  0.3198846E+06 -0.1562147E+01  0.1790106E+06 -0.1001336E+01  0.2308211E+05  0.1573457E+01
  0.1752381E+01  0.3128062E+06 -0.1584777E+01  0.1732694E+06 -0.1048509E+01  0.1566347E+05  0.1549059E+01
  0.1783333E+01  0.3056184E+06 -0.1609552E+01  0.1677284E+06 -0.1097002E+01  0.8641154E+04  0.1523877E+01
  0.1814286E+01  0.2983539E+06 -0.1636475E+01  0.1623510E+06 -0.1146598E+01  0.1932568E+04  0.1484845E+01
  0.1845238E+01  0.2910354E+06 -0.1665462E+01  0.1571576E+06 -0.1197134E+01  0.4371975E+04 -0.1670985E+01
  0.1876190E+01  0.2837112E+06 -0.1696460E+01  0.1520956E+06 -0.1248835E+01  0.1027109E+05 -0.1707501E+01
  0.1907143E+01  0.2764122E+06 -0.1729508E+01  0.1471610E+06 -0.1301681E+01  0.1585506E+05 -0.1742001E+01
  0.1938095E+01  0.2691759E+06 -0.1764599E+01  0.1423727E+06 -0.1355872E+01  0.2117157E+05 -0.1775921E+01
  0.1969048E+01  0.2620679E+06 -0.1801511E+01  0.1378372E+06 -0.1411473E+01  0.2610200E+05 -0.1814313E+01
  0.2000000E+01  0.2550512E+06 -0.1840250E+01  0.1334198E+06 -0.1468170E+01  0.3067021E+05 -0.1855219E+01
