VARIABLES="w (rad/s)"
"abs(F   1   1)" "angle(F   1   1)"
"abs(F   1   2)" "angle(F   1   2)"
"abs(F   1   3)" "angle(F   1   3)"
Zone t="Diffraction force - beta =   0.000 deg",I=    64,F=POINT
  0.5000000E-01  0.4390060E+04 -0.1570790E+01  0.2801076E+06 -0.1902658E-04  0.9405365E+04  0.1570797E+01
  0.8095238E-01  0.7176201E+04 -0.1570801E+01  0.2793007E+06 -0.5113035E-04  0.1537987E+05  0.1570796E+01
  0.1119048E+00  0.1001872E+05 -0.1570794E+01  0.2781153E+06 -0.1013645E-03  0.2146685E+05  0.1570804E+01
  0.1428571E+00  0.1295812E+05 -0.1570788E+01  0.2765523E+06 -0.1734843E-03  0.2775293E+05  0.1570808E+01
  0.1738095E+00  0.1602257E+05 -0.1570781E+01  0.2746114E+06 -0.2729163E-03  0.3428819E+05  0.1570811E+01
  0.2047619E+00  0.1924155E+05 -0.1570773E+01  0.2722995E+06 -0.4078984E-03  0.4115772E+05  0.1570819E+01
  0.2357143E+00  0.2267054E+05 -0.1570761E+01  0.2696140E+06 -0.5901747E-03  0.4846149E+05  0.1570833E+01
  0.2666667E+00  0.2635072E+05 -0.1570745E+01  0.2665581E+06 -0.8335038E-03  0.5627344E+05  0.1570848E+01
  0.2976190E+00  0.3032849E+05 -0.1570718E+01  0.2631456E+06 -0.1162967E-02  0.6472069E+05  0.1570875E+01
  0.3285715E+00  0.3469624E+05 -0.1570678E+01  0.2593725E+06 -0.1601232E-02  0.7396448E+05  0.1570915E+01
  0.3595238E+00  0.3948606E+05 -0.1570617E+01  0.2552665E+06 -0.2187879E-02  0.8405191E+05  0.1570974E+01
  0.3904762E+00  0.4476920E+05 -0.1570530E+01  0.2508330E+06 -0.2963268E-02  0.9517659E+05  0.1571064E+01
  0.4214286E+00  0.5061127E+05 -0.1570398E+01  0.2460997E+06 -0.3952247E-02  0.1074756E+06  0.1571194E+01
  0.4523810E+00  0.5705347E+05 -0.1570207E+01  0.2411078E+06 -0.5234664E-02  0.1209861E+06  0.1571385E+01
  0.4833333E+00  0.6411931E+05 -0.1569941E+01  0.2358335E+06 -0.6755746E-02  0.1357065E+06  0.1571651E+01
  0.5142857E+00  0.7172043E+05 -0.1569570E+01  0.2304145E+06 -0.8616819E-02  0.1515693E+06  0.1572023E+01
  0.5452381E+00  0.7990910E+05 -0.1569073E+01  0.2247504E+06 -0.1077378E-01  0.1686050E+06  0.1572520E+01
  0.5761905E+00  0.8856319E+05 -0.1568425E+01  0.2189401E+06 -0.1322358E-01  0.1864966E+06  0.1573167E+01
  0.6071429E+00  0.9773423E+05 -0.1567583E+01  0.2130146E+06 -0.1605948E-01  0.2053179E+06  0.1574010E+01
  0.6380953E+00  0.1073576E+06 -0.1566527E+01  0.2068793E+06 -0.1916777E-01  0.2250706E+06  0.1575066E+01
  0.6690477E+00  0.1172798E+06 -0.1565209E+01  0.2007138E+06 -0.2264000E-01  0.2453676E+06  0.1576383E+01
  0.7000000E+00  0.1276321E+06 -0.1563579E+01  0.1944749E+06 -0.2652616E-01  0.2664832E+06  0.1578014E+01
  0.7309524E+00  0.1384694E+06 -0.1561598E+01  0.1880926E+06 -0.3076068E-01  0.2883035E+06  0.1579995E+01
  0.7619048E+00  0.1495277E+06 -0.1559206E+01  0.1817022E+06 -0.3538851E-01  0.3103521E+06  0.1582387E+01
  0.7928572E+00  0.1609660E+06 -0.1556342E+01  0.1753391E+06 -0.4045548E-01  0.3332351E+06  0.1585251E+01
  0.8238096E+00  0.1726626E+06 -0.1552948E+01  0.1689238E+06 -0.4595858E-01  0.3564096E+06  0.1588646E+01
  0.8547620E+00  0.1847176E+06 -0.1548962E+01  0.1624405E+06 -0.5191200E-01  0.3802763E+06  0.1592632E+01
  0.8857143E+00  0.1969264E+06 -0.1544316E+01  0.1561153E+06 -0.5828393E-01  0.4041322E+06  0.1597278E+01
  0.9166667E+00  0.2095521E+06 -0.1538934E+01  0.1498256E+06 -0.6514858E-01  0.4286051E+06  0.1602660E+01
  0.9476191E+00  0.2223382E+06 -0.1532750E+01  0.1435620E+06 -0.7249842E-01  0.4529162E+06  0.1608845E+01
  0.9785714E+00  0.2354089E+06 -0.1525685E+01  0.1373075E+06 -0.8038253E-01  0.4777669E+06  0.1615911E+01
  0.1009524E+01  0.2484078E+06 -0.1517681E+01  0.1311929E+06 -0.8871651E-01  0.5022273E+06  0.1623915E+01
  0.1040476E+01  0.2615215E+06 -0.1508667E+01  0.1252616E+06 -0.9757134E-01  0.5267836E+06  0.1632932E+01
  0.1071429E+01  0.2746455E+06 -0.1498596E+01  0.1194152E+06 -0.1069998E+00  0.5510736E+06  0.1643006E+01
  0.1102381E+01  0.2877878E+06 -0.1487425E+01  0.1136396E+06 -0.1170535E+00  0.5750308E+06  0.1654179E+01
  0.1133333E+01  0.3009179E+06 -0.1475104E+01  0.1079386E+06 -0.1277962E+00  0.5987019E+06  0.1666503E+01
  0.1164286E+01  0.3136995E+06 -0.1461630E+01  0.1024458E+06 -0.1389273E+00  0.6209406E+06  0.1679972E+01
  0.1195238E+01  0.3261501E+06 -0.1446955E+01  0.9718672E+05 -0.1505432E+00  0.6422913E+06  0.1694649E+01
  0.1226190E+01  0.3382180E+06 -0.1431092E+01  0.9205364E+05 -0.1628605E+00  0.6627420E+06  0.1710517E+01
  0.1257143E+01  0.3493740E+06 -0.1414166E+01  0.8704182E+05 -0.1760447E+00  0.6810770E+06  0.1727451E+01
  0.1288095E+01  0.3604818E+06 -0.1396075E+01  0.8215181E+05 -0.1899732E+00  0.6989714E+06  0.1745548E+01
  0.1319048E+01  0.3703478E+06 -0.1377084E+01  0.7738235E+05 -0.2050530E+00  0.7144392E+06  0.1764554E+01
  0.1350000E+01  0.3790074E+06 -0.1357368E+01  0.7291708E+05 -0.2200153E+00  0.7269872E+06  0.1784266E+01
  0.1380952E+01  0.3867479E+06 -0.1336967E+01  0.6864880E+05 -0.2357203E+00  0.7377234E+06  0.1804684E+01
  0.1411905E+01  0.3929508E+06 -0.1316122E+01  0.6454746E+05 -0.2522906E+00  0.7457798E+06  0.1825545E+01
  0.1442857E+01  0.3981662E+06 -0.1295177E+01  0.6058598E+05 -0.2698199E+00  0.7507340E+06  0.1846484E+01
  0.1473810E+01  0.4022015E+06 -0.1274232E+01  0.5677865E+05 -0.2884062E+00  0.7532283E+06  0.1867421E+01
  0.1504762E+01  0.4048725E+06 -0.1253473E+01  0.5311782E+05 -0.3083979E+00  0.7532436E+06  0.1888202E+01
  0.1535714E+01  0.4058616E+06 -0.1233298E+01  0.4961771E+05 -0.3295377E+00  0.7499418E+06  0.1908393E+01
  0.1566667E+01  0.4052469E+06 -0.1214090E+01  0.4638964E+05 -0.3496952E+00  0.7432667E+06  0.1927548E+01
  0.1597619E+01  0.4034642E+06 -0.1195741E+01  0.4333338E+05 -0.3710697E+00  0.7348510E+06  0.1945948E+01
  0.1628572E+01  0.4004644E+06 -0.1178713E+01  0.4043405E+05 -0.3933734E+00  0.7241674E+06  0.1963009E+01
  0.1659524E+01  0.3960976E+06 -0.1163379E+01  0.3767293E+05 -0.4170802E+00  0.7105853E+06  0.1978316E+01
  0.1690476E+01  0.3908392E+06 -0.1149645E+01  0.3505966E+05 -0.4420668E+00  0.6954693E+06  0.1992038E+01
  0.1721429E+01  0.3847649E+06 -0.1137627E+01  0.3259533E+05 -0.4683375E+00  0.6791384E+06  0.2004056E+01
  0.1752381E+01  0.3775988E+06 -0.1127677E+01  0.3026865E+05 -0.4962509E+00  0.6610968E+06  0.2014083E+01
  0.1783333E+01  0.3696674E+06 -0.1119904E+01  0.2809402E+05 -0.5242567E+00  0.6416409E+06  0.2021811E+01
  0.1814286E+01  0.3610510E+06 -0.1114381E+01  0.2608396E+05 -0.5517454E+00  0.6209828E+06  0.2027199E+01
  0.1845238E+01  0.3521333E+06 -0.1110738E+01  0.2422232E+05 -0.5794132E+00  0.6003448E+06  0.2030936E+01
  0.1876190E+01  0.3429536E+06 -0.1109274E+01  0.2247761E+05 -0.6074780E+00  0.5794912E+06  0.2032507E+01
  0.1907143E+01  0.3333100E+06 -0.1110485E+01  0.2083362E+05 -0.6370382E+00  0.5576717E+06  0.2031151E+01
  0.1938095E+01  0.3236428E+06 -0.1113779E+01  0.1929398E+05 -0.6678027E+00  0.5361524E+06  0.2027820E+01
  0.1969048E+01  0.3139328E+06 -0.1119091E+01  0.1787207E+05 -0.6984109E+00  0.5149785E+06  0.2022491E+01
  0.2000000E+01  0.3042678E+06 -0.1126276E+01  0.1654783E+05 -0.7293189E+00  0.4942871E+06  0.2015457E+01
