VARIABLES="w (rad/s)"
"abs(F   1   1)" "angle(F   1   1)"
"abs(F   1   2)" "angle(F   1   2)"
"abs(F   1   3)" "angle(F   1   3)"
Zone t="Diffraction force - beta =   0.000 deg",I=    64,F=POINT
  0.5000000E-01  0.4568936E+04 -0.1570791E+01  0.2471762E+06 -0.1675576E-04  0.1332110E+05  0.1570825E+01
  0.8095238E-01  0.7463143E+04 -0.1570786E+01  0.2463351E+06 -0.4500447E-04  0.2174591E+05  0.1570798E+01
  0.1119048E+00  0.1042034E+05 -0.1570787E+01  0.2451000E+06 -0.8915534E-04  0.3033458E+05  0.1570791E+01
  0.1428571E+00  0.1345703E+05 -0.1570781E+01  0.2434716E+06 -0.1524507E-03  0.3916312E+05  0.1570806E+01
  0.1738095E+00  0.1662386E+05 -0.1570778E+01  0.2414514E+06 -0.2395182E-03  0.4832827E+05  0.1570816E+01
  0.2047619E+00  0.1994702E+05 -0.1570775E+01  0.2390481E+06 -0.3575263E-03  0.5793725E+05  0.1570815E+01
  0.2357143E+00  0.2346629E+05 -0.1570754E+01  0.2362583E+06 -0.5164988E-03  0.6808256E+05  0.1570834E+01
  0.2666667E+00  0.2723536E+05 -0.1570740E+01  0.2330938E+06 -0.7280379E-03  0.7890755E+05  0.1570847E+01
  0.2976190E+00  0.3130588E+05 -0.1570711E+01  0.2295602E+06 -0.1013860E-02  0.9058102E+05  0.1570880E+01
  0.3285715E+00  0.3573987E+05 -0.1570676E+01  0.2256722E+06 -0.1392691E-02  0.1032341E+06  0.1570921E+01
  0.3595238E+00  0.4059836E+05 -0.1570614E+01  0.2214426E+06 -0.1898560E-02  0.1170346E+06  0.1570982E+01
  0.3904762E+00  0.4593352E+05 -0.1570520E+01  0.2169020E+06 -0.2565001E-02  0.1321716E+06  0.1571069E+01
  0.4214286E+00  0.5180714E+05 -0.1570389E+01  0.2120593E+06 -0.3411502E-02  0.1487849E+06  0.1571205E+01
  0.4523810E+00  0.5828305E+05 -0.1570193E+01  0.2069810E+06 -0.4508671E-02  0.1669466E+06  0.1571396E+01
  0.4833333E+00  0.6528265E+05 -0.1569930E+01  0.2016441E+06 -0.5802822E-02  0.1865202E+06  0.1571663E+01
  0.5142857E+00  0.7284005E+05 -0.1569558E+01  0.1961568E+06 -0.7383454E-02  0.2075578E+06  0.1572035E+01
  0.5452381E+00  0.8087567E+05 -0.1569064E+01  0.1904789E+06 -0.9210614E-02  0.2298486E+06  0.1572528E+01
  0.5761905E+00  0.8937817E+05 -0.1568424E+01  0.1846459E+06 -0.1127860E-01  0.2531912E+06  0.1573167E+01
  0.6071429E+00  0.9833025E+05 -0.1567600E+01  0.1787396E+06 -0.1367160E-01  0.2776005E+06  0.1573992E+01
  0.6380953E+00  0.1075445E+06 -0.1566574E+01  0.1726840E+06 -0.1628768E-01  0.3026408E+06  0.1575019E+01
  0.6690477E+00  0.1170863E+06 -0.1565302E+01  0.1665655E+06 -0.1920295E-01  0.3284135E+06  0.1576289E+01
  0.7000000E+00  0.1270054E+06 -0.1563744E+01  0.1604368E+06 -0.2246521E-01  0.3548236E+06  0.1577849E+01
  0.7309524E+00  0.1370917E+06 -0.1561865E+01  0.1542276E+06 -0.2602033E-01  0.3813927E+06  0.1579727E+01
  0.7619048E+00  0.1474240E+06 -0.1559618E+01  0.1479788E+06 -0.2991758E-01  0.4083978E+06  0.1581975E+01
  0.7928572E+00  0.1580036E+06 -0.1556951E+01  0.1418294E+06 -0.3415747E-01  0.4357324E+06  0.1584641E+01
  0.8238096E+00  0.1687040E+06 -0.1553820E+01  0.1356777E+06 -0.3878694E-01  0.4632944E+06  0.1587772E+01
  0.8547620E+00  0.1795067E+06 -0.1550180E+01  0.1295235E+06 -0.4381146E-01  0.4907040E+06  0.1591411E+01
  0.8857143E+00  0.1904654E+06 -0.1545982E+01  0.1234582E+06 -0.4920866E-01  0.5179315E+06  0.1595609E+01
  0.9166667E+00  0.2016213E+06 -0.1541174E+01  0.1175249E+06 -0.5498141E-01  0.5451948E+06  0.1600417E+01
  0.9476191E+00  0.2127481E+06 -0.1535701E+01  0.1116741E+06 -0.6122050E-01  0.5721445E+06  0.1605890E+01
  0.9785714E+00  0.2237501E+06 -0.1529521E+01  0.1058952E+06 -0.6794797E-01  0.5982900E+06  0.1612069E+01
  0.1009524E+01  0.2347711E+06 -0.1522587E+01  0.1001988E+06 -0.7521432E-01  0.6241630E+06  0.1619002E+01
  0.1040476E+01  0.2456682E+06 -0.1514869E+01  0.9477032E+05 -0.8271005E-01  0.6492316E+06  0.1626720E+01
  0.1071429E+01  0.2565578E+06 -0.1506356E+01  0.8946902E+05 -0.9076612E-01  0.6737689E+06  0.1635231E+01
  0.1102381E+01  0.2670932E+06 -0.1497040E+01  0.8429536E+05 -0.9941912E-01  0.6967276E+06  0.1644542E+01
  0.1133333E+01  0.2773490E+06 -0.1486884E+01  0.7925425E+05 -0.1087421E+00  0.7184039E+06  0.1654695E+01
  0.1164286E+01  0.2872968E+06 -0.1475887E+01  0.7434183E+05 -0.1188163E+00  0.7387840E+06  0.1665686E+01
  0.1195238E+01  0.2967694E+06 -0.1464064E+01  0.6973872E+05 -0.1287708E+00  0.7573174E+06  0.1677503E+01
  0.1226190E+01  0.3058893E+06 -0.1451427E+01  0.6529608E+05 -0.1394452E+00  0.7745567E+06  0.1690134E+01
  0.1257143E+01  0.3141448E+06 -0.1438015E+01  0.6103133E+05 -0.1509238E+00  0.7895204E+06  0.1703552E+01
  0.1288095E+01  0.3218216E+06 -0.1423924E+01  0.5691509E+05 -0.1631207E+00  0.8021589E+06  0.1717629E+01
  0.1319048E+01  0.3287216E+06 -0.1409187E+01  0.5297551E+05 -0.1763663E+00  0.8129019E+06  0.1732371E+01
  0.1350000E+01  0.3347731E+06 -0.1394097E+01  0.4921381E+05 -0.1903510E+00  0.8207391E+06  0.1747437E+01
  0.1380952E+01  0.3399938E+06 -0.1378685E+01  0.4571255E+05 -0.2037870E+00  0.8259518E+06  0.1762823E+01
  0.1411905E+01  0.3441822E+06 -0.1362956E+01  0.4239380E+05 -0.2181751E+00  0.8288088E+06  0.1778525E+01
  0.1442857E+01  0.3474841E+06 -0.1347191E+01  0.3925334E+05 -0.2332673E+00  0.8290202E+06  0.1794294E+01
  0.1473810E+01  0.3495920E+06 -0.1331602E+01  0.3626698E+05 -0.2494875E+00  0.8258886E+06  0.1809845E+01
  0.1504762E+01  0.3506581E+06 -0.1316235E+01  0.3344374E+05 -0.2668427E+00  0.8201870E+06  0.1825192E+01
  0.1535714E+01  0.3508243E+06 -0.1301236E+01  0.3078442E+05 -0.2854579E+00  0.8124954E+06  0.1840195E+01
  0.1566667E+01  0.3497988E+06 -0.1287145E+01  0.2829794E+05 -0.3041126E+00  0.8013812E+06  0.1854194E+01
  0.1597619E+01  0.3479419E+06 -0.1273832E+01  0.2598852E+05 -0.3223420E+00  0.7883842E+06  0.1867447E+01
  0.1628572E+01  0.3453090E+06 -0.1261437E+01  0.2383587E+05 -0.3413844E+00  0.7737441E+06  0.1879783E+01
  0.1659524E+01  0.3416771E+06 -0.1250103E+01  0.2183584E+05 -0.3609251E+00  0.7571208E+06  0.1891126E+01
  0.1690476E+01  0.3371410E+06 -0.1240133E+01  0.1996231E+05 -0.3819361E+00  0.7384046E+06  0.1901038E+01
  0.1721429E+01  0.3317956E+06 -0.1231696E+01  0.1820885E+05 -0.4048118E+00  0.7179164E+06  0.1909339E+01
  0.1752381E+01  0.3259818E+06 -0.1224594E+01  0.1659529E+05 -0.4278245E+00  0.6969017E+06  0.1916450E+01
  0.1783333E+01  0.3196664E+06 -0.1219097E+01  0.1509360E+05 -0.4528840E+00  0.6750416E+06  0.1921912E+01
  0.1814286E+01  0.3127552E+06 -0.1215485E+01  0.1370181E+05 -0.4773087E+00  0.6518470E+06  0.1925292E+01
  0.1845238E+01  0.3055761E+06 -0.1213414E+01  0.1241808E+05 -0.5022248E+00  0.6285862E+06  0.1927243E+01
  0.1876190E+01  0.2981993E+06 -0.1212951E+01  0.1124613E+05 -0.5270939E+00  0.6054182E+06  0.1927630E+01
  0.1907143E+01  0.2905667E+06 -0.1214190E+01  0.1017256E+05 -0.5517671E+00  0.5822199E+06  0.1926459E+01
  0.1938095E+01  0.2827005E+06 -0.1217326E+01  0.9181342E+04 -0.5781975E+00  0.5587782E+06  0.1923296E+01
  0.1969048E+01  0.2746720E+06 -0.1222480E+01  0.8269598E+04 -0.6079907E+00  0.5352296E+06  0.1917822E+01
  0.2000000E+01  0.2666491E+06 -0.1229241E+01  0.7435366E+04 -0.6388953E+00  0.5122147E+06  0.1910909E+01
