VARIABLES="w (rad/s)"
"A   1   1" "B   1   1"
"A   1   2" "B   1   2"
"A   1   3" "B   1   3"
Zone t="Motion of body    1 in DoF   1",I=    64,F=POINT
  0.5000000E-01  0.9977201E+05  0.7178008E-02 -0.1245499E-01 -0.3237893E-04 -0.1541422E+06 -0.1042581E-01
  0.8095238E-01  0.1004815E+06  0.3159354E-01 -0.6856357E-02 -0.9940413E-05 -0.1553499E+06 -0.4594571E-01
  0.1119048E+00  0.1008621E+06  0.8889491E-01 -0.1295374E-02  0.3592443E-04 -0.1560080E+06 -0.1293451E+00
  0.1428571E+00  0.1011583E+06  0.2004137E+00  0.1602173E-02  0.2713420E-04 -0.1563861E+06 -0.2914732E+00
  0.1738095E+00  0.1012908E+06  0.3993166E+00 -0.5135732E-02 -0.3848085E-04 -0.1565127E+06 -0.5806492E+00
  0.2047619E+00  0.1015239E+06  0.7378317E+00 -0.3278865E-02 -0.5526282E-04 -0.1568244E+06 -0.1072748E+01
  0.2357143E+00  0.1017751E+06  0.1300798E+01 -0.3333814E-02  0.8864421E-04 -0.1572074E+06 -0.1890932E+01
  0.2666667E+00  0.1020677E+06  0.2223883E+01 -0.4291534E-02  0.1215003E-04 -0.1575357E+06 -0.3231223E+01
  0.2976190E+00  0.1023441E+06  0.3737088E+01  0.6024170E-02  0.2564862E-03 -0.1579169E+06 -0.5428885E+01
  0.3285715E+00  0.1026265E+06  0.6197166E+01 -0.1047217E-01 -0.4810207E-03 -0.1584031E+06 -0.9003960E+01
  0.3595238E+00  0.1031651E+06  0.1020998E+02 -0.5432533E-02 -0.2217814E-03 -0.1589636E+06 -0.1481994E+02
  0.3904762E+00  0.1034975E+06  0.1668311E+02 -0.4669747E-02 -0.1960173E-03 -0.1593532E+06 -0.2420400E+02
  0.4214286E+00  0.1040411E+06  0.2693905E+02  0.1774157E-02  0.4652143E-03 -0.1600712E+06 -0.3906241E+02
  0.4523810E+00  0.1045265E+06  0.4310354E+02 -0.6745991E-04  0.1245141E-03 -0.1608301E+06 -0.6249641E+02
  0.4833333E+00  0.1051984E+06  0.6734164E+02  0.4577637E-02  0.3943741E-03 -0.1615926E+06 -0.9754023E+02
  0.5142857E+00  0.1059859E+06  0.1035546E+03 -0.2492269E-02 -0.6788969E-03 -0.1626473E+06 -0.1499003E+03
  0.5452381E+00  0.1066129E+06  0.1553557E+03  0.3498194E-02  0.9930134E-03 -0.1636395E+06 -0.2248661E+03
  0.5761905E+00  0.1074003E+06  0.2277457E+03  0.3733989E-02  0.6281137E-03 -0.1646706E+06 -0.3294088E+03
  0.6071429E+00  0.1083588E+06  0.3281194E+03 -0.2010570E-03 -0.4498959E-03 -0.1658299E+06 -0.4740358E+03
  0.6380953E+00  0.1093022E+06  0.4623256E+03 -0.2343477E-02  0.5083084E-03 -0.1671060E+06 -0.6674156E+03
  0.6690477E+00  0.1104114E+06  0.6407728E+03 -0.6591145E-02 -0.1214981E-02 -0.1685612E+06 -0.9241489E+03
  0.7000000E+00  0.1114228E+06  0.8744353E+03  0.1373291E-02  0.4181862E-03 -0.1700249E+06 -0.1260523E+04
  0.7309524E+00  0.1126083E+06  0.1175962E+04 -0.2317149E-02 -0.1435280E-02 -0.1717908E+06 -0.1694531E+04
  0.7619048E+00  0.1140130E+06  0.1562731E+04 -0.2723694E-02 -0.7820129E-03 -0.1734115E+06 -0.2247564E+04
  0.7928572E+00  0.1155364E+06  0.2053045E+04 -0.6928314E-03 -0.1390457E-02 -0.1754530E+06 -0.2949429E+04
  0.8238096E+00  0.1169388E+06  0.2665503E+04  0.1852223E-02  0.1338005E-02 -0.1773060E+06 -0.3824687E+04
  0.8547620E+00  0.1184506E+06  0.3425694E+04 -0.7497633E-02 -0.3892899E-02 -0.1794385E+06 -0.4911433E+04
  0.8857143E+00  0.1201346E+06  0.4362791E+04 -0.9647493E-03 -0.1922607E-02 -0.1816792E+06 -0.6246911E+04
  0.9166667E+00  0.1219157E+06  0.5507874E+04 -0.1598011E-02 -0.2279282E-02 -0.1842000E+06 -0.7879460E+04
  0.9476191E+00  0.1237515E+06  0.6896424E+04  0.8373164E-03 -0.1220703E-03 -0.1864629E+06 -0.9845722E+04
  0.9785714E+00  0.1256916E+06  0.8570028E+04 -0.9605241E-02 -0.4676819E-02 -0.1890251E+06 -0.1221589E+05
  0.1009524E+01  0.1276116E+06  0.1056635E+05  0.9975794E-03  0.2075195E-02 -0.1913942E+06 -0.1503034E+05
  0.1040476E+01  0.1296948E+06  0.1293967E+05 -0.3402326E-02 -0.3738403E-03 -0.1941927E+06 -0.1837876E+05
  0.1071429E+01  0.1315884E+06  0.1572046E+05  0.4699707E-02  0.6805420E-02 -0.1966837E+06 -0.2229206E+05
  0.1102381E+01  0.1334163E+06  0.1896398E+05  0.1218067E-02  0.3608704E-02 -0.1991191E+06 -0.2684972E+05
  0.1133333E+01  0.1352341E+06  0.2272393E+05  0.6462546E-03  0.2548218E-02 -0.2015445E+06 -0.3212227E+05
  0.1164286E+01  0.1369842E+06  0.2704950E+05 -0.3669598E-02  0.1525879E-04 -0.2036141E+06 -0.3814388E+05
  0.1195238E+01  0.1388105E+06  0.3201685E+05 -0.3880960E-02 -0.5264282E-02 -0.2057759E+06 -0.4503190E+05
  0.1226190E+01  0.1402568E+06  0.3761661E+05  0.3135904E-02  0.5157471E-02 -0.2074423E+06 -0.5278005E+05
  0.1257143E+01  0.1410874E+06  0.4380991E+05  0.4855069E-04  0.1678467E-02 -0.2081633E+06 -0.6130143E+05
  0.1288095E+01  0.1420755E+06  0.5081049E+05  0.2748274E-02 -0.2304077E-02 -0.2092999E+06 -0.7094372E+05
  0.1319048E+01  0.1423504E+06  0.5838668E+05 -0.1110531E-02  0.6530762E-02 -0.2093068E+06 -0.8131012E+05
  0.1350000E+01  0.1422169E+06  0.6659779E+05  0.3707320E-02 -0.1159668E-02 -0.2086925E+06 -0.9247988E+05
  0.1380952E+01  0.1416766E+06  0.7541918E+05  0.5303745E-03 -0.6561279E-02 -0.2076848E+06 -0.1044785E+06
  0.1411905E+01  0.1401821E+06  0.8456884E+05 -0.7348921E-03  0.1464844E-02 -0.2055005E+06 -0.1169196E+06
  0.1442857E+01  0.1382342E+06  0.9408470E+05  0.5647263E-02  0.1229858E-01 -0.2023660E+06 -0.1296505E+06
  0.1473810E+01  0.1358228E+06  0.1039133E+06  0.4079199E-02 -0.1708984E-02 -0.1986985E+06 -0.1427557E+06
  0.1504762E+01  0.1328493E+06  0.1138283E+06 -0.1521050E-02 -0.7324219E-03 -0.1941967E+06 -0.1558370E+06
  0.1535714E+01  0.1291899E+06  0.1235702E+06  0.3378225E-02  0.9399414E-02 -0.1886284E+06 -0.1684900E+06
  0.1566667E+01  0.1250684E+06  0.1331052E+06 -0.3778985E-02 -0.1159668E-02 -0.1825188E+06 -0.1807636E+06
  0.1597619E+01  0.1205291E+06  0.1422785E+06  0.2292229E-03 -0.4425049E-02 -0.1760449E+06 -0.1925489E+06
  0.1628572E+01  0.1154775E+06  0.1507674E+06 -0.2211186E-02 -0.3326416E-02 -0.1688974E+06 -0.2032934E+06
  0.1659524E+01  0.1100379E+06  0.1584156E+06  0.2059608E-02  0.7934570E-03 -0.1611522E+06 -0.2126691E+06
  0.1690476E+01  0.1044547E+06  0.1653236E+06  0.1065106E-02 -0.5798340E-02 -0.1533621E+06 -0.2210312E+06
  0.1721429E+01  0.9883542E+05  0.1714689E+06  0.0000000E+00  0.1098633E-02 -0.1456517E+06 -0.2283584E+06
  0.1752381E+01  0.9308486E+05  0.1765225E+06  0.1044895E-03 -0.5493164E-03 -0.1376441E+06 -0.2339248E+06
  0.1783333E+01  0.8742945E+05  0.1807034E+06  0.8128514E-03  0.2380371E-02 -0.1298133E+06 -0.2382462E+06
  0.1814286E+01  0.8197538E+05  0.1840847E+06  0.7485217E-03  0.4730225E-02 -0.1223779E+06 -0.2414735E+06
  0.1845238E+01  0.7670934E+05  0.1866460E+06  0.1083276E-02  0.2868652E-02 -0.1153505E+06 -0.2437090E+06
  0.1876190E+01  0.7158954E+05  0.1882662E+06 -0.1236194E-02  0.2899170E-02 -0.1085421E+06 -0.2446251E+06
  0.1907143E+01  0.6671216E+05  0.1890573E+06 -0.9040976E-03  0.4577637E-03 -0.1020214E+06 -0.2442078E+06
  0.1938095E+01  0.6210661E+05  0.1891623E+06 -0.4723851E-03  0.2746582E-03 -0.9593934E+05 -0.2428903E+06
  0.1969048E+01  0.5782452E+05  0.1887220E+06  0.1352257E-02 -0.1953125E-02 -0.9043712E+05 -0.2410694E+06
  0.2000000E+01  0.5386710E+05  0.1877401E+06 -0.1350403E-02 -0.4882812E-02 -0.8539848E+05 -0.2385364E+06
Zone t="Motion of body    1 in DoF   2",I=    64,F=POINT
  0.5000000E-01  0.3433228E-03 -0.1049042E-04  0.6570641E+05  0.1105347E+03 -0.8697510E-02 -0.2384186E-04
  0.8095238E-01 -0.4665150E-02  0.2384186E-06  0.6528168E+05  0.1831022E+03  0.2450382E-02  0.1573563E-04
  0.1119048E+00  0.4772430E-02 -0.2241135E-04  0.6495415E+05  0.2618286E+03 -0.4090654E-03  0.9250641E-04
  0.1428571E+00  0.1388550E-02  0.9632111E-04  0.6480859E+05  0.3496604E+03  0.7690429E-02 -0.2574921E-04
  0.1738095E+00 -0.5267417E-03  0.5722046E-05  0.6481318E+05  0.4499892E+03 -0.5618579E-02 -0.4005432E-04
  0.2047619E+00  0.4098582E-03  0.9346008E-04  0.6471890E+05  0.5675552E+03  0.1087987E-01 -0.8583069E-04
  0.2357143E+00  0.1909660E-02 -0.6771088E-04  0.6478906E+05  0.7084437E+03  0.9451201E-02  0.2574921E-03
  0.2666667E+00 -0.2946853E-02 -0.7629395E-04  0.6488643E+05  0.8776025E+03  0.6866454E-03 -0.7247925E-04
  0.2976190E+00  0.2819824E-02 -0.4577637E-04  0.6498949E+05  0.1087220E+04 -0.7382812E-02  0.2899170E-03
  0.3285715E+00 -0.1393194E-02  0.4959106E-04  0.6512727E+05  0.1342450E+04  0.1486073E-01  0.1525879E-04
  0.3595238E+00  0.2164525E-02  0.6103516E-04  0.6524446E+05  0.1657368E+04  0.2376733E-02 -0.3967285E-03
  0.3904762E+00  0.1641250E-02 -0.7629395E-04  0.6530494E+05  0.2041167E+04 -0.1563095E-02 -0.3051758E-03
  0.4214286E+00 -0.3910387E-02  0.1373291E-03  0.6537123E+05  0.2487943E+04  0.5648337E-02  0.3433228E-03
  0.4523810E+00 -0.6745990E-03 -0.3280640E-03  0.6519028E+05  0.3022364E+04  0.9984066E-02  0.2670288E-03
  0.4833333E+00 -0.9881381E-02  0.1907349E-03  0.6517822E+05  0.3590672E+04  0.3914669E-02 -0.1998901E-02
  0.5142857E+00 -0.3145006E-02 -0.6027222E-03  0.6469243E+05  0.4227353E+04 -0.2492269E-02  0.1052856E-02
  0.5452381E+00  0.1875032E-02  0.1525879E-04  0.6431970E+05  0.4888457E+04  0.1567191E-02  0.2182007E-02
  0.5761905E+00 -0.1271145E-02 -0.1251221E-02  0.6386891E+05  0.5558447E+04 -0.2330433E-02  0.3417969E-02
  0.6071429E+00 -0.4171932E-02 -0.4730225E-03  0.6317944E+05  0.6262374E+04  0.9047563E-02  0.2593994E-03
  0.6380953E+00  0.1960868E-02  0.1037598E-02  0.6268543E+05  0.6939391E+04  0.1721738E-02 -0.1037598E-02
  0.6690477E+00  0.2828035E-02  0.6713867E-03  0.6200567E+05  0.7615045E+04 -0.1003496E-01  0.1220703E-02
  0.7000000E+00  0.1002720E-02  0.2288818E-03  0.6119186E+05  0.8293425E+04 -0.6277902E-02  0.8850098E-03
  0.7309524E+00  0.4467296E-02  0.1449585E-02  0.6054391E+05  0.8937820E+04  0.1336014E-02 -0.2899170E-02
  0.7619048E+00 -0.3084183E-02  0.1815796E-02  0.5987986E+05  0.9554000E+04  0.7690429E-02 -0.3448486E-02
  0.7928572E+00  0.2886798E-02 -0.3845215E-02  0.5898061E+05  0.1015281E+05  0.2309438E-02  0.3631592E-02
  0.8238096E+00 -0.3667401E-02 -0.2136230E-03  0.5817503E+05  0.1071178E+05  0.7557069E-02 -0.8239746E-03
  0.8547620E+00 -0.1713745E-02 -0.6103516E-04  0.5752705E+05  0.1122052E+05  0.6997791E-02  0.1525879E-02
  0.8857143E+00  0.3790086E-03 -0.1464844E-02  0.5672602E+05  0.1168217E+05 -0.7442351E-02 -0.4425049E-02
  0.9166667E+00 -0.1997514E-03  0.1342773E-02  0.5587676E+05  0.1210111E+05 -0.2663352E-03 -0.1831055E-02
  0.9476191E+00  0.6923963E-02  0.1464844E-02  0.5509042E+05  0.1246274E+05 -0.9403707E-02  0.5126953E-02
  0.9785714E+00 -0.2775540E-02 -0.2319336E-02  0.5445039E+05  0.1276604E+05  0.7734090E-02  0.3112793E-02
  0.1009524E+01 -0.2645097E-02 -0.2136230E-02  0.5384477E+05  0.1299934E+05  0.2660212E-02  0.5493164E-03
  0.1040476E+01  0.5235475E-02  0.1922607E-02  0.5302158E+05  0.1318779E+05 -0.1055894E-02 -0.2929688E-02
  0.1071429E+01 -0.1652018E-02 -0.2716064E-02  0.5229771E+05  0.1331181E+05  0.3417969E-02  0.8728027E-02
  0.1102381E+01  0.1010442E-02 -0.5187988E-03  0.5168579E+05  0.1337881E+05 -0.3322000E-02  0.4028320E-02
  0.1133333E+01  0.3365909E-02  0.2380371E-02  0.5121177E+05  0.1338679E+05  0.2800437E-02 -0.7385254E-02
  0.1164286E+01  0.1756165E-02  0.2410889E-02  0.5078055E+05  0.1332297E+05 -0.2411450E-02 -0.4150391E-02
  0.1195238E+01  0.2080910E-02 -0.3662109E-03  0.5013410E+05  0.1320656E+05 -0.3063916E-03 -0.4882812E-03
  0.1226190E+01 -0.5724268E-03 -0.6408691E-02  0.4960570E+05  0.1304499E+05 -0.1791945E-02  0.3417969E-02
  0.1257143E+01 -0.1268387E-02  0.5798340E-02  0.4915038E+05  0.1283662E+05 -0.9710138E-04  0.1220703E-03
  0.1288095E+01 -0.1942746E-02  0.1586914E-02  0.4883952E+05  0.1260392E+05  0.4264564E-02 -0.9765625E-03
  0.1319048E+01  0.1425760E-02 -0.1770020E-02  0.4863607E+05  0.1233104E+05  0.5552656E-03  0.4455566E-02
  0.1350000E+01 -0.2752233E-02  0.1098633E-02  0.4837981E+05  0.1198704E+05  0.1175492E-02 -0.4272461E-02
  0.1380952E+01  0.1906033E-03 -0.4882812E-03  0.4799459E+05  0.1158610E+05  0.3535830E-03  0.2929688E-02
  0.1411905E+01 -0.1199941E-02 -0.3723145E-02  0.4771173E+05  0.1117844E+05  0.3285400E-02  0.3753662E-02
  0.1442857E+01 -0.8698265E-03  0.1831055E-02  0.4749332E+05  0.1073831E+05 -0.2368889E-02 -0.7324219E-02
  0.1473810E+01 -0.1964538E-02 -0.7507324E-02  0.4738049E+05  0.1033798E+05  0.1739354E-02  0.9857178E-02
  0.1504762E+01  0.8010864E-03  0.6469727E-02  0.4735739E+05  0.9947792E+04 -0.1703576E-02 -0.2471924E-02
  0.1535714E+01  0.7352607E-03 -0.2441406E-03  0.4742152E+05  0.9561202E+04  0.2066679E-02  0.2990723E-02
  0.1566667E+01  0.6525567E-03  0.3845215E-02  0.4731093E+05  0.9030326E+04  0.1324593E-02  0.1831055E-03
  0.1597619E+01 -0.1337134E-03 -0.3417969E-02  0.4718732E+05  0.8489596E+04  0.2521452E-02 -0.8544922E-03
  0.1628572E+01  0.1030637E-02  0.5615234E-02  0.4713969E+05  0.7984372E+04 -0.4497327E-03 -0.4913330E-02
  0.1659524E+01  0.1204503E-02  0.8117676E-02  0.4713188E+05  0.7470304E+04 -0.2500953E-02 -0.6530762E-02
  0.1690476E+01 -0.5957375E-03  0.2014160E-02  0.4717720E+05  0.7034565E+04  0.2960635E-02 -0.2746582E-03
  0.1721429E+01  0.1196644E-02 -0.6408691E-03  0.4727801E+05  0.6666477E+04 -0.2836489E-03 -0.2288818E-02
  0.1752381E+01  0.1071018E-02 -0.3112793E-02  0.4742644E+05  0.6335548E+04 -0.3204346E-02  0.1138306E-01
  0.1783333E+01  0.8128514E-03 -0.1617432E-02  0.4760451E+05  0.6028960E+04  0.2738026E-03 -0.7293701E-02
  0.1814286E+01  0.5046214E-04  0.1403809E-02  0.4762732E+05  0.5456858E+04  0.2691314E-02 -0.3494263E-02
  0.1845238E+01 -0.1091545E-02 -0.3356934E-03  0.4768075E+05  0.4965856E+04  0.3175403E-02 -0.1647949E-02
  0.1876190E+01  0.6831600E-03 -0.4180908E-02  0.4777454E+05  0.4543286E+04  0.1691634E-02  0.1174927E-02
  0.1907143E+01 -0.1440155E-03 -0.6500244E-02  0.4788797E+05  0.4135667E+04 -0.3456373E-02  0.6561279E-03
  0.1938095E+01 -0.1889540E-02  0.1220703E-02  0.4800996E+05  0.3789710E+04  0.7180254E-02 -0.1770020E-02
  0.1969048E+01 -0.2324797E-03 -0.2502441E-02  0.4814616E+05  0.3537410E+04  0.1859838E-02  0.6530762E-02
  0.2000000E+01 -0.7934570E-03 -0.1708984E-02  0.4829443E+05  0.3324068E+04  0.2563477E-02  0.3921509E-02
Zone t="Motion of body    1 in DoF   3",I=    64,F=POINT
  0.5000000E-01 -0.1540493E+06 -0.1039512E-01  0.1801491E-01  0.4701930E-04  0.3048872E+06  0.1507297E-01
  0.8095238E-01 -0.1552876E+06 -0.4597245E-01  0.5301307E-02  0.7043302E-04  0.3072074E+06  0.6691417E-01
  0.1119048E+00 -0.1559759E+06 -0.1292423E+00  0.4584942E-02 -0.3935193E-04  0.3081079E+06  0.1879632E+00
  0.1428571E+00 -0.1563509E+06 -0.2912085E+00 -0.7256507E-02 -0.8394418E-04  0.3085644E+06  0.4235947E+00
  0.1738095E+00 -0.1564565E+06 -0.5800408E+00  0.4587043E-02 -0.5927868E-06  0.3087462E+06  0.8431876E+00
  0.2047619E+00 -0.1568024E+06 -0.1071546E+01  0.1850882E-01  0.2297158E-03  0.3091408E+06  0.1558009E+01
  0.2357143E+00 -0.1571739E+06 -0.1889242E+01  0.1344045E-01  0.2723224E-03  0.3096815E+06  0.2746465E+01
  0.2666667E+00 -0.1575204E+06 -0.3228714E+01  0.2215862E-01  0.4785378E-03  0.3101501E+06  0.4691370E+01
  0.2976190E+00 -0.1578867E+06 -0.5424091E+01 -0.2149475E-01 -0.7208288E-03  0.3105664E+06  0.7879540E+01
  0.3285715E+00 -0.1583637E+06 -0.8991396E+01  0.1818698E-01  0.7204413E-03  0.3114153E+06  0.1306504E+02
  0.3595238E+00 -0.1589466E+06 -0.1480860E+02  0.8721761E-02 -0.1382977E-03  0.3119357E+06  0.2149597E+02
  0.3904762E+00 -0.1593521E+06 -0.2418755E+02  0.1025781E-01  0.1624823E-03  0.3124726E+06  0.3508984E+02
  0.4214286E+00 -0.1600328E+06 -0.3903841E+02 -0.1656484E-02 -0.7535219E-03  0.3133924E+06  0.5660735E+02
  0.4523810E+00 -0.1608053E+06 -0.6243065E+02  0.6240041E-03 -0.1559138E-02  0.3144064E+06  0.9051643E+02
  0.4833333E+00 -0.1615504E+06 -0.9748669E+02 -0.1172033E-01 -0.1079440E-02  0.3155046E+06  0.1412027E+03
  0.5142857E+00 -0.1626555E+06 -0.1498226E+03  0.1696375E-01  0.2120614E-02  0.3168257E+06  0.2168768E+03
  0.5452381E+00 -0.1636183E+06 -0.2246262E+03 -0.7584085E-02 -0.9419918E-03  0.3184389E+06  0.3251368E+03
  0.5761905E+00 -0.1646185E+06 -0.3290718E+03  0.2164919E-02  0.1678467E-03  0.3196100E+06  0.4759677E+03
  0.6071429E+00 -0.1658294E+06 -0.4737658E+03 -0.2802231E-02  0.1873970E-03  0.3210128E+06  0.6844568E+03
  0.6380953E+00 -0.1670926E+06 -0.6670053E+03  0.9122820E-02 -0.4196167E-04  0.3230016E+06  0.9628946E+03
  0.6690477E+00 -0.1685420E+06 -0.9236547E+03 -0.2377602E-02 -0.2020836E-02  0.3247520E+06  0.1332137E+04
  0.7000000E+00 -0.1699939E+06 -0.1259323E+04 -0.1209259E-01 -0.4236698E-02  0.3267713E+06  0.1815374E+04
  0.7309524E+00 -0.1717379E+06 -0.1691934E+04  0.2278530E-01  0.6856918E-02  0.3294958E+06  0.2438053E+04
  0.7619048E+00 -0.1733592E+06 -0.2246126E+04  0.3902792E-02  0.1653671E-02  0.3313562E+06  0.3230439E+04
  0.7928572E+00 -0.1754567E+06 -0.2947526E+04 -0.6668502E-02 -0.2141953E-02  0.3340949E+06  0.4234455E+04
  0.8238096E+00 -0.1772989E+06 -0.3822250E+04 -0.6096128E-02 -0.1525879E-02  0.3365295E+06  0.5484491E+04
  0.8547620E+00 -0.1793798E+06 -0.4906331E+04  0.8258553E-02  0.1527786E-02  0.3396489E+06  0.7034288E+04
  0.8857143E+00 -0.1815977E+06 -0.6240180E+04 -0.1148870E-02  0.3818512E-02  0.3424785E+06  0.8935085E+04
  0.9166667E+00 -0.1841288E+06 -0.7866892E+04  0.3209586E-01  0.8861542E-02  0.3459536E+06  0.1125422E+05
  0.9476191E+00 -0.1864255E+06 -0.9835134E+04  0.1751370E-01  0.8918762E-02  0.3487492E+06  0.1404101E+05
  0.9785714E+00 -0.1889890E+06 -0.1220325E+05  0.3563958E-02 -0.2632141E-02  0.3523837E+06  0.1739479E+05
  0.1009524E+01 -0.1913280E+06 -0.1502161E+05 -0.6081834E-02 -0.7232666E-02  0.3553386E+06  0.2136804E+05
  0.1040476E+01 -0.1941518E+06 -0.1836267E+05  0.2077875E-01  0.1057434E-01  0.3589589E+06  0.2608103E+05
  0.1071429E+01 -0.1966251E+06 -0.2226719E+05 -0.1484680E-02  0.5722046E-03  0.3621478E+06  0.3157546E+05
  0.1102381E+01 -0.1990298E+06 -0.2680974E+05  0.8900191E-02  0.4409790E-02  0.3653963E+06  0.3795843E+05
  0.1133333E+01 -0.2014068E+06 -0.3206148E+05 -0.6593816E-02 -0.1135254E-01  0.3687116E+06  0.4532294E+05
  0.1164286E+01 -0.2034502E+06 -0.3808353E+05  0.9576996E-02  0.7843018E-02  0.3711067E+06  0.5370428E+05
  0.1195238E+01 -0.2056921E+06 -0.4497262E+05  0.1988354E-02 -0.1190186E-02  0.3735422E+06  0.6325150E+05
  0.1226190E+01 -0.2073910E+06 -0.5271471E+05 -0.1176275E-01 -0.2519226E-01  0.3754537E+06  0.7396231E+05
  0.1257143E+01 -0.2081157E+06 -0.6123916E+05 -0.1505071E-02  0.7019043E-02  0.3758922E+06  0.8568745E+05
  0.1288095E+01 -0.2092386E+06 -0.7085155E+05 -0.2937810E-02  0.3112793E-02  0.3773665E+06  0.9892905E+05
  0.1319048E+01 -0.2091912E+06 -0.8119660E+05  0.1091299E-01  0.5340576E-02  0.3769219E+06  0.1130819E+06
  0.1350000E+01 -0.2085342E+06 -0.9235234E+05 -0.4658876E-02  0.4547119E-02  0.3754501E+06  0.1282468E+06
  0.1380952E+01 -0.2075272E+06 -0.1042765E+06 -0.2412582E-02 -0.1821899E-01  0.3735225E+06  0.1444500E+06
  0.1411905E+01 -0.2052670E+06 -0.1165726E+06  0.3304312E-02  0.8056641E-02  0.3701608E+06  0.1611659E+06
  0.1442857E+01 -0.2021131E+06 -0.1292536E+06 -0.6532952E-02 -0.2258301E-02  0.3651466E+06  0.1781053E+06
  0.1473810E+01 -0.1984661E+06 -0.1422959E+06 -0.3913546E-02  0.7934570E-02  0.3598097E+06  0.1954870E+06
  0.1504762E+01 -0.1939921E+06 -0.1553458E+06 -0.8315074E-03  0.6103516E-03  0.3533305E+06  0.2126918E+06
  0.1535714E+01 -0.1884056E+06 -0.1680115E+06  0.8445562E-03 -0.6896973E-02  0.3450795E+06  0.2291057E+06
  0.1566667E+01 -0.1823151E+06 -0.1802855E+06  0.1217457E-01  0.5798340E-02  0.3360841E+06  0.2448279E+06
  0.1597619E+01 -0.1758924E+06 -0.1919836E+06 -0.1127013E-02  0.8117676E-02  0.3268733E+06  0.2597894E+06
  0.1628572E+01 -0.1687703E+06 -0.2026322E+06  0.5677876E-02  0.9765625E-03  0.3168604E+06  0.2732168E+06
  0.1659524E+01 -0.1610201E+06 -0.2119592E+06  0.4211163E-02 -0.1220703E-03  0.3058314E+06  0.2845110E+06
  0.1690476E+01 -0.1532686E+06 -0.2202628E+06  0.5469953E-02  0.4577637E-02  0.2951422E+06  0.2944567E+06
  0.1721429E+01 -0.1456152E+06 -0.2275273E+06  0.1932358E-02  0.8728027E-02  0.2849418E+06  0.3030695E+06
  0.1752381E+01 -0.1375976E+06 -0.2330929E+06  0.1741492E-02 -0.3112793E-02  0.2739515E+06  0.3089561E+06
  0.1783333E+01 -0.1297295E+06 -0.2374033E+06  0.7324219E-02  0.5737305E-02  0.2632061E+06  0.3130696E+06
  0.1814286E+01 -0.1223352E+06 -0.2406228E+06  0.2859521E-02 -0.1080322E-01  0.2530080E+06  0.3155784E+06
  0.1845238E+01 -0.1153899E+06 -0.2428033E+06  0.6284652E-03 -0.8361816E-02  0.2437236E+06  0.3169392E+06
  0.1876190E+01 -0.1086377E+06 -0.2436665E+06  0.4098960E-02 -0.4455566E-02  0.2348321E+06  0.3165622E+06
  0.1907143E+01 -0.1021252E+06 -0.2432615E+06 -0.3296356E-02  0.1098633E-02  0.2261199E+06  0.3140905E+06
  0.1938095E+01 -0.9606154E+05 -0.2419799E+06  0.8062040E-02  0.3295898E-02  0.2181744E+06  0.3105177E+06
  0.1969048E+01 -0.9061745E+05 -0.2401808E+06  0.6788408E-02  0.1062012E-01  0.2114796E+06  0.3067940E+06
  0.2000000E+01 -0.8561981E+05 -0.2376463E+06  0.3875732E-02  0.9704590E-02  0.2054153E+06  0.3021427E+06
