VARIABLES="w (rad/s)"
"abs(F   1   1)" "angle(F   1   1)"
"abs(F   1   2)" "angle(F   1   2)"
"abs(F   1   3)" "angle(F   1   3)"
Zone t="Diffraction force - beta =   0.000 deg",I=    64,F=POINT
  0.5000000E-01  0.1136330E+04 -0.1570797E+01  0.1780001E+06 -0.1193101E-04  0.6106946E+03  0.1570816E+01
  0.8095238E-01  0.1852940E+04 -0.1570796E+01  0.1776767E+06 -0.3209414E-04  0.9957314E+03  0.1570803E+01
  0.1119048E+00  0.2591118E+04 -0.1570794E+01  0.1772025E+06 -0.6372106E-04  0.1394454E+04  0.1570795E+01
  0.1428571E+00  0.3351755E+04 -0.1570796E+01  0.1765762E+06 -0.1092712E-03  0.1807369E+04  0.1570791E+01
  0.1738095E+00  0.4146688E+04 -0.1570794E+01  0.1757970E+06 -0.1723777E-03  0.2240659E+04  0.1570800E+01
  0.2047619E+00  0.4981464E+04 -0.1570789E+01  0.1748684E+06 -0.2583746E-03  0.2697687E+04  0.1570795E+01
  0.2357143E+00  0.5877625E+04 -0.1570787E+01  0.1737851E+06 -0.3751134E-03  0.3192169E+04  0.1570805E+01
  0.2666667E+00  0.6834609E+04 -0.1570783E+01  0.1725507E+06 -0.5320937E-03  0.3723858E+04  0.1570806E+01
  0.2976190E+00  0.7875898E+04 -0.1570776E+01  0.1711640E+06 -0.7456351E-03  0.4304565E+04  0.1570819E+01
  0.3285715E+00  0.9021997E+04 -0.1570764E+01  0.1696271E+06 -0.1032157E-02  0.4950375E+04  0.1570828E+01
  0.3595238E+00  0.1027776E+05 -0.1570749E+01  0.1679401E+06 -0.1417986E-02  0.5661633E+04  0.1570842E+01
  0.3904762E+00  0.1165473E+05 -0.1570725E+01  0.1661119E+06 -0.1932293E-02  0.6446506E+04  0.1570869E+01
  0.4214286E+00  0.1320896E+05 -0.1570690E+01  0.1641357E+06 -0.2594790E-02  0.7341411E+04  0.1570902E+01
  0.4523810E+00  0.1491276E+05 -0.1570637E+01  0.1620435E+06 -0.3457323E-02  0.8327562E+04  0.1570954E+01
  0.4833333E+00  0.1676369E+05 -0.1570567E+01  0.1598040E+06 -0.4495678E-02  0.9413342E+04  0.1571026E+01
  0.5142857E+00  0.1876844E+05 -0.1570466E+01  0.1574777E+06 -0.5773182E-02  0.1059573E+05  0.1571126E+01
  0.5452381E+00  0.2094946E+05 -0.1570331E+01  0.1550278E+06 -0.7270803E-02  0.1189992E+05  0.1571261E+01
  0.5761905E+00  0.2326062E+05 -0.1570154E+01  0.1524662E+06 -0.8991585E-02  0.1328411E+05  0.1571439E+01
  0.6071429E+00  0.2568237E+05 -0.1569924E+01  0.1498413E+06 -0.1099487E-01  0.1475371E+05  0.1571669E+01
  0.6380953E+00  0.2819718E+05 -0.1569634E+01  0.1470918E+06 -0.1322312E-01  0.1630811E+05  0.1571959E+01
  0.6690477E+00  0.3086962E+05 -0.1569272E+01  0.1442695E+06 -0.1573295E-01  0.1796390E+05  0.1572321E+01
  0.7000000E+00  0.3364360E+05 -0.1568824E+01  0.1413998E+06 -0.1856119E-01  0.1970671E+05  0.1572770E+01
  0.7309524E+00  0.3650205E+05 -0.1568277E+01  0.1384287E+06 -0.2167764E-01  0.2153683E+05  0.1573319E+01
  0.7619048E+00  0.3943248E+05 -0.1567615E+01  0.1353800E+06 -0.2511149E-01  0.2341521E+05  0.1573982E+01
  0.7928572E+00  0.4244018E+05 -0.1566821E+01  0.1323374E+06 -0.2889758E-01  0.2537945E+05  0.1574778E+01
  0.8238096E+00  0.4552851E+05 -0.1565881E+01  0.1292300E+06 -0.3303056E-01  0.2740613E+05  0.1575719E+01
  0.8547620E+00  0.4874273E+05 -0.1564777E+01  0.1260459E+06 -0.3751738E-01  0.2957252E+05  0.1576823E+01
  0.8857143E+00  0.5202290E+05 -0.1563487E+01  0.1228498E+06 -0.4236241E-01  0.3177402E+05  0.1578115E+01
  0.9166667E+00  0.5536114E+05 -0.1561990E+01  0.1196652E+06 -0.4760117E-01  0.3406284E+05  0.1579619E+01
  0.9476191E+00  0.5871720E+05 -0.1560266E+01  0.1164529E+06 -0.5321434E-01  0.3637002E+05  0.1581352E+01
  0.9785714E+00  0.6211130E+05 -0.1558293E+01  0.1131953E+06 -0.5922097E-01  0.3878204E+05  0.1583340E+01
  0.1009524E+01  0.6552274E+05 -0.1556055E+01  0.1099074E+06 -0.6559568E-01  0.4120200E+05  0.1585595E+01
  0.1040476E+01  0.6903632E+05 -0.1553556E+01  0.1067194E+06 -0.7238129E-01  0.4371540E+05  0.1588090E+01
  0.1071429E+01  0.7258325E+05 -0.1550770E+01  0.1035186E+06 -0.7956503E-01  0.4628877E+05  0.1590871E+01
  0.1102381E+01  0.7611916E+05 -0.1547667E+01  0.1003148E+06 -0.8714542E-01  0.4887695E+05  0.1593987E+01
  0.1133333E+01  0.7965519E+05 -0.1544228E+01  0.9709523E+05 -0.9514175E-01  0.5153648E+05  0.1597453E+01
  0.1164286E+01  0.8315686E+05 -0.1540438E+01  0.9387055E+05 -0.1035060E+00  0.5418058E+05  0.1601288E+01
  0.1195238E+01  0.8664391E+05 -0.1536297E+01  0.9079044E+05 -0.1122446E+00  0.5682289E+05  0.1605480E+01
  0.1226190E+01  0.9004304E+05 -0.1531789E+01  0.8771677E+05 -0.1214040E+00  0.5946980E+05  0.1610066E+01
  0.1257143E+01  0.9330818E+05 -0.1526916E+01  0.8467246E+05 -0.1309828E+00  0.6200704E+05  0.1615024E+01
  0.1288095E+01  0.9657504E+05 -0.1521738E+01  0.8163702E+05 -0.1408968E+00  0.6463595E+05  0.1620279E+01
  0.1319048E+01  0.9976751E+05 -0.1516347E+01  0.7861795E+05 -0.1512191E+00  0.6721077E+05  0.1625644E+01
  0.1350000E+01  0.1028475E+06 -0.1510652E+01  0.7564575E+05 -0.1618403E+00  0.6971241E+05  0.1631382E+01
  0.1380952E+01  0.1058119E+06 -0.1504679E+01  0.7282833E+05 -0.1726752E+00  0.7213095E+05  0.1637427E+01
  0.1411905E+01  0.1085176E+06 -0.1498437E+01  0.7004047E+05 -0.1839212E+00  0.7442833E+05  0.1643778E+01
  0.1442857E+01  0.1110675E+06 -0.1491989E+01  0.6729327E+05 -0.1954818E+00  0.7658603E+05  0.1650396E+01
  0.1473810E+01  0.1134266E+06 -0.1485415E+01  0.6458002E+05 -0.2074582E+00  0.7866873E+05  0.1657156E+01
  0.1504762E+01  0.1155949E+06 -0.1478887E+01  0.6189904E+05 -0.2197772E+00  0.8065532E+05  0.1663802E+01
  0.1535714E+01  0.1175224E+06 -0.1472497E+01  0.5924730E+05 -0.2323511E+00  0.8243305E+05  0.1670241E+01
  0.1566667E+01  0.1192085E+06 -0.1466155E+01  0.5670537E+05 -0.2448902E+00  0.8401934E+05  0.1676761E+01
  0.1597619E+01  0.1206499E+06 -0.1460003E+01  0.5429245E+05 -0.2573392E+00  0.8541444E+05  0.1683079E+01
  0.1628572E+01  0.1217787E+06 -0.1454122E+01  0.5191549E+05 -0.2700419E+00  0.8660372E+05  0.1689181E+01
  0.1659524E+01  0.1225961E+06 -0.1448649E+01  0.4958474E+05 -0.2828476E+00  0.8752282E+05  0.1694896E+01
  0.1690476E+01  0.1231437E+06 -0.1443826E+01  0.4729821E+05 -0.2958058E+00  0.8825316E+05  0.1699876E+01
  0.1721429E+01  0.1234181E+06 -0.1439633E+01  0.4505090E+05 -0.3090090E+00  0.8882934E+05  0.1704289E+01
  0.1752381E+01  0.1233718E+06 -0.1436110E+01  0.4283898E+05 -0.3224480E+00  0.8913435E+05  0.1708163E+01
  0.1783333E+01  0.1230236E+06 -0.1433395E+01  0.4065629E+05 -0.3361554E+00  0.8918581E+05  0.1711227E+01
  0.1814286E+01  0.1224059E+06 -0.1431614E+01  0.3861578E+05 -0.3485742E+00  0.8895135E+05  0.1713201E+01
  0.1845238E+01  0.1215482E+06 -0.1430969E+01  0.3665202E+05 -0.3604896E+00  0.8852170E+05  0.1713950E+01
  0.1876190E+01  0.1204061E+06 -0.1431485E+01  0.3471868E+05 -0.3724111E+00  0.8788941E+05  0.1713630E+01
  0.1907143E+01  0.1189881E+06 -0.1433222E+01  0.3282698E+05 -0.3841202E+00  0.8699276E+05  0.1712104E+01
  0.1938095E+01  0.1173109E+06 -0.1436293E+01  0.3097459E+05 -0.3957076E+00  0.8585359E+05  0.1709182E+01
  0.1969048E+01  0.1154398E+06 -0.1440693E+01  0.2915872E+05 -0.4075694E+00  0.8460684E+05  0.1705115E+01
  0.2000000E+01  0.1133866E+06 -0.1446581E+01  0.2737240E+05 -0.4194594E+00  0.8321559E+05  0.1699549E+01
