VARIABLES="w (rad/s)"
"abs(F   1   1)" "angle(F   1   1)"
"abs(F   1   2)" "angle(F   1   2)"
"abs(F   1   3)" "angle(F   1   3)"
Zone t="Diffraction force - beta =   0.000 deg",I=    64,F=POINT
  0.5000000E-01  0.6803218E+04 -0.1570800E+01  0.5968230E+06 -0.3986100E-04  0.9144770E+04  0.1570822E+01
  0.8095238E-01  0.1110111E+05 -0.1570787E+01  0.5949504E+06 -0.1070929E-03  0.1493488E+05  0.1570805E+01
  0.1119048E+00  0.1550121E+05 -0.1570793E+01  0.5922025E+06 -0.2122315E-03  0.2086715E+05  0.1570799E+01
  0.1428571E+00  0.2003192E+05 -0.1570783E+01  0.5885825E+06 -0.3630205E-03  0.2699270E+05  0.1570814E+01
  0.1738095E+00  0.2479402E+05 -0.1570773E+01  0.5840996E+06 -0.5707757E-03  0.3342354E+05  0.1570826E+01
  0.2047619E+00  0.2976450E+05 -0.1570760E+01  0.5787389E+06 -0.8523903E-03  0.4016552E+05  0.1570832E+01
  0.2357143E+00  0.3507154E+05 -0.1570741E+01  0.5725022E+06 -0.1232169E-02  0.4739932E+05  0.1570851E+01
  0.2666667E+00  0.4081125E+05 -0.1570712E+01  0.5654282E+06 -0.1738469E-02  0.5521575E+05  0.1570879E+01
  0.2976190E+00  0.4695986E+05 -0.1570671E+01  0.5574651E+06 -0.2422438E-02  0.6364304E+05  0.1570919E+01
  0.3285715E+00  0.5374294E+05 -0.1570610E+01  0.5487182E+06 -0.3330845E-02  0.7295275E+05  0.1570985E+01
  0.3595238E+00  0.6121446E+05 -0.1570517E+01  0.5391258E+06 -0.4544001E-02  0.8324279E+05  0.1571078E+01
  0.3904762E+00  0.6944245E+05 -0.1570378E+01  0.5288111E+06 -0.6144134E-02  0.9457417E+05  0.1571216E+01
  0.4214286E+00  0.7849168E+05 -0.1570176E+01  0.5178101E+06 -0.8178730E-02  0.1071773E+06  0.1571418E+01
  0.4523810E+00  0.8855838E+05 -0.1569876E+01  0.5061640E+06 -0.1080857E-01  0.1211185E+06  0.1571717E+01
  0.4833333E+00  0.9962249E+05 -0.1569461E+01  0.4940617E+06 -0.1392208E-01  0.1366210E+06  0.1572132E+01
  0.5142857E+00  0.1114291E+06 -0.1568883E+01  0.4813740E+06 -0.1771054E-01  0.1531809E+06  0.1572709E+01
  0.5452381E+00  0.1241635E+06 -0.1568112E+01  0.4685102E+06 -0.2209345E-01  0.1711140E+06  0.1573482E+01
  0.5761905E+00  0.1377668E+06 -0.1567108E+01  0.4551886E+06 -0.2705372E-01  0.1903165E+06  0.1574486E+01
  0.6071429E+00  0.1521105E+06 -0.1565806E+01  0.4416384E+06 -0.3276591E-01  0.2105574E+06  0.1575787E+01
  0.6380953E+00  0.1671498E+06 -0.1564178E+01  0.4279328E+06 -0.3900995E-01  0.2320412E+06  0.1577415E+01
  0.6690477E+00  0.1825052E+06 -0.1562152E+01  0.4139184E+06 -0.4594196E-01  0.2540940E+06  0.1579441E+01
  0.7000000E+00  0.1986456E+06 -0.1559661E+01  0.3998676E+06 -0.5366079E-01  0.2771873E+06  0.1581931E+01
  0.7309524E+00  0.2156229E+06 -0.1556651E+01  0.3858448E+06 -0.6205446E-01  0.3017140E+06  0.1584939E+01
  0.7619048E+00  0.2328885E+06 -0.1553036E+01  0.3716688E+06 -0.7119387E-01  0.3266464E+06  0.1588555E+01
  0.7928572E+00  0.2505089E+06 -0.1548731E+01  0.3573467E+06 -0.8110063E-01  0.3523585E+06  0.1592863E+01
  0.8238096E+00  0.2684373E+06 -0.1543667E+01  0.3435186E+06 -0.9180446E-01  0.3782976E+06  0.1597931E+01
  0.8547620E+00  0.2867263E+06 -0.1537782E+01  0.3296379E+06 -0.1033437E+00  0.4054512E+06  0.1603817E+01
  0.8857143E+00  0.3053465E+06 -0.1531026E+01  0.3157743E+06 -0.1156907E+00  0.4327420E+06  0.1610559E+01
  0.9166667E+00  0.3242306E+06 -0.1523307E+01  0.3018833E+06 -0.1288555E+00  0.4606943E+06  0.1618271E+01
  0.9476191E+00  0.3431918E+06 -0.1514575E+01  0.2887156E+06 -0.1428159E+00  0.4882874E+06  0.1626996E+01
  0.9785714E+00  0.3621969E+06 -0.1504760E+01  0.2756498E+06 -0.1577144E+00  0.5167869E+06  0.1636825E+01
  0.1009524E+01  0.3805825E+06 -0.1493840E+01  0.2627268E+06 -0.1734527E+00  0.5441162E+06  0.1647763E+01
  0.1040476E+01  0.3983862E+06 -0.1481808E+01  0.2498756E+06 -0.1901389E+00  0.5710635E+06  0.1659833E+01
  0.1071429E+01  0.4155268E+06 -0.1468768E+01  0.2375490E+06 -0.2076056E+00  0.5967776E+06  0.1672886E+01
  0.1102381E+01  0.4322300E+06 -0.1454893E+01  0.2257527E+06 -0.2259007E+00  0.6214681E+06  0.1686701E+01
  0.1133333E+01  0.4481118E+06 -0.1440149E+01  0.2141929E+06 -0.2453063E+00  0.6457340E+06  0.1701448E+01
  0.1164286E+01  0.4624431E+06 -0.1424697E+01  0.2028566E+06 -0.2656497E+00  0.6672518E+06  0.1716891E+01
  0.1195238E+01  0.4752366E+06 -0.1408662E+01  0.1917132E+06 -0.2871679E+00  0.6868397E+06  0.1732972E+01
  0.1226190E+01  0.4862940E+06 -0.1392301E+01  0.1809597E+06 -0.3095856E+00  0.7038268E+06  0.1749391E+01
  0.1257143E+01  0.4955677E+06 -0.1376079E+01  0.1710184E+06 -0.3324168E+00  0.7171994E+06  0.1765492E+01
  0.1288095E+01  0.5035131E+06 -0.1360278E+01  0.1613079E+06 -0.3563857E+00  0.7296526E+06  0.1781298E+01
  0.1319048E+01  0.5089815E+06 -0.1345001E+01  0.1519368E+06 -0.3816029E+00  0.7382778E+06  0.1796611E+01
  0.1350000E+01  0.5121614E+06 -0.1330665E+01  0.1428337E+06 -0.4080027E+00  0.7430664E+06  0.1810949E+01
  0.1380952E+01  0.5133303E+06 -0.1317518E+01  0.1339718E+06 -0.4360062E+00  0.7452620E+06  0.1824190E+01
  0.1411905E+01  0.5120271E+06 -0.1306014E+01  0.1255205E+06 -0.4650526E+00  0.7438421E+06  0.1835688E+01
  0.1442857E+01  0.5093296E+06 -0.1296548E+01  0.1177913E+06 -0.4933941E+00  0.7391106E+06  0.1844959E+01
  0.1473810E+01  0.5050518E+06 -0.1289048E+01  0.1103538E+06 -0.5231629E+00  0.7325616E+06  0.1852460E+01
  0.1504762E+01  0.4992011E+06 -0.1283761E+01  0.1032440E+06 -0.5544921E+00  0.7240494E+06  0.1857895E+01
  0.1535714E+01  0.4917607E+06 -0.1281098E+01  0.9642815E+05 -0.5871478E+00  0.7126941E+06  0.1860534E+01
  0.1566667E+01  0.4829994E+06 -0.1281120E+01  0.8989273E+05 -0.6214551E+00  0.6990963E+06  0.1860457E+01
  0.1597619E+01  0.4732962E+06 -0.1283690E+01  0.8364659E+05 -0.6577409E+00  0.6844434E+06  0.1858092E+01
  0.1628572E+01  0.4627778E+06 -0.1289006E+01  0.7773539E+05 -0.6951500E+00  0.6684400E+06  0.1852942E+01
  0.1659524E+01  0.4516945E+06 -0.1297313E+01  0.7233434E+05 -0.7306322E+00  0.6507499E+06  0.1844198E+01
  0.1690476E+01  0.4402234E+06 -0.1308263E+01  0.6719034E+05 -0.7675638E+00  0.6326346E+06  0.1832980E+01
  0.1721429E+01  0.4286027E+06 -0.1321651E+01  0.6234232E+05 -0.8063195E+00  0.6148321E+06  0.1819881E+01
  0.1752381E+01  0.4165380E+06 -0.1337865E+01  0.5776166E+05 -0.8467926E+00  0.5960553E+06  0.1803767E+01
  0.1783333E+01  0.4043829E+06 -0.1356732E+01  0.5341943E+05 -0.8887778E+00  0.5770091E+06  0.1784837E+01
  0.1814286E+01  0.3921776E+06 -0.1378152E+01  0.4932879E+05 -0.9327724E+00  0.5578591E+06  0.1763451E+01
  0.1845238E+01  0.3800791E+06 -0.1401845E+01  0.4548534E+05 -0.9783533E+00  0.5390502E+06  0.1740151E+01
  0.1876190E+01  0.3681269E+06 -0.1427832E+01  0.4186780E+05 -0.1024790E+01  0.5204441E+06  0.1714575E+01
  0.1907143E+01  0.3563934E+06 -0.1456371E+01  0.3852556E+05 -0.1069645E+01  0.5016532E+06  0.1685438E+01
  0.1938095E+01  0.3448829E+06 -0.1487129E+01  0.3539140E+05 -0.1115717E+01  0.4831688E+06  0.1653950E+01
  0.1969048E+01  0.3337095E+06 -0.1519572E+01  0.3243072E+05 -0.1165267E+01  0.4654793E+06  0.1621665E+01
  0.2000000E+01  0.3228162E+06 -0.1553970E+01  0.2968340E+05 -0.1216690E+01  0.4482016E+06  0.1587501E+01
