VARIABLES="w (rad/s)"
"abs(F   1   1)" "angle(F   1   1)"
"abs(F   1   2)" "angle(F   1   2)"
"abs(F   1   3)" "angle(F   1   3)"
Zone t="Diffraction force - beta =   0.000 deg",I=    64,F=POINT
  0.5000000E-01  0.2923706E+04 -0.1570791E+01  0.2734608E+06 -0.1871664E-04  0.3766066E+04  0.1570788E+01
  0.8095238E-01  0.4783382E+04 -0.1570808E+01  0.2730584E+06 -0.5036976E-04  0.6164334E+04  0.1570803E+01
  0.1119048E+00  0.6685540E+04 -0.1570791E+01  0.2724676E+06 -0.1000684E-03  0.8613893E+04  0.1570799E+01
  0.1428571E+00  0.8649232E+04 -0.1570796E+01  0.2716876E+06 -0.1716819E-03  0.1113494E+05  0.1570801E+01
  0.1738095E+00  0.1070625E+05 -0.1570785E+01  0.2707162E+06 -0.2710923E-03  0.1376558E+05  0.1570807E+01
  0.2047619E+00  0.1286235E+05 -0.1570784E+01  0.2695522E+06 -0.4067146E-03  0.1652214E+05  0.1570809E+01
  0.2357143E+00  0.1516108E+05 -0.1570773E+01  0.2681937E+06 -0.5911121E-03  0.1945373E+05  0.1570819E+01
  0.2666667E+00  0.1763888E+05 -0.1570758E+01  0.2666383E+06 -0.8396677E-03  0.2259645E+05  0.1570829E+01
  0.2976190E+00  0.2032560E+05 -0.1570744E+01  0.2648835E+06 -0.1178181E-02  0.2599742E+05  0.1570853E+01
  0.3285715E+00  0.2325523E+05 -0.1570714E+01  0.2629282E+06 -0.1633575E-02  0.2970892E+05  0.1570880E+01
  0.3595238E+00  0.2649931E+05 -0.1570674E+01  0.2607771E+06 -0.2247853E-02  0.3378491E+05  0.1570922E+01
  0.3904762E+00  0.3008742E+05 -0.1570611E+01  0.2584234E+06 -0.3068968E-02  0.3826694E+05  0.1570983E+01
  0.4214286E+00  0.3406228E+05 -0.1570517E+01  0.2558887E+06 -0.4128684E-02  0.4323355E+05  0.1571075E+01
  0.4523810E+00  0.3843369E+05 -0.1570383E+01  0.2531712E+06 -0.5509438E-02  0.4867520E+05  0.1571209E+01
  0.4833333E+00  0.4326778E+05 -0.1570194E+01  0.2502928E+06 -0.7180097E-02  0.5462599E+05  0.1571396E+01
  0.5142857E+00  0.4846814E+05 -0.1569931E+01  0.2472630E+06 -0.9236471E-02  0.6105202E+05  0.1571661E+01
  0.5452381E+00  0.5406213E+05 -0.1569577E+01  0.2440848E+06 -0.1165464E-01  0.6790516E+05  0.1572015E+01
  0.5761905E+00  0.6004225E+05 -0.1569113E+01  0.2407788E+06 -0.1444697E-01  0.7519314E+05  0.1572479E+01
  0.6071429E+00  0.6637998E+05 -0.1568508E+01  0.2373566E+06 -0.1769419E-01  0.8285363E+05  0.1573086E+01
  0.6380953E+00  0.7305709E+05 -0.1567745E+01  0.2338029E+06 -0.2133104E-01  0.9085495E+05  0.1573848E+01
  0.6690477E+00  0.7996741E+05 -0.1566787E+01  0.2301495E+06 -0.2543929E-01  0.9914994E+05  0.1574805E+01
  0.7000000E+00  0.8719916E+05 -0.1565597E+01  0.2264069E+06 -0.3007111E-01  0.1077623E+06  0.1575996E+01
  0.7309524E+00  0.9475820E+05 -0.1564143E+01  0.2225712E+06 -0.3520266E-01  0.1166028E+06  0.1577449E+01
  0.7619048E+00  0.1026492E+06 -0.1562379E+01  0.2186602E+06 -0.4088413E-01  0.1257801E+06  0.1579213E+01
  0.7928572E+00  0.1107370E+06 -0.1560255E+01  0.2146932E+06 -0.4715116E-01  0.1351448E+06  0.1581337E+01
  0.8238096E+00  0.1190947E+06 -0.1557721E+01  0.2106711E+06 -0.5402215E-01  0.1447462E+06  0.1583870E+01
  0.8547620E+00  0.1277814E+06 -0.1554729E+01  0.2065958E+06 -0.6151502E-01  0.1545717E+06  0.1586861E+01
  0.8857143E+00  0.1366615E+06 -0.1551213E+01  0.2024965E+06 -0.6965777E-01  0.1646155E+06  0.1590376E+01
  0.9166667E+00  0.1458166E+06 -0.1547119E+01  0.1983757E+06 -0.7846911E-01  0.1747969E+06  0.1594470E+01
  0.9476191E+00  0.1552638E+06 -0.1542379E+01  0.1942505E+06 -0.8796872E-01  0.1851401E+06  0.1599209E+01
  0.9785714E+00  0.1650113E+06 -0.1536931E+01  0.1901171E+06 -0.9816812E-01  0.1956545E+06  0.1604655E+01
  0.1009524E+01  0.1749399E+06 -0.1530699E+01  0.1859865E+06 -0.1090891E+00  0.2063853E+06  0.1610885E+01
  0.1040476E+01  0.1849234E+06 -0.1523618E+01  0.1818808E+06 -0.1207602E+00  0.2170106E+06  0.1617963E+01
  0.1071429E+01  0.1951963E+06 -0.1515627E+01  0.1777837E+06 -0.1331829E+00  0.2278178E+06  0.1625950E+01
  0.1102381E+01  0.2055226E+06 -0.1506665E+01  0.1737198E+06 -0.1464049E+00  0.2384728E+06  0.1634905E+01
  0.1133333E+01  0.2161150E+06 -0.1496692E+01  0.1696930E+06 -0.1604306E+00  0.2491969E+06  0.1644872E+01
  0.1164286E+01  0.2267599E+06 -0.1485621E+01  0.1657125E+06 -0.1752736E+00  0.2598618E+06  0.1655933E+01
  0.1195238E+01  0.2373227E+06 -0.1473435E+01  0.1617897E+06 -0.1909607E+00  0.2701734E+06  0.1668111E+01
  0.1226190E+01  0.2479390E+06 -0.1460073E+01  0.1579107E+06 -0.2074945E+00  0.2804238E+06  0.1681458E+01
  0.1257143E+01  0.2581410E+06 -0.1445624E+01  0.1540972E+06 -0.2250992E+00  0.2900761E+06  0.1695891E+01
  0.1288095E+01  0.2686403E+06 -0.1429860E+01  0.1503347E+06 -0.2432773E+00  0.2997168E+06  0.1711631E+01
  0.1319048E+01  0.2786849E+06 -0.1413048E+01  0.1466378E+06 -0.2625645E+00  0.3087847E+06  0.1728424E+01
  0.1350000E+01  0.2882301E+06 -0.1395171E+01  0.1430204E+06 -0.2828315E+00  0.3170858E+06  0.1746263E+01
  0.1380952E+01  0.2972214E+06 -0.1376293E+01  0.1394838E+06 -0.3040912E+00  0.3246077E+06  0.1765103E+01
  0.1411905E+01  0.3039978E+06 -0.1358396E+01  0.1361471E+06 -0.3260024E+00  0.3302790E+06  0.1782969E+01
  0.1442857E+01  0.3118005E+06 -0.1338164E+01  0.1328077E+06 -0.3493650E+00  0.3361067E+06  0.1803151E+01
  0.1473810E+01  0.3188283E+06 -0.1317400E+01  0.1295667E+06 -0.3738239E+00  0.3408494E+06  0.1823856E+01
  0.1504762E+01  0.3251129E+06 -0.1296269E+01  0.1264251E+06 -0.3993990E+00  0.3446522E+06  0.1844922E+01
  0.1535714E+01  0.3305035E+06 -0.1274922E+01  0.1233929E+06 -0.4260519E+00  0.3475079E+06  0.1866211E+01
  0.1566667E+01  0.3347858E+06 -0.1253692E+01  0.1204876E+06 -0.4538980E+00  0.3490426E+06  0.1887338E+01
  0.1597619E+01  0.3379197E+06 -0.1232724E+01  0.1177159E+06 -0.4829650E+00  0.3493118E+06  0.1908207E+01
  0.1628572E+01  0.3401286E+06 -0.1212303E+01  0.1150634E+06 -0.5131291E+00  0.3486430E+06  0.1928544E+01
  0.1659524E+01  0.3412760E+06 -0.1192738E+01  0.1125554E+06 -0.5444734E+00  0.3467788E+06  0.1947973E+01
  0.1690476E+01  0.3412914E+06 -0.1174362E+01  0.1102030E+06 -0.5769626E+00  0.3435796E+06  0.1966182E+01
  0.1721429E+01  0.3404771E+06 -0.1157326E+01  0.1079985E+06 -0.6105817E+00  0.3395715E+06  0.1983042E+01
  0.1752381E+01  0.3389106E+06 -0.1141783E+01  0.1059556E+06 -0.6452053E+00  0.3348584E+06  0.1998414E+01
  0.1783333E+01  0.3363986E+06 -0.1127792E+01  0.1041233E+06 -0.6806521E+00  0.3292948E+06  0.2012242E+01
  0.1814286E+01  0.3331204E+06 -0.1115677E+01  0.1024898E+06 -0.7166938E+00  0.3229074E+06  0.2024136E+01
  0.1845238E+01  0.3291514E+06 -0.1105425E+01  0.1010561E+06 -0.7531292E+00  0.3158518E+06  0.2034138E+01
  0.1876190E+01  0.3247636E+06 -0.1096961E+01  0.9979672E+05 -0.7898920E+00  0.3085722E+06  0.2042410E+01
  0.1907143E+01  0.3200228E+06 -0.1090368E+01  0.9871419E+05 -0.8265892E+00  0.3010883E+06  0.2048822E+01
  0.1938095E+01  0.3147137E+06 -0.1086082E+01  0.9783704E+05 -0.8627897E+00  0.2929365E+06  0.2052769E+01
  0.1969048E+01  0.3092161E+06 -0.1083764E+01  0.9710155E+05 -0.8986008E+00  0.2847644E+06  0.2054803E+01
  0.2000000E+01  0.3035508E+06 -0.1083410E+01  0.9652409E+05 -0.9335690E+00  0.2765685E+06  0.2054813E+01
