VARIABLES="w (rad/s)"
"A   1   1" "B   1   1"
"A   1   2" "B   1   2"
"A   1   3" "B   1   3"
Zone t="Motion of body    1 in DoF   1",I=    64,F=POINT
  0.5000000E-01  0.8015980E+05  0.3451251E-02 -0.8850098E-02 -0.1810255E-04 -0.1779974E+06 -0.6557456E-02
  0.8095238E-01  0.8072962E+05  0.1494305E-01 -0.2179426E-02  0.7152856E-05 -0.1789567E+06 -0.2851714E-01
  0.1119048E+00  0.8085192E+05  0.4199188E-01 -0.1772617E-02 -0.4411116E-04 -0.1791607E+06 -0.7980489E-01
  0.1428571E+00  0.8104553E+05  0.9414137E-01  0.5327224E-02  0.4238018E-04 -0.1792887E+06 -0.1781392E+00
  0.1738095E+00  0.8107315E+05  0.1872907E+00  0.1755806E-03 -0.6704475E-05 -0.1793841E+06 -0.3541805E+00
  0.2047619E+00  0.8121097E+05  0.3457739E+00  0.9594407E-02  0.7201661E-04 -0.1794770E+06 -0.6532097E+00
  0.2357143E+00  0.8126862E+05  0.6075840E+00  0.3786954E-02  0.6250548E-04 -0.1795673E+06 -0.1146398E+01
  0.2666667E+00  0.8133084E+05  0.1034338E+01 -0.4534721E-02 -0.9697350E-04 -0.1796758E+06 -0.1947279E+01
  0.2976190E+00  0.8148815E+05  0.1732176E+01  0.1666260E-03 -0.5377270E-04 -0.1798254E+06 -0.3253004E+01
  0.3285715E+00  0.8162785E+05  0.2860439E+01 -0.7314266E-03  0.1357365E-03 -0.1799628E+06 -0.5357261E+01
  0.3595238E+00  0.8169495E+05  0.4683995E+01 -0.1676446E-02 -0.6970484E-04 -0.1801462E+06 -0.8753455E+01
  0.3904762E+00  0.8187463E+05  0.7616896E+01  0.1797560E-02 -0.1063123E-03 -0.1803368E+06 -0.1418671E+02
  0.4214286E+00  0.8210798E+05  0.1222643E+02 -0.1086219E-02 -0.7491559E-04 -0.1805782E+06 -0.2268656E+02
  0.4523810E+00  0.8228316E+05  0.1944346E+02  0.3777755E-02  0.6698370E-03 -0.1808179E+06 -0.3595590E+02
  0.4833333E+00  0.8245686E+05  0.3014480E+02  0.1736345E-03 -0.1187921E-03 -0.1811062E+06 -0.5554830E+02
  0.5142857E+00  0.8276940E+05  0.4601535E+02 -0.4702674E-02 -0.2539307E-03 -0.1814152E+06 -0.8440609E+02
  0.5452381E+00  0.8306699E+05  0.6854023E+02  0.2658628E-03 -0.5917698E-03 -0.1817796E+06 -0.1251559E+03
  0.5761905E+00  0.8330425E+05  0.9962460E+02 -0.7944658E-03 -0.1727939E-03 -0.1821710E+06 -0.1811562E+03
  0.6071429E+00  0.8360891E+05  0.1421907E+03  0.4272460E-03  0.4932284E-04 -0.1825935E+06 -0.2573518E+03
  0.6380953E+00  0.8397748E+05  0.1985114E+03 -0.1180108E-01 -0.1751244E-02 -0.1830410E+06 -0.3573774E+03
  0.6690477E+00  0.8440518E+05  0.2724508E+03 -0.1222441E-01 -0.3181577E-02 -0.1835512E+06 -0.4877002E+03
  0.7000000E+00  0.8482059E+05  0.3682507E+03 -0.5667550E-02 -0.1549959E-02 -0.1840899E+06 -0.6554609E+03
  0.7309524E+00  0.8519083E+05  0.4897882E+03 -0.2095872E-01 -0.4712701E-02 -0.1846506E+06 -0.8670359E+03
  0.7619048E+00  0.8563740E+05  0.6430552E+03 -0.1678276E-01 -0.4019022E-02 -0.1852840E+06 -0.1131644E+04
  0.7928572E+00  0.8614428E+05  0.8342475E+03 -0.1106606E-01 -0.1322031E-02 -0.1858902E+06 -0.1458349E+04
  0.8238096E+00  0.8673428E+05  0.1070533E+04 -0.3648879E-02 -0.2667665E-02 -0.1865743E+06 -0.1858130E+04
  0.8547620E+00  0.8726692E+05  0.1358506E+04 -0.8568724E-02 -0.2648354E-02 -0.1872344E+06 -0.2341510E+04
  0.8857143E+00  0.8782373E+05  0.1707103E+04  0.3273256E-02 -0.1983643E-03 -0.1879561E+06 -0.2921531E+04
  0.9166667E+00  0.8837552E+05  0.2124934E+04  0.4361239E-02  0.3511429E-02 -0.1886648E+06 -0.3610095E+04
  0.9476191E+00  0.8896476E+05  0.2622053E+04 -0.6086647E-02 -0.1186371E-02 -0.1893935E+06 -0.4420652E+04
  0.9785714E+00  0.8955327E+05  0.3208298E+04  0.1521869E-01  0.4410744E-02 -0.1900718E+06 -0.5365659E+04
  0.1009524E+01  0.9022579E+05  0.3896667E+04  0.5214619E-02  0.1776695E-02 -0.1907987E+06 -0.6461130E+04
  0.1040476E+01  0.9087468E+05  0.4696809E+04 -0.3754291E-02 -0.2109528E-02 -0.1914610E+06 -0.7718925E+04
  0.1071429E+01  0.9153095E+05  0.5621159E+04  0.1068115E-02 -0.1247406E-02 -0.1921141E+06 -0.9153876E+04
  0.1102381E+01  0.9216388E+05  0.6680896E+04  0.8692566E-02  0.5258560E-02 -0.1927871E+06 -0.1078156E+05
  0.1133333E+01  0.9268494E+05  0.7882360E+04 -0.3231273E-03  0.5397797E-03 -0.1932698E+06 -0.1260245E+05
  0.1164286E+01  0.9323000E+05  0.9241928E+04  0.1048457E-02  0.1613617E-02 -0.1937670E+06 -0.1463525E+05
  0.1195238E+01  0.9370428E+05  0.1076370E+05 -0.5004396E-02 -0.5290985E-02 -0.1941184E+06 -0.1687675E+05
  0.1226190E+01  0.9417302E+05  0.1245936E+05 -0.2513700E-02 -0.2273560E-02 -0.1943823E+06 -0.1933268E+05
  0.1257143E+01  0.9453401E+05  0.1432665E+05  0.6044561E-02  0.2201080E-02 -0.1944517E+06 -0.2199289E+05
  0.1288095E+01  0.9493554E+05  0.1639047E+05 -0.2606122E-03 -0.1312256E-02 -0.1945135E+06 -0.2487990E+05
  0.1319048E+01  0.9517727E+05  0.1863058E+05  0.1735205E-02 -0.2418518E-02 -0.1943702E+06 -0.2796288E+05
  0.1350000E+01  0.9534552E+05  0.2105463E+05  0.2780490E-02  0.6942749E-03 -0.1941035E+06 -0.3123679E+05
  0.1380952E+01  0.9534402E+05  0.2364702E+05  0.2320388E-02  0.3173828E-02 -0.1936063E+06 -0.3467047E+05
  0.1411905E+01  0.9497179E+05  0.2624957E+05  0.4863257E-02  0.8773804E-03 -0.1927947E+06 -0.3806973E+05
  0.1442857E+01  0.9472237E+05  0.2912826E+05 -0.3151469E-02 -0.3479004E-02 -0.1919211E+06 -0.4171791E+05
  0.1473810E+01  0.9434162E+05  0.3213830E+05  0.2464085E-02  0.5767822E-02 -0.1909322E+06 -0.4545875E+05
  0.1504762E+01  0.9375582E+05  0.3522909E+05  0.2798732E-02  0.3814697E-03 -0.1896183E+06 -0.4918148E+05
  0.1535714E+01  0.9309394E+05  0.3840879E+05 -0.2782067E-03  0.1174927E-02 -0.1882273E+06 -0.5291422E+05
  0.1566667E+01  0.9228658E+05  0.4162744E+05  0.2162203E-02  0.1480103E-02 -0.1866188E+06 -0.5656291E+05
  0.1597619E+01  0.9132285E+05  0.4485573E+05 -0.5253026E-02  0.1159668E-02 -0.1848203E+06 -0.6009291E+05
  0.1628572E+01  0.9026000E+05  0.4807793E+05  0.2248663E-02 -0.6408691E-03 -0.1829288E+06 -0.6348953E+05
  0.1659524E+01  0.8906787E+05  0.5124063E+05  0.3291695E-02 -0.6210327E-02 -0.1808787E+06 -0.6666320E+05
  0.1690476E+01  0.8777459E+05  0.5434077E+05 -0.1733055E-02 -0.3051758E-02 -0.1788136E+06 -0.6966498E+05
  0.1721429E+01  0.8632691E+05  0.5729422E+05 -0.3846988E-02  0.3906250E-02 -0.1765679E+06 -0.7232841E+05
  0.1752381E+01  0.8481044E+05  0.6011696E+05 -0.1933057E-02 -0.5187988E-03 -0.1743197E+06 -0.7473273E+05
  0.1783333E+01  0.8324473E+05  0.6277177E+05 -0.2207533E-02 -0.6103516E-04 -0.1720472E+06 -0.7679877E+05
  0.1814286E+01  0.8161766E+05  0.6523155E+05  0.1816637E-02  0.2014160E-02 -0.1697680E+06 -0.7853058E+05
  0.1845238E+01  0.7993852E+05  0.6746979E+05 -0.1273469E-02 -0.3265381E-02 -0.1674669E+06 -0.7987707E+05
  0.1876190E+01  0.7826652E+05  0.6950716E+05 -0.1789229E-02 -0.1953125E-02 -0.1652564E+06 -0.8091404E+05
  0.1907143E+01  0.7658925E+05  0.7130200E+05 -0.1088117E-02 -0.1281738E-02 -0.1630783E+06 -0.8156269E+05
  0.1938095E+01  0.7492383E+05  0.7288258E+05  0.6770854E-03 -0.5859375E-02 -0.1610107E+06 -0.8191936E+05
  0.1969048E+01  0.7328752E+05  0.7424798E+05 -0.1394878E-02 -0.1098633E-02 -0.1590694E+06 -0.8201537E+05
  0.2000000E+01  0.7163127E+05  0.7532145E+05  0.1434326E-02 -0.1007080E-02 -0.1571174E+06 -0.8165666E+05
Zone t="Motion of body    1 in DoF   2",I=    64,F=POINT
  0.5000000E-01  0.6847382E-02 -0.5602837E-05  0.2047330E+05  0.4748212E+02  0.6008148E-02  0.8374453E-05
  0.8095238E-01  0.3864064E-02  0.1633167E-04  0.2028320E+05  0.7877370E+02  0.6714989E-03  0.6783009E-04
  0.1119048E+00 -0.2897547E-02  0.3576279E-05  0.2018188E+05  0.1128958E+03 -0.5624649E-02 -0.1251698E-04
  0.1428571E+00 -0.1628876E-02 -0.6914139E-05  0.2013153E+05  0.1511943E+03 -0.7570266E-02 -0.8726120E-04
  0.1738095E+00 -0.4235881E-02  0.3790855E-04  0.2013446E+05  0.1953186E+03 -0.8998505E-03  0.1192093E-06
  0.2047619E+00 -0.3073936E-02 -0.3027916E-04  0.2016477E+05  0.2474009E+03 -0.1318998E-01  0.4601479E-04
  0.2357143E+00  0.7800478E-02  0.3862381E-04  0.2022464E+05  0.3103934E+03 -0.1191110E-01 -0.1671314E-03
  0.2666667E+00  0.7438659E-03 -0.5197525E-04  0.2031321E+05  0.3868575E+03 -0.2168655E-01 -0.3266335E-04
  0.2976190E+00 -0.1922607E-02 -0.1096725E-03  0.2040771E+05  0.4824381E+03  0.1730347E-01  0.2231598E-03
  0.3285715E+00 -0.3761623E-02 -0.1029968E-03  0.2052994E+05  0.6002808E+03 -0.3958992E-02  0.5583763E-03
  0.3595238E+00 -0.2886033E-02 -0.7724762E-04  0.2064374E+05  0.7473048E+03  0.7756214E-02 -0.7438660E-04
  0.3904762E+00 -0.2090640E-02 -0.4386902E-04  0.2075488E+05  0.9288735E+03 -0.7307471E-02  0.4005432E-03
  0.4214286E+00  0.7965604E-03 -0.4768372E-04  0.2082191E+05  0.1143956E+04 -0.9214756E-02 -0.2641678E-03
  0.4523810E+00 -0.6745990E-03  0.4577637E-03  0.2088068E+05  0.1403772E+04  0.4233109E-02 -0.2698898E-03
  0.4833333E+00 -0.7261079E-03 -0.4768372E-04  0.2087570E+05  0.1688403E+04 -0.1524827E-01 -0.1550674E-02
  0.5142857E+00 -0.4153782E-03  0.2212524E-03  0.2081592E+05  0.2011374E+04 -0.1385583E-01  0.1785278E-02
  0.5452381E+00 -0.1791075E-02  0.1068115E-03  0.2072091E+05  0.2356344E+04  0.5639089E-02  0.1142502E-02
  0.5761905E+00 -0.4184186E-02 -0.3929138E-03  0.2058817E+05  0.2717754E+04  0.6011458E-02  0.1436234E-02
  0.6071429E+00 -0.1507927E-03  0.1182556E-03  0.2041617E+05  0.3103823E+04 -0.2080940E-01 -0.4291534E-03
  0.6380953E+00 -0.2678259E-02 -0.6103516E-03  0.2021806E+05  0.3495042E+04  0.4555432E-02 -0.2460480E-02
  0.6690477E+00 -0.1151740E-01  0.1106262E-02  0.1998928E+05  0.3898665E+04  0.1529191E-01 -0.4234314E-03
  0.7000000E+00  0.3335135E-02  0.5798340E-03  0.1973875E+05  0.4315704E+04 -0.4621233E-02 -0.1186371E-02
  0.7309524E+00 -0.3548787E-02  0.1365662E-02  0.1947644E+05  0.4735798E+04 -0.2275398E-02  0.6103516E-03
  0.7619048E+00  0.5207061E-03 -0.1251221E-02  0.1919476E+05  0.5160479E+04  0.1219654E-01  0.1552582E-02
  0.7928572E+00 -0.5196236E-02 -0.2006531E-02  0.1888620E+05  0.5588504E+04 -0.1341399E-01 -0.8544922E-03
  0.8238096E+00 -0.6445736E-02  0.1655579E-02  0.1856353E+05  0.6016019E+04  0.1274329E-01  0.1220703E-03
  0.8547620E+00 -0.2963350E-02 -0.1167297E-02  0.1822950E+05  0.6439471E+04 -0.3034756E-02  0.3143311E-02
  0.8857143E+00  0.6374236E-03  0.7781982E-03  0.1788971E+05  0.6856213E+04 -0.2653060E-02 -0.4852295E-02
  0.9166667E+00  0.1115279E-02 -0.0000000E+00  0.1754444E+05  0.7264003E+04 -0.6741610E-02 -0.3456116E-02
  0.9476191E+00 -0.1416997E-02 -0.3356934E-03  0.1718986E+05  0.7660986E+04 -0.2592460E-02  0.2510071E-02
  0.9785714E+00  0.3243328E-02 -0.1770020E-02  0.1682435E+05  0.8045375E+04 -0.1387770E-01  0.2670288E-02
  0.1009524E+01 -0.1269646E-02 -0.2014160E-02  0.1645536E+05  0.8414411E+04  0.6801677E-02  0.6919861E-02
  0.1040476E+01  0.3900943E-02 -0.1525879E-03  0.1608505E+05  0.8766223E+04 -0.2243775E-02 -0.1037598E-02
  0.1071429E+01  0.3788249E-02 -0.3204346E-03  0.1572014E+05  0.9098158E+04 -0.4101563E-02  0.2319336E-02
  0.1102381E+01  0.7834382E-02  0.9613037E-03  0.1536155E+05  0.9408868E+04 -0.1312190E-01  0.7629395E-03
  0.1133333E+01 -0.1615636E-03 -0.4577637E-03  0.1500180E+05  0.9699582E+04  0.3204346E-02  0.1922607E-02
  0.1164286E+01  0.1022245E-02  0.7629395E-04  0.1465358E+05  0.9966376E+04 -0.4573892E-02 -0.1220703E-02
  0.1195238E+01 -0.2297937E-03  0.8697510E-03  0.1430995E+05  0.1021126E+05 -0.6255495E-02 -0.5035400E-03
  0.1226190E+01  0.2289707E-02  0.1663208E-02  0.1397685E+05  0.1043218E+05 -0.2327039E-02  0.7934570E-03
  0.1257143E+01 -0.7525357E-03 -0.4882812E-03  0.1364747E+05  0.1063575E+05  0.5097823E-02  0.2426147E-02
  0.1288095E+01 -0.1231985E-02  0.3051758E-04  0.1333089E+05  0.1080513E+05 -0.8481743E-02  0.7476807E-03
  0.1319048E+01  0.1989702E-02  0.6408691E-03  0.1302415E+05  0.1095570E+05 -0.1174156E-01 -0.9613037E-02
  0.1350000E+01  0.1243309E-02  0.1831055E-03  0.1273212E+05  0.1108044E+05  0.4046405E-02  0.8834839E-02
  0.1380952E+01  0.2287240E-02 -0.3326416E-02  0.1245338E+05  0.1118143E+05  0.5524734E-04  0.3143311E-02
  0.1411905E+01 -0.3458316E-03  0.4669189E-02  0.1220787E+05  0.1129157E+05  0.2096604E-02 -0.2120972E-02
  0.1442857E+01 -0.5816469E-03  0.2105713E-02  0.1195790E+05  0.1134839E+05  0.3384128E-02  0.1220703E-03
  0.1473810E+01  0.3561534E-02  0.1586914E-02  0.1172408E+05  0.1138417E+05 -0.5518307E-02 -0.7171631E-03
  0.1504762E+01 -0.1997646E-02  0.1373291E-02  0.1149802E+05  0.1140279E+05 -0.4482028E-02  0.3906250E-02
  0.1535714E+01 -0.8544921E-03  0.5187988E-03  0.1128972E+05  0.1140010E+05 -0.2662836E-02 -0.4211426E-02
  0.1566667E+01  0.1646001E-02  0.2716064E-02  0.1109421E+05  0.1138018E+05 -0.4762690E-02  0.4867554E-02
  0.1597619E+01 -0.7831784E-03 -0.7934570E-03  0.1090954E+05  0.1134637E+05  0.5396290E-02  0.2838135E-02
  0.1628572E+01  0.2473530E-02 -0.1312256E-02  0.1074144E+05  0.1129467E+05 -0.1302351E-02 -0.2685547E-02
  0.1659524E+01  0.5884594E-03  0.1068115E-02  0.1058685E+05  0.1122747E+05  0.8100512E-02  0.3616333E-02
  0.1690476E+01  0.2753029E-02 -0.1129150E-02  0.1044749E+05  0.1114787E+05 -0.3357793E-02  0.2227783E-02
  0.1721429E+01  0.8864027E-03 -0.1647949E-02  0.1031744E+05  0.1105830E+05  0.3581067E-02  0.1373291E-03
  0.1752381E+01  0.3482985E-02  0.1098633E-02  0.1020376E+05  0.1096053E+05  0.1314827E-02 -0.1647949E-02
  0.1783333E+01 -0.1206443E-02  0.3662109E-03  0.1010123E+05  0.1084900E+05 -0.4757320E-02  0.2593994E-03
  0.1814286E+01  0.2523107E-04  0.3479004E-02  0.1001222E+05  0.1073448E+05 -0.6173202E-02  0.1647949E-02
  0.1845238E+01 -0.2563476E-03 -0.2899170E-02  0.9932229E+04  0.1061632E+05  0.7314178E-02 -0.1022339E-02
  0.1876190E+01  0.5042371E-03 -0.1495361E-02  0.9866395E+04  0.1049341E+05  0.1344361E-01  0.1403809E-02
  0.1907143E+01  0.2280246E-02 -0.3967285E-03  0.9811764E+04  0.1036831E+05  0.1496161E-02 -0.0000000E+00
  0.1938095E+01 -0.6455930E-03  0.2319336E-02  0.9766022E+04  0.1024379E+05  0.4507341E-02 -0.1617432E-02
  0.1969048E+01  0.2309299E-02 -0.1831055E-03  0.9731251E+04  0.1012373E+05  0.5230794E-02  0.3890991E-02
  0.2000000E+01 -0.1007080E-02 -0.0000000E+00  0.9698938E+04  0.1000739E+05  0.2109528E-02  0.4959106E-02
Zone t="Motion of body    1 in DoF   3",I=    64,F=POINT
  0.5000000E-01 -0.1767700E+06 -0.6343972E-02  0.7705688E-02 -0.1422344E-04  0.5725696E+06  0.1216814E-01
  0.8095238E-01 -0.1779597E+06 -0.2766871E-01 -0.1976798E-01 -0.8564193E-04  0.5740138E+06  0.5296179E-01
  0.1119048E+00 -0.1782020E+06 -0.7733425E-01 -0.1153905E-01 -0.9967053E-04  0.5742186E+06  0.1471377E+00
  0.1428571E+00 -0.1783673E+06 -0.1725886E+00  0.1429939E-01  0.1430811E-03  0.5743414E+06  0.3265266E+00
  0.1738095E+00 -0.1784512E+06 -0.3434765E+00 -0.1005199E-01 -0.5044742E-04  0.5744628E+06  0.6499775E+00
  0.2047619E+00 -0.1785620E+06 -0.6337261E+00  0.2021346E-02  0.1599472E-03  0.5745763E+06  0.1197849E+01
  0.2357143E+00 -0.1786365E+06 -0.1111356E+01  0.1611074E-01 -0.5768309E-04  0.5747129E+06  0.2096899E+01
  0.2666667E+00 -0.1787304E+06 -0.1887237E+01  0.3945350E-01  0.7824060E-03  0.5748519E+06  0.3553627E+01
  0.2976190E+00 -0.1788871E+06 -0.3153679E+01 -0.1782898E-01 -0.4500644E-03  0.5750384E+06  0.5922954E+01
  0.3285715E+00 -0.1790170E+06 -0.5193540E+01  0.4992277E-02 -0.1499504E-03  0.5752284E+06  0.9727062E+01
  0.3595238E+00 -0.1791709E+06 -0.8482903E+01  0.2127388E-01  0.9476021E-03  0.5754736E+06  0.1585291E+02
  0.3904762E+00 -0.1793694E+06 -0.1374928E+02  0.6838542E-04  0.1271777E-03  0.5757171E+06  0.2560981E+02
  0.4214286E+00 -0.1796051E+06 -0.2199228E+02 -0.9178548E-02 -0.4287213E-03  0.5760354E+06  0.4080355E+02
  0.4523810E+00 -0.1798251E+06 -0.3485155E+02  0.6037661E-02  0.1747683E-02  0.5763543E+06  0.6445137E+02
  0.4833333E+00 -0.1800880E+06 -0.5382229E+02  0.1370923E-01  0.8719265E-03  0.5767697E+06  0.9917619E+02
  0.5142857E+00 -0.1804021E+06 -0.8182784E+02  0.1494620E-01  0.7582009E-03  0.5772082E+06  0.1500858E+03
  0.5452381E+00 -0.1807611E+06 -0.1213497E+03  0.5737038E-03  0.8565784E-03  0.5776610E+06  0.2215900E+03
  0.5761905E+00 -0.1811214E+06 -0.1755509E+03  0.3131519E-01  0.3492355E-02  0.5782091E+06  0.3192222E+03
  0.6071429E+00 -0.1815230E+06 -0.2493471E+03  0.1910041E-02 -0.9107590E-03  0.5787799E+06  0.4513415E+03
  0.6380953E+00 -0.1819631E+06 -0.3463289E+03  0.2868368E-01  0.3937364E-02  0.5794159E+06  0.6234991E+03
  0.6690477E+00 -0.1824717E+06 -0.4727377E+03  0.6059748E-01  0.1014662E-01  0.5800792E+06  0.8462117E+03
  0.7000000E+00 -0.1829948E+06 -0.6353271E+03 -0.4926409E-02 -0.1797676E-03  0.5807821E+06  0.1130865E+04
  0.7309524E+00 -0.1835158E+06 -0.8399313E+03  0.4309688E-01  0.1147389E-01  0.5815353E+06  0.1486887E+04
  0.7619048E+00 -0.1841214E+06 -0.1095886E+04  0.5499458E-01  0.1363277E-01  0.5823791E+06  0.1928516E+04
  0.7928572E+00 -0.1847148E+06 -0.1412597E+04  0.4567876E-01  0.1485443E-01  0.5832050E+06  0.2469336E+04
  0.8238096E+00 -0.1854030E+06 -0.1800459E+04  0.3108956E-01  0.9815693E-02  0.5840439E+06  0.3125005E+04
  0.8547620E+00 -0.1860368E+06 -0.2268650E+04  0.1194266E-01  0.3643036E-02  0.5848801E+06  0.3910135E+04
  0.8857143E+00 -0.1867260E+06 -0.2829706E+04 -0.4134639E-03  0.1427650E-02  0.5857527E+06  0.4842656E+04
  0.9166667E+00 -0.1873967E+06 -0.3495403E+04 -0.2696644E-01 -0.3783226E-02  0.5866189E+06  0.5938248E+04
  0.9476191E+00 -0.1880961E+06 -0.4279136E+04 -0.1349368E-01 -0.8840561E-02  0.5874399E+06  0.7214244E+04
  0.9785714E+00 -0.1887474E+06 -0.5193708E+04 -0.2097248E-01 -0.3950119E-02  0.5882270E+06  0.8685767E+04
  0.1009524E+01 -0.1894678E+06 -0.6255271E+04 -0.1318014E-01 -0.1283455E-01  0.5890023E+06  0.1037133E+05
  0.1040476E+01 -0.1901175E+06 -0.7474435E+04 -0.1123354E-01 -0.4146576E-02  0.5896854E+06  0.1228271E+05
  0.1071429E+01 -0.1907573E+06 -0.8864759E+04 -0.8231608E-02  0.2098083E-03  0.5902872E+06  0.1443461E+05
  0.1102381E+01 -0.1914034E+06 -0.1043714E+05 -0.6394850E-02 -0.1154709E-01  0.5908748E+06  0.1684183E+05
  0.1133333E+01 -0.1918455E+06 -0.1219558E+05 -0.7378073E-02 -0.1953125E-02  0.5911956E+06  0.1949698E+05
  0.1164286E+01 -0.1923131E+06 -0.1415687E+05 -0.1572685E-02  0.7591248E-02  0.5914618E+06  0.2241630E+05
  0.1195238E+01 -0.1926407E+06 -0.1632173E+05  0.1908564E-01  0.1079559E-01  0.5915521E+06  0.2558835E+05
  0.1226190E+01 -0.1929036E+06 -0.1869901E+05 -0.1092589E-01 -0.5226135E-02  0.5914872E+06  0.2900965E+05
  0.1257143E+01 -0.1929808E+06 -0.2127243E+05 -0.1577897E-01 -0.6851196E-02  0.5910766E+06  0.3264790E+05
  0.1288095E+01 -0.1930538E+06 -0.2407188E+05  0.2013822E-03  0.2395630E-02  0.5906322E+06  0.3652924E+05
  0.1319048E+01 -0.1929169E+06 -0.2705388E+05 -0.1700501E-01 -0.1303864E-01  0.5899182E+06  0.4059244E+05
  0.1350000E+01 -0.1926560E+06 -0.3021549E+05 -0.8770978E-02 -0.1028442E-01  0.5889481E+06  0.4481215E+05
  0.1380952E+01 -0.1921627E+06 -0.3353012E+05 -0.6408691E-02  0.7263184E-02  0.5877309E+06  0.4914336E+05
  0.1411905E+01 -0.1916465E+06 -0.3694237E+05  0.6419498E-02 -0.2807617E-02  0.5864055E+06  0.5355807E+05
  0.1442857E+01 -0.1907914E+06 -0.4047643E+05 -0.1199250E-01 -0.8361816E-02  0.5846106E+06  0.5794974E+05
  0.1473810E+01 -0.1898207E+06 -0.4408839E+05  0.4224145E-02  0.3372192E-02  0.5827536E+06  0.6233870E+05
  0.1504762E+01 -0.1885444E+06 -0.4769967E+05 -0.8193390E-02 -0.8422852E-02  0.5804946E+06  0.6656637E+05
  0.1535714E+01 -0.1871985E+06 -0.5131520E+05 -0.6418627E-02 -0.0000000E+00  0.5781587E+06  0.7066259E+05
  0.1566667E+01 -0.1856472E+06 -0.5486092E+05  0.1344072E-02  0.5783081E-02  0.5755839E+06  0.7450514E+05
  0.1597619E+01 -0.1839121E+06 -0.5829674E+05 -0.9168918E-03  0.8575439E-02  0.5728261E+06  0.7804727E+05
  0.1628572E+01 -0.1820864E+06 -0.6159786E+05 -0.4122550E-02 -0.2777100E-02  0.5699936E+06  0.8126901E+05
  0.1659524E+01 -0.1801054E+06 -0.6468355E+05  0.4395057E-02  0.1620483E-01  0.5669711E+06  0.8406057E+05
  0.1690476E+01 -0.1781020E+06 -0.6757546E+05 -0.4296531E-02 -0.1065063E-01  0.5640440E+06  0.8651678E+05
  0.1721429E+01 -0.1759290E+06 -0.7016232E+05  0.5540017E-02  0.6835938E-02  0.5609822E+06  0.8844028E+05
  0.1752381E+01 -0.1737544E+06 -0.7249912E+05 -0.1522064E-01 -0.5889893E-02  0.5580719E+06  0.8998453E+05
  0.1783333E+01 -0.1715535E+06 -0.7449809E+05 -0.1039594E-01 -0.3051758E-03  0.5550996E+06  0.9094821E+05
  0.1814286E+01 -0.1693471E+06 -0.7618720E+05  0.2565159E-02  0.2990723E-02  0.5523031E+06  0.9149455E+05
  0.1845238E+01 -0.1671231E+06 -0.7751970E+05  0.2687516E-02 -0.3631592E-02  0.5495313E+06  0.9149934E+05
  0.1876190E+01 -0.1649824E+06 -0.7853766E+05 -0.8938010E-02 -0.2624512E-02  0.5469524E+06  0.9109011E+05
  0.1907143E+01 -0.1628749E+06 -0.7919066E+05  0.1568169E-02 -0.3906250E-02  0.5444747E+06  0.9021295E+05
  0.1938095E+01 -0.1608705E+06 -0.7952853E+05 -0.8195882E-02  0.4974365E-02  0.5421639E+06  0.8892789E+05
  0.1969048E+01 -0.1589874E+06 -0.7961067E+05 -0.1250354E-01  0.2319336E-02  0.5401518E+06  0.8742821E+05
  0.2000000E+01 -0.1570997E+06 -0.7929850E+05 -0.1861954E-01 -0.1010132E-01  0.5381692E+06  0.8538972E+05
