VARIABLES="w (rad/s)"
"abs(F   1   1)" "angle(F   1   1)"
"abs(F   1   2)" "angle(F   1   2)"
"abs(F   1   3)" "angle(F   1   3)"
Zone t="Diffraction force - beta =   0.000 deg",I=    64,F=POINT
  0.5000000E-01  0.3360587E+04 -0.1570790E+01  0.5151884E+06 -0.3526207E-04  0.8352973E+02 -0.1570727E+01
  0.8095238E-01  0.5482243E+04 -0.1570799E+01  0.5141198E+06 -0.9483331E-04  0.1361945E+03 -0.1570778E+01
  0.1119048E+00  0.7644457E+04 -0.1570793E+01  0.5125515E+06 -0.1882302E-03  0.1904709E+03 -0.1570780E+01
  0.1428571E+00  0.9893861E+04 -0.1570787E+01  0.5104830E+06 -0.3225592E-03  0.2476996E+03 -0.1570777E+01
  0.1738095E+00  0.1222428E+05 -0.1570783E+01  0.5079099E+06 -0.5085075E-03  0.3070743E+03 -0.1570764E+01
  0.2047619E+00  0.1469439E+05 -0.1570779E+01  0.5048281E+06 -0.7615117E-03  0.3712751E+03 -0.1570767E+01
  0.2357143E+00  0.1730574E+05 -0.1570766E+01  0.5012326E+06 -0.1104404E-02  0.4397432E+03 -0.1570764E+01
  0.2666667E+00  0.2011557E+05 -0.1570760E+01  0.4971177E+06 -0.1564642E-02  0.5140186E+03 -0.1570745E+01
  0.2976190E+00  0.2317916E+05 -0.1570731E+01  0.4924828E+06 -0.2189346E-02  0.5972968E+03 -0.1570728E+01
  0.3285715E+00  0.2649812E+05 -0.1570702E+01  0.4873232E+06 -0.3025357E-02  0.6894340E+03 -0.1570699E+01
  0.3595238E+00  0.3016065E+05 -0.1570659E+01  0.4816522E+06 -0.4148126E-02  0.7907878E+03 -0.1570657E+01
  0.3904762E+00  0.3422749E+05 -0.1570589E+01  0.4754712E+06 -0.5640808E-02  0.9090385E+03 -0.1570588E+01
  0.4214286E+00  0.3871446E+05 -0.1570486E+01  0.4688467E+06 -0.7555152E-02  0.1039002E+04 -0.1570487E+01
  0.4523810E+00  0.4359180E+05 -0.1570341E+01  0.4617703E+06 -0.1003740E-01  0.1179219E+04 -0.1570339E+01
  0.4833333E+00  0.4899350E+05 -0.1570135E+01  0.4543229E+06 -0.1301434E-01  0.1344646E+04 -0.1570136E+01
  0.5142857E+00  0.5485520E+05 -0.1569852E+01  0.4465492E+06 -0.1665806E-01  0.1526307E+04 -0.1569854E+01
  0.5452381E+00  0.6108248E+05 -0.1569473E+01  0.4384619E+06 -0.2090668E-01  0.1722602E+04 -0.1569473E+01
  0.5761905E+00  0.6763583E+05 -0.1568981E+01  0.4301035E+06 -0.2576704E-01  0.1926159E+04 -0.1568982E+01
  0.6071429E+00  0.7460464E+05 -0.1568344E+01  0.4215379E+06 -0.3138430E-01  0.2157936E+04 -0.1568345E+01
  0.6380953E+00  0.8193930E+05 -0.1567552E+01  0.4127155E+06 -0.3760568E-01  0.2412882E+04 -0.1567553E+01
  0.6690477E+00  0.8953646E+05 -0.1566567E+01  0.4037346E+06 -0.4457074E-01  0.2677154E+04 -0.1566569E+01
  0.7000000E+00  0.9727602E+05 -0.1565358E+01  0.3946364E+06 -0.5235844E-01  0.2944630E+04 -0.1565357E+01
  0.7309524E+00  0.1052801E+06 -0.1563901E+01  0.3853635E+06 -0.6089238E-01  0.3241945E+04 -0.1563902E+01
  0.7619048E+00  0.1135939E+06 -0.1562163E+01  0.3760079E+06 -0.7025541E-01  0.3557623E+04 -0.1562168E+01
  0.7928572E+00  0.1221370E+06 -0.1560106E+01  0.3666268E+06 -0.8048639E-01  0.3892048E+04 -0.1560111E+01
  0.8238096E+00  0.1308403E+06 -0.1557696E+01  0.3572222E+06 -0.9159501E-01  0.4252979E+04 -0.1557702E+01
  0.8547620E+00  0.1396474E+06 -0.1554899E+01  0.3477854E+06 -0.1035812E+00  0.4621368E+04 -0.1554902E+01
  0.8857143E+00  0.1484722E+06 -0.1551681E+01  0.3383656E+06 -0.1164657E+00  0.4987455E+04 -0.1551674E+01
  0.9166667E+00  0.1574062E+06 -0.1548027E+01  0.3289848E+06 -0.1302734E+00  0.5380569E+04 -0.1548027E+01
  0.9476191E+00  0.1664566E+06 -0.1543921E+01  0.3196919E+06 -0.1450188E+00  0.5806536E+04 -0.1543947E+01
  0.9785714E+00  0.1755989E+06 -0.1539344E+01  0.3104806E+06 -0.1606877E+00  0.6255868E+04 -0.1539375E+01
  0.1009524E+01  0.1847090E+06 -0.1534284E+01  0.3013837E+06 -0.1772965E+00  0.6712013E+04 -0.1534321E+01
  0.1040476E+01  0.1937081E+06 -0.1528729E+01  0.2924088E+06 -0.1948380E+00  0.7177250E+04 -0.1528770E+01
  0.1071429E+01  0.2024779E+06 -0.1522681E+01  0.2835833E+06 -0.2133266E+00  0.7649445E+04 -0.1522693E+01
  0.1102381E+01  0.2109726E+06 -0.1516162E+01  0.2748718E+06 -0.2327526E+00  0.8126432E+04 -0.1516114E+01
  0.1133333E+01  0.2191960E+06 -0.1509231E+01  0.2662958E+06 -0.2531119E+00  0.8615974E+04 -0.1509173E+01
  0.1164286E+01  0.2271476E+06 -0.1501984E+01  0.2578714E+06 -0.2744445E+00  0.9106757E+04 -0.1501946E+01
  0.1195238E+01  0.2347210E+06 -0.1494484E+01  0.2496312E+06 -0.2967333E+00  0.9595835E+04 -0.1494521E+01
  0.1226190E+01  0.2418423E+06 -0.1486806E+01  0.2415768E+06 -0.3199797E+00  0.1009343E+05 -0.1486813E+01
  0.1257143E+01  0.2483735E+06 -0.1478973E+01  0.2337132E+06 -0.3443533E+00  0.1058727E+05 -0.1478932E+01
  0.1288095E+01  0.2543849E+06 -0.1471306E+01  0.2260125E+06 -0.3693125E+00  0.1108758E+05 -0.1471220E+01
  0.1319048E+01  0.2597257E+06 -0.1463792E+01  0.2184946E+06 -0.3953947E+00  0.1156387E+05 -0.1463727E+01
  0.1350000E+01  0.2643646E+06 -0.1456663E+01  0.2111707E+06 -0.4224249E+00  0.1201397E+05 -0.1456648E+01
  0.1380952E+01  0.2682801E+06 -0.1450071E+01  0.2040254E+06 -0.4503550E+00  0.1243828E+05 -0.1450126E+01
  0.1411905E+01  0.2709617E+06 -0.1444733E+01  0.1971905E+06 -0.4787772E+00  0.1278837E+05 -0.1444708E+01
  0.1442857E+01  0.2733275E+06 -0.1439693E+01  0.1904478E+06 -0.5085930E+00  0.1318400E+05 -0.1439588E+01
  0.1473810E+01  0.2749455E+06 -0.1435715E+01  0.1838813E+06 -0.5393628E+00  0.1356188E+05 -0.1435607E+01
  0.1504762E+01  0.2758133E+06 -0.1432963E+01  0.1774907E+06 -0.5710555E+00  0.1390991E+05 -0.1432854E+01
  0.1535714E+01  0.2759503E+06 -0.1431572E+01  0.1712835E+06 -0.6036704E+00  0.1421766E+05 -0.1431538E+01
  0.1566667E+01  0.2753576E+06 -0.1431664E+01  0.1652649E+06 -0.6372385E+00  0.1448604E+05 -0.1431605E+01
  0.1597619E+01  0.2740987E+06 -0.1433388E+01  0.1594248E+06 -0.6717653E+00  0.1472653E+05 -0.1433364E+01
  0.1628572E+01  0.2722333E+06 -0.1436868E+01  0.1537811E+06 -0.7072251E+00  0.1494515E+05 -0.1436853E+01
  0.1659524E+01  0.2697978E+06 -0.1442182E+01  0.1483108E+06 -0.7436340E+00  0.1514023E+05 -0.1442217E+01
  0.1690476E+01  0.2668506E+06 -0.1449409E+01  0.1430062E+06 -0.7810429E+00  0.1530714E+05 -0.1449382E+01
  0.1721429E+01  0.2634677E+06 -0.1458615E+01  0.1378520E+06 -0.8193774E+00  0.1544772E+05 -0.1458463E+01
  0.1752381E+01  0.2597075E+06 -0.1469829E+01  0.1328452E+06 -0.8586313E+00  0.1555633E+05 -0.1469542E+01
  0.1783333E+01  0.2556157E+06 -0.1483072E+01  0.1279956E+06 -0.8988092E+00  0.1563728E+05 -0.1482835E+01
  0.1814286E+01  0.2512381E+06 -0.1498363E+01  0.1233122E+06 -0.9400172E+00  0.1568563E+05 -0.1498428E+01
  0.1845238E+01  0.2466314E+06 -0.1515710E+01  0.1187790E+06 -0.9822348E+00  0.1571945E+05 -0.1516024E+01
  0.1876190E+01  0.2418523E+06 -0.1535095E+01  0.1144107E+06 -0.1025380E+01  0.1574109E+05 -0.1535483E+01
  0.1907143E+01  0.2369322E+06 -0.1556495E+01  0.1101907E+06 -0.1069516E+01  0.1575145E+05 -0.1556863E+01
  0.1938095E+01  0.2319099E+06 -0.1579890E+01  0.1060931E+06 -0.1114720E+01  0.1575100E+05 -0.1580168E+01
  0.1969048E+01  0.2268211E+06 -0.1605244E+01  0.1021094E+06 -0.1160972E+01  0.1573967E+05 -0.1605291E+01
  0.2000000E+01  0.2217014E+06 -0.1632495E+01  0.9823901E+05 -0.1208310E+01  0.1571015E+05 -0.1632435E+01
