VARIABLES="w (rad/s)"
"A   1   1" "B   1   1"
"A   1   2" "B   1   2"
"A   1   3" "B   1   3"
Zone t="Motion of body    1 in DoF   1",I=    64,F=POINT
  0.5000000E-01  0.1164041E+05  0.2021413E-03 -0.8368492E-03 -0.2180159E-05  0.1231390E+03  0.2539069E-05
  0.8095238E-01  0.1166452E+05  0.8399106E-03 -0.4565014E-03  0.7355434E-06  0.1230030E+03  0.1171737E-04
  0.1119048E+00  0.1170608E+05  0.2378199E-02  0.4048043E-04 -0.5694435E-05  0.1237063E+03  0.3194211E-04
  0.1428571E+00  0.1173226E+05  0.5358430E-02  0.1942634E-02  0.8447107E-05  0.1223836E+03  0.7220584E-04
  0.1738095E+00  0.1174308E+05  0.1069090E-01  0.1064457E-02  0.1268109E-04  0.1239646E+03  0.1452543E-03
  0.2047619E+00  0.1174753E+05  0.1977824E-01  0.1625460E-02  0.5661565E-05  0.1228186E+03  0.2671244E-03
  0.2357143E+00  0.1179157E+05  0.3492248E-01 -0.5037134E-03 -0.2173073E-04  0.1243108E+03  0.4745606E-03
  0.2666667E+00  0.1177799E+05  0.5968251E-01  0.1162290E-02  0.1284145E-04  0.1243693E+03  0.8127295E-03
  0.2976190E+00  0.1180494E+05  0.1004028E+00  0.1265717E-02  0.8487084E-05  0.1242231E+03  0.1369659E-02
  0.3285715E+00  0.1184335E+05  0.1667416E+00  0.1111652E-02 -0.1871996E-04  0.1254371E+03  0.2290621E-02
  0.3595238E+00  0.1186091E+05  0.2746620E+00 -0.1453627E-02 -0.3853702E-04  0.1265219E+03  0.3794233E-02
  0.3904762E+00  0.1185839E+05  0.4491006E+00  0.1455633E-02  0.5347619E-04  0.1257130E+03  0.6221863E-02
  0.4214286E+00  0.1191304E+05  0.7260982E+00 -0.9730710E-03 -0.3825384E-04  0.1271414E+03  0.1012012E-01
  0.4523810E+00  0.1195754E+05  0.1163357E+01 -0.6535178E-03 -0.4001847E-04  0.1288128E+03  0.1633621E-01
  0.4833333E+00  0.1196458E+05  0.1816811E+01  0.1507463E-02  0.2295244E-05  0.1298872E+03  0.2571169E-01
  0.5142857E+00  0.1200187E+05  0.2793156E+01 -0.1160834E-02 -0.1530354E-03  0.1304144E+03  0.3976674E-01
  0.5452381E+00  0.1206540E+05  0.4196691E+01 -0.3358266E-03  0.1841132E-04  0.1334258E+03  0.6037850E-01
  0.5761905E+00  0.1212537E+05  0.6158230E+01  0.7547425E-03 -0.9519979E-05  0.1360664E+03  0.8952486E-01
  0.6071429E+00  0.1213710E+05  0.8859697E+01  0.8639166E-03  0.6992370E-04  0.1342996E+03  0.1291359E+00
  0.6380953E+00  0.1217173E+05  0.1247551E+02 -0.1363043E-02 -0.3227480E-03  0.1360956E+03  0.1836464E+00
  0.6690477E+00  0.1224765E+05  0.1728964E+02  0.1017750E-02  0.2678111E-04  0.1386233E+03  0.2570982E+00
  0.7000000E+00  0.1232599E+05  0.2360903E+02 -0.2081735E-02 -0.5253777E-03  0.1411080E+03  0.3546103E+00
  0.7309524E+00  0.1238650E+05  0.3173273E+02  0.2202335E-02  0.1740456E-03  0.1433527E+03  0.4817193E+00
  0.7619048E+00  0.1242757E+05  0.4207908E+02  0.3154278E-03  0.7215887E-04  0.1433661E+03  0.6433308E+00
  0.7928572E+00  0.1248268E+05  0.5515310E+02  0.5845765E-03  0.3200471E-03  0.1443343E+03  0.8504022E+00
  0.8238096E+00  0.1256078E+05  0.7152910E+02 -0.2419466E-02 -0.6942600E-03  0.1470392E+03  0.1115486E+01
  0.8547620E+00  0.1265914E+05  0.9185229E+02  0.2343010E-02  0.5658269E-03  0.1510249E+03  0.1451937E+01
  0.8857143E+00  0.1276272E+05  0.1168395E+03  0.2045785E-03  0.1938641E-03  0.1545072E+03  0.1869971E+01
  0.9166667E+00  0.1285387E+05  0.1472528E+03 -0.1032049E-02 -0.9688735E-03  0.1565772E+03  0.2381022E+01
  0.9476191E+00  0.1292344E+05  0.1839283E+03  0.2809841E-02  0.4874170E-03  0.1574655E+03  0.3001440E+01
  0.9785714E+00  0.1299848E+05  0.2279382E+03 -0.1044726E-02 -0.8946061E-03  0.1597199E+03  0.3763237E+01
  0.1009524E+01  0.1310027E+05  0.2805095E+03  0.1265868E-02  0.1051426E-03  0.1629843E+03  0.4689028E+01
  0.1040476E+01  0.1321789E+05  0.3428595E+03 -0.2053128E-03  0.3626943E-03  0.1665987E+03  0.5802589E+01
  0.1071429E+01  0.1334455E+05  0.4163453E+03  0.5910238E-03 -0.5497336E-03  0.1701719E+03  0.7134058E+01
  0.1102381E+01  0.1346859E+05  0.5023579E+03  0.4152500E-04 -0.1049042E-02  0.1747825E+03  0.8732533E+01
  0.1133333E+01  0.1359710E+05  0.6025582E+03  0.4644955E-03 -0.7324219E-03  0.1796870E+03  0.1063220E+02
  0.1164286E+01  0.1371648E+05  0.7184308E+03 -0.9960338E-03 -0.4355907E-03  0.1829649E+03  0.1283813E+02
  0.1195238E+01  0.1382493E+05  0.8516500E+03  0.3967133E-02  0.1971722E-02  0.1852871E+03  0.1539331E+02
  0.1226190E+01  0.1393422E+05  0.1004100E+04  0.9239715E-03  0.7834435E-03  0.1881687E+03  0.1836580E+02
  0.1257143E+01  0.1403787E+05  0.1177448E+04 -0.2057336E-02 -0.1951456E-02  0.1915979E+03  0.2181792E+02
  0.1288095E+01  0.1418095E+05  0.1374514E+04  0.8884508E-03 -0.1044512E-02  0.1969825E+03  0.2584205E+02
  0.1319048E+01  0.1432034E+05  0.1596629E+04 -0.7981944E-03 -0.2114058E-02  0.2028023E+03  0.3049413E+02
  0.1350000E+01  0.1445971E+05  0.1845866E+04  0.1780192E-02 -0.1406670E-03  0.2077787E+03  0.3576443E+02
  0.1380952E+01  0.1459531E+05  0.2124271E+04 -0.1436431E-03 -0.1534462E-02  0.2130315E+03  0.4176385E+02
  0.1411905E+01  0.1465474E+05  0.2420635E+04  0.1086127E-02  0.1308918E-02  0.2132127E+03  0.4804324E+02
  0.1442857E+01  0.1476771E+05  0.2760724E+04  0.2379465E-03 -0.5388260E-03  0.2178395E+03  0.5561442E+02
  0.1473810E+01  0.1486229E+05  0.3134370E+04  0.7169658E-03  0.1335144E-02  0.2218521E+03  0.6408724E+02
  0.1504762E+01  0.1494506E+05  0.3543318E+04 -0.9912177E-03 -0.2289295E-02  0.2256430E+03  0.7355671E+02
  0.1535714E+01  0.1501693E+05  0.3988008E+04  0.3080146E-03 -0.1107216E-02  0.2297765E+03  0.8405476E+02
  0.1566667E+01  0.1508313E+05  0.4468600E+04 -0.1453643E-02 -0.1151085E-02  0.2334139E+03  0.9555595E+02
  0.1597619E+01  0.1513813E+05  0.4985064E+04  0.7067707E-03 -0.3013611E-03  0.2371264E+03  0.1081140E+03
  0.1628572E+01  0.1518118E+05  0.5537242E+04  0.7964017E-03 -0.5340576E-03  0.2405249E+03  0.1217843E+03
  0.1659524E+01  0.1520811E+05  0.6124636E+04  0.2698638E-02  0.6017685E-03  0.2440052E+03  0.1367909E+03
  0.1690476E+01  0.1521276E+05  0.6745645E+04  0.1356205E-02  0.1330376E-02  0.2472130E+03  0.1530870E+03
  0.1721429E+01  0.1519865E+05  0.7399015E+04  0.2519600E-02  0.2123833E-02  0.2502099E+03  0.1706708E+03
  0.1752381E+01  0.1516381E+05  0.8082416E+04  0.1414962E-03 -0.9832382E-03  0.2531088E+03  0.1895609E+03
  0.1783333E+01  0.1510769E+05  0.8791034E+04  0.2866371E-03 -0.1141548E-02  0.2551703E+03  0.2094553E+03
  0.1814286E+01  0.1503045E+05  0.9520985E+04  0.6307767E-03  0.3814697E-04  0.2563694E+03  0.2303663E+03
  0.1845238E+01  0.1492662E+05  0.1026748E+05  0.1211449E-02  0.1049042E-02  0.2565128E+03  0.2520439E+03
  0.1876190E+01  0.1480239E+05  0.1102717E+05 -0.6363961E-03 -0.4150391E-02  0.2560822E+03  0.2746417E+03
  0.1907143E+01  0.1465626E+05  0.1179580E+05  0.7880850E-03 -0.1995087E-02  0.2553060E+03  0.2983548E+03
  0.1938095E+01  0.1448352E+05  0.1256834E+05  0.1793095E-02  0.4158020E-03  0.2542434E+03  0.3231673E+03
  0.1969048E+01  0.1429067E+05  0.1333980E+05  0.1832715E-02  0.1514435E-02  0.2526420E+03  0.3486057E+03
  0.2000000E+01  0.1408030E+05  0.1410414E+05  0.1029968E-03  0.7438660E-03  0.2506925E+03  0.3747195E+03
Zone t="Motion of body    1 in DoF   2",I=    64,F=POINT
  0.5000000E-01  0.1678467E-02 -0.6854534E-06  0.1982803E+05  0.3089773E+02 -0.5960464E-04 -0.2868474E-06
  0.8095238E-01 -0.7009506E-03 -0.5051494E-05  0.1970524E+05  0.5131514E+02 -0.5006790E-04  0.6482005E-06
  0.1119048E+00 -0.1921755E-02 -0.1132488E-05  0.1966259E+05  0.7366183E+02 -0.1789661E-03  0.1072884E-05
  0.1428571E+00 -0.1809120E-02  0.6586313E-05  0.1964786E+05  0.9884616E+02 -0.8010864E-04  0.1192093E-06
  0.1738095E+00  0.5294852E-03 -0.1326203E-05  0.1965831E+05  0.1280431E+03  0.1838109E-03 -0.9238720E-06
  0.2047619E+00  0.7614978E-03 -0.9387732E-05  0.1969792E+05  0.1626771E+03  0.2328740E-04 -0.5364418E-06
  0.2357143E+00  0.6453196E-03  0.2333522E-04  0.1975800E+05  0.2048206E+03 -0.2306158E-03  0.2056360E-05
  0.2666667E+00 -0.4184246E-03  0.8493662E-05  0.1983638E+05  0.2563900E+03  0.1287460E-03  0.2682209E-06
  0.2976190E+00 -0.1541290E-02 -0.4932284E-04  0.1993419E+05  0.3211784E+03 -0.1217651E-03 -0.1788139E-06
  0.3285715E+00 -0.1790834E-02  0.1585484E-04  0.2003943E+05  0.4018014E+03 -0.3773233E-04  0.5364418E-06
  0.3595238E+00 -0.2246755E-02 -0.2533197E-04  0.2014999E+05  0.5030422E+03 -0.7427291E-04  0.9536743E-06
  0.3904762E+00  0.1174764E-02  0.3582239E-04  0.2026356E+05  0.6292877E+03  0.7082776E-04  0.2086163E-05
  0.4214286E+00  0.6109980E-04  0.2920628E-04  0.2035473E+05  0.7802924E+03  0.7241459E-04 -0.8344650E-06
  0.4523810E+00  0.1032980E-03  0.5364418E-04  0.2042988E+05  0.9642535E+03 -0.7167615E-04  0.7629395E-05
  0.4833333E+00 -0.3058335E-03  0.6902218E-04  0.2047312E+05  0.1168863E+04 -0.3946238E-05  0.1788139E-05
  0.5142857E+00  0.2670288E-03 -0.2658367E-04  0.2048786E+05  0.1403407E+04 -0.3078249E-03  0.3159046E-04
  0.5452381E+00 -0.1234862E-02 -0.1881123E-03  0.2047021E+05  0.1658160E+04 -0.2273826E-03  0.1358986E-04
  0.5761905E+00  0.9103254E-03 -0.1332760E-03  0.2042795E+05  0.1929799E+04 -0.2846836E-03  0.5483627E-05
  0.6071429E+00  0.1806371E-02  0.1931190E-04  0.2035544E+05  0.2224395E+04  0.1413682E-03  0.1049042E-04
  0.6380953E+00  0.3228259E-02 -0.8893013E-04  0.2027524E+05  0.2528719E+04 -0.1195651E-04  0.1788139E-04
  0.6690477E+00  0.1736162E-02 -0.2989769E-03  0.2017367E+05  0.2849147E+04 -0.4561346E-04  0.4720688E-04
  0.7000000E+00 -0.1092638E-02  0.2405643E-03  0.2004330E+05  0.3186950E+04 -0.3814697E-03  0.4148483E-04
  0.7309524E+00 -0.1114215E-02  0.8153915E-04  0.1990297E+05  0.3534863E+04  0.8611026E-04  0.5006790E-04
  0.7619048E+00  0.2626061E-02 -0.4100800E-04  0.1975112E+05  0.3894604E+04 -0.2503395E-04  0.4196167E-04
  0.7928572E+00  0.5749539E-03 -0.5102158E-04  0.1958079E+05  0.4265500E+04 -0.2983024E-03 -0.5769730E-04
  0.8238096E+00 -0.1625326E-02  0.5912781E-04  0.1939194E+05  0.4645625E+04  0.2870945E-03  0.9536743E-06
  0.8547620E+00 -0.7274489E-03  0.7038116E-03  0.1919294E+05  0.5032470E+04 -0.3369472E-03  0.7200241E-04
  0.8857143E+00 -0.1221011E-02  0.5912781E-04  0.1898159E+05  0.5424309E+04 -0.2799496E-04  0.8106232E-04
  0.9166667E+00  0.6263039E-03 -0.6179810E-03  0.1875741E+05  0.5819491E+04  0.1706210E-03  0.4959106E-04
  0.9476191E+00 -0.1704825E-02 -0.8821487E-04  0.1851769E+05  0.6216607E+04  0.1429074E-03  0.4577637E-04
  0.9785714E+00 -0.3566881E-03  0.4038811E-03  0.1827185E+05  0.6613217E+04 -0.5457523E-04  0.4291534E-04
  0.1009524E+01 -0.1131724E-02 -0.5493164E-03  0.1801999E+05  0.7007571E+04 -0.2758458E-03  0.3147125E-04
  0.1040476E+01 -0.1767156E-02  0.1778603E-02  0.1775870E+05  0.7398513E+04 -0.1759824E-03  0.1811981E-04
  0.1071429E+01  0.2599081E-03 -0.1621246E-03  0.1748901E+05  0.7784324E+04 -0.6052653E-04  0.2861023E-05
  0.1102381E+01  0.2768333E-04 -0.3051758E-04  0.1721199E+05  0.8163525E+04 -0.1072729E-03 -0.4959106E-04
  0.1133333E+01  0.4274705E-03 -0.4005432E-04  0.1693274E+05  0.8533948E+04 -0.3365909E-05 -0.1239777E-04
  0.1164286E+01  0.4062769E-03 -0.8878708E-03  0.1665286E+05  0.8893898E+04 -0.3800655E-03  0.8773804E-04
  0.1195238E+01  0.1265461E-02 -0.1275063E-02  0.1636987E+05  0.9242884E+04 -0.5744843E-04 -0.4005432E-04
  0.1226190E+01 -0.1238184E-02 -0.1000404E-02  0.1608581E+05  0.9579461E+04 -0.1244406E-04  0.2193451E-04
  0.1257143E+01 -0.2090714E-02  0.3299713E-03  0.1579996E+05  0.9912161E+04  0.3034418E-05  0.1144409E-03
  0.1288095E+01 -0.2028629E-03  0.1277924E-02  0.1551602E+05  0.1021409E+05  0.3257653E-04  0.1754761E-03
  0.1319048E+01 -0.2001270E-02 -0.3061295E-03  0.1523513E+05  0.1050918E+05  0.5494816E-04  0.2536774E-03
  0.1350000E+01  0.7700037E-03 -0.1089096E-02  0.1495716E+05  0.1078817E+05 -0.1299823E-03 -0.3528595E-04
  0.1380952E+01  0.6325821E-03 -0.1659393E-02  0.1468223E+05  0.1104991E+05 -0.3149098E-03  0.4291534E-04
  0.1411905E+01  0.1323886E-02 -0.6103516E-03  0.1441008E+05  0.1130312E+05 -0.2161447E-03  0.1745224E-03
  0.1442857E+01 -0.3304812E-03  0.5102158E-03  0.1413972E+05  0.1153331E+05  0.2379465E-04  0.1239777E-04
  0.1473810E+01  0.2109484E-02 -0.3061295E-03  0.1387519E+05  0.1174573E+05 -0.7506141E-04  0.3147125E-04
  0.1504762E+01  0.2560435E-03 -0.1450539E-02  0.1361761E+05  0.1194033E+05 -0.1952014E-03  0.2288818E-04
  0.1535714E+01 -0.5141857E-03  0.5359650E-03  0.1336723E+05  0.1211560E+05 -0.8693961E-04 -0.1335144E-04
  0.1566667E+01 -0.1246675E-02 -0.2410889E-02  0.1312350E+05  0.1227374E+05 -0.1582694E-03  0.7915497E-04
  0.1597619E+01  0.1193869E-03 -0.1253128E-02  0.1288633E+05  0.1241434E+05 -0.3104061E-04  0.3185272E-03
  0.1628572E+01  0.1215684E-02  0.8535385E-03  0.1265531E+05  0.1253792E+05 -0.9369431E-04  0.3185272E-03
  0.1659524E+01  0.5309927E-03 -0.9756088E-03  0.1243012E+05  0.1264509E+05 -0.1356215E-03  0.1182556E-03
  0.1690476E+01 -0.4016715E-03 -0.8583069E-03  0.1221178E+05  0.1273555E+05 -0.7672377E-04  0.2012253E-03
  0.1721429E+01 -0.3612091E-03 -0.2527237E-02  0.1200246E+05  0.1280911E+05 -0.1063683E-03  0.1068115E-03
  0.1752381E+01  0.2677545E-03 -0.1087189E-02  0.1180140E+05  0.1286532E+05 -0.1545574E-03  0.1354218E-03
  0.1783333E+01  0.6460029E-03 -0.1785278E-02  0.1160886E+05  0.1290417E+05 -0.1197886E-03  0.1592636E-03
  0.1814286E+01 -0.5277499E-03 -0.2689362E-02  0.1142310E+05  0.1292860E+05 -0.1135398E-03  0.1783371E-03
  0.1845238E+01  0.3597137E-03 -0.1348495E-02  0.1124563E+05  0.1293776E+05 -0.1488470E-03  0.1983643E-03
  0.1876190E+01 -0.1234161E-02 -0.9803772E-03  0.1107536E+05  0.1293220E+05 -0.1057271E-03  0.1945496E-03
  0.1907143E+01 -0.1280138E-03  0.3528595E-03  0.1091191E+05  0.1291303E+05 -0.9401015E-04  0.1783371E-03
  0.1938095E+01  0.3995591E-03 -0.1329422E-02  0.1075469E+05  0.1288103E+05 -0.1318742E-03  0.3528595E-03
  0.1969048E+01 -0.2305424E-03 -0.6580353E-04  0.1060676E+05  0.1283501E+05 -0.1879211E-03  0.1697540E-03
  0.2000000E+01  0.5950928E-03 -0.1348495E-02  0.1046725E+05  0.1277726E+05 -0.9346008E-04  0.4863739E-04
Zone t="Motion of body    1 in DoF   3",I=    64,F=POINT
  0.5000000E-01  0.1259281E+03  0.2574870E-05 -0.3823638E-03 -0.7694555E-07  0.1352332E+03  0.2936950E-07
  0.8095238E-01  0.1257122E+03  0.1206124E-04 -0.1733969E-03  0.1910826E-06  0.1353582E+03  0.2016195E-06
  0.1119048E+00  0.1267440E+03  0.3312466E-04 -0.1981411E-03  0.4237716E-06  0.1370867E+03  0.3866602E-06
  0.1428571E+00  0.1249059E+03  0.7460019E-04 -0.4614591E-03 -0.6408937E-06  0.1366139E+03  0.1001309E-05
  0.1738095E+00  0.1268072E+03  0.1498449E-03 -0.3463601E-03  0.1057953E-06  0.1365442E+03  0.2165718E-05
  0.2047619E+00  0.1253945E+03  0.2771831E-03 -0.5967395E-03 -0.2777255E-05  0.1364631E+03  0.4222451E-05
  0.2357143E+00  0.1269343E+03  0.4908034E-03 -0.8883259E-03 -0.6571909E-05  0.1366740E+03  0.6384651E-05
  0.2666667E+00  0.1272269E+03  0.8411491E-03 -0.1756847E-03  0.1450926E-05  0.1372335E+03  0.1096341E-04
  0.2976190E+00  0.1267885E+03  0.1421998E-02 -0.5595589E-03 -0.5308096E-05  0.1366891E+03  0.2049326E-04
  0.3285715E+00  0.1279863E+03  0.2375377E-02 -0.6512455E-03 -0.6266520E-05  0.1365828E+03  0.3414532E-04
  0.3595238E+00  0.1292719E+03  0.3930018E-02 -0.6067831E-03 -0.5952777E-05  0.1367241E+03  0.5448452E-04
  0.3904762E+00  0.1283492E+03  0.6459418E-02 -0.2949121E-03  0.1714870E-06  0.1368072E+03  0.9057357E-04
  0.4214286E+00  0.1295429E+03  0.1050159E-01 -0.4554198E-04  0.1067812E-04  0.1360771E+03  0.1456413E-03
  0.4523810E+00  0.1314159E+03  0.1692555E-01 -0.2761640E-03  0.1884400E-05  0.1367205E+03  0.2336014E-03
  0.4833333E+00  0.1326860E+03  0.2660861E-01 -0.1183871E-03  0.8260839E-05  0.1365899E+03  0.3723849E-03
  0.5142857E+00  0.1331770E+03  0.4119145E-01 -0.2906720E-03  0.8709336E-05  0.1369636E+03  0.5838291E-03
  0.5452381E+00  0.1363315E+03  0.6233700E-01 -0.3727763E-03 -0.2374727E-05  0.1371061E+03  0.8961126E-03
  0.5761905E+00  0.1390975E+03  0.9219303E-01 -0.2813733E-04  0.2796142E-04  0.1369520E+03  0.1336084E-02
  0.6071429E+00  0.1371645E+03  0.1337453E+00  0.6440106E-04  0.4775898E-04  0.1372513E+03  0.1942938E-02
  0.6380953E+00  0.1390279E+03  0.1899047E+00 -0.4162361E-03 -0.1059141E-04  0.1370341E+03  0.2792850E-02
  0.6690477E+00  0.1415336E+03  0.2654436E+00 -0.1005278E-02 -0.1004168E-03  0.1368908E+03  0.3946821E-02
  0.7000000E+00  0.1441813E+03  0.3657432E+00 -0.6168229E-03 -0.5291979E-04  0.1375564E+03  0.5489274E-02
  0.7309524E+00  0.1465066E+03  0.4962324E+00 -0.4113070E-03 -0.1145294E-05  0.1374743E+03  0.7527812E-02
  0.7619048E+00  0.1463399E+03  0.6647837E+00 -0.2631694E-03  0.1915533E-04  0.1370514E+03  0.1016467E-01
  0.7928572E+00  0.1474059E+03  0.8804338E+00 -0.3593462E-03 -0.2475688E-05  0.1375399E+03  0.1357914E-01
  0.8238096E+00  0.1501960E+03  0.1153337E+01 -0.7553597E-04  0.8180924E-04  0.1377536E+03  0.1800220E-01
  0.8547620E+00  0.1542225E+03  0.1496124E+01 -0.8872757E-03 -0.1620005E-03  0.1375382E+03  0.2366557E-01
  0.8857143E+00  0.1577640E+03  0.1923851E+01 -0.8662285E-03 -0.1971452E-03  0.1375421E+03  0.3078779E-01
  0.9166667E+00  0.1599772E+03  0.2453235E+01 -0.5670027E-04  0.8961139E-04  0.1380753E+03  0.3965575E-01
  0.9476191E+00  0.1608102E+03  0.3101618E+01 -0.2797764E-03  0.4508952E-04  0.1380926E+03  0.5065729E-01
  0.9785714E+00  0.1630799E+03  0.3889560E+01 -0.7345729E-03 -0.1363307E-03  0.1378332E+03  0.6426454E-01
  0.1009524E+01  0.1663393E+03  0.4842214E+01 -0.1797249E-03  0.3750250E-04  0.1377361E+03  0.8078206E-01
  0.1040476E+01  0.1701492E+03  0.5991531E+01  0.1656709E-03  0.3158571E-03  0.1380051E+03  0.1012703E+00
  0.1071429E+01  0.1737468E+03  0.7365066E+01 -0.3012975E-03  0.9132735E-04  0.1384957E+03  0.1261463E+00
  0.1102381E+01  0.1784612E+03  0.8994478E+01 -0.1440398E-03  0.1022927E-03  0.1388309E+03  0.1565236E+00
  0.1133333E+01  0.1834496E+03  0.1092627E+02 -0.7632200E-03 -0.2507772E-03  0.1386998E+03  0.1927902E+00
  0.1164286E+01  0.1866465E+03  0.1320346E+02  0.6511898E-04  0.2868623E-03  0.1384975E+03  0.2358649E+00
  0.1195238E+01  0.1891422E+03  0.1588581E+02 -0.1735421E-03  0.2053678E-03  0.1386009E+03  0.2875040E+00
  0.1226190E+01  0.1922406E+03  0.1899015E+02 -0.6758681E-03 -0.3825538E-03  0.1391265E+03  0.3482179E+00
  0.1257143E+01  0.1957653E+03  0.2257270E+02 -0.4654039E-03 -0.1232475E-03  0.1393409E+03  0.4176822E+00
  0.1288095E+01  0.2012069E+03  0.2667878E+02 -0.7981249E-03 -0.2851747E-03  0.1394901E+03  0.5015324E+00
  0.1319048E+01  0.2069471E+03  0.3139738E+02 -0.3116139E-03  0.8583069E-05  0.1392858E+03  0.5979406E+00
  0.1350000E+01  0.2118131E+03  0.3679954E+02 -0.1674228E-03  0.1769662E-03  0.1393019E+03  0.7109419E+00
  0.1380952E+01  0.2173302E+03  0.4296599E+02 -0.4689118E-03 -0.1369119E-03  0.1397119E+03  0.8450900E+00
  0.1411905E+01  0.2079104E+03  0.4774444E+02 -0.5768362E-03 -0.2946407E-03  0.1394477E+03  0.9490665E+00
  0.1442857E+01  0.2125162E+03  0.5529532E+02 -0.9418714E-04  0.5077273E-03  0.1397054E+03  0.1116236E+01
  0.1473810E+01  0.2164137E+03  0.6376360E+02 -0.3406882E-03 -0.1408160E-04  0.1398647E+03  0.1308065E+01
  0.1504762E+01  0.2201394E+03  0.7328789E+02 -0.5837030E-03 -0.3552884E-03  0.1396134E+03  0.1525535E+01
  0.1535714E+01  0.2241937E+03  0.8374701E+02 -0.3890547E-03  0.9432435E-05  0.1395108E+03  0.1764996E+01
  0.1566667E+01  0.2278131E+03  0.9533970E+02 -0.3244522E-03 -0.2231598E-03  0.1395480E+03  0.2033819E+01
  0.1597619E+01  0.2318951E+03  0.1080595E+03 -0.2650390E-03  0.1742095E-03  0.1399631E+03  0.2331767E+01
  0.1628572E+01  0.2354817E+03  0.1218906E+03 -0.1627939E-03  0.4996061E-03  0.1405490E+03  0.2685633E+01
  0.1659524E+01  0.2388960E+03  0.1369658E+03  0.3620405E-04  0.8563101E-03  0.1408258E+03  0.3062428E+01
  0.1690476E+01  0.2419511E+03  0.1532368E+03 -0.4262118E-03 -0.4416406E-03  0.1411159E+03  0.3484476E+01
  0.1721429E+01  0.2448806E+03  0.1707729E+03 -0.6301769E-03 -0.3010631E-03  0.1412291E+03  0.3953727E+01
  0.1752381E+01  0.2477875E+03  0.1895565E+03 -0.4623118E-03 -0.3226399E-03  0.1411246E+03  0.4433244E+01
  0.1783333E+01  0.2497639E+03  0.2093715E+03 -0.3328947E-03  0.3277957E-03  0.1410642E+03  0.4965816E+01
  0.1814286E+01  0.2510697E+03  0.2304859E+03 -0.1758290E-03  0.5437732E-03  0.1411781E+03  0.5528216E+01
  0.1845238E+01  0.2515778E+03  0.2527451E+03 -0.2876159E-03  0.8007884E-04  0.1415188E+03  0.6158452E+01
  0.1876190E+01  0.2512431E+03  0.2758242E+03 -0.2284825E-03  0.7369816E-03  0.1420568E+03  0.6895674E+01
  0.1907143E+01  0.2503866E+03  0.2999280E+03 -0.5108051E-03 -0.8821487E-04  0.1422923E+03  0.7632436E+01
  0.1938095E+01  0.2490576E+03  0.3246997E+03 -0.3604397E-03 -0.3373623E-04  0.1424456E+03  0.8423572E+01
  0.1969048E+01  0.2472726E+03  0.3500069E+03 -0.6722540E-03 -0.4715323E-03  0.1425847E+03  0.9205042E+01
  0.2000000E+01  0.2451757E+03  0.3759401E+03 -0.2312660E-03 -0.2781153E-03  0.1423287E+03  0.1002238E+02
