VARIABLES="w (rad/s)"
"abs(F   1   1)" "angle(F   1   1)"
"abs(F   1   2)" "angle(F   1   2)"
"abs(F   1   3)" "angle(F   1   3)"
Zone t="Diffraction force - beta =   0.000 deg",I=    64,F=POINT
  0.5000000E-01  0.3304711E+04 -0.1570796E+01  0.2488072E+06 -0.1678767E-04  0.6307533E+04  0.1570788E+01
  0.8095238E-01  0.5401812E+04 -0.1570793E+01  0.2481359E+06 -0.4512046E-04  0.1031107E+05  0.1570795E+01
  0.1119048E+00  0.7539770E+04 -0.1570794E+01  0.2471507E+06 -0.8947281E-04  0.1438870E+05  0.1570797E+01
  0.1428571E+00  0.9750591E+04 -0.1570792E+01  0.2458506E+06 -0.1531854E-03  0.1860718E+05  0.1570803E+01
  0.1738095E+00  0.1206034E+05 -0.1570784E+01  0.2442384E+06 -0.2411104E-03  0.2299682E+05  0.1570804E+01
  0.2047619E+00  0.1447845E+05 -0.1570779E+01  0.2423151E+06 -0.3605487E-03  0.2760502E+05  0.1570813E+01
  0.2357143E+00  0.1706703E+05 -0.1570770E+01  0.2400765E+06 -0.5219870E-03  0.3251042E+05  0.1570823E+01
  0.2666667E+00  0.1982837E+05 -0.1570756E+01  0.2375392E+06 -0.7378231E-03  0.3775151E+05  0.1570837E+01
  0.2976190E+00  0.2282080E+05 -0.1570736E+01  0.2346886E+06 -0.1030266E-02  0.4343827E+05  0.1570855E+01
  0.3285715E+00  0.2610518E+05 -0.1570706E+01  0.2315536E+06 -0.1420026E-02  0.4964270E+05  0.1570886E+01
  0.3595238E+00  0.2972239E+05 -0.1570661E+01  0.2281137E+06 -0.1942261E-02  0.5646391E+05  0.1570932E+01
  0.3904762E+00  0.3368255E+05 -0.1570593E+01  0.2244250E+06 -0.2633839E-02  0.6394163E+05  0.1570999E+01
  0.4214286E+00  0.3808502E+05 -0.1570496E+01  0.2204553E+06 -0.3517630E-02  0.7226005E+05  0.1571098E+01
  0.4523810E+00  0.4293192E+05 -0.1570349E+01  0.2162792E+06 -0.4664545E-02  0.8134055E+05  0.1571244E+01
  0.4833333E+00  0.4822767E+05 -0.1570146E+01  0.2118787E+06 -0.6029789E-02  0.9124231E+05  0.1571446E+01
  0.5142857E+00  0.5392283E+05 -0.1569863E+01  0.2072864E+06 -0.7700060E-02  0.1019242E+06  0.1571728E+01
  0.5452381E+00  0.6003977E+05 -0.1569487E+01  0.2025467E+06 -0.9643059E-02  0.1133950E+06  0.1572106E+01
  0.5761905E+00  0.6659255E+05 -0.1568994E+01  0.1975998E+06 -0.1185462E-01  0.1255542E+06  0.1572598E+01
  0.6071429E+00  0.7343336E+05 -0.1568354E+01  0.1925975E+06 -0.1441649E-01  0.1382138E+06  0.1573238E+01
  0.6380953E+00  0.8057980E+05 -0.1567553E+01  0.1874429E+06 -0.1723571E-01  0.1514441E+06  0.1574039E+01
  0.6690477E+00  0.8803470E+05 -0.1566554E+01  0.1821203E+06 -0.2038857E-01  0.1652842E+06  0.1575039E+01
  0.7000000E+00  0.9574164E+05 -0.1565318E+01  0.1768318E+06 -0.2391916E-01  0.1794144E+06  0.1576275E+01
  0.7309524E+00  0.1037605E+06 -0.1563818E+01  0.1714299E+06 -0.2777979E-01  0.1940058E+06  0.1577775E+01
  0.7619048E+00  0.1120435E+06 -0.1562007E+01  0.1659176E+06 -0.3201649E-01  0.2090617E+06  0.1579586E+01
  0.7928572E+00  0.1204363E+06 -0.1559843E+01  0.1604273E+06 -0.3663638E-01  0.2242347E+06  0.1581750E+01
  0.8238096E+00  0.1290789E+06 -0.1557281E+01  0.1549460E+06 -0.4167490E-01  0.2399405E+06  0.1584313E+01
  0.8547620E+00  0.1378968E+06 -0.1554278E+01  0.1494178E+06 -0.4711897E-01  0.2557875E+06  0.1587317E+01
  0.8857143E+00  0.1470067E+06 -0.1550783E+01  0.1438412E+06 -0.5299474E-01  0.2720073E+06  0.1590812E+01
  0.9166667E+00  0.1561917E+06 -0.1546742E+01  0.1383780E+06 -0.5926761E-01  0.2881250E+06  0.1594853E+01
  0.9476191E+00  0.1655722E+06 -0.1542100E+01  0.1329718E+06 -0.6601513E-01  0.3046410E+06  0.1599497E+01
  0.9785714E+00  0.1749669E+06 -0.1536812E+01  0.1275831E+06 -0.7321659E-01  0.3209440E+06  0.1604788E+01
  0.1009524E+01  0.1845138E+06 -0.1530824E+01  0.1222035E+06 -0.8092407E-01  0.3375468E+06  0.1610779E+01
  0.1040476E+01  0.1939781E+06 -0.1524101E+01  0.1168937E+06 -0.8909501E-01  0.3539140E+06  0.1617506E+01
  0.1071429E+01  0.2034193E+06 -0.1516608E+01  0.1117893E+06 -0.9766758E-01  0.3700106E+06  0.1625001E+01
  0.1102381E+01  0.2129367E+06 -0.1508321E+01  0.1067503E+06 -0.1067745E+00  0.3860358E+06  0.1633288E+01
  0.1133333E+01  0.2223970E+06 -0.1499202E+01  0.1017729E+06 -0.1164357E+00  0.4015853E+06  0.1642406E+01
  0.1164286E+01  0.2317861E+06 -0.1489202E+01  0.9685469E+05 -0.1267267E+00  0.4169645E+06  0.1652413E+01
  0.1195238E+01  0.2408246E+06 -0.1478329E+01  0.9202545E+05 -0.1376031E+00  0.4315788E+06  0.1663296E+01
  0.1226190E+01  0.2494547E+06 -0.1466605E+01  0.8747569E+05 -0.1486191E+00  0.4451087E+06  0.1675025E+01
  0.1257143E+01  0.2576956E+06 -0.1454024E+01  0.8303112E+05 -0.1604263E+00  0.4581383E+06  0.1687626E+01
  0.1288095E+01  0.2656778E+06 -0.1440656E+01  0.7868612E+05 -0.1727114E+00  0.4703147E+06  0.1701010E+01
  0.1319048E+01  0.2730497E+06 -0.1426586E+01  0.7444827E+05 -0.1858027E+00  0.4813284E+06  0.1715102E+01
  0.1350000E+01  0.2799034E+06 -0.1411903E+01  0.7031234E+05 -0.1997191E+00  0.4913421E+06  0.1729807E+01
  0.1380952E+01  0.2859944E+06 -0.1396767E+01  0.6630241E+05 -0.2142644E+00  0.4996922E+06  0.1744953E+01
  0.1411905E+01  0.2910817E+06 -0.1381262E+01  0.6257811E+05 -0.2284468E+00  0.5060346E+06  0.1760432E+01
  0.1442857E+01  0.2957137E+06 -0.1365464E+01  0.5897351E+05 -0.2435800E+00  0.5115063E+06  0.1776257E+01
  0.1473810E+01  0.2994241E+06 -0.1349599E+01  0.5549596E+05 -0.2594098E+00  0.5151621E+06  0.1792150E+01
  0.1504762E+01  0.3021866E+06 -0.1333867E+01  0.5213687E+05 -0.2760862E+00  0.5169723E+06  0.1807922E+01
  0.1535714E+01  0.3040822E+06 -0.1318445E+01  0.4890809E+05 -0.2936898E+00  0.5172433E+06  0.1823370E+01
  0.1566667E+01  0.3050167E+06 -0.1303491E+01  0.4579636E+05 -0.3124395E+00  0.5159136E+06  0.1838378E+01
  0.1597619E+01  0.3049563E+06 -0.1289357E+01  0.4283275E+05 -0.3315798E+00  0.5126803E+06  0.1852528E+01
  0.1628572E+01  0.3038987E+06 -0.1276238E+01  0.4007810E+05 -0.3497450E+00  0.5074698E+06  0.1865590E+01
  0.1659524E+01  0.3020988E+06 -0.1264040E+01  0.3746146E+05 -0.3688757E+00  0.5012699E+06  0.1877853E+01
  0.1690476E+01  0.2994605E+06 -0.1253033E+01  0.3496787E+05 -0.3888154E+00  0.4936582E+06  0.1888924E+01
  0.1721429E+01  0.2959407E+06 -0.1243593E+01  0.3258395E+05 -0.4097809E+00  0.4843928E+06  0.1898394E+01
  0.1752381E+01  0.2918067E+06 -0.1235659E+01  0.3031704E+05 -0.4317060E+00  0.4741950E+06  0.1906368E+01
  0.1783333E+01  0.2871583E+06 -0.1229346E+01  0.2816531E+05 -0.4546393E+00  0.4632432E+06  0.1912716E+01
  0.1814286E+01  0.2818715E+06 -0.1224830E+01  0.2612326E+05 -0.4787813E+00  0.4513777E+06  0.1917320E+01
  0.1845238E+01  0.2760551E+06 -0.1222190E+01  0.2419946E+05 -0.5034020E+00  0.4386272E+06  0.1919975E+01
  0.1876190E+01  0.2697314E+06 -0.1221637E+01  0.2240570E+05 -0.5268131E+00  0.4249759E+06  0.1920389E+01
  0.1907143E+01  0.2631628E+06 -0.1222843E+01  0.2073006E+05 -0.5507916E+00  0.4112711E+06  0.1919296E+01
  0.1938095E+01  0.2563749E+06 -0.1226013E+01  0.1915094E+05 -0.5751240E+00  0.3974013E+06  0.1916288E+01
  0.1969048E+01  0.2493460E+06 -0.1231460E+01  0.1765317E+05 -0.6007509E+00  0.3830849E+06  0.1910771E+01
  0.2000000E+01  0.2422004E+06 -0.1238889E+01  0.1624067E+05 -0.6282293E+00  0.3687365E+06  0.1903341E+01
