VARIABLES="w (rad/s)"
"A   1   1" "B   1   1"
"A   1   2" "B   1   2"
"A   1   3" "B   1   3"
Zone t="Motion of body    1 in DoF   1",I=    64,F=POINT
  0.5000000E-01  0.1351417E+06  0.1699828E-01 -0.1785278E-01 -0.2953006E-04 -0.2104378E+06 -0.2243611E-01
  0.8095238E-01  0.1358725E+06  0.7447457E-01 -0.8482091E-03  0.7837673E-04 -0.2112616E+06 -0.9697039E-01
  0.1119048E+00  0.1360494E+06  0.2089081E+00 -0.5863271E-02  0.1126854E-03 -0.2114283E+06 -0.2717669E+00
  0.1428571E+00  0.1364520E+06  0.4696777E+00  0.2349854E-02  0.1017475E-03 -0.2114655E+06 -0.6090699E+00
  0.1738095E+00  0.1364389E+06  0.9327636E+00 -0.2554698E-01 -0.1683589E-03 -0.2116895E+06 -0.1207059E+01
  0.2047619E+00  0.1368938E+06  0.1717828E+01 -0.1952415E-01 -0.6379373E-04 -0.2117249E+06 -0.2213213E+01
  0.2357143E+00  0.1369606E+06  0.3015689E+01 -0.1450047E-01 -0.2318621E-03 -0.2119416E+06 -0.3871817E+01
  0.2666667E+00  0.1371751E+06  0.5129268E+01 -0.1991272E-01 -0.1172610E-03 -0.2120887E+06 -0.6555235E+01
  0.2976190E+00  0.1376856E+06  0.8579154E+01 -0.1025391E-01 -0.3184378E-04 -0.2121490E+06 -0.1089519E+02
  0.3285715E+00  0.1380404E+06  0.1413907E+02 -0.1272450E-01 -0.2233982E-03 -0.2124592E+06 -0.1784517E+02
  0.3595238E+00  0.1383009E+06  0.2311188E+02  0.1247785E-01  0.9658635E-03 -0.2126112E+06 -0.2898386E+02
  0.3904762E+00  0.1389392E+06  0.3753221E+02  0.2672893E-01  0.2243251E-02 -0.2128743E+06 -0.4669461E+02
  0.4214286E+00  0.1395447E+06  0.6009649E+02  0.9993212E-02  0.8699894E-03 -0.2132668E+06 -0.7414446E+02
  0.4523810E+00  0.1400066E+06  0.9532903E+02 -0.3238075E-02  0.1168728E-02 -0.2136440E+06 -0.1166583E+03
  0.4833333E+00  0.1405714E+06  0.1474345E+03  0.2651872E-02  0.5970001E-03 -0.2139418E+06 -0.1787116E+03
  0.5142857E+00  0.1414825E+06  0.2244562E+03  0.2136231E-02  0.1780272E-02 -0.2143532E+06 -0.2692388E+03
  0.5452381E+00  0.1423629E+06  0.3333832E+03  0.3694093E-02  0.2436876E-02 -0.2150355E+06 -0.3957639E+03
  0.5761905E+00  0.1430182E+06  0.4830111E+03  0.7944658E-02  0.1010895E-03 -0.2157172E+06 -0.5674780E+03
  0.6071429E+00  0.1439903E+06  0.6871387E+03  0.9047563E-02  0.3362656E-02 -0.2161288E+06 -0.7973979E+03
  0.6380953E+00  0.1450949E+06  0.9559041E+03 -0.1444347E-01 -0.2551079E-02 -0.2167762E+06 -0.1095348E+04
  0.6690477E+00  0.1463150E+06  0.1306766E+04 -0.2736808E-02  0.6933212E-03 -0.2175811E+06 -0.1477794E+04
  0.7000000E+00  0.1474836E+06  0.1758594E+04  0.0000000E+00  0.3391266E-02 -0.2183334E+06 -0.1961734E+04
  0.7309524E+00  0.1485565E+06  0.2327995E+04  0.7515077E-02  0.3486633E-02 -0.2191529E+06 -0.2561300E+04
  0.7619048E+00  0.1498367E+06  0.3040422E+04 -0.1009369E-01  0.1075745E-02 -0.2198786E+06 -0.3294780E+04
  0.7928572E+00  0.1512899E+06  0.3921963E+04 -0.1370267E-01 -0.1110077E-02 -0.2204474E+06 -0.4180380E+04
  0.8238096E+00  0.1528566E+06  0.4999835E+04 -0.4297157E-02  0.4196167E-03 -0.2212563E+06 -0.5241210E+04
  0.8547620E+00  0.1542552E+06  0.6299627E+04  0.8568724E-03  0.4623413E-02 -0.2219140E+06 -0.6490675E+04
  0.8857143E+00  0.1556375E+06  0.7853416E+04  0.5375031E-02  0.9346008E-02 -0.2227299E+06 -0.7951517E+04
  0.9166667E+00  0.1569129E+06  0.9687413E+04  0.1598011E-02  0.1393127E-01 -0.2231189E+06 -0.9623704E+04
  0.9476191E+00  0.1582737E+06  0.1183252E+05 -0.9146072E-02 -0.5340576E-03 -0.2234977E+06 -0.1152625E+05
  0.9785714E+00  0.1595510E+06  0.1431497E+05 -0.3405495E-01 -0.2200317E-01 -0.2236339E+06 -0.1366158E+05
  0.1009524E+01  0.1608119E+06  0.1716315E+05  0.3264805E-02  0.1983643E-02 -0.2237691E+06 -0.1604047E+05
  0.1040476E+01  0.1619123E+06  0.2039325E+05 -0.1302270E-01  0.3509521E-02 -0.2236303E+06 -0.1864372E+05
  0.1071429E+01  0.1628608E+06  0.2402012E+05 -0.1492513E-01 -0.4272461E-02 -0.2232951E+06 -0.2145796E+05
  0.1102381E+01  0.1635192E+06  0.2804803E+05 -0.2214666E-01 -0.1296997E-01 -0.2229098E+06 -0.2447591E+05
  0.1133333E+01  0.1637524E+06  0.3246259E+05  0.3015855E-02 -0.3051758E-04 -0.2220650E+06 -0.2763348E+05
  0.1164286E+01  0.1637763E+06  0.3725348E+05 -0.1467839E-01 -0.1367188E-01 -0.2210186E+06 -0.3090912E+05
  0.1195238E+01  0.1634906E+06  0.4238298E+05 -0.9396009E-02 -0.9582520E-02 -0.2195829E+06 -0.3423401E+05
  0.1226190E+01  0.1629557E+06  0.4782020E+05 -0.3185680E-02 -0.1892090E-02 -0.2178583E+06 -0.3756183E+05
  0.1257143E+01  0.1620948E+06  0.5355246E+05  0.7768110E-03  0.1708984E-02 -0.2160684E+06 -0.4088906E+05
  0.1288095E+01  0.1608593E+06  0.5941805E+05  0.8339591E-02  0.1879883E-01 -0.2140811E+06 -0.4405907E+05
  0.1319048E+01  0.1591545E+06  0.6543144E+05 -0.2035974E-02  0.2795410E-01 -0.2116822E+06 -0.4703260E+05
  0.1350000E+01  0.1572196E+06  0.7150505E+05  0.2170139E-02  0.2661133E-01 -0.2093210E+06 -0.4980776E+05
  0.1380952E+01  0.1549225E+06  0.7753071E+05 -0.8839575E-02  0.7080078E-02 -0.2066309E+06 -0.5223481E+05
  0.1411905E+01  0.1514622E+06  0.8252402E+05 -0.1106661E-01 -0.2526855E-01 -0.2038682E+06 -0.5383807E+05
  0.1442857E+01  0.1487142E+06  0.8822046E+05 -0.1269048E-01 -0.1611328E-01 -0.2010921E+06 -0.5550788E+05
  0.1473810E+01  0.1457029E+06  0.9370079E+05 -0.1540571E-01 -0.2685547E-02 -0.1984440E+06 -0.5684465E+05
  0.1504762E+01  0.1424168E+06  0.9884323E+05 -0.1297963E-02 -0.1977539E-01 -0.1956063E+06 -0.5765141E+05
  0.1535714E+01  0.1390322E+06  0.1036455E+06 -0.3020530E-02 -0.1538086E-01 -0.1929318E+06 -0.5807853E+05
  0.1566667E+01  0.1356249E+06  0.1080791E+06 -0.4986702E-02 -0.2185059E-01 -0.1905098E+06 -0.5812807E+05
  0.1597619E+01  0.1320568E+06  0.1120485E+06 -0.5806981E-02  0.8789062E-02 -0.1879762E+06 -0.5763332E+05
  0.1628572E+01  0.1285454E+06  0.1155870E+06 -0.7795367E-02 -0.1342773E-02 -0.1856868E+06 -0.5679371E+05
  0.1659524E+01  0.1250884E+06  0.1186555E+06 -0.6031709E-02  0.1342773E-02 -0.1835528E+06 -0.5552068E+05
  0.1690476E+01  0.1216974E+06  0.1213202E+06 -0.6065690E-02 -0.7568359E-02 -0.1817219E+06 -0.5402476E+05
  0.1721429E+01  0.1183625E+06  0.1235401E+06 -0.8509466E-02 -0.5126953E-02 -0.1800260E+06 -0.5220695E+05
  0.1752381E+01  0.1150668E+06  0.1253113E+06 -0.2368430E-02  0.2929688E-02 -0.1783665E+06 -0.4999946E+05
  0.1783333E+01  0.1119769E+06  0.1267545E+06 -0.8624781E-02 -0.2612305E-01 -0.1771170E+06 -0.4780004E+05
  0.1814286E+01  0.1090598E+06  0.1278309E+06 -0.5315345E-02  0.1733398E-01 -0.1760773E+06 -0.4537891E+05
  0.1845238E+01  0.1061756E+06  0.1284857E+06 -0.1521547E-01 -0.8544922E-02 -0.1749953E+06 -0.4262539E+05
  0.1876190E+01  0.1035025E+06  0.1288611E+06 -0.7937669E-02  0.2441406E-03 -0.1742231E+06 -0.3991483E+05
  0.1907143E+01  0.1010004E+06  0.1289002E+06 -0.1344145E-02 -0.5371094E-02 -0.1735628E+06 -0.3695072E+05
  0.1938095E+01  0.9870434E+05  0.1287322E+06 -0.7180254E-02 -0.7568359E-02 -0.1731776E+06 -0.3406661E+05
  0.1969048E+01  0.9650750E+05  0.1283660E+06 -0.7129379E-02 -0.1342773E-01 -0.1729347E+06 -0.3131333E+05
  0.2000000E+01  0.9441498E+05  0.1276863E+06 -0.9216309E-02 -0.1953125E-02 -0.1726442E+06 -0.2815526E+05
Zone t="Motion of body    1 in DoF   2",I=    64,F=POINT
  0.5000000E-01  0.4577637E-02 -0.6675720E-05  0.1133833E+06  0.4005899E+03 -0.1220703E-02 -0.5817413E-04
  0.8095238E-01 -0.1130946E-02  0.7724762E-04  0.1114839E+06  0.6639373E+03 -0.5277746E-01 -0.1239777E-03
  0.1119048E+00  0.1554449E-01  0.4024506E-03  0.1105301E+06  0.9501710E+03 -0.1908972E-01  0.1068115E-03
  0.1428571E+00 -0.6195068E-02 -0.3147125E-03  0.1099397E+06  0.1269953E+04  0.4272461E-02 -0.3051758E-04
  0.1738095E+00 -0.1861154E-01 -0.7629395E-05  0.1098000E+06  0.1636501E+04 -0.2071851E-01 -0.8087158E-03
  0.2047619E+00 -0.1907703E-01  0.8773804E-04  0.1098806E+06  0.2066712E+04 -0.2384629E-02  0.4577637E-03
  0.2357143E+00  0.1890240E-01 -0.1792908E-03  0.1101813E+06  0.2583803E+04  0.1424154E-01 -0.3585815E-03
  0.2666667E+00  0.2082825E-01 -0.3814697E-03  0.1106710E+06  0.3206849E+04 -0.8926392E-02 -0.1525879E-04
  0.2976190E+00 -0.1107422E-01  0.7629395E-04  0.1112153E+06  0.3980381E+04  0.1025391E-01 -0.7553101E-03
  0.3285715E+00 -0.1077403E-01 -0.4959106E-03  0.1119183E+06  0.4925326E+04 -0.2266262E-01 -0.2563477E-02
  0.3595238E+00 -0.1850457E-01 -0.3356934E-03  0.1125403E+06  0.6094553E+04  0.1256273E-01  0.3662109E-03
  0.3904762E+00  0.9065953E-02  0.7629395E-04  0.1131165E+06  0.7524357E+04 -0.2500952E-02 -0.2777100E-02
  0.4214286E+00 -0.1477258E-01 -0.1373291E-03  0.1132529E+06  0.9197022E+04 -0.5793167E-02 -0.2136230E-02
  0.4523810E+00  0.7555509E-02 -0.2685547E-02  0.1133182E+06  0.1119476E+05 -0.1511102E-01 -0.5493164E-03
  0.4833333E+00  0.3788389E-02 -0.2441406E-03  0.1128570E+06  0.1335095E+05 -0.3788389E-02  0.3356934E-03
  0.5142857E+00 -0.9019640E-02  0.5187988E-03  0.1119476E+06  0.1576481E+05  0.7595486E-02 -0.9460449E-03
  0.5452381E+00 -0.3358266E-02  0.1281738E-02  0.1107716E+06  0.1829509E+05 -0.5820995E-02 -0.2868652E-02
  0.5761905E+00 -0.1673675E-01  0.2685547E-02  0.1093232E+06  0.2089563E+05 -0.2203318E-01 -0.4882812E-03
  0.6071429E+00  0.1910041E-01 -0.1464844E-02  0.1075584E+06  0.2362656E+05  0.2050781E-01 -0.2746582E-02
  0.6380953E+00 -0.1989564E-01  0.1037598E-02  0.1056376E+06  0.2633380E+05 -0.1606955E-01 -0.2014160E-02
  0.6690477E+00  0.2444881E-01 -0.8056641E-02  0.1035172E+06  0.2906554E+05  0.2335409E-01  0.1019287E-01
  0.7000000E+00  0.6975446E-03 -0.7141113E-02  0.1012659E+06  0.3182883E+05 -0.3801618E-01 -0.3662109E-02
  0.7309524E+00  0.1970620E-01  0.3784180E-02  0.9898788E+05  0.3454382E+05 -0.1837019E-01  0.2563477E-02
  0.7619048E+00 -0.2243042E-02 -0.6103516E-04  0.9659523E+05  0.3722602E+05  0.2210998E-01  0.1708984E-02
  0.7928572E+00 -0.2771326E-02  0.5737305E-02  0.9407277E+05  0.3986980E+05  0.1632003E-01 -0.3173828E-02
  0.8238096E+00 -0.5927113E-03  0.2685547E-02  0.9149347E+05  0.4244506E+05 -0.8890670E-03 -0.1550293E-01
  0.8547620E+00 -0.9996844E-02 -0.2685547E-02  0.8891317E+05  0.4492855E+05  0.2856241E-02 -0.8300781E-02
  0.8857143E+00 -0.6201959E-02 -0.1586914E-02  0.8636255E+05  0.4730078E+05 -0.1984627E-01  0.1220703E-01
  0.9166667E+00 -0.3595525E-02 -0.1831055E-02  0.8382589E+05  0.4956123E+05  0.2024148E-01 -0.1367188E-01
  0.9476191E+00 -0.7084985E-02 -0.5615234E-02  0.8127730E+05  0.5170509E+05  0.2833994E-02  0.1403809E-01
  0.9785714E+00 -0.1447023E-01  0.4882812E-02  0.7872752E+05  0.5372862E+05  0.3842096E-01  0.1831055E-02
  0.1009524E+01 -0.3869399E-02  0.4150391E-02  0.7621284E+05  0.5561632E+05 -0.4594911E-02 -0.2197266E-02
  0.1040476E+01 -0.1431323E-01  0.9887695E-02  0.7374150E+05  0.5736148E+05  0.3285004E-02  0.5126953E-02
  0.1071429E+01 -0.5810547E-02  0.1623535E-01  0.7135519E+05  0.5894412E+05  0.9342448E-02 -0.4150391E-02
  0.1102381E+01 -0.9523066E-02 -0.6469727E-02  0.6905879E+05  0.6036839E+05  0.1195920E-01 -0.8300781E-02
  0.1133333E+01 -0.7216510E-02  0.5981445E-02  0.6682191E+05  0.6165155E+05  0.2972771E-01 -0.2929688E-01
  0.1164286E+01 -0.2935678E-02 -0.1220703E-02  0.6469923E+05  0.6277826E+05  0.2872771E-01 -0.6347656E-02
  0.1195238E+01 -0.1572810E-01 -0.6103516E-02  0.6264091E+05  0.6377300E+05  0.1348123E-01  0.2929688E-02
  0.1226190E+01 -0.9656591E-02 -0.9033203E-02  0.6067941E+05  0.6462073E+05  0.1234451E-01  0.3906250E-02
  0.1257143E+01  0.3495650E-02  0.9765625E-03  0.5880236E+05  0.6536003E+05 -0.1475941E-01 -0.4394531E-02
  0.1288095E+01 -0.7202374E-02  0.8789062E-02  0.5700321E+05  0.6591456E+05  0.1611057E-01  0.1489258E-01
  0.1319048E+01  0.9624605E-02  0.2441406E-03  0.5528129E+05  0.6637741E+05  0.0000000E+00 -0.1586914E-01
  0.1350000E+01  0.1121238E-01  0.2929688E-02  0.5368128E+05  0.6669141E+05  0.1012731E-01  0.1220703E-02
  0.1380952E+01  0.1856311E-02 -0.1489258E-01  0.5216691E+05  0.6688848E+05  0.5480536E-02  0.1416016E-01
  0.1411905E+01 -0.1236348E-01  0.5859375E-02  0.5050229E+05  0.6703391E+05  0.1625408E-01 -0.9033203E-02
  0.1442857E+01 -0.7783493E-02 -0.6347656E-02  0.4916366E+05  0.6702091E+05  0.6768255E-03 -0.6103516E-02
  0.1473810E+01 -0.4555451E-02  0.2197266E-02  0.4792065E+05  0.6692686E+05  0.1466027E-01 -0.7080078E-02
  0.1504762E+01 -0.1541331E-02 -0.3417969E-02  0.4673616E+05  0.6675477E+05 -0.3326030E-02 -0.3247070E-01
  0.1535714E+01 -0.4769258E-02  0.2197266E-02  0.4564579E+05  0.6649441E+05 -0.6756450E-02  0.6835938E-02
  0.1566667E+01 -0.6311295E-02 -0.5371094E-02  0.4464520E+05  0.6614041E+05  0.1207717E-01 -0.1025391E-01
  0.1597619E+01  0.4278828E-02 -0.1000977E-01  0.4369596E+05  0.6573976E+05  0.1673327E-01 -0.1000977E-01
  0.1628572E+01  0.2623441E-02  0.3662109E-02  0.4283096E+05  0.6525516E+05  0.1251756E-01 -0.2221680E-01
  0.1659524E+01  0.7502858E-02 -0.3662109E-02  0.4203273E+05  0.6468866E+05 -0.6473054E-02 -0.9033203E-02
  0.1690476E+01 -0.6715586E-02  0.1220703E-02  0.4130850E+05  0.6407559E+05  0.1299791E-02 -0.1049805E-01
  0.1721429E+01  0.1843718E-02  0.8056641E-02  0.4063971E+05  0.6342095E+05 -0.6736661E-02 -0.1855469E-01
  0.1752381E+01 -0.3482985E-03 -0.7324219E-03  0.4000975E+05  0.6272723E+05 -0.1107589E-01 -0.5859375E-02
  0.1783333E+01 -0.4586193E-02 -0.6103516E-02  0.3945976E+05  0.6198859E+05  0.4654644E-02 -0.5859375E-02
  0.1814286E+01 -0.4373386E-02 -0.3417969E-02  0.3896683E+05  0.6119514E+05 -0.2691314E-02 -0.9521484E-02
  0.1845238E+01 -0.9460055E-02  0.5126953E-02  0.3849540E+05  0.6039808E+05  0.1455393E-01 -0.5371094E-02
  0.1876190E+01 -0.9108800E-03  0.3662109E-02  0.3808518E+05  0.5956332E+05  0.1821760E-02 -0.9521484E-02
  0.1907143E+01  0.3392366E-02  0.7324219E-02  0.3771584E+05  0.5867714E+05  0.9601036E-02 -0.2441406E-01
  0.1938095E+01  0.3653112E-02  0.4882812E-03  0.3740222E+05  0.5775293E+05  0.2563477E-01 -0.1684570E-01
  0.1969048E+01  0.1890835E-02  0.4394531E-02  0.3712103E+05  0.5685579E+05  0.9051211E-02 -0.1879883E-01
  0.2000000E+01  0.1220703E-03  0.1684570E-01  0.3686371E+05  0.5592700E+05  0.4089355E-02 -0.1562500E-01
Zone t="Motion of body    1 in DoF   3",I=    64,F=POINT
  0.5000000E-01 -0.2102789E+06 -0.2232625E-01 -0.6115437E-02 -0.7378570E-04  0.8205348E+06  0.3064469E-01
  0.8095238E-01 -0.2112158E+06 -0.9656733E-01  0.4853641E-02 -0.4196679E-04  0.8209674E+06  0.1252340E+00
  0.1119048E+00 -0.2113937E+06 -0.2707013E+00 -0.3185171E-02 -0.1207921E-03  0.8211584E+06  0.3519875E+00
  0.1428571E+00 -0.2114405E+06 -0.6073033E+00  0.7179737E-02  0.2553798E-03  0.8213392E+06  0.7864668E+00
  0.1738095E+00 -0.2116618E+06 -0.1202330E+01  0.4065788E-02  0.2573337E-03  0.8214001E+06  0.1554669E+01
  0.2047619E+00 -0.2117067E+06 -0.2206327E+01  0.2202988E-02  0.5489402E-04  0.8215732E+06  0.2843797E+01
  0.2357143E+00 -0.2119214E+06 -0.3856921E+01  0.4290667E-02  0.7780604E-03  0.8215459E+06  0.4952590E+01
  0.2666667E+00 -0.2120563E+06 -0.6528021E+01  0.8994877E-01  0.2914928E-02  0.8216701E+06  0.8344337E+01
  0.2976190E+00 -0.2121129E+06 -0.1086056E+02 -0.2796112E-01 -0.7454082E-03  0.8219267E+06  0.1379050E+02
  0.3285715E+00 -0.2124345E+06 -0.1778125E+02  0.3411147E-01  0.8742213E-03  0.8219914E+06  0.2244058E+02
  0.3595238E+00 -0.2125310E+06 -0.2887405E+02  0.8058610E-02  0.5771816E-03  0.8224197E+06  0.3620665E+02
  0.3904762E+00 -0.2128129E+06 -0.4653584E+02  0.5798107E-02  0.5356669E-03  0.8226298E+06  0.5789843E+02
  0.4214286E+00 -0.2132325E+06 -0.7390487E+02  0.1345115E-01  0.2261460E-02  0.8227256E+06  0.9116732E+02
  0.4523810E+00 -0.2135847E+06 -0.1162305E+03  0.2620949E-01  0.2967000E-02  0.8230326E+06  0.1423068E+03
  0.4833333E+00 -0.2138473E+06 -0.1780765E+03 -0.7718596E-02  0.2090931E-02  0.8236005E+06  0.2158470E+03
  0.5142857E+00 -0.2142831E+06 -0.2685145E+03 -0.3825095E-01 -0.3855944E-02  0.8239385E+06  0.3220310E+03
  0.5452381E+00 -0.2150039E+06 -0.3945860E+03 -0.5849680E-01 -0.8617878E-02  0.8241408E+06  0.4684018E+03
  0.5761905E+00 -0.2156452E+06 -0.5651423E+03 -0.5938632E-01 -0.1399183E-01  0.8247464E+06  0.6639352E+03
  0.6071429E+00 -0.2160298E+06 -0.7947314E+03  0.6257898E-02  0.3070831E-03  0.8253765E+06  0.9226149E+03
  0.6380953E+00 -0.2167000E+06 -0.1091914E+04 -0.3366655E-01 -0.1293468E-01  0.8257689E+06  0.1251025E+04
  0.6690477E+00 -0.2175269E+06 -0.1473034E+04 -0.1322790E-01 -0.2954483E-02  0.8262753E+06  0.1665551E+04
  0.7000000E+00 -0.2182812E+06 -0.1954817E+04 -0.3951481E-01 -0.9840012E-02  0.8266896E+06  0.2181066E+04
  0.7309524E+00 -0.2190568E+06 -0.2549987E+04  0.4065448E-02  0.1659393E-02  0.8273428E+06  0.2805896E+04
  0.7619048E+00 -0.2197561E+06 -0.3280264E+04  0.3524780E-02  0.5661011E-02  0.8280449E+06  0.3554403E+04
  0.7928572E+00 -0.2203390E+06 -0.4165450E+04  0.3747063E-01  0.2840805E-01  0.8284888E+06  0.4438429E+04
  0.8238096E+00 -0.2211733E+06 -0.5222064E+04  0.2179140E-01  0.1303864E-01  0.8286294E+06  0.5471836E+04
  0.8547620E+00 -0.2218424E+06 -0.6465197E+04 -0.5603588E-01 -0.2995300E-01  0.8287945E+06  0.6659560E+04
  0.8857143E+00 -0.2226317E+06 -0.7910181E+04 -0.1043135E-01 -0.4257202E-02  0.8290199E+06  0.8010175E+04
  0.9166667E+00 -0.2229864E+06 -0.9574281E+04  0.8639249E-02  0.1000977E-01  0.8293177E+06  0.9514136E+04
  0.9476191E+00 -0.2233460E+06 -0.1146623E+05 -0.1768026E-01 -0.1695251E-01  0.8292044E+06  0.1116783E+05
  0.9785714E+00 -0.2234916E+06 -0.1359458E+05  0.1822813E-01  0.1693726E-01  0.8289370E+06  0.1296359E+05
  0.1009524E+01 -0.2236338E+06 -0.1595812E+05  0.5275079E-02  0.4898071E-02  0.8285239E+06  0.1489418E+05
  0.1040476E+01 -0.2235085E+06 -0.1854760E+05 -0.9957669E-02  0.1895142E-01  0.8278326E+06  0.1693139E+05
  0.1071429E+01 -0.2231848E+06 -0.2134653E+05  0.3218587E-02  0.8697510E-02  0.8269911E+06  0.1904962E+05
  0.1102381E+01 -0.2227744E+06 -0.2431571E+05 -0.3266633E-02  0.6713867E-03  0.8259299E+06  0.2121512E+05
  0.1133333E+01 -0.2219202E+06 -0.2743136E+05 -0.2210729E-01  0.2157593E-01  0.8246712E+06  0.2336976E+05
  0.1164286E+01 -0.2208514E+06 -0.3066978E+05 -0.1622487E-01  0.1708984E-02  0.8235422E+06  0.2547159E+05
  0.1195238E+01 -0.2194146E+06 -0.3396690E+05  0.1568980E-01 -0.5950928E-02  0.8219945E+06  0.2744481E+05
  0.1226190E+01 -0.2177039E+06 -0.3727985E+05 -0.1620217E-01 -0.6469727E-02  0.8203269E+06  0.2926757E+05
  0.1257143E+01 -0.2158800E+06 -0.4049490E+05 -0.1174927E-01 -0.2191162E-01  0.8181009E+06  0.3086748E+05
  0.1288095E+01 -0.2139183E+06 -0.4360357E+05 -0.1451728E-01  0.1263428E-01  0.8161729E+06  0.3227948E+05
  0.1319048E+01 -0.2115744E+06 -0.4653206E+05  0.5682797E-02  0.4364014E-01  0.8139799E+06  0.3337406E+05
  0.1350000E+01 -0.2092342E+06 -0.4922795E+05 -0.2835274E-01 -0.3247070E-01  0.8120038E+06  0.3416575E+05
  0.1380952E+01 -0.2065934E+06 -0.5163233E+05 -0.1665707E-01  0.9765625E-03  0.8099774E+06  0.3459525E+05
  0.1411905E+01 -0.2056926E+06 -0.5497924E+05 -0.6006122E-02  0.3356934E-02  0.8082921E+06  0.3563081E+05
  0.1442857E+01 -0.2028749E+06 -0.5670820E+05  0.2675576E-02  0.2453613E-01  0.8061531E+06  0.3536241E+05
  0.1473810E+01 -0.2001790E+06 -0.5808103E+05  0.1918466E-01  0.4089355E-01  0.8045728E+06  0.3486705E+05
  0.1504762E+01 -0.1973295E+06 -0.5898272E+05  0.2210593E-02 -0.7446289E-02  0.8028109E+06  0.3392531E+05
  0.1535714E+01 -0.1946363E+06 -0.5949771E+05 -0.1695074E-01 -0.3295898E-02  0.8014651E+06  0.3279389E+05
  0.1566667E+01 -0.1921672E+06 -0.5952037E+05  0.7674846E-02  0.1879883E-01  0.8001465E+06  0.3130825E+05
  0.1597619E+01 -0.1896311E+06 -0.5913784E+05 -0.9837485E-02 -0.7812500E-02  0.7990299E+06  0.2963774E+05
  0.1628572E+01 -0.1873132E+06 -0.5838976E+05 -0.1086854E-02  0.1751709E-01  0.7982704E+06  0.2784595E+05
  0.1659524E+01 -0.1851526E+06 -0.5714225E+05 -0.7502858E-02 -0.4516602E-02  0.7973055E+06  0.2567687E+05
  0.1690476E+01 -0.1832932E+06 -0.5563204E+05 -0.4152110E-02  0.2233887E-01  0.7967461E+06  0.2349856E+05
  0.1721429E+01 -0.1815788E+06 -0.5384579E+05 -0.8864027E-03  0.1977539E-01  0.7964666E+06  0.2135583E+05
  0.1752381E+01 -0.1799225E+06 -0.5178761E+05  0.3866113E-02  0.3936768E-01  0.7961931E+06  0.1902614E+05
  0.1783333E+01 -0.1786442E+06 -0.4961444E+05  0.1677041E-02  0.1513672E-01  0.7964022E+06  0.1701213E+05
  0.1814286E+01 -0.1775641E+06 -0.4712076E+05 -0.2634124E-01 -0.8361816E-02  0.7964208E+06  0.1459802E+05
  0.1845238E+01 -0.1764641E+06 -0.4452663E+05 -0.9129284E-02 -0.1220703E-02  0.7966936E+06  0.1247744E+05
  0.1876190E+01 -0.1756571E+06 -0.4187695E+05  0.3513394E-02 -0.7019043E-02  0.7972150E+06  0.1062256E+05
  0.1907143E+01 -0.1749792E+06 -0.3892976E+05 -0.9537029E-02  0.3906250E-02  0.7974697E+06  0.8407926E+04
  0.1938095E+01 -0.1745798E+06 -0.3593806E+05  0.9132779E-02  0.4150391E-02  0.7977939E+06  0.6125058E+04
  0.1969048E+01 -0.1743318E+06 -0.3317677E+05  0.5765498E-02  0.1019287E-01  0.7985731E+06  0.4866347E+04
  0.2000000E+01 -0.1740553E+06 -0.3010862E+05  0.1397705E-01  0.1531982E-01  0.7990150E+06  0.2802064E+04
