VARIABLES="w (rad/s)"
"abs(F   1   1)" "angle(F   1   1)"
"abs(F   1   2)" "angle(F   1   2)"
"abs(F   1   3)" "angle(F   1   3)"
Zone t="Diffraction force - beta =   0.000 deg",I=    64,F=POINT
  0.5000000E-01  0.2001516E+04 -0.1570790E+01  0.3801907E+06 -0.2628834E-04  0.1668114E+03  0.1570732E+01
  0.8095238E-01  0.3265001E+04 -0.1570782E+01  0.3796118E+06 -0.7074267E-04  0.2746372E+03  0.1570683E+01
  0.1119048E+00  0.4562315E+04 -0.1570795E+01  0.3787621E+06 -0.1405474E-03  0.3851296E+03  0.1570812E+01
  0.1428571E+00  0.5903554E+04 -0.1570801E+01  0.3776402E+06 -0.2410900E-03  0.4947797E+03  0.1570817E+01
  0.1738095E+00  0.7301773E+04 -0.1570784E+01  0.3762426E+06 -0.3806486E-03  0.6081263E+03  0.1570768E+01
  0.2047619E+00  0.8774908E+04 -0.1570784E+01  0.3745642E+06 -0.5709664E-03  0.7230770E+03  0.1570860E+01
  0.2357143E+00  0.1034628E+05 -0.1570781E+01  0.3726040E+06 -0.8296258E-03  0.8360341E+03  0.1570796E+01
  0.2666667E+00  0.1202977E+05 -0.1570768E+01  0.3703512E+06 -0.1178215E-02  0.9648915E+03  0.1570844E+01
  0.2976190E+00  0.1385940E+05 -0.1570756E+01  0.3678074E+06 -0.1652596E-02  0.1092693E+04  0.1570810E+01
  0.3285715E+00  0.1587187E+05 -0.1570736E+01  0.3649635E+06 -0.2290499E-02  0.1218196E+04  0.1570856E+01
  0.3595238E+00  0.1807377E+05 -0.1570708E+01  0.3618244E+06 -0.3150133E-02  0.1368393E+04  0.1570886E+01
  0.3904762E+00  0.2051130E+05 -0.1570668E+01  0.3583837E+06 -0.4298966E-02  0.1522406E+04  0.1570906E+01
  0.4214286E+00  0.2322261E+05 -0.1570605E+01  0.3546813E+06 -0.5779169E-02  0.1669501E+04  0.1570976E+01
  0.4523810E+00  0.2621392E+05 -0.1570512E+01  0.3506931E+06 -0.7705360E-02  0.1817371E+04  0.1571088E+01
  0.4833333E+00  0.2946307E+05 -0.1570382E+01  0.3464734E+06 -0.1003352E-01  0.1993760E+04  0.1571200E+01
  0.5142857E+00  0.3300485E+05 -0.1570203E+01  0.3420351E+06 -0.1289456E-01  0.2145639E+04  0.1571360E+01
  0.5452381E+00  0.3681303E+05 -0.1569962E+01  0.3373959E+06 -0.1625408E-01  0.2301413E+04  0.1571617E+01
  0.5761905E+00  0.4085957E+05 -0.1569647E+01  0.3325619E+06 -0.2012602E-01  0.2446282E+04  0.1571940E+01
  0.6071429E+00  0.4512194E+05 -0.1569236E+01  0.3275565E+06 -0.2462008E-01  0.2597043E+04  0.1572351E+01
  0.6380953E+00  0.4958314E+05 -0.1568719E+01  0.3223788E+06 -0.2964299E-01  0.2717192E+04  0.1572872E+01
  0.6690477E+00  0.5425953E+05 -0.1568075E+01  0.3170696E+06 -0.3530632E-01  0.2806374E+04  0.1573500E+01
  0.7000000E+00  0.5912661E+05 -0.1567276E+01  0.3116441E+06 -0.4167777E-01  0.2865072E+04  0.1574307E+01
  0.7309524E+00  0.6415228E+05 -0.1566306E+01  0.3060776E+06 -0.4871304E-01  0.2906853E+04  0.1575267E+01
  0.7619048E+00  0.6934344E+05 -0.1565134E+01  0.3004112E+06 -0.5648470E-01  0.2954134E+04  0.1576432E+01
  0.7928572E+00  0.7467628E+05 -0.1563732E+01  0.2946771E+06 -0.6503975E-01  0.2915209E+04  0.1577830E+01
  0.8238096E+00  0.8020810E+05 -0.1562074E+01  0.2888933E+06 -0.7439746E-01  0.2837059E+04  0.1579462E+01
  0.8547620E+00  0.8584898E+05 -0.1560125E+01  0.2830701E+06 -0.8458157E-01  0.2708576E+04  0.1581380E+01
  0.8857143E+00  0.9164740E+05 -0.1557857E+01  0.2772059E+06 -0.9560724E-01  0.2554760E+04  0.1583621E+01
  0.9166667E+00  0.9755684E+05 -0.1555237E+01  0.2713053E+06 -0.1074985E+00  0.2312190E+04  0.1586116E+01
  0.9476191E+00  0.1035756E+06 -0.1552235E+01  0.2654134E+06 -0.1202822E+00  0.2092207E+04  0.1589042E+01
  0.9785714E+00  0.1096608E+06 -0.1548821E+01  0.2595441E+06 -0.1339854E+00  0.1775336E+04  0.1592254E+01
  0.1009524E+01  0.1158597E+06 -0.1544968E+01  0.2537014E+06 -0.1486260E+00  0.1400071E+04  0.1595693E+01
  0.1040476E+01  0.1221152E+06 -0.1540651E+01  0.2479002E+06 -0.1642293E+00  0.9115602E+03  0.1598902E+01
  0.1071429E+01  0.1284384E+06 -0.1535850E+01  0.2421508E+06 -0.1808028E+00  0.3718085E+03  0.1598294E+01
  0.1102381E+01  0.1347780E+06 -0.1530540E+01  0.2364561E+06 -0.1983741E+00  0.2001542E+03 -0.1512357E+01
  0.1133333E+01  0.1410825E+06 -0.1524719E+01  0.2308256E+06 -0.2169439E+00  0.8904774E+03 -0.1518916E+01
  0.1164286E+01  0.1473723E+06 -0.1518374E+01  0.2252426E+06 -0.2365390E+00  0.1583143E+04 -0.1514040E+01
  0.1195238E+01  0.1535702E+06 -0.1511520E+01  0.2197437E+06 -0.2572044E+00  0.2362767E+04 -0.1507656E+01
  0.1226190E+01  0.1596780E+06 -0.1504187E+01  0.2143227E+06 -0.2789652E+00  0.3242494E+04 -0.1500357E+01
  0.1257143E+01  0.1656057E+06 -0.1496359E+01  0.2089988E+06 -0.3021164E+00  0.4128588E+04 -0.1492579E+01
  0.1288095E+01  0.1714706E+06 -0.1488188E+01  0.2038030E+06 -0.3259386E+00  0.5184164E+04 -0.1484291E+01
  0.1319048E+01  0.1770383E+06 -0.1479613E+01  0.1987135E+06 -0.3512118E+00  0.6283943E+04 -0.1475619E+01
  0.1350000E+01  0.1824214E+06 -0.1470754E+01  0.1937364E+06 -0.3776648E+00  0.7405825E+04 -0.1466505E+01
  0.1380952E+01  0.1874710E+06 -0.1461666E+01  0.1888633E+06 -0.4053667E+00  0.8629368E+04 -0.1457197E+01
  0.1411905E+01  0.1915451E+06 -0.1453431E+01  0.1844428E+06 -0.4318607E+00  0.9669488E+04 -0.1448536E+01
  0.1442857E+01  0.1959498E+06 -0.1444298E+01  0.1798044E+06 -0.4620193E+00  0.1096681E+05 -0.1438972E+01
  0.1473810E+01  0.1999193E+06 -0.1435231E+01  0.1753191E+06 -0.4935783E+00  0.1224467E+05 -0.1429519E+01
  0.1504762E+01  0.2034289E+06 -0.1426412E+01  0.1710007E+06 -0.5265687E+00  0.1359656E+05 -0.1420174E+01
  0.1535714E+01  0.2065150E+06 -0.1417971E+01  0.1668413E+06 -0.5610616E+00  0.1495382E+05 -0.1411263E+01
  0.1566667E+01  0.2091701E+06 -0.1410069E+01  0.1628453E+06 -0.5971066E+00  0.1628965E+05 -0.1402892E+01
  0.1597619E+01  0.2112953E+06 -0.1402846E+01  0.1590582E+06 -0.6347245E+00  0.1771104E+05 -0.1395189E+01
  0.1628572E+01  0.2129728E+06 -0.1396470E+01  0.1554714E+06 -0.6738595E+00  0.1911590E+05 -0.1388357E+01
  0.1659524E+01  0.2142052E+06 -0.1391088E+01  0.1520922E+06 -0.7145602E+00  0.2048765E+05 -0.1382309E+01
  0.1690476E+01  0.2149811E+06 -0.1386680E+01  0.1489910E+06 -0.7567960E+00  0.2180147E+05 -0.1377707E+01
  0.1721429E+01  0.2152940E+06 -0.1383534E+01  0.1461448E+06 -0.8003908E+00  0.2312659E+05 -0.1374182E+01
  0.1752381E+01  0.2151740E+06 -0.1381658E+01  0.1435751E+06 -0.8452722E+00  0.2442553E+05 -0.1371743E+01
  0.1783333E+01  0.2147058E+06 -0.1381167E+01  0.1412833E+06 -0.8913105E+00  0.2564910E+05 -0.1371091E+01
  0.1814286E+01  0.2138916E+06 -0.1382187E+01  0.1392821E+06 -0.9382193E+00  0.2682643E+05 -0.1371801E+01
  0.1845238E+01  0.2127068E+06 -0.1384756E+01  0.1375968E+06 -0.9858630E+00  0.2799360E+05 -0.1374097E+01
  0.1876190E+01  0.2112540E+06 -0.1388947E+01  0.1362148E+06 -0.1033911E+01  0.2909195E+05 -0.1378147E+01
  0.1907143E+01  0.2095624E+06 -0.1394800E+01  0.1351467E+06 -0.1081910E+01  0.3012812E+05 -0.1383940E+01
  0.1938095E+01  0.2076684E+06 -0.1402242E+01  0.1343824E+06 -0.1129538E+01  0.3108406E+05 -0.1391660E+01
  0.1969048E+01  0.2055654E+06 -0.1411364E+01  0.1339050E+06 -0.1176465E+01  0.3201576E+05 -0.1400961E+01
  0.2000000E+01  0.2032918E+06 -0.1422150E+01  0.1336895E+06 -0.1222189E+01  0.3292295E+05 -0.1411908E+01
