VARIABLES="w (rad/s)"
"abs(F   1   1)" "angle(F   1   1)"
"abs(F   1   2)" "angle(F   1   2)"
"abs(F   1   3)" "angle(F   1   3)"
Zone t="Diffraction force - beta =   0.000 deg",I=    64,F=POINT
  0.5000000E-01  0.3015371E+04 -0.1570808E+01  0.2764456E+06 -0.1938063E-04  0.4380896E+04  0.1570824E+01
  0.8095238E-01  0.4932276E+04 -0.1570783E+01  0.2759861E+06 -0.5214754E-04  0.7164616E+04  0.1570794E+01
  0.1119048E+00  0.6890797E+04 -0.1570788E+01  0.2753112E+06 -0.1035796E-03  0.9996739E+04  0.1570801E+01
  0.1428571E+00  0.8914322E+04 -0.1570792E+01  0.2744201E+06 -0.1776576E-03  0.1291365E+05  0.1570794E+01
  0.1738095E+00  0.1101691E+05 -0.1570788E+01  0.2733117E+06 -0.2804058E-03  0.1594420E+05  0.1570801E+01
  0.2047619E+00  0.1323391E+05 -0.1570779E+01  0.2719842E+06 -0.4205115E-03  0.1912173E+05  0.1570816E+01
  0.2357143E+00  0.1559087E+05 -0.1570769E+01  0.2704361E+06 -0.6108729E-03  0.2248967E+05  0.1570821E+01
  0.2666667E+00  0.1810599E+05 -0.1570756E+01  0.2686651E+06 -0.8671880E-03  0.2608585E+05  0.1570829E+01
  0.2976190E+00  0.2085648E+05 -0.1570739E+01  0.2666705E+06 -0.1216101E-02  0.2996367E+05  0.1570854E+01
  0.3285715E+00  0.2384446E+05 -0.1570710E+01  0.2644517E+06 -0.1684862E-02  0.3418068E+05  0.1570880E+01
  0.3595238E+00  0.2712454E+05 -0.1570668E+01  0.2620098E+06 -0.2316766E-02  0.3880609E+05  0.1570925E+01
  0.3904762E+00  0.3074429E+05 -0.1570603E+01  0.2593478E+06 -0.3160544E-02  0.4386187E+05  0.1570993E+01
  0.4214286E+00  0.3477842E+05 -0.1570506E+01  0.2564844E+06 -0.4248383E-02  0.4942826E+05  0.1571083E+01
  0.4523810E+00  0.3917962E+05 -0.1570367E+01  0.2534157E+06 -0.5664822E-02  0.5551927E+05  0.1571227E+01
  0.4833333E+00  0.4397675E+05 -0.1570175E+01  0.2501680E+06 -0.7376092E-02  0.6212530E+05  0.1571418E+01
  0.5142857E+00  0.4920127E+05 -0.1569906E+01  0.2467567E+06 -0.9481791E-02  0.6922551E+05  0.1571685E+01
  0.5452381E+00  0.5480509E+05 -0.1569545E+01  0.2431868E+06 -0.1195483E-01  0.7678553E+05  0.1572048E+01
  0.5761905E+00  0.6073955E+05 -0.1569076E+01  0.2394666E+06 -0.1480617E-01  0.8474770E+05  0.1572517E+01
  0.6071429E+00  0.6693513E+05 -0.1568465E+01  0.2356177E+06 -0.1812063E-01  0.9304973E+05  0.1573127E+01
  0.6380953E+00  0.7346382E+05 -0.1567701E+01  0.2316336E+06 -0.2183050E-01  0.1016407E+06  0.1573891E+01
  0.6690477E+00  0.8030274E+05 -0.1566749E+01  0.2275397E+06 -0.2601757E-01  0.1105138E+06  0.1574844E+01
  0.7000000E+00  0.8734163E+05 -0.1565570E+01  0.2233494E+06 -0.3073486E-01  0.1195793E+06  0.1576022E+01
  0.7309524E+00  0.9460684E+05 -0.1564140E+01  0.2190507E+06 -0.3595489E-01  0.1288860E+06  0.1577452E+01
  0.7619048E+00  0.1020913E+06 -0.1562417E+01  0.2146650E+06 -0.4173337E-01  0.1383500E+06  0.1579174E+01
  0.7928572E+00  0.1097825E+06 -0.1560358E+01  0.2102242E+06 -0.4810882E-01  0.1479311E+06  0.1581231E+01
  0.8238096E+00  0.1177239E+06 -0.1557924E+01  0.2057279E+06 -0.5509970E-01  0.1576496E+06  0.1583665E+01
  0.8547620E+00  0.1258332E+06 -0.1555070E+01  0.2011804E+06 -0.6272279E-01  0.1674172E+06  0.1586518E+01
  0.8857143E+00  0.1341432E+06 -0.1551748E+01  0.1965891E+06 -0.7099967E-01  0.1772619E+06  0.1589838E+01
  0.9166667E+00  0.1425172E+06 -0.1547909E+01  0.1919720E+06 -0.7995792E-01  0.1871363E+06  0.1593674E+01
  0.9476191E+00  0.1510231E+06 -0.1543508E+01  0.1873400E+06 -0.8962008E-01  0.1970221E+06  0.1598071E+01
  0.9785714E+00  0.1596304E+06 -0.1538502E+01  0.1827073E+06 -0.1000144E+00  0.2067885E+06  0.1603071E+01
  0.1009524E+01  0.1684000E+06 -0.1532853E+01  0.1780756E+06 -0.1111655E+00  0.2164533E+06  0.1608713E+01
  0.1040476E+01  0.1772693E+06 -0.1526511E+01  0.1734600E+06 -0.1230868E+00  0.2260822E+06  0.1615049E+01
  0.1071429E+01  0.1860652E+06 -0.1519438E+01  0.1688754E+06 -0.1358066E+00  0.2353760E+06  0.1622114E+01
  0.1102381E+01  0.1949359E+06 -0.1511602E+01  0.1643019E+06 -0.1493324E+00  0.2445794E+06  0.1629937E+01
  0.1133333E+01  0.2036623E+06 -0.1502978E+01  0.1597594E+06 -0.1637081E+00  0.2533880E+06  0.1638545E+01
  0.1164286E+01  0.2123020E+06 -0.1493562E+01  0.1552422E+06 -0.1789594E+00  0.2618813E+06  0.1647940E+01
  0.1195238E+01  0.2207855E+06 -0.1483344E+01  0.1507673E+06 -0.1951251E+00  0.2700271E+06  0.1658130E+01
  0.1226190E+01  0.2289705E+06 -0.1472351E+01  0.1463559E+06 -0.2122581E+00  0.2775233E+06  0.1669089E+01
  0.1257143E+01  0.2368336E+06 -0.1460622E+01  0.1420047E+06 -0.2305544E+00  0.2844356E+06  0.1680781E+01
  0.1288095E+01  0.2446517E+06 -0.1448185E+01  0.1377029E+06 -0.2495777E+00  0.2908843E+06  0.1693174E+01
  0.1319048E+01  0.2519274E+06 -0.1435102E+01  0.1334730E+06 -0.2698359E+00  0.2965215E+06  0.1706204E+01
  0.1350000E+01  0.2587570E+06 -0.1421463E+01  0.1293036E+06 -0.2912063E+00  0.3013990E+06  0.1719778E+01
  0.1380952E+01  0.2650678E+06 -0.1407319E+01  0.1251942E+06 -0.3137393E+00  0.3055811E+06  0.1733843E+01
  0.1411905E+01  0.2697717E+06 -0.1393924E+01  0.1212114E+06 -0.3373578E+00  0.3082059E+06  0.1747144E+01
  0.1442857E+01  0.2747110E+06 -0.1379312E+01  0.1172532E+06 -0.3625264E+00  0.3105336E+06  0.1761645E+01
  0.1473810E+01  0.2789959E+06 -0.1364675E+01  0.1133707E+06 -0.3891820E+00  0.3119901E+06  0.1776148E+01
  0.1504762E+01  0.2823892E+06 -0.1350201E+01  0.1095811E+06 -0.4174145E+00  0.3122495E+06  0.1790457E+01
  0.1535714E+01  0.2850779E+06 -0.1336073E+01  0.1058745E+06 -0.4473824E+00  0.3116137E+06  0.1804406E+01
  0.1566667E+01  0.2870224E+06 -0.1322520E+01  0.1022733E+06 -0.4791372E+00  0.3099970E+06  0.1817742E+01
  0.1597619E+01  0.2881936E+06 -0.1309598E+01  0.9879701E+05 -0.5128322E+00  0.3075694E+06  0.1830462E+01
  0.1628572E+01  0.2885038E+06 -0.1297588E+01  0.9545982E+05 -0.5485530E+00  0.3040741E+06  0.1842208E+01
  0.1659524E+01  0.2881015E+06 -0.1286564E+01  0.9224865E+05 -0.5865009E+00  0.2998599E+06  0.1852965E+01
  0.1690476E+01  0.2870539E+06 -0.1276706E+01  0.8917538E+05 -0.6267152E+00  0.2950172E+06  0.1862534E+01
  0.1721429E+01  0.2852524E+06 -0.1268238E+01  0.8625816E+05 -0.6694160E+00  0.2893647E+06  0.1870660E+01
  0.1752381E+01  0.2828441E+06 -0.1261233E+01  0.8350077E+05 -0.7148290E+00  0.2831606E+06  0.1877312E+01
  0.1783333E+01  0.2798911E+06 -0.1255897E+01  0.8093889E+05 -0.7629398E+00  0.2764364E+06  0.1882248E+01
  0.1814286E+01  0.2764855E+06 -0.1252257E+01  0.7858591E+05 -0.8138041E+00  0.2693677E+06  0.1885453E+01
  0.1845238E+01  0.2726252E+06 -0.1250281E+01  0.7649399E+05 -0.8672710E+00  0.2620480E+06  0.1887080E+01
  0.1876190E+01  0.2683160E+06 -0.1250254E+01  0.7468030E+05 -0.9228758E+00  0.2542902E+06  0.1886601E+01
  0.1907143E+01  0.2637095E+06 -0.1252045E+01  0.7315145E+05 -0.9805257E+00  0.2464058E+06  0.1884332E+01
  0.1938095E+01  0.2589304E+06 -0.1255642E+01  0.7191848E+05 -0.1039816E+01  0.2385720E+06  0.1880346E+01
  0.1969048E+01  0.2539615E+06 -0.1261199E+01  0.7099037E+05 -0.1100000E+01  0.2306588E+06  0.1874333E+01
  0.2000000E+01  0.2487736E+06 -0.1268748E+01  0.7039712E+05 -0.1160180E+01  0.2226429E+06  0.1866261E+01
