VARIABLES="w (rad/s)"
"abs(F   1   1)" "angle(F   1   1)"
"abs(F   1   2)" "angle(F   1   2)"
"abs(F   1   3)" "angle(F   1   3)"
Zone t="Diffraction force - beta =   0.000 deg",I=    64,F=POINT
  0.5000000E-01  0.2101027E+04 -0.1570794E+01  0.1512961E+03 -0.3083559E+01  0.4691349E+04  0.1570798E+01
  0.8095238E-01  0.3437851E+04 -0.1570791E+01  0.3913903E+03 -0.3081387E+01  0.7654159E+04  0.1570800E+01
  0.1119048E+00  0.4795958E+04 -0.1570786E+01  0.7426603E+03 -0.3078811E+01  0.1066666E+05  0.1570804E+01
  0.1428571E+00  0.6197746E+04 -0.1570778E+01  0.1205410E+04 -0.3075570E+01  0.1375056E+05  0.1570811E+01
  0.1738095E+00  0.7645143E+04 -0.1570766E+01  0.1783639E+04 -0.3071613E+01  0.1694928E+05  0.1570820E+01
  0.2047619E+00  0.9167772E+04 -0.1570749E+01  0.2478022E+04 -0.3066609E+01  0.2027374E+05  0.1570833E+01
  0.2357143E+00  0.1077782E+05 -0.1570724E+01  0.3293138E+04 -0.3060332E+01  0.2378136E+05  0.1570852E+01
  0.2666667E+00  0.1248442E+05 -0.1570688E+01  0.4235729E+04 -0.3052810E+01  0.2750134E+05  0.1570880E+01
  0.2976190E+00  0.1434046E+05 -0.1570635E+01  0.5303406E+04 -0.3043250E+01  0.3147189E+05  0.1570921E+01
  0.3285715E+00  0.1635040E+05 -0.1570556E+01  0.6505480E+04 -0.3031914E+01  0.3576634E+05  0.1570982E+01
  0.3595238E+00  0.1852441E+05 -0.1570438E+01  0.7842562E+04 -0.3018189E+01  0.4043229E+05  0.1571072E+01
  0.3904762E+00  0.2092660E+05 -0.1570262E+01  0.9316391E+04 -0.3001997E+01  0.4547652E+05  0.1571207E+01
  0.4214286E+00  0.2358368E+05 -0.1570007E+01  0.1089870E+05 -0.2983739E+01  0.5097757E+05  0.1571402E+01
  0.4523810E+00  0.2645453E+05 -0.1569632E+01  0.1261627E+05 -0.2962813E+01  0.5696213E+05  0.1571687E+01
  0.4833333E+00  0.2955557E+05 -0.1569117E+01  0.1443191E+05 -0.2941754E+01  0.6338239E+05  0.1572079E+01
  0.5142857E+00  0.3291098E+05 -0.1568405E+01  0.1632462E+05 -0.2918681E+01  0.7016381E+05  0.1572619E+01
  0.5452381E+00  0.3649391E+05 -0.1567462E+01  0.1830163E+05 -0.2895814E+01  0.7729306E+05  0.1573334E+01
  0.5761905E+00  0.4020389E+05 -0.1566243E+01  0.2035162E+05 -0.2873523E+01  0.8472898E+05  0.1574252E+01
  0.6071429E+00  0.4404825E+05 -0.1564677E+01  0.2246886E+05 -0.2850763E+01  0.9236005E+05  0.1575428E+01
  0.6380953E+00  0.4806860E+05 -0.1562744E+01  0.2464548E+05 -0.2829309E+01  0.1000671E+06  0.1576877E+01
  0.6690477E+00  0.5221083E+05 -0.1560366E+01  0.2685014E+05 -0.2807909E+01  0.1078680E+06  0.1578654E+01
  0.7000000E+00  0.5643394E+05 -0.1557465E+01  0.2909687E+05 -0.2786622E+01  0.1157337E+06  0.1580813E+01
  0.7309524E+00  0.6067548E+05 -0.1553991E+01  0.3140223E+05 -0.2766559E+01  0.1235915E+06  0.1583380E+01
  0.7619048E+00  0.6493917E+05 -0.1549866E+01  0.3373207E+05 -0.2746947E+01  0.1313699E+06  0.1586411E+01
  0.7928572E+00  0.6926759E+05 -0.1545032E+01  0.3605748E+05 -0.2727432E+01  0.1389858E+06  0.1589952E+01
  0.8238096E+00  0.7364130E+05 -0.1539425E+01  0.3837609E+05 -0.2708249E+01  0.1464148E+06  0.1594044E+01
  0.8547620E+00  0.7800773E+05 -0.1532980E+01  0.4070129E+05 -0.2689856E+01  0.1536347E+06  0.1598720E+01
  0.8857143E+00  0.8227699E+05 -0.1525609E+01  0.4301703E+05 -0.2672171E+01  0.1606527E+06  0.1604017E+01
  0.9166667E+00  0.8644285E+05 -0.1517263E+01  0.4532825E+05 -0.2655416E+01  0.1674007E+06  0.1609954E+01
  0.9476191E+00  0.9045923E+05 -0.1507895E+01  0.4761317E+05 -0.2639264E+01  0.1737189E+06  0.1616550E+01
  0.9785714E+00  0.9436902E+05 -0.1497514E+01  0.4985850E+05 -0.2623698E+01  0.1795459E+06  0.1623803E+01
  0.1009524E+01  0.9813413E+05 -0.1486099E+01  0.5204039E+05 -0.2608505E+01  0.1849193E+06  0.1631700E+01
  0.1040476E+01  0.1016657E+06 -0.1473614E+01  0.5415579E+05 -0.2593819E+01  0.1897147E+06  0.1640229E+01
  0.1071429E+01  0.1049646E+06 -0.1460090E+01  0.5622296E+05 -0.2580117E+01  0.1939701E+06  0.1649335E+01
  0.1102381E+01  0.1079159E+06 -0.1445499E+01  0.5823310E+05 -0.2567410E+01  0.1975865E+06  0.1658965E+01
  0.1133333E+01  0.1104821E+06 -0.1429890E+01  0.6018655E+05 -0.2555823E+01  0.2005297E+06  0.1669025E+01
  0.1164286E+01  0.1126155E+06 -0.1413305E+01  0.6207968E+05 -0.2545244E+01  0.2028242E+06  0.1679414E+01
  0.1195238E+01  0.1142429E+06 -0.1395838E+01  0.6389569E+05 -0.2535343E+01  0.2042454E+06  0.1690014E+01
  0.1226190E+01  0.1154332E+06 -0.1377733E+01  0.6563870E+05 -0.2526378E+01  0.2048783E+06  0.1700639E+01
  0.1257143E+01  0.1160469E+06 -0.1358897E+01  0.6727956E+05 -0.2517573E+01  0.2046432E+06  0.1711232E+01
  0.1288095E+01  0.1162079E+06 -0.1339952E+01  0.6883654E+05 -0.2510482E+01  0.2036557E+06  0.1721375E+01
  0.1319048E+01  0.1157489E+06 -0.1320626E+01  0.7030064E+05 -0.2503964E+01  0.2018453E+06  0.1731062E+01
  0.1350000E+01  0.1146813E+06 -0.1301192E+01  0.7168310E+05 -0.2498549E+01  0.1993415E+06  0.1740036E+01
  0.1380952E+01  0.1129799E+06 -0.1281879E+01  0.7298230E+05 -0.2494262E+01  0.1960889E+06  0.1748050E+01
  0.1411905E+01  0.1103901E+06 -0.1263651E+01  0.7417616E+05 -0.2491021E+01  0.1921257E+06  0.1754188E+01
  0.1442857E+01  0.1074707E+06 -0.1245423E+01  0.7530138E+05 -0.2488783E+01  0.1875511E+06  0.1759509E+01
  0.1473810E+01  0.1039789E+06 -0.1228187E+01  0.7637009E+05 -0.2487589E+01  0.1824523E+06  0.1763119E+01
  0.1504762E+01  0.9991057E+05 -0.1212270E+01  0.7737239E+05 -0.2487544E+01  0.1768406E+06  0.1764727E+01
  0.1535714E+01  0.9531774E+05 -0.1197954E+01  0.7830643E+05 -0.2488343E+01  0.1709243E+06  0.1764187E+01
  0.1566667E+01  0.9018899E+05 -0.1185658E+01  0.7916813E+05 -0.2489934E+01  0.1646487E+06  0.1761201E+01
  0.1597619E+01  0.8462034E+05 -0.1175944E+01  0.7998994E+05 -0.2492533E+01  0.1582294E+06  0.1755677E+01
  0.1628572E+01  0.7864998E+05 -0.1169594E+01  0.8077492E+05 -0.2496247E+01  0.1516671E+06  0.1747256E+01
  0.1659524E+01  0.7231028E+05 -0.1167327E+01  0.8152502E+05 -0.2500719E+01  0.1450846E+06  0.1735957E+01
  0.1690476E+01  0.6568029E+05 -0.1170463E+01  0.8227348E+05 -0.2505862E+01  0.1385629E+06  0.1721629E+01
  0.1721429E+01  0.5881001E+05 -0.1180823E+01  0.8302762E+05 -0.2511488E+01  0.1321599E+06  0.1704212E+01
  0.1752381E+01  0.5177308E+05 -0.1201232E+01  0.8378452E+05 -0.2517491E+01  0.1259100E+06  0.1683587E+01
  0.1783333E+01  0.4468325E+05 -0.1235840E+01  0.8454537E+05 -0.2523167E+01  0.1199970E+06  0.1660358E+01
  0.1814286E+01  0.3757752E+05 -0.1292495E+01  0.8525187E+05 -0.2528227E+01  0.1142622E+06  0.1633937E+01
  0.1845238E+01  0.3070780E+05 -0.1384686E+01  0.8598001E+05 -0.2532802E+01  0.1089244E+06  0.1605337E+01
  0.1876190E+01  0.2434474E+05 -0.1538719E+01  0.8669473E+05 -0.2536573E+01  0.1038711E+06  0.1574149E+01
  0.1907143E+01  0.1911383E+05 -0.1798654E+01  0.8735639E+05 -0.2538829E+01  0.9920409E+05  0.1541501E+01
  0.1938095E+01  0.1618834E+05 -0.2204076E+01  0.8791089E+05 -0.2539580E+01  0.9486123E+05  0.1507335E+01
  0.1969048E+01  0.1680194E+05 -0.2669154E+01  0.8836925E+05 -0.2538870E+01  0.9086073E+05  0.1472407E+01
  0.2000000E+01  0.2056955E+05 -0.3024329E+01  0.8868691E+05 -0.2536596E+01  0.8715502E+05  0.1437296E+01
