VARIABLES="w (rad/s)"
"A   1   1" "B   1   1"
"A   1   2" "B   1   2"
"A   1   3" "B   1   3"
Zone t="Motion of body    1 in DoF   1",I=    64,F=POINT
  0.5000000E-01  0.1521684E+06  0.2573582E-01  0.1319885E-01  0.1037297E-03 -0.2853147E+06 -0.4190116E-01
  0.8095238E-01  0.1531331E+06  0.1136573E+00 -0.2921609E-02  0.7651700E-04 -0.2871013E+06 -0.1854420E+00
  0.1119048E+00  0.1533637E+06  0.3186088E+00  0.1499907E-02  0.1552673E-03 -0.2874591E+06 -0.5197037E+00
  0.1428571E+00  0.1537405E+06  0.7176644E+00 -0.3417969E-02  0.2024332E-03 -0.2881240E+06 -0.1171062E+01
  0.1738095E+00  0.1542058E+06  0.1429200E+01  0.1158832E-01  0.3595985E-03 -0.2888878E+06 -0.2332405E+01
  0.2047619E+00  0.1546609E+06  0.2637439E+01 -0.2533669E-02  0.1639947E-03 -0.2896170E+06 -0.4306593E+01
  0.2357143E+00  0.1548010E+06  0.4641876E+01  0.7509173E-02  0.5548745E-03 -0.2898997E+06 -0.7583398E+01
  0.2666667E+00  0.1556762E+06  0.7927545E+01  0.6065368E-02  0.5228072E-03 -0.2912484E+06 -0.1295514E+02
  0.2976190E+00  0.1561605E+06  0.1329447E+02  0.2358398E-02  0.4906356E-03 -0.2918081E+06 -0.2172973E+02
  0.3285715E+00  0.1567466E+06  0.2199591E+02 -0.3993822E-02 -0.8657575E-04 -0.2930995E+06 -0.3599207E+02
  0.3595238E+00  0.1575375E+06  0.3613029E+02 -0.1094995E-01 -0.2475977E-03 -0.2941932E+06 -0.5913691E+02
  0.3904762E+00  0.1586607E+06  0.5895984E+02  0.4689286E-02  0.1459122E-02 -0.2959329E+06 -0.9655341E+02
  0.4214286E+00  0.1594018E+06  0.9484715E+02  0.2027608E-02  0.1075745E-02 -0.2972178E+06 -0.1554559E+03
  0.4523810E+00  0.1605503E+06  0.1513799E+03 -0.5126953E-02  0.1494884E-02 -0.2990548E+06 -0.2482713E+03
  0.4833333E+00  0.1619264E+06  0.2357402E+03  0.1237540E-01  0.3151417E-02 -0.3011822E+06 -0.3868382E+03
  0.5142857E+00  0.1632992E+06  0.3610989E+03 -0.8307563E-03  0.2262592E-02 -0.3029938E+06 -0.5925963E+03
  0.5452381E+00  0.1647852E+06  0.5400312E+03 -0.6268764E-02 -0.1153946E-03 -0.3059317E+06 -0.8876329E+03
  0.5761905E+00  0.1661296E+06  0.7880678E+03  0.1186402E-01  0.7100105E-02 -0.3081635E+06 -0.1296343E+04
  0.6071429E+00  0.1683122E+06  0.1131117E+04 -0.3920611E-02  0.2780914E-02 -0.3112805E+06 -0.1860696E+04
  0.6380953E+00  0.1704401E+06  0.1587362E+04  0.1128695E-01  0.8222580E-02 -0.3147700E+06 -0.2613090E+04
  0.6690477E+00  0.1723382E+06  0.2187982E+04  0.6112203E-02  0.2388000E-02 -0.3178957E+06 -0.3604795E+04
  0.7000000E+00  0.1744008E+06  0.2970606E+04  0.5405970E-02  0.7694244E-02 -0.3212148E+06 -0.4897367E+04
  0.7309524E+00  0.1770143E+06  0.3973727E+04  0.1285913E-01  0.9124756E-02 -0.3256571E+06 -0.6555681E+04
  0.7619048E+00  0.1796534E+06  0.5244907E+04  0.1826477E-01  0.1761627E-01 -0.3297384E+06 -0.8654915E+04
  0.7928572E+00  0.1824822E+06  0.6840394E+04 -0.3695101E-02  0.2151489E-02 -0.3338573E+06 -0.1128531E+05
  0.8238096E+00  0.1856128E+06  0.8825077E+04  0.5927113E-03  0.7308960E-02 -0.3391336E+06 -0.1457117E+05
  0.8547620E+00  0.1882604E+06  0.1124717E+05  0.5426858E-02  0.8102417E-02 -0.3434259E+06 -0.1857966E+05
  0.8857143E+00  0.1908694E+06  0.1418303E+05 -0.1419560E-01 -0.1998901E-02 -0.3479642E+06 -0.2345089E+05
  0.9166667E+00  0.1938659E+06  0.1770835E+05 -0.3728693E-02  0.1663208E-02 -0.3522311E+06 -0.2925101E+05
  0.9476191E+00  0.1972567E+06  0.2192434E+05 -0.3349266E-02  0.4943848E-02 -0.3578174E+06 -0.3622387E+05
  0.9785714E+00  0.2001698E+06  0.2687611E+05  0.1372177E-02  0.7720947E-02 -0.3623718E+06 -0.4439962E+05
  0.1009524E+01  0.2027222E+06  0.3264329E+05 -0.5441342E-02  0.7324219E-02 -0.3662172E+06 -0.5391212E+05
  0.1040476E+01  0.2049605E+06  0.3929695E+05 -0.3636969E-02  0.1571655E-01 -0.3695647E+06 -0.6488326E+05
  0.1071429E+01  0.2068643E+06  0.4688682E+05  0.9114583E-03  0.8300781E-02 -0.3722193E+06 -0.7737120E+05
  0.1102381E+01  0.2083227E+06  0.5545600E+05 -0.3543466E-02  0.8544922E-02 -0.3749845E+06 -0.9157630E+05
  0.1133333E+01  0.2090025E+06  0.6490004E+05 -0.3015855E-02  0.1849365E-01 -0.3757641E+06 -0.1070807E+06
  0.1164286E+01  0.2090283E+06  0.7523045E+05 -0.7758579E-02 -0.1464844E-02 -0.3753023E+06 -0.1239712E+06
  0.1195238E+01  0.2083580E+06  0.8641800E+05 -0.6842746E-02  0.6408691E-02 -0.3737729E+06 -0.1422715E+06
  0.1226190E+01  0.2068393E+06  0.9832508E+05 -0.4181204E-02 -0.1098633E-02 -0.3703501E+06 -0.1615559E+06
  0.1257143E+01  0.2045219E+06  0.1109235E+06 -0.1019565E-01  0.3173828E-02 -0.3664600E+06 -0.1821656E+06
  0.1288095E+01  0.2011033E+06  0.1237951E+06 -0.1156171E-01  0.6835938E-02 -0.3605523E+06 -0.2030848E+06
  0.1319048E+01  0.1966157E+06  0.1367191E+06 -0.1804613E-01 -0.1135254E-01 -0.3524720E+06 -0.2237975E+06
  0.1350000E+01  0.1912937E+06  0.1495778E+06 -0.1085069E-01  0.1440430E-01 -0.3432983E+06 -0.2444255E+06
  0.1380952E+01  0.1851794E+06  0.1621261E+06 -0.6894868E-02  0.4638672E-02 -0.3327562E+06 -0.2644157E+06
  0.1411905E+01  0.1779130E+06  0.1739331E+06 -0.2247905E-02  0.2807617E-02 -0.3201882E+06 -0.2828979E+06
  0.1442857E+01  0.1706662E+06  0.1852537E+06 -0.6091429E-02 -0.6835938E-02 -0.3079976E+06 -0.3007075E+06
  0.1473810E+01  0.1629310E+06  0.1955698E+06 -0.9939166E-02 -0.9033203E-02 -0.2951546E+06 -0.3167663E+06
  0.1504762E+01  0.1547536E+06  0.2046611E+06 -0.4623992E-02 -0.8789062E-02 -0.2813718E+06 -0.3304941E+06
  0.1535714E+01  0.1462945E+06  0.2124782E+06 -0.6676962E-02  0.1696777E-01 -0.2670728E+06 -0.3420061E+06
  0.1566667E+01  0.1378263E+06  0.2191168E+06 -0.1090841E-01  0.2075195E-02 -0.2530617E+06 -0.3517418E+06
  0.1597619E+01  0.1295469E+06  0.2244847E+06 -0.5806981E-02 -0.1220703E-02 -0.2392615E+06 -0.3590178E+06
  0.1628572E+01  0.1215458E+06  0.2285805E+06 -0.4872104E-02  0.1953125E-02 -0.2257200E+06 -0.3636526E+06
  0.1659524E+01  0.1139694E+06  0.2317250E+06 -0.7245407E-02  0.6713867E-02 -0.2132980E+06 -0.3672314E+06
  0.1690476E+01  0.1067672E+06  0.2338759E+06 -0.4874215E-02 -0.1159668E-01 -0.2018352E+06 -0.3695700E+06
  0.1721429E+01  0.9982864E+05  0.2347763E+06 -0.7055765E-02 -0.3173828E-02 -0.1906390E+06 -0.3694097E+06
  0.1752381E+01  0.9329834E+05  0.2346447E+06 -0.3657134E-02  0.4028320E-02 -0.1800105E+06 -0.3672498E+06
  0.1783333E+01  0.8721158E+05  0.2337475E+06  0.6845064E-03 -0.6469727E-02 -0.1702718E+06 -0.3641076E+06
  0.1814286E+01  0.8158630E+05  0.2321680E+06 -0.8780412E-02 -0.1184082E-01 -0.1614011E+06 -0.3600147E+06
  0.1845238E+01  0.7647336E+05  0.2299589E+06 -0.7839276E-02 -0.4150391E-02 -0.1533087E+06 -0.3544862E+06
  0.1876190E+01  0.7186438E+05  0.2271876E+06 -0.4424274E-02 -0.3417969E-02 -0.1459868E+06 -0.3475872E+06
  0.1907143E+01  0.6773716E+05  0.2241156E+06 -0.1152124E-02  0.2441406E-03 -0.1395974E+06 -0.3406558E+06
  0.1938095E+01  0.6411528E+05  0.2209892E+06 -0.6613391E-03  0.1159668E-02 -0.1343015E+06 -0.3343934E+06
  0.1969048E+01  0.6066711E+05  0.2172237E+06 -0.4897573E-02  0.2624512E-02 -0.1292592E+06 -0.3268348E+06
  0.2000000E+01  0.5760532E+05  0.2131995E+06  0.2502441E-02 -0.1342773E-02 -0.1248410E+06 -0.3187084E+06
Zone t="Motion of body    1 in DoF   2",I=    64,F=POINT
  0.5000000E-01 -0.5798340E-02 -0.2765656E-04  0.1578266E+06  0.3354072E+03  0.6713867E-01 -0.1335144E-03
  0.8095238E-01  0.1470229E-01  0.2479553E-04  0.1563641E+06  0.5548107E+03 -0.2111098E-01  0.4196167E-04
  0.1119048E+00  0.1227196E-02  0.4196167E-04  0.1552099E+06  0.7916888E+03  0.4690617E-01 -0.1373291E-03
  0.1428571E+00  0.3417969E-02 -0.2307892E-03  0.1546979E+06  0.1054293E+04  0.6835937E-02  0.5416870E-03
  0.1738095E+00 -0.1141274E-02 -0.9536743E-05  0.1543268E+06  0.1351898E+04  0.1545109E-01 -0.3509521E-03
  0.2047619E+00  0.1356258E-01  0.1258850E-03  0.1540372E+06  0.1697992E+04 -0.3576944E-02 -0.4577637E-03
  0.2357143E+00  0.1191110E-01  0.5302429E-03  0.1542327E+06  0.2108897E+04 -0.2900095E-01 -0.2136230E-03
  0.2666667E+00 -0.5550384E-02  0.5340576E-04  0.1540957E+06  0.2597136E+04 -0.6408691E-02  0.1007080E-02
  0.2976190E+00  0.7126465E-02 -0.6942749E-03  0.1544207E+06  0.3196311E+04 -0.1640625E-02  0.1495361E-02
  0.3285715E+00 -0.2786387E-02 -0.9918213E-04  0.1543684E+06  0.3916977E+04  0.2377717E-01 -0.2777100E-02
  0.3595238E+00  0.5941833E-03  0.2059937E-03  0.1547128E+06  0.4795646E+04 -0.3531146E-01  0.1159668E-02
  0.3904762E+00  0.5783453E-02  0.1152039E-02  0.1544142E+06  0.5853222E+04 -0.1250476E-01  0.1831055E-02
  0.4214286E+00  0.4344875E-02 -0.5645752E-03  0.1543990E+06  0.7060651E+04  0.3823490E-01  0.1220703E-03
  0.4523810E+00 -0.8904708E-02 -0.7934570E-03  0.1535696E+06  0.8490435E+04  0.7555509E-02 -0.3479004E-02
  0.4833333E+00  0.6503401E-02 -0.3967285E-03  0.1527498E+06  0.9971846E+04  0.3030711E-01  0.4882812E-03
  0.5142857E+00  0.1762390E-01  0.1724243E-02  0.1515461E+06  0.1159631E+05  0.7595486E-02  0.7568359E-02
  0.5452381E+00  0.6604590E-02  0.1068115E-02  0.1499501E+06  0.1324434E+05  0.0000000E+00  0.5859375E-02
  0.5761905E+00  0.2023240E-01 -0.6408691E-03  0.1487667E+06  0.1485187E+05 -0.5084581E-02  0.1586914E-02
  0.6071429E+00  0.2362419E-02 -0.1983643E-02  0.1464518E+06  0.1651351E+05  0.5468749E-01  0.2197266E-02
  0.6380953E+00 -0.2965215E-02 -0.2441406E-03  0.1445362E+06  0.1803741E+05 -0.6121735E-02  0.7080078E-02
  0.6690477E+00 -0.5382388E-02 -0.4089355E-02  0.1429840E+06  0.1948044E+05  0.7298153E-02  0.7080078E-02
  0.7000000E+00  0.2964565E-02 -0.7629395E-02  0.1404271E+06  0.2089116E+05 -0.1116071E-01  0.8544922E-02
  0.7309524E+00 -0.4634297E-02 -0.2746582E-02  0.1383293E+06  0.2215974E+05  0.0000000E+00  0.1416016E-01
  0.7619048E+00  0.2110863E-01  0.1281738E-02  0.1366032E+06  0.2328875E+05 -0.2563476E-01  0.1538086E-01
  0.7928572E+00 -0.7197749E-02 -0.1293945E-01  0.1343629E+06  0.2430227E+05  0.4926801E-02  0.4394531E-02
  0.8238096E+00  0.7038447E-02 -0.4455566E-02  0.1321322E+06  0.2519506E+05  0.7112536E-02 -0.6347656E-02
  0.8547620E+00 -0.4712798E-02  0.2807617E-02  0.1301883E+06  0.2590832E+05  0.7997476E-02  0.8300781E-02
  0.8857143E+00 -0.4272461E-02 -0.3601074E-02  0.1287115E+06  0.2644535E+05  0.5512853E-02 -0.7080078E-02
  0.9166667E+00  0.1022061E-01 -0.3723145E-02  0.1266682E+06  0.2683435E+05 -0.1917614E-01 -0.1025391E-01
  0.9476191E+00  0.5990033E-02  0.5126953E-02  0.1247775E+06  0.2709764E+05  0.1958032E-01  0.1000977E-01
  0.9785714E+00 -0.3804673E-02  0.3051758E-03  0.1231631E+06  0.2719175E+05 -0.3991788E-02 -0.6591797E-02
  0.1009524E+01  0.3022968E-03 -0.1220703E-02  0.1219721E+06  0.2712388E+05  0.2321639E-01 -0.1538086E-01
  0.1040476E+01 -0.3226344E-03  0.3356934E-02  0.1207616E+06  0.2688504E+05  0.9385726E-03  0.9521484E-02
  0.1071429E+01  0.8374023E-02  0.7324219E-03  0.1191307E+06  0.2647496E+05  0.8203126E-02  0.4882812E-02
  0.1102381E+01 -0.6145699E-02  0.3601074E-02  0.1179208E+06  0.2599907E+05  0.3189120E-01  0.2050781E-01
  0.1133333E+01 -0.3675573E-02  0.7202148E-02  0.1169681E+06  0.2539429E+05  0.3188189E-01  0.3710938E-01
  0.1164286E+01 -0.2332816E-02 -0.8789062E-02  0.1164207E+06  0.2473092E+05  0.8387653E-03  0.9033203E-02
  0.1195238E+01  0.2361769E-03 -0.1440430E-01  0.1159549E+06  0.2394864E+05 -0.6536354E-02  0.2587891E-01
  0.1226190E+01 -0.2465480E-02  0.9521484E-02  0.1149310E+06  0.2291504E+05  0.2070692E-01  0.6347656E-02
  0.1257143E+01  0.4736727E-02 -0.2990723E-02  0.1142894E+06  0.2196733E+05  0.1553622E-01 -0.1708984E-02
  0.1288095E+01 -0.7492601E-03 -0.1007080E-01  0.1138635E+06  0.2095543E+05  0.5307013E-02 -0.1220703E-01
  0.1319048E+01 -0.2602808E-02 -0.1110840E-01  0.1136565E+06  0.1993653E+05  0.9624605E-02  0.9765625E-02
  0.1350000E+01  0.4001194E-02  0.4394531E-02  0.1137671E+06  0.1902756E+05  0.1374421E-01 -0.1098633E-01
  0.1380952E+01  0.2651872E-02 -0.3173828E-02  0.1138467E+06  0.1800521E+05  0.8485992E-02 -0.1953125E-02
  0.1411905E+01  0.1188796E-02 -0.2075195E-02  0.1134737E+06  0.1660956E+05 -0.2005823E-01  0.2880859E-01
  0.1442857E+01  0.5922223E-02 -0.4699707E-02  0.1133749E+06  0.1543361E+05 -0.3384128E-02  0.3784180E-02
  0.1473810E+01  0.4638277E-02 -0.2990723E-02  0.1134195E+06  0.1438508E+05  0.2054094E-01  0.2062988E-01
  0.1504762E+01 -0.5881394E-03  0.7507324E-02  0.1135906E+06  0.1336929E+05  0.1362861E-01 -0.1513672E-01
  0.1535714E+01  0.6339139E-02  0.1464844E-02  0.1139088E+06  0.1247104E+05 -0.7630813E-02  0.3906250E-02
  0.1566667E+01  0.4012737E-02 -0.1782227E-01  0.1143702E+06  0.1176210E+05  0.8726728E-02  0.3552246E-01
  0.1597619E+01  0.4068707E-02  0.8605957E-02  0.1146953E+06  0.1084951E+05  0.6112612E-02 -0.5981445E-02
  0.1628572E+01  0.1405415E-02  0.6103516E-04  0.1148175E+06  0.9583691E+04  0.1798931E-01  0.1574707E-01
  0.1659524E+01  0.6436275E-02  0.5493164E-03  0.1150648E+06  0.8592661E+04 -0.9415351E-02  0.1605225E-01
  0.1690476E+01  0.2076055E-02 -0.1831055E-02  0.1153556E+06  0.7809092E+04  0.2310739E-02  0.2581787E-01
  0.1721429E+01  0.4697934E-02  0.6408691E-02  0.1156942E+06  0.7081628E+04  0.4538382E-02 -0.1641846E-01
  0.1752381E+01  0.1062310E-02 -0.9338379E-02  0.1160806E+06  0.6443572E+04 -0.1114555E-01  0.8239746E-02
  0.1783333E+01  0.4158377E-02 -0.5065918E-02  0.1164931E+06  0.6006199E+04 -0.4380841E-02  0.1965332E-01
  0.1814286E+01  0.5483552E-02 -0.2807617E-02  0.1169275E+06  0.5652473E+04  0.1184178E-01 -0.3662109E-03
  0.1845238E+01  0.2365014E-02 -0.4333496E-02  0.1172815E+06  0.5055819E+04  0.1270161E-01  0.1159668E-01
  0.1876190E+01  0.3399534E-02  0.6103516E-03  0.1175822E+06  0.4263521E+04 -0.1353307E-01  0.3814697E-02
  0.1907143E+01  0.3280354E-02 -0.1831055E-03  0.1179119E+06  0.3706000E+04  0.4096442E-02  0.2777100E-02
  0.1938095E+01  0.4566390E-02 -0.3417969E-02  0.1182009E+06  0.3365009E+04 -0.1310081E-01  0.1235962E-01
  0.1969048E+01  0.5486522E-02 -0.4821777E-02  0.1185027E+06  0.3080882E+04  0.3967654E-02  0.9674072E-02
  0.2000000E+01  0.3234863E-02 -0.6164551E-02  0.1188027E+06  0.2819194E+04  0.3906250E-02  0.1055908E-01
Zone t="Motion of body    1 in DoF   3",I=    64,F=POINT
  0.5000000E-01 -0.2868962E+06 -0.4222238E-01 -0.3051758E-02 -0.9383698E-04  0.8356071E+06  0.6871893E-01
  0.8095238E-01 -0.2886517E+06 -0.1867160E+00  0.8463242E-01  0.1048460E-04  0.8408432E+06  0.3046727E+00
  0.1119048E+00 -0.2891384E+06 -0.5232285E+00  0.4636074E-02 -0.2721660E-03  0.8404569E+06  0.8535064E+00
  0.1428571E+00 -0.2897599E+06 -0.1178782E+01 -0.8117676E-02 -0.1088783E-02  0.8421324E+06  0.1923312E+01
  0.1738095E+00 -0.2905814E+06 -0.2348090E+01  0.9832513E-02 -0.9619370E-03  0.8434706E+06  0.3831097E+01
  0.2047619E+00 -0.2913970E+06 -0.4334828E+01  0.1001544E+00  0.1130193E-02  0.8442429E+06  0.7078154E+01
  0.2357143E+00 -0.2915359E+06 -0.7632113E+01  0.4971591E-01 -0.6128550E-03  0.8453170E+06  0.1247035E+02
  0.2666667E+00 -0.2930523E+06 -0.1303847E+02  0.3433228E-01 -0.3466010E-03  0.8469186E+06  0.2130992E+02
  0.2976190E+00 -0.2934472E+06 -0.2187448E+02 -0.2050781E-03 -0.1390576E-02  0.8478395E+06  0.3575673E+02
  0.3285715E+00 -0.2949048E+06 -0.3620745E+02 -0.1021675E-01 -0.1614213E-02  0.8502139E+06  0.5924887E+02
  0.3595238E+00 -0.2958191E+06 -0.5950373E+02  0.8284613E-01  0.9058714E-03  0.8522424E+06  0.9739268E+02
  0.3904762E+00 -0.2977594E+06 -0.9714896E+02 -0.1875714E-01 -0.5928874E-02  0.8542378E+06  0.1590911E+03
  0.4214286E+00 -0.2988246E+06 -0.1563757E+03 -0.9008374E-01 -0.1240444E-01  0.8575506E+06  0.2563052E+03
  0.4523810E+00 -0.3008630E+06 -0.2497030E+03  0.1726974E-01 -0.3720760E-02  0.8591950E+06  0.4095118E+03
  0.4833333E+00 -0.3029448E+06 -0.3890670E+03  0.3283270E-02 -0.8219719E-02  0.8629278E+06  0.6384315E+03
  0.5142857E+00 -0.3046995E+06 -0.5963080E+03  0.3655328E-01 -0.5464554E-02  0.8647460E+06  0.9785955E+03
  0.5452381E+00 -0.3077860E+06 -0.8922427E+03  0.7029971E-01  0.2046585E-02  0.8707717E+06  0.1466585E+04
  0.5761905E+00 -0.3097672E+06 -0.1302788E+04  0.4872723E-02 -0.1567268E-01  0.8756164E+06  0.2142984E+04
  0.6071429E+00 -0.3130887E+06 -0.1870842E+04  0.2995749E-01 -0.3477097E-02  0.8784071E+06  0.3077555E+04
  0.6380953E+00 -0.3166419E+06 -0.2626599E+04 -0.4591301E-01 -0.2456665E-01  0.8844032E+06  0.4323899E+04
  0.6690477E+00 -0.3194970E+06 -0.3622752E+04 -0.2755053E-01 -0.1573944E-01  0.8910659E+06  0.5968980E+04
  0.7000000E+00 -0.3229682E+06 -0.4920142E+04  0.1674107E-01 -0.1639557E-01  0.8948080E+06  0.8111876E+04
  0.7309524E+00 -0.3275508E+06 -0.6582091E+04 -0.5193754E-01 -0.1964569E-01  0.9025334E+06  0.1085811E+05
  0.7619048E+00 -0.3314462E+06 -0.8691422E+04  0.3877258E-01 -0.1853943E-01  0.9097686E+06  0.1434213E+05
  0.7928572E+00 -0.3356047E+06 -0.1133838E+05  0.3417968E-01 -0.5279541E-02  0.9147609E+06  0.1870557E+05
  0.8238096E+00 -0.3410417E+06 -0.1463107E+05  0.2252303E-01 -0.3195190E-01  0.9237736E+06  0.2415811E+05
  0.8547620E+00 -0.3452436E+06 -0.1864995E+05 -0.2085056E-01 -0.2848816E-01  0.9307104E+06  0.3081123E+05
  0.8857143E+00 -0.3495453E+06 -0.2352397E+05  0.1240392E-01 -0.1184082E-01  0.9399747E+06  0.3890141E+05
  0.9166667E+00 -0.3539337E+06 -0.2935198E+05  0.6977983E-01  0.2612305E-01  0.9443349E+06  0.4847528E+05
  0.9476191E+00 -0.3597035E+06 -0.3632877E+05  0.6080205E-01 -0.3631592E-02  0.9535832E+06  0.6001606E+05
  0.9785714E+00 -0.3642588E+06 -0.4452175E+05  0.3767250E-01 -0.4028320E-01  0.9608694E+06  0.7354788E+05
  0.1009524E+01 -0.3679476E+06 -0.5406906E+05  0.9528395E-01 -0.1470947E-01  0.9674049E+06  0.8930426E+05
  0.1040476E+01 -0.3711745E+06 -0.6507573E+05  0.3660433E-01 -0.3027344E-01  0.9727478E+06  0.1074595E+06
  0.1071429E+01 -0.3738795E+06 -0.7759477E+05  0.3053386E-01 -0.4608154E-01  0.9749341E+06  0.1280487E+06
  0.1102381E+01 -0.3766855E+06 -0.9172455E+05  0.4030693E-01 -0.3393555E-01  0.9804133E+06  0.1514945E+06
  0.1133333E+01 -0.3774118E+06 -0.1072131E+06  0.1831055E-01 -0.6066895E-01  0.9809866E+06  0.1769002E+06
  0.1164286E+01 -0.3768238E+06 -0.1241231E+06  0.1824315E-01 -0.7226562E-01  0.9800908E+06  0.2045418E+06
  0.1195238E+01 -0.3751686E+06 -0.1424410E+06 -0.1021305E-01 -0.3051758E-01  0.9776304E+06  0.2345411E+06
  0.1226190E+01 -0.3717938E+06 -0.1617783E+06  0.2787470E-01 -0.1342773E-01  0.9685994E+06  0.2657498E+06
  0.1257143E+01 -0.3679665E+06 -0.1822514E+06  0.2369274E-01 -0.2929688E-02  0.9621344E+06  0.2992757E+06
  0.1288095E+01 -0.3620452E+06 -0.2030818E+06  0.7183421E-01  0.1806641E-01  0.9523124E+06  0.3331582E+06
  0.1319048E+01 -0.3538604E+06 -0.2237797E+06  0.4238528E-01 -0.9033203E-02  0.9377935E+06  0.3662737E+06
  0.1350000E+01 -0.3445734E+06 -0.2443744E+06  0.8463541E-01  0.1074219E-01  0.9232291E+06  0.3994395E+06
  0.1380952E+01 -0.3339284E+06 -0.2643439E+06  0.5020878E-01 -0.3881836E-01  0.9056958E+06  0.4313240E+06
  0.1411905E+01 -0.3212828E+06 -0.2827431E+06  0.5740804E-01 -0.7324219E-03  0.8818377E+06  0.4596712E+06
  0.1442857E+01 -0.3092128E+06 -0.3003935E+06  0.3384127E-01 -0.9033203E-02  0.8612991E+06  0.4874041E+06
  0.1473810E+01 -0.2965386E+06 -0.3162780E+06  0.8448291E-01  0.8300781E-02  0.8406896E+06  0.5121904E+06
  0.1504762E+01 -0.2827766E+06 -0.3299048E+06  0.2498578E-01 -0.6835938E-02  0.8176471E+06  0.5326056E+06
  0.1535714E+01 -0.2683497E+06 -0.3413539E+06  0.5468750E-01  0.5615234E-02  0.7939448E+06  0.5495046E+06
  0.1566667E+01 -0.2542350E+06 -0.3510028E+06  0.2586852E-01 -0.1464844E-01  0.7722744E+06  0.5641681E+06
  0.1597619E+01 -0.2404002E+06 -0.3582503E+06  0.4706711E-01  0.7324219E-03  0.7495216E+06  0.5736376E+06
  0.1628572E+01 -0.2268802E+06 -0.3628711E+06  0.1858895E-01 -0.1025391E-01  0.7246882E+06  0.5766188E+06
  0.1659524E+01 -0.2146115E+06 -0.3663387E+06  0.3766140E-01 -0.1220703E-02  0.7041588E+06  0.5796691E+06
  0.1690476E+01 -0.2034687E+06 -0.3685152E+06  0.3090614E-01  0.1831055E-01  0.6869748E+06  0.5820398E+06
  0.1721429E+01 -0.1923706E+06 -0.3682562E+06  0.2779759E-01 -0.7568359E-02  0.6692976E+06  0.5792058E+06
  0.1752381E+01 -0.1816816E+06 -0.3660227E+06  0.2034063E-01 -0.1489258E-01  0.6519729E+06  0.5724331E+06
  0.1783333E+01 -0.1719142E+06 -0.3628877E+06  0.2601125E-01 -0.1391602E-01  0.6374761E+06  0.5657996E+06
  0.1814286E+01 -0.1629780E+06 -0.3588197E+06  0.5167323E-01  0.2233887E-01  0.6249852E+06  0.5586079E+06
  0.1845238E+01 -0.1548555E+06 -0.3532819E+06  0.3810484E-01 -0.1220703E-03  0.6121916E+06  0.5464836E+06
  0.1876190E+01 -0.1475395E+06 -0.3462670E+06  0.4476325E-01  0.9155273E-02  0.5990305E+06  0.5287412E+06
  0.1907143E+01 -0.1412513E+06 -0.3392480E+06  0.9216995E-02 -0.4882812E-03  0.5886249E+06  0.5133216E+06
  0.1938095E+01 -0.1363778E+06 -0.3331319E+06  0.3527142E-02 -0.8056641E-02  0.5817022E+06  0.5024061E+06
  0.1969048E+01 -0.1314764E+06 -0.3256966E+06  0.5505120E-01  0.1318359E-01  0.5750825E+06  0.4893182E+06
  0.2000000E+01 -0.1271396E+06 -0.3175939E+06  0.1904297E-01  0.4882812E-03  0.5691439E+06  0.4741239E+06
