VARIABLES="w (rad/s)"
"A   1   1" "B   1   1"
"A   1   2" "B   1   2"
"A   1   3" "B   1   3"
Zone t="Motion of body    1 in DoF   1",I=    64,F=POINT
  0.5000000E-01  0.2588652E+06  0.2872664E-01  0.2250671E-02  0.9482857E-05 -0.5518189E+06 -0.6189733E-01
  0.8095238E-01  0.2615163E+06  0.1267817E+00  0.1145082E-01  0.8031970E-04 -0.5578858E+06 -0.2736063E+00
  0.1119048E+00  0.2623490E+06  0.3564184E+00  0.1479453E-01  0.1382501E-03 -0.5595310E+06 -0.7690471E+00
  0.1428571E+00  0.2629529E+06  0.8044484E+00 -0.5954742E-02  0.6108312E-05 -0.5607233E+06 -0.1734489E+01
  0.1738095E+00  0.2633564E+06  0.1601185E+01  0.1145663E-01  0.1439131E-03 -0.5612542E+06 -0.3449686E+01
  0.2047619E+00  0.2642740E+06  0.2960449E+01  0.6706770E-03  0.1440383E-04 -0.5628118E+06 -0.6371529E+01
  0.2357143E+00  0.2649811E+06  0.5220689E+01  0.5664247E-02  0.2157297E-03 -0.5641364E+06 -0.1122657E+02
  0.2666667E+00  0.2656638E+06  0.8919688E+01 -0.1516342E-02 -0.7931516E-04 -0.5655602E+06 -0.1916788E+02
  0.2976190E+00  0.2670098E+06  0.1501029E+02  0.2486572E-02  0.1735762E-03 -0.5678774E+06 -0.3221446E+02
  0.3285715E+00  0.2679658E+06  0.2489011E+02  0.1852947E-01  0.6951615E-03 -0.5694884E+06 -0.5334481E+02
  0.3595238E+00  0.2694363E+06  0.4101557E+02  0.2389466E-01  0.8728504E-03 -0.5720071E+06 -0.8776521E+02
  0.3904762E+00  0.2704522E+06  0.6699585E+02  0.1051182E-01  0.1313537E-03 -0.5741586E+06 -0.1432037E+03
  0.4214286E+00  0.2722611E+06  0.1083083E+03  0.3113827E-02 -0.6294250E-04 -0.5774218E+06 -0.2310992E+03
  0.4523810E+00  0.2742920E+06  0.1736394E+03  0.5565442E-02  0.2968907E-03 -0.5809587E+06 -0.3697539E+03
  0.4833333E+00  0.2761024E+06  0.2713557E+03  0.4861766E-02 -0.4997849E-03 -0.5844667E+06 -0.5768796E+03
  0.5142857E+00  0.2787322E+06  0.4180758E+03  0.4925198E-02 -0.4267693E-04 -0.5896086E+06 -0.8872245E+03
  0.5452381E+00  0.2810746E+06  0.6285128E+03  0.1066250E-01  0.1838326E-02 -0.5940218E+06 -0.1331125E+04
  0.5761905E+00  0.2838790E+06  0.9236408E+03  0.1721343E-01  0.2622604E-02 -0.5986181E+06 -0.1950405E+04
  0.6071429E+00  0.2871858E+06  0.1334554E+04 -0.1507927E-02 -0.3101826E-02 -0.6051944E+06 -0.2812640E+04
  0.6380953E+00  0.2902869E+06  0.1885018E+04 -0.9086950E-03  0.1736164E-02 -0.6113304E+06 -0.3964578E+04
  0.6690477E+00  0.2940504E+06  0.2621387E+04  0.4059598E-02 -0.2413273E-02 -0.6181181E+06 -0.5497379E+04
  0.7000000E+00  0.2982603E+06  0.3596057E+04  0.1225063E-01  0.6769180E-02 -0.6260068E+06 -0.7520656E+04
  0.7309524E+00  0.3023341E+06  0.4856764E+04  0.2630277E-02  0.1848221E-02 -0.6333994E+06 -0.1012612E+05
  0.7619048E+00  0.3069535E+06  0.6482549E+04 -0.6208419E-02 -0.5073547E-03 -0.6418172E+06 -0.1347281E+05
  0.7928572E+00  0.3123264E+06  0.8564764E+04  0.1327927E-01  0.4302979E-02 -0.6521831E+06 -0.1775093E+05
  0.8238096E+00  0.3174482E+06  0.1118447E+05  0.2407890E-02  0.1932144E-02 -0.6616494E+06 -0.2310591E+05
  0.8547620E+00  0.3230455E+06  0.1447037E+05  0.8818644E-02  0.1176453E-01 -0.6722652E+06 -0.2980206E+05
  0.8857143E+00  0.3291433E+06  0.1856446E+05 -0.7580173E-02 -0.1487732E-02 -0.6826612E+06 -0.3806589E+05
  0.9166667E+00  0.3358362E+06  0.2363815E+05  0.2696644E-02  0.5634308E-02 -0.6948909E+06 -0.4828855E+05
  0.9476191E+00  0.3421198E+06  0.2981032E+05  0.1223770E-02  0.2639771E-02 -0.7062129E+06 -0.6066691E+05
  0.9785714E+00  0.3486941E+06  0.3732482E+05 -0.7048002E-02 -0.6416321E-02 -0.7182724E+06 -0.7568145E+05
  0.1009524E+01  0.3551272E+06  0.4635568E+05  0.1874240E-02  0.6225586E-02 -0.7293191E+06 -0.9358340E+05
  0.1040476E+01  0.3622411E+06  0.5725043E+05 -0.8623136E-02 -0.1196289E-01 -0.7417635E+06 -0.1150829E+06
  0.1071429E+01  0.3685434E+06  0.7010664E+05  0.8544922E-03  0.2502441E-02 -0.7527974E+06 -0.1403557E+06
  0.1102381E+01  0.3739960E+06  0.8514328E+05  0.5868866E-02 -0.3723145E-02 -0.7611456E+06 -0.1695921E+06
  0.1133333E+01  0.3790418E+06  0.1026994E+06 -0.1130946E-02 -0.9063721E-02 -0.7688998E+06 -0.2035597E+06
  0.1164286E+01  0.3826427E+06  0.1227319E+06  0.1834799E-02 -0.1220703E-03 -0.7732624E+06 -0.2419527E+06
  0.1195238E+01  0.3854916E+06  0.1456140E+06 -0.1787284E-02  0.3479004E-02 -0.7764451E+06 -0.2856077E+06
  0.1226190E+01  0.3862583E+06  0.1710331E+06  0.6520688E-02  0.2532959E-02 -0.7758199E+06 -0.3338299E+06
  0.1257143E+01  0.3834756E+06  0.1979381E+06 -0.1747825E-02 -0.5218506E-02 -0.7682199E+06 -0.3843962E+06
  0.1288095E+01  0.3798659E+06  0.2280728E+06  0.2843042E-02 -0.3021240E-02 -0.7585464E+06 -0.4403827E+06
  0.1319048E+01  0.3728862E+06  0.2590941E+06  0.2591240E-02 -0.2563477E-02 -0.7427908E+06 -0.4975180E+06
  0.1350000E+01  0.3630560E+06  0.2908064E+06 -0.9494358E-03  0.6103516E-03 -0.7209691E+06 -0.5548021E+06
  0.1380952E+01  0.3509161E+06  0.3230118E+06 -0.2872862E-02 -0.4089355E-02 -0.6952174E+06 -0.6123612E+06
  0.1411905E+01  0.3348555E+06  0.3533690E+06 -0.2593737E-02  0.6103516E-03 -0.6633856E+06 -0.6664093E+06
  0.1442857E+01  0.3170326E+06  0.3817627E+06 -0.5076191E-03 -0.3601074E-02 -0.6275395E+06 -0.7151699E+06
  0.1473810E+01  0.2971844E+06  0.4069274E+06 -0.3996373E-02  0.1464844E-02 -0.5883799E+06 -0.7571102E+06
  0.1504762E+01  0.2763647E+06  0.4289104E+06 -0.3346310E-02  0.6774902E-02 -0.5483357E+06 -0.7929233E+06
  0.1535714E+01  0.2547785E+06  0.4465220E+06 -0.2921171E-02  0.2685547E-02 -0.5068847E+06 -0.8194690E+06
  0.1566667E+01  0.2333088E+06  0.4600108E+06 -0.1870013E-02 -0.1806641E-01 -0.4661722E+06 -0.8379312E+06
  0.1597619E+01  0.2125983E+06  0.4699349E+06  0.8576758E-02 -0.4943848E-02 -0.4277107E+06 -0.8500399E+06
  0.1628572E+01  0.1926177E+06  0.4756215E+06 -0.3251193E-02  0.2441406E-02 -0.3911685E+06 -0.8542701E+06
  0.1659524E+01  0.1738298E+06  0.4773295E+06 -0.2565315E-02 -0.4272461E-02 -0.3571604E+06 -0.8510162E+06
  0.1690476E+01  0.1563770E+06  0.4754307E+06 -0.4332636E-02  0.2441406E-03 -0.3257830E+06 -0.8405034E+06
  0.1721429E+01  0.1404990E+06  0.4713818E+06  0.3846988E-02  0.3662109E-03 -0.2978933E+06 -0.8266248E+06
  0.1752381E+01  0.1261883E+06  0.4652998E+06  0.1567343E-03 -0.4882812E-03 -0.2732139E+06 -0.8092436E+06
  0.1783333E+01  0.1133998E+06  0.4568121E+06 -0.3644997E-02 -0.2807617E-02 -0.2512625E+06 -0.7869876E+06
  0.1814286E+01  0.1023161E+06  0.4472777E+06 -0.4709800E-03 -0.1434326E-02 -0.2326949E+06 -0.7633935E+06
  0.1845238E+01  0.9271957E+05  0.4372143E+06  0.1017121E-02  0.5737305E-02 -0.2171457E+06 -0.7397518E+06
  0.1876190E+01  0.8421953E+05  0.4261244E+06 -0.2358529E-02 -0.6103516E-04 -0.2039005E+06 -0.7149934E+06
  0.1907143E+01  0.7695659E+05  0.4143145E+06 -0.1276138E-02 -0.1831055E-02 -0.1928795E+06 -0.6891374E+06
  0.1938095E+01  0.7078404E+05  0.4015700E+06  0.3046884E-02  0.1525879E-03 -0.1837894E+06 -0.6611695E+06
  0.1969048E+01  0.6550804E+05  0.3887695E+06 -0.2100067E-02  0.5950928E-02 -0.1764537E+06 -0.6336743E+06
  0.2000000E+01  0.6112236E+05  0.3761639E+06 -0.9231567E-03  0.2990723E-02 -0.1708867E+06 -0.6073730E+06
Zone t="Motion of body    1 in DoF   2",I=    64,F=POINT
  0.5000000E-01 -0.2288818E-03  0.9298325E-05  0.7305162E+05  0.1413090E+03  0.1159668E-01  0.6246567E-04
  0.8095238E-01 -0.3911186E-02 -0.6294250E-04  0.7240239E+05  0.2338818E+03  0.4203347E-01  0.2441406E-03
  0.1119048E+00  0.9544860E-03 -0.4863739E-04  0.7196452E+05  0.3340153E+03  0.4908785E-02  0.1525879E-03
  0.1428571E+00  0.6568908E-02  0.9250641E-04  0.7174960E+05  0.4453448E+03  0.6622314E-02 -0.3385544E-03
  0.1738095E+00 -0.7506070E-02  0.1525879E-03  0.7170248E+05  0.5718781E+03  0.1387087E-01  0.1144409E-04
  0.2047619E+00 -0.1713952E-02 -0.7629395E-05  0.7154340E+05  0.7195306E+03  0.2384629E-02 -0.5722046E-05
  0.2357143E+00  0.4013523E-02  0.9727478E-04  0.7160962E+05  0.8955492E+03  0.6991299E-02 -0.3948212E-03
  0.2666667E+00 -0.1430511E-02 -0.8010864E-04  0.7164459E+05  0.1105507E+04 -0.1831055E-02 -0.1564026E-03
  0.2976190E+00 -0.3178711E-02  0.3814697E-05  0.7176147E+05  0.1364390E+04 -0.1620117E-01 -0.1361847E-02
  0.3285715E+00 -0.1904031E-02  0.4348755E-03  0.7183278E+05  0.1677291E+04  0.1746136E-01 -0.5493164E-03
  0.3595238E+00 -0.4244166E-04 -0.6904602E-03  0.7195034E+05  0.2060887E+04 -0.6790666E-03 -0.3356934E-03
  0.3904762E+00  0.4611131E-02 -0.4501343E-03  0.7192242E+05  0.2524672E+04 -0.1297369E-01  0.1296997E-03
  0.4214286E+00 -0.7241459E-04 -0.6790161E-03  0.7197936E+05  0.3059147E+04  0.1737950E-02 -0.5645752E-03
  0.4523810E+00 -0.1099596E-01  0.7476807E-03  0.7164539E+05  0.3695073E+04  0.3049188E-01  0.9155273E-03
  0.4833333E+00 -0.1515356E-02 -0.2136230E-02  0.7143693E+05  0.4360863E+04 -0.3914669E-02  0.1190186E-02
  0.5142857E+00  0.1008776E-02 -0.1220703E-02  0.7086720E+05  0.5098227E+04 -0.1186795E-01  0.2090454E-02
  0.5452381E+00  0.5429197E-02 -0.1373291E-02  0.7026988E+05  0.5853243E+04  0.4925457E-02  0.1327515E-02
  0.5761905E+00 -0.8792088E-02 -0.7781982E-03  0.6972463E+05  0.6602440E+04 -0.6037940E-02  0.1113892E-02
  0.6071429E+00  0.1105813E-02 -0.5187988E-03  0.6877399E+05  0.7381042E+04  0.2000517E-01  0.8560181E-02
  0.6380953E+00 -0.6886952E-02  0.1525879E-02  0.6803173E+05  0.8109838E+04  0.1511303E-01 -0.2014160E-02
  0.6690477E+00  0.3101715E-02  0.1525879E-02  0.6725661E+05  0.8817131E+04  0.2061728E-01 -0.5615234E-02
  0.7000000E+00 -0.3749302E-02 -0.1312256E-02  0.6619765E+05  0.9516012E+04  0.3051758E-01  0.2014160E-02
  0.7309524E+00  0.5594558E-02 -0.4272461E-03  0.6531787E+05  0.1015742E+05 -0.6012062E-02  0.7171631E-02
  0.7619048E+00 -0.3204345E-03  0.1983643E-02  0.6459835E+05  0.1074603E+05 -0.1602173E-02  0.7629395E-03
  0.7928572E+00 -0.7698127E-04 -0.2197266E-02  0.6347443E+05  0.1129682E+05 -0.1016153E-01 -0.1101685E-01
  0.8238096E+00 -0.9631559E-03  0.3662109E-03  0.6247689E+05  0.1178749E+05  0.1052063E-01 -0.3387451E-02
  0.8547620E+00  0.1106793E-02 -0.5798340E-02  0.6167408E+05  0.1221507E+05  0.1613776E-01  0.1437378E-01
  0.8857143E+00  0.4134639E-03 -0.2380371E-02  0.6089160E+05  0.1256418E+05  0.1378213E-03 -0.5310059E-02
  0.9166667E+00  0.3761985E-02 -0.1708984E-02  0.5989338E+05  0.1285230E+05  0.2796520E-02  0.7904053E-02
  0.9476191E+00  0.4379809E-02  0.5065918E-02  0.5899800E+05  0.1306488E+05 -0.2086850E-01  0.7568359E-02
  0.9785714E+00  0.1590478E-02 -0.6469727E-02  0.5828216E+05  0.1321688E+05  0.5114479E-02  0.1263428E-01
  0.1009524E+01 -0.1859125E-02 -0.1586914E-02  0.5774336E+05  0.1328839E+05  0.2140261E-01 -0.3601074E-02
  0.1040476E+01 -0.5719427E-03  0.2807617E-02  0.5689405E+05  0.1327150E+05  0.6687330E-02  0.1559448E-01
  0.1071429E+01 -0.4628500E-02 -0.4028320E-02  0.5616843E+05  0.1320156E+05  0.6835938E-02 -0.5004883E-02
  0.1102381E+01 -0.4636958E-02  0.3662109E-02  0.5553780E+05  0.1306096E+05  0.9412332E-02 -0.2465820E-01
  0.1133333E+01 -0.3897723E-02 -0.6042480E-02  0.5509158E+05  0.1289243E+05  0.4631491E-02 -0.6683350E-02
  0.1164286E+01 -0.5255389E-02 -0.1306152E-01  0.5481239E+05  0.1266762E+05  0.1079910E-01  0.1690674E-01
  0.1195238E+01 -0.1640472E-02  0.9094238E-02  0.5427022E+05  0.1232350E+05  0.4391613E-02 -0.2032471E-01
  0.1226190E+01  0.2644363E-04 -0.3662109E-03  0.5379389E+05  0.1195099E+05  0.2190155E-02 -0.5462646E-02
  0.1257143E+01 -0.4070672E-02 -0.2441406E-03  0.5340964E+05  0.1153399E+05  0.1728404E-01  0.1348877E-01
  0.1288095E+01 -0.5274436E-02 -0.1281738E-02  0.5316357E+05  0.1112708E+05  0.1108787E-01  0.7629395E-02
  0.1319048E+01 -0.1943430E-02 -0.4821777E-02  0.5305654E+05  0.1073656E+05  0.8051352E-02  0.1617432E-02
  0.1350000E+01 -0.3413448E-02  0.3784180E-02  0.5308196E+05  0.1034826E+05  0.1690900E-01  0.3326416E-02
  0.1380952E+01 -0.8287101E-03 -0.1007080E-01  0.5279104E+05  0.9733394E+04  0.4419787E-03  0.1370239E-01
  0.1411905E+01 -0.2172254E-02 -0.8239746E-02  0.5260546E+05  0.9171294E+04  0.3371858E-02  0.1199341E-01
  0.1442857E+01  0.1850695E-02  0.4150391E-02  0.5249988E+05  0.8607264E+04 -0.1776667E-02 -0.7385254E-02
  0.1473810E+01 -0.1666881E-02 -0.7751465E-02  0.5246574E+05  0.8077830E+04 -0.1159569E-02  0.7507324E-02
  0.1504762E+01  0.9126301E-03  0.4943848E-02  0.5253114E+05  0.7644521E+04 -0.6814305E-02  0.6301880E-02
  0.1535714E+01  0.1391034E-03  0.2136230E-02  0.5267427E+05  0.7257888E+04 -0.4451308E-02 -0.2153015E-01
  0.1566667E+01  0.1967410E-02 -0.8911133E-02  0.5283820E+05  0.6858114E+04  0.4363364E-02 -0.3646851E-02
  0.1597619E+01  0.1356236E-02 -0.9704590E-02  0.5279992E+05  0.6158383E+04 -0.5883389E-02  0.7476807E-03
  0.1628572E+01  0.7308156E-03  0.1831055E-02  0.5285044E+05  0.5603550E+04 -0.7720411E-02 -0.3890991E-02
  0.1659524E+01 -0.3107802E-02  0.1220703E-02  0.5293960E+05  0.5079178E+04  0.1493216E-01 -0.9857178E-02
  0.1690476E+01 -0.1769160E-02 -0.8361816E-02  0.5305593E+05  0.4586759E+04  0.9531800E-02  0.7492065E-02
  0.1721429E+01 -0.1187780E-02 -0.7690430E-02  0.5321001E+05  0.4233530E+04  0.3474699E-02  0.3417969E-02
  0.1752381E+01 -0.2107206E-02 -0.3051758E-03  0.5339247E+05  0.3956286E+04  0.4945838E-02  0.6057739E-02
  0.1783333E+01 -0.1266337E-02 -0.1831055E-03  0.5360123E+05  0.3738369E+04  0.3011828E-02  0.2250671E-02
  0.1814286E+01 -0.1581147E-02 -0.2716064E-02  0.5379397E+05  0.3420406E+04  0.3767840E-02  0.4264832E-02
  0.1845238E+01 -0.1868857E-02 -0.3814697E-02  0.5391980E+05  0.2865660E+04  0.2249244E-02  0.1025391E-01
  0.1876190E+01 -0.4879714E-04  0.5432129E-02  0.5407127E+05  0.2487349E+04  0.1821760E-02 -0.2044678E-02
  0.1907143E+01 -0.9281002E-03 -0.4547119E-02  0.5423533E+05  0.2161248E+04  0.3200345E-02  0.4219055E-02
  0.1938095E+01 -0.1086486E-02 -0.6103516E-04  0.5440849E+05  0.1858740E+04  0.3653112E-02 -0.2830505E-02
  0.1969048E+01 -0.7284365E-03 -0.1007080E-02  0.5456750E+05  0.1637814E+04 -0.6571427E-02  0.2460480E-02
  0.2000000E+01  0.1617432E-02 -0.6713867E-03  0.5472625E+05  0.1502275E+04 -0.7202148E-02  0.1201630E-02
Zone t="Motion of body    1 in DoF   3",I=    64,F=POINT
  0.5000000E-01 -0.5513974E+06 -0.6164119E-01 -0.2040863E-01 -0.7806726E-04  0.1355972E+07  0.1331213E+00
  0.8095238E-01 -0.5571160E+06 -0.2730464E+00 -0.2450382E-02 -0.3464462E-04  0.1368344E+07  0.5897693E+00
  0.1119048E+00 -0.5587804E+06 -0.7669966E+00 -0.3633864E-01 -0.3903597E-03  0.1371222E+07  0.1653891E+01
  0.1428571E+00 -0.5599344E+06 -0.1728573E+01 -0.1356506E-01  0.4104991E-04  0.1373462E+07  0.3725807E+01
  0.1738095E+00 -0.5605096E+06 -0.3440921E+01 -0.3840825E-01 -0.3410084E-03  0.1374403E+07  0.7412194E+01
  0.2047619E+00 -0.5621577E+06 -0.6359464E+01  0.4471180E-03 -0.1607873E-03  0.1377137E+07  0.1368832E+02
  0.2357143E+00 -0.5634490E+06 -0.1120254E+02  0.2459902E-02 -0.2565980E-03  0.1379553E+07  0.2409283E+02
  0.2666667E+00 -0.5648346E+06 -0.1912402E+02  0.2437591E-01 -0.1654401E-03  0.1382557E+07  0.4109799E+02
  0.2976190E+00 -0.5672038E+06 -0.3214491E+02  0.2655762E-01  0.9026378E-03  0.1386575E+07  0.6898927E+02
  0.3285715E+00 -0.5688818E+06 -0.5323895E+02 -0.2707440E-01 -0.2496108E-02  0.1389706E+07  0.1141012E+03
  0.3595238E+00 -0.5714358E+06 -0.8761722E+02 -0.6404447E-01 -0.1661062E-02  0.1394085E+07  0.1874778E+03
  0.3904762E+00 -0.5735271E+06 -0.1429141E+03 -0.3255146E-01 -0.1680583E-02  0.1398330E+07  0.3054815E+03
  0.4214286E+00 -0.5767541E+06 -0.2306518E+03 -0.2570718E-01 -0.2012014E-02  0.1404374E+07  0.4921414E+03
  0.4523810E+00 -0.5804208E+06 -0.3691548E+03  0.5093223E-01  0.3386378E-02  0.1410830E+07  0.7861045E+03
  0.4833333E+00 -0.5838658E+06 -0.5758236E+03 -0.6440261E-02 -0.9999275E-03  0.1417842E+07  0.1224158E+04
  0.5142857E+00 -0.5889411E+06 -0.8854365E+03 -0.4319933E-01 -0.4229307E-02  0.1427338E+07  0.1879023E+04
  0.5452381E+00 -0.5933432E+06 -0.1328340E+04  0.3302295E-02  0.3890038E-02  0.1435863E+07  0.2813281E+04
  0.5761905E+00 -0.5980895E+06 -0.1947736E+04 -0.5021024E-01 -0.6565094E-02  0.1444079E+07  0.4112920E+04
  0.6071429E+00 -0.6045770E+06 -0.2807712E+04  0.6132237E-02 -0.2899170E-03  0.1456545E+07  0.5917508E+04
  0.6380953E+00 -0.6106139E+06 -0.3956034E+04  0.5643474E-02 -0.2969742E-02  0.1468814E+07  0.8320363E+04
  0.6690477E+00 -0.6173875E+06 -0.5487067E+04  0.2194007E-01  0.6027222E-02  0.1480839E+07  0.1150706E+05
  0.7000000E+00 -0.6253214E+06 -0.7506617E+04  0.2702985E-02 -0.6427765E-03  0.1495703E+07  0.1569914E+05
  0.7309524E+00 -0.6327832E+06 -0.1010884E+05 -0.1928870E-01 -0.6248474E-02  0.1509927E+07  0.2107644E+05
  0.7619048E+00 -0.6411534E+06 -0.1345133E+05 -0.3252411E-01 -0.1735687E-01  0.1525288E+07  0.2795615E+05
  0.7928572E+00 -0.6514103E+06 -0.1771635E+05 -0.3333289E-01 -0.1060486E-01  0.1544680E+07  0.3671804E+05
  0.8238096E+00 -0.6608279E+06 -0.2305886E+05 -0.2022627E-01 -0.1019287E-01  0.1561979E+07  0.4763703E+05
  0.8547620E+00 -0.6713365E+06 -0.2973234E+05 -0.2784835E-02 -0.9292603E-02  0.1582350E+07  0.6123447E+05
  0.8857143E+00 -0.6819047E+06 -0.3800370E+05  0.1137026E-01 -0.8308411E-02  0.1600548E+07  0.7792524E+05
  0.9166667E+00 -0.6941552E+06 -0.4820851E+05  0.9987570E-02  0.1525879E-02  0.1622886E+07  0.9848114E+05
  0.9476191E+00 -0.7053928E+06 -0.6055733E+05  0.1307502E-01  0.2349854E-01  0.1642992E+07  0.1232398E+06
  0.9785714E+00 -0.7173276E+06 -0.7551928E+05  0.3524001E-01  0.2774048E-01  0.1665236E+07  0.1531263E+06
  0.1009524E+01 -0.7283497E+06 -0.9339441E+05 -0.2406282E-01 -0.2528381E-01  0.1684009E+07  0.1885452E+06
  0.1040476E+01 -0.7407302E+06 -0.1148447E+06 -0.1419591E-01 -0.1339722E-01  0.1705099E+07  0.2308545E+06
  0.1071429E+01 -0.7516209E+06 -0.1400130E+06 -0.3754069E-01 -0.3054810E-01  0.1723954E+07  0.2803092E+06
  0.1102381E+01 -0.7600912E+06 -0.1692307E+06  0.7529866E-02  0.2514648E-01  0.1736578E+07  0.3370782E+06
  0.1133333E+01 -0.7679249E+06 -0.2031471E+06 -0.9639964E-02 -0.6408691E-03  0.1748830E+07  0.4026563E+06
  0.1164286E+01 -0.7723057E+06 -0.2415145E+06  0.1205725E-02  0.4089355E-02  0.1752689E+07  0.4761166E+06
  0.1195238E+01 -0.7753814E+06 -0.2850463E+06 -0.2553263E-03  0.1403809E-02  0.1754119E+07  0.5590801E+06
  0.1226190E+01 -0.7746288E+06 -0.3330479E+06 -0.7018451E-02  0.1019287E-01  0.1748795E+07  0.6500495E+06
  0.1257143E+01 -0.7669071E+06 -0.3833730E+06 -0.4223910E-02 -0.2624512E-02  0.1729734E+07  0.7444984E+06
  0.1288095E+01 -0.7572672E+06 -0.4391948E+06 -0.1435736E-01 -0.2917480E-01  0.1706646E+07  0.8480252E+06
  0.1319048E+01 -0.7414772E+06 -0.4960800E+06 -0.6802004E-02 -0.1892090E-01  0.1672538E+07  0.9525788E+06
  0.1350000E+01 -0.7197429E+06 -0.5533371E+06  0.2115885E-01  0.6909180E-01  0.1625798E+07  0.1055639E+07
  0.1380952E+01 -0.6940690E+06 -0.6107570E+06  0.1900509E-02 -0.1892090E-01  0.1572291E+07  0.1157811E+07
  0.1411905E+01 -0.6619179E+06 -0.6638296E+06  0.1340097E-01 -0.1220703E-02  0.1508970E+07  0.1251855E+07
  0.1442857E+01 -0.6262093E+06 -0.7123829E+06 -0.4230159E-04  0.2319336E-02  0.1438026E+07  0.1334473E+07
  0.1473810E+01 -0.5871907E+06 -0.7541228E+06 -0.6791763E-02 -0.2124023E-01  0.1362019E+07  0.1403009E+07
  0.1504762E+01 -0.5472621E+06 -0.7895286E+06  0.5293254E-02 -0.1440430E-01  0.1286315E+07  0.1459577E+07
  0.1535714E+01 -0.5059394E+06 -0.8159107E+06  0.7491710E-02 -0.1062012E-01  0.1207797E+07  0.1497336E+07
  0.1566667E+01 -0.4653169E+06 -0.8342075E+06  0.8161829E-02  0.9155273E-02  0.1131352E+07  0.1519431E+07
  0.1597619E+01 -0.4270135E+06 -0.8459672E+06 -0.1198645E-01 -0.6347656E-02  0.1060352E+07  0.1529984E+07
  0.1628572E+01 -0.3906944E+06 -0.8499558E+06  0.1650894E-01  0.3540039E-02  0.9945546E+06  0.1526422E+07
  0.1659524E+01 -0.3568829E+06 -0.8464755E+06 -0.1096466E-02  0.1409912E-01  0.9336746E+06  0.1508894E+07
  0.1690476E+01 -0.3256594E+06 -0.8361092E+06 -0.6140158E-02  0.9643555E-02  0.8782441E+06  0.1477772E+07
  0.1721429E+01 -0.2979638E+06 -0.8223354E+06 -0.1724053E-02  0.2258301E-02  0.8307332E+06  0.1441820E+07
  0.1752381E+01 -0.2734443E+06 -0.8050572E+06  0.9704466E-02  0.1403809E-01  0.7897202E+06  0.1400079E+07
  0.1783333E+01 -0.2515337E+06 -0.7830121E+06  0.9621593E-02  0.4516602E-02  0.7528294E+06  0.1348673E+07
  0.1814286E+01 -0.2329948E+06 -0.7595496E+06 -0.4297692E-02  0.1275635E-01  0.7224329E+06  0.1295829E+07
  0.1845238E+01 -0.2175765E+06 -0.7359274E+06 -0.7442351E-02 -0.1177979E-01  0.6978238E+06  0.1244259E+07
  0.1876190E+01 -0.2045130E+06 -0.7110788E+06  0.1006848E-01  0.9277344E-02  0.6783902E+06  0.1192364E+07
  0.1907143E+01 -0.1936592E+06 -0.6850981E+06  0.8104875E-02  0.6530762E-02  0.6625345E+06  0.1138644E+07
  0.1938095E+01 -0.1846081E+06 -0.6572103E+06  0.1747825E-02 -0.5493164E-03  0.6500564E+06  0.1080831E+07
  0.1969048E+01 -0.1773328E+06 -0.6299660E+06 -0.1728099E-02  0.7568359E-02  0.6412419E+06  0.1025556E+07
  0.2000000E+01 -0.1718544E+06 -0.6038561E+06  0.1536179E-01  0.3540039E-02  0.6362187E+06  0.9743798E+06
