VARIABLES="w (rad/s)"
"abs(F   1   1)" "angle(F   1   1)"
"abs(F   1   2)" "angle(F   1   2)"
"abs(F   1   3)" "angle(F   1   3)"
Zone t="Diffraction force - beta =   0.000 deg",I=    64,F=POINT
  0.5000000E-01  0.3247346E+04 -0.1570751E+01  0.4409092E+06 -0.3008578E-04  0.2769477E+04  0.1570803E+01
  0.8095238E-01  0.5303569E+04 -0.1570796E+01  0.4400867E+06 -0.8093294E-04  0.4521027E+04  0.1570798E+01
  0.1119048E+00  0.7405863E+04 -0.1570784E+01  0.4388787E+06 -0.1606929E-03  0.6296149E+04  0.1570792E+01
  0.1428571E+00  0.9571053E+04 -0.1570790E+01  0.4372852E+06 -0.2754809E-03  0.8113893E+04  0.1570802E+01
  0.1738095E+00  0.1182390E+05 -0.1570785E+01  0.4353019E+06 -0.4345210E-03  0.9992564E+04  0.1570815E+01
  0.2047619E+00  0.1419037E+05 -0.1570780E+01  0.4329258E+06 -0.6511185E-03  0.1194796E+05  0.1570815E+01
  0.2357143E+00  0.1671274E+05 -0.1570768E+01  0.4301549E+06 -0.9450009E-03  0.1399983E+05  0.1570827E+01
  0.2666667E+00  0.1940048E+05 -0.1570757E+01  0.4269775E+06 -0.1339972E-02  0.1617652E+05  0.1570836E+01
  0.2976190E+00  0.2231036E+05 -0.1570738E+01  0.4234012E+06 -0.1876789E-02  0.1849566E+05  0.1570857E+01
  0.3285715E+00  0.2549529E+05 -0.1570709E+01  0.4194202E+06 -0.2596365E-02  0.2099051E+05  0.1570884E+01
  0.3595238E+00  0.2898173E+05 -0.1570667E+01  0.4150330E+06 -0.3564161E-02  0.2368230E+05  0.1570927E+01
  0.3904762E+00  0.3280213E+05 -0.1570599E+01  0.4102467E+06 -0.4853227E-02  0.2660314E+05  0.1570993E+01
  0.4214286E+00  0.3705280E+05 -0.1570505E+01  0.4051207E+06 -0.6510086E-02  0.2975376E+05  0.1571089E+01
  0.4523810E+00  0.4169645E+05 -0.1570364E+01  0.3996360E+06 -0.8660777E-02  0.3317926E+05  0.1571229E+01
  0.4833333E+00  0.4672197E+05 -0.1570171E+01  0.3938411E+06 -0.1124963E-01  0.3684191E+05  0.1571422E+01
  0.5142857E+00  0.5217791E+05 -0.1569906E+01  0.3877794E+06 -0.1442386E-01  0.4068990E+05  0.1571687E+01
  0.5452381E+00  0.5801187E+05 -0.1569551E+01  0.3814841E+06 -0.1813627E-01  0.4470305E+05  0.1572041E+01
  0.5761905E+00  0.6416639E+05 -0.1569090E+01  0.3749584E+06 -0.2239637E-01  0.4883667E+05  0.1572501E+01
  0.6071429E+00  0.7056142E+05 -0.1568501E+01  0.3682307E+06 -0.2732388E-01  0.5308330E+05  0.1573089E+01
  0.6380953E+00  0.7723471E+05 -0.1567768E+01  0.3612953E+06 -0.3281292E-01  0.5732589E+05  0.1573824E+01
  0.6690477E+00  0.8419154E+05 -0.1566865E+01  0.3542307E+06 -0.3897651E-01  0.6153217E+05  0.1574729E+01
  0.7000000E+00  0.9134080E+05 -0.1565759E+01  0.3470665E+06 -0.4588418E-01  0.6575510E+05  0.1575834E+01
  0.7309524E+00  0.9865320E+05 -0.1564432E+01  0.3397439E+06 -0.5347962E-01  0.6994698E+05  0.1577162E+01
  0.7619048E+00  0.1060723E+06 -0.1562853E+01  0.3323177E+06 -0.6183552E-01  0.7399084E+05  0.1578740E+01
  0.7928572E+00  0.1136544E+06 -0.1560995E+01  0.3248411E+06 -0.7099800E-01  0.7792777E+05  0.1580598E+01
  0.8238096E+00  0.1213598E+06 -0.1558830E+01  0.3173499E+06 -0.8098837E-01  0.8164930E+05  0.1582766E+01
  0.8547620E+00  0.1291927E+06 -0.1556335E+01  0.3098473E+06 -0.9181282E-01  0.8523877E+05  0.1585263E+01
  0.8857143E+00  0.1370945E+06 -0.1553484E+01  0.3023387E+06 -0.1034784E+00  0.8860229E+05  0.1588119E+01
  0.9166667E+00  0.1449957E+06 -0.1550251E+01  0.2948280E+06 -0.1159991E+00  0.9182038E+05  0.1591350E+01
  0.9476191E+00  0.1527995E+06 -0.1546621E+01  0.2873608E+06 -0.1294044E+00  0.9472305E+05  0.1594976E+01
  0.9785714E+00  0.1606065E+06 -0.1542591E+01  0.2799312E+06 -0.1437006E+00  0.9735088E+05  0.1599003E+01
  0.1009524E+01  0.1683472E+06 -0.1538163E+01  0.2725892E+06 -0.1589209E+00  0.9956062E+05  0.1603437E+01
  0.1040476E+01  0.1760374E+06 -0.1533343E+01  0.2653446E+06 -0.1750529E+00  0.1014764E+06  0.1608273E+01
  0.1071429E+01  0.1835367E+06 -0.1528133E+01  0.2582272E+06 -0.1921165E+00  0.1030628E+06  0.1613506E+01
  0.1102381E+01  0.1908179E+06 -0.1522556E+01  0.2512152E+06 -0.2100876E+00  0.1042560E+06  0.1619102E+01
  0.1133333E+01  0.1978556E+06 -0.1516646E+01  0.2442991E+06 -0.2289410E+00  0.1050990E+06  0.1625018E+01
  0.1164286E+01  0.2045395E+06 -0.1510445E+01  0.2374742E+06 -0.2487036E+00  0.1054852E+06  0.1631196E+01
  0.1195238E+01  0.2108565E+06 -0.1504029E+01  0.2307625E+06 -0.2693734E+00  0.1054645E+06  0.1637558E+01
  0.1226190E+01  0.2167470E+06 -0.1497471E+01  0.2241713E+06 -0.2910007E+00  0.1050351E+06  0.1644071E+01
  0.1257143E+01  0.2221156E+06 -0.1490819E+01  0.2177612E+06 -0.3138030E+00  0.1040562E+06  0.1650674E+01
  0.1288095E+01  0.2271097E+06 -0.1484351E+01  0.2114802E+06 -0.3371357E+00  0.1027091E+06  0.1657123E+01
  0.1319048E+01  0.2315332E+06 -0.1477994E+01  0.2053691E+06 -0.3616059E+00  0.1009087E+06  0.1663444E+01
  0.1350000E+01  0.2354025E+06 -0.1471932E+01  0.1993959E+06 -0.3869714E+00  0.9870516E+05  0.1669448E+01
  0.1380952E+01  0.2386905E+06 -0.1466312E+01  0.1935591E+06 -0.4131839E+00  0.9614062E+05  0.1674974E+01
  0.1411905E+01  0.2406354E+06 -0.1462491E+01  0.1883742E+06 -0.4369766E+00  0.9333319E+05  0.1678747E+01
  0.1442857E+01  0.2426645E+06 -0.1458165E+01  0.1828597E+06 -0.4648317E+00  0.8999067E+05  0.1682959E+01
  0.1473810E+01  0.2441053E+06 -0.1454675E+01  0.1774744E+06 -0.4936224E+00  0.8639877E+05  0.1686394E+01
  0.1504762E+01  0.2449495E+06 -0.1452161E+01  0.1722313E+06 -0.5232905E+00  0.8255073E+05  0.1688825E+01
  0.1535714E+01  0.2451543E+06 -0.1450757E+01  0.1671447E+06 -0.5538462E+00  0.7839368E+05  0.1690070E+01
  0.1566667E+01  0.2448028E+06 -0.1450590E+01  0.1621878E+06 -0.5852946E+00  0.7408520E+05  0.1690110E+01
  0.1597619E+01  0.2439074E+06 -0.1451780E+01  0.1573747E+06 -0.6176243E+00  0.6964480E+05  0.1688736E+01
  0.1628572E+01  0.2424863E+06 -0.1454380E+01  0.1527137E+06 -0.6509455E+00  0.6513455E+05  0.1686070E+01
  0.1659524E+01  0.2405610E+06 -0.1458536E+01  0.1482218E+06 -0.6851234E+00  0.6048123E+05  0.1681608E+01
  0.1690476E+01  0.2382156E+06 -0.1464290E+01  0.1438596E+06 -0.7202249E+00  0.5582819E+05  0.1675637E+01
  0.1721429E+01  0.2355058E+06 -0.1471712E+01  0.1396163E+06 -0.7562598E+00  0.5120937E+05  0.1668058E+01
  0.1752381E+01  0.2324361E+06 -0.1480877E+01  0.1355099E+06 -0.7930856E+00  0.4658223E+05  0.1658577E+01
  0.1783333E+01  0.2290683E+06 -0.1491795E+01  0.1315079E+06 -0.8307410E+00  0.4202262E+05  0.1647382E+01
  0.1814286E+01  0.2254493E+06 -0.1504511E+01  0.1276056E+06 -0.8692159E+00  0.3754497E+05  0.1634321E+01
  0.1845238E+01  0.2216221E+06 -0.1519029E+01  0.1238065E+06 -0.9085789E+00  0.3317409E+05  0.1619304E+01
  0.1876190E+01  0.2176149E+06 -0.1535296E+01  0.1201536E+06 -0.9490129E+00  0.2895729E+05  0.1603005E+01
  0.1907143E+01  0.2134555E+06 -0.1553373E+01  0.1166268E+06 -0.9902968E+00  0.2485395E+05  0.1584601E+01
  0.1938095E+01  0.2091860E+06 -0.1573209E+01  0.1132243E+06 -0.1032472E+01  0.2091067E+05  0.1564665E+01
  0.1969048E+01  0.2048545E+06 -0.1594793E+01  0.1099297E+06 -0.1075765E+01  0.1714068E+05  0.1543813E+01
  0.2000000E+01  0.2004727E+06 -0.1618147E+01  0.1067290E+06 -0.1119915E+01  0.1350080E+05  0.1520412E+01
