VARIABLES="w (rad/s)"
"abs(F   1   1)" "angle(F   1   1)"
"abs(F   1   2)" "angle(F   1   2)"
"abs(F   1   3)" "angle(F   1   3)"
Zone t="Diffraction force - beta =   0.000 deg",I=    64,F=POINT
  0.5000000E-01  0.1952190E+04 -0.1570794E+01  0.4983955E+03 -0.3071437E+01  0.6743710E+03  0.1570797E+01
  0.8095238E-01  0.3191513E+04 -0.1570789E+01  0.1285268E+04 -0.3068591E+01  0.1105103E+04  0.1570797E+01
  0.1119048E+00  0.4451155E+04 -0.1570781E+01  0.2436520E+04 -0.3065412E+01  0.1532540E+04  0.1570798E+01
  0.1428571E+00  0.5747138E+04 -0.1570770E+01  0.3951611E+04 -0.3061452E+01  0.1978838E+04  0.1570799E+01
  0.1738095E+00  0.7096323E+04 -0.1570753E+01  0.5842495E+04 -0.3056606E+01  0.2408694E+04  0.1570800E+01
  0.2047619E+00  0.8509464E+04 -0.1570728E+01  0.8117299E+04 -0.3050593E+01  0.2876271E+04  0.1570803E+01
  0.2357143E+00  0.9997479E+04 -0.1570692E+01  0.1079750E+05 -0.3043144E+01  0.3347373E+04  0.1570804E+01
  0.2666667E+00  0.1160514E+05 -0.1570641E+01  0.1388540E+05 -0.3034096E+01  0.3812863E+04  0.1570806E+01
  0.2976190E+00  0.1332032E+05 -0.1570564E+01  0.1740075E+05 -0.3022772E+01  0.4346807E+04  0.1570808E+01
  0.3285715E+00  0.1517317E+05 -0.1570449E+01  0.2137893E+05 -0.3009468E+01  0.4894944E+04  0.1570806E+01
  0.3595238E+00  0.1723810E+05 -0.1570279E+01  0.2578447E+05 -0.2993253E+01  0.5392757E+04  0.1570798E+01
  0.3904762E+00  0.1948559E+05 -0.1570026E+01  0.3064632E+05 -0.2974184E+01  0.5989304E+04  0.1570782E+01
  0.4214286E+00  0.2193771E+05 -0.1569656E+01  0.3589849E+05 -0.2952994E+01  0.6620246E+04  0.1570745E+01
  0.4523810E+00  0.2460530E+05 -0.1569116E+01  0.4157254E+05 -0.2928639E+01  0.7258818E+04  0.1570674E+01
  0.4833333E+00  0.2754459E+05 -0.1568375E+01  0.4749266E+05 -0.2903846E+01  0.7869738E+04  0.1570533E+01
  0.5142857E+00  0.3069777E+05 -0.1567351E+01  0.5370974E+05 -0.2877164E+01  0.8543827E+04  0.1570301E+01
  0.5452381E+00  0.3397332E+05 -0.1565990E+01  0.6020967E+05 -0.2850970E+01  0.9259462E+04  0.1569932E+01
  0.5761905E+00  0.3743667E+05 -0.1564238E+01  0.6688473E+05 -0.2825264E+01  0.9841137E+04  0.1569305E+01
  0.6071429E+00  0.4108377E+05 -0.1562002E+01  0.7367124E+05 -0.2798657E+01  0.1037872E+05  0.1568335E+01
  0.6380953E+00  0.4484877E+05 -0.1559243E+01  0.8065493E+05 -0.2773934E+01  0.1091589E+05  0.1566919E+01
  0.6690477E+00  0.4865023E+05 -0.1555844E+01  0.8778795E+05 -0.2749864E+01  0.1143640E+05  0.1564885E+01
  0.7000000E+00  0.5247495E+05 -0.1551705E+01  0.9500477E+05 -0.2725799E+01  0.1189808E+05  0.1562000E+01
  0.7309524E+00  0.5639276E+05 -0.1546798E+01  0.1023058E+06 -0.2702788E+01  0.1218817E+05  0.1557812E+01
  0.7619048E+00  0.6036893E+05 -0.1541021E+01  0.1096079E+06 -0.2680113E+01  0.1230278E+05  0.1551755E+01
  0.7928572E+00  0.6434056E+05 -0.1534278E+01  0.1168907E+06 -0.2657803E+01  0.1244374E+05  0.1543722E+01
  0.8238096E+00  0.6819455E+05 -0.1526448E+01  0.1241876E+06 -0.2636315E+01  0.1255483E+05  0.1533036E+01
  0.8547620E+00  0.7194055E+05 -0.1517485E+01  0.1314997E+06 -0.2615892E+01  0.1261611E+05  0.1518995E+01
  0.8857143E+00  0.7556670E+05 -0.1507353E+01  0.1387504E+06 -0.2596177E+01  0.1248701E+05  0.1499834E+01
  0.9166667E+00  0.7906897E+05 -0.1496045E+01  0.1458843E+06 -0.2576939E+01  0.1228029E+05  0.1474820E+01
  0.9476191E+00  0.8235195E+05 -0.1483499E+01  0.1528395E+06 -0.2557892E+01  0.1196824E+05  0.1441882E+01
  0.9785714E+00  0.8542757E+05 -0.1469755E+01  0.1596383E+06 -0.2539532E+01  0.1168903E+05  0.1400891E+01
  0.1009524E+01  0.8815345E+05 -0.1454739E+01  0.1662840E+06 -0.2522056E+01  0.1141253E+05  0.1349840E+01
  0.1040476E+01  0.9047599E+05 -0.1438480E+01  0.1727620E+06 -0.2505552E+01  0.1126784E+05  0.1290656E+01
  0.1071429E+01  0.9230544E+05 -0.1420987E+01  0.1790472E+06 -0.2489868E+01  0.1129034E+05  0.1225874E+01
  0.1102381E+01  0.9361441E+05 -0.1402409E+01  0.1851225E+06 -0.2474946E+01  0.1139462E+05  0.1154583E+01
  0.1133333E+01  0.9440625E+05 -0.1382987E+01  0.1909442E+06 -0.2460600E+01  0.1166486E+05  0.1082864E+01
  0.1164286E+01  0.9460291E+05 -0.1362817E+01  0.1965133E+06 -0.2446953E+01  0.1209632E+05  0.1014076E+01
  0.1195238E+01  0.9417136E+05 -0.1342116E+01  0.2017875E+06 -0.2433841E+01  0.1275699E+05  0.9565005E+00
  0.1226190E+01  0.9305802E+05 -0.1321017E+01  0.2067688E+06 -0.2421396E+01  0.1372148E+05  0.9199348E+00
  0.1257143E+01  0.9119548E+05 -0.1299482E+01  0.2114907E+06 -0.2409385E+01  0.1482423E+05  0.8958247E+00
  0.1288095E+01  0.8863363E+05 -0.1278754E+01  0.2157836E+06 -0.2398496E+01  0.1611271E+05  0.8919954E+00
  0.1319048E+01  0.8532109E+05 -0.1258287E+01  0.2198021E+06 -0.2388041E+01  0.1755130E+05  0.9032896E+00
  0.1350000E+01  0.8127235E+05 -0.1238780E+01  0.2234708E+06 -0.2378390E+01  0.1915210E+05  0.9302667E+00
  0.1380952E+01  0.7649571E+05 -0.1220752E+01  0.2267651E+06 -0.2369451E+01  0.2091692E+05  0.9708384E+00
  0.1411905E+01  0.7071911E+05 -0.1205616E+01  0.2275599E+06 -0.2356620E+01  0.2308730E+05  0.1033885E+01
  0.1442857E+01  0.6467495E+05 -0.1191802E+01  0.2300966E+06 -0.2348219E+01  0.2518454E+05  0.1090587E+01
  0.1473810E+01  0.5803148E+05 -0.1181962E+01  0.2322625E+06 -0.2340454E+01  0.2752804E+05  0.1155755E+01
  0.1504762E+01  0.5083157E+05 -0.1178043E+01  0.2340377E+06 -0.2333293E+01  0.3011015E+05  0.1225973E+01
  0.1535714E+01  0.4310909E+05 -0.1182974E+01  0.2354122E+06 -0.2326555E+01  0.3296156E+05  0.1299265E+01
  0.1566667E+01  0.3497652E+05 -0.1203669E+01  0.2363607E+06 -0.2320599E+01  0.3612477E+05  0.1374347E+01
  0.1597619E+01  0.2654131E+05 -0.1255475E+01  0.2368847E+06 -0.2315211E+01  0.3957356E+05  0.1449181E+01
  0.1628572E+01  0.1805653E+05 -0.1382178E+01  0.2369975E+06 -0.2310405E+01  0.4340526E+05  0.1523070E+01
  0.1659524E+01  0.1037233E+05 -0.1759635E+01  0.2366767E+06 -0.2306074E+01  0.4758006E+05  0.1594536E+01
  0.1690476E+01  0.8158824E+04 -0.2809763E+01  0.2359366E+06 -0.2302343E+01  0.5213895E+05  0.1663163E+01
  0.1721429E+01  0.1467912E+05  0.2807841E+01  0.2347719E+06 -0.2299268E+01  0.5704241E+05  0.1728215E+01
  0.1752381E+01  0.2371991E+05  0.2602533E+01  0.2332029E+06 -0.2296556E+01  0.6228281E+05  0.1789700E+01
  0.1783333E+01  0.3334193E+05  0.2520129E+01  0.2311842E+06 -0.2294380E+01  0.6787070E+05  0.1847395E+01
  0.1814286E+01  0.4316629E+05  0.2480564E+01  0.2286883E+06 -0.2292970E+01  0.7375424E+05  0.1901264E+01
  0.1845238E+01  0.5305150E+05  0.2460347E+01  0.2257513E+06 -0.2292185E+01  0.7983855E+05  0.1951785E+01
  0.1876190E+01  0.6287964E+05  0.2450290E+01  0.2224320E+06 -0.2291901E+01  0.8616056E+05  0.1999027E+01
  0.1907143E+01  0.7260329E+05  0.2445537E+01  0.2186675E+06 -0.2292250E+01  0.9270449E+05  0.2043012E+01
  0.1938095E+01  0.8214866E+05  0.2444145E+01  0.2144925E+06 -0.2293093E+01  0.9942421E+05  0.2084038E+01
  0.1969048E+01  0.9149297E+05  0.2444539E+01  0.2098706E+06 -0.2294817E+01  0.1062227E+06  0.2122050E+01
  0.2000000E+01  0.1006049E+06  0.2446067E+01  0.2048001E+06 -0.2297383E+01  0.1130121E+06  0.2157632E+01
