VARIABLES="w (rad/s)"
"abs(F   1   1)" "angle(F   1   1)"
"abs(F   1   2)" "angle(F   1   2)"
"abs(F   1   3)" "angle(F   1   3)"
Zone t="Diffraction force - beta =   0.000 deg",I=    64,F=POINT
  0.5000000E-01  0.2101798E+04 -0.1570802E+01  0.1712042E+06 -0.1154783E-04  0.4014539E+04  0.1570814E+01
  0.8095238E-01  0.3437793E+04 -0.1570786E+01  0.1707808E+06 -0.3104587E-04  0.6567870E+04  0.1570800E+01
  0.1119048E+00  0.4801464E+04 -0.1570790E+01  0.1701584E+06 -0.6157965E-04  0.9171906E+04  0.1570790E+01
  0.1428571E+00  0.6212700E+04 -0.1570791E+01  0.1693377E+06 -0.1054757E-03  0.1185702E+05  0.1570801E+01
  0.1738095E+00  0.7676219E+04 -0.1570783E+01  0.1683201E+06 -0.1661079E-03  0.1464768E+05  0.1570807E+01
  0.2047619E+00  0.9223056E+04 -0.1570791E+01  0.1671042E+06 -0.2485403E-03  0.1758439E+05  0.1570807E+01
  0.2357143E+00  0.1086513E+05 -0.1570783E+01  0.1656918E+06 -0.3600887E-03  0.2070511E+05  0.1570816E+01
  0.2666667E+00  0.1262661E+05 -0.1570778E+01  0.1640882E+06 -0.5094250E-03  0.2404507E+05  0.1570820E+01
  0.2976190E+00  0.1453859E+05 -0.1570758E+01  0.1622880E+06 -0.7120162E-03  0.2765888E+05  0.1570831E+01
  0.3285715E+00  0.1662205E+05 -0.1570737E+01  0.1603073E+06 -0.9824556E-03  0.3159824E+05  0.1570855E+01
  0.3595238E+00  0.1891918E+05 -0.1570711E+01  0.1581382E+06 -0.1345406E-02  0.3592951E+05  0.1570880E+01
  0.3904762E+00  0.2144700E+05 -0.1570668E+01  0.1557999E+06 -0.1826723E-02  0.4067732E+05  0.1570929E+01
  0.4214286E+00  0.2425032E+05 -0.1570603E+01  0.1532981E+06 -0.2443496E-02  0.4592845E+05  0.1570991E+01
  0.4523810E+00  0.2731626E+05 -0.1570508E+01  0.1506385E+06 -0.3244238E-02  0.5168748E+05  0.1571085E+01
  0.4833333E+00  0.3068039E+05 -0.1570379E+01  0.1478526E+06 -0.4201115E-02  0.5796907E+05  0.1571216E+01
  0.5142857E+00  0.3433848E+05 -0.1570195E+01  0.1449135E+06 -0.5373504E-02  0.6476579E+05  0.1571398E+01
  0.5452381E+00  0.3823101E+05 -0.1569954E+01  0.1418985E+06 -0.6740495E-02  0.7199408E+05  0.1571638E+01
  0.5761905E+00  0.4235314E+05 -0.1569635E+01  0.1387556E+06 -0.8301347E-02  0.7964505E+05  0.1571958E+01
  0.6071429E+00  0.4670228E+05 -0.1569222E+01  0.1355164E+06 -0.1011032E-01  0.8765492E+05  0.1572369E+01
  0.6380953E+00  0.5126418E+05 -0.1568704E+01  0.1322111E+06 -0.1211111E-01  0.9601948E+05  0.1572887E+01
  0.6690477E+00  0.5601964E+05 -0.1568057E+01  0.1288051E+06 -0.1435444E-01  0.1046874E+06  0.1573535E+01
  0.7000000E+00  0.6090077E+05 -0.1567255E+01  0.1253389E+06 -0.1686717E-01  0.1135813E+06  0.1574337E+01
  0.7309524E+00  0.6595647E+05 -0.1566283E+01  0.1218420E+06 -0.1962718E-01  0.1228068E+06  0.1575311E+01
  0.7619048E+00  0.7118007E+05 -0.1565107E+01  0.1182769E+06 -0.2266324E-01  0.1321892E+06  0.1576487E+01
  0.7928572E+00  0.7658448E+05 -0.1563698E+01  0.1146378E+06 -0.2599049E-01  0.1418542E+06  0.1577894E+01
  0.8238096E+00  0.8206825E+05 -0.1562027E+01  0.1110536E+06 -0.2960979E-01  0.1515737E+06  0.1579565E+01
  0.8547620E+00  0.8769035E+05 -0.1560063E+01  0.1074333E+06 -0.3353990E-01  0.1615259E+06  0.1581529E+01
  0.8857143E+00  0.9344190E+05 -0.1557770E+01  0.1037815E+06 -0.3778914E-01  0.1716441E+06  0.1583823E+01
  0.9166667E+00  0.9928895E+05 -0.1555111E+01  0.1000893E+06 -0.4237070E-01  0.1819384E+06  0.1586482E+01
  0.9476191E+00  0.1052068E+06 -0.1552058E+01  0.9650266E+05 -0.4725545E-01  0.1921499E+06  0.1589534E+01
  0.9785714E+00  0.1112714E+06 -0.1548566E+01  0.9291881E+05 -0.5250530E-01  0.2025630E+06  0.1593026E+01
  0.1009524E+01  0.1173912E+06 -0.1544599E+01  0.8933734E+05 -0.5811850E-01  0.2129228E+06  0.1596992E+01
  0.1040476E+01  0.1236207E+06 -0.1540118E+01  0.8575941E+05 -0.6412338E-01  0.2234191E+06  0.1601473E+01
  0.1071429E+01  0.1297986E+06 -0.1535085E+01  0.8224476E+05 -0.7045984E-01  0.2337111E+06  0.1606506E+01
  0.1102381E+01  0.1359967E+06 -0.1529463E+01  0.7882835E+05 -0.7714771E-01  0.2439747E+06  0.1612129E+01
  0.1133333E+01  0.1422097E+06 -0.1523220E+01  0.7545413E+05 -0.8425494E-01  0.2542123E+06  0.1618373E+01
  0.1164286E+01  0.1483929E+06 -0.1516344E+01  0.7211367E+05 -0.9181038E-01  0.2642291E+06  0.1625249E+01
  0.1195238E+01  0.1546365E+06 -0.1508826E+01  0.6881370E+05 -0.9985501E-01  0.2741690E+06  0.1632761E+01
  0.1226190E+01  0.1607496E+06 -0.1500629E+01  0.6556788E+05 -0.1083573E+00  0.2837394E+06  0.1640957E+01
  0.1257143E+01  0.1666073E+06 -0.1491759E+01  0.6249040E+05 -0.1170464E+00  0.2926700E+06  0.1649820E+01
  0.1288095E+01  0.1726090E+06 -0.1482127E+01  0.5947226E+05 -0.1261968E+00  0.3017899E+06  0.1659453E+01
  0.1319048E+01  0.1782701E+06 -0.1471824E+01  0.5652385E+05 -0.1358901E+00  0.3101267E+06  0.1669754E+01
  0.1350000E+01  0.1837593E+06 -0.1460826E+01  0.5363766E+05 -0.1461740E+00  0.3180439E+06  0.1680753E+01
  0.1380952E+01  0.1890748E+06 -0.1449145E+01  0.5081521E+05 -0.1571119E+00  0.3256000E+06  0.1692437E+01
  0.1411905E+01  0.1938373E+06 -0.1436794E+01  0.4806359E+05 -0.1687771E+00  0.3323056E+06  0.1704793E+01
  0.1442857E+01  0.1983190E+06 -0.1423946E+01  0.4549350E+05 -0.1800720E+00  0.3381450E+06  0.1717631E+01
  0.1473810E+01  0.2025443E+06 -0.1410631E+01  0.4300398E+05 -0.1921266E+00  0.3434948E+06  0.1730948E+01
  0.1504762E+01  0.2063914E+06 -0.1396973E+01  0.4060093E+05 -0.2047165E+00  0.3480086E+06  0.1744590E+01
  0.1535714E+01  0.2097495E+06 -0.1383039E+01  0.3827220E+05 -0.2180339E+00  0.3514885E+06  0.1758513E+01
  0.1566667E+01  0.2127095E+06 -0.1368886E+01  0.3602598E+05 -0.2321218E+00  0.3542152E+06  0.1772656E+01
  0.1597619E+01  0.2152192E+06 -0.1354603E+01  0.3385798E+05 -0.2471004E+00  0.3561682E+06  0.1786943E+01
  0.1628572E+01  0.2170869E+06 -0.1340367E+01  0.3176421E+05 -0.2631077E+00  0.3569659E+06  0.1801183E+01
  0.1659524E+01  0.2183264E+06 -0.1326373E+01  0.2982520E+05 -0.2779507E+00  0.3565223E+06  0.1815124E+01
  0.1690476E+01  0.2191040E+06 -0.1312651E+01  0.2797739E+05 -0.2936219E+00  0.3553704E+06  0.1828843E+01
  0.1721429E+01  0.2194339E+06 -0.1299392E+01  0.2621597E+05 -0.3098773E+00  0.3534886E+06  0.1842113E+01
  0.1752381E+01  0.2191344E+06 -0.1286896E+01  0.2452941E+05 -0.3269648E+00  0.3503848E+06  0.1854560E+01
  0.1783333E+01  0.2183655E+06 -0.1275118E+01  0.2291415E+05 -0.3450583E+00  0.3465079E+06  0.1866322E+01
  0.1814286E+01  0.2171549E+06 -0.1264155E+01  0.2138463E+05 -0.3639270E+00  0.3419524E+06  0.1877252E+01
  0.1845238E+01  0.2155024E+06 -0.1254085E+01  0.1992803E+05 -0.3839370E+00  0.3367748E+06  0.1887348E+01
  0.1876190E+01  0.2133088E+06 -0.1245188E+01  0.1854062E+05 -0.4053581E+00  0.3307160E+06  0.1896246E+01
  0.1907143E+01  0.2106996E+06 -0.1237664E+01  0.1724615E+05 -0.4253205E+00  0.3239060E+06  0.1903638E+01
  0.1938095E+01  0.2077596E+06 -0.1231397E+01  0.1603280E+05 -0.4455476E+00  0.3166466E+06  0.1909807E+01
  0.1969048E+01  0.2045608E+06 -0.1226284E+01  0.1489641E+05 -0.4660253E+00  0.3091720E+06  0.1914967E+01
  0.2000000E+01  0.2011002E+06 -0.1222571E+01  0.1382245E+05 -0.4874007E+00  0.3013455E+06  0.1918708E+01
