VARIABLES="w (rad/s)"
"abs(F   1   1)" "angle(F   1   1)"
"abs(F   1   2)" "angle(F   1   2)"
"abs(F   1   3)" "angle(F   1   3)"
Zone t="Diffraction force - beta =   0.000 deg",I=    64,F=POINT
  0.5000000E-01  0.9365373E+03 -0.1570795E+01  0.2680717E+03 -0.3103330E+01  0.5848334E+03  0.1570797E+01
  0.8095238E-01  0.1527435E+04 -0.1570793E+01  0.6959483E+03 -0.3102025E+01  0.9515095E+03  0.1570798E+01
  0.1119048E+00  0.2140916E+04 -0.1570790E+01  0.1323109E+04 -0.3100390E+01  0.1338365E+04  0.1570799E+01
  0.1428571E+00  0.2770446E+04 -0.1570785E+01  0.2150379E+04 -0.3098303E+01  0.1731898E+04  0.1570802E+01
  0.1738095E+00  0.3436342E+04 -0.1570778E+01  0.3181832E+04 -0.3095670E+01  0.2151773E+04  0.1570805E+01
  0.2047619E+00  0.4137420E+04 -0.1570768E+01  0.4414619E+04 -0.3092284E+01  0.2596630E+04  0.1570810E+01
  0.2357143E+00  0.4880079E+04 -0.1570753E+01  0.5857922E+04 -0.3088031E+01  0.3066884E+04  0.1570817E+01
  0.2666667E+00  0.5710354E+04 -0.1570731E+01  0.7514867E+04 -0.3082852E+01  0.3596282E+04  0.1570829E+01
  0.2976190E+00  0.6586120E+04 -0.1570699E+01  0.9383111E+04 -0.3076289E+01  0.4153285E+04  0.1570845E+01
  0.3285715E+00  0.7546072E+04 -0.1570649E+01  0.1147285E+05 -0.3068437E+01  0.4779136E+04  0.1570869E+01
  0.3595238E+00  0.8664110E+04 -0.1570576E+01  0.1377375E+05 -0.3058858E+01  0.5490550E+04  0.1570906E+01
  0.3904762E+00  0.9871274E+04 -0.1570466E+01  0.1628945E+05 -0.3047467E+01  0.6279561E+04  0.1570962E+01
  0.4214286E+00  0.1119379E+05 -0.1570303E+01  0.1899666E+05 -0.3034737E+01  0.7133633E+04  0.1571044E+01
  0.4523810E+00  0.1271783E+05 -0.1570064E+01  0.2187253E+05 -0.3019819E+01  0.8143024E+04  0.1571166E+01
  0.4833333E+00  0.1438393E+05 -0.1569730E+01  0.2494011E+05 -0.3004982E+01  0.9231142E+04  0.1571337E+01
  0.5142857E+00  0.1623013E+05 -0.1569265E+01  0.2807720E+05 -0.2988422E+01  0.1043870E+05  0.1571578E+01
  0.5452381E+00  0.1813729E+05 -0.1568634E+01  0.3137838E+05 -0.2972141E+01  0.1171160E+05  0.1571905E+01
  0.5761905E+00  0.2027516E+05 -0.1567814E+01  0.3477862E+05 -0.2956109E+01  0.1313350E+05  0.1572336E+01
  0.6071429E+00  0.2261576E+05 -0.1566751E+01  0.3822374E+05 -0.2939340E+01  0.1470375E+05  0.1572900E+01
  0.6380953E+00  0.2502007E+05 -0.1565405E+01  0.4181607E+05 -0.2923973E+01  0.1630843E+05  0.1573618E+01
  0.6690477E+00  0.2753881E+05 -0.1563714E+01  0.4542673E+05 -0.2908447E+01  0.1798993E+05  0.1574526E+01
  0.7000000E+00  0.3021404E+05 -0.1561619E+01  0.4904786E+05 -0.2892602E+01  0.1983754E+05  0.1575660E+01
  0.7309524E+00  0.3312890E+05 -0.1559083E+01  0.5277378E+05 -0.2877799E+01  0.2182768E+05  0.1577053E+01
  0.7619048E+00  0.3617636E+05 -0.1556011E+01  0.5651862E+05 -0.2863270E+01  0.2389301E+05  0.1578759E+01
  0.7928572E+00  0.3941166E+05 -0.1552338E+01  0.6018450E+05 -0.2848392E+01  0.2608555E+05  0.1580825E+01
  0.8238096E+00  0.4271168E+05 -0.1547946E+01  0.6387765E+05 -0.2834073E+01  0.2838521E+05  0.1583308E+01
  0.8547620E+00  0.4606745E+05 -0.1542740E+01  0.6760530E+05 -0.2820576E+01  0.3070113E+05  0.1586271E+01
  0.8857143E+00  0.4965061E+05 -0.1536682E+01  0.7122823E+05 -0.2806942E+01  0.3318961E+05  0.1589760E+01
  0.9166667E+00  0.5365968E+05 -0.1529768E+01  0.7478782E+05 -0.2793536E+01  0.3596966E+05  0.1593824E+01
  0.9476191E+00  0.5772170E+05 -0.1521755E+01  0.7830660E+05 -0.2780683E+01  0.3883676E+05  0.1598574E+01
  0.9785714E+00  0.6186964E+05 -0.1512543E+01  0.8178362E+05 -0.2768571E+01  0.4171574E+05  0.1604091E+01
  0.1009524E+01  0.6615622E+05 -0.1502056E+01  0.8517748E+05 -0.2756892E+01  0.4472949E+05  0.1610439E+01
  0.1040476E+01  0.7062570E+05 -0.1490238E+01  0.8836638E+05 -0.2744762E+01  0.4780508E+05  0.1617689E+01
  0.1071429E+01  0.7519141E+05 -0.1476933E+01  0.9149799E+05 -0.2733301E+01  0.5111754E+05  0.1625888E+01
  0.1102381E+01  0.7982879E+05 -0.1462049E+01  0.9454456E+05 -0.2722479E+01  0.5448619E+05  0.1635124E+01
  0.1133333E+01  0.8469140E+05 -0.1445614E+01  0.9750759E+05 -0.2712417E+01  0.5797271E+05  0.1645437E+01
  0.1164286E+01  0.8976767E+05 -0.1427581E+01  0.1003462E+06 -0.2702770E+01  0.6165522E+05  0.1656907E+01
  0.1195238E+01  0.9495536E+05 -0.1407834E+01  0.1029409E+06 -0.2692563E+01  0.6532245E+05  0.1669643E+01
  0.1226190E+01  0.1001722E+06 -0.1386233E+01  0.1054271E+06 -0.2682878E+01  0.6918198E+05  0.1683669E+01
  0.1257143E+01  0.1050666E+06 -0.1362429E+01  0.1078322E+06 -0.2673542E+01  0.7288782E+05  0.1699096E+01
  0.1288095E+01  0.1101776E+06 -0.1337054E+01  0.1100558E+06 -0.2665284E+01  0.7672291E+05  0.1715732E+01
  0.1319048E+01  0.1148988E+06 -0.1309446E+01  0.1121957E+06 -0.2657518E+01  0.8037820E+05  0.1733798E+01
  0.1350000E+01  0.1194531E+06 -0.1280038E+01  0.1141445E+06 -0.2649635E+01  0.8394766E+05  0.1753044E+01
  0.1380952E+01  0.1239252E+06 -0.1249175E+01  0.1158532E+06 -0.2641343E+01  0.8740696E+05  0.1773316E+01
  0.1411905E+01  0.1279112E+06 -0.1216131E+01  0.1174151E+06 -0.2633410E+01  0.9079703E+05  0.1794745E+01
  0.1442857E+01  0.1319034E+06 -0.1182302E+01  0.1188793E+06 -0.2625897E+01  0.9419133E+05  0.1816724E+01
  0.1473810E+01  0.1354201E+06 -0.1146988E+01  0.1201950E+06 -0.2618896E+01  0.9731506E+05  0.1839665E+01
  0.1504762E+01  0.1383745E+06 -0.1110276E+01  0.1213729E+06 -0.2612423E+01  0.1000769E+06  0.1863313E+01
  0.1535714E+01  0.1407296E+06 -0.1072408E+01  0.1224191E+06 -0.2606390E+01  0.1025692E+06  0.1887305E+01
  0.1566667E+01  0.1425556E+06 -0.1034097E+01  0.1231831E+06 -0.2599230E+01  0.1046045E+06  0.1911299E+01
  0.1597619E+01  0.1438024E+06 -0.9955065E+00  0.1237548E+06 -0.2591821E+01  0.1062392E+06  0.1934989E+01
  0.1628572E+01  0.1444890E+06 -0.9568691E+00  0.1241899E+06 -0.2584649E+01  0.1077329E+06  0.1958146E+01
  0.1659524E+01  0.1444394E+06 -0.9181948E+00  0.1244747E+06 -0.2577725E+01  0.1088001E+06  0.1980362E+01
  0.1690476E+01  0.1436431E+06 -0.8795404E+00  0.1245922E+06 -0.2571010E+01  0.1093906E+06  0.2001762E+01
  0.1721429E+01  0.1421100E+06 -0.8411156E+00  0.1245311E+06 -0.2564435E+01  0.1094797E+06  0.2022095E+01
  0.1752381E+01  0.1398903E+06 -0.8031470E+00  0.1242830E+06 -0.2558157E+01  0.1091798E+06  0.2040856E+01
  0.1783333E+01  0.1370402E+06 -0.7659230E+00  0.1238454E+06 -0.2551725E+01  0.1085363E+06  0.2058021E+01
  0.1814286E+01  0.1336873E+06 -0.7304167E+00  0.1230916E+06 -0.2543801E+01  0.1073425E+06  0.2072490E+01
  0.1845238E+01  0.1298323E+06 -0.6962677E+00  0.1221068E+06 -0.2535897E+01  0.1057900E+06  0.2084636E+01
  0.1876190E+01  0.1255497E+06 -0.6634943E+00  0.1209314E+06 -0.2528169E+01  0.1041677E+06  0.2094572E+01
  0.1907143E+01  0.1206986E+06 -0.6314881E+00  0.1195570E+06 -0.2520623E+01  0.1022435E+06  0.2102330E+01
  0.1938095E+01  0.1153638E+06 -0.6005554E+00  0.1179437E+06 -0.2513488E+01  0.9998254E+05  0.2107388E+01
  0.1969048E+01  0.1096399E+06 -0.5709252E+00  0.1161181E+06 -0.2507158E+01  0.9744980E+05  0.2109214E+01
  0.2000000E+01  0.1035953E+06 -0.5424803E+00  0.1140751E+06 -0.2501630E+01  0.9470582E+05  0.2107866E+01
