VARIABLES="w (rad/s)"
"A   1   1" "B   1   1"
"A   1   2" "B   1   2"
"A   1   3" "B   1   3"
Zone t="Motion of body    1 in DoF   1",I=    64,F=POINT
  0.5000000E-01  0.5777147E+05  0.5403799E-02 -0.1008987E-01 -0.4364996E-04  0.1009088E+05  0.6782956E-02
  0.8095238E-01  0.5774502E+05  0.2367565E-01  0.1008426E-01  0.4169327E-04  0.9909964E+04  0.2962319E-01
  0.1119048E+00  0.5759367E+05  0.6637230E-01  0.8181308E-02  0.6962538E-04  0.9889834E+04  0.8308177E-01
  0.1428571E+00  0.5778046E+05  0.1497740E+00  0.3765106E-02  0.7884833E-04  0.1012045E+05  0.1869624E+00
  0.1738095E+00  0.5792164E+05  0.2988501E+00 -0.3072660E-02 -0.4076865E-05  0.9887975E+04  0.3717383E+00
  0.2047619E+00  0.5813638E+05  0.5530896E+00  0.1337628E-01  0.2503926E-03  0.9945402E+04  0.6847907E+00
  0.2357143E+00  0.5816907E+05  0.9760824E+00 -0.3592751E-02 -0.7674750E-04  0.1026968E+05  0.1206279E+01
  0.2666667E+00  0.5846786E+05  0.1671988E+01 -0.7696151E-02 -0.2093948E-03  0.1005150E+05  0.2053550E+01
  0.2976190E+00  0.5870977E+05  0.2815267E+01  0.1794434E-03  0.1137108E-03  0.1045338E+05  0.3443040E+01
  0.3285715E+00  0.5887980E+05  0.4676721E+01 -0.1116877E-01 -0.4739016E-03  0.1049863E+05  0.5686351E+01
  0.3595238E+00  0.5923742E+05  0.7717507E+01  0.4138062E-02  0.4312694E-03  0.1067327E+05  0.9321288E+01
  0.3904762E+00  0.5968829E+05  0.1265709E+02 -0.1066813E-01 -0.6856024E-03  0.1067382E+05  0.1515614E+02
  0.4214286E+00  0.5995435E+05  0.2046200E+02  0.4163838E-02  0.3775656E-03  0.1123207E+05  0.2437292E+02
  0.4523810E+00  0.6009905E+05  0.3277692E+02 -0.7589239E-02 -0.5768836E-03  0.1146748E+05  0.3879050E+02
  0.4833333E+00  0.6084932E+05  0.5139975E+02  0.3377980E-02  0.3564358E-04  0.1144847E+05  0.6011905E+02
  0.5142857E+00  0.6136302E+05  0.7916333E+02  0.7862516E-02  0.1061320E-02  0.1197964E+05  0.9185075E+02
  0.5452381E+00  0.6176063E+05  0.1189926E+03  0.4841500E-02  0.1244187E-02  0.1216710E+05  0.1367118E+03
  0.5761905E+00  0.6206217E+05  0.1745878E+03  0.2118576E-03  0.7152557E-03  0.1279762E+05  0.1991170E+03
  0.6071429E+00  0.6301818E+05  0.2523028E+03 -0.2513212E-02 -0.4253387E-03  0.1280068E+05  0.2836549E+03
  0.6380953E+00  0.6378029E+05  0.3562146E+03 -0.1056956E-01 -0.3792763E-02  0.1305174E+05  0.3953650E+03
  0.6690477E+00  0.6442120E+05  0.4939664E+03  0.2349093E-02  0.1304150E-02  0.1387849E+05  0.5430175E+03
  0.7000000E+00  0.6503186E+05  0.6746677E+03  0.9591238E-03  0.1195908E-02  0.1433214E+05  0.7328701E+03
  0.7309524E+00  0.6571533E+05  0.9074519E+03 -0.1778568E-01 -0.9249687E-02  0.1458081E+05  0.9722867E+03
  0.7619048E+00  0.6694572E+05  0.1207333E+04  0.6568908E-02  0.5683899E-02  0.1501990E+05  0.1273798E+04
  0.7928572E+00  0.6799185E+05  0.1585388E+04  0.1836003E-01  0.8792877E-02  0.1561044E+05  0.1648311E+04
  0.8238096E+00  0.6905250E+05  0.2057957E+04 -0.1000200E-02 -0.1396179E-02  0.1601615E+05  0.2104194E+04
  0.8547620E+00  0.6999267E+05  0.2640811E+04 -0.1324582E-01 -0.7526398E-02  0.1661177E+05  0.2659284E+04
  0.8857143E+00  0.7096747E+05  0.3354554E+04 -0.4823746E-03  0.4459381E-02  0.1742214E+05  0.3330060E+04
  0.9166667E+00  0.7193598E+05  0.4219793E+04  0.4660866E-03  0.4367828E-02  0.1800212E+05  0.4123617E+04
  0.9476191E+00  0.7341989E+05  0.5270470E+04  0.1072409E-01  0.6759644E-02  0.1800411E+05  0.5040622E+04
  0.9785714E+00  0.7480052E+05  0.6522614E+04 -0.9574055E-02 -0.7667542E-02  0.1832714E+05  0.6110686E+04
  0.1009524E+01  0.7603920E+05  0.7999912E+04  0.2025388E-02  0.9422302E-02  0.1891238E+05  0.7358071E+04
  0.1040476E+01  0.7718601E+05  0.9729817E+04 -0.4663533E-02 -0.1617432E-02  0.1949537E+05  0.8780354E+04
  0.1071429E+01  0.7824931E+05  0.1174192E+05 -0.4215495E-02  0.1388550E-02  0.1970931E+05  0.1036951E+05
  0.1102381E+01  0.7924355E+05  0.1405993E+05  0.7363766E-02  0.1190186E-01  0.1964672E+05  0.1212469E+05
  0.1133333E+01  0.8006300E+05  0.1669198E+05 -0.5870146E-02 -0.4013062E-02  0.1967863E+05  0.1408496E+05
  0.1164286E+01  0.8088998E+05  0.1966093E+05 -0.4036558E-02 -0.1516724E-01  0.1963451E+05  0.1624692E+05
  0.1195238E+01  0.8181944E+05  0.2299021E+05  0.5106527E-02  0.1065063E-01  0.1933531E+05  0.1856676E+05
  0.1226190E+01  0.8249649E+05  0.2668282E+05 -0.4629191E-02 -0.8544922E-02  0.1878975E+05  0.2098250E+05
  0.1257143E+01  0.8287269E+05  0.3074061E+05 -0.1087535E-01 -0.2294922E-01  0.1791283E+05  0.2349207E+05
  0.1288095E+01  0.8308419E+05  0.3512746E+05 -0.8386975E-02 -0.1724243E-01  0.1683010E+05  0.2602381E+05
  0.1319048E+01  0.8291479E+05  0.3980107E+05  0.9254427E-04  0.2838135E-01  0.1592887E+05  0.2870655E+05
  0.1350000E+01  0.8257616E+05  0.4474469E+05  0.1944083E-02 -0.8087158E-02  0.1480972E+05  0.3143874E+05
  0.1380952E+01  0.8200630E+05  0.4991352E+05 -0.1900509E-02  0.3723145E-02  0.1350609E+05  0.3411332E+05
  0.1411905E+01  0.8079603E+05  0.5531229E+05  0.6441113E-02  0.2606201E-01  0.1205023E+05  0.3670132E+05
  0.1442857E+01  0.7961599E+05  0.6083575E+05 -0.4906985E-02 -0.8178711E-02  0.1011855E+05  0.3895751E+05
  0.1473810E+01  0.7813940E+05  0.6642362E+05 -0.8075572E-02 -0.8544922E-02  0.7984568E+04  0.4091611E+05
  0.1504762E+01  0.7639423E+05  0.7197291E+05  0.2474242E-02 -0.1367188E-01  0.5923118E+04  0.4273337E+05
  0.1535714E+01  0.7442320E+05  0.7740610E+05 -0.1450649E-02 -0.4882812E-03  0.3984604E+04  0.4446534E+05
  0.1566667E+01  0.7220124E+05  0.8272276E+05 -0.2727103E-03 -0.4943848E-02  0.2042655E+04  0.4583671E+05
  0.1597619E+01  0.6972191E+05  0.8783234E+05 -0.3782179E-02 -0.4516602E-02  0.9876177E+02  0.4687259E+05
  0.1628572E+01  0.6710372E+05  0.9275234E+05 -0.8863482E-02 -0.1007080E-01 -0.2011722E+04  0.4742184E+05
  0.1659524E+01  0.6443299E+05  0.9743539E+05  0.3843376E-02 -0.6103516E-02 -0.4233559E+04  0.4747667E+05
  0.1690476E+01  0.6165942E+05  0.1018280E+06 -0.7527955E-02  0.1733398E-01 -0.6409770E+04  0.4708581E+05
  0.1721429E+01  0.5876952E+05  0.1058787E+06 -0.2801033E-02  0.4760742E-02 -0.8409909E+04  0.4627852E+05
  0.1752381E+01  0.5583218E+05  0.1095017E+06  0.2612238E-03 -0.2105713E-01 -0.1005417E+05  0.4558496E+05
  0.1783333E+01  0.5291875E+05  0.1127702E+06  0.6665382E-02  0.6103516E-03 -0.1155950E+05  0.4469988E+05
  0.1814286E+01  0.5004177E+05  0.1156999E+06 -0.1841868E-01  0.2221680E-01 -0.1295891E+05  0.4358775E+05
  0.1845238E+01  0.4712257E+05  0.1182378E+06 -0.2770209E-02 -0.8239746E-02 -0.1418954E+05  0.4209373E+05
  0.1876190E+01  0.4424782E+05  0.1204956E+06 -0.6220619E-02  0.2374268E-01 -0.1537727E+05  0.4010948E+05
  0.1907143E+01  0.4146180E+05  0.1224702E+06 -0.7681329E-02  0.1892090E-01 -0.1653211E+05  0.3777068E+05
  0.1938095E+01  0.3874723E+05  0.1240829E+06  0.2680785E-02 -0.3344727E-01 -0.1752753E+05  0.3514105E+05
  0.1969048E+01  0.3609201E+05  0.1252931E+06  0.1112028E-02 -0.1519775E-01 -0.1830111E+05  0.3220482E+05
  0.2000000E+01  0.3351325E+05  0.1261052E+06 -0.7099152E-02  0.2166748E-01 -0.1882599E+05  0.2959290E+05
Zone t="Motion of body    1 in DoF   2",I=    64,F=POINT
  0.5000000E-01  0.7629395E-03 -0.3004074E-04  0.2771306E+06  0.6752225E+03 -0.4882812E-02 -0.1525879E-04
  0.8095238E-01 -0.3675573E-02  0.5149841E-04  0.2737402E+06  0.1118982E+04 -0.6408691E-02 -0.7629395E-05
  0.1119048E+00  0.2999813E-02  0.1716614E-04  0.2722168E+06  0.1601233E+04 -0.1254467E-01  0.4577637E-04
  0.1428571E+00  0.5981445E-02 -0.2288818E-04  0.2712152E+06  0.2138971E+04 -0.9399414E-02 -0.1068115E-03
  0.1738095E+00 -0.1755806E-03 -0.3814697E-05  0.2708221E+06  0.2755505E+04  0.3862773E-02 -0.0000000E+00
  0.2047619E+00 -0.5588975E-02 -0.2288818E-04  0.2710103E+06  0.3477879E+04  0.1251930E-01 -0.3051758E-04
  0.2357143E+00  0.6602894E-02  0.1640320E-03  0.2713398E+06  0.4345047E+04 -0.5696614E-02 -0.1525879E-04
  0.2666667E+00 -0.3890991E-02  0.2098083E-03  0.2721105E+06  0.5389390E+04 -0.2288818E-02  0.2288818E-03
  0.2976190E+00 -0.7177735E-03 -0.2975464E-03  0.2729132E+06  0.6682246E+04 -0.1640625E-02 -0.6103516E-04
  0.3285715E+00  0.3622303E-02  0.1525879E-04  0.2740678E+06  0.8260555E+04 -0.9287957E-02  0.5493164E-03
  0.3595238E+00 -0.3819750E-02  0.6637573E-03  0.2747868E+06  0.1020820E+05 -0.1561853E-01  0.1220703E-03
  0.3904762E+00  0.3516964E-02  0.3585815E-03  0.2757985E+06  0.1258799E+05 -0.1688143E-01  0.9155273E-04
  0.4214286E+00  0.2462096E-02  0.6103516E-04  0.2758113E+06  0.1535898E+05  0.4055217E-02 -0.6103516E-04
  0.4523810E+00  0.1349198E-03 -0.9155273E-04  0.2756794E+06  0.1866130E+05 -0.1834909E-01  0.1281738E-02
  0.4833333E+00  0.3914669E-02 -0.4730225E-03  0.2746526E+06  0.2220762E+05 -0.5556304E-02  0.6103516E-03
  0.5142857E+00  0.1186795E-03 -0.5187988E-03  0.2729717E+06  0.2615981E+05  0.7120769E-02  0.1098633E-02
  0.5452381E+00 -0.1119422E-02  0.8544922E-03  0.2709639E+06  0.3028465E+05 -0.3089605E-01 -0.3662109E-02
  0.5761905E+00 -0.1059288E-02 -0.4882812E-03  0.2680934E+06  0.3451354E+05 -0.9321732E-02 -0.1098633E-02
  0.6071429E+00  0.7439108E-02  0.5798340E-03  0.2648702E+06  0.3893574E+05  0.1206342E-02 -0.2075195E-02
  0.6380953E+00 -0.7460864E-02 -0.7324219E-03  0.2615873E+06  0.4325782E+05 -0.7269560E-02 -0.2563477E-02
  0.6690477E+00 -0.4196438E-02  0.1098633E-02  0.2578114E+06  0.4760861E+05 -0.3430132E-01 -0.5737305E-02
  0.7000000E+00 -0.1743862E-03 -0.1037598E-02  0.2538621E+06  0.5199341E+05  0.2615792E-01 -0.3295898E-02
  0.7309524E+00 -0.2839029E-02 -0.1647949E-02  0.2498971E+06  0.5624782E+05 -0.1803618E-01  0.4882812E-02
  0.7619048E+00 -0.3524780E-02 -0.1037598E-02  0.2455838E+06  0.6043162E+05  0.9292602E-02  0.2441406E-03
  0.7928572E+00 -0.8160015E-02  0.2380371E-02  0.2412074E+06  0.6450555E+05 -0.8313977E-02  0.9765625E-03
  0.8238096E+00 -0.5927113E-03  0.2441406E-03  0.2369471E+06  0.6841815E+05  0.1244694E-01  0.2685547E-02
  0.8547620E+00  0.8068881E-02  0.3417969E-02  0.2325751E+06  0.7216405E+05 -0.8854347E-02 -0.5126953E-02
  0.8857143E+00  0.6546513E-02  0.2868652E-02  0.2280367E+06  0.7572782E+05 -0.1075006E-01 -0.2441406E-03
  0.9166667E+00 -0.1265092E-02 -0.2990723E-02  0.2236966E+06  0.7905453E+05 -0.5859375E-02 -0.0000000E+00
  0.9476191E+00  0.3800128E-02 -0.1098633E-02  0.2194334E+06  0.8215756E+05  0.1520051E-01  0.2441406E-03
  0.9785714E+00  0.5675824E-02  0.4028320E-02  0.2151538E+06  0.8502053E+05  0.3492815E-02 -0.1196289E-01
  0.1009524E+01 -0.4292614E-02 -0.2685547E-02  0.2108684E+06  0.8764570E+05 -0.8947984E-02  0.9765625E-03
  0.1040476E+01  0.2463753E-02 -0.9765625E-03  0.2067168E+06  0.8998250E+05  0.6570009E-02 -0.8544922E-02
  0.1071429E+01 -0.7861328E-02 -0.4760742E-02  0.2027628E+06  0.9205484E+05 -0.1321615E-01  0.3417969E-02
  0.1102381E+01  0.6034966E-02 -0.1220703E-02  0.1990157E+06  0.9384070E+05 -0.8637199E-02 -0.7812500E-02
  0.1133333E+01  0.4631491E-02 -0.5859375E-02  0.1952624E+06  0.9539177E+05 -0.6462546E-03 -0.7812500E-02
  0.1164286E+01 -0.3459907E-02 -0.7934570E-02  0.1915926E+06  0.9670148E+05 -0.1782376E-01 -0.1440430E-01
  0.1195238E+01  0.5412919E-02 -0.8422852E-02  0.1881056E+06  0.9771116E+05  0.6536354E-02  0.4150391E-02
  0.1226190E+01 -0.6719793E-02 -0.1220703E-02  0.1848403E+06  0.9846377E+05 -0.2648096E-01 -0.9521484E-02
  0.1257143E+01  0.2427534E-04  0.6103516E-03  0.1819079E+06  0.9905798E+05  0.1650723E-01  0.2685547E-02
  0.1288095E+01  0.3387959E-02 -0.4882812E-03  0.1790194E+06  0.9918908E+05  0.3980259E-02 -0.1318359E-01
  0.1319048E+01 -0.4627214E-03 -0.2441406E-03  0.1761527E+06  0.9924200E+05  0.1221584E-01 -0.6347656E-02
  0.1350000E+01 -0.7007740E-02 -0.3295898E-02  0.1734529E+06  0.9906105E+05 -0.1265914E-02  0.2050781E-01
  0.1380952E+01 -0.8176606E-03 -0.5004883E-02  0.1709435E+06  0.9860192E+05 -0.1644161E-01 -0.9521484E-02
  0.1411905E+01 -0.9305030E-02 -0.2197266E-02  0.1685285E+06  0.9772442E+05 -0.1089369E-01 -0.2441406E-02
  0.1442857E+01  0.1861270E-02  0.2319336E-02  0.1664792E+06  0.9694641E+05  0.1928953E-01  0.1586914E-01
  0.1473810E+01  0.4203439E-02  0.8911133E-02  0.1646352E+06  0.9594275E+05  0.1258961E-01 -0.4882812E-03
  0.1504762E+01  0.2253689E-02  0.4394531E-02  0.1628223E+06  0.9479293E+05  0.5029606E-02 -0.4882812E-02
  0.1535714E+01 -0.3347796E-02 -0.1074219E-01  0.1610660E+06  0.9350488E+05 -0.6994912E-02 -0.3662109E-01
  0.1566667E+01  0.1933321E-02  0.6225586E-02  0.1594733E+06  0.9198105E+05 -0.9350066E-03  0.1757812E-01
  0.1597619E+01  0.3782179E-02  0.2075195E-02  0.1580526E+06  0.9028848E+05  0.7182319E-02 -0.3125000E-01
  0.1628572E+01 -0.5453009E-02 -0.9765625E-03  0.1568254E+06  0.8853934E+05  0.2998218E-03 -0.3662109E-02
  0.1659524E+01  0.8275211E-04 -0.6103516E-02  0.1557680E+06  0.8672538E+05 -0.4854790E-02  0.5859375E-02
  0.1690476E+01 -0.2834266E-02  0.1123047E-01  0.1548732E+06  0.8480705E+05 -0.2888424E-02 -0.4638672E-02
  0.1721429E+01 -0.7197590E-02 -0.1708984E-02  0.1540830E+06  0.8275811E+05 -0.1290602E-01 -0.1782227E-01
  0.1752381E+01  0.2333600E-02  0.6713867E-02  0.1532529E+06  0.8058742E+05 -0.3900943E-02 -0.9765625E-03
  0.1783333E+01 -0.2395772E-03 -0.2929688E-02  0.1525465E+06  0.7833184E+05 -0.2738026E-03 -0.5126953E-02
  0.1814286E+01  0.5214421E-03 -0.3051758E-02  0.1519499E+06  0.7599614E+05 -0.1291831E-01 -0.2661133E-01
  0.1845238E+01  0.4167717E-02 -0.5859375E-02  0.1514889E+06  0.7356273E+05 -0.1283392E-01  0.2807617E-01
  0.1876190E+01 -0.2049480E-02  0.4394531E-02  0.1511909E+06  0.7113971E+05 -0.1600546E-01 -0.3173828E-02
  0.1907143E+01 -0.1792193E-02 -0.9765625E-02  0.1509758E+06  0.6883554E+05 -0.1241734E-01 -0.3295898E-01
  0.1938095E+01  0.2739834E-02  0.1074219E-01  0.1508391E+06  0.6651784E+05 -0.6298468E-03 -0.4638672E-02
  0.1969048E+01 -0.2262803E-02 -0.7202148E-02  0.1508131E+06  0.6410809E+05  0.4587600E-02 -0.1220703E-01
  0.2000000E+01  0.5401611E-02  0.8300781E-02  0.1508051E+06  0.6168400E+05 -0.7812500E-02  0.7324219E-02
Zone t="Motion of body    1 in DoF   3",I=    64,F=POINT
  0.5000000E-01  0.1013086E+05  0.6859454E-02  0.3509521E-02  0.2371785E-04  0.3714477E+06  0.8554173E-02
  0.8095238E-01  0.1022464E+05  0.3007787E-01 -0.6974164E-02 -0.1818809E-04  0.3729473E+06  0.3756959E-01
  0.1119048E+00  0.1067133E+05  0.8439242E-01 -0.1895336E-01 -0.8319819E-04  0.3748674E+06  0.1055981E+00
  0.1428571E+00  0.1088515E+05  0.1899446E+00 -0.1837158E-01 -0.2204652E-03  0.3748218E+06  0.2377184E+00
  0.1738095E+00  0.1066325E+05  0.3780225E+00  0.3599402E-01  0.5155620E-03  0.3755262E+06  0.4696140E+00
  0.2047619E+00  0.1070599E+05  0.6970479E+00 -0.4113486E-01 -0.6865924E-03  0.3760378E+06  0.8638197E+00
  0.2357143E+00  0.1106366E+05  0.1225843E+01  0.2019709E-01  0.4702341E-03  0.3751124E+06  0.1513832E+01
  0.2666667E+00  0.1085076E+05  0.2091598E+01 -0.1018524E-01 -0.4526451E-03  0.3762803E+06  0.2564516E+01
  0.2976190E+00  0.1112821E+05  0.3503930E+01  0.3793945E-02 -0.1613535E-03  0.3752168E+06  0.4282865E+01
  0.3285715E+00  0.1138322E+05  0.5788016E+01 -0.5944293E-02 -0.2637506E-05  0.3763756E+06  0.7033122E+01
  0.3595238E+00  0.1141258E+05  0.9495821E+01 -0.3021846E-01 -0.1188546E-02  0.3755210E+06  0.1146718E+02
  0.3904762E+00  0.1140556E+05  0.1547290E+02 -0.1641250E-01 -0.5772412E-03  0.3766912E+06  0.1853695E+02
  0.4214286E+00  0.1193100E+05  0.2483523E+02 -0.1665535E-01 -0.1485944E-02  0.3756080E+06  0.2959223E+02
  0.4523810E+00  0.1240987E+05  0.3947908E+02  0.3521407E-01  0.2828300E-02  0.3761693E+06  0.4672697E+02
  0.4833333E+00  0.1218694E+05  0.6140095E+02 -0.3447434E-01 -0.3222227E-02  0.3765921E+06  0.7180723E+02
  0.5142857E+00  0.1262182E+05  0.9374596E+02  0.2788968E-01  0.2227902E-02  0.3759702E+06  0.1087716E+03
  0.5452381E+00  0.1307627E+05  0.1395673E+03 -0.4735155E-01 -0.4788637E-02  0.3775543E+06  0.1603514E+03
  0.5761905E+00  0.1374553E+05  0.2027524E+03 -0.1027509E-01 -0.8792877E-03  0.3763484E+06  0.2312462E+03
  0.6071429E+00  0.1363468E+05  0.2900559E+03  0.1507927E-01  0.3728867E-02  0.3772963E+06  0.3260771E+03
  0.6380953E+00  0.1391252E+05  0.4050653E+03 -0.1186086E-01  0.1524448E-02  0.3782949E+06  0.4495400E+03
  0.6690477E+00  0.1467238E+05  0.5552031E+03 -0.2682071E-01 -0.5285263E-02  0.3771320E+06  0.6106013E+03
  0.7000000E+00  0.1535303E+05  0.7489306E+03  0.7498604E-02  0.4045486E-02  0.3779292E+06  0.8141447E+03
  0.7309524E+00  0.1586913E+05  0.9944584E+03  0.9686099E-02  0.3376961E-02  0.3793792E+06  0.1065552E+04
  0.7619048E+00  0.1603784E+05  0.1306947E+04  0.3204345E-02 -0.1361847E-02  0.3788118E+06  0.1377562E+04
  0.7928572E+00  0.1657772E+05  0.1692498E+04  0.2247853E-01  0.3458023E-02  0.3787869E+06  0.1759179E+04
  0.8238096E+00  0.1713295E+05  0.2164894E+04 -0.2711654E-01 -0.1617622E-01  0.3801290E+06  0.2214945E+04
  0.8547620E+00  0.1787775E+05  0.2735403E+04 -0.3613145E-01 -0.2190018E-01  0.3804529E+06  0.2757462E+04
  0.8857143E+00  0.1872023E+05  0.3419549E+04  0.1874370E-01  0.9044647E-02  0.3797085E+06  0.3399204E+04
  0.9166667E+00  0.1946338E+05  0.4230633E+04 -0.2130682E-02 -0.2895355E-02  0.3798486E+06  0.4136065E+04
  0.9476191E+00  0.1951883E+05  0.5202339E+04 -0.2808231E-01 -0.2827835E-01  0.3813085E+06  0.4963092E+04
  0.9785714E+00  0.1986164E+05  0.6328569E+04  0.2669509E-01  0.8010864E-02  0.3818685E+06  0.5921713E+04
  0.1009524E+01  0.2038456E+05  0.7621598E+04  0.1584035E-01  0.1067352E-01  0.3810419E+06  0.7006144E+04
  0.1040476E+01  0.2098649E+05  0.9084722E+04 -0.1290537E-02  0.5363464E-02  0.3803700E+06  0.8212161E+04
  0.1071429E+01  0.2140733E+05  0.1073144E+05 -0.3862305E-01 -0.2519989E-01  0.3806014E+06  0.9508446E+04
  0.1102381E+01  0.2165826E+05  0.1256633E+05  0.1661000E-01  0.6896973E-02  0.3814471E+06  0.1089146E+05
  0.1133333E+01  0.2188949E+05  0.1459442E+05  0.9478400E-02  0.1152039E-01  0.3811307E+06  0.1237500E+05
  0.1164286E+01  0.2184720E+05  0.1683754E+05 -0.2851802E-01 -0.2331543E-01  0.3799191E+06  0.1392740E+05
  0.1195238E+01  0.2142613E+05  0.1927764E+05  0.4085221E-02  0.4226685E-02  0.3788401E+06  0.1549730E+05
  0.1226190E+01  0.2092494E+05  0.2183963E+05 -0.3683442E-01 -0.4292297E-01  0.3783256E+06  0.1714634E+05
  0.1257143E+01  0.2023324E+05  0.2454588E+05  0.2738259E-01  0.4330444E-01  0.3782962E+06  0.1875254E+05
  0.1288095E+01  0.1933112E+05  0.2724825E+05  0.1686872E-01 -0.1397705E-01  0.3784094E+06  0.2027139E+05
  0.1319048E+01  0.1845197E+05  0.3007292E+05  0.2035974E-02 -0.2822876E-01  0.3766782E+06  0.2180460E+05
  0.1350000E+01  0.1724623E+05  0.3295995E+05 -0.6329572E-02  0.1019287E-01  0.3747805E+06  0.2312818E+05
  0.1380952E+01  0.1583166E+05  0.3579011E+05 -0.3129209E-01 -0.3359985E-01  0.3729745E+06  0.2429819E+05
  0.1411905E+01  0.1430481E+05  0.3801282E+05 -0.2576445E-01 -0.8596802E-01  0.3714821E+06  0.2517595E+05
  0.1442857E+01  0.1246659E+05  0.4050948E+05  0.1844350E-01  0.4052734E-01  0.3707148E+06  0.2596385E+05
  0.1473810E+01  0.1047146E+05  0.4274094E+05  0.2418530E-01  0.2807617E-01  0.3703409E+06  0.2649913E+05
  0.1504762E+01  0.8437856E+04  0.4482473E+05 -0.7787777E-02 -0.1272583E-01  0.3691323E+06  0.2684351E+05
  0.1535714E+01  0.6383791E+04  0.4675062E+05 -0.9220567E-02  0.9765625E-03  0.3670848E+06  0.2683250E+05
  0.1566667E+01  0.4332636E+04  0.4826991E+05  0.3116689E-03 -0.1406860E-01  0.3651315E+06  0.2665906E+05
  0.1597619E+01  0.2337551E+04  0.4939365E+05  0.1314212E-01  0.7873535E-02  0.3634282E+06  0.2624350E+05
  0.1628572E+01  0.2208481E+03  0.5011980E+05  0.1753958E-01  0.5093384E-01  0.3625266E+06  0.2558047E+05
  0.1659524E+01 -0.1982808E+04  0.5054829E+05 -0.6031709E-02 -0.1434326E-01  0.3622732E+06  0.2475923E+05
  0.1690476E+01 -0.4136516E+04  0.5055911E+05  0.7798745E-02 -0.1062012E-01  0.3624163E+06  0.2380150E+05
  0.1721429E+01 -0.6103539E+04  0.5015470E+05 -0.8509466E-03 -0.2166748E-01  0.3625934E+06  0.2291047E+05
  0.1752381E+01 -0.7830923E+04  0.4970296E+05  0.4318901E-02  0.1251221E-02  0.3614015E+06  0.2157973E+05
  0.1783333E+01 -0.9458731E+04  0.4898158E+05  0.2874927E-02 -0.1119995E-01  0.3602035E+06  0.1994494E+05
  0.1814286E+01 -0.1100697E+05  0.4798134E+05  0.2193421E-01 -0.3988647E-01  0.3591174E+06  0.1806739E+05
  0.1845238E+01 -0.1230317E+05  0.4660159E+05 -0.8070816E-02 -0.3875732E-02  0.3583940E+06  0.1642421E+05
  0.1876190E+01 -0.1354755E+05  0.4482617E+05 -0.8328046E-02 -0.1705933E-01  0.3584851E+06  0.1509587E+05
  0.1907143E+01 -0.1477159E+05  0.4285953E+05 -0.4224456E-02 -0.8148193E-02  0.3590764E+06  0.1390898E+05
  0.1938095E+01 -0.1583232E+05  0.4062968E+05  0.1259694E-02  0.7382202E-01  0.3599783E+06  0.1300665E+05
  0.1969048E+01 -0.1665144E+05  0.3817221E+05  0.2479784E-02  0.5554199E-02  0.3611878E+06  0.1265663E+05
  0.2000000E+01 -0.1724563E+05  0.3592932E+05 -0.1953125E-02 -0.1742554E-01  0.3614488E+06  0.1181887E+05
