VARIABLES="w (rad/s)"
"abs(F   1   1)" "angle(F   1   1)"
"abs(F   1   2)" "angle(F   1   2)"
"abs(F   1   3)" "angle(F   1   3)"
Zone t="Diffraction force - beta =   0.000 deg",I=    64,F=POINT
  0.5000000E-01  0.1374022E+04 -0.1570794E+01  0.1771314E+03 -0.3105432E+01  0.2542343E+04  0.1570798E+01
  0.8095238E-01  0.2252444E+04 -0.1570791E+01  0.4602036E+03 -0.3104288E+01  0.4163284E+04  0.1570801E+01
  0.1119048E+00  0.3150962E+04 -0.1570786E+01  0.8743118E+03 -0.3102814E+01  0.5822467E+04  0.1570806E+01
  0.1428571E+00  0.4081872E+04 -0.1570777E+01  0.1420210E+04 -0.3100940E+01  0.7535581E+04  0.1570813E+01
  0.1738095E+00  0.5046609E+04 -0.1570765E+01  0.2093345E+04 -0.3098473E+01  0.9326734E+04  0.1570823E+01
  0.2047619E+00  0.6081573E+04 -0.1570748E+01  0.2900660E+04 -0.3095436E+01  0.1122188E+05  0.1570838E+01
  0.2357143E+00  0.7160691E+04 -0.1570723E+01  0.3844614E+04 -0.3091654E+01  0.1322106E+05  0.1570860E+01
  0.2666667E+00  0.8325632E+04 -0.1570686E+01  0.4908450E+04 -0.3086904E+01  0.1538394E+05  0.1570893E+01
  0.2976190E+00  0.9617008E+04 -0.1570631E+01  0.6121238E+04 -0.3081114E+01  0.1774306E+05  0.1570940E+01
  0.3285715E+00  0.1101922E+05 -0.1570549E+01  0.7437462E+04 -0.3073927E+01  0.2032905E+05  0.1571012E+01
  0.3595238E+00  0.1254180E+05 -0.1570427E+01  0.8900186E+04 -0.3065431E+01  0.2316204E+05  0.1571118E+01
  0.3904762E+00  0.1427235E+05 -0.1570245E+01  0.1045547E+05 -0.3055138E+01  0.2633544E+05  0.1571277E+01
  0.4214286E+00  0.1618143E+05 -0.1569979E+01  0.1211962E+05 -0.3043780E+01  0.2984357E+05  0.1571509E+01
  0.4523810E+00  0.1827945E+05 -0.1569588E+01  0.1387055E+05 -0.3030482E+01  0.3370793E+05  0.1571849E+01
  0.4833333E+00  0.2054655E+05 -0.1569047E+01  0.1566552E+05 -0.3017052E+01  0.3791974E+05  0.1572321E+01
  0.5142857E+00  0.2309526E+05 -0.1568301E+01  0.1755679E+05 -0.3002857E+01  0.4254146E+05  0.1572974E+01
  0.5452381E+00  0.2583373E+05 -0.1567308E+01  0.1940504E+05 -0.2988054E+01  0.4754866E+05  0.1573843E+01
  0.5761905E+00  0.2868386E+05 -0.1566014E+01  0.2133138E+05 -0.2974139E+01  0.5282858E+05  0.1574973E+01
  0.6071429E+00  0.3173682E+05 -0.1564350E+01  0.2323628E+05 -0.2959530E+01  0.5843459E+05  0.1576430E+01
  0.6380953E+00  0.3499805E+05 -0.1562289E+01  0.2511716E+05 -0.2945710E+01  0.6432296E+05  0.1578242E+01
  0.6690477E+00  0.3841626E+05 -0.1559736E+01  0.2705097E+05 -0.2932642E+01  0.7055180E+05  0.1580486E+01
  0.7000000E+00  0.4199721E+05 -0.1556609E+01  0.2889979E+05 -0.2919051E+01  0.7700427E+05  0.1583243E+01
  0.7309524E+00  0.4563493E+05 -0.1552828E+01  0.3069212E+05 -0.2905810E+01  0.8365588E+05  0.1586568E+01
  0.7619048E+00  0.4941616E+05 -0.1548314E+01  0.3249446E+05 -0.2893304E+01  0.9062470E+05  0.1590534E+01
  0.7928572E+00  0.5341564E+05 -0.1543012E+01  0.3427658E+05 -0.2881516E+01  0.9769646E+05  0.1595231E+01
  0.8238096E+00  0.5763816E+05 -0.1536835E+01  0.3584976E+05 -0.2868619E+01  0.1052291E+06  0.1600708E+01
  0.8547620E+00  0.6186157E+05 -0.1529622E+01  0.3739061E+05 -0.2856525E+01  0.1126906E+06  0.1607118E+01
  0.8857143E+00  0.6618350E+05 -0.1521304E+01  0.3891659E+05 -0.2845324E+01  0.1204892E+06  0.1614492E+01
  0.9166667E+00  0.7056243E+05 -0.1511784E+01  0.4038241E+05 -0.2834943E+01  0.1282263E+06  0.1622965E+01
  0.9476191E+00  0.7507709E+05 -0.1501035E+01  0.4158953E+05 -0.2823271E+01  0.1363098E+06  0.1632516E+01
  0.9785714E+00  0.7959524E+05 -0.1488966E+01  0.4272729E+05 -0.2812327E+01  0.1442131E+06  0.1643275E+01
  0.1009524E+01  0.8428480E+05 -0.1475628E+01  0.4381371E+05 -0.2802182E+01  0.1523426E+06  0.1655192E+01
  0.1040476E+01  0.8893427E+05 -0.1460778E+01  0.4486102E+05 -0.2793243E+01  0.1603237E+06  0.1668503E+01
  0.1071429E+01  0.9361755E+05 -0.1444447E+01  0.4565151E+05 -0.2783573E+01  0.1682604E+06  0.1683182E+01
  0.1102381E+01  0.9817860E+05 -0.1426476E+01  0.4629469E+05 -0.2773811E+01  0.1761390E+06  0.1699295E+01
  0.1133333E+01  0.1024904E+06 -0.1406769E+01  0.4684114E+05 -0.2764668E+01  0.1834340E+06  0.1716998E+01
  0.1164286E+01  0.1066694E+06 -0.1385429E+01  0.4732948E+05 -0.2756164E+01  0.1906629E+06  0.1736095E+01
  0.1195238E+01  0.1105873E+06 -0.1362502E+01  0.4775679E+05 -0.2748672E+01  0.1972929E+06  0.1756625E+01
  0.1226190E+01  0.1142989E+06 -0.1338217E+01  0.4799151E+05 -0.2741272E+01  0.2033449E+06  0.1778406E+01
  0.1257143E+01  0.1177940E+06 -0.1312789E+01  0.4796884E+05 -0.2732866E+01  0.2089453E+06  0.1801157E+01
  0.1288095E+01  0.1209648E+06 -0.1286036E+01  0.4787434E+05 -0.2725524E+01  0.2139330E+06  0.1825157E+01
  0.1319048E+01  0.1235074E+06 -0.1257674E+01  0.4768893E+05 -0.2718551E+01  0.2177375E+06  0.1850557E+01
  0.1350000E+01  0.1256144E+06 -0.1228090E+01  0.4744479E+05 -0.2712179E+01  0.2210392E+06  0.1876873E+01
  0.1380952E+01  0.1271002E+06 -0.1197433E+01  0.4715392E+05 -0.2706866E+01  0.2230585E+06  0.1904116E+01
  0.1411905E+01  0.1277800E+06 -0.1165489E+01  0.4669837E+05 -0.2701677E+01  0.2238498E+06  0.1932129E+01
  0.1442857E+01  0.1282942E+06 -0.1134117E+01  0.4598016E+05 -0.2695922E+01  0.2240625E+06  0.1959658E+01
  0.1473810E+01  0.1280327E+06 -0.1101958E+01  0.4522501E+05 -0.2690718E+01  0.2230522E+06  0.1987702E+01
  0.1504762E+01  0.1269805E+06 -0.1069318E+01  0.4440212E+05 -0.2686255E+01  0.2205110E+06  0.2016037E+01
  0.1535714E+01  0.1252941E+06 -0.1036552E+01  0.4351616E+05 -0.2682065E+01  0.2170463E+06  0.2044148E+01
  0.1566667E+01  0.1229886E+06 -0.1003920E+01  0.4259376E+05 -0.2678579E+01  0.2126827E+06  0.2071737E+01
  0.1597619E+01  0.1199696E+06 -0.9718436E+00  0.4165017E+05 -0.2676105E+01  0.2069070E+06  0.2098455E+01
  0.1628572E+01  0.1164233E+06 -0.9405683E+00  0.4059140E+05 -0.2674456E+01  0.2002475E+06  0.2123974E+01
  0.1659524E+01  0.1124051E+06 -0.9100528E+00  0.3933545E+05 -0.2672746E+01  0.1929111E+06  0.2148259E+01
  0.1690476E+01  0.1077161E+06 -0.8797352E+00  0.3808412E+05 -0.2671452E+01  0.1846703E+06  0.2171716E+01
  0.1721429E+01  0.1024849E+06 -0.8503283E+00  0.3681027E+05 -0.2671049E+01  0.1754778E+06  0.2193574E+01
  0.1752381E+01  0.9676230E+05 -0.8221002E+00  0.3551721E+05 -0.2671571E+01  0.1654397E+06  0.2213466E+01
  0.1783333E+01  0.9074507E+05 -0.7948589E+00  0.3421721E+05 -0.2672619E+01  0.1552545E+06  0.2231479E+01
  0.1814286E+01  0.8437371E+05 -0.7686120E+00  0.3293179E+05 -0.2674392E+01  0.1445957E+06  0.2247346E+01
  0.1845238E+01  0.7763469E+05 -0.7433547E+00  0.3167129E+05 -0.2676966E+01  0.1333127E+06  0.2260584E+01
  0.1876190E+01  0.7069219E+05 -0.7193252E+00  0.3039183E+05 -0.2680629E+01  0.1218161E+06  0.2270609E+01
  0.1907143E+01  0.6362552E+05 -0.6968810E+00  0.2902149E+05 -0.2685914E+01  0.1102492E+06  0.2276457E+01
  0.1938095E+01  0.5635891E+05 -0.6750074E+00  0.2768646E+05 -0.2691299E+01  0.9862886E+05  0.2278539E+01
  0.1969048E+01  0.4892182E+05 -0.6537645E+00  0.2639574E+05 -0.2697080E+01  0.8688835E+05  0.2275219E+01
  0.2000000E+01  0.4135438E+05 -0.6331716E+00  0.2514861E+05 -0.2703203E+01  0.7503414E+05  0.2263913E+01
