VARIABLES="w (rad/s)"
"abs(F   1   1)" "angle(F   1   1)"
"abs(F   1   2)" "angle(F   1   2)"
"abs(F   1   3)" "angle(F   1   3)"
Zone t="Diffraction force - beta =   0.000 deg",I=    64,F=POINT
  0.5000000E-01  0.1333822E+04 -0.1570794E+01  0.3891139E+03 -0.3078808E+01  0.5903748E+02  0.1570785E+01
  0.8095238E-01  0.2182547E+04 -0.1570791E+01  0.1005408E+04 -0.3076359E+01  0.1000211E+03  0.1570768E+01
  0.1119048E+00  0.3040827E+04 -0.1570785E+01  0.1907119E+04 -0.3073511E+01  0.1477258E+03  0.1570741E+01
  0.1428571E+00  0.3933826E+04 -0.1570777E+01  0.3094631E+04 -0.3069950E+01  0.1765605E+03  0.1570691E+01
  0.1738095E+00  0.4851364E+04 -0.1570765E+01  0.4580121E+04 -0.3065612E+01  0.2163216E+03  0.1570623E+01
  0.2047619E+00  0.5826636E+04 -0.1570747E+01  0.6365387E+04 -0.3060156E+01  0.2318090E+03  0.1570489E+01
  0.2357143E+00  0.6846303E+04 -0.1570722E+01  0.8466420E+04 -0.3053349E+01  0.2726798E+03  0.1570317E+01
  0.2666667E+00  0.7940405E+04 -0.1570684E+01  0.1089533E+05 -0.3045134E+01  0.2850295E+03  0.1569996E+01
  0.2976190E+00  0.9133775E+04 -0.1570628E+01  0.1365257E+05 -0.3034754E+01  0.2787309E+03  0.1569368E+01
  0.3285715E+00  0.1040937E+05 -0.1570545E+01  0.1676650E+05 -0.3022464E+01  0.3090814E+03  0.1568569E+01
  0.3595238E+00  0.1180316E+05 -0.1570421E+01  0.2023015E+05 -0.3007580E+01  0.3121422E+03  0.1566997E+01
  0.3904762E+00  0.1336625E+05 -0.1570237E+01  0.2405666E+05 -0.2990015E+01  0.2407887E+03  0.1562265E+01
  0.4214286E+00  0.1506867E+05 -0.1569968E+01  0.2816534E+05 -0.2970232E+01  0.2101810E+03  0.1554142E+01
  0.4523810E+00  0.1690932E+05 -0.1569573E+01  0.3264456E+05 -0.2947706E+01  0.1735663E+03  0.1536721E+01
  0.4833333E+00  0.1891962E+05 -0.1569029E+01  0.3734850E+05 -0.2924786E+01  0.7779054E+02  0.1444512E+01
  0.5142857E+00  0.2109883E+05 -0.1568276E+01  0.4225788E+05 -0.2899766E+01  0.6458401E+02 -0.1320872E+01
  0.5452381E+00  0.2340642E+05 -0.1567276E+01  0.4740540E+05 -0.2875080E+01  0.2072090E+03 -0.1448169E+01
  0.5761905E+00  0.2578286E+05 -0.1565977E+01  0.5274297E+05 -0.2850974E+01  0.3320269E+03 -0.1452702E+01
  0.6071429E+00  0.2828419E+05 -0.1564312E+01  0.5822184E+05 -0.2826189E+01  0.5661420E+03 -0.1465936E+01
  0.6380953E+00  0.3090925E+05 -0.1562256E+01  0.6384659E+05 -0.2802770E+01  0.8829793E+03 -0.1471359E+01
  0.6690477E+00  0.3358398E+05 -0.1559717E+01  0.6956899E+05 -0.2779545E+01  0.1190748E+04 -0.1464099E+01
  0.7000000E+00  0.3628203E+05 -0.1556609E+01  0.7541687E+05 -0.2756534E+01  0.1490253E+04 -0.1449799E+01
  0.7309524E+00  0.3901186E+05 -0.1552891E+01  0.8140148E+05 -0.2734730E+01  0.1879259E+04 -0.1437008E+01
  0.7619048E+00  0.4176143E+05 -0.1548479E+01  0.8741431E+05 -0.2713141E+01  0.2337730E+04 -0.1423271E+01
  0.7928572E+00  0.4456712E+05 -0.1543321E+01  0.9342635E+05 -0.2691659E+01  0.2886838E+04 -0.1409359E+01
  0.8238096E+00  0.4736295E+05 -0.1537331E+01  0.9944882E+05 -0.2670638E+01  0.3499576E+04 -0.1393394E+01
  0.8547620E+00  0.5010944E+05 -0.1530432E+01  0.1054972E+06 -0.2650450E+01  0.4075269E+04 -0.1370860E+01
  0.8857143E+00  0.5274446E+05 -0.1522527E+01  0.1115417E+06 -0.2631034E+01  0.4644926E+04 -0.1343647E+01
  0.9166667E+00  0.5531054E+05 -0.1513619E+01  0.1175659E+06 -0.2612382E+01  0.5275076E+04 -0.1315097E+01
  0.9476191E+00  0.5776396E+05 -0.1503665E+01  0.1235003E+06 -0.2594081E+01  0.6009834E+04 -0.1287341E+01
  0.9785714E+00  0.6011556E+05 -0.1492681E+01  0.1293255E+06 -0.2576163E+01  0.6791163E+04 -0.1257877E+01
  0.1009524E+01  0.6229297E+05 -0.1480609E+01  0.1350228E+06 -0.2558597E+01  0.7553144E+04 -0.1223991E+01
  0.1040476E+01  0.6426718E+05 -0.1467453E+01  0.1405991E+06 -0.2541706E+01  0.8288061E+04 -0.1185575E+01
  0.1071429E+01  0.6598443E+05 -0.1453202E+01  0.1460534E+06 -0.2525661E+01  0.8985561E+04 -0.1142257E+01
  0.1102381E+01  0.6739742E+05 -0.1437869E+01  0.1513839E+06 -0.2510591E+01  0.9621959E+04 -0.1093090E+01
  0.1133333E+01  0.6846985E+05 -0.1421546E+01  0.1565490E+06 -0.2496191E+01  0.1019086E+05 -0.1038129E+01
  0.1164286E+01  0.6915748E+05 -0.1404297E+01  0.1615446E+06 -0.2482381E+01  0.1068056E+05 -0.9768865E+00
  0.1195238E+01  0.6945626E+05 -0.1386314E+01  0.1663418E+06 -0.2469101E+01  0.1111256E+05 -0.9106740E+00
  0.1226190E+01  0.6935183E+05 -0.1367783E+01  0.1709350E+06 -0.2456419E+01  0.1144888E+05 -0.8369912E+00
  0.1257143E+01  0.6878475E+05 -0.1348552E+01  0.1753610E+06 -0.2444086E+01  0.1168134E+05 -0.7531559E+00
  0.1288095E+01  0.6774579E+05 -0.1329553E+01  0.1794298E+06 -0.2432667E+01  0.1179947E+05 -0.6596763E+00
  0.1319048E+01  0.6621144E+05 -0.1310328E+01  0.1833144E+06 -0.2421707E+01  0.1178961E+05 -0.5485851E+00
  0.1350000E+01  0.6415111E+05 -0.1291322E+01  0.1869517E+06 -0.2411312E+01  0.1171415E+05 -0.4212210E+00
  0.1380952E+01  0.6158556E+05 -0.1272957E+01  0.1903243E+06 -0.2401686E+01  0.1160155E+05 -0.2725148E+00
  0.1411905E+01  0.5816891E+05 -0.1256847E+01  0.1914730E+06 -0.2388705E+01  0.1138271E+05 -0.7201637E-01
  0.1442857E+01  0.5466120E+05 -0.1240507E+01  0.1942664E+06 -0.2379828E+01  0.1154712E+05  0.1201079E+00
  0.1473810E+01  0.5067043E+05 -0.1226172E+01  0.1967745E+06 -0.2371561E+01  0.1197589E+05  0.3321325E+00
  0.1504762E+01  0.4621035E+05 -0.1214713E+01  0.1989849E+06 -0.2363751E+01  0.1279192E+05  0.5516216E+00
  0.1535714E+01  0.4131449E+05 -0.1207277E+01  0.2009100E+06 -0.2356401E+01  0.1411673E+05  0.7685306E+00
  0.1566667E+01  0.3599102E+05 -0.1205807E+01  0.2025266E+06 -0.2349357E+01  0.1596526E+05  0.9663535E+00
  0.1597619E+01  0.3032039E+05 -0.1214345E+01  0.2038353E+06 -0.2342955E+01  0.1837371E+05  0.1142375E+01
  0.1628572E+01  0.2434589E+05 -0.1240643E+01  0.2048212E+06 -0.2337078E+01  0.2127980E+05  0.1293697E+01
  0.1659524E+01  0.1814623E+05 -0.1302673E+01  0.2054725E+06 -0.2331649E+01  0.2467406E+05  0.1423148E+01
  0.1690476E+01  0.1194669E+05 -0.1458388E+01  0.2057705E+06 -0.2326971E+01  0.2852554E+05  0.1533848E+01
  0.1721429E+01  0.6669240E+04 -0.1953260E+01  0.2057235E+06 -0.2322795E+01  0.3275009E+05  0.1628912E+01
  0.1752381E+01  0.6662679E+04 -0.3067867E+01  0.2053526E+06 -0.2319102E+01  0.3733689E+05  0.1711428E+01
  0.1783333E+01  0.1224684E+05  0.2703691E+01  0.2046513E+06 -0.2315876E+01  0.4226244E+05  0.1783606E+01
  0.1814286E+01  0.1915294E+05  0.2540360E+01  0.2036255E+06 -0.2312925E+01  0.4747716E+05  0.1847369E+01
  0.1845238E+01  0.2642533E+05  0.2472235E+01  0.2022679E+06 -0.2310549E+01  0.5294381E+05  0.1904281E+01
  0.1876190E+01  0.3385550E+05  0.2439190E+01  0.2005524E+06 -0.2308724E+01  0.5860491E+05  0.1955483E+01
  0.1907143E+01  0.4133420E+05  0.2422196E+01  0.1984795E+06 -0.2307324E+01  0.6450192E+05  0.2001544E+01
  0.1938095E+01  0.4881444E+05  0.2413598E+01  0.1960431E+06 -0.2306576E+01  0.7057256E+05  0.2043119E+01
  0.1969048E+01  0.5625606E+05  0.2409889E+01  0.1932347E+06 -0.2306445E+01  0.7676270E+05  0.2081212E+01
  0.2000000E+01  0.6362802E+05  0.2409177E+01  0.1900728E+06 -0.2306945E+01  0.8300566E+05  0.2116430E+01
