VARIABLES="w (rad/s)"
"abs(F   1   1)" "angle(F   1   1)"
"abs(F   1   2)" "angle(F   1   2)"
"abs(F   1   3)" "angle(F   1   3)"
Zone t="Diffraction force - beta =   0.000 deg",I=    64,F=POINT
  0.5000000E-01  0.1299040E+04 -0.1570795E+01  0.1619424E+03 -0.3108020E+01  0.2324002E+04  0.1570798E+01
  0.8095238E-01  0.2127112E+04 -0.1570792E+01  0.4194710E+03 -0.3106844E+01  0.3802769E+04  0.1570801E+01
  0.1119048E+00  0.2979680E+04 -0.1570787E+01  0.7983011E+03 -0.3105522E+01  0.5320615E+04  0.1570805E+01
  0.1428571E+00  0.3859184E+04 -0.1570780E+01  0.1295624E+04 -0.3103732E+01  0.6891434E+04  0.1570812E+01
  0.1738095E+00  0.4781806E+04 -0.1570770E+01  0.1912557E+04 -0.3101472E+01  0.8531650E+04  0.1570821E+01
  0.2047619E+00  0.5737346E+04 -0.1570754E+01  0.2653269E+04 -0.3098671E+01  0.1024142E+05  0.1570835E+01
  0.2357143E+00  0.6777609E+04 -0.1570732E+01  0.3510161E+04 -0.3095031E+01  0.1209119E+05  0.1570856E+01
  0.2666667E+00  0.7889612E+04 -0.1570700E+01  0.4490135E+04 -0.3090659E+01  0.1406014E+05  0.1570886E+01
  0.2976190E+00  0.9094339E+04 -0.1570652E+01  0.5589314E+04 -0.3085105E+01  0.1622039E+05  0.1570930E+01
  0.3285715E+00  0.1042903E+05 -0.1570581E+01  0.6806900E+04 -0.3078475E+01  0.1857281E+05  0.1570997E+01
  0.3595238E+00  0.1190362E+05 -0.1570475E+01  0.8131877E+04 -0.3070335E+01  0.2119315E+05  0.1571095E+01
  0.3904762E+00  0.1349869E+05 -0.1570315E+01  0.9578421E+04 -0.3060829E+01  0.2404070E+05  0.1571244E+01
  0.4214286E+00  0.1534003E+05 -0.1570083E+01  0.1108998E+05 -0.3049960E+01  0.2730800E+05  0.1571460E+01
  0.4523810E+00  0.1733583E+05 -0.1569741E+01  0.1273082E+05 -0.3037689E+01  0.3081770E+05  0.1571779E+01
  0.4833333E+00  0.1956074E+05 -0.1569268E+01  0.1436649E+05 -0.3024822E+01  0.3475088E+05  0.1572219E+01
  0.5142857E+00  0.2191173E+05 -0.1568608E+01  0.1610334E+05 -0.3011295E+01  0.3894072E+05  0.1572834E+01
  0.5452381E+00  0.2452311E+05 -0.1567732E+01  0.1784666E+05 -0.2997570E+01  0.4348856E+05  0.1573652E+01
  0.5761905E+00  0.2734879E+05 -0.1566596E+01  0.1960757E+05 -0.2984076E+01  0.4846870E+05  0.1574710E+01
  0.6071429E+00  0.3025823E+05 -0.1565120E+01  0.2145560E+05 -0.2970871E+01  0.5356744E+05  0.1576088E+01
  0.6380953E+00  0.3336113E+05 -0.1563282E+01  0.2319486E+05 -0.2957541E+01  0.5902324E+05  0.1577802E+01
  0.6690477E+00  0.3665694E+05 -0.1561007E+01  0.2497572E+05 -0.2944723E+01  0.6481118E+05  0.1579925E+01
  0.7000000E+00  0.4009458E+05 -0.1558205E+01  0.2681582E+05 -0.2932610E+01  0.7076056E+05  0.1582545E+01
  0.7309524E+00  0.4373141E+05 -0.1554834E+01  0.2850079E+05 -0.2919837E+01  0.7697077E+05  0.1585708E+01
  0.7619048E+00  0.4753780E+05 -0.1550796E+01  0.3019386E+05 -0.2907609E+01  0.8361844E+05  0.1589481E+01
  0.7928572E+00  0.5136246E+05 -0.1545967E+01  0.3189755E+05 -0.2896192E+01  0.9024984E+05  0.1593998E+01
  0.8238096E+00  0.5536052E+05 -0.1540299E+01  0.3353705E+05 -0.2884971E+01  0.9714786E+05  0.1599302E+01
  0.8547620E+00  0.5968982E+05 -0.1533769E+01  0.3502859E+05 -0.2873184E+01  0.1044975E+06  0.1605435E+01
  0.8857143E+00  0.6411938E+05 -0.1526202E+01  0.3649333E+05 -0.2862035E+01  0.1120460E+06  0.1612538E+01
  0.9166667E+00  0.6858978E+05 -0.1517479E+01  0.3796057E+05 -0.2852030E+01  0.1195385E+06  0.1620749E+01
  0.9476191E+00  0.7317988E+05 -0.1507533E+01  0.3932248E+05 -0.2842198E+01  0.1272384E+06  0.1630110E+01
  0.9785714E+00  0.7795363E+05 -0.1496319E+01  0.4047518E+05 -0.2831554E+01  0.1352046E+06  0.1640678E+01
  0.1009524E+01  0.8280964E+05 -0.1483703E+01  0.4159126E+05 -0.2821561E+01  0.1435222E+06  0.1652506E+01
  0.1040476E+01  0.8766609E+05 -0.1469633E+01  0.4265273E+05 -0.2812388E+01  0.1515521E+06  0.1665755E+01
  0.1071429E+01  0.9263198E+05 -0.1454096E+01  0.4369364E+05 -0.2804272E+01  0.1596856E+06  0.1680405E+01
  0.1102381E+01  0.9768448E+05 -0.1437020E+01  0.4450194E+05 -0.2795444E+01  0.1677918E+06  0.1696567E+01
  0.1133333E+01  0.1028556E+06 -0.1418398E+01  0.4515786E+05 -0.2786453E+01  0.1760840E+06  0.1714199E+01
  0.1164286E+01  0.1079584E+06 -0.1398055E+01  0.4575827E+05 -0.2778031E+01  0.1843634E+06  0.1733406E+01
  0.1195238E+01  0.1128048E+06 -0.1375852E+01  0.4628661E+05 -0.2770370E+01  0.1920081E+06  0.1754424E+01
  0.1226190E+01  0.1174789E+06 -0.1351854E+01  0.4677705E+05 -0.2763602E+01  0.1993778E+06  0.1777117E+01
  0.1257143E+01  0.1218279E+06 -0.1325975E+01  0.4714339E+05 -0.2756946E+01  0.2062384E+06  0.1801519E+01
  0.1288095E+01  0.1262124E+06 -0.1298838E+01  0.4722882E+05 -0.2749650E+01  0.2128417E+06  0.1827217E+01
  0.1319048E+01  0.1304391E+06 -0.1270429E+01  0.4726932E+05 -0.2742606E+01  0.2193462E+06  0.1853975E+01
  0.1350000E+01  0.1341475E+06 -0.1240433E+01  0.4722961E+05 -0.2735982E+01  0.2248281E+06  0.1882247E+01
  0.1380952E+01  0.1373836E+06 -0.1209030E+01  0.4712816E+05 -0.2730150E+01  0.2293119E+06  0.1911924E+01
  0.1411905E+01  0.1398267E+06 -0.1175558E+01  0.4698022E+05 -0.2724729E+01  0.2327724E+06  0.1943249E+01
  0.1442857E+01  0.1420132E+06 -0.1141592E+01  0.4677753E+05 -0.2720180E+01  0.2355504E+06  0.1975177E+01
  0.1473810E+01  0.1436185E+06 -0.1106762E+01  0.4627261E+05 -0.2714587E+01  0.2371374E+06  0.2007911E+01
  0.1504762E+01  0.1447776E+06 -0.1071679E+01  0.4570816E+05 -0.2709456E+01  0.2380102E+06  0.2040776E+01
  0.1535714E+01  0.1454501E+06 -0.1036371E+01  0.4508589E+05 -0.2704409E+01  0.2383112E+06  0.2073601E+01
  0.1566667E+01  0.1452404E+06 -0.1000535E+01  0.4441034E+05 -0.2699861E+01  0.2369664E+06  0.2106910E+01
  0.1597619E+01  0.1442974E+06 -0.9645842E+00  0.4369708E+05 -0.2695923E+01  0.2342716E+06  0.2140294E+01
  0.1628572E+01  0.1427334E+06 -0.9286602E+00  0.4295185E+05 -0.2692371E+01  0.2306788E+06  0.2173477E+01
  0.1659524E+01  0.1405313E+06 -0.8929413E+00  0.4218809E+05 -0.2689480E+01  0.2261302E+06  0.2206225E+01
  0.1690476E+01  0.1377692E+06 -0.8581897E+00  0.4119753E+05 -0.2686257E+01  0.2204881E+06  0.2237856E+01
  0.1721429E+01  0.1345140E+06 -0.8243848E+00  0.4013841E+05 -0.2683362E+01  0.2140612E+06  0.2268376E+01
  0.1752381E+01  0.1308909E+06 -0.7914230E+00  0.3906419E+05 -0.2680688E+01  0.2074462E+06  0.2297738E+01
  0.1783333E+01  0.1266783E+06 -0.7590671E+00  0.3795524E+05 -0.2678188E+01  0.1999547E+06  0.2326224E+01
  0.1814286E+01  0.1219099E+06 -0.7275053E+00  0.3683090E+05 -0.2676087E+01  0.1915057E+06  0.2353649E+01
  0.1845238E+01  0.1167060E+06 -0.6971391E+00  0.3570205E+05 -0.2674474E+01  0.1822957E+06  0.2379614E+01
  0.1876190E+01  0.1112320E+06 -0.6678724E+00  0.3456051E+05 -0.2673213E+01  0.1728585E+06  0.2404120E+01
  0.1907143E+01  0.1054726E+06 -0.6395035E+00  0.3342284E+05 -0.2672395E+01  0.1631163E+06  0.2427290E+01
  0.1938095E+01  0.9949701E+05 -0.6123959E+00  0.3220768E+05 -0.2671974E+01  0.1530805E+06  0.2448617E+01
  0.1969048E+01  0.9336415E+05 -0.5867446E+00  0.3092871E+05 -0.2671886E+01  0.1428278E+06  0.2467840E+01
  0.2000000E+01  0.8715584E+05 -0.5623536E+00  0.2966282E+05 -0.2672265E+01  0.1326861E+06  0.2485128E+01
