VARIABLES="w (rad/s)"
"abs(F   1   1)" "angle(F   1   1)"
"abs(F   1   2)" "angle(F   1   2)"
"abs(F   1   3)" "angle(F   1   3)"
Zone t="Diffraction force - beta =   0.000 deg",I=    64,F=POINT
  0.5000000E-01  0.4458193E+03 -0.1570796E+01  0.1893049E+02 -0.3096409E+01  0.8737559E+03  0.1570797E+01
  0.8095238E-01  0.7326655E+03 -0.1570795E+01  0.4927149E+02 -0.3094936E+01  0.1434447E+04  0.1570797E+01
  0.1119048E+00  0.1024711E+04 -0.1570794E+01  0.9372572E+02 -0.3092960E+01  0.2003310E+04  0.1570799E+01
  0.1428571E+00  0.1326229E+04 -0.1570792E+01  0.1525985E+03 -0.3090468E+01  0.2589074E+04  0.1570800E+01
  0.1738095E+00  0.1640297E+04 -0.1570790E+01  0.2259457E+03 -0.3087245E+01  0.3195143E+04  0.1570803E+01
  0.2047619E+00  0.1968096E+04 -0.1570786E+01  0.3145239E+03 -0.3083237E+01  0.3830738E+04  0.1570806E+01
  0.2357143E+00  0.2320476E+04 -0.1570780E+01  0.4185764E+03 -0.3078135E+01  0.4503711E+04  0.1570812E+01
  0.2666667E+00  0.2694225E+04 -0.1570772E+01  0.5385462E+03 -0.3071881E+01  0.5219302E+04  0.1570819E+01
  0.2976190E+00  0.3098347E+04 -0.1570760E+01  0.6755938E+03 -0.3064040E+01  0.5993251E+04  0.1570831E+01
  0.3285715E+00  0.3540185E+04 -0.1570742E+01  0.8298721E+03 -0.3054585E+01  0.6828804E+04  0.1570848E+01
  0.3595238E+00  0.4033407E+04 -0.1570714E+01  0.1001653E+04 -0.3043042E+01  0.7748727E+04  0.1570874E+01
  0.3904762E+00  0.4564455E+04 -0.1570673E+01  0.1191984E+04 -0.3029334E+01  0.8748702E+04  0.1570912E+01
  0.4214286E+00  0.5157501E+04 -0.1570614E+01  0.1399187E+04 -0.3013877E+01  0.9849991E+04  0.1570969E+01
  0.4523810E+00  0.5807878E+04 -0.1570526E+01  0.1623411E+04 -0.2995846E+01  0.1104891E+05  0.1571051E+01
  0.4833333E+00  0.6519784E+04 -0.1570404E+01  0.1862340E+04 -0.2977359E+01  0.1234974E+05  0.1571166E+01
  0.5142857E+00  0.7284373E+04 -0.1570234E+01  0.2117083E+04 -0.2957312E+01  0.1374854E+05  0.1571326E+01
  0.5452381E+00  0.8094643E+04 -0.1570007E+01  0.2385970E+04 -0.2937090E+01  0.1522296E+05  0.1571540E+01
  0.5761905E+00  0.8982240E+04 -0.1569713E+01  0.2667166E+04 -0.2916919E+01  0.1679199E+05  0.1571817E+01
  0.6071429E+00  0.9891733E+04 -0.1569330E+01  0.2959396E+04 -0.2895958E+01  0.1840251E+05  0.1572178E+01
  0.6380953E+00  0.1083747E+05 -0.1568850E+01  0.3266999E+04 -0.2875994E+01  0.2006763E+05  0.1572628E+01
  0.6690477E+00  0.1182988E+05 -0.1568254E+01  0.3587079E+04 -0.2856080E+01  0.2179689E+05  0.1573189E+01
  0.7000000E+00  0.1284833E+05 -0.1567516E+01  0.3914840E+04 -0.2835607E+01  0.2353944E+05  0.1573881E+01
  0.7309524E+00  0.1391118E+05 -0.1566624E+01  0.4254321E+04 -0.2815580E+01  0.2533078E+05  0.1574719E+01
  0.7619048E+00  0.1502122E+05 -0.1565554E+01  0.4603938E+04 -0.2795678E+01  0.2715958E+05  0.1575726E+01
  0.7928572E+00  0.1613271E+05 -0.1564271E+01  0.4962140E+04 -0.2775770E+01  0.2899482E+05  0.1576928E+01
  0.8238096E+00  0.1725027E+05 -0.1562749E+01  0.5329074E+04 -0.2755998E+01  0.3082913E+05  0.1578351E+01
  0.8547620E+00  0.1840426E+05 -0.1560968E+01  0.5703144E+04 -0.2736368E+01  0.3267419E+05  0.1580016E+01
  0.8857143E+00  0.1962940E+05 -0.1558912E+01  0.6083908E+04 -0.2716958E+01  0.3457222E+05  0.1581945E+01
  0.9166667E+00  0.2084848E+05 -0.1556527E+01  0.6467802E+04 -0.2697531E+01  0.3644291E+05  0.1584177E+01
  0.9476191E+00  0.2207654E+05 -0.1553786E+01  0.6854990E+04 -0.2678228E+01  0.3829668E+05  0.1586739E+01
  0.9785714E+00  0.2332276E+05 -0.1550660E+01  0.7246088E+04 -0.2659208E+01  0.4014091E+05  0.1589659E+01
  0.1009524E+01  0.2460258E+05 -0.1547129E+01  0.7642276E+04 -0.2640653E+01  0.4198632E+05  0.1592958E+01
  0.1040476E+01  0.2587281E+05 -0.1543136E+01  0.8041062E+04 -0.2622412E+01  0.4382505E+05  0.1596670E+01
  0.1071429E+01  0.2713436E+05 -0.1538654E+01  0.8437703E+04 -0.2604126E+01  0.4558263E+05  0.1600838E+01
  0.1102381E+01  0.2843288E+05 -0.1533674E+01  0.8835896E+04 -0.2586253E+01  0.4735204E+05  0.1605469E+01
  0.1133333E+01  0.2974630E+05 -0.1528159E+01  0.9230085E+04 -0.2568418E+01  0.4906379E+05  0.1610608E+01
  0.1164286E+01  0.3108951E+05 -0.1522094E+01  0.9624291E+04 -0.2551093E+01  0.5077027E+05  0.1616260E+01
  0.1195238E+01  0.3242191E+05 -0.1515419E+01  0.1001587E+05 -0.2534084E+01  0.5244500E+05  0.1622459E+01
  0.1226190E+01  0.3371136E+05 -0.1508081E+01  0.1040297E+05 -0.2517256E+01  0.5400534E+05  0.1629262E+01
  0.1257143E+01  0.3495283E+05 -0.1500055E+01  0.1079032E+05 -0.2500466E+01  0.5546883E+05  0.1636675E+01
  0.1288095E+01  0.3624040E+05 -0.1491375E+01  0.1117093E+05 -0.2485038E+01  0.5694785E+05  0.1644687E+01
  0.1319048E+01  0.3746954E+05 -0.1481973E+01  0.1154762E+05 -0.2469391E+01  0.5828264E+05  0.1653347E+01
  0.1350000E+01  0.3872868E+05 -0.1471934E+01  0.1191978E+05 -0.2454240E+01  0.5959507E+05  0.1662600E+01
  0.1380952E+01  0.3995484E+05 -0.1461155E+01  0.1228619E+05 -0.2439449E+01  0.6083461E+05  0.1672512E+01
  0.1411905E+01  0.4087152E+05 -0.1449851E+01  0.1260138E+05 -0.2423717E+01  0.6177920E+05  0.1682675E+01
  0.1442857E+01  0.4199518E+05 -0.1437613E+01  0.1294776E+05 -0.2409093E+01  0.6275161E+05  0.1693901E+01
  0.1473810E+01  0.4308097E+05 -0.1424622E+01  0.1328831E+05 -0.2395028E+01  0.6368084E+05  0.1705756E+01
  0.1504762E+01  0.4409394E+05 -0.1410893E+01  0.1361693E+05 -0.2381013E+01  0.6441671E+05  0.1718282E+01
  0.1535714E+01  0.4507459E+05 -0.1396492E+01  0.1393961E+05 -0.2367680E+01  0.6506143E+05  0.1731400E+01
  0.1566667E+01  0.4601592E+05 -0.1381442E+01  0.1425508E+05 -0.2355028E+01  0.6563906E+05  0.1745034E+01
  0.1597619E+01  0.4682177E+05 -0.1365540E+01  0.1456240E+05 -0.2342573E+01  0.6603679E+05  0.1759331E+01
  0.1628572E+01  0.4752418E+05 -0.1348935E+01  0.1485789E+05 -0.2330280E+01  0.6625245E+05  0.1774167E+01
  0.1659524E+01  0.4811914E+05 -0.1331661E+01  0.1514372E+05 -0.2318295E+01  0.6628675E+05  0.1789524E+01
  0.1690476E+01  0.4864859E+05 -0.1313824E+01  0.1542312E+05 -0.2306821E+01  0.6624229E+05  0.1805308E+01
  0.1721429E+01  0.4909500E+05 -0.1295519E+01  0.1568961E+05 -0.2295509E+01  0.6604368E+05  0.1821461E+01
  0.1752381E+01  0.4944177E+05 -0.1276790E+01  0.1594287E+05 -0.2284382E+01  0.6566509E+05  0.1837956E+01
  0.1783333E+01  0.4971919E+05 -0.1257750E+01  0.1618635E+05 -0.2273811E+01  0.6519528E+05  0.1854643E+01
  0.1814286E+01  0.4991063E+05 -0.1238391E+01  0.1641930E+05 -0.2263807E+01  0.6465075E+05  0.1871444E+01
  0.1845238E+01  0.4991158E+05 -0.1218452E+01  0.1664067E+05 -0.2253704E+01  0.6389107E+05  0.1888548E+01
  0.1876190E+01  0.4978979E+05 -0.1198313E+01  0.1684758E+05 -0.2243825E+01  0.6296061E+05  0.1905622E+01
  0.1907143E+01  0.4951631E+05 -0.1177942E+01  0.1704100E+05 -0.2234154E+01  0.6182962E+05  0.1922670E+01
  0.1938095E+01  0.4914712E+05 -0.1157493E+01  0.1722759E+05 -0.2225060E+01  0.6063003E+05  0.1939633E+01
  0.1969048E+01  0.4868619E+05 -0.1137084E+01  0.1740489E+05 -0.2216522E+01  0.5936884E+05  0.1956343E+01
  0.2000000E+01  0.4807254E+05 -0.1116815E+01  0.1756267E+05 -0.2207893E+01  0.5786988E+05  0.1972638E+01
