VARIABLES="w (rad/s)"
"A   1   1" "B   1   1"
"A   1   2" "B   1   2"
"A   1   3" "B   1   3"
Zone t="Motion of body    1 in DoF   1",I=    64,F=POINT
  0.5000000E-01  0.2679800E+06  0.4236864E-01 -0.1731873E-01 -0.5599989E-04 -0.5379720E+06 -0.6593208E-01
  0.8095238E-01  0.2692703E+06  0.1866096E+00 -0.4429536E-02  0.3490906E-04 -0.5394961E+06 -0.2893005E+00
  0.1119048E+00  0.2695882E+06  0.5225101E+00  0.2358944E-01  0.1222808E-03 -0.5400668E+06 -0.8077013E+00
  0.1428571E+00  0.2701158E+06  0.1175802E+01 -0.7156372E-02 -0.8614734E-07 -0.5401992E+06 -0.1814746E+01
  0.1738095E+00  0.2703162E+06  0.2334224E+01  0.2458128E-02  0.3116205E-05 -0.5406286E+06 -0.3594825E+01
  0.2047619E+00  0.2708889E+06  0.4297015E+01 -0.1788472E-01 -0.5622283E-03 -0.5409152E+06 -0.6597692E+01
  0.2357143E+00  0.2713241E+06  0.7544058E+01 -0.1275265E-01 -0.3979951E-03 -0.5414930E+06 -0.1155123E+02
  0.2666667E+00  0.2719103E+06  0.1282761E+02  0.2792358E-01  0.4789792E-03 -0.5419270E+06 -0.1955836E+02
  0.2976190E+00  0.2726891E+06  0.2144408E+02  0.1102295E-01  0.3824830E-03 -0.5424616E+06 -0.3255256E+02
  0.3285715E+00  0.2733820E+06  0.3532432E+02  0.2507748E-01  0.6757975E-03 -0.5433569E+06 -0.5338162E+02
  0.3595238E+00  0.2742189E+06  0.5774738E+02  0.1765573E-01  0.9444803E-03 -0.5439936E+06 -0.8679827E+02
  0.3904762E+00  0.2752774E+06  0.9370851E+02 -0.5861607E-02  0.7322729E-03 -0.5447602E+06 -0.1399958E+03
  0.4214286E+00  0.2765559E+06  0.1500190E+03  0.2056574E-01 -0.2247095E-03 -0.5458429E+06 -0.2226233E+03
  0.4523810E+00  0.2776207E+06  0.2379407E+03 -0.9174547E-02 -0.1580358E-02 -0.5472609E+06 -0.3510350E+03
  0.4833333E+00  0.2790569E+06  0.3680152E+03  0.4546067E-02  0.1420856E-02 -0.5484387E+06 -0.5387479E+03
  0.5142857E+00  0.2809122E+06  0.5602084E+03 -0.1928541E-01 -0.3655910E-02 -0.5498893E+06 -0.8133438E+03
  0.5452381E+00  0.2826372E+06  0.8318270E+03  0.2809750E-01  0.4355907E-03 -0.5516416E+06 -0.1197973E+04
  0.5761905E+00  0.2843304E+06  0.1205358E+04 -0.4014701E-01 -0.3202915E-02 -0.5536504E+06 -0.1721855E+04
  0.6071429E+00  0.2863969E+06  0.1714761E+04 -0.3659237E-01 -0.5875111E-02 -0.5554527E+06 -0.2426742E+04
  0.6380953E+00  0.2888177E+06  0.2385706E+04  0.8226081E-02  0.5235672E-02 -0.5574554E+06 -0.3341735E+04
  0.6690477E+00  0.2913065E+06  0.3260861E+04 -0.6020977E-02  0.1325607E-02 -0.5595759E+06 -0.4519327E+04
  0.7000000E+00  0.2937888E+06  0.4387933E+04  0.6801060E-02  0.2218246E-02 -0.5620985E+06 -0.6018966E+04
  0.7309524E+00  0.2963352E+06  0.5809426E+04  0.1870419E-01  0.6826401E-02 -0.5647342E+06 -0.7884102E+04
  0.7619048E+00  0.2991022E+06  0.7585838E+04 -0.3829193E-01 -0.1373291E-01 -0.5668917E+06 -0.1016995E+05
  0.7928572E+00  0.3021571E+06  0.9781874E+04  0.1046945E-01  0.1850128E-02 -0.5691071E+06 -0.1294486E+05
  0.8238096E+00  0.3051025E+06  0.1245926E+05 -0.1103925E-01 -0.5416870E-03 -0.5712329E+06 -0.1627032E+05
  0.8547620E+00  0.3080637E+06  0.1568638E+05 -0.3056178E-01 -0.1753235E-01 -0.5734299E+06 -0.2020787E+05
  0.8857143E+00  0.3108609E+06  0.1952961E+05 -0.1516035E-01 -0.9971619E-02 -0.5754713E+06 -0.2481183E+05
  0.9166667E+00  0.3135286E+06  0.2405156E+05 -0.1391602E-01 -0.1571655E-02 -0.5772496E+06 -0.3012060E+05
  0.9476191E+00  0.3158888E+06  0.2930301E+05 -0.5345943E-02 -0.7583618E-02 -0.5781902E+06 -0.3613393E+05
  0.9785714E+00  0.3182481E+06  0.3534964E+05  0.1684036E-01 -0.1223755E-01 -0.5787802E+06 -0.4288267E+05
  0.1009524E+01  0.3201666E+06  0.4221821E+05  0.1837964E-01 -0.1525879E-01 -0.5786862E+06 -0.5034860E+05
  0.1040476E+01  0.3216478E+06  0.4992859E+05 -0.6804652E-02 -0.6164551E-02 -0.5779594E+06 -0.5849531E+05
  0.1071429E+01  0.3225522E+06  0.5848186E+05  0.1162109E-01 -0.1556396E-02 -0.5768354E+06 -0.6729957E+05
  0.1102381E+01  0.3226580E+06  0.6782659E+05 -0.1661000E-02  0.6378174E-02 -0.5748055E+06 -0.7661725E+05
  0.1133333E+01  0.3221189E+06  0.7790648E+05 -0.6139419E-02 -0.9063721E-02 -0.5721279E+06 -0.8633632E+05
  0.1164286E+01  0.3207033E+06  0.8859805E+05  0.4193827E-02  0.2285767E-01 -0.5683816E+06 -0.9623485E+05
  0.1195238E+01  0.3185264E+06  0.9976131E+05  0.2185594E-01 -0.1171875E-01 -0.5635494E+06 -0.1060759E+06
  0.1226190E+01  0.3156540E+06  0.1112956E+06  0.3384785E-02  0.1007080E-01 -0.5582509E+06 -0.1158088E+06
  0.1257143E+01  0.3117351E+06  0.1230382E+06 -0.2913042E-02 -0.3662109E-02 -0.5517994E+06 -0.1251360E+06
  0.1288095E+01  0.3073346E+06  0.1346815E+06  0.1421521E-02 -0.4211426E-02 -0.5451097E+06 -0.1338064E+06
  0.1319048E+01  0.3021044E+06  0.1461957E+06  0.4349581E-02  0.6286621E-02 -0.5377843E+06 -0.1417508E+06
  0.1350000E+01  0.2962643E+06  0.1573384E+06 -0.6329571E-03 -0.1318359E-01 -0.5301204E+06 -0.1487600E+06
  0.1380952E+01  0.2899028E+06  0.1679063E+06 -0.6187702E-02  0.1763916E-01 -0.5221054E+06 -0.1546123E+06
  0.1411905E+01  0.2825417E+06  0.1770358E+06 -0.1608117E-01 -0.2575684E-01 -0.5143980E+06 -0.1589208E+06
  0.1442857E+01  0.2753920E+06  0.1861443E+06 -0.1700524E-01 -0.2075195E-02 -0.5063450E+06 -0.1624183E+06
  0.1473810E+01  0.2681303E+06  0.1944283E+06 -0.9110902E-03 -0.6103516E-02 -0.4986853E+06 -0.1648163E+06
  0.1504762E+01  0.2608536E+06  0.2017760E+06 -0.1849597E-01 -0.2124023E-01 -0.4912935E+06 -0.1659488E+06
  0.1535714E+01  0.2534441E+06  0.2081292E+06 -0.1073083E-01 -0.1098633E-01 -0.4841014E+06 -0.1658634E+06
  0.1566667E+01  0.2462419E+06  0.2135594E+06  0.1581720E-01 -0.1464844E-02 -0.4775538E+06 -0.1648134E+06
  0.1597619E+01  0.2391898E+06  0.2179621E+06  0.5042905E-02 -0.1550293E-01 -0.4713036E+06 -0.1625198E+06
  0.1628572E+01  0.2324212E+06  0.2215807E+06 -0.6745991E-02 -0.1940918E-01 -0.4659035E+06 -0.1596585E+06
  0.1659524E+01  0.2258247E+06  0.2242445E+06 -0.1743311E-01 -0.1708984E-01 -0.4607764E+06 -0.1557346E+06
  0.1690476E+01  0.2195588E+06  0.2261517E+06  0.1603075E-01 -0.1538086E-01 -0.4562765E+06 -0.1512666E+06
  0.1721429E+01  0.2137262E+06  0.2273548E+06  0.0000000E+00  0.2600098E-01 -0.4524268E+06 -0.1462283E+06
  0.1752381E+01  0.2081962E+06  0.2278417E+06  0.3796453E-02 -0.8056641E-02 -0.4490194E+06 -0.1406727E+06
  0.1783333E+01  0.2029911E+06  0.2276958E+06 -0.7324219E-02 -0.1635742E-01 -0.4460378E+06 -0.1346395E+06
  0.1814286E+01  0.1981961E+06  0.2270491E+06 -0.1557598E-01 -0.1904297E-01 -0.4436623E+06 -0.1285258E+06
  0.1845238E+01  0.1937510E+06  0.2257910E+06 -0.3704637E-02  0.1684570E-01 -0.4415424E+06 -0.1217305E+06
  0.1876190E+01  0.1896725E+06  0.2243045E+06 -0.1132094E-01  0.1818848E-01 -0.4400862E+06 -0.1153093E+06
  0.1907143E+01  0.1858817E+06  0.2223836E+06  0.7680829E-03 -0.1586914E-02 -0.4389255E+06 -0.1086979E+06
  0.1938095E+01  0.1823187E+06  0.2200522E+06  0.9573672E-02  0.5493164E-02 -0.4379146E+06 -0.1017651E+06
  0.1969048E+01  0.1791727E+06  0.2176212E+06 -0.2138814E-02 -0.3295898E-02 -0.4374968E+06 -0.9539032E+05
  0.2000000E+01  0.1763506E+06  0.2148869E+06  0.1422119E-01 -0.1098633E-02 -0.4372751E+06 -0.8863213E+05
Zone t="Motion of body    1 in DoF   2",I=    64,F=POINT
  0.5000000E-01  0.3067017E-01  0.4339218E-04  0.1456372E+06  0.4935817E+03  0.6607056E-01  0.2698898E-03
  0.8095238E-01  0.2356136E-02  0.5722046E-04  0.1432582E+06  0.8176381E+03  0.1225191E-01 -0.2012253E-03
  0.1119048E+00  0.8590373E-02  0.6484985E-04  0.1420286E+06  0.1169222E+04  0.2318037E-01 -0.2651215E-03
  0.1428571E+00  0.1036072E-01 -0.2365112E-03  0.1412634E+06  0.1561245E+04 -0.1901245E-01  0.9078979E-03
  0.1738095E+00  0.1826038E-01  0.2403259E-03  0.1409928E+06  0.2009293E+04 -0.2194757E-01 -0.1449585E-03
  0.2047619E+00 -0.4471180E-02 -0.2956390E-03  0.1410030E+06  0.2533786E+04  0.4500988E-01  0.7400513E-03
  0.2357143E+00  0.4272460E-02 -0.1525879E-03  0.1412849E+06  0.3162243E+04 -0.5890817E-01  0.7629395E-04
  0.2666667E+00 -0.3902435E-01 -0.1094818E-02  0.1417645E+06  0.3916604E+04  0.3158569E-01 -0.4203796E-02
  0.2976190E+00 -0.3691406E-01 -0.3051758E-03  0.1423057E+06  0.4850349E+04 -0.1291992E-01 -0.7095337E-03
  0.3285715E+00  0.1625393E-01 -0.2212524E-03  0.1429931E+06  0.5986093E+04 -0.2674932E-01 -0.5340576E-03
  0.3595238E+00  0.1901386E-01 -0.9841919E-03  0.1435885E+06  0.7386076E+04 -0.4142306E-01  0.2593994E-03
  0.3904762E+00  0.3282500E-01 -0.1159668E-02  0.1440929E+06  0.9089816E+04 -0.6049179E-01  0.1800537E-02
  0.4214286E+00 -0.2664857E-01  0.2868652E-02  0.1441183E+06  0.1107197E+05 -0.2520028E-01 -0.4577637E-03
  0.4523810E+00  0.1079358E-01 -0.5645752E-03  0.1439515E+06  0.1343096E+05 -0.9538831E-01  0.7965088E-02
  0.4833333E+00  0.2651872E-02  0.1510620E-02  0.1431862E+06  0.1595275E+05  0.2752896E-01 -0.4821777E-02
  0.5142857E+00  0.2610948E-02 -0.7019043E-03  0.1419247E+06  0.1876064E+05 -0.2041287E-01 -0.8239746E-03
  0.5452381E+00 -0.2473923E-01 -0.4119873E-03  0.1403047E+06  0.2167958E+05  0.3559762E-01 -0.4425049E-02
  0.5761905E+00  0.2722370E-01 -0.1586914E-02  0.1383476E+06  0.2464947E+05 -0.4618495E-01 -0.5584717E-02
  0.6071429E+00  0.2865062E-01  0.4180908E-02  0.1360182E+06  0.2774753E+05  0.2875115E-01  0.4089355E-02
  0.6380953E+00 -0.9182602E-02  0.1098633E-02  0.1335745E+06  0.3077368E+05 -0.1205217E-01 -0.5187988E-02
  0.6690477E+00  0.2736808E-02 -0.5004883E-02  0.1309198E+06  0.3379407E+05  0.1094723E-02  0.7019043E-02
  0.7000000E+00  0.1813616E-01 -0.5798340E-02  0.1280677E+06  0.3682043E+05 -0.3906250E-01 -0.7446289E-02
  0.7309524E+00  0.7849080E-02  0.2593994E-02  0.1252227E+06  0.3974870E+05 -0.3674038E-01  0.1098633E-02
  0.7619048E+00 -0.3028106E-01  0.3784180E-02  0.1222841E+06  0.4260105E+05 -0.1506042E-01  0.1831055E-02
  0.7928572E+00 -0.2232457E-02 -0.1098633E-01  0.1192349E+06  0.4536689E+05  0.5357897E-01 -0.1403809E-02
  0.8238096E+00  0.3008010E-01 -0.4028320E-02  0.1161480E+06  0.4801836E+05  0.2533841E-01 -0.8666992E-02
  0.8547620E+00 -0.2299274E-01  0.7263184E-02  0.1131063E+06  0.5052049E+05 -0.3441770E-01 -0.2905273E-01
  0.8857143E+00 -0.3693612E-01  0.9948730E-02  0.1101062E+06  0.5286520E+05 -0.3032069E-02 -0.8911133E-02
  0.9166667E+00 -0.8322976E-02 -0.1831055E-03  0.1071580E+06  0.5504406E+05  0.4767400E-01 -0.1562500E-01
  0.9476191E+00 -0.2769585E-02 -0.2685547E-02  0.1042174E+06  0.5706842E+05 -0.7600257E-02  0.9399414E-02
  0.9785714E+00  0.1172588E-01  0.1251221E-01  0.1013465E+06  0.5890888E+05 -0.5900362E-01 -0.2685547E-02
  0.1009524E+01  0.1602173E-01 -0.7141113E-02  0.9854150E+05  0.6056672E+05  0.2091894E-01 -0.1147461E-01
  0.1040476E+01 -0.7977867E-02  0.1220703E-03  0.9585132E+05  0.6202748E+05  0.4868846E-01  0.3784180E-02
  0.1071429E+01  0.5753581E-02 -0.7324219E-02  0.9326809E+05  0.6329191E+05  0.3201497E-01  0.1464844E-01
  0.1102381E+01 -0.1384167E-02  0.2685547E-02  0.9080437E+05  0.6436884E+05 -0.3953180E-01 -0.8544922E-03
  0.1133333E+01 -0.2154182E-03 -0.1892090E-02  0.8847845E+05  0.6524748E+05  0.1098633E-01  0.3027344E-01
  0.1164286E+01  0.1614623E-01 -0.2441406E-03  0.8629958E+05  0.6595923E+05 -0.5651181E-01 -0.2636719E-01
  0.1195238E+01  0.1531958E-03  0.2563477E-02  0.8425055E+05  0.6650415E+05  0.5923571E-01 -0.1232910E-01
  0.1226190E+01 -0.7814870E-02  0.1342773E-02  0.8234342E+05  0.6688328E+05  0.1772034E-01 -0.1232910E-01
  0.1257143E+01  0.5680431E-02 -0.5249023E-02  0.8050705E+05  0.6716212E+05  0.2505216E-01 -0.2160645E-01
  0.1288095E+01 -0.6349461E-02 -0.2197266E-02  0.7885733E+05  0.6721570E+05  0.1639488E-01 -0.2685547E-02
  0.1319048E+01  0.1119786E-01 -0.8911133E-02  0.7734038E+05  0.6717112E+05 -0.5922833E-02 -0.8911133E-02
  0.1350000E+01  0.2079716E-02  0.6835938E-02  0.7597042E+05  0.6701204E+05  0.6691262E-02  0.3662109E-03
  0.1380952E+01 -0.3049653E-02  0.4882812E-03  0.7475646E+05  0.6673714E+05 -0.9104761E-02  0.1904297E-01
  0.1411905E+01 -0.2680195E-02 -0.1477051E-01  0.7379292E+05  0.6649346E+05 -0.3173004E-01  0.3417969E-02
  0.1442857E+01  0.4483969E-02 -0.1318359E-01  0.7281738E+05  0.6609733E+05  0.3096477E-01  0.1049805E-01
  0.1473810E+01 -0.1892583E-01  0.4516602E-02  0.7198691E+05  0.6564758E+05  0.1913289E-01 -0.2685547E-02
  0.1504762E+01  0.7625531E-02 -0.4638672E-02  0.7128467E+05  0.6517565E+05  0.2750059E-01  0.1672363E-01
  0.1535714E+01 -0.3417969E-02 -0.8544922E-03  0.7067798E+05  0.6472268E+05 -0.8346202E-02  0.2563477E-02
  0.1566667E+01  0.4675033E-03 -0.7080078E-02  0.7019367E+05  0.6428018E+05 -0.4675033E-03 -0.3027344E-01
  0.1597619E+01  0.1768837E-01  0.2075195E-02  0.6981584E+05  0.6386840E+05 -0.1871987E-01 -0.9765625E-03
  0.1628572E+01 -0.3672817E-02 -0.4150391E-02  0.6951693E+05  0.6355739E+05 -0.1424154E-01 -0.6103516E-02
  0.1659524E+01 -0.6767284E-02 -0.6958008E-02  0.6925391E+05  0.6335859E+05  0.3663160E-01 -0.3417969E-02
  0.1690476E+01  0.2166318E-02 -0.1586914E-01  0.6904046E+05  0.6329982E+05  0.5632427E-01 -0.1953125E-02
  0.1721429E+01 -0.1854355E-01 -0.9277344E-02  0.6886716E+05  0.6334759E+05 -0.2148640E-01 -0.2246094E-01
  0.1752381E+01 -0.2288321E-01  0.3295898E-02  0.6868194E+05  0.6355993E+05 -0.1030963E-01  0.5371094E-02
  0.1783333E+01 -0.2429998E-02  0.1000977E-01  0.6844348E+05  0.6390056E+05 -0.1711266E-02 -0.9765625E-03
  0.1814286E+01 -0.1140444E-01  0.7324219E-02  0.6817016E+05  0.6436100E+05  0.1809909E-01  0.9765625E-02
  0.1845238E+01  0.1002237E-01  0.1269531E-01  0.6784877E+05  0.6490041E+05 -0.1918473E-02  0.1220703E-01
  0.1876190E+01 -0.6408691E-02 -0.7690430E-02  0.6743394E+05  0.6550256E+05  0.7221977E-02 -0.2441406E-02
  0.1907143E+01  0.1152124E-01 -0.1159668E-01  0.6692109E+05  0.6608430E+05 -0.6400691E-02  0.1928711E-01
  0.1938095E+01  0.5353698E-02  0.4638672E-02  0.6631753E+05  0.6660974E+05 -0.8565917E-02 -0.4638672E-02
  0.1969048E+01 -0.4153638E-02 -0.9399414E-02  0.6568192E+05  0.6704833E+05 -0.1115903E-02 -0.7568359E-02
  0.2000000E+01 -0.7324219E-02 -0.7080078E-02  0.6501450E+05  0.6734170E+05  0.2978516E-01 -0.3906250E-02
Zone t="Motion of body    1 in DoF   3",I=    64,F=POINT
  0.5000000E-01 -0.5333691E+06 -0.6360146E-01 -0.1088905E+00 -0.3712048E-03  0.2031271E+07  0.1011657E+00
  0.8095238E-01 -0.5353956E+06 -0.2784235E+00  0.4870134E-01  0.3833037E-03  0.2032201E+07  0.4314187E+00
  0.1119048E+00 -0.5360144E+06 -0.7777858E+00  0.6898718E-01  0.3119514E-03  0.2032789E+07  0.1201518E+01
  0.1428571E+00 -0.5362345E+06 -0.1747264E+01  0.1150894E-01  0.7538227E-03  0.2032725E+07  0.2695101E+01
  0.1738095E+00 -0.5365604E+06 -0.3460862E+01  0.1557509E+00  0.2348070E-02  0.2033487E+07  0.5326619E+01
  0.2047619E+00 -0.5368815E+06 -0.6353324E+01  0.3387851E-01  0.2229232E-03  0.2033771E+07  0.9759861E+01
  0.2357143E+00 -0.5374368E+06 -0.1111695E+02 -0.1587608E-01 -0.5821772E-03  0.2033974E+07  0.1702441E+02
  0.2666667E+00 -0.5377839E+06 -0.1882711E+02  0.5292892E-02 -0.1154363E-02  0.2034898E+07  0.2870244E+02
  0.2976190E+00 -0.5383462E+06 -0.3134248E+02 -0.4197693E-01 -0.3502980E-02  0.2035168E+07  0.4757678E+02
  0.3285715E+00 -0.5391923E+06 -0.5137075E+02 -0.1206041E+00 -0.4835963E-02  0.2035754E+07  0.7764013E+02
  0.3595238E+00 -0.5397058E+06 -0.8352069E+02 -0.1295001E+00 -0.3710151E-02  0.2036875E+07  0.1255298E+03
  0.3904762E+00 -0.5404379E+06 -0.1347261E+03  0.1437755E+00  0.1077354E-01  0.2037958E+07  0.2012794E+03
  0.4214286E+00 -0.5415112E+06 -0.2142885E+03 -0.6893868E-01 -0.4761696E-02  0.2038919E+07  0.3179665E+03
  0.4523810E+00 -0.5428054E+06 -0.3375907E+03  0.1160310E-01  0.2719164E-02  0.2039882E+07  0.4981932E+03
  0.4833333E+00 -0.5438729E+06 -0.5182195E+03  0.4190905E-01  0.4097223E-02  0.2041689E+07  0.7586104E+03
  0.5142857E+00 -0.5453504E+06 -0.7828327E+03 -0.3371981E-01 -0.6872416E-02  0.2043263E+07  0.1136472E+04
  0.5452381E+00 -0.5470397E+06 -0.1152532E+04  0.8097620E-01  0.1048803E-01  0.2044581E+07  0.1659833E+04
  0.5761905E+00 -0.5488749E+06 -0.1654929E+04  0.4574799E-01  0.4590511E-02  0.2046548E+07  0.2363914E+04
  0.6071429E+00 -0.5505456E+06 -0.2332782E+04  0.1690135E+00  0.2293682E-01  0.2048720E+07  0.3302176E+04
  0.6380953E+00 -0.5525112E+06 -0.3213479E+04 -0.1069869E+00 -0.3546047E-01  0.2050901E+07  0.4501039E+04
  0.6690477E+00 -0.5545689E+06 -0.4346044E+04 -0.7553589E-01 -0.1009178E-01  0.2052856E+07  0.6022991E+04
  0.7000000E+00 -0.5569548E+06 -0.5782933E+04 -0.1494489E+00 -0.3337097E-01  0.2054723E+07  0.7932971E+04
  0.7309524E+00 -0.5593839E+06 -0.7566755E+04 -0.1926782E-01 -0.1056671E-02  0.2056911E+07  0.1026878E+05
  0.7619048E+00 -0.5613982E+06 -0.9763056E+04  0.1648435E+00  0.4722214E-01  0.2059409E+07  0.1308777E+05
  0.7928572E+00 -0.5635594E+06 -0.1243119E+05 -0.1420304E+00 -0.4651642E-01  0.2061290E+07  0.1644916E+05
  0.8238096E+00 -0.5655950E+06 -0.1562351E+05 -0.2241190E-01 -0.5683899E-02  0.2062803E+07  0.2040014E+05
  0.8547620E+00 -0.5676772E+06 -0.1939267E+05  0.6772862E-01  0.1918030E-01  0.2063859E+07  0.2497950E+05
  0.8857143E+00 -0.5695505E+06 -0.2378933E+05 -0.1423005E-01  0.7461548E-02  0.2064816E+07  0.3022078E+05
  0.9166667E+00 -0.5711468E+06 -0.2884945E+05 -0.8486106E-01 -0.5545044E-01  0.2065188E+07  0.3612614E+05
  0.9476191E+00 -0.5719759E+06 -0.3460721E+05 -0.3619783E-01 -0.3218079E-01  0.2065242E+07  0.4266544E+05
  0.9785714E+00 -0.5725374E+06 -0.4107471E+05 -0.9574055E-02 -0.3034973E-01  0.2064616E+07  0.4980927E+05
  0.1009524E+01 -0.5724480E+06 -0.4823170E+05  0.2146307E-02  0.3063965E-01  0.2063235E+07  0.5749467E+05
  0.1040476E+01 -0.5717269E+06 -0.5602292E+05 -0.1410792E-01  0.2380371E-02  0.2060560E+07  0.6560755E+05
  0.1071429E+01 -0.5705576E+06 -0.6439021E+05 -0.6833089E-01 -0.5163574E-01  0.2057458E+07  0.7407252E+05
  0.1102381E+01 -0.5685023E+06 -0.7322738E+05 -0.1082418E-01  0.1403809E-01  0.2053409E+07  0.8269886E+05
  0.1133333E+01 -0.5657879E+06 -0.8238828E+05 -0.8158964E-02 -0.9277344E-02  0.2048449E+07  0.9130516E+05
  0.1164286E+01 -0.5620975E+06 -0.9176468E+05 -0.7983997E-01 -0.6735229E-01  0.2043118E+07  0.9969157E+05
  0.1195238E+01 -0.5574356E+06 -0.1011382E+06  0.9600271E-02 -0.3295898E-01  0.2036830E+07  0.1075457E+06
  0.1226190E+01 -0.5522902E+06 -0.1103373E+06 -0.2638141E-01  0.1647949E-01  0.2030307E+07  0.1147903E+06
  0.1257143E+01 -0.5460871E+06 -0.1191301E+06 -0.1747825E-02 -0.5541992E-01  0.2022625E+07  0.1211034E+06
  0.1288095E+01 -0.5396637E+06 -0.1273039E+06 -0.3347683E-01 -0.3234863E-02  0.2014872E+07  0.1263614E+06
  0.1319048E+01 -0.5326340E+06 -0.1347253E+06 -0.1552430E-01 -0.3900146E-01  0.2006827E+07  0.1304940E+06
  0.1350000E+01 -0.5253052E+06 -0.1412834E+06 -0.7900662E-02 -0.2685547E-01  0.1998950E+07  0.1333578E+06
  0.1380952E+01 -0.5176489E+06 -0.1467534E+06 -0.5309269E-02 -0.5932617E-01  0.1991013E+07  0.1348118E+06
  0.1411905E+01 -0.5125156E+06 -0.1531173E+06 -0.1513013E-02  0.2453613E-01  0.1983957E+07  0.1369996E+06
  0.1442857E+01 -0.5047764E+06 -0.1564849E+06  0.4409545E-01  0.7031250E-01  0.1976698E+07  0.1359402E+06
  0.1473810E+01 -0.4973843E+06 -0.1587352E+06  0.3244982E-01  0.5584717E-01  0.1970393E+07  0.1338344E+06
  0.1504762E+01 -0.4902204E+06 -0.1596780E+06 -0.1454124E-01  0.6225586E-02  0.1964107E+07  0.1302539E+06
  0.1535714E+01 -0.4833026E+06 -0.1596468E+06  0.3608739E-01  0.2319336E-01  0.1958997E+07  0.1259836E+06
  0.1566667E+01 -0.4769702E+06 -0.1585728E+06 -0.1012924E-02  0.1440430E-01  0.1954752E+07  0.1209904E+06
  0.1597619E+01 -0.4709239E+06 -0.1562795E+06 -0.2827083E-01 -0.2410889E-01  0.1950527E+07  0.1148656E+06
  0.1628572E+01 -0.4656805E+06 -0.1532789E+06 -0.1484118E-01 -0.1983643E-01  0.1947522E+07  0.1085544E+06
  0.1659524E+01 -0.4607497E+06 -0.1494404E+06  0.1452759E-01  0.7818604E-01  0.1944936E+07  0.1015524E+06
  0.1690476E+01 -0.4564303E+06 -0.1450795E+06  0.6785991E-01  0.3527832E-01  0.1943308E+07  0.9464630E+05
  0.1721429E+01 -0.4527053E+06 -0.1399545E+06 -0.2918038E-01 -0.1330566E-01  0.1941753E+07  0.8690327E+05
  0.1752381E+01 -0.4494231E+06 -0.1344543E+06  0.1135453E-01  0.1574707E-01  0.1941088E+07  0.7963922E+05
  0.1783333E+01 -0.4465571E+06 -0.1285699E+06  0.1899505E-01  0.5920410E-02  0.1940650E+07  0.7201618E+05
  0.1814286E+01 -0.4442638E+06 -0.1225288E+06  0.6270762E-01  0.3466797E-01  0.1941155E+07  0.6528071E+05
  0.1845238E+01 -0.4422163E+06 -0.1157824E+06 -0.5762034E-01 -0.3991699E-01  0.1941199E+07  0.5750045E+05
  0.1876190E+01 -0.4408253E+06 -0.1092557E+06  0.1180891E-01  0.2374268E-01  0.1942090E+07  0.5067336E+05
  0.1907143E+01 -0.4397306E+06 -0.1026743E+06  0.6560708E-02 -0.2148438E-01  0.1943372E+07  0.4431850E+05
  0.1938095E+01 -0.4388256E+06 -0.9598526E+05  0.1376215E-01 -0.3845215E-02  0.1944645E+07  0.3787520E+05
  0.1969048E+01 -0.4384627E+06 -0.8955974E+05 -0.3099730E-04  0.2075195E-02  0.1946426E+07  0.3228682E+05
  0.2000000E+01 -0.4383206E+06 -0.8262203E+05 -0.3540039E-01 -0.2416992E-01  0.1947819E+07  0.2567784E+05
