VARIABLES="w (rad/s)"
"abs(F   1   1)" "angle(F   1   1)"
"abs(F   1   2)" "angle(F   1   2)"
"abs(F   1   3)" "angle(F   1   3)"
Zone t="Diffraction force - beta =   0.000 deg",I=    64,F=POINT
  0.5000000E-01  0.1089210E+04 -0.1570795E+01  0.3133408E+03 -0.3092124E+01  0.2855291E+03 -0.1570793E+01
  0.8095238E-01  0.1778671E+04 -0.1570793E+01  0.8127527E+03 -0.3090372E+01  0.4560564E+03 -0.1570788E+01
  0.1119048E+00  0.2484261E+04 -0.1570790E+01  0.1544099E+04 -0.3088187E+01  0.6387825E+03 -0.1570780E+01
  0.1428571E+00  0.3208717E+04 -0.1570785E+01  0.2509915E+04 -0.3085452E+01  0.8218427E+03 -0.1570767E+01
  0.1738095E+00  0.3966352E+04 -0.1570777E+01  0.3714038E+04 -0.3081982E+01  0.1024311E+04 -0.1570749E+01
  0.2047619E+00  0.4756657E+04 -0.1570767E+01  0.5164368E+04 -0.3077662E+01  0.1224409E+04 -0.1570721E+01
  0.2357143E+00  0.5598685E+04 -0.1570751E+01  0.6864546E+04 -0.3072181E+01  0.1451063E+04 -0.1570683E+01
  0.2666667E+00  0.6502386E+04 -0.1570728E+01  0.8826964E+04 -0.3065537E+01  0.1697060E+04 -0.1570625E+01
  0.2976190E+00  0.7471657E+04 -0.1570694E+01  0.1105679E+05 -0.3057182E+01  0.1949903E+04 -0.1570539E+01
  0.3285715E+00  0.8532578E+04 -0.1570643E+01  0.1356323E+05 -0.3047172E+01  0.2244279E+04 -0.1570413E+01
  0.3595238E+00  0.9701687E+04 -0.1570568E+01  0.1634316E+05 -0.3035005E+01  0.2581121E+04 -0.1570227E+01
  0.3904762E+00  0.1097311E+05 -0.1570454E+01  0.1941657E+05 -0.3020638E+01  0.2920247E+04 -0.1569941E+01
  0.4214286E+00  0.1238169E+05 -0.1570287E+01  0.2272808E+05 -0.3004493E+01  0.3319449E+04 -0.1569529E+01
  0.4523810E+00  0.1392835E+05 -0.1570043E+01  0.2630494E+05 -0.2985836E+01  0.3776365E+04 -0.1568931E+01
  0.4833333E+00  0.1561316E+05 -0.1569704E+01  0.3009262E+05 -0.2966943E+01  0.4281932E+04 -0.1568107E+01
  0.5142857E+00  0.1741242E+05 -0.1569231E+01  0.3408402E+05 -0.2946515E+01  0.4790461E+04 -0.1566939E+01
  0.5452381E+00  0.1934209E+05 -0.1568603E+01  0.3826400E+05 -0.2926165E+01  0.5386266E+04 -0.1565419E+01
  0.5761905E+00  0.2137784E+05 -0.1567784E+01  0.4258665E+05 -0.2906051E+01  0.6013291E+04 -0.1563441E+01
  0.6071429E+00  0.2350195E+05 -0.1566728E+01  0.4705233E+05 -0.2885456E+01  0.6672678E+04 -0.1560889E+01
  0.6380953E+00  0.2570068E+05 -0.1565409E+01  0.5170104E+05 -0.2866281E+01  0.7349510E+04 -0.1557686E+01
  0.6690477E+00  0.2796625E+05 -0.1563772E+01  0.5645496E+05 -0.2847235E+01  0.8059078E+04 -0.1553721E+01
  0.7000000E+00  0.3029199E+05 -0.1561761E+01  0.6129372E+05 -0.2828054E+01  0.8838075E+04 -0.1548937E+01
  0.7309524E+00  0.3267847E+05 -0.1559343E+01  0.6624453E+05 -0.2809701E+01  0.9652264E+04 -0.1543207E+01
  0.7619048E+00  0.3510212E+05 -0.1556450E+01  0.7127495E+05 -0.2791771E+01  0.1047512E+05 -0.1536327E+01
  0.7928572E+00  0.3753901E+05 -0.1553020E+01  0.7636784E+05 -0.2774226E+01  0.1129238E+05 -0.1528099E+01
  0.8238096E+00  0.3999575E+05 -0.1549002E+01  0.8151227E+05 -0.2757171E+01  0.1212487E+05 -0.1518443E+01
  0.8547620E+00  0.4245661E+05 -0.1544345E+01  0.8669321E+05 -0.2740660E+01  0.1301185E+05 -0.1507392E+01
  0.8857143E+00  0.4491925E+05 -0.1538997E+01  0.9187437E+05 -0.2724592E+01  0.1391164E+05 -0.1494694E+01
  0.9166667E+00  0.4734514E+05 -0.1532897E+01  0.9704434E+05 -0.2709002E+01  0.1481049E+05 -0.1480168E+01
  0.9476191E+00  0.4974571E+05 -0.1526018E+01  0.1021962E+06 -0.2693995E+01  0.1569590E+05 -0.1463653E+01
  0.9785714E+00  0.5207364E+05 -0.1518304E+01  0.1073350E+06 -0.2679759E+01  0.1655068E+05 -0.1444915E+01
  0.1009524E+01  0.5431248E+05 -0.1509732E+01  0.1124281E+06 -0.2666121E+01  0.1735683E+05 -0.1423736E+01
  0.1040476E+01  0.5643376E+05 -0.1500275E+01  0.1174601E+06 -0.2653064E+01  0.1810490E+05 -0.1399908E+01
  0.1071429E+01  0.5842694E+05 -0.1489946E+01  0.1224214E+06 -0.2640621E+01  0.1882323E+05 -0.1373582E+01
  0.1102381E+01  0.6026761E+05 -0.1478759E+01  0.1273035E+06 -0.2628823E+01  0.1949662E+05 -0.1344630E+01
  0.1133333E+01  0.6192677E+05 -0.1466730E+01  0.1320837E+06 -0.2617608E+01  0.2006211E+05 -0.1312377E+01
  0.1164286E+01  0.6336916E+05 -0.1453908E+01  0.1367659E+06 -0.2607083E+01  0.2052385E+05 -0.1276738E+01
  0.1195238E+01  0.6456895E+05 -0.1440336E+01  0.1413451E+06 -0.2597286E+01  0.2082779E+05 -0.1236825E+01
  0.1226190E+01  0.6547844E+05 -0.1426077E+01  0.1458162E+06 -0.2588311E+01  0.2098560E+05 -0.1192411E+01
  0.1257143E+01  0.6608898E+05 -0.1411125E+01  0.1502138E+06 -0.2579817E+01  0.2094927E+05 -0.1141900E+01
  0.1288095E+01  0.6636891E+05 -0.1396030E+01  0.1543935E+06 -0.2572589E+01  0.2075544E+05 -0.1086374E+01
  0.1319048E+01  0.6628877E+05 -0.1380513E+01  0.1584795E+06 -0.2565682E+01  0.2035670E+05 -0.1022699E+01
  0.1350000E+01  0.6583401E+05 -0.1364969E+01  0.1624211E+06 -0.2559461E+01  0.1978745E+05 -0.9505755E+00
  0.1380952E+01  0.6499237E+05 -0.1349583E+01  0.1662270E+06 -0.2554034E+01  0.1902679E+05 -0.8668610E+00
  0.1411905E+01  0.6370467E+05 -0.1334626E+01  0.1691169E+06 -0.2549761E+01  0.1806599E+05 -0.7673296E+00
  0.1442857E+01  0.6209779E+05 -0.1320230E+01  0.1726204E+06 -0.2545681E+01  0.1706442E+05 -0.6511493E+00
  0.1473810E+01  0.6006202E+05 -0.1306777E+01  0.1759721E+06 -0.2542247E+01  0.1600346E+05 -0.5103372E+00
  0.1504762E+01  0.5762335E+05 -0.1294786E+01  0.1791841E+06 -0.2539540E+01  0.1498220E+05 -0.3373477E+00
  0.1535714E+01  0.5476532E+05 -0.1284733E+01  0.1822606E+06 -0.2537446E+01  0.1417693E+05 -0.1271145E+00
  0.1566667E+01  0.5152320E+05 -0.1277344E+01  0.1851872E+06 -0.2535933E+01  0.1380864E+05  0.1214576E+00
  0.1597619E+01  0.4789923E+05 -0.1273413E+01  0.1879830E+06 -0.2534947E+01  0.1412992E+05  0.3941976E+00
  0.1628572E+01  0.4391318E+05 -0.1274157E+01  0.1906440E+06 -0.2534453E+01  0.1531264E+05  0.6641105E+00
  0.1659524E+01  0.3961156E+05 -0.1281626E+01  0.1931608E+06 -0.2534514E+01  0.1739481E+05  0.9066292E+00
  0.1690476E+01  0.3500795E+05 -0.1298574E+01  0.1955655E+06 -0.2534953E+01  0.2028105E+05  0.1109123E+01
  0.1721429E+01  0.3017121E+05 -0.1329929E+01  0.1978318E+06 -0.2535758E+01  0.2386340E+05  0.1273992E+01
  0.1752381E+01  0.2517684E+05 -0.1385143E+01  0.1999839E+06 -0.2536904E+01  0.2799589E+05  0.1407339E+01
  0.1783333E+01  0.2015174E+05 -0.1482652E+01  0.2020178E+06 -0.2538368E+01  0.3256389E+05  0.1516550E+01
  0.1814286E+01  0.1540038E+05 -0.1661799E+01  0.2039213E+06 -0.2539746E+01  0.3752341E+05  0.1607726E+01
  0.1845238E+01  0.1160268E+05 -0.2002326E+01  0.2056662E+06 -0.2540960E+01  0.4281805E+05  0.1685090E+01
  0.1876190E+01  0.1029334E+05 -0.2553675E+01  0.2072487E+06 -0.2542028E+01  0.4839147E+05  0.1751837E+01
  0.1907143E+01  0.1254361E+05 -0.3071461E+01  0.2086590E+06 -0.2542938E+01  0.5422712E+05  0.1810329E+01
  0.1938095E+01  0.1713635E+05  0.2908686E+01  0.2098223E+06 -0.2543453E+01  0.6026857E+05  0.1862062E+01
  0.1969048E+01  0.2275651E+05  0.2746829E+01  0.2107105E+06 -0.2543400E+01  0.6651157E+05  0.1908355E+01
  0.2000000E+01  0.2884570E+05  0.2654384E+01  0.2112986E+06 -0.2542933E+01  0.7292503E+05  0.1950051E+01
