VARIABLES="w (rad/s)"
"abs(F   1   1)" "angle(F   1   1)"
"abs(F   1   2)" "angle(F   1   2)"
"abs(F   1   3)" "angle(F   1   3)"
Zone t="Diffraction force - beta =   0.000 deg",I=    64,F=POINT
  0.5000000E-01  0.2272918E+04 -0.1570794E+01  0.7513356E+02 -0.3112364E+01  0.9321449E+04  0.1570799E+01
  0.8095238E-01  0.3725126E+04 -0.1570790E+01  0.1953190E+03 -0.3111538E+01  0.1523714E+05  0.1570802E+01
  0.1119048E+00  0.5203539E+04 -0.1570784E+01  0.3709280E+03 -0.3110466E+01  0.2125183E+05  0.1570809E+01
  0.1428571E+00  0.6724430E+04 -0.1570775E+01  0.6015800E+03 -0.3109083E+01  0.2742240E+05  0.1570818E+01
  0.1738095E+00  0.8305777E+04 -0.1570762E+01  0.8869889E+03 -0.3107368E+01  0.3381626E+05  0.1570831E+01
  0.2047619E+00  0.9953436E+04 -0.1570743E+01  0.1225145E+04 -0.3105127E+01  0.4047514E+05  0.1570851E+01
  0.2357143E+00  0.1170091E+05 -0.1570715E+01  0.1615798E+04 -0.3102310E+01  0.4751529E+05  0.1570879E+01
  0.2666667E+00  0.1357794E+05 -0.1570675E+01  0.2058126E+04 -0.3098959E+01  0.5499654E+05  0.1570920E+01
  0.2976190E+00  0.1558379E+05 -0.1570616E+01  0.2546566E+04 -0.3094632E+01  0.6299372E+05  0.1570981E+01
  0.3285715E+00  0.1777944E+05 -0.1570528E+01  0.3082328E+04 -0.3089586E+01  0.7167807E+05  0.1571070E+01
  0.3595238E+00  0.2016029E+05 -0.1570399E+01  0.3654712E+04 -0.3083383E+01  0.8108633E+05  0.1571202E+01
  0.3904762E+00  0.2278221E+05 -0.1570207E+01  0.4262575E+04 -0.3076083E+01  0.9133301E+05  0.1571397E+01
  0.4214286E+00  0.2566754E+05 -0.1569930E+01  0.4894153E+04 -0.3068080E+01  0.1025576E+06  0.1571680E+01
  0.4523810E+00  0.2881850E+05 -0.1569528E+01  0.5537497E+04 -0.3058508E+01  0.1147986E+06  0.1572090E+01
  0.4833333E+00  0.3227027E+05 -0.1568979E+01  0.6197735E+04 -0.3049412E+01  0.1280074E+06  0.1572649E+01
  0.5142857E+00  0.3594194E+05 -0.1568223E+01  0.6832992E+04 -0.3039071E+01  0.1420077E+06  0.1573419E+01
  0.5452381E+00  0.3989916E+05 -0.1567233E+01  0.7475028E+04 -0.3029164E+01  0.1568861E+06  0.1574428E+01
  0.5761905E+00  0.4400550E+05 -0.1565963E+01  0.8092866E+04 -0.3019542E+01  0.1723545E+06  0.1575719E+01
  0.6071429E+00  0.4832543E+05 -0.1564348E+01  0.8679305E+04 -0.3009336E+01  0.1883621E+06  0.1577363E+01
  0.6380953E+00  0.5287396E+05 -0.1562371E+01  0.9265033E+04 -0.3000354E+01  0.2049107E+06  0.1579376E+01
  0.6690477E+00  0.5747252E+05 -0.1559949E+01  0.9797120E+04 -0.2991200E+01  0.2215571E+06  0.1581838E+01
  0.7000000E+00  0.6223204E+05 -0.1557021E+01  0.1029110E+05 -0.2981833E+01  0.2386217E+06  0.1584812E+01
  0.7309524E+00  0.6719195E+05 -0.1553559E+01  0.1077174E+05 -0.2973221E+01  0.2560659E+06  0.1588329E+01
  0.7619048E+00  0.7213945E+05 -0.1549467E+01  0.1119969E+05 -0.2964676E+01  0.2731847E+06  0.1592483E+01
  0.7928572E+00  0.7723434E+05 -0.1544697E+01  0.1156683E+05 -0.2955968E+01  0.2905675E+06  0.1597322E+01
  0.8238096E+00  0.8237561E+05 -0.1539179E+01  0.1190210E+05 -0.2947462E+01  0.3076462E+06  0.1602925E+01
  0.8547620E+00  0.8766387E+05 -0.1532875E+01  0.1221459E+05 -0.2939327E+01  0.3249940E+06  0.1609318E+01
  0.8857143E+00  0.9285601E+05 -0.1525675E+01  0.1243998E+05 -0.2931149E+01  0.3417281E+06  0.1616608E+01
  0.9166667E+00  0.9815771E+05 -0.1517565E+01  0.1261739E+05 -0.2923013E+01  0.3586408E+06  0.1624801E+01
  0.9476191E+00  0.1034245E+06 -0.1508487E+01  0.1275355E+05 -0.2914887E+01  0.3746446E+06  0.1633996E+01
  0.9785714E+00  0.1088237E+06 -0.1498427E+01  0.1285988E+05 -0.2906886E+01  0.3906281E+06  0.1644185E+01
  0.1009524E+01  0.1140191E+06 -0.1487243E+01  0.1289864E+05 -0.2899076E+01  0.4055944E+06  0.1655492E+01
  0.1040476E+01  0.1191626E+06 -0.1474931E+01  0.1286965E+05 -0.2891351E+01  0.4200295E+06  0.1667926E+01
  0.1071429E+01  0.1242398E+06 -0.1461468E+01  0.1280051E+05 -0.2883533E+01  0.4337612E+06  0.1681513E+01
  0.1102381E+01  0.1292667E+06 -0.1446844E+01  0.1269800E+05 -0.2875653E+01  0.4467363E+06  0.1696279E+01
  0.1133333E+01  0.1342150E+06 -0.1431032E+01  0.1256867E+05 -0.2867627E+01  0.4591894E+06  0.1712198E+01
  0.1164286E+01  0.1388029E+06 -0.1413982E+01  0.1238061E+05 -0.2860130E+01  0.4698942E+06  0.1729356E+01
  0.1195238E+01  0.1431735E+06 -0.1395739E+01  0.1213733E+05 -0.2852961E+01  0.4793246E+06  0.1747727E+01
  0.1226190E+01  0.1474027E+06 -0.1376330E+01  0.1186300E+05 -0.2845681E+01  0.4878758E+06  0.1767254E+01
  0.1257143E+01  0.1511558E+06 -0.1355697E+01  0.1155881E+05 -0.2838019E+01  0.4942847E+06  0.1788020E+01
  0.1288095E+01  0.1550409E+06 -0.1334055E+01  0.1124535E+05 -0.2830691E+01  0.5003790E+06  0.1809845E+01
  0.1319048E+01  0.1583265E+06 -0.1311091E+01  0.1090776E+05 -0.2822773E+01  0.5047207E+06  0.1832892E+01
  0.1350000E+01  0.1610705E+06 -0.1287012E+01  0.1053144E+05 -0.2816329E+01  0.5067268E+06  0.1857051E+01
  0.1380952E+01  0.1634711E+06 -0.1261802E+01  0.1013075E+05 -0.2810086E+01  0.5075785E+06  0.1882325E+01
  0.1411905E+01  0.1651019E+06 -0.1235282E+01  0.9711306E+04 -0.2803653E+01  0.5068782E+06  0.1908553E+01
  0.1442857E+01  0.1664894E+06 -0.1208225E+01  0.9284919E+04 -0.2797147E+01  0.5039216E+06  0.1935593E+01
  0.1473810E+01  0.1675781E+06 -0.1180636E+01  0.8858716E+04 -0.2790696E+01  0.4997893E+06  0.1963185E+01
  0.1504762E+01  0.1682521E+06 -0.1152405E+01  0.8436062E+04 -0.2783925E+01  0.4945049E+06  0.1991325E+01
  0.1535714E+01  0.1682097E+06 -0.1123507E+01  0.8006505E+04 -0.2777473E+01  0.4869812E+06  0.2020159E+01
  0.1566667E+01  0.1674570E+06 -0.1094237E+01  0.7580471E+04 -0.2772552E+01  0.4769890E+06  0.2049298E+01
  0.1597619E+01  0.1663364E+06 -0.1064416E+01  0.7140396E+04 -0.2768077E+01  0.4665036E+06  0.2078987E+01
  0.1628572E+01  0.1648019E+06 -0.1034342E+01  0.6705837E+04 -0.2763553E+01  0.4551598E+06  0.2108793E+01
  0.1659524E+01  0.1625412E+06 -0.1004338E+01  0.6282009E+04 -0.2759315E+01  0.4412597E+06  0.2138520E+01
  0.1690476E+01  0.1600084E+06 -0.9745903E+00  0.5872468E+04 -0.2755270E+01  0.4269122E+06  0.2168029E+01
  0.1721429E+01  0.1572234E+06 -0.9452438E+00  0.5488946E+04 -0.2750377E+01  0.4122442E+06  0.2197023E+01
  0.1752381E+01  0.1537654E+06 -0.9157738E+00  0.5102831E+04 -0.2746631E+01  0.3963729E+06  0.2226125E+01
  0.1783333E+01  0.1498761E+06 -0.8868841E+00  0.4741003E+04 -0.2743279E+01  0.3794326E+06  0.2254534E+01
  0.1814286E+01  0.1454958E+06 -0.8585085E+00  0.4407564E+04 -0.2739539E+01  0.3613868E+06  0.2282330E+01
  0.1845238E+01  0.1409393E+06 -0.8302606E+00  0.4060917E+04 -0.2738702E+01  0.3438785E+06  0.2310136E+01
  0.1876190E+01  0.1362528E+06 -0.8026056E+00  0.3727963E+04 -0.2737965E+01  0.3268379E+06  0.2337317E+01
  0.1907143E+01  0.1310925E+06 -0.7763363E+00  0.3423404E+04 -0.2737729E+01  0.3081150E+06  0.2362696E+01
  0.1938095E+01  0.1259063E+06 -0.7507812E+00  0.3134965E+04 -0.2738323E+01  0.2900800E+06  0.2387552E+01
  0.1969048E+01  0.1206490E+06 -0.7260098E+00  0.2872667E+04 -0.2737219E+01  0.2725498E+06  0.2411288E+01
  0.2000000E+01  0.1153445E+06 -0.7018427E+00  0.2624587E+04 -0.2735992E+01  0.2558091E+06  0.2434629E+01
