VARIABLES="w (rad/s)"
"A   1   1" "B   1   1"
"A   1   2" "B   1   2"
"A   1   3" "B   1   3"
Zone t="Motion of body    1 in DoF   1",I=    64,F=POINT
  0.5000000E-01  0.9215966E+05  0.1193181E-01  0.9136200E-02  0.4239227E-04  0.1933279E+04  0.3157094E-03
  0.8095238E-01  0.9242427E+05  0.5248204E-01 -0.7351146E-02 -0.6000817E-05  0.1930114E+04  0.1404761E-02
  0.1119048E+00  0.9240389E+05  0.1472311E+00  0.6391647E-02  0.1498740E-04  0.1911946E+04  0.3939471E-02
  0.1428571E+00  0.9257088E+05  0.3315048E+00 -0.2253723E-01 -0.2279889E-03  0.1942485E+04  0.8925054E-02
  0.1738095E+00  0.9281065E+05  0.6600826E+00 -0.1729469E-01 -0.3037716E-03  0.1933915E+04  0.1783137E-01
  0.2047619E+00  0.9306057E+05  0.1217728E+01 -0.1652474E-01 -0.2901957E-03  0.1960161E+04  0.3312261E-01
  0.2357143E+00  0.9310196E+05  0.2143056E+01  0.2092535E-01  0.3356528E-03  0.1957615E+04  0.5852658E-01
  0.2666667E+00  0.9350836E+05  0.3658331E+01 -0.1676559E-01 -0.2692677E-03  0.1979350E+04  0.1006415E+00
  0.2976190E+00  0.9382857E+05  0.6135771E+01  0.9228516E-03 -0.3175009E-03  0.2003280E+04  0.1703158E+00
  0.3285715E+00  0.9401941E+05  0.1014586E+02 -0.1390872E-01 -0.3911816E-03  0.2019795E+04  0.2842177E+00
  0.3595238E+00  0.9450568E+05  0.1666367E+02  0.1302959E-01  0.5926304E-03  0.2049331E+04  0.4715706E+00
  0.3904762E+00  0.9509682E+05  0.2718289E+02 -0.1973408E-01 -0.6101131E-03  0.2104794E+04  0.7800926E+00
  0.4214286E+00  0.9538406E+05  0.4369196E+02 -0.2715547E-03 -0.2576038E-03  0.2094037E+04  0.1262900E+01
  0.4523810E+00  0.9585858E+05  0.6965664E+02  0.1804552E-01  0.1935750E-02  0.2136589E+04  0.2040466E+01
  0.4833333E+00  0.9669223E+05  0.1084238E+03  0.3835744E-02  0.3755689E-03  0.2184936E+04  0.3219974E+01
  0.5142857E+00  0.9742045E+05  0.1659203E+03 -0.1305474E-02  0.1148134E-02  0.2238369E+04  0.5001760E+01
  0.5452381E+00  0.9791209E+05  0.2476269E+03 -0.4617616E-02  0.1163185E-02  0.2248698E+04  0.7547704E+01
  0.5761905E+00  0.9864347E+05  0.3610643E+03 -0.3442685E-03  0.1129746E-02  0.2284586E+04  0.1115474E+02
  0.6071429E+00  0.9970756E+05  0.5171999E+03 -0.1156077E-02 -0.2702355E-02  0.2368190E+04  0.1627387E+02
  0.6380953E+00  0.1008266E+06  0.7244874E+03  0.1052173E-01  0.3564835E-02  0.2438759E+04  0.2318627E+02
  0.6690477E+00  0.1016834E+06  0.9964487E+03  0.1003496E-02  0.2458572E-02  0.2464705E+04  0.3231342E+02
  0.7000000E+00  0.1025442E+06  0.1349434E+04 -0.9722028E-02 -0.1312733E-02  0.2517384E+04  0.4448910E+02
  0.7309524E+00  0.1037673E+06  0.1800022E+04  0.4133292E-02  0.4916191E-02  0.2591865E+04  0.6037670E+02
  0.7619048E+00  0.1051654E+06  0.2369640E+04 -0.4826545E-02  0.7543564E-03  0.2672585E+04  0.8089470E+02
  0.7928572E+00  0.1065602E+06  0.3080743E+04 -0.1489588E-01 -0.7359505E-02  0.2775611E+04  0.1073458E+03
  0.8238096E+00  0.1079308E+06  0.3958140E+04 -0.5556669E-02 -0.1039505E-02  0.2863580E+04  0.1405962E+03
  0.8547620E+00  0.1091208E+06  0.5026257E+04  0.9086417E-02  0.8258820E-02  0.2913730E+04  0.1814030E+03
  0.8857143E+00  0.1103933E+06  0.6315475E+04 -0.1350649E-01 -0.5191803E-02  0.2990199E+04  0.2320418E+03
  0.9166667E+00  0.1118181E+06  0.7856224E+04  0.1379949E-01  0.6868362E-02  0.3098864E+04  0.2945376E+03
  0.9476191E+00  0.1133702E+06  0.9680779E+04 -0.8083324E-02 -0.6196976E-02  0.3220913E+04  0.3708732E+03
  0.9785714E+00  0.1148793E+06  0.1181902E+05 -0.1871151E-03 -0.6294250E-04  0.3334406E+04  0.4621063E+03
  0.1009524E+01  0.1162779E+06  0.1430103E+05  0.2660212E-01  0.1459503E-01  0.3442020E+04  0.5706210E+03
  0.1040476E+01  0.1173993E+06  0.1714927E+05 -0.1786221E-01 -0.7694244E-02  0.3535576E+04  0.6986827E+03
  0.1071429E+01  0.1183190E+06  0.2038733E+05 -0.1472575E-01 -0.1436234E-01  0.3621283E+04  0.8484887E+03
  0.1102381E+01  0.1190889E+06  0.2402438E+05  0.1386935E-01  0.1245117E-01  0.3705326E+04  0.1020731E+04
  0.1133333E+01  0.1197243E+06  0.2806216E+05  0.1793356E-01  0.1924896E-01  0.3788993E+04  0.1216316E+04
  0.1164286E+01  0.1201668E+06  0.3249795E+05  0.3381273E-02  0.7503510E-02  0.3865177E+04  0.1437197E+04
  0.1195238E+01  0.1202953E+06  0.3731871E+05  0.7659791E-02  0.1777649E-02  0.3937471E+04  0.1687395E+04
  0.1226190E+01  0.1201194E+06  0.4250148E+05  0.1413645E-01  0.3860474E-02  0.4003503E+04  0.1966240E+04
  0.1257143E+01  0.1195713E+06  0.4803351E+05 -0.5607605E-02 -0.8079529E-02  0.4054464E+04  0.2272791E+04
  0.1288095E+01  0.1187685E+06  0.5375611E+05 -0.5709777E-02 -0.2239227E-01  0.4087033E+04  0.2599627E+04
  0.1319048E+01  0.1175310E+06  0.5969113E+05  0.8398393E-02  0.9132385E-02  0.4084245E+04  0.2945191E+04
  0.1350000E+01  0.1159704E+06  0.6574721E+05  0.9042245E-04  0.1005554E-01  0.4067423E+04  0.3313318E+04
  0.1380952E+01  0.1140241E+06  0.7185220E+05 -0.2298289E-02  0.3517151E-02  0.4040939E+04  0.3705133E+04
  0.1411905E+01  0.1113311E+06  0.7755335E+05 -0.1621085E-02  0.1372528E-01  0.3935836E+04  0.4080017E+04
  0.1442857E+01  0.1088103E+06  0.8347743E+05 -0.2368889E-02  0.4638672E-02  0.3881334E+04  0.4494991E+04
  0.1473810E+01  0.1060444E+06  0.8920445E+05 -0.1428755E-02  0.1284790E-01  0.3798134E+04  0.4909912E+04
  0.1504762E+01  0.1030345E+06  0.9466877E+05  0.2393119E-02  0.6546021E-02  0.3694718E+04  0.5326607E+04
  0.1535714E+01  0.9983968E+05  0.9981957E+05 -0.1192315E-01  0.1309204E-01  0.3571270E+04  0.5740050E+04
  0.1566667E+01  0.9651647E+05  0.1046060E+06  0.1149279E-02  0.7003784E-02  0.3441465E+04  0.6151205E+04
  0.1597619E+01  0.9308916E+05  0.1089885E+06 -0.7698070E-02 -0.2944946E-02  0.3303304E+04  0.6556085E+04
  0.1628572E+01  0.8962404E+05  0.1129448E+06  0.7195723E-02  0.8712769E-02  0.3150165E+04  0.6950143E+04
  0.1659524E+01  0.8616751E+05  0.1164563E+06  0.7355743E-04  0.4119873E-03  0.2992460E+04  0.7334286E+04
  0.1690476E+01  0.8276141E+05  0.1195226E+06 -0.5506059E-02 -0.7476807E-03  0.2821447E+04  0.7701201E+04
  0.1721429E+01  0.7942332E+05  0.1221458E+06 -0.6594836E-02  0.3753662E-02  0.2645861E+04  0.8044669E+04
  0.1752381E+01  0.7614730E+05  0.1243474E+06  0.5328967E-02 -0.1327515E-02  0.2462021E+04  0.8361788E+04
  0.1783333E+01  0.7299360E+05  0.1261493E+06  0.5236474E-02 -0.2593994E-03  0.2282283E+04  0.8663823E+04
  0.1814286E+01  0.6993913E+05  0.1275694E+06 -0.5433090E-02 -0.9536743E-02  0.2099814E+04  0.8956172E+04
  0.1845238E+01  0.6701475E+05  0.1286286E+06 -0.1339623E-02 -0.7629395E-03  0.1921884E+04  0.9233434E+04
  0.1876190E+01  0.6424692E+05  0.1293536E+06  0.8946143E-03  0.1142883E-01  0.1747376E+04  0.9496901E+04
  0.1907143E+01  0.6164149E+05  0.1297708E+06  0.2928316E-02 -0.1968384E-02  0.1579739E+04  0.9748532E+04
  0.1938095E+01  0.5918823E+05  0.1299081E+06  0.9983072E-02  0.5645752E-02  0.1412182E+04  0.9981452E+04
  0.1969048E+01  0.5688447E+05  0.1297816E+06  0.7981804E-02 -0.2319336E-02  0.1243283E+04  0.1018995E+05
  0.2000000E+01  0.5471947E+05  0.1294228E+06  0.9460449E-03 -0.1831055E-03  0.1083624E+04  0.1038123E+05
Zone t="Motion of body    1 in DoF   2",I=    64,F=POINT
  0.5000000E-01  0.3128052E-02  0.7832050E-04  0.1599020E+06  0.4833220E+03  0.5798340E-02  0.7390976E-05
  0.8095238E-01  0.8152233E-02 -0.1482964E-03  0.1575880E+06  0.8009194E+03  0.4193923E-02  0.4529953E-05
  0.1119048E+00 -0.1222083E-01  0.1995564E-03  0.1563324E+06  0.1145939E+04  0.5795093E-03  0.1192093E-05
  0.1428571E+00  0.2138901E-01  0.6127357E-04  0.1556220E+06  0.1531125E+04  0.3684997E-02 -0.1764297E-04
  0.1738095E+00 -0.1185169E-02 -0.4668236E-03  0.1553821E+06  0.1972322E+04  0.1799701E-02  0.8010864E-04
  0.2047619E+00 -0.2284028E-01  0.5826950E-03  0.1554520E+06  0.2489599E+04 -0.9687557E-03 -0.3862381E-04
  0.2357143E+00 -0.1229951E-02 -0.4029274E-04  0.1557458E+06  0.3110718E+04 -0.1618356E-03  0.6675720E-05
  0.2666667E+00 -0.2155781E-01 -0.6055832E-04  0.1562792E+06  0.3858311E+04 -0.6866454E-03  0.7724762E-04
  0.2976190E+00 -0.6152344E-03 -0.8478165E-03  0.1568800E+06  0.4785129E+04  0.1589356E-02  0.6771088E-04
  0.3285715E+00 -0.1560377E-01 -0.6680489E-03  0.1576444E+06  0.5916236E+04  0.2554188E-02  0.2079010E-03
  0.3595238E+00 -0.1039821E-02 -0.1077652E-02  0.1582547E+06  0.7313367E+04 -0.2970916E-03  0.4348755E-03
  0.3904762E+00  0.2305566E-02 -0.1533508E-02  0.1588872E+06  0.9019223E+04 -0.1406786E-02 -0.2155304E-03
  0.4214286E+00 -0.6137136E-02 -0.2613068E-03  0.1589774E+06  0.1101053E+05  0.3005205E-02  0.2098083E-03
  0.4523810E+00  0.4587274E-02 -0.6256104E-03  0.1588968E+06  0.1338769E+05  0.2023797E-03  0.1335144E-03
  0.4833333E+00 -0.3993593E-02  0.6961823E-03  0.1582227E+06  0.1593899E+05  0.3535830E-02  0.3890991E-03
  0.5142857E+00 -0.7684496E-02 -0.2855301E-02  0.1570276E+06  0.1879024E+05  0.2373589E-02  0.5226135E-03
  0.5452381E+00 -0.1326515E-01  0.2544403E-02  0.1555255E+06  0.2177028E+05  0.1511220E-02  0.2861023E-03
  0.5761905E+00  0.5349403E-02 -0.1609802E-02  0.1536042E+06  0.2482190E+05  0.3866400E-02  0.7095337E-03
  0.6071429E+00 -0.9122959E-02 -0.1182556E-03  0.1513176E+06  0.2802108E+05  0.2513212E-03  0.9078979E-03
  0.6380953E+00 -0.7723907E-02 -0.3952026E-02  0.1489509E+06  0.3115675E+05 -0.6217387E-03  0.9002686E-03
  0.6690477E+00  0.1876994E-01  0.1495361E-02  0.1462983E+06  0.3431394E+05 -0.2417513E-02  0.9384155E-03
  0.7000000E+00  0.4359654E-03 -0.3547668E-02  0.1434495E+06  0.3749933E+05  0.7847377E-03  0.1205444E-02
  0.7309524E+00  0.1893382E-01  0.3082275E-02  0.1405937E+06  0.4060019E+05  0.3298284E-02 -0.6027222E-03
  0.7619048E+00 -0.4472065E-01 -0.3543854E-02  0.1375933E+06  0.4364377E+05 -0.2403259E-03  0.1525879E-03
  0.7928572E+00 -0.7775108E-02  0.2223969E-02  0.1344649E+06  0.4661756E+05  0.3849063E-04  0.1533508E-02
  0.8238096E+00 -0.1674409E-01  0.1215363E-01  0.1313269E+06  0.4948450E+05 -0.3334001E-03  0.5035400E-03
  0.8547620E+00 -0.5712482E-03  0.1525879E-04  0.1281820E+06  0.5222189E+05  0.2356399E-02  0.1983643E-02
  0.8857143E+00 -0.2325735E-02 -0.7591248E-03  0.1250136E+06  0.5482104E+05  0.1412668E-02  0.4577637E-03
  0.9166667E+00 -0.8522728E-02 -0.1034927E-01  0.1218767E+06  0.5726550E+05  0.1265092E-02  0.1556396E-02
  0.9476191E+00  0.1207668E-02 -0.4760742E-02  0.1187686E+06  0.5954204E+05 -0.8051120E-03  0.1052856E-02
  0.9785714E+00 -0.2151823E-01  0.6568909E-02  0.1156872E+06  0.6164253E+05  0.3960602E-02  0.1571655E-02
  0.1009524E+01 -0.1224302E-02  0.9925842E-02  0.1126547E+06  0.6355603E+05  0.7255123E-03  0.1663208E-02
  0.1040476E+01  0.3226344E-03  0.1548004E-01  0.1096751E+06  0.6528473E+05  0.1495850E-02  0.2700806E-02
  0.1071429E+01 -0.1167806E-02 -0.2281189E-02  0.1068096E+06  0.6681156E+05  0.2534993E-02  0.1403809E-02
  0.1102381E+01 -0.1010442E-02  0.8537292E-02  0.1040625E+06  0.6813015E+05  0.1245750E-02  0.2761841E-02
  0.1133333E+01 -0.2073400E-02 -0.5844116E-02  0.1014037E+06  0.6925839E+05 -0.1265582E-02 -0.1083374E-02
  0.1164286E+01 -0.1338093E-01 -0.2050781E-01  0.9886215E+05  0.7019188E+05  0.1546473E-02  0.2502441E-02
  0.1195238E+01 -0.4812902E-02 -0.1454163E-01  0.9640084E+05  0.7094952E+05  0.1251099E-02  0.1159668E-02
  0.1226190E+01  0.4853184E-03 -0.6996155E-02  0.9408541E+05  0.7151288E+05 -0.8213081E-03  0.2136230E-02
  0.1257143E+01 -0.6724271E-02  0.7804871E-02  0.9190773E+05  0.7192230E+05  0.9710138E-04  0.7629395E-03
  0.1288095E+01 -0.3411651E-02 -0.4333496E-02  0.8982505E+05  0.7208572E+05 -0.1421521E-03  0.2548218E-02
  0.1319048E+01 -0.1698187E-01 -0.2813721E-01  0.8787307E+05  0.7212220E+05 -0.4858575E-03  0.1876831E-02
  0.1350000E+01  0.2430103E-02 -0.2555847E-02  0.8603472E+05  0.7199841E+05 -0.4521123E-03  0.9002686E-03
  0.1380952E+01 -0.1114891E-01  0.1068878E-01  0.8430415E+05  0.7171623E+05  0.9060564E-03 -0.4119873E-03
  0.1411905E+01 -0.7629909E-02  0.2105713E-02  0.8270751E+05  0.7141968E+05  0.1296868E-03  0.2456665E-02
  0.1442857E+01 -0.4653175E-02  0.8880615E-02  0.8124683E+05  0.7087016E+05  0.8037303E-03  0.2090454E-02
  0.1473810E+01  0.3509768E-02 -0.8190155E-02  0.7989819E+05  0.7019322E+05  0.7868506E-03  0.1922607E-02
  0.1504762E+01 -0.1521050E-03  0.9986877E-02  0.7865144E+05  0.6939922E+05 -0.1297963E-02  0.3311157E-02
  0.1535714E+01  0.5136889E-02 -0.4108429E-02  0.7751198E+05  0.6849877E+05 -0.4967977E-03  0.1449585E-02
  0.1566667E+01 -0.2678404E-02 -0.5332947E-02  0.7646274E+05  0.6750622E+05 -0.3506275E-03  0.1548767E-02
  0.1597619E+01 -0.8882388E-02 -0.1634216E-01  0.7550752E+05  0.6642009E+05  0.8404841E-03 -0.6103516E-04
  0.1628572E+01  0.1036259E-01  0.5325317E-02  0.7466803E+05  0.6526966E+05  0.1124332E-03  0.2258301E-02
  0.1659524E+01  0.1011415E-02 -0.1590729E-02  0.7392746E+05  0.6404176E+05 -0.9194679E-03  0.2014160E-02
  0.1690476E+01 -0.9640115E-02 -0.3215790E-02  0.7326895E+05  0.6274321E+05  0.2419055E-02  0.2693176E-02
  0.1721429E+01  0.1225009E-01 -0.7190704E-02  0.7267859E+05  0.6138813E+05  0.1311876E-02 -0.5722046E-03
  0.1752381E+01  0.2699313E-03  0.9067535E-02  0.7217335E+05  0.5998516E+05 -0.4876179E-03  0.3105164E-02
  0.1783333E+01 -0.4671757E-02 -0.7808685E-02  0.7173488E+05  0.5854434E+05  0.1129436E-02  0.1853943E-02
  0.1814286E+01  0.3061370E-02  0.2761841E-02  0.7134752E+05  0.5708076E+05  0.1682071E-03  0.2632141E-02
  0.1845238E+01  0.4829259E-02 -0.9040833E-03  0.7103090E+05  0.5557447E+05 -0.1323085E-03  0.2098083E-02
  0.1876190E+01 -0.2944094E-02  0.5340576E-03  0.7077856E+05  0.5406561E+05 -0.9108800E-03  0.1136780E-02
  0.1907143E+01  0.1856200E-02 -0.6370544E-02  0.7058338E+05  0.5253014E+05 -0.6400691E-03  0.1022339E-02
  0.1938095E+01  0.6818092E-02 -0.5687714E-02  0.7043520E+05  0.5095716E+05  0.0000000E+00  0.2906799E-02
  0.1969048E+01 -0.3208220E-02  0.1583099E-02  0.7032088E+05  0.4937864E+05  0.5889487E-03  0.6866455E-03
  0.2000000E+01  0.3509521E-02 -0.1205635E-01  0.7024412E+05  0.4777286E+05  0.4577637E-03 -0.6103516E-04
Zone t="Motion of body    1 in DoF   3",I=    64,F=POINT
  0.5000000E-01  0.1978037E+04  0.3301911E-03 -0.2121925E-02 -0.9487839E-05  0.4297350E+04  0.8119283E-05
  0.8095238E-01  0.1974403E+04  0.1451221E-02  0.1057905E-01  0.4824195E-04  0.4293398E+04  0.3788907E-04
  0.1119048E+00  0.1949735E+04  0.4085097E-02 -0.2965724E-02 -0.1500081E-04  0.4238498E+04  0.1193186E-03
  0.1428571E+00  0.1988193E+04  0.9227145E-02  0.2359867E-02  0.2910798E-04  0.4283228E+04  0.2334862E-03
  0.1738095E+00  0.1972792E+04  0.1847885E-01  0.5563710E-02  0.8259861E-04  0.4257435E+04  0.5231882E-03
  0.2047619E+00  0.2000908E+04  0.3427730E-01 -0.1105220E-01 -0.1891955E-03  0.4253098E+04  0.9481922E-03
  0.2357143E+00  0.1999312E+04  0.6067021E-01 -0.4329103E-02 -0.7933113E-04  0.4264943E+04  0.1685060E-02
  0.2666667E+00  0.2018553E+04  0.1043295E+00  0.1337886E-01  0.3537706E-03  0.4249336E+04  0.2853708E-02
  0.2976190E+00  0.2045466E+04  0.1763442E+00  0.6069031E-02  0.1789707E-03  0.4264533E+04  0.4823730E-02
  0.3285715E+00  0.2062993E+04  0.2943220E+00  0.4226021E-02  0.1617160E-03  0.4259789E+04  0.8183212E-02
  0.3595238E+00  0.2093503E+04  0.4880270E+00 -0.2859507E-02 -0.1641889E-03  0.4272349E+04  0.1376936E-01
  0.3904762E+00  0.2152093E+04  0.8048130E+00 -0.2202987E-02 -0.1621260E-03  0.4267728E+04  0.2302135E-01
  0.4214286E+00  0.2139263E+04  0.1308498E+01  0.1543336E-02  0.9924523E-04  0.4276384E+04  0.3770183E-01
  0.4523810E+00  0.2182951E+04  0.2109542E+01 -0.1395577E-02 -0.1448062E-03  0.4266335E+04  0.6172567E-01
  0.4833333E+00  0.2232375E+04  0.3326018E+01  0.3299055E-02  0.3147721E-03  0.4281175E+04  0.9876427E-01
  0.5142857E+00  0.2287942E+04  0.5154734E+01 -0.3004074E-02 -0.4426260E-03  0.4285528E+04  0.1552360E+00
  0.5452381E+00  0.2296144E+04  0.7803238E+01  0.6650067E-02  0.1095377E-02  0.4271830E+04  0.2379189E+00
  0.5761905E+00  0.2333708E+04  0.1154568E+02  0.1823961E-02  0.4572663E-03  0.4289076E+04  0.3569366E+00
  0.6071429E+00  0.2418306E+04  0.1676707E+02 -0.5170934E-02 -0.8475557E-03  0.4285045E+04  0.5279710E+00
  0.6380953E+00  0.2491598E+04  0.2386559E+02  0.3545106E-02  0.9668544E-03  0.4293174E+04  0.7636898E+00
  0.6690477E+00  0.2517195E+04  0.3338198E+02  0.6317464E-02  0.1776300E-02  0.4302526E+04  0.1083344E+01
  0.7000000E+00  0.2570275E+04  0.4595606E+02  0.1123156E-01  0.3651537E-02  0.4293776E+04  0.1515923E+01
  0.7309524E+00  0.2646360E+04  0.6233856E+02  0.1977927E-02  0.6647557E-03  0.4295274E+04  0.2089714E+01
  0.7619048E+00  0.2728739E+04  0.8349995E+02  0.3634929E-02  0.1183510E-02  0.4315984E+04  0.2850202E+01
  0.7928572E+00  0.2833918E+04  0.1104498E+03 -0.3223591E-03 -0.4573464E-03  0.4326151E+04  0.3850819E+01
  0.8238096E+00  0.2921337E+04  0.1445587E+03  0.7154211E-02  0.2976716E-02  0.4315514E+04  0.5132674E+01
  0.8547620E+00  0.2975833E+04  0.1874349E+03  0.3958572E-02  0.1481324E-02  0.4323976E+04  0.6765995E+01
  0.8857143E+00  0.3054629E+04  0.2400082E+03  0.1675390E-02  0.9059906E-04  0.4340027E+04  0.8809984E+01
  0.9166667E+00  0.3164990E+04  0.3039752E+03  0.3433228E-02  0.3651321E-02  0.4344862E+04  0.1139501E+02
  0.9476191E+00  0.3283806E+04  0.3816259E+03  0.3792077E-02  0.3638625E-02  0.4336590E+04  0.1457188E+02
  0.9785714E+00  0.3401551E+04  0.4754013E+03 -0.5979886E-02 -0.4130125E-02  0.4352874E+04  0.1859508E+02
  0.1009524E+01  0.3514121E+04  0.5872216E+03 -0.1643739E-02 -0.1159430E-02  0.4378880E+04  0.2346763E+02
  0.1040476E+01  0.3607809E+04  0.7192172E+03 -0.7552577E-03 -0.1076102E-02  0.4386679E+04  0.2938357E+02
  0.1071429E+01  0.3693798E+04  0.8743563E+03  0.2933757E-02  0.5395412E-03  0.4378505E+04  0.3644267E+02
  0.1102381E+01  0.3777305E+04  0.1052357E+04 -0.4543527E-02 -0.4635334E-02  0.4376208E+04  0.4475009E+02
  0.1133333E+01  0.3869695E+04  0.1256105E+04  0.3621718E-02  0.3223181E-02  0.4391190E+04  0.5418523E+02
  0.1164286E+01  0.3949940E+04  0.1485785E+04 -0.1015692E-02 -0.1662493E-02  0.4415189E+04  0.6582159E+02
  0.1195238E+01  0.4019998E+04  0.1743455E+04  0.1659621E-02  0.8065701E-03  0.4425121E+04  0.7897540E+02
  0.1226190E+01  0.4085066E+04  0.2029516E+04 -0.2470146E-02 -0.5881786E-02  0.4429108E+04  0.9414474E+02
  0.1257143E+01  0.4136703E+04  0.2344450E+04 -0.1116666E-02 -0.4902840E-02  0.4425570E+04  0.1104277E+03
  0.1288095E+01  0.4169377E+04  0.2681261E+04 -0.5034554E-03  0.2783775E-02  0.4429597E+04  0.1285148E+03
  0.1319048E+01  0.4173018E+04  0.3045851E+04 -0.1781477E-02 -0.1734257E-02  0.4447404E+04  0.1499017E+03
  0.1350000E+01  0.4153523E+04  0.3430223E+04 -0.1463713E-02 -0.3606796E-02  0.4464100E+04  0.1739153E+03
  0.1380952E+01  0.4119471E+04  0.3831875E+04 -0.1049699E-03  0.1824856E-02  0.4470716E+04  0.1993141E+03
  0.1411905E+01  0.3850532E+04  0.4094251E+04  0.6538378E-03  0.3142834E-02  0.4438632E+04  0.2165682E+03
  0.1442857E+01  0.3791296E+04  0.4504876E+04  0.4642600E-02  0.1632071E-01  0.4424490E+04  0.2401454E+03
  0.1473810E+01  0.3705885E+04  0.4922582E+04  0.5021349E-03  0.3661156E-02  0.4418303E+04  0.2667382E+03
  0.1504762E+01  0.3606166E+04  0.5349104E+04  0.7554549E-03 -0.2634048E-02  0.4423439E+04  0.2978088E+03
  0.1535714E+01  0.3483413E+04  0.5772461E+04  0.3040402E-02  0.5185127E-02  0.4444344E+04  0.3329195E+03
  0.1566667E+01  0.3351928E+04  0.6186959E+04  0.5356809E-04  0.5475998E-02  0.4453780E+04  0.3688073E+03
  0.1597619E+01  0.3212493E+04  0.6585793E+04  0.9503201E-03  0.2064705E-02  0.4460050E+04  0.4025907E+03
  0.1628572E+01  0.3057647E+04  0.6976301E+04  0.1414784E-02  0.2132416E-02  0.4448634E+04  0.4332479E+03
  0.1659524E+01  0.2895754E+04  0.7354291E+04  0.2298670E-04  0.1550674E-02  0.4425110E+04  0.4571337E+03
  0.1690476E+01  0.2715365E+04  0.7717058E+04  0.1141830E-02  0.1683235E-02  0.4403732E+04  0.4842068E+03
  0.1721429E+01  0.2537638E+04  0.8067863E+04 -0.2871945E-02  0.1086998E-01  0.4396083E+04  0.5163685E+03
  0.1752381E+01  0.2354643E+04  0.8410469E+04  0.2246525E-02 -0.6313324E-03  0.4402361E+04  0.5574163E+03
  0.1783333E+01  0.2169154E+04  0.8716229E+04  0.3007550E-02  0.2902031E-02  0.4418880E+04  0.6074435E+03
  0.1814286E+01  0.1980416E+04  0.9007519E+04  0.2270796E-03 -0.4883766E-02  0.4416585E+04  0.6490798E+03
  0.1845238E+01  0.1799134E+04  0.9271721E+04 -0.4878875E-03  0.1572609E-02  0.4415766E+04  0.6869576E+03
  0.1876190E+01  0.1622411E+04  0.9524438E+04  0.1211796E-02 -0.1468658E-03  0.4400450E+04  0.7127535E+03
  0.1907143E+01  0.1454277E+04  0.9764943E+04 -0.1000108E-03  0.2927780E-02  0.4371408E+04  0.7210531E+03
  0.1938095E+01  0.1282579E+04  0.9983297E+04  0.2519387E-02  0.2108574E-02  0.4349463E+04  0.7306143E+03
  0.1969048E+01  0.1110340E+04  0.1019624E+05  0.1549865E-02  0.1436234E-02  0.4339909E+04  0.7540054E+03
  0.2000000E+01  0.9510894E+03  0.1040021E+05  0.1316071E-02  0.1317024E-02  0.4336396E+04  0.7920750E+03
