VARIABLES="w (rad/s)"
"A   1   1" "B   1   1"
"A   1   2" "B   1   2"
"A   1   3" "B   1   3"
Zone t="Motion of body    1 in DoF   1",I=    64,F=POINT
  0.5000000E-01  0.2662115E+06  0.2267723E-01  0.1525879E-01  0.2657563E-04 -0.7811264E+06 -0.6142427E-01
  0.8095238E-01  0.2679062E+06  0.9959877E-01  0.3824009E-01  0.1899128E-03 -0.7845308E+06 -0.2705884E+00
  0.1119048E+00  0.2683678E+06  0.2788491E+00  0.7465444E-02  0.6251005E-04 -0.7854134E+06 -0.7545834E+00
  0.1428571E+00  0.2688209E+06  0.6270196E+00  0.3786469E-01  0.3956942E-03 -0.7862339E+06 -0.1695951E+01
  0.1738095E+00  0.2694411E+06  0.1248225E+01  0.2286937E-01  0.3234181E-03 -0.7871859E+06 -0.3372938E+01
  0.2047619E+00  0.2696045E+06  0.2300097E+01  0.3673819E-01  0.6779418E-03 -0.7877653E+06 -0.6208813E+01
  0.2357143E+00  0.2702928E+06  0.4046795E+01  0.2139467E-01  0.5934602E-03 -0.7887486E+06 -0.1090093E+02
  0.2666667E+00  0.2707053E+06  0.6889373E+01 -0.1773834E-02  0.3455859E-04 -0.7897528E+06 -0.1852395E+02
  0.2976190E+00  0.2712100E+06  0.1153117E+02  0.1556030E-01  0.7460676E-03 -0.7910067E+06 -0.3095234E+02
  0.3285715E+00  0.2720816E+06  0.1904700E+02  0.5825871E-01  0.2127908E-02 -0.7924273E+06 -0.5098758E+02
  0.3595238E+00  0.2728786E+06  0.3121533E+02  0.4753466E-02  0.3166795E-03 -0.7940527E+06 -0.8335006E+02
  0.3904762E+00  0.2735442E+06  0.5073048E+02  0.3684997E-01  0.2579838E-02 -0.7956082E+06 -0.1351154E+03
  0.4214286E+00  0.2747280E+06  0.8148943E+02  0.2020367E-01  0.5563349E-03 -0.7980487E+06 -0.2163558E+03
  0.4523810E+00  0.2758597E+06  0.1297219E+03  0.2371216E-01  0.1539439E-02 -0.8003313E+06 -0.3433080E+03
  0.4833333E+00  0.2772496E+06  0.2014558E+03  0.2601360E-01  0.1661688E-02 -0.8029893E+06 -0.5311078E+03
  0.5142857E+00  0.2784322E+06  0.3075880E+03 -0.3204346E-02  0.2115965E-03 -0.8058200E+06 -0.8083430E+03
  0.5452381E+00  0.2799845E+06  0.4587765E+03 -0.1788277E-01 -0.3029883E-02 -0.8089982E+06 -0.1200871E+04
  0.5761905E+00  0.2818642E+06  0.6685570E+03  0.1265849E-01  0.9975433E-03 -0.8127399E+06 -0.1742167E+04
  0.6071429E+00  0.2836408E+06  0.9562568E+03  0.1211368E-01  0.2947807E-02 -0.8165421E+06 -0.2481398E+04
  0.6380953E+00  0.2856973E+06  0.1338306E+04 -0.5786953E-02  0.2532005E-03 -0.8207350E+06 -0.3456375E+04
  0.6690477E+00  0.2877357E+06  0.1840435E+04 -0.3083470E-01 -0.9207487E-02 -0.8252440E+06 -0.4731840E+04
  0.7000000E+00  0.2901320E+06  0.2495296E+04 -0.2410888E-01 -0.6613731E-02 -0.8301870E+06 -0.6382798E+04
  0.7309524E+00  0.2927537E+06  0.3332841E+04 -0.6220814E-02 -0.1043320E-02 -0.8353251E+06 -0.8476972E+04
  0.7619048E+00  0.2956051E+06  0.4395628E+04 -0.1213646E-01 -0.6669998E-02 -0.8411409E+06 -0.1111700E+05
  0.7928572E+00  0.2982609E+06  0.5723768E+04 -0.4618876E-02 -0.2078056E-02 -0.8466896E+06 -0.1439592E+05
  0.8238096E+00  0.3011501E+06  0.7372865E+04 -0.8964758E-02 -0.2117157E-03 -0.8526612E+06 -0.1843632E+05
  0.8547620E+00  0.3044797E+06  0.9405749E+04  0.4355768E-02 -0.5226135E-03 -0.8591209E+06 -0.2336629E+05
  0.8857143E+00  0.3078410E+06  0.1188261E+05  0.4410282E-02  0.2891541E-02 -0.8656269E+06 -0.2932291E+05
  0.9166667E+00  0.3111929E+06  0.1487492E+05 -0.5260121E-02  0.1052856E-02 -0.8721488E+06 -0.3646119E+05
  0.9476191E+00  0.3146331E+06  0.1846220E+05 -0.3822672E-01 -0.1961517E-01 -0.8785854E+06 -0.4493406E+05
  0.9785714E+00  0.3181983E+06  0.2273185E+05 -0.2120638E-01 -0.1813126E-01 -0.8849767E+06 -0.5490906E+05
  0.1009524E+01  0.3217959E+06  0.2777540E+05 -0.1922608E-01 -0.2044678E-02 -0.8916674E+06 -0.6660330E+05
  0.1040476E+01  0.3248627E+06  0.3363004E+05  0.2346432E-03 -0.1831055E-02 -0.8969404E+06 -0.8003227E+05
  0.1071429E+01  0.3281206E+06  0.4045947E+05  0.1253255E-02  0.1564026E-02 -0.9025308E+06 -0.9554084E+05
  0.1102381E+01  0.3309757E+06  0.4828102E+05  0.6422533E-02  0.6561279E-02 -0.9065504E+06 -0.1130373E+06
  0.1133333E+01  0.3338690E+06  0.5725542E+05  0.9424546E-02  0.1249695E-01 -0.9102525E+06 -0.1328387E+06
  0.1164286E+01  0.3362307E+06  0.6740027E+05 -0.1174271E-01 -0.1969910E-01 -0.9130675E+06 -0.1550170E+06
  0.1195238E+01  0.3376200E+06  0.7864288E+05 -0.2349002E-02 -0.3204346E-03 -0.9134430E+06 -0.1792319E+06
  0.1226190E+01  0.3384686E+06  0.9111161E+05  0.7366884E-02  0.7034302E-02 -0.9126789E+06 -0.2057552E+06
  0.1257143E+01  0.3380888E+06  0.1045167E+06 -0.1626448E-01 -0.1657104E-01 -0.9092714E+06 -0.2338722E+06
  0.1288095E+01  0.3375555E+06  0.1193330E+06 -0.1847978E-02 -0.1214600E-01 -0.9049589E+06 -0.2643542E+06
  0.1319048E+01  0.3358137E+06  0.1349357E+06 -0.1855513E-01 -0.1589966E-01 -0.8980224E+06 -0.2958715E+06
  0.1350000E+01  0.3328447E+06  0.1512830E+06 -0.3797743E-02  0.2960205E-02 -0.8889164E+06 -0.3284506E+06
  0.1380952E+01  0.3284474E+06  0.1679159E+06  0.1440851E-01  0.1849365E-01 -0.8763302E+06 -0.3606069E+06
  0.1411905E+01  0.3219054E+06  0.1832376E+06  0.7521837E-02  0.1669312E-01 -0.8609044E+06 -0.3900102E+06
  0.1442857E+01  0.3156569E+06  0.2001527E+06 -0.4780080E-02 -0.1501465E-01 -0.8449884E+06 -0.4213381E+06
  0.1473810E+01  0.3081542E+06  0.2165022E+06  0.2981750E-02 -0.3601074E-02 -0.8265919E+06 -0.4505127E+06
  0.1504762E+01  0.2998395E+06  0.2322269E+06 -0.4177818E-02  0.3906250E-02 -0.8067956E+06 -0.4775097E+06
  0.1535714E+01  0.2908018E+06  0.2470914E+06 -0.1430777E-02 -0.7385254E-02 -0.7861386E+06 -0.5021477E+06
  0.1566667E+01  0.2809804E+06  0.2605366E+06  0.1285634E-02  0.9155273E-02 -0.7645131E+06 -0.5233142E+06
  0.1597619E+01  0.2704518E+06  0.2720636E+06  0.0000000E+00  0.2746582E-02 -0.7417326E+06 -0.5396710E+06
  0.1628572E+01  0.2599146E+06  0.2823011E+06 -0.1274243E-01 -0.1879883E-01 -0.7197038E+06 -0.5532626E+06
  0.1659524E+01  0.2493855E+06  0.2908605E+06  0.5222578E-02  0.9155273E-03 -0.6981312E+06 -0.5630011E+06
  0.1690476E+01  0.2387804E+06  0.2971990E+06 -0.8159799E-02 -0.5310059E-02 -0.6766958E+06 -0.5676327E+06
  0.1721429E+01  0.2286500E+06  0.3021277E+06  0.2056454E-02 -0.1770020E-02 -0.6566842E+06 -0.5693264E+06
  0.1752381E+01  0.2190541E+06  0.3056878E+06 -0.1288704E-02 -0.1525879E-02 -0.6380780E+06 -0.5680819E+06
  0.1783333E+01  0.2098109E+06  0.3076730E+06 -0.3713447E-02 -0.1940918E-01 -0.6208678E+06 -0.5642006E+06
  0.1814286E+01  0.2010743E+06  0.3081062E+06  0.8410357E-04  0.1165771E-01 -0.6049851E+06 -0.5572276E+06
  0.1845238E+01  0.1927876E+06  0.3068875E+06 -0.7276966E-02  0.7934570E-03 -0.5902539E+06 -0.5468951E+06
  0.1876190E+01  0.1852192E+06  0.3049892E+06  0.8458172E-03  0.4821777E-02 -0.5774146E+06 -0.5360115E+06
  0.1907143E+01  0.1783506E+06  0.3023303E+06 -0.1105719E-01  0.7141113E-02 -0.5661733E+06 -0.5240227E+06
  0.1938095E+01  0.1719609E+06  0.2981349E+06  0.5999291E-02  0.1831055E-02 -0.5559302E+06 -0.5088382E+06
  0.1969048E+01  0.1662828E+06  0.2934995E+06  0.2030323E-02 -0.1385498E-01 -0.5472592E+06 -0.4933876E+06
  0.2000000E+01  0.1612444E+06  0.2884268E+06  0.7995605E-02 -0.3051758E-03 -0.5398629E+06 -0.4773168E+06
Zone t="Motion of body    1 in DoF   2",I=    64,F=POINT
  0.5000000E-01  0.3814697E-03 -0.2789497E-04  0.3095343E+05  0.9295959E+02  0.7929802E-02  0.9685755E-06
  0.8095238E-01 -0.6550059E-02  0.1020432E-03  0.3054028E+05  0.1541431E+03 -0.1597461E-01 -0.3210008E-03
  0.1119048E+00  0.6545046E-02 -0.1201630E-03  0.3031017E+05  0.2207469E+03 -0.2088364E-01 -0.7136166E-04
  0.1428571E+00  0.1495361E-02 -0.1239777E-04  0.3020541E+05  0.2953310E+03 -0.9090662E-02 -0.4628152E-03
  0.1738095E+00  0.8735134E-02  0.4196167E-04  0.3017902E+05  0.3810135E+03  0.5535315E-01 -0.3155023E-03
  0.2047619E+00  0.3651464E-02 -0.2489090E-03  0.3022366E+05  0.4818900E+03 -0.1024063E-01 -0.2360642E-03
  0.2357143E+00  0.1327052E-01 -0.3824234E-03  0.3031461E+05  0.6035214E+03 -0.8582548E-01  0.7722378E-03
  0.2666667E+00 -0.1092911E-01  0.1564026E-03  0.3044920E+05  0.7505856E+03 -0.2538264E-01 -0.4416108E-03
  0.2976190E+00  0.9536133E-02  0.1907349E-05  0.3061683E+05  0.9338678E+03 -0.2310173E-01  0.1074672E-03
  0.3285715E+00 -0.4829738E-02 -0.2803802E-03  0.3081068E+05  0.1158828E+04 -0.1377810E-01  0.1333177E-02
  0.3595238E+00 -0.9676699E-02  0.1449585E-03  0.3098240E+05  0.1438472E+04  0.4158885E-01 -0.1657009E-02
  0.3904762E+00  0.1086351E-01 -0.4005432E-03  0.3116766E+05  0.1782140E+04  0.6826330E-02 -0.4867315E-03
  0.4214286E+00 -0.2244852E-02  0.4425049E-03  0.3125757E+05  0.2186892E+04 -0.3166441E-01 -0.2482295E-02
  0.4523810E+00  0.1335706E-01  0.5340576E-03  0.3129976E+05  0.2673714E+04  0.1961924E-01  0.7182360E-03
  0.4833333E+00  0.4988045E-02 -0.2441406E-02  0.3123899E+05  0.3202837E+04 -0.3812658E-01  0.3182411E-02
  0.5142857E+00  0.2314250E-02  0.5340576E-03  0.3108468E+05  0.3799571E+04  0.2839221E-01 -0.1893997E-02
  0.5452381E+00 -0.1382486E-01  0.4577637E-04  0.3085297E+05  0.4431559E+04  0.2509080E-01 -0.2417803E-02
  0.5761905E+00 -0.3707507E-03  0.1663208E-02  0.3053606E+05  0.5087650E+04  0.5322093E-01 -0.5553007E-02
  0.6071429E+00  0.1075655E-01  0.1525879E-02  0.3014552E+05  0.5782701E+04 -0.1665003E-02 -0.1913309E-02
  0.6380953E+00  0.1176521E-01  0.3967285E-02  0.2973683E+05  0.6478980E+04  0.1152309E-01 -0.8616447E-02
  0.6690477E+00 -0.5063094E-02 -0.1419067E-02  0.2926786E+05  0.7189908E+04  0.5117260E-03 -0.6914139E-03
  0.7000000E+00  0.7019043E-02  0.1113892E-02  0.2874437E+05  0.7917500E+04  0.2924238E-01 -0.5304337E-02
  0.7309524E+00  0.5886810E-02  0.2410889E-02  0.2820283E+05  0.8641660E+04  0.5099815E-01  0.3386497E-02
  0.7619048E+00 -0.8811950E-03 -0.7629395E-02  0.2763734E+05  0.9364048E+04 -0.2557719E-01  0.3151417E-02
  0.7928572E+00  0.7929071E-02  0.1647949E-02  0.2703633E+05  0.1008347E+05  0.3642176E-02 -0.1047993E-01
  0.8238096E+00  0.1081698E-01  0.4272461E-02  0.2641585E+05  0.1079254E+05  0.3876818E-01 -0.1914120E-01
  0.8547620E+00  0.1249606E-01 -0.3051758E-04  0.2578775E+05  0.1148507E+05  0.4585160E-01  0.2231693E-01
  0.8857143E+00 -0.8200369E-02  0.3356934E-02  0.2514477E+05  0.1215776E+05  0.1150162E-01 -0.4827499E-02
  0.9166667E+00  0.5593040E-02  0.4058838E-02  0.2449376E+05  0.1280639E+05  0.1093327E-01  0.8563042E-02
  0.9476191E+00 -0.9210480E-02  0.7019043E-03  0.2383242E+05  0.1342807E+05 -0.2400844E-01 -0.6483078E-02
  0.9785714E+00 -0.8669665E-02  0.4272461E-02  0.2317913E+05  0.1401833E+05  0.3148991E-01 -0.1034737E-01
  0.1009524E+01 -0.6408692E-02 -0.5798340E-03  0.2253537E+05  0.1457409E+05 -0.2983764E-01 -0.2143764E-01
  0.1040476E+01 -0.1114555E-02 -0.1403809E-02  0.2188656E+05  0.1509665E+05  0.2451654E-01  0.1702023E-01
  0.1071429E+01  0.8658854E-02 -0.6225586E-02  0.2125520E+05  0.1557936E+05  0.9143957E-02  0.1631165E-01
  0.1102381E+01  0.3875666E-03 -0.0000000E+00  0.2063254E+05  0.1602561E+05 -0.1401728E-01  0.9841919E-03
  0.1133333E+01  0.5116182E-02  0.4577637E-02  0.2002769E+05  0.1643084E+05  0.2397706E-01  0.4573822E-02
  0.1164286E+01  0.2306605E-02 -0.3356934E-02  0.1944746E+05  0.1679519E+05  0.1858635E-01  0.1107025E-01
  0.1195238E+01 -0.6536354E-02 -0.6225586E-02  0.1887412E+05  0.1712208E+05 -0.2470921E-01  0.5331039E-02
  0.1226190E+01  0.7740206E-02 -0.2197266E-02  0.1833410E+05  0.1740700E+05 -0.4597303E-02 -0.2411842E-01
  0.1257143E+01  0.2451810E-02  0.2014160E-02  0.1781174E+05  0.1766429E+05 -0.3304330E-01 -0.1015472E-01
  0.1288095E+01 -0.7842058E-02  0.2807617E-02  0.1731845E+05  0.1786500E+05  0.7453362E-02 -0.1086426E-01
  0.1319048E+01 -0.1133667E-02 -0.4150391E-02  0.1684568E+05  0.1803827E+05 -0.4463092E-02  0.1383781E-01
  0.1350000E+01  0.7414641E-02 -0.1220703E-03  0.1640495E+05  0.1818123E+05 -0.9557935E-02 -0.3221130E-01
  0.1380952E+01 -0.6718077E-02 -0.4821777E-02  0.1597264E+05  0.1828946E+05  0.3987891E-01 -0.2729225E-01
  0.1411905E+01  0.4041906E-02  0.2502441E-02  0.1557898E+05  0.1843307E+05 -0.4148628E-02 -0.6059647E-02
  0.1442857E+01 -0.3130318E-02 -0.3540039E-02  0.1520221E+05  0.1848544E+05  0.4813789E-02  0.1323891E-01
  0.1473810E+01  0.2277725E-03  0.9765625E-03  0.1484698E+05  0.1851135E+05  0.9962460E-02  0.6528854E-02
  0.1504762E+01 -0.2981258E-02  0.1098633E-02  0.1451667E+05  0.1851459E+05  0.1398542E-01  0.1739883E-01
  0.1535714E+01 -0.8187227E-02  0.1281738E-02  0.1421243E+05  0.1849342E+05  0.1661540E-01  0.1168633E-01
  0.1566667E+01  0.8960480E-03  0.8544922E-03  0.1393318E+05  0.1845931E+05 -0.2055614E-01  0.1497650E-01
  0.1597619E+01  0.4966497E-03 -0.1403809E-02  0.1366290E+05  0.1840977E+05 -0.1586832E-01 -0.2861023E-04
  0.1628572E+01 -0.5171926E-02 -0.2136230E-02  0.1342305E+05  0.1834782E+05  0.1071922E-02  0.8062363E-02
  0.1659524E+01  0.1949272E-02  0.1464844E-02  0.1319657E+05  0.1826916E+05  0.1262803E-01 -0.2467346E-01
  0.1690476E+01  0.3502214E-02 -0.4455566E-02  0.1298082E+05  0.1818571E+05 -0.2303405E-02  0.1670837E-02
  0.1721429E+01 -0.4954991E-02 -0.1586914E-02  0.1278596E+05  0.1809621E+05  0.1617214E-01 -0.1434326E-01
  0.1752381E+01 -0.2586116E-02 -0.7507324E-02  0.1260612E+05  0.1799333E+05 -0.4681349E-02  0.1645660E-01
  0.1783333E+01 -0.1711266E-02  0.2319336E-02  0.1243740E+05  0.1789356E+05  0.1099863E-01 -0.9210587E-02
  0.1814286E+01 -0.6147970E-02 -0.4821777E-02  0.1227668E+05  0.1778797E+05  0.9519735E-02  0.1519394E-01
  0.1845238E+01 -0.3679829E-02  0.5371094E-02  0.1211732E+05  0.1767804E+05 -0.2088639E-02  0.1054382E-01
  0.1876190E+01 -0.1114201E-02  0.1831055E-03  0.1197432E+05  0.1757297E+05  0.1639025E-02  0.3108978E-02
  0.1907143E+01  0.1000108E-03  0.1446533E-01  0.1183720E+05  0.1745478E+05  0.2368356E-01  0.1259422E-01
  0.1938095E+01 -0.3208282E-02 -0.3051758E-03  0.1169633E+05  0.1733267E+05  0.1736470E-01 -0.2749062E-01
  0.1969048E+01 -0.1704852E-02 -0.2624512E-02  0.1156575E+05  0.1720879E+05 -0.4467607E-02  0.1022148E-01
  0.2000000E+01  0.1922607E-02 -0.4272461E-02  0.1143774E+05  0.1707617E+05  0.1183504E-01  0.8569717E-02
Zone t="Motion of body    1 in DoF   3",I=    64,F=POINT
  0.5000000E-01 -0.7796244E+06 -0.6096271E-01 -0.2162552E+00 -0.6587193E-03  0.2931834E+07  0.1660782E+00
  0.8095238E-01 -0.7839796E+06 -0.2671554E+00 -0.4052555E-01 -0.2987400E-03  0.2938712E+07  0.7280087E+00
  0.1119048E+00 -0.7850376E+06 -0.7457143E+00 -0.1284465E+00 -0.9669029E-03  0.2940504E+07  0.2016954E+01
  0.1428571E+00 -0.7859212E+06 -0.1676792E+01 -0.1041412E+00 -0.1323847E-02  0.2941975E+07  0.4533920E+01
  0.1738095E+00 -0.7870353E+06 -0.3328973E+01 -0.3832046E-01 -0.1369660E-02  0.2943882E+07  0.8991067E+01
  0.2047619E+00 -0.7874751E+06 -0.6126092E+01 -0.1762763E+00 -0.3953248E-02  0.2945186E+07  0.1653327E+02
  0.2357143E+00 -0.7886002E+06 -0.1076579E+02 -0.7690429E-01 -0.1136448E-02  0.2947078E+07  0.2900309E+02
  0.2666667E+00 -0.7895088E+06 -0.1828684E+02 -0.5487442E-01 -0.2177875E-02  0.2949226E+07  0.4916791E+02
  0.2976190E+00 -0.7906564E+06 -0.3055141E+02 -0.1179199E+00 -0.6137714E-02  0.2951860E+07  0.8201266E+02
  0.3285715E+00 -0.7921742E+06 -0.5035556E+02 -0.1695517E+00 -0.5911931E-02  0.2954817E+07  0.1347942E+03
  0.3595238E+00 -0.7937638E+06 -0.8231285E+02 -0.1115791E+00 -0.6489590E-02  0.2958195E+07  0.2197784E+03
  0.3904762E+00 -0.7952305E+06 -0.1333959E+03 -0.3356747E-01 -0.1298860E-02  0.2961713E+07  0.3552931E+03
  0.4214286E+00 -0.7976609E+06 -0.2135958E+03  0.9377688E-02 -0.2881825E-02  0.2966612E+07  0.5670907E+03
  0.4523810E+00 -0.7999121E+06 -0.3389492E+03 -0.1248008E-01 -0.5815864E-02  0.2971513E+07  0.8971057E+03
  0.4833333E+00 -0.8026119E+06 -0.5245142E+03 -0.1577233E+00 -0.1960891E-01  0.2976980E+07  0.1382802E+04
  0.5142857E+00 -0.8052352E+06 -0.7979197E+03  0.1572503E-01  0.5912304E-02  0.2983217E+07  0.2096956E+04
  0.5452381E+00 -0.8083708E+06 -0.1185411E+04  0.4438509E-01  0.2514601E-02  0.2989932E+07  0.3102872E+04
  0.5761905E+00 -0.8122042E+06 -0.1720198E+04  0.1996757E-01  0.4893064E-02  0.2997672E+07  0.4482529E+04
  0.6071429E+00 -0.8158796E+06 -0.2449655E+04 -0.1046501E+00 -0.2260828E-01  0.3005861E+07  0.6356979E+04
  0.6380953E+00 -0.8200554E+06 -0.3412378E+04  0.2620868E-01  0.6219864E-02  0.3014578E+07  0.8812823E+04
  0.6690477E+00 -0.8243922E+06 -0.4669758E+04  0.4990112E-01 -0.2832413E-02  0.3024058E+07  0.1200605E+05
  0.7000000E+00 -0.8293184E+06 -0.6299265E+04  0.1250785E+00  0.3577232E-01  0.3034468E+07  0.1611337E+05
  0.7309524E+00 -0.8344639E+06 -0.8368553E+04  0.5765734E-01  0.3669930E-01  0.3045074E+07  0.2128495E+05
  0.7619048E+00 -0.8402411E+06 -0.1097458E+05  0.7998847E-01  0.3013039E-01  0.3056960E+07  0.2775581E+05
  0.7928572E+00 -0.8456059E+06 -0.1420699E+05  0.9068394E-01  0.4272270E-01  0.3068336E+07  0.3573169E+05
  0.8238096E+00 -0.8513919E+06 -0.1818849E+05 -0.1104666E+00 -0.3366470E-01  0.3080303E+07  0.4548096E+05
  0.8547620E+00 -0.8578809E+06 -0.2305704E+05 -0.1092512E-01 -0.9166718E-02  0.3092806E+07  0.5727871E+05
  0.8857143E+00 -0.8643635E+06 -0.2893771E+05 -0.8248606E-01 -0.3575516E-01  0.3105476E+07  0.7140916E+05
  0.9166667E+00 -0.8707569E+06 -0.3597715E+05  0.3582209E-01 -0.1312256E-01  0.3118044E+07  0.8818472E+05
  0.9476191E+00 -0.8770758E+06 -0.4433556E+05  0.3813010E-01  0.1951599E-01  0.3129930E+07  0.1079035E+06
  0.9785714E+00 -0.8834454E+06 -0.5418658E+05  0.1617922E+00  0.8874512E-01  0.3141191E+07  0.1308840E+06
  0.1009524E+01 -0.8900304E+06 -0.6570687E+05 -0.6426830E-01 -0.8743286E-02  0.3152892E+07  0.1575533E+06
  0.1040476E+01 -0.8950829E+06 -0.7893295E+05  0.6804652E-02 -0.3131104E-01  0.3161154E+07  0.1878377E+06
  0.1071429E+01 -0.9005513E+06 -0.9419824E+05 -0.4147135E-01 -0.6570435E-01  0.3169736E+07  0.2224288E+06
  0.1102381E+01 -0.9045849E+06 -0.1114802E+06  0.6810099E-02  0.5014038E-01  0.3174598E+07  0.2609904E+06
  0.1133333E+01 -0.9084252E+06 -0.1310626E+06 -0.4367604E-01 -0.5007935E-01  0.3177870E+07  0.3040581E+06
  0.1164286E+01 -0.9111971E+06 -0.1529183E+06  0.4235765E-01  0.4470825E-01  0.3179208E+07  0.3516759E+06
  0.1195238E+01 -0.9114862E+06 -0.1767895E+06  0.5535475E-01  0.5096436E-01  0.3174946E+07  0.4028880E+06
  0.1226190E+01 -0.9106614E+06 -0.2029026E+06  0.2100557E-01  0.4107666E-01  0.3168120E+07  0.4581639E+06
  0.1257143E+01 -0.9072374E+06 -0.2305542E+06 -0.6360140E-01 -0.4180908E-01  0.3155605E+07  0.5158277E+06
  0.1288095E+01 -0.9029830E+06 -0.2606140E+06 -0.1222508E-01 -0.4290771E-01  0.3140725E+07  0.5772634E+06
  0.1319048E+01 -0.8961911E+06 -0.2916921E+06 -0.6663188E-02  0.1953125E-01  0.3119936E+07  0.6394961E+06
  0.1350000E+01 -0.8871635E+06 -0.3237065E+06 -0.2260561E-01  0.1324463E-01  0.3095560E+07  0.7026841E+06
  0.1380952E+01 -0.8748022E+06 -0.3554738E+06 -0.1211022E-01  0.2307129E-01  0.3063754E+07  0.7632592E+06
  0.1411905E+01 -0.8602323E+06 -0.3849326E+06  0.6657258E-02 -0.8728027E-02  0.3029263E+07  0.8191159E+06
  0.1442857E+01 -0.8445370E+06 -0.4158006E+06  0.3223382E-01  0.7666016E-01  0.2991493E+07  0.8750389E+06
  0.1473810E+01 -0.8264243E+06 -0.4446856E+06  0.5060692E-01  0.5151367E-01  0.2949654E+07  0.9250378E+06
  0.1504762E+01 -0.8069132E+06 -0.4714148E+06  0.3253019E-01  0.2648926E-01  0.2905422E+07  0.9690202E+06
  0.1535714E+01 -0.7865215E+06 -0.4956377E+06  0.2619118E-01  0.4760742E-02  0.2860154E+07  0.1006741E+07
  0.1566667E+01 -0.7651718E+06 -0.5164128E+06  0.3295898E-01  0.2722168E-01  0.2814660E+07  0.1036699E+07
  0.1597619E+01 -0.7426922E+06 -0.5325939E+06  0.3113612E-01  0.3027344E-01  0.2767676E+07  0.1055823E+07
  0.1628572E+01 -0.7209546E+06 -0.5458995E+06 -0.4482336E-01 -0.2978516E-01  0.2723633E+07  0.1069167E+07
  0.1659524E+01 -0.6996741E+06 -0.5553532E+06 -0.2986432E-01  0.3991699E-01  0.2680991E+07  0.1074098E+07
  0.1690476E+01 -0.6785730E+06 -0.5601338E+06  0.1830539E-01  0.4748535E-01  0.2639961E+07  0.1068806E+07
  0.1721429E+01 -0.6588909E+06 -0.5620588E+06 -0.2233735E-02 -0.2209473E-01  0.2602657E+07  0.1058020E+07
  0.1752381E+01 -0.6405857E+06 -0.5609805E+06 -0.2786388E-02  0.1806641E-01  0.2568206E+07  0.1041038E+07
  0.1783333E+01 -0.6236371E+06 -0.5571080E+06 -0.1858435E-01 -0.3540039E-02  0.2537776E+07  0.1019810E+07
  0.1814286E+01 -0.6079841E+06 -0.5502409E+06 -0.1544982E-01 -0.1586914E-01  0.2510690E+07  0.9931801E+06
  0.1845238E+01 -0.5934494E+06 -0.5402322E+06 -0.3634348E-01  0.2319336E-02  0.2486304E+07  0.9604991E+06
  0.1876190E+01 -0.5807925E+06 -0.5295126E+06  0.2583809E-01 -0.1953125E-02  0.2466341E+07  0.9282561E+06
  0.1907143E+01 -0.5697268E+06 -0.5175262E+06  0.4620499E-03  0.1062012E-01  0.2449217E+07  0.8939974E+06
  0.1938095E+01 -0.5595894E+06 -0.5027914E+06  0.1512026E-01  0.9887695E-02  0.2434645E+07  0.8549458E+06
  0.1969048E+01 -0.5510125E+06 -0.4877848E+06 -0.8919473E-02  0.5004883E-02  0.2423352E+07  0.8165513E+06
  0.2000000E+01 -0.5437379E+06 -0.4721299E+06  0.2937317E-02  0.2441406E-02  0.2414229E+07  0.7774703E+06
