VARIABLES="w (rad/s)"
"abs(F   1   1)" "angle(F   1   1)"
"abs(F   1   2)" "angle(F   1   2)"
"abs(F   1   3)" "angle(F   1   3)"
Zone t="Diffraction force - beta =   0.000 deg",I=    64,F=POINT
  0.5000000E-01  0.1231254E+03 -0.1570796E+01  0.2536357E+02 -0.3112890E+01  0.3421872E+02  0.1570796E+01
  0.8095238E-01  0.2013290E+03 -0.1570796E+01  0.6616909E+02 -0.3111994E+01  0.5609070E+02  0.1570797E+01
  0.1119048E+00  0.2812161E+03 -0.1570795E+01  0.1263181E+03 -0.3110800E+01  0.7885547E+02  0.1570797E+01
  0.1428571E+00  0.3645016E+03 -0.1570795E+01  0.2057673E+03 -0.3109177E+01  0.1023564E+03  0.1570797E+01
  0.1738095E+00  0.4509263E+03 -0.1570794E+01  0.3051090E+03 -0.3107090E+01  0.1262739E+03  0.1570798E+01
  0.2047619E+00  0.5426212E+03 -0.1570792E+01  0.4243842E+03 -0.3104406E+01  0.1515318E+03  0.1570799E+01
  0.2357143E+00  0.6393781E+03 -0.1570790E+01  0.5648672E+03 -0.3101023E+01  0.1782090E+03  0.1570800E+01
  0.2666667E+00  0.7436488E+03 -0.1570787E+01  0.7261545E+03 -0.3096799E+01  0.2067121E+03  0.1570802E+01
  0.2976190E+00  0.8576292E+03 -0.1570782E+01  0.9093642E+03 -0.3091461E+01  0.2375307E+03  0.1570805E+01
  0.3285715E+00  0.9805278E+03 -0.1570775E+01  0.1116196E+04 -0.3085022E+01  0.2713146E+03  0.1570808E+01
  0.3595238E+00  0.1117245E+04 -0.1570764E+01  0.1345508E+04 -0.3077100E+01  0.3072570E+03  0.1570815E+01
  0.3904762E+00  0.1268683E+04 -0.1570748E+01  0.1597457E+04 -0.3067525E+01  0.3474896E+03  0.1570825E+01
  0.4214286E+00  0.1435005E+04 -0.1570724E+01  0.1873208E+04 -0.3056735E+01  0.3926698E+03  0.1570838E+01
  0.4523810E+00  0.1619566E+04 -0.1570688E+01  0.2174125E+04 -0.3044204E+01  0.4393252E+03  0.1570859E+01
  0.4833333E+00  0.1820950E+04 -0.1570638E+01  0.2492870E+04 -0.3031063E+01  0.4917392E+03  0.1570887E+01
  0.5142857E+00  0.2041097E+04 -0.1570568E+01  0.2832289E+04 -0.3016691E+01  0.5487665E+03  0.1570927E+01
  0.5452381E+00  0.2273781E+04 -0.1570474E+01  0.3195179E+04 -0.3002174E+01  0.6099676E+03  0.1570979E+01
  0.5761905E+00  0.2523526E+04 -0.1570351E+01  0.3579265E+04 -0.2987649E+01  0.6702056E+03  0.1571048E+01
  0.6071429E+00  0.2788128E+04 -0.1570189E+01  0.3978648E+04 -0.2972376E+01  0.7348907E+03  0.1571137E+01
  0.6380953E+00  0.3067318E+04 -0.1569986E+01  0.4397275E+04 -0.2957471E+01  0.8022065E+03  0.1571249E+01
  0.6690477E+00  0.3355975E+04 -0.1569729E+01  0.4836865E+04 -0.2942513E+01  0.8716113E+03  0.1571388E+01
  0.7000000E+00  0.3651463E+04 -0.1569409E+01  0.5295347E+04 -0.2927299E+01  0.9450289E+03  0.1571559E+01
  0.7309524E+00  0.3958316E+04 -0.1569017E+01  0.5771722E+04 -0.2912186E+01  0.1017397E+04  0.1571766E+01
  0.7619048E+00  0.4280353E+04 -0.1568541E+01  0.6262987E+04 -0.2896889E+01  0.1088360E+04  0.1572016E+01
  0.7928572E+00  0.4615022E+04 -0.1567969E+01  0.6767372E+04 -0.2881366E+01  0.1161751E+04  0.1572313E+01
  0.8238096E+00  0.4954494E+04 -0.1567284E+01  0.7287684E+04 -0.2865838E+01  0.1237216E+04  0.1572662E+01
  0.8547620E+00  0.5300349E+04 -0.1566471E+01  0.7825765E+04 -0.2850475E+01  0.1315915E+04  0.1573068E+01
  0.8857143E+00  0.5652274E+04 -0.1565512E+01  0.8379243E+04 -0.2835209E+01  0.1391362E+04  0.1573539E+01
  0.9166667E+00  0.6014698E+04 -0.1564395E+01  0.8942925E+04 -0.2819874E+01  0.1466728E+04  0.1574080E+01
  0.9476191E+00  0.6385421E+04 -0.1563101E+01  0.9514062E+04 -0.2804420E+01  0.1539555E+04  0.1574696E+01
  0.9785714E+00  0.6769304E+04 -0.1561614E+01  0.1009371E+05 -0.2788978E+01  0.1613256E+04  0.1575392E+01
  0.1009524E+01  0.7157819E+04 -0.1559909E+01  0.1068166E+05 -0.2773612E+01  0.1684914E+04  0.1576172E+01
  0.1040476E+01  0.7552672E+04 -0.1557967E+01  0.1128000E+05 -0.2758492E+01  0.1757216E+04  0.1577038E+01
  0.1071429E+01  0.7945812E+04 -0.1555758E+01  0.1188687E+05 -0.2743593E+01  0.1833510E+04  0.1577990E+01
  0.1102381E+01  0.8337243E+04 -0.1553260E+01  0.1250038E+05 -0.2728866E+01  0.1904543E+04  0.1579034E+01
  0.1133333E+01  0.8738292E+04 -0.1550468E+01  0.1311897E+05 -0.2714318E+01  0.1974240E+04  0.1580170E+01
  0.1164286E+01  0.9141949E+04 -0.1547353E+01  0.1373961E+05 -0.2699851E+01  0.2036341E+04  0.1581401E+01
  0.1195238E+01  0.9554916E+04 -0.1543908E+01  0.1436118E+05 -0.2685499E+01  0.2095656E+04  0.1582718E+01
  0.1226190E+01  0.9970213E+04 -0.1540102E+01  0.1498184E+05 -0.2671238E+01  0.2156208E+04  0.1584113E+01
  0.1257143E+01  0.1037342E+05 -0.1535883E+01  0.1560270E+05 -0.2656607E+01  0.2213565E+04  0.1585580E+01
  0.1288095E+01  0.1079345E+05 -0.1531299E+01  0.1622191E+05 -0.2643309E+01  0.2269159E+04  0.1587103E+01
  0.1319048E+01  0.1120016E+05 -0.1526262E+01  0.1684286E+05 -0.2629834E+01  0.2323144E+04  0.1588665E+01
  0.1350000E+01  0.1159887E+05 -0.1520766E+01  0.1746397E+05 -0.2616748E+01  0.2373739E+04  0.1590250E+01
  0.1380952E+01  0.1199189E+05 -0.1514811E+01  0.1808436E+05 -0.2604060E+01  0.2419441E+04  0.1591837E+01
  0.1411905E+01  0.1223924E+05 -0.1508884E+01  0.1855659E+05 -0.2590892E+01  0.2489798E+04  0.1593091E+01
  0.1442857E+01  0.1260920E+05 -0.1502022E+01  0.1916012E+05 -0.2578400E+01  0.2527375E+04  0.1594609E+01
  0.1473810E+01  0.1297372E+05 -0.1494692E+01  0.1975680E+05 -0.2566089E+01  0.2558461E+04  0.1596054E+01
  0.1504762E+01  0.1333292E+05 -0.1486901E+01  0.2034590E+05 -0.2553979E+01  0.2587418E+04  0.1597388E+01
  0.1535714E+01  0.1367594E+05 -0.1478602E+01  0.2092608E+05 -0.2542013E+01  0.2609402E+04  0.1598556E+01
  0.1566667E+01  0.1400752E+05 -0.1469828E+01  0.2149856E+05 -0.2530357E+01  0.2627516E+04  0.1599505E+01
  0.1597619E+01  0.1432084E+05 -0.1460561E+01  0.2206130E+05 -0.2518962E+01  0.2642659E+04  0.1600176E+01
  0.1628572E+01  0.1461219E+05 -0.1450780E+01  0.2261566E+05 -0.2507928E+01  0.2657917E+04  0.1600531E+01
  0.1659524E+01  0.1487637E+05 -0.1440471E+01  0.2316083E+05 -0.2497220E+01  0.2669297E+04  0.1600476E+01
  0.1690476E+01  0.1511005E+05 -0.1429631E+01  0.2369579E+05 -0.2486826E+01  0.2675892E+04  0.1599932E+01
  0.1721429E+01  0.1531962E+05 -0.1418343E+01  0.2422172E+05 -0.2476869E+01  0.2682009E+04  0.1598899E+01
  0.1752381E+01  0.1549996E+05 -0.1406633E+01  0.2473635E+05 -0.2467200E+01  0.2681089E+04  0.1597255E+01
  0.1783333E+01  0.1564533E+05 -0.1394484E+01  0.2523825E+05 -0.2457718E+01  0.2673814E+04  0.1594951E+01
  0.1814286E+01  0.1576145E+05 -0.1382006E+01  0.2572823E+05 -0.2448568E+01  0.2663420E+04  0.1591947E+01
  0.1845238E+01  0.1584443E+05 -0.1369232E+01  0.2620314E+05 -0.2439574E+01  0.2649945E+04  0.1588199E+01
  0.1876190E+01  0.1589110E+05 -0.1356149E+01  0.2666382E+05 -0.2430797E+01  0.2637441E+04  0.1583730E+01
  0.1907143E+01  0.1589803E+05 -0.1342786E+01  0.2710953E+05 -0.2422186E+01  0.2624320E+04  0.1578480E+01
  0.1938095E+01  0.1586036E+05 -0.1329147E+01  0.2753843E+05 -0.2413718E+01  0.2606544E+04  0.1572233E+01
  0.1969048E+01  0.1578501E+05 -0.1315385E+01  0.2795285E+05 -0.2405617E+01  0.2591131E+04  0.1565277E+01
  0.2000000E+01  0.1566894E+05 -0.1301554E+01  0.2835063E+05 -0.2397803E+01  0.2577243E+04  0.1557614E+01
