VARIABLES="w (rad/s)"
"abs(F   1   1)" "angle(F   1   1)"
"abs(F   1   2)" "angle(F   1   2)"
"abs(F   1   3)" "angle(F   1   3)"
Zone t="Diffraction force - beta =   0.000 deg",I=    64,F=POINT
  0.5000000E-01  0.3533534E+04 -0.1570789E+01  0.3404006E+06 -0.2317618E-04  0.4463569E+04  0.1570796E+01
  0.8095238E-01  0.5767591E+04 -0.1570798E+01  0.3395827E+06 -0.6230963E-04  0.7287043E+04  0.1570799E+01
  0.1119048E+00  0.8060862E+04 -0.1570792E+01  0.3383830E+06 -0.1236102E-03  0.1018497E+05  0.1570800E+01
  0.1428571E+00  0.1042604E+05 -0.1570788E+01  0.3367989E+06 -0.2117308E-03  0.1317935E+05  0.1570804E+01
  0.1738095E+00  0.1290748E+05 -0.1570784E+01  0.3348344E+06 -0.3335098E-03  0.1631544E+05  0.1570809E+01
  0.2047619E+00  0.1551748E+05 -0.1570779E+01  0.3324876E+06 -0.4990695E-03  0.1961692E+05  0.1570814E+01
  0.2357143E+00  0.1829184E+05 -0.1570766E+01  0.3297502E+06 -0.7231237E-03  0.2312766E+05  0.1570825E+01
  0.2666667E+00  0.2129105E+05 -0.1570753E+01  0.3266445E+06 -0.1023273E-02  0.2692467E+05  0.1570840E+01
  0.2976190E+00  0.2453344E+05 -0.1570729E+01  0.3231428E+06 -0.1430246E-02  0.3102404E+05  0.1570862E+01
  0.3285715E+00  0.2811066E+05 -0.1570698E+01  0.3192875E+06 -0.1973801E-02  0.3556098E+05  0.1570893E+01
  0.3595238E+00  0.3204335E+05 -0.1570650E+01  0.3150384E+06 -0.2702746E-02  0.4052958E+05  0.1570943E+01
  0.3904762E+00  0.3640679E+05 -0.1570576E+01  0.3104758E+06 -0.3670145E-02  0.4605131E+05  0.1571017E+01
  0.4214286E+00  0.4121191E+05 -0.1570468E+01  0.3055527E+06 -0.4908216E-02  0.5216182E+05  0.1571124E+01
  0.4523810E+00  0.4657938E+05 -0.1570309E+01  0.3003599E+06 -0.6514312E-02  0.5893113E+05  0.1571284E+01
  0.4833333E+00  0.5243669E+05 -0.1570085E+01  0.2948798E+06 -0.8432915E-02  0.6635541E+05  0.1571507E+01
  0.5142857E+00  0.5876793E+05 -0.1569773E+01  0.2891456E+06 -0.1077981E-01  0.7436098E+05  0.1571819E+01
  0.5452381E+00  0.6563260E+05 -0.1569353E+01  0.2832305E+06 -0.1351376E-01  0.8313488E+05  0.1572239E+01
  0.5761905E+00  0.7293727E+05 -0.1568802E+01  0.2770401E+06 -0.1662909E-01  0.9236427E+05  0.1572791E+01
  0.6071429E+00  0.8071300E+05 -0.1568083E+01  0.2707807E+06 -0.2023733E-01  0.1021548E+06  0.1573509E+01
  0.6380953E+00  0.8887962E+05 -0.1567177E+01  0.2643150E+06 -0.2421785E-01  0.1125491E+06  0.1574416E+01
  0.6690477E+00  0.9732662E+05 -0.1566038E+01  0.2576252E+06 -0.2866293E-01  0.1233091E+06  0.1575555E+01
  0.7000000E+00  0.1062267E+06 -0.1564622E+01  0.2509857E+06 -0.3364401E-01  0.1345502E+06  0.1576972E+01
  0.7309524E+00  0.1156317E+06 -0.1562889E+01  0.2441860E+06 -0.3909501E-01  0.1464773E+06  0.1578704E+01
  0.7619048E+00  0.1252484E+06 -0.1560784E+01  0.2372326E+06 -0.4506250E-01  0.1586295E+06  0.1580811E+01
  0.7928572E+00  0.1352188E+06 -0.1558249E+01  0.2302917E+06 -0.5157996E-01  0.1711769E+06  0.1583346E+01
  0.8238096E+00  0.1456343E+06 -0.1555226E+01  0.2233774E+06 -0.5867612E-01  0.1844228E+06  0.1586370E+01
  0.8547620E+00  0.1562217E+06 -0.1551652E+01  0.2163852E+06 -0.6633079E-01  0.1978902E+06  0.1589946E+01
  0.8857143E+00  0.1671469E+06 -0.1547454E+01  0.2093070E+06 -0.7455436E-01  0.2117249E+06  0.1594146E+01
  0.9166667E+00  0.1785408E+06 -0.1542559E+01  0.2023524E+06 -0.8336273E-01  0.2259149E+06  0.1599042E+01
  0.9476191E+00  0.1903471E+06 -0.1536890E+01  0.1954850E+06 -0.9280768E-01  0.2408075E+06  0.1604713E+01
  0.9785714E+00  0.2022423E+06 -0.1530373E+01  0.1886170E+06 -0.1028831E+00  0.2558129E+06  0.1611236E+01
  0.1009524E+01  0.2142688E+06 -0.1522935E+01  0.1817357E+06 -0.1135722E+00  0.2708529E+06  0.1618679E+01
  0.1040476E+01  0.2264739E+06 -0.1514500E+01  0.1748985E+06 -0.1248912E+00  0.2862338E+06  0.1627124E+01
  0.1071429E+01  0.2389109E+06 -0.1505015E+01  0.1683661E+06 -0.1368246E+00  0.3016973E+06  0.1636617E+01
  0.1102381E+01  0.2516161E+06 -0.1494395E+01  0.1618595E+06 -0.1495031E+00  0.3177855E+06  0.1647249E+01
  0.1133333E+01  0.2643056E+06 -0.1482599E+01  0.1554274E+06 -0.1628338E+00  0.3335083E+06  0.1659048E+01
  0.1164286E+01  0.2769013E+06 -0.1469563E+01  0.1490274E+06 -0.1768729E+00  0.3489744E+06  0.1672093E+01
  0.1195238E+01  0.2893264E+06 -0.1455245E+01  0.1426723E+06 -0.1916864E+00  0.3643703E+06  0.1686437E+01
  0.1226190E+01  0.3015182E+06 -0.1439701E+01  0.1367294E+06 -0.2070385E+00  0.3791034E+06  0.1701994E+01
  0.1257143E+01  0.3132561E+06 -0.1422953E+01  0.1308867E+06 -0.2233362E+00  0.3935156E+06  0.1718778E+01
  0.1288095E+01  0.3247767E+06 -0.1404954E+01  0.1251338E+06 -0.2402978E+00  0.4077025E+06  0.1736822E+01
  0.1319048E+01  0.3352502E+06 -0.1385969E+01  0.1194925E+06 -0.2581723E+00  0.4203820E+06  0.1755853E+01
  0.1350000E+01  0.3449065E+06 -0.1366062E+01  0.1139349E+06 -0.2770474E+00  0.4320274E+06  0.1775813E+01
  0.1380952E+01  0.3536741E+06 -0.1345374E+01  0.1084812E+06 -0.2968926E+00  0.4425312E+06  0.1796560E+01
  0.1411905E+01  0.3610178E+06 -0.1324146E+01  0.1034792E+06 -0.3170287E+00  0.4509758E+06  0.1817787E+01
  0.1442857E+01  0.3679422E+06 -0.1302619E+01  0.9860384E+05 -0.3380032E+00  0.4586825E+06  0.1839342E+01
  0.1473810E+01  0.3736593E+06 -0.1280926E+01  0.9385558E+05 -0.3602403E+00  0.4651819E+06  0.1861121E+01
  0.1504762E+01  0.3777023E+06 -0.1259490E+01  0.8924516E+05 -0.3835194E+00  0.4693617E+06  0.1882657E+01
  0.1535714E+01  0.3801979E+06 -0.1238689E+01  0.8477481E+05 -0.4078903E+00  0.4713619E+06  0.1903543E+01
  0.1566667E+01  0.3813274E+06 -0.1218685E+01  0.8043244E+05 -0.4337418E+00  0.4717562E+06  0.1923669E+01
  0.1597619E+01  0.3810655E+06 -0.1199842E+01  0.7627038E+05 -0.4605343E+00  0.4703415E+06  0.1942626E+01
  0.1628572E+01  0.3796027E+06 -0.1182521E+01  0.7248180E+05 -0.4868475E+00  0.4670798E+06  0.1959949E+01
  0.1659524E+01  0.3770847E+06 -0.1166759E+01  0.6884112E+05 -0.5141804E+00  0.4626078E+06  0.1975740E+01
  0.1690476E+01  0.3736210E+06 -0.1152655E+01  0.6537173E+05 -0.5428215E+00  0.4573646E+06  0.1990060E+01
  0.1721429E+01  0.3687236E+06 -0.1140769E+01  0.6206380E+05 -0.5724645E+00  0.4501226E+06  0.2002131E+01
  0.1752381E+01  0.3628961E+06 -0.1131216E+01  0.5889955E+05 -0.6030341E+00  0.4415910E+06  0.2011832E+01
  0.1783333E+01  0.3562494E+06 -0.1124064E+01  0.5588366E+05 -0.6344116E+00  0.4319954E+06  0.2019116E+01
  0.1814286E+01  0.3490318E+06 -0.1119218E+01  0.5300608E+05 -0.6666229E+00  0.4218345E+06  0.2024171E+01
  0.1845238E+01  0.3413577E+06 -0.1116843E+01  0.5029886E+05 -0.6985403E+00  0.4110535E+06  0.2026695E+01
  0.1876190E+01  0.3332999E+06 -0.1117097E+01  0.4784076E+05 -0.7280226E+00  0.3995938E+06  0.2026355E+01
  0.1907143E+01  0.3250034E+06 -0.1119763E+01  0.4549973E+05 -0.7572511E+00  0.3879403E+06  0.2023687E+01
  0.1938095E+01  0.3166182E+06 -0.1124579E+01  0.4326527E+05 -0.7861221E+00  0.3765482E+06  0.2019238E+01
  0.1969048E+01  0.3079682E+06 -0.1132008E+01  0.4113016E+05 -0.8138928E+00  0.3648014E+06  0.2012167E+01
  0.2000000E+01  0.2991938E+06 -0.1142155E+01  0.3903932E+05 -0.8405809E+00  0.3527795E+06  0.2002155E+01
