VARIABLES="w (rad/s)"
"abs(F   1   1)" "angle(F   1   1)"
"abs(F   1   2)" "angle(F   1   2)"
"abs(F   1   3)" "angle(F   1   3)"
Zone t="Diffraction force - beta =   0.000 deg",I=    64,F=POINT
  0.5000000E-01  0.7625179E+04 -0.1570795E+01  0.6162768E+06 -0.4093914E-04  0.1179496E+05  0.1570805E+01
  0.8095238E-01  0.1244350E+05 -0.1570789E+01  0.6142531E+06 -0.1099717E-03  0.1925336E+05  0.1570794E+01
  0.1119048E+00  0.1737177E+05 -0.1570788E+01  0.6112866E+06 -0.2178981E-03  0.2688966E+05  0.1570805E+01
  0.1428571E+00  0.2244388E+05 -0.1570781E+01  0.6073761E+06 -0.3726284E-03  0.3476467E+05  0.1570808E+01
  0.1738095E+00  0.2777129E+05 -0.1570768E+01  0.6025214E+06 -0.5856518E-03  0.4304410E+05  0.1570821E+01
  0.2047619E+00  0.3333973E+05 -0.1570759E+01  0.5967438E+06 -0.8743368E-03  0.5172708E+05  0.1570835E+01
  0.2357143E+00  0.3928491E+05 -0.1570733E+01  0.5900144E+06 -0.1263349E-02  0.6097582E+05  0.1570857E+01
  0.2666667E+00  0.4569001E+05 -0.1570702E+01  0.5823768E+06 -0.1781508E-02  0.7098697E+05  0.1570889E+01
  0.2976190E+00  0.5256419E+05 -0.1570656E+01  0.5738090E+06 -0.2481143E-02  0.8175097E+05  0.1570938E+01
  0.3285715E+00  0.6015148E+05 -0.1570587E+01  0.5643680E+06 -0.3409442E-02  0.9368870E+05  0.1571004E+01
  0.3595238E+00  0.6849088E+05 -0.1570482E+01  0.5540424E+06 -0.4648171E-02  0.1067803E+06  0.1571110E+01
  0.3904762E+00  0.7768605E+05 -0.1570326E+01  0.5429594E+06 -0.6281139E-02  0.1213188E+06  0.1571268E+01
  0.4214286E+00  0.8777205E+05 -0.1570100E+01  0.5310684E+06 -0.8353421E-02  0.1373068E+06  0.1571494E+01
  0.4523810E+00  0.9907098E+05 -0.1569765E+01  0.5186620E+06 -0.1103588E-01  0.1551862E+06  0.1571828E+01
  0.4833333E+00  0.1113078E+06 -0.1569301E+01  0.5055900E+06 -0.1420038E-01  0.1746009E+06  0.1572291E+01
  0.5142857E+00  0.1244972E+06 -0.1568655E+01  0.4921664E+06 -0.1805611E-01  0.1955409E+06  0.1572937E+01
  0.5452381E+00  0.1386800E+06 -0.1567794E+01  0.4783112E+06 -0.2250975E-01  0.2183156E+06  0.1573799E+01
  0.5761905E+00  0.1538132E+06 -0.1566674E+01  0.4639943E+06 -0.2753943E-01  0.2425213E+06  0.1574918E+01
  0.6071429E+00  0.1698861E+06 -0.1565224E+01  0.4497138E+06 -0.3334912E-01  0.2682388E+06  0.1576368E+01
  0.6380953E+00  0.1864331E+06 -0.1563414E+01  0.4349983E+06 -0.3967090E-01  0.2948777E+06  0.1578180E+01
  0.6690477E+00  0.2035141E+06 -0.1561162E+01  0.4200457E+06 -0.4668909E-01  0.3225812E+06  0.1580431E+01
  0.7000000E+00  0.2216433E+06 -0.1558398E+01  0.4053054E+06 -0.5453090E-01  0.3518308E+06  0.1583193E+01
  0.7309524E+00  0.2402682E+06 -0.1555061E+01  0.3903102E+06 -0.6302112E-01  0.3819838E+06  0.1586530E+01
  0.7619048E+00  0.2593631E+06 -0.1551055E+01  0.3750554E+06 -0.7225773E-01  0.4130793E+06  0.1590536E+01
  0.7928572E+00  0.2788808E+06 -0.1546300E+01  0.3603664E+06 -0.8229124E-01  0.4445096E+06  0.1595293E+01
  0.8238096E+00  0.2987714E+06 -0.1540711E+01  0.3456189E+06 -0.9316530E-01  0.4773892E+06  0.1600889E+01
  0.8547620E+00  0.3187912E+06 -0.1534238E+01  0.3308237E+06 -0.1048235E+00  0.5101482E+06  0.1607358E+01
  0.8857143E+00  0.3392853E+06 -0.1526814E+01  0.3160945E+06 -0.1173200E+00  0.5436878E+06  0.1614767E+01
  0.9166667E+00  0.3600710E+06 -0.1518357E+01  0.3019858E+06 -0.1306012E+00  0.5772891E+06  0.1623219E+01
  0.9476191E+00  0.3809440E+06 -0.1508797E+01  0.2880106E+06 -0.1448411E+00  0.6117838E+06  0.1632781E+01
  0.9785714E+00  0.4012616E+06 -0.1498090E+01  0.2741849E+06 -0.1599156E+00  0.6449737E+06  0.1643497E+01
  0.1009524E+01  0.4211061E+06 -0.1486207E+01  0.2604220E+06 -0.1759487E+00  0.6778543E+06  0.1655407E+01
  0.1040476E+01  0.4402050E+06 -0.1473198E+01  0.2473845E+06 -0.1926914E+00  0.7090999E+06  0.1668442E+01
  0.1071429E+01  0.4588342E+06 -0.1459194E+01  0.2347521E+06 -0.2103896E+00  0.7397638E+06  0.1682442E+01
  0.1102381E+01  0.4764657E+06 -0.1444314E+01  0.2223542E+06 -0.2291836E+00  0.7687688E+06  0.1697276E+01
  0.1133333E+01  0.4926671E+06 -0.1428606E+01  0.2102232E+06 -0.2489363E+00  0.7951077E+06  0.1712980E+01
  0.1164286E+01  0.5073401E+06 -0.1412197E+01  0.1982578E+06 -0.2699176E+00  0.8193076E+06  0.1729426E+01
  0.1195238E+01  0.5201429E+06 -0.1395362E+01  0.1870445E+06 -0.2914133E+00  0.8398119E+06  0.1746268E+01
  0.1226190E+01  0.5310905E+06 -0.1378403E+01  0.1763778E+06 -0.3136418E+00  0.8570756E+06  0.1763216E+01
  0.1257143E+01  0.5401512E+06 -0.1361598E+01  0.1660508E+06 -0.3374039E+00  0.8719600E+06  0.1780006E+01
  0.1288095E+01  0.5468462E+06 -0.1345513E+01  0.1560182E+06 -0.3620324E+00  0.8823771E+06  0.1796073E+01
  0.1319048E+01  0.5509761E+06 -0.1330134E+01  0.1462947E+06 -0.3881669E+00  0.8884450E+06  0.1811488E+01
  0.1350000E+01  0.5527602E+06 -0.1315810E+01  0.1368315E+06 -0.4159759E+00  0.8909579E+06  0.1825921E+01
  0.1380952E+01  0.5523370E+06 -0.1303170E+01  0.1281618E+06 -0.4432792E+00  0.8888582E+06  0.1838462E+01
  0.1411905E+01  0.5493793E+06 -0.1292339E+01  0.1199746E+06 -0.4712608E+00  0.8827802E+06  0.1849117E+01
  0.1442857E+01  0.5452651E+06 -0.1283473E+01  0.1121148E+06 -0.5009547E+00  0.8753822E+06  0.1858087E+01
  0.1473810E+01  0.5388540E+06 -0.1276978E+01  0.1045903E+06 -0.5320026E+00  0.8637454E+06  0.1864673E+01
  0.1504762E+01  0.5307156E+06 -0.1273080E+01  0.9737101E+05 -0.5646337E+00  0.8488476E+06  0.1868548E+01
  0.1535714E+01  0.5213350E+06 -0.1271755E+01  0.9047528E+05 -0.5992673E+00  0.8322401E+06  0.1869944E+01
  0.1566667E+01  0.5107897E+06 -0.1273132E+01  0.8390054E+05 -0.6357160E+00  0.8136906E+06  0.1868676E+01
  0.1597619E+01  0.4992732E+06 -0.1277522E+01  0.7794944E+05 -0.6697884E+00  0.7926721E+06  0.1864017E+01
  0.1628572E+01  0.4871786E+06 -0.1284664E+01  0.7229316E+05 -0.7051645E+00  0.7708494E+06  0.1856662E+01
  0.1659524E+01  0.4748333E+06 -0.1294320E+01  0.6695578E+05 -0.7423414E+00  0.7493468E+06  0.1847226E+01
  0.1690476E+01  0.4617675E+06 -0.1306945E+01  0.6192105E+05 -0.7811589E+00  0.7263184E+06  0.1834679E+01
  0.1721429E+01  0.4484039E+06 -0.1322404E+01  0.5716255E+05 -0.8218690E+00  0.7026192E+06  0.1819200E+01
  0.1752381E+01  0.4349388E+06 -0.1340522E+01  0.5267499E+05 -0.8644836E+00  0.6787757E+06  0.1801093E+01
  0.1783333E+01  0.4215174E+06 -0.1361063E+01  0.4845859E+05 -0.9088362E+00  0.6552676E+06  0.1780831E+01
  0.1814286E+01  0.4081696E+06 -0.1384128E+01  0.4452588E+05 -0.9539251E+00  0.6318044E+06  0.1757984E+01
  0.1845238E+01  0.3950213E+06 -0.1409815E+01  0.4089494E+05 -0.9972163E+00  0.6082363E+06  0.1731776E+01
  0.1876190E+01  0.3821179E+06 -0.1437749E+01  0.3747925E+05 -0.1042092E+01  0.5851788E+06  0.1703375E+01
  0.1907143E+01  0.3695625E+06 -0.1467550E+01  0.3429085E+05 -0.1089634E+01  0.5630414E+06  0.1673805E+01
  0.1938095E+01  0.3572329E+06 -0.1499542E+01  0.3133337E+05 -0.1139260E+01  0.5412530E+06  0.1642027E+01
  0.1969048E+01  0.3451789E+06 -0.1533715E+01  0.2856914E+05 -0.1190755E+01  0.5198907E+06  0.1607859E+01
  0.2000000E+01  0.3334280E+06 -0.1569955E+01  0.2598668E+05 -0.1243712E+01  0.4990671E+06  0.1571529E+01
