VARIABLES="w (rad/s)"
"abs(F   1   1)" "angle(F   1   1)"
"abs(F   1   2)" "angle(F   1   2)"
"abs(F   1   3)" "angle(F   1   3)"
Zone t="Diffraction force - beta =   0.000 deg",I=    64,F=POINT
  0.5000000E-01  0.2363523E+04 -0.1570807E+01  0.4397082E+06 -0.2928215E-04  0.4981539E+03  0.1570820E+01
  0.8095238E-01  0.3850953E+04 -0.1570797E+01  0.4388517E+06 -0.7876661E-04  0.8107180E+03  0.1570788E+01
  0.1119048E+00  0.5375660E+04 -0.1570797E+01  0.4375947E+06 -0.1563781E-03  0.1128624E+04  0.1570796E+01
  0.1428571E+00  0.6952985E+04 -0.1570789E+01  0.4359354E+06 -0.2680202E-03  0.1460740E+04  0.1570812E+01
  0.1738095E+00  0.8616555E+04 -0.1570787E+01  0.4338735E+06 -0.4226798E-03  0.1825369E+04  0.1570796E+01
  0.2047619E+00  0.1036714E+05 -0.1570788E+01  0.4314043E+06 -0.6332196E-03  0.2207116E+04  0.1570799E+01
  0.2357143E+00  0.1222368E+05 -0.1570776E+01  0.4285185E+06 -0.9187178E-03  0.2618367E+04  0.1570812E+01
  0.2666667E+00  0.1426452E+05 -0.1570772E+01  0.4252271E+06 -0.1302367E-02  0.3084395E+04  0.1570827E+01
  0.2976190E+00  0.1644562E+05 -0.1570755E+01  0.4215084E+06 -0.1823247E-02  0.3575710E+04  0.1570838E+01
  0.3285715E+00  0.1883612E+05 -0.1570732E+01  0.4173842E+06 -0.2521349E-02  0.4129052E+04  0.1570872E+01
  0.3595238E+00  0.2152394E+05 -0.1570697E+01  0.4128304E+06 -0.3459389E-02  0.4770032E+04  0.1570897E+01
  0.3904762E+00  0.2450988E+05 -0.1570648E+01  0.4078962E+06 -0.4708719E-02  0.5487048E+04  0.1570944E+01
  0.4214286E+00  0.2776173E+05 -0.1570574E+01  0.4025767E+06 -0.6311939E-02  0.6268422E+04  0.1571022E+01
  0.4523810E+00  0.3142459E+05 -0.1570465E+01  0.3969139E+06 -0.8392389E-02  0.7180166E+04  0.1571129E+01
  0.4833333E+00  0.3546182E+05 -0.1570311E+01  0.3909369E+06 -0.1089202E-01  0.8218253E+04  0.1571284E+01
  0.5142857E+00  0.3982443E+05 -0.1570096E+01  0.3846731E+06 -0.1395288E-01  0.9321682E+04  0.1571495E+01
  0.5452381E+00  0.4450625E+05 -0.1569806E+01  0.3781796E+06 -0.1752923E-01  0.1055458E+05  0.1571790E+01
  0.5761905E+00  0.4954648E+05 -0.1569424E+01  0.3714030E+06 -0.2162445E-01  0.1191472E+05  0.1572170E+01
  0.6071429E+00  0.5497626E+05 -0.1568924E+01  0.3645006E+06 -0.2636673E-01  0.1339002E+05  0.1572670E+01
  0.6380953E+00  0.6068657E+05 -0.1568291E+01  0.3573667E+06 -0.3162276E-01  0.1502485E+05  0.1573306E+01
  0.6690477E+00  0.6654762E+05 -0.1567493E+01  0.3500258E+06 -0.3750968E-01  0.1667947E+05  0.1574104E+01
  0.7000000E+00  0.7273232E+05 -0.1566496E+01  0.3426571E+06 -0.4411228E-01  0.1845094E+05  0.1575102E+01
  0.7309524E+00  0.7935563E+05 -0.1565273E+01  0.3351151E+06 -0.5135380E-01  0.2052125E+05  0.1576328E+01
  0.7619048E+00  0.8619784E+05 -0.1563780E+01  0.3274434E+06 -0.5929558E-01  0.2262563E+05  0.1577825E+01
  0.7928572E+00  0.9333030E+05 -0.1561976E+01  0.3197471E+06 -0.6798761E-01  0.2485719E+05  0.1579636E+01
  0.8238096E+00  0.1007126E+06 -0.1559813E+01  0.3120661E+06 -0.7744802E-01  0.2724217E+05  0.1581807E+01
  0.8547620E+00  0.1082434E+06 -0.1557245E+01  0.3043008E+06 -0.8766763E-01  0.2973723E+05  0.1584386E+01
  0.8857143E+00  0.1160325E+06 -0.1554218E+01  0.2964954E+06 -0.9864625E-01  0.3235815E+05  0.1587424E+01
  0.9166667E+00  0.1243386E+06 -0.1550679E+01  0.2887320E+06 -0.1104372E+00  0.3526184E+05  0.1590975E+01
  0.9476191E+00  0.1329664E+06 -0.1546563E+01  0.2810789E+06 -0.1230511E+00  0.3834555E+05  0.1595108E+01
  0.9785714E+00  0.1417323E+06 -0.1541805E+01  0.2734427E+06 -0.1364753E+00  0.4157840E+05  0.1599898E+01
  0.1009524E+01  0.1506926E+06 -0.1536341E+01  0.2658286E+06 -0.1506914E+00  0.4487949E+05  0.1605401E+01
  0.1040476E+01  0.1597120E+06 -0.1530106E+01  0.2582670E+06 -0.1657259E+00  0.4830977E+05  0.1611696E+01
  0.1071429E+01  0.1690275E+06 -0.1523066E+01  0.2509355E+06 -0.1816514E+00  0.5184991E+05  0.1618790E+01
  0.1102381E+01  0.1785243E+06 -0.1515145E+01  0.2436719E+06 -0.1984393E+00  0.5569095E+05  0.1626774E+01
  0.1133333E+01  0.1882351E+06 -0.1506300E+01  0.2364866E+06 -0.2160732E+00  0.5972081E+05  0.1635665E+01
  0.1164286E+01  0.1981618E+06 -0.1496453E+01  0.2293712E+06 -0.2345385E+00  0.6389398E+05  0.1645572E+01
  0.1195238E+01  0.2080647E+06 -0.1485579E+01  0.2223394E+06 -0.2538482E+00  0.6819749E+05  0.1656564E+01
  0.1226190E+01  0.2180331E+06 -0.1473673E+01  0.2156380E+06 -0.2741314E+00  0.7249730E+05  0.1668597E+01
  0.1257143E+01  0.2278043E+06 -0.1460716E+01  0.2090675E+06 -0.2955364E+00  0.7683271E+05  0.1681740E+01
  0.1288095E+01  0.2376152E+06 -0.1446716E+01  0.2026146E+06 -0.3174307E+00  0.8147374E+05  0.1695960E+01
  0.1319048E+01  0.2468565E+06 -0.1431723E+01  0.1962895E+06 -0.3404586E+00  0.8593505E+05  0.1711242E+01
  0.1350000E+01  0.2557104E+06 -0.1415796E+01  0.1900866E+06 -0.3643893E+00  0.9029357E+05  0.1727444E+01
  0.1380952E+01  0.2641537E+06 -0.1399063E+01  0.1839955E+06 -0.3892172E+00  0.9470655E+05  0.1744489E+01
  0.1411905E+01  0.2718591E+06 -0.1381598E+01  0.1783354E+06 -0.4148820E+00  0.9869481E+05  0.1762178E+01
  0.1442857E+01  0.2795627E+06 -0.1363750E+01  0.1728435E+06 -0.4415882E+00  0.1028329E+06  0.1780241E+01
  0.1473810E+01  0.2865928E+06 -0.1345514E+01  0.1674939E+06 -0.4694537E+00  0.1070529E+06  0.1798684E+01
  0.1504762E+01  0.2925709E+06 -0.1327071E+01  0.1623356E+06 -0.4981593E+00  0.1108636E+06  0.1817734E+01
  0.1535714E+01  0.2976941E+06 -0.1308806E+01  0.1573651E+06 -0.5276288E+00  0.1143561E+06  0.1836480E+01
  0.1566667E+01  0.3018029E+06 -0.1290830E+01  0.1525665E+06 -0.5578817E+00  0.1174572E+06  0.1855050E+01
  0.1597619E+01  0.3049392E+06 -0.1273547E+01  0.1479855E+06 -0.5889695E+00  0.1202569E+06  0.1872864E+01
  0.1628572E+01  0.3071477E+06 -0.1257283E+01  0.1438451E+06 -0.6204362E+00  0.1225311E+06  0.1889748E+01
  0.1659524E+01  0.3085242E+06 -0.1242269E+01  0.1399397E+06 -0.6521548E+00  0.1244344E+06  0.1905025E+01
  0.1690476E+01  0.3090684E+06 -0.1228533E+01  0.1362318E+06 -0.6842628E+00  0.1262951E+06  0.1919434E+01
  0.1721429E+01  0.3084689E+06 -0.1216450E+01  0.1327272E+06 -0.7162769E+00  0.1275937E+06  0.1932263E+01
  0.1752381E+01  0.3070068E+06 -0.1206189E+01  0.1294039E+06 -0.7478816E+00  0.1285186E+06  0.1943510E+01
  0.1783333E+01  0.3047197E+06 -0.1197941E+01  0.1262341E+06 -0.7787949E+00  0.1289846E+06  0.1952628E+01
  0.1814286E+01  0.3017383E+06 -0.1191831E+01  0.1231711E+06 -0.8087341E+00  0.1291473E+06  0.1959443E+01
  0.1845238E+01  0.2982038E+06 -0.1188005E+01  0.1202366E+06 -0.8375775E+00  0.1290522E+06  0.1964149E+01
  0.1876190E+01  0.2942827E+06 -0.1186755E+01  0.1175798E+06 -0.8643877E+00  0.1284771E+06  0.1965754E+01
  0.1907143E+01  0.2899168E+06 -0.1187913E+01  0.1149632E+06 -0.8892331E+00  0.1275814E+06  0.1964986E+01
  0.1938095E+01  0.2852605E+06 -0.1191398E+01  0.1122947E+06 -0.9127110E+00  0.1266709E+06  0.1962313E+01
  0.1969048E+01  0.2802956E+06 -0.1197285E+01  0.1095505E+06 -0.9348679E+00  0.1256516E+06  0.1957403E+01
  0.2000000E+01  0.2750362E+06 -0.1205741E+01  0.1066791E+06 -0.9553399E+00  0.1243365E+06  0.1949771E+01
