VARIABLES="w (rad/s)"
"abs(F   1   1)" "angle(F   1   1)"
"abs(F   1   2)" "angle(F   1   2)"
"abs(F   1   3)" "angle(F   1   3)"
Zone t="Diffraction force - beta =   0.000 deg",I=    64,F=POINT
  0.5000000E-01  0.5706072E+04 -0.1570790E+01  0.3478758E+06 -0.2373440E-04  0.1135263E+05  0.1570803E+01
  0.8095238E-01  0.9334095E+04 -0.1570793E+01  0.3468952E+06 -0.6378392E-04  0.1857068E+05  0.1570793E+01
  0.1119048E+00  0.1304947E+05 -0.1570791E+01  0.3454568E+06 -0.1264604E-03  0.2595657E+05  0.1570808E+01
  0.1428571E+00  0.1687565E+05 -0.1570784E+01  0.3435585E+06 -0.2164464E-03  0.3354411E+05  0.1570809E+01
  0.1738095E+00  0.2087099E+05 -0.1570775E+01  0.3412058E+06 -0.3405705E-03  0.4148383E+05  0.1570816E+01
  0.2047619E+00  0.2510330E+05 -0.1570766E+01  0.3383982E+06 -0.5090662E-03  0.4983020E+05  0.1570828E+01
  0.2357143E+00  0.2956796E+05 -0.1570750E+01  0.3351286E+06 -0.7366263E-03  0.5867934E+05  0.1570842E+01
  0.2666667E+00  0.3439616E+05 -0.1570729E+01  0.3314249E+06 -0.1040595E-02  0.6821359E+05  0.1570865E+01
  0.2976190E+00  0.3965455E+05 -0.1570694E+01  0.3272583E+06 -0.1452003E-02  0.7853058E+05  0.1570900E+01
  0.3285715E+00  0.4538864E+05 -0.1570641E+01  0.3226810E+06 -0.1999671E-02  0.8982268E+05  0.1570954E+01
  0.3595238E+00  0.5170891E+05 -0.1570563E+01  0.3176521E+06 -0.2732491E-02  0.1022284E+06  0.1571031E+01
  0.3904762E+00  0.5872541E+05 -0.1570445E+01  0.3122671E+06 -0.3701633E-02  0.1159446E+06  0.1571148E+01
  0.4214286E+00  0.6648734E+05 -0.1570273E+01  0.3064800E+06 -0.4937765E-02  0.1311047E+06  0.1571320E+01
  0.4523810E+00  0.7508785E+05 -0.1570020E+01  0.3003901E+06 -0.6539383E-02  0.1478915E+06  0.1571574E+01
  0.4833333E+00  0.8447730E+05 -0.1569665E+01  0.2939950E+06 -0.8441432E-02  0.1661602E+06  0.1571928E+01
  0.5142857E+00  0.9475462E+05 -0.1569170E+01  0.2873282E+06 -0.1076325E-01  0.1859559E+06  0.1572422E+01
  0.5452381E+00  0.1057416E+06 -0.1568505E+01  0.2804753E+06 -0.1345698E-01  0.2072113E+06  0.1573087E+01
  0.5761905E+00  0.1174331E+06 -0.1567634E+01  0.2733398E+06 -0.1651552E-01  0.2297858E+06  0.1573959E+01
  0.6071429E+00  0.1299826E+06 -0.1566498E+01  0.2661346E+06 -0.2005082E-01  0.2538685E+06  0.1575094E+01
  0.6380953E+00  0.1430855E+06 -0.1565067E+01  0.2587420E+06 -0.2392804E-01  0.2788092E+06  0.1576526E+01
  0.6690477E+00  0.1568410E+06 -0.1563270E+01  0.2511297E+06 -0.2824941E-01  0.3049264E+06  0.1578323E+01
  0.7000000E+00  0.1713116E+06 -0.1561035E+01  0.2435742E+06 -0.3308238E-01  0.3324214E+06  0.1580558E+01
  0.7309524E+00  0.1862400E+06 -0.1558308E+01  0.2358978E+06 -0.3834689E-01  0.3605548E+06  0.1583285E+01
  0.7619048E+00  0.2018429E+06 -0.1554993E+01  0.2280787E+06 -0.4411195E-01  0.3899169E+06  0.1586600E+01
  0.7928572E+00  0.2182335E+06 -0.1551000E+01  0.2202958E+06 -0.5038043E-01  0.4202455E+06  0.1590593E+01
  0.8238096E+00  0.2351933E+06 -0.1546233E+01  0.2125785E+06 -0.5719651E-01  0.4517279E+06  0.1595360E+01
  0.8547620E+00  0.2525068E+06 -0.1540594E+01  0.2048163E+06 -0.6454641E-01  0.4836131E+06  0.1600999E+01
  0.8857143E+00  0.2704479E+06 -0.1533970E+01  0.1970014E+06 -0.7246555E-01  0.5165511E+06  0.1607624E+01
  0.9166667E+00  0.2891431E+06 -0.1526255E+01  0.1893396E+06 -0.8092045E-01  0.5504989E+06  0.1615340E+01
  0.9476191E+00  0.3082990E+06 -0.1517312E+01  0.1818137E+06 -0.8999153E-01  0.5853459E+06  0.1624283E+01
  0.9785714E+00  0.3278763E+06 -0.1507025E+01  0.1743417E+06 -0.9965287E-01  0.6201539E+06  0.1634569E+01
  0.1009524E+01  0.3479652E+06 -0.1495252E+01  0.1668878E+06 -0.1099910E+00  0.6558972E+06  0.1646344E+01
  0.1040476E+01  0.3683450E+06 -0.1481907E+01  0.1595092E+06 -0.1209357E+00  0.6914666E+06  0.1659690E+01
  0.1071429E+01  0.3892892E+06 -0.1466844E+01  0.1524956E+06 -0.1324510E+00  0.7281560E+06  0.1674754E+01
  0.1102381E+01  0.4099159E+06 -0.1450004E+01  0.1455633E+06 -0.1447232E+00  0.7639972E+06  0.1691596E+01
  0.1133333E+01  0.4303525E+06 -0.1431327E+01  0.1387582E+06 -0.1577564E+00  0.7987876E+06  0.1710274E+01
  0.1164286E+01  0.4506705E+06 -0.1410754E+01  0.1320363E+06 -0.1716735E+00  0.8332774E+06  0.1730853E+01
  0.1195238E+01  0.4704221E+06 -0.1388299E+01  0.1253979E+06 -0.1864541E+00  0.8657976E+06  0.1753305E+01
  0.1226190E+01  0.4901107E+06 -0.1363898E+01  0.1192435E+06 -0.2014787E+00  0.8977532E+06  0.1777701E+01
  0.1257143E+01  0.5078242E+06 -0.1337830E+01  0.1132255E+06 -0.2176471E+00  0.9261692E+06  0.1803775E+01
  0.1288095E+01  0.5250074E+06 -0.1309860E+01  0.1073615E+06 -0.2345346E+00  0.9524275E+06  0.1831741E+01
  0.1319048E+01  0.5400141E+06 -0.1280640E+01  0.1016786E+06 -0.2526370E+00  0.9749224E+06  0.1860976E+01
  0.1350000E+01  0.5531402E+06 -0.1250307E+01  0.9613228E+05 -0.2719555E+00  0.9935816E+06  0.1891316E+01
  0.1380952E+01  0.5639118E+06 -0.1219275E+01  0.9071949E+05 -0.2925639E+00  0.1007340E+07  0.1922343E+01
  0.1411905E+01  0.5717572E+06 -0.1187865E+01  0.8580611E+05 -0.3128529E+00  0.1016677E+07  0.1953750E+01
  0.1442857E+01  0.5774116E+06 -0.1156603E+01  0.8106940E+05 -0.3345873E+00  0.1021478E+07  0.1985042E+01
  0.1473810E+01  0.5802279E+06 -0.1126084E+01  0.7651373E+05 -0.3574703E+00  0.1020616E+07  0.2015557E+01
  0.1504762E+01  0.5802594E+06 -0.1096629E+01  0.7216855E+05 -0.3816100E+00  0.1014528E+07  0.2045005E+01
  0.1535714E+01  0.5781698E+06 -0.1068225E+01  0.6801900E+05 -0.4070603E+00  0.1004935E+07  0.2073450E+01
  0.1566667E+01  0.5735341E+06 -0.1041831E+01  0.6404654E+05 -0.4339773E+00  0.9902589E+06  0.2099807E+01
  0.1597619E+01  0.5667596E+06 -0.1017627E+01  0.6025938E+05 -0.4622834E+00  0.9717876E+06  0.2123969E+01
  0.1628572E+01  0.5584348E+06 -0.9956406E+00  0.5685474E+05 -0.4889662E+00  0.9511266E+06  0.2145936E+01
  0.1659524E+01  0.5483030E+06 -0.9762746E+00  0.5365064E+05 -0.5166029E+00  0.9278472E+06  0.2165361E+01
  0.1690476E+01  0.5366772E+06 -0.9598407E+00  0.5062566E+05 -0.5451560E+00  0.9020312E+06  0.2181845E+01
  0.1721429E+01  0.5236731E+06 -0.9466721E+00  0.4777588E+05 -0.5741338E+00  0.8734631E+06  0.2194911E+01
  0.1752381E+01  0.5101361E+06 -0.9360712E+00  0.4511311E+05 -0.6028650E+00  0.8445842E+06  0.2205526E+01
  0.1783333E+01  0.4961798E+06 -0.9280865E+00  0.4259793E+05 -0.6316199E+00  0.8154489E+06  0.2213645E+01
  0.1814286E+01  0.4816121E+06 -0.9234652E+00  0.4021023E+05 -0.6603577E+00  0.7848877E+06  0.2218093E+01
  0.1845238E+01  0.4670709E+06 -0.9217114E+00  0.3793799E+05 -0.6884699E+00  0.7547380E+06  0.2219696E+01
  0.1876190E+01  0.4526999E+06 -0.9224834E+00  0.3584949E+05 -0.7117465E+00  0.7255652E+06  0.2218893E+01
  0.1907143E+01  0.4384096E+06 -0.9254863E+00  0.3386127E+05 -0.7331944E+00  0.6971273E+06  0.2216047E+01
  0.1938095E+01  0.4240853E+06 -0.9312307E+00  0.3193465E+05 -0.7536769E+00  0.6688151E+06  0.2210399E+01
  0.1969048E+01  0.4100312E+06 -0.9397569E+00  0.3004684E+05 -0.7731269E+00  0.6409092E+06  0.2201722E+01
  0.2000000E+01  0.3963061E+06 -0.9508057E+00  0.2820927E+05 -0.7906756E+00  0.6137015E+06  0.2190449E+01
