VARIABLES="w (rad/s)"
"abs(F   1   1)" "angle(F   1   1)"
"abs(F   1   2)" "angle(F   1   2)"
"abs(F   1   3)" "angle(F   1   3)"
Zone t="Diffraction force - beta =   0.000 deg",I=    64,F=POINT
  0.5000000E-01  0.1393196E+04 -0.1570794E+01  0.3527155E+03 -0.3085385E+01  0.3416727E+03 -0.1570789E+01
  0.8095238E-01  0.2275874E+04 -0.1570791E+01  0.9123587E+03 -0.3083272E+01  0.5507728E+03 -0.1570775E+01
  0.1119048E+00  0.3171008E+04 -0.1570785E+01  0.1732130E+04 -0.3080803E+01  0.7669505E+03 -0.1570753E+01
  0.1428571E+00  0.4093733E+04 -0.1570776E+01  0.2812979E+04 -0.3077700E+01  0.9921840E+03 -0.1570721E+01
  0.1738095E+00  0.5049276E+04 -0.1570763E+01  0.4159587E+04 -0.3073811E+01  0.1234117E+04 -0.1570673E+01
  0.2047619E+00  0.6050287E+04 -0.1570744E+01  0.5779387E+04 -0.3068970E+01  0.1485879E+04 -0.1570604E+01
  0.2357143E+00  0.7103533E+04 -0.1570717E+01  0.7682187E+04 -0.3062909E+01  0.1754858E+04 -0.1570505E+01
  0.2666667E+00  0.8229671E+04 -0.1570677E+01  0.9869681E+04 -0.3055516E+01  0.2060092E+04 -0.1570361E+01
  0.2976190E+00  0.9438638E+04 -0.1570617E+01  0.1235738E+05 -0.3046268E+01  0.2378060E+04 -0.1570147E+01
  0.3285715E+00  0.1074294E+05 -0.1570529E+01  0.1516076E+05 -0.3035314E+01  0.2731810E+04 -0.1569833E+01
  0.3595238E+00  0.1216945E+05 -0.1570398E+01  0.1825310E+05 -0.3021905E+01  0.3141881E+04 -0.1569370E+01
  0.3904762E+00  0.1372938E+05 -0.1570202E+01  0.2166355E+05 -0.3006139E+01  0.3589130E+04 -0.1568682E+01
  0.4214286E+00  0.1542865E+05 -0.1569918E+01  0.2534638E+05 -0.2988583E+01  0.4072975E+04 -0.1567678E+01
  0.4523810E+00  0.1727555E+05 -0.1569502E+01  0.2931700E+05 -0.2968341E+01  0.4629212E+04 -0.1566233E+01
  0.4833333E+00  0.1927893E+05 -0.1568930E+01  0.3347098E+05 -0.2947779E+01  0.5274473E+04 -0.1564292E+01
  0.5142857E+00  0.2141293E+05 -0.1568139E+01  0.3783871E+05 -0.2925642E+01  0.5941077E+04 -0.1561589E+01
  0.5452381E+00  0.2364007E+05 -0.1567092E+01  0.4240480E+05 -0.2903840E+01  0.6604941E+04 -0.1557940E+01
  0.5761905E+00  0.2596427E+05 -0.1565742E+01  0.4709790E+05 -0.2882419E+01  0.7359406E+04 -0.1553338E+01
  0.6071429E+00  0.2838157E+05 -0.1564018E+01  0.5189671E+05 -0.2860407E+01  0.8217239E+04 -0.1547639E+01
  0.6380953E+00  0.3084129E+05 -0.1561891E+01  0.5683403E+05 -0.2839925E+01  0.9048236E+04 -0.1540466E+01
  0.6690477E+00  0.3331327E+05 -0.1559277E+01  0.6187989E+05 -0.2819986E+01  0.9861538E+04 -0.1531516E+01
  0.7000000E+00  0.3578227E+05 -0.1556102E+01  0.6698948E+05 -0.2800096E+01  0.1068714E+05 -0.1520610E+01
  0.7309524E+00  0.3824517E+05 -0.1552333E+01  0.7214938E+05 -0.2781054E+01  0.1155829E+05 -0.1507773E+01
  0.7619048E+00  0.4070102E+05 -0.1547905E+01  0.7732443E+05 -0.2762473E+01  0.1248381E+05 -0.1492882E+01
  0.7928572E+00  0.4309804E+05 -0.1542742E+01  0.8249160E+05 -0.2744326E+01  0.1336121E+05 -0.1475177E+01
  0.8238096E+00  0.4540221E+05 -0.1536789E+01  0.8766723E+05 -0.2727003E+01  0.1412625E+05 -0.1453888E+01
  0.8547620E+00  0.4757068E+05 -0.1529996E+01  0.9282495E+05 -0.2710523E+01  0.1480137E+05 -0.1428747E+01
  0.8857143E+00  0.4960113E+05 -0.1522346E+01  0.9792753E+05 -0.2694712E+01  0.1541586E+05 -0.1399660E+01
  0.9166667E+00  0.5147514E+05 -0.1513840E+01  0.1029363E+06 -0.2679512E+01  0.1596983E+05 -0.1366392E+01
  0.9476191E+00  0.5316231E+05 -0.1504488E+01  0.1078150E+06 -0.2664850E+01  0.1641175E+05 -0.1328027E+01
  0.9785714E+00  0.5459750E+05 -0.1494275E+01  0.1125500E+06 -0.2650835E+01  0.1668220E+05 -0.1283061E+01
  0.1009524E+01  0.5576677E+05 -0.1483267E+01  0.1171629E+06 -0.2637860E+01  0.1673091E+05 -0.1229505E+01
  0.1040476E+01  0.5660809E+05 -0.1471499E+01  0.1216280E+06 -0.2625938E+01  0.1652622E+05 -0.1164629E+01
  0.1071429E+01  0.5708741E+05 -0.1459085E+01  0.1259344E+06 -0.2615103E+01  0.1606938E+05 -0.1085157E+01
  0.1102381E+01  0.5717988E+05 -0.1446182E+01  0.1300583E+06 -0.2605093E+01  0.1535131E+05 -0.9852290E+00
  0.1133333E+01  0.5684450E+05 -0.1432966E+01  0.1339537E+06 -0.2595792E+01  0.1444835E+05 -0.8582779E+00
  0.1164286E+01  0.5606914E+05 -0.1419728E+01  0.1376462E+06 -0.2587591E+01  0.1344215E+05 -0.6932455E+00
  0.1195238E+01  0.5482037E+05 -0.1406733E+01  0.1410898E+06 -0.2580251E+01  0.1249690E+05 -0.4745262E+00
  0.1226190E+01  0.5308232E+05 -0.1394403E+01  0.1443013E+06 -0.2574037E+01  0.1193374E+05 -0.1904872E+00
  0.1257143E+01  0.5084532E+05 -0.1383079E+01  0.1472819E+06 -0.2568432E+01  0.1222521E+05  0.1468810E+00
  0.1288095E+01  0.4808064E+05 -0.1373864E+01  0.1499375E+06 -0.2564526E+01  0.1374887E+05  0.4870739E+00
  0.1319048E+01  0.4481531E+05 -0.1367278E+01  0.1523575E+06 -0.2561500E+01  0.1665212E+05  0.7788863E+00
  0.1350000E+01  0.4104120E+05 -0.1364803E+01  0.1545228E+06 -0.2559737E+01  0.2078567E+05  0.1005839E+01
  0.1380952E+01  0.3678323E+05 -0.1368549E+01  0.1564411E+06 -0.2559019E+01  0.2596204E+05  0.1178586E+01
  0.1411905E+01  0.3237444E+05 -0.1379277E+01  0.1576781E+06 -0.2560551E+01  0.3152089E+05  0.1301386E+01
  0.1442857E+01  0.2731925E+05 -0.1407580E+01  0.1591050E+06 -0.2562312E+01  0.3823272E+05  0.1409899E+01
  0.1473810E+01  0.2195467E+05 -0.1464592E+01  0.1603085E+06 -0.2565368E+01  0.4566436E+05  0.1499448E+01
  0.1504762E+01  0.1644590E+05 -0.1581375E+01  0.1612902E+06 -0.2569629E+01  0.5374466E+05  0.1575210E+01
  0.1535714E+01  0.1127154E+05 -0.1845935E+01  0.1620735E+06 -0.2575276E+01  0.6240168E+05  0.1640843E+01
  0.1566667E+01  0.8109920E+04 -0.2463902E+01  0.1626985E+06 -0.2581991E+01  0.7162362E+05  0.1698701E+01
  0.1597619E+01  0.9953837E+04  0.3060884E+01  0.1631688E+06 -0.2589595E+01  0.8133191E+05  0.1750382E+01
  0.1628572E+01  0.1541224E+05  0.2687072E+01  0.1635012E+06 -0.2598108E+01  0.9147898E+05  0.1797128E+01
  0.1659524E+01  0.2212729E+05  0.2526090E+01  0.1636958E+06 -0.2607316E+01  0.1019897E+06  0.1839756E+01
  0.1690476E+01  0.2933529E+05  0.2447049E+01  0.1637689E+06 -0.2616953E+01  0.1128251E+06  0.1878885E+01
  0.1721429E+01  0.3678931E+05  0.2404071E+01  0.1636595E+06 -0.2626527E+01  0.1238958E+06  0.1915103E+01
  0.1752381E+01  0.4437325E+05  0.2379456E+01  0.1634202E+06 -0.2636000E+01  0.1351493E+06  0.1948648E+01
  0.1783333E+01  0.5201591E+05  0.2365016E+01  0.1629856E+06 -0.2645036E+01  0.1465090E+06  0.1979920E+01
  0.1814286E+01  0.5963274E+05  0.2356803E+01  0.1622644E+06 -0.2653162E+01  0.1579459E+06  0.2008955E+01
  0.1845238E+01  0.6718954E+05  0.2352320E+01  0.1612163E+06 -0.2660556E+01  0.1693453E+06  0.2036026E+01
  0.1876190E+01  0.7462766E+05  0.2350341E+01  0.1597810E+06 -0.2667001E+01  0.1806697E+06  0.2061430E+01
  0.1907143E+01  0.8191930E+05  0.2349892E+01  0.1578771E+06 -0.2672690E+01  0.1918004E+06  0.2085265E+01
  0.1938095E+01  0.8900659E+05  0.2350585E+01  0.1553873E+06 -0.2677251E+01  0.2026387E+06  0.2107791E+01
  0.1969048E+01  0.9583679E+05  0.2351878E+01  0.1522493E+06 -0.2681276E+01  0.2131764E+06  0.2128882E+01
  0.2000000E+01  0.1023764E+06  0.2353502E+01  0.1484402E+06 -0.2685123E+01  0.2233045E+06  0.2148743E+01
