VARIABLES="w (rad/s)"
"abs(F   1   1)" "angle(F   1   1)"
"abs(F   1   2)" "angle(F   1   2)"
"abs(F   1   3)" "angle(F   1   3)"
Zone t="Diffraction force - beta =   0.000 deg",I=    64,F=POINT
  0.5000000E-01  0.1068690E+04 -0.1570795E+01  0.2903516E+03 -0.3091505E+01  0.3021034E+03 -0.1570793E+01
  0.8095238E-01  0.1747339E+04 -0.1570793E+01  0.7526290E+03 -0.3089706E+01  0.4844207E+03 -0.1570786E+01
  0.1119048E+00  0.2439613E+04 -0.1570789E+01  0.1430104E+04 -0.3087514E+01  0.6780010E+03 -0.1570775E+01
  0.1428571E+00  0.3151306E+04 -0.1570783E+01  0.2323107E+04 -0.3084718E+01  0.8799311E+03 -0.1570759E+01
  0.1738095E+00  0.3890495E+04 -0.1570774E+01  0.3438839E+04 -0.3081246E+01  0.1086981E+04 -0.1570735E+01
  0.2047619E+00  0.4664144E+04 -0.1570762E+01  0.4778616E+04 -0.3076854E+01  0.1307466E+04 -0.1570701E+01
  0.2357143E+00  0.5486981E+04 -0.1570744E+01  0.6352032E+04 -0.3071337E+01  0.1549388E+04 -0.1570652E+01
  0.2666667E+00  0.6361091E+04 -0.1570717E+01  0.8168207E+04 -0.3064657E+01  0.1799385E+04 -0.1570578E+01
  0.2976190E+00  0.7305779E+04 -0.1570678E+01  0.1022522E+05 -0.3056195E+01  0.2080138E+04 -0.1570470E+01
  0.3285715E+00  0.8337848E+04 -0.1570620E+01  0.1254172E+05 -0.3046118E+01  0.2397534E+04 -0.1570311E+01
  0.3595238E+00  0.9457921E+04 -0.1570532E+01  0.1511437E+05 -0.3033903E+01  0.2731359E+04 -0.1570072E+01
  0.3904762E+00  0.1068427E+05 -0.1570401E+01  0.1794493E+05 -0.3019397E+01  0.3099243E+04 -0.1569712E+01
  0.4214286E+00  0.1204544E+05 -0.1570209E+01  0.2099404E+05 -0.3003105E+01  0.3544096E+04 -0.1569201E+01
  0.4523810E+00  0.1352542E+05 -0.1569929E+01  0.2430061E+05 -0.2984403E+01  0.4012120E+04 -0.1568445E+01
  0.4833333E+00  0.1511988E+05 -0.1569540E+01  0.2779262E+05 -0.2965454E+01  0.4510109E+04 -0.1567391E+01
  0.5142857E+00  0.1683710E+05 -0.1569002E+01  0.3144911E+05 -0.2944809E+01  0.5073808E+04 -0.1565948E+01
  0.5452381E+00  0.1867531E+05 -0.1568286E+01  0.3528214E+05 -0.2924325E+01  0.5721698E+04 -0.1564078E+01
  0.5761905E+00  0.2058362E+05 -0.1567357E+01  0.3925813E+05 -0.2904246E+01  0.6344470E+04 -0.1561583E+01
  0.6071429E+00  0.2255860E+05 -0.1566159E+01  0.4336135E+05 -0.2883703E+01  0.6987217E+04 -0.1558352E+01
  0.6380953E+00  0.2460244E+05 -0.1564672E+01  0.4759295E+05 -0.2864357E+01  0.7703710E+04 -0.1554410E+01
  0.6690477E+00  0.2670716E+05 -0.1562837E+01  0.5191126E+05 -0.2845153E+01  0.8473131E+04 -0.1549599E+01
  0.7000000E+00  0.2885497E+05 -0.1560592E+01  0.5632033E+05 -0.2826025E+01  0.9264679E+04 -0.1543716E+01
  0.7309524E+00  0.3100664E+05 -0.1557895E+01  0.6083411E+05 -0.2807866E+01  0.1002344E+05 -0.1536511E+01
  0.7619048E+00  0.3316531E+05 -0.1554683E+01  0.6540144E+05 -0.2790097E+01  0.1078226E+05 -0.1527862E+01
  0.7928572E+00  0.3532374E+05 -0.1550902E+01  0.6998478E+05 -0.2772504E+01  0.1157720E+05 -0.1517740E+01
  0.8238096E+00  0.3748136E+05 -0.1546505E+01  0.7458748E+05 -0.2755330E+01  0.1241710E+05 -0.1506088E+01
  0.8547620E+00  0.3962036E+05 -0.1541444E+01  0.7921967E+05 -0.2738855E+01  0.1327471E+05 -0.1492704E+01
  0.8857143E+00  0.4170643E+05 -0.1535658E+01  0.8384960E+05 -0.2723024E+01  0.1406772E+05 -0.1477010E+01
  0.9166667E+00  0.4371069E+05 -0.1529097E+01  0.8846463E+05 -0.2707879E+01  0.1478486E+05 -0.1458696E+01
  0.9476191E+00  0.4561836E+05 -0.1521734E+01  0.9303114E+05 -0.2693266E+01  0.1545847E+05 -0.1437772E+01
  0.9785714E+00  0.4742302E+05 -0.1513563E+01  0.9753687E+05 -0.2679230E+01  0.1609390E+05 -0.1414161E+01
  0.1009524E+01  0.4910729E+05 -0.1504588E+01  0.1019606E+06 -0.2665714E+01  0.1666198E+05 -0.1387511E+01
  0.1040476E+01  0.5062320E+05 -0.1494787E+01  0.1062945E+06 -0.2652774E+01  0.1716038E+05 -0.1357625E+01
  0.1071429E+01  0.5197902E+05 -0.1484226E+01  0.1105483E+06 -0.2640683E+01  0.1756534E+05 -0.1324108E+01
  0.1102381E+01  0.5311349E+05 -0.1472890E+01  0.1147031E+06 -0.2629426E+01  0.1781873E+05 -0.1285882E+01
  0.1133333E+01  0.5400073E+05 -0.1460839E+01  0.1187423E+06 -0.2619007E+01  0.1788244E+05 -0.1241791E+01
  0.1164286E+01  0.5462043E+05 -0.1448164E+01  0.1226608E+06 -0.2609456E+01  0.1774190E+05 -0.1190601E+01
  0.1195238E+01  0.5492389E+05 -0.1434932E+01  0.1264285E+06 -0.2600520E+01  0.1741099E+05 -0.1131145E+01
  0.1226190E+01  0.5492106E+05 -0.1421371E+01  0.1300589E+06 -0.2592479E+01  0.1687641E+05 -0.1061208E+01
  0.1257143E+01  0.5456661E+05 -0.1407457E+01  0.1335561E+06 -0.2584774E+01  0.1614995E+05 -0.9772712E+00
  0.1288095E+01  0.5386203E+05 -0.1393918E+01  0.1368200E+06 -0.2578562E+01  0.1524054E+05 -0.8763890E+00
  0.1319048E+01  0.5276996E+05 -0.1380519E+01  0.1399668E+06 -0.2572882E+01  0.1419380E+05 -0.7500248E+00
  0.1350000E+01  0.5129937E+05 -0.1367774E+01  0.1429378E+06 -0.2568080E+01  0.1307552E+05 -0.5876683E+00
  0.1380952E+01  0.4941352E+05 -0.1355982E+01  0.1457292E+06 -0.2564158E+01  0.1205900E+05 -0.3780594E+00
  0.1411905E+01  0.4724777E+05 -0.1345270E+01  0.1477676E+06 -0.2562238E+01  0.1145454E+05 -0.1229942E+00
  0.1442857E+01  0.4461423E+05 -0.1336890E+01  0.1501936E+06 -0.2560085E+01  0.1144771E+05  0.1850685E+00
  0.1473810E+01  0.4159097E+05 -0.1331452E+01  0.1524396E+06 -0.2558885E+01  0.1239709E+05  0.5049230E+00
  0.1504762E+01  0.3818787E+05 -0.1330205E+01  0.1545184E+06 -0.2558562E+01  0.1440342E+05  0.7910658E+00
  0.1535714E+01  0.3442833E+05 -0.1335031E+01  0.1564420E+06 -0.2559155E+01  0.1736916E+05  0.1022582E+01
  0.1566667E+01  0.3034828E+05 -0.1348939E+01  0.1581993E+06 -0.2560505E+01  0.2113681E+05  0.1202913E+01
  0.1597619E+01  0.2597691E+05 -0.1377111E+01  0.1598075E+06 -0.2562663E+01  0.2554956E+05  0.1343498E+01
  0.1628572E+01  0.2139812E+05 -0.1429869E+01  0.1612759E+06 -0.2565788E+01  0.3052472E+05  0.1455909E+01
  0.1659524E+01  0.1671575E+05 -0.1528941E+01  0.1626144E+06 -0.2569845E+01  0.3597245E+05  0.1547732E+01
  0.1690476E+01  0.1222707E+05 -0.1727236E+01  0.1638326E+06 -0.2574433E+01  0.4184872E+05  0.1624666E+01
  0.1721429E+01  0.8778468E+04 -0.2149066E+01  0.1649602E+06 -0.2579687E+01  0.4810555E+05  0.1690619E+01
  0.1752381E+01  0.8363190E+04 -0.2832779E+01  0.1659821E+06 -0.2585448E+01  0.5466311E+05  0.1748333E+01
  0.1783333E+01  0.1161916E+05  0.2942031E+01  0.1669098E+06 -0.2591431E+01  0.6150717E+05  0.1799551E+01
  0.1814286E+01  0.1665860E+05  0.2696513E+01  0.1677189E+06 -0.2597494E+01  0.6860648E+05  0.1845558E+01
  0.1845238E+01  0.2239420E+05  0.2574032E+01  0.1684145E+06 -0.2603271E+01  0.7592628E+05  0.1887203E+01
  0.1876190E+01  0.2845657E+05  0.2506474E+01  0.1689798E+06 -0.2608797E+01  0.8342853E+05  0.1925284E+01
  0.1907143E+01  0.3469978E+05  0.2466049E+01  0.1693776E+06 -0.2613982E+01  0.9108123E+05  0.1960138E+01
  0.1938095E+01  0.4101811E+05  0.2440993E+01  0.1695366E+06 -0.2618316E+01  0.9886137E+05  0.1992247E+01
  0.1969048E+01  0.4737718E+05  0.2424948E+01  0.1694513E+06 -0.2622056E+01  0.1067103E+06  0.2022030E+01
  0.2000000E+01  0.5373061E+05  0.2414713E+01  0.1690188E+06 -0.2624822E+01  0.1145918E+06  0.2049866E+01
