VARIABLES="w (rad/s)"
"abs(F   1   1)" "angle(F   1   1)"
"abs(F   1   2)" "angle(F   1   2)"
"abs(F   1   3)" "angle(F   1   3)"
Zone t="Diffraction force - beta =   0.000 deg",I=    64,F=POINT
  0.5000000E-01  0.5622155E+04 -0.1570792E+01  0.6981568E+06 -0.5026869E-04  0.1947461E+04 -0.1570792E+01
  0.8095238E-01  0.9170650E+04 -0.1570786E+01  0.6965002E+06 -0.1351650E-03  0.3169484E+04 -0.1570822E+01
  0.1119048E+00  0.1278647E+05 -0.1570792E+01  0.6940702E+06 -0.2682108E-03  0.4426943E+04 -0.1570807E+01
  0.1428571E+00  0.1651811E+05 -0.1570783E+01  0.6908654E+06 -0.4594480E-03  0.5750068E+04 -0.1570793E+01
  0.1738095E+00  0.2040123E+05 -0.1570776E+01  0.6868812E+06 -0.7239822E-03  0.7163795E+04 -0.1570774E+01
  0.2047619E+00  0.2448015E+05 -0.1570764E+01  0.6821019E+06 -0.1083589E-02  0.8677350E+04 -0.1570764E+01
  0.2357143E+00  0.2879264E+05 -0.1570749E+01  0.6765253E+06 -0.1570504E-02  0.1029595E+05 -0.1570747E+01
  0.2666667E+00  0.3342632E+05 -0.1570724E+01  0.6701385E+06 -0.2223280E-02  0.1212742E+05 -0.1570730E+01
  0.2976190E+00  0.3842205E+05 -0.1570688E+01  0.6629296E+06 -0.3108237E-02  0.1412073E+05 -0.1570684E+01
  0.3285715E+00  0.4384448E+05 -0.1570633E+01  0.6548968E+06 -0.4290787E-02  0.1632073E+05 -0.1570636E+01
  0.3595238E+00  0.4980704E+05 -0.1570554E+01  0.6460726E+06 -0.5877047E-02  0.1887221E+05 -0.1570552E+01
  0.3904762E+00  0.5637048E+05 -0.1570438E+01  0.6364268E+06 -0.7982085E-02  0.2175708E+05 -0.1570434E+01
  0.4214286E+00  0.6355550E+05 -0.1570266E+01  0.6261003E+06 -0.1067683E-01  0.2492890E+05 -0.1570265E+01
  0.4523810E+00  0.7143073E+05 -0.1570018E+01  0.6150725E+06 -0.1416622E-01  0.2855603E+05 -0.1570018E+01
  0.4833333E+00  0.8002523E+05 -0.1569677E+01  0.6034991E+06 -0.1834288E-01  0.3270090E+05 -0.1569675E+01
  0.5142857E+00  0.8923949E+05 -0.1569208E+01  0.5914179E+06 -0.2344693E-01  0.3719649E+05 -0.1569206E+01
  0.5452381E+00  0.9901266E+05 -0.1568590E+01  0.5788540E+06 -0.2938620E-01  0.4208842E+05 -0.1568586E+01
  0.5761905E+00  0.1093090E+06 -0.1567798E+01  0.5659351E+06 -0.3617336E-01  0.4747305E+05 -0.1567792E+01
  0.6071429E+00  0.1200995E+06 -0.1566788E+01  0.5527128E+06 -0.4400390E-01  0.5341941E+05 -0.1566782E+01
  0.6380953E+00  0.1312557E+06 -0.1565551E+01  0.5390949E+06 -0.5266709E-01  0.5973564E+05 -0.1565541E+01
  0.6690477E+00  0.1426697E+06 -0.1564040E+01  0.5252397E+06 -0.6235072E-01  0.6633233E+05 -0.1564025E+01
  0.7000000E+00  0.1543372E+06 -0.1562221E+01  0.5112233E+06 -0.7317242E-01  0.7336463E+05 -0.1562199E+01
  0.7309524E+00  0.1662348E+06 -0.1560079E+01  0.4969938E+06 -0.8503606E-01  0.8095515E+05 -0.1560048E+01
  0.7619048E+00  0.1783042E+06 -0.1557579E+01  0.4826513E+06 -0.9804909E-01  0.8901492E+05 -0.1557536E+01
  0.7928572E+00  0.1904404E+06 -0.1554694E+01  0.4682531E+06 -0.1122660E+00  0.9738139E+05 -0.1554632E+01
  0.8238096E+00  0.2025592E+06 -0.1551410E+01  0.4537818E+06 -0.1277106E+00  0.1060474E+06 -0.1551322E+01
  0.8547620E+00  0.2145837E+06 -0.1547725E+01  0.4392604E+06 -0.1444125E+00  0.1150022E+06 -0.1547604E+01
  0.8857143E+00  0.2264583E+06 -0.1543647E+01  0.4247880E+06 -0.1624335E+00  0.1242546E+06 -0.1543491E+01
  0.9166667E+00  0.2381483E+06 -0.1539201E+01  0.4103651E+06 -0.1818172E+00  0.1338695E+06 -0.1539007E+01
  0.9476191E+00  0.2495260E+06 -0.1534424E+01  0.3960473E+06 -0.2026069E+00  0.1437906E+06 -0.1534179E+01
  0.9785714E+00  0.2605069E+06 -0.1529366E+01  0.3818043E+06 -0.2248163E+00  0.1538242E+06 -0.1529049E+01
  0.1009524E+01  0.2709715E+06 -0.1524092E+01  0.3676642E+06 -0.2485044E+00  0.1638058E+06 -0.1523680E+01
  0.1040476E+01  0.2807694E+06 -0.1518692E+01  0.3536369E+06 -0.2737497E+00  0.1737214E+06 -0.1518157E+01
  0.1071429E+01  0.2898725E+06 -0.1513298E+01  0.3397164E+06 -0.3006203E+00  0.1835065E+06 -0.1512617E+01
  0.1102381E+01  0.2981559E+06 -0.1508047E+01  0.3259332E+06 -0.3292567E+00  0.1930905E+06 -0.1507204E+01
  0.1133333E+01  0.3055479E+06 -0.1503116E+01  0.3123263E+06 -0.3597591E+00  0.2024302E+06 -0.1502096E+01
  0.1164286E+01  0.3120022E+06 -0.1498676E+01  0.2988527E+06 -0.3923812E+00  0.2113591E+06 -0.1497468E+01
  0.1195238E+01  0.3174014E+06 -0.1494915E+01  0.2855839E+06 -0.4272075E+00  0.2198980E+06 -0.1493498E+01
  0.1226190E+01  0.3217868E+06 -0.1492054E+01  0.2724480E+06 -0.4644824E+00  0.2278512E+06 -0.1490428E+01
  0.1257143E+01  0.3250659E+06 -0.1490208E+01  0.2595899E+06 -0.5047583E+00  0.2351873E+06 -0.1488360E+01
  0.1288095E+01  0.3272539E+06 -0.1489826E+01  0.2468224E+06 -0.5475808E+00  0.2417998E+06 -0.1487784E+01
  0.1319048E+01  0.3283537E+06 -0.1490904E+01  0.2343584E+06 -0.5942119E+00  0.2477135E+06 -0.1488675E+01
  0.1350000E+01  0.3284170E+06 -0.1493697E+01  0.2221818E+06 -0.6449942E+00  0.2527885E+06 -0.1491335E+01
  0.1380952E+01  0.3274611E+06 -0.1498398E+01  0.2103445E+06 -0.7004620E+00  0.2570742E+06 -0.1495952E+01
  0.1411905E+01  0.3259684E+06 -0.1504489E+01  0.1986815E+06 -0.7571010E+00  0.2610802E+06 -0.1502063E+01
  0.1442857E+01  0.3232958E+06 -0.1513296E+01  0.1876615E+06 -0.8242624E+00  0.2638517E+06 -0.1510972E+01
  0.1473810E+01  0.3198475E+06 -0.1524451E+01  0.1772759E+06 -0.8987273E+00  0.2657832E+06 -0.1522400E+01
  0.1504762E+01  0.3156899E+06 -0.1538107E+01  0.1676992E+06 -0.9817048E+00  0.2669893E+06 -0.1536471E+01
  0.1535714E+01  0.3109578E+06 -0.1554339E+01  0.1591618E+06 -0.1073778E+01  0.2674706E+06 -0.1553375E+01
  0.1566667E+01  0.3057145E+06 -0.1573229E+01  0.1519559E+06 -0.1174868E+01  0.2672987E+06 -0.1573206E+01
  0.1597619E+01  0.3000629E+06 -0.1594837E+01  0.1462989E+06 -0.1284612E+01  0.2665261E+06 -0.1596112E+01
  0.1628572E+01  0.2940894E+06 -0.1619237E+01  0.1424860E+06 -0.1400972E+01  0.2652166E+06 -0.1622166E+01
  0.1659524E+01  0.2878669E+06 -0.1646408E+01  0.1406750E+06 -0.1520553E+01  0.2634064E+06 -0.1651464E+01
  0.1690476E+01  0.2814823E+06 -0.1676355E+01  0.1408677E+06 -0.1639329E+01  0.2611663E+06 -0.1684084E+01
  0.1721429E+01  0.2750115E+06 -0.1709132E+01  0.1429620E+06 -0.1753597E+01  0.2586152E+06 -0.1720213E+01
  0.1752381E+01  0.2685036E+06 -0.1744754E+01  0.1466898E+06 -0.1859497E+01  0.2558794E+06 -0.1759646E+01
  0.1783333E+01  0.2620684E+06 -0.1783074E+01  0.1516690E+06 -0.1954473E+01  0.2529598E+06 -0.1802625E+01
  0.1814286E+01  0.2557192E+06 -0.1824043E+01  0.1574114E+06 -0.2037997E+01  0.2499420E+06 -0.1849149E+01
  0.1845238E+01  0.2495176E+06 -0.1867621E+01  0.1635272E+06 -0.2111032E+01  0.2469051E+06 -0.1899108E+01
  0.1876190E+01  0.2434832E+06 -0.1913788E+01  0.1695083E+06 -0.2174582E+01  0.2439778E+06 -0.1952306E+01
  0.1907143E+01  0.2376511E+06 -0.1962296E+01  0.1750398E+06 -0.2230587E+01  0.2411197E+06 -0.2008699E+01
  0.1938095E+01  0.2320659E+06 -0.2012943E+01  0.1798742E+06 -0.2280587E+01  0.2384596E+06 -0.2068257E+01
  0.1969048E+01  0.2267228E+06 -0.2065787E+01  0.1839262E+06 -0.2326665E+01  0.2360704E+06 -0.2130719E+01
  0.2000000E+01  0.2216400E+06 -0.2120821E+01  0.1870659E+06 -0.2370376E+01  0.2340785E+06 -0.2196088E+01
