VARIABLES="w (rad/s)"
"abs(F   1   1)" "angle(F   1   1)"
"abs(F   1   2)" "angle(F   1   2)"
"abs(F   1   3)" "angle(F   1   3)"
Zone t="Diffraction force - beta =   0.000 deg",I=    64,F=POINT
  0.5000000E-01  0.1181469E+04 -0.1570795E+01  0.9896149E+02 -0.3090754E+01  0.2152561E+04  0.1570797E+01
  0.8095238E-01  0.1933177E+04 -0.1570793E+01  0.2565361E+03 -0.3088935E+01  0.3514979E+04  0.1570799E+01
  0.1119048E+00  0.2699040E+04 -0.1570789E+01  0.4872190E+03 -0.3086692E+01  0.4897338E+04  0.1570801E+01
  0.1428571E+00  0.3486536E+04 -0.1570784E+01  0.7918898E+03 -0.3083882E+01  0.6314286E+04  0.1570805E+01
  0.1738095E+00  0.4304021E+04 -0.1570776E+01  0.1171850E+04 -0.3080351E+01  0.7784286E+04  0.1570811E+01
  0.2047619E+00  0.5159803E+04 -0.1570764E+01  0.1629446E+04 -0.3075938E+01  0.9315676E+04  0.1570820E+01
  0.2357143E+00  0.6069278E+04 -0.1570747E+01  0.2165134E+04 -0.3070312E+01  0.1092450E+05  0.1570832E+01
  0.2666667E+00  0.7032124E+04 -0.1570722E+01  0.2784764E+04 -0.3063556E+01  0.1264221E+05  0.1570849E+01
  0.2976190E+00  0.8073163E+04 -0.1570686E+01  0.3487729E+04 -0.3054994E+01  0.1447369E+05  0.1570876E+01
  0.3285715E+00  0.9213913E+04 -0.1570632E+01  0.4278069E+04 -0.3044763E+01  0.1644406E+05  0.1570915E+01
  0.3595238E+00  0.1044522E+05 -0.1570550E+01  0.5155849E+04 -0.3032321E+01  0.1860127E+05  0.1570972E+01
  0.3904762E+00  0.1179357E+05 -0.1570429E+01  0.6126901E+04 -0.3017666E+01  0.2094368E+05  0.1571058E+01
  0.4214286E+00  0.1329106E+05 -0.1570252E+01  0.7170598E+04 -0.3001066E+01  0.2347753E+05  0.1571183E+01
  0.4523810E+00  0.1492673E+05 -0.1569993E+01  0.8301877E+04 -0.2981928E+01  0.2622851E+05  0.1571366E+01
  0.4833333E+00  0.1667301E+05 -0.1569636E+01  0.9501557E+04 -0.2962579E+01  0.2921153E+05  0.1571618E+01
  0.5142857E+00  0.1856004E+05 -0.1569140E+01  0.1076411E+05 -0.2941522E+01  0.3235119E+05  0.1571965E+01
  0.5452381E+00  0.2058301E+05 -0.1568483E+01  0.1208081E+05 -0.2920397E+01  0.3564363E+05  0.1572425E+01
  0.5761905E+00  0.2269942E+05 -0.1567632E+01  0.1344827E+05 -0.2899622E+01  0.3908195E+05  0.1573017E+01
  0.6071429E+00  0.2487599E+05 -0.1566534E+01  0.1487009E+05 -0.2878453E+01  0.4262673E+05  0.1573775E+01
  0.6380953E+00  0.2712157E+05 -0.1565172E+01  0.1634065E+05 -0.2858426E+01  0.4621936E+05  0.1574711E+01
  0.6690477E+00  0.2945823E+05 -0.1563494E+01  0.1783839E+05 -0.2838377E+01  0.4983406E+05  0.1575861E+01
  0.7000000E+00  0.3185312E+05 -0.1561444E+01  0.1936472E+05 -0.2818194E+01  0.5346228E+05  0.1577260E+01
  0.7309524E+00  0.3426631E+05 -0.1558981E+01  0.2093033E+05 -0.2798869E+01  0.5711502E+05  0.1578926E+01
  0.7619048E+00  0.3668302E+05 -0.1556043E+01  0.2252788E+05 -0.2780072E+01  0.6076756E+05  0.1580895E+01
  0.7928572E+00  0.3911206E+05 -0.1552578E+01  0.2413738E+05 -0.2761449E+01  0.6433580E+05  0.1583200E+01
  0.8238096E+00  0.4157489E+05 -0.1548548E+01  0.2575159E+05 -0.2743071E+01  0.6781208E+05  0.1585868E+01
  0.8547620E+00  0.4403493E+05 -0.1543895E+01  0.2736451E+05 -0.2725001E+01  0.7120145E+05  0.1588922E+01
  0.8857143E+00  0.4648955E+05 -0.1538570E+01  0.2898082E+05 -0.2707521E+01  0.7450203E+05  0.1592385E+01
  0.9166667E+00  0.4888636E+05 -0.1532510E+01  0.3059585E+05 -0.2690675E+01  0.7768248E+05  0.1596276E+01
  0.9476191E+00  0.5120871E+05 -0.1525668E+01  0.3220569E+05 -0.2674522E+01  0.8073484E+05  0.1600603E+01
  0.9785714E+00  0.5344142E+05 -0.1518011E+01  0.3379515E+05 -0.2658860E+01  0.8360852E+05  0.1605373E+01
  0.1009524E+01  0.5561062E+05 -0.1509544E+01  0.3535783E+05 -0.2643691E+01  0.8626235E+05  0.1610582E+01
  0.1040476E+01  0.5768574E+05 -0.1500245E+01  0.3688157E+05 -0.2628922E+01  0.8867138E+05  0.1616219E+01
  0.1071429E+01  0.5965516E+05 -0.1490114E+01  0.3837077E+05 -0.2614740E+01  0.9085005E+05  0.1622255E+01
  0.1102381E+01  0.6147668E+05 -0.1479133E+01  0.3982249E+05 -0.2601279E+01  0.9279175E+05  0.1628653E+01
  0.1133333E+01  0.6309741E+05 -0.1467275E+01  0.4122691E+05 -0.2588448E+01  0.9446475E+05  0.1635367E+01
  0.1164286E+01  0.6452177E+05 -0.1454592E+01  0.4259846E+05 -0.2576679E+01  0.9588922E+05  0.1642316E+01
  0.1195238E+01  0.6569738E+05 -0.1441089E+01  0.4392450E+05 -0.2565775E+01  0.9700778E+05  0.1649428E+01
  0.1226190E+01  0.6663084E+05 -0.1426883E+01  0.4520308E+05 -0.2555767E+01  0.9780208E+05  0.1656603E+01
  0.1257143E+01  0.6727948E+05 -0.1411981E+01  0.4642228E+05 -0.2546129E+01  0.9823052E+05  0.1663771E+01
  0.1288095E+01  0.6769820E+05 -0.1396769E+01  0.4757221E+05 -0.2537763E+01  0.9835686E+05  0.1670692E+01
  0.1319048E+01  0.6777986E+05 -0.1381019E+01  0.4864870E+05 -0.2529619E+01  0.9813024E+05  0.1677356E+01
  0.1350000E+01  0.6756466E+05 -0.1365040E+01  0.4966896E+05 -0.2522515E+01  0.9759461E+05  0.1683540E+01
  0.1380952E+01  0.6701099E+05 -0.1348897E+01  0.5062466E+05 -0.2516429E+01  0.9675392E+05  0.1689109E+01
  0.1411905E+01  0.6595982E+05 -0.1333280E+01  0.5149510E+05 -0.2510924E+01  0.9563982E+05  0.1693466E+01
  0.1442857E+01  0.6472964E+05 -0.1317470E+01  0.5232479E+05 -0.2506807E+01  0.9421427E+05  0.1697272E+01
  0.1473810E+01  0.6316135E+05 -0.1302128E+01  0.5308843E+05 -0.2503568E+01  0.9257041E+05  0.1699962E+01
  0.1504762E+01  0.6122159E+05 -0.1287440E+01  0.5377462E+05 -0.2501049E+01  0.9065385E+05  0.1701324E+01
  0.1535714E+01  0.5896512E+05 -0.1273797E+01  0.5440409E+05 -0.2499719E+01  0.8857517E+05  0.1701242E+01
  0.1566667E+01  0.5638508E+05 -0.1261556E+01  0.5497723E+05 -0.2499624E+01  0.8631509E+05  0.1699509E+01
  0.1597619E+01  0.5348147E+05 -0.1251011E+01  0.5547856E+05 -0.2500343E+01  0.8391829E+05  0.1696033E+01
  0.1628572E+01  0.5029798E+05 -0.1242812E+01  0.5593298E+05 -0.2502348E+01  0.8143773E+05  0.1690714E+01
  0.1659524E+01  0.4684303E+05 -0.1237588E+01  0.5634853E+05 -0.2505403E+01  0.7889158E+05  0.1683482E+01
  0.1690476E+01  0.4314681E+05 -0.1236225E+01  0.5672577E+05 -0.2509338E+01  0.7631757E+05  0.1674270E+01
  0.1721429E+01  0.3923982E+05 -0.1239940E+01  0.5706859E+05 -0.2514181E+01  0.7376607E+05  0.1663200E+01
  0.1752381E+01  0.3514659E+05 -0.1250578E+01  0.5737289E+05 -0.2519727E+01  0.7123763E+05  0.1650244E+01
  0.1783333E+01  0.3092860E+05 -0.1271174E+01  0.5766948E+05 -0.2526365E+01  0.6877895E+05  0.1635570E+01
  0.1814286E+01  0.2661838E+05 -0.1306413E+01  0.5795580E+05 -0.2533749E+01  0.6639572E+05  0.1619363E+01
  0.1845238E+01  0.2228725E+05 -0.1364513E+01  0.5820952E+05 -0.2541294E+01  0.6411410E+05  0.1601869E+01
  0.1876190E+01  0.1805507E+05 -0.1461244E+01  0.5846716E+05 -0.2549359E+01  0.6194468E+05  0.1583384E+01
  0.1907143E+01  0.1412668E+05 -0.1627139E+01  0.5871943E+05 -0.2557399E+01  0.5989701E+05  0.1564347E+01
  0.1938095E+01  0.1095621E+05 -0.1917635E+01  0.5896768E+05 -0.2565110E+01  0.5795182E+05  0.1544895E+01
  0.1969048E+01  0.9444479E+04 -0.2371545E+01  0.5920081E+05 -0.2572068E+01  0.5614118E+05  0.1525702E+01
  0.2000000E+01  0.1036077E+05 -0.2856437E+01  0.5937275E+05 -0.2578007E+01  0.5444876E+05  0.1507187E+01
