VARIABLES="w (rad/s)"
"A   1   1" "B   1   1"
"A   1   2" "B   1   2"
"A   1   3" "B   1   3"
Zone t="Motion of body    1 in DoF   1",I=    64,F=POINT
  0.5000000E-01  0.1145573E+06  0.1210502E-01  0.1270294E-01  0.1401771E-04 -0.2839233E+06 -0.2954917E-01
  0.8095238E-01  0.1155177E+06  0.5343726E-01  0.6314446E-02 -0.3616198E-04 -0.2862925E+06 -0.1305891E+00
  0.1119048E+00  0.1159522E+06  0.1500076E+00  0.4567897E-02 -0.2671417E-04 -0.2870506E+06 -0.3661342E+00
  0.1428571E+00  0.1160318E+06  0.3369022E+00  0.7904053E-02  0.4021754E-04 -0.2873521E+06 -0.8220374E+00
  0.1738095E+00  0.1162429E+06  0.6699746E+00  0.1452929E-01  0.1763548E-03 -0.2876410E+06 -0.1633275E+01
  0.2047619E+00  0.1164345E+06  0.1234713E+01  0.1665515E-01  0.2292395E-03 -0.2880870E+06 -0.3008552E+01
  0.2357143E+00  0.1166912E+06  0.2171888E+01  0.1178163E-01  0.1696069E-03 -0.2885583E+06 -0.5287505E+01
  0.2666667E+00  0.1169318E+06  0.3699217E+01  0.1132965E-01  0.1941770E-03 -0.2889973E+06 -0.8996693E+01
  0.2976190E+00  0.1172574E+06  0.6194457E+01  0.6870117E-02  0.4547462E-04 -0.2897762E+06 -0.1505184E+02
  0.3285715E+00  0.1176200E+06  0.1022895E+02 -0.4643979E-03 -0.2716035E-03 -0.2903778E+06 -0.2481960E+02
  0.3595238E+00  0.1180382E+06  0.1676369E+02  0.1349645E-01  0.3682375E-03 -0.2911344E+06 -0.4061600E+02
  0.3904762E+00  0.1183704E+06  0.2725285E+02  0.9378572E-02  0.1815259E-03 -0.2919370E+06 -0.6595081E+02
  0.4214286E+00  0.1189178E+06  0.4375167E+02  0.1216565E-01  0.7435083E-03 -0.2931153E+06 -0.1057138E+03
  0.4523810E+00  0.1196331E+06  0.6966119E+02  0.6813450E-02  0.4724860E-03 -0.2944424E+06 -0.1679896E+03
  0.4833333E+00  0.1201885E+06  0.1080638E+03  0.1174401E-01  0.1004934E-03 -0.2955475E+06 -0.2601040E+03
  0.5142857E+00  0.1209012E+06  0.1649715E+03  0.7654826E-02  0.3341436E-03 -0.2972387E+06 -0.3964492E+03
  0.5452381E+00  0.1216283E+06  0.2457988E+03  0.1164199E-01  0.1701117E-02 -0.2986044E+06 -0.5893356E+03
  0.5761905E+00  0.1225090E+06  0.3577198E+03 -0.3760471E-02 -0.1491785E-02 -0.3003003E+06 -0.8555614E+03
  0.6071429E+00  0.1235369E+06  0.5112749E+03  0.1251580E-01  0.1420975E-02 -0.3024275E+06 -0.1219919E+04
  0.6380953E+00  0.1244063E+06  0.7139786E+03  0.1076086E-01  0.8273125E-03 -0.3043605E+06 -0.1699760E+04
  0.6690477E+00  0.1254536E+06  0.9802526E+03  0.8484104E-02  0.1777649E-02 -0.3066020E+06 -0.2327786E+04
  0.7000000E+00  0.1267770E+06  0.1326770E+04  0.1068115E-01  0.3559113E-02 -0.3092455E+06 -0.3141208E+04
  0.7309524E+00  0.1279731E+06  0.1766896E+04  0.9602599E-02  0.1634598E-02 -0.3114832E+06 -0.4169475E+04
  0.7619048E+00  0.1292856E+06  0.2322657E+04  0.9653090E-02  0.2775192E-02 -0.3141533E+06 -0.5463774E+04
  0.7928572E+00  0.1307728E+06  0.3017484E+04  0.1462644E-01  0.2754211E-02 -0.3172591E+06 -0.7075881E+04
  0.8238096E+00  0.1321313E+06  0.3872738E+04  0.1667001E-01  0.4163742E-02 -0.3201816E+06 -0.9053594E+04
  0.8547620E+00  0.1336813E+06  0.4918769E+04  0.5641076E-02 -0.4501343E-03 -0.3232928E+06 -0.1145721E+05
  0.8857143E+00  0.1352707E+06  0.6185525E+04  0.6270870E-02 -0.1792908E-03 -0.3262628E+06 -0.1434894E+05
  0.9166667E+00  0.1370527E+06  0.7710415E+04  0.9521484E-02 -0.1640320E-03 -0.3296506E+06 -0.1781134E+05
  0.9476191E+00  0.1386420E+06  0.9519052E+04  0.1384793E-01  0.7446289E-02 -0.3326459E+06 -0.2189680E+05
  0.9785714E+00  0.1402056E+06  0.1165255E+05  0.8295435E-02 -0.1449585E-02 -0.3356247E+06 -0.2669129E+05
  0.1009524E+01  0.1417682E+06  0.1414845E+05  0.8766606E-02  0.1770020E-02 -0.3386811E+06 -0.3227346E+05
  0.1040476E+01  0.1433091E+06  0.1704069E+05  0.5220810E-02 -0.1098633E-02 -0.3415495E+06 -0.3869606E+05
  0.1071429E+01  0.1448812E+06  0.2036474E+05  0.3474935E-02 -0.5874634E-02 -0.3443140E+06 -0.4601566E+05
  0.1102381E+01  0.1461564E+06  0.2413576E+05  0.6034966E-02  0.1144409E-02 -0.3461435E+06 -0.5423709E+05
  0.1133333E+01  0.1473534E+06  0.2840758E+05  0.1071706E-01  0.2746582E-02 -0.3479270E+06 -0.6349652E+05
  0.1164286E+01  0.1483070E+06  0.3318502E+05  0.8964304E-02  0.2456665E-02 -0.3490769E+06 -0.7375941E+05
  0.1195238E+01  0.1489929E+06  0.3848233E+05  0.7966182E-02  0.2975464E-02 -0.3495653E+06 -0.8503485E+05
  0.1226190E+01  0.1495110E+06  0.4432354E+05  0.9258382E-02  0.1373291E-02 -0.3497907E+06 -0.9738038E+05
  0.1257143E+01  0.1493616E+06  0.5061059E+05  0.9370283E-02  0.4791260E-02 -0.3486483E+06 -0.1105552E+06
  0.1288095E+01  0.1489614E+06  0.5739078E+05  0.1004542E-01  0.5279541E-02 -0.3467383E+06 -0.1245722E+06
  0.1319048E+01  0.1482249E+06  0.6458890E+05  0.7866263E-02  0.1342773E-02 -0.3443455E+06 -0.1393478E+06
  0.1350000E+01  0.1469111E+06  0.7206234E+05  0.8997034E-02  0.2777100E-02 -0.3403827E+06 -0.1543838E+06
  0.1380952E+01  0.1452330E+06  0.7982681E+05  0.9811928E-02  0.1190186E-01 -0.3356532E+06 -0.1697934E+06
  0.1411905E+01  0.1429811E+06  0.8775382E+05  0.7348921E-02 -0.1953125E-02 -0.3300956E+06 -0.1854192E+06
  0.1442857E+01  0.1402946E+06  0.9572612E+05  0.7445080E-02  0.1220703E-02 -0.3235005E+06 -0.2008082E+06
  0.1473810E+01  0.1369998E+06  0.1035386E+06  0.5176648E-02  0.3173828E-02 -0.3154445E+06 -0.2154295E+06
  0.1504762E+01  0.1334100E+06  0.1112475E+06  0.7179357E-02  0.7354736E-02 -0.3071711E+06 -0.2297302E+06
  0.1535714E+01  0.1295429E+06  0.1186496E+06  0.8544921E-02  0.5462646E-02 -0.2983774E+06 -0.2430734E+06
  0.1566667E+01  0.1252167E+06  0.1254995E+06  0.6584005E-02  0.3875732E-02 -0.2885719E+06 -0.2548675E+06
  0.1597619E+01  0.1207484E+06  0.1319016E+06  0.8672268E-02  0.3662109E-03 -0.2786606E+06 -0.2655181E+06
  0.1628572E+01  0.1161823E+06  0.1377902E+06  0.6333736E-02  0.6317139E-02 -0.2687785E+06 -0.2749445E+06
  0.1659524E+01  0.1113551E+06  0.1429284E+06  0.2831961E-02 -0.0000000E+00 -0.2586045E+06 -0.2826793E+06
  0.1690476E+01  0.1064173E+06  0.1472298E+06  0.6896113E-02  0.2471924E-02 -0.2481732E+06 -0.2882896E+06
  0.1721429E+01  0.1015392E+06  0.1508283E+06  0.6346643E-02  0.2929688E-02 -0.2380826E+06 -0.2923878E+06
  0.1752381E+01  0.9683365E+05  0.1538438E+06  0.6722161E-02  0.1617432E-02 -0.2287044E+06 -0.2954542E+06
  0.1783333E+01  0.9219693E+05  0.1560281E+06  0.7187318E-02  0.5126953E-02 -0.2194986E+06 -0.2965784E+06
  0.1814286E+01  0.8768096E+05  0.1574504E+06  0.8242150E-02  0.1953125E-02 -0.2106701E+06 -0.2961157E+06
  0.1845238E+01  0.8343587E+05  0.1582927E+06  0.7607737E-02  0.6439209E-02 -0.2025376E+06 -0.2944774E+06
  0.1876190E+01  0.7951075E+05  0.1586455E+06  0.4489337E-02  0.1708984E-02 -0.1952067E+06 -0.2919358E+06
  0.1907143E+01  0.7573148E+05  0.1583293E+06  0.2816304E-02  0.1983643E-02 -0.1883737E+06 -0.2882180E+06
  0.1938095E+01  0.7219345E+05  0.1574348E+06  0.5794591E-02  0.4089355E-02 -0.1820355E+06 -0.2832232E+06
  0.1969048E+01  0.6884727E+05  0.1559235E+06  0.9082208E-02  0.4638672E-02 -0.1761062E+06 -0.2768594E+06
  0.2000000E+01  0.6583996E+05  0.1542469E+06  0.7141113E-02  0.2929688E-02 -0.1710604E+06 -0.2707139E+06
Zone t="Motion of body    1 in DoF   2",I=    64,F=POINT
  0.5000000E-01  0.1716614E-02  0.5006790E-05  0.6037236E+05  0.9712371E+02  0.1647949E-01 -0.4291534E-05
  0.8095238E-01  0.6125955E-03 -0.5936623E-04  0.5971363E+05  0.1606581E+03  0.1884909E-01 -0.2384186E-04
  0.1119048E+00 -0.5880315E-02 -0.3194809E-04  0.5948990E+05  0.2292315E+03  0.3108897E-01  0.3623962E-04
  0.1428571E+00 -0.4699707E-02 -0.7009506E-04  0.5927853E+05  0.3052790E+03  0.1666260E-01  0.2708435E-03
  0.1738095E+00 -0.1253206E-01 -0.3671646E-04  0.5915000E+05  0.3914055E+03  0.2458128E-01 -0.9155273E-04
  0.2047619E+00 -0.1402833E-01 -0.1649857E-03  0.5916690E+05  0.4915700E+03  0.4292333E-01  0.5264282E-03
  0.2357143E+00 -0.8334535E-02  0.1525879E-04  0.5912085E+05  0.6105974E+03  0.4142992E-01 -0.5683899E-03
  0.2666667E+00 -0.8726120E-02  0.5722046E-04  0.5916087E+05  0.7518181E+03  0.3067016E-01  0.1907349E-04
  0.2976190E+00 -0.7972412E-02  0.5435944E-03  0.5918747E+05  0.9254559E+03 -0.1845703E-01 -0.1373291E-03
  0.3285715E+00 -0.7662565E-02 -0.4463196E-03  0.5924796E+05  0.1134052E+04  0.2674932E-01  0.2098083E-02
  0.3595238E+00 -0.5432533E-02 -0.3681183E-03  0.5922788E+05  0.1389012E+04  0.3870679E-01  0.3128052E-03
  0.3904762E+00 -0.1355985E-01  0.3547668E-03  0.5928329E+05  0.1695009E+04  0.2407167E-01 -0.4577637E-03
  0.4214286E+00 -0.3711247E-02 -0.9918213E-04  0.5910605E+05  0.2046093E+04  0.8110434E-02  0.2990723E-02
  0.4523810E+00 -0.6374961E-02 -0.3318787E-03  0.5911129E+05  0.2460742E+04  0.1861893E-01 -0.1190186E-02
  0.4833333E+00 -0.9313122E-02 -0.6599426E-03  0.5868544E+05  0.2891431E+04  0.1666891E-01  0.3067017E-02
  0.5142857E+00 -0.1608107E-01 -0.8239746E-03  0.5840964E+05  0.3363766E+04  0.3512913E-01  0.8239746E-03
  0.5452381E+00 -0.9850915E-02  0.5874634E-03  0.5796435E+05  0.3841673E+04  0.1074645E-01 -0.1525879E-03
  0.5761905E+00 -0.1220829E-01 -0.7019043E-03  0.5741434E+05  0.4312304E+04  0.2711777E-01  0.3479004E-02
  0.6071429E+00 -0.2362419E-02 -0.6103516E-03  0.5705504E+05  0.4791211E+04  0.2573529E-01  0.1586914E-02
  0.6380953E+00 -0.4567388E-02 -0.1197815E-02  0.5633770E+05  0.5232649E+04  0.3366954E-01 -0.1434326E-02
  0.6690477E+00 -0.3215749E-02  0.2578735E-02  0.5571826E+05  0.5655702E+04  0.1715066E-01 -0.5828857E-02
  0.7000000E+00 -0.1225063E-01 -0.9613037E-03  0.5527829E+05  0.6059812E+04  0.4673549E-01  0.6286621E-02
  0.7309524E+00 -0.3674038E-02 -0.2304077E-02  0.5453133E+05  0.6421059E+04  0.2204423E-01 -0.8056641E-02
  0.7619048E+00  0.2022743E-02 -0.1403809E-02  0.5385705E+05  0.6748870E+04 -0.4806518E-02 -0.3295898E-02
  0.7928572E+00 -0.3444912E-02  0.1800537E-02  0.5332694E+05  0.7036932E+04  0.3479553E-01 -0.1159668E-02
  0.8238096E+00 -0.7871947E-02  0.4119873E-03  0.5278377E+05  0.7276935E+04  0.1926312E-01  0.9643555E-02
  0.8547620E+00 -0.1963666E-02 -0.3417969E-02  0.5209071E+05  0.7473494E+04  0.3056178E-01  0.5065918E-02
  0.8857143E+00 -0.5099389E-02  0.2838135E-02  0.5149214E+05  0.7622496E+04  0.2894248E-01 -0.9948730E-02
  0.9166667E+00 -0.7740367E-02 -0.4486084E-02  0.5107509E+05  0.7726164E+04  0.1571378E-01 -0.3356934E-02
  0.9476191E+00 -0.8582493E-02  0.1495361E-02  0.5065698E+05  0.7774365E+04  0.1648869E-01  0.1037598E-02
  0.9785714E+00 -0.8225267E-02 -0.1495361E-02  0.5005614E+05  0.7765906E+04  0.2744354E-01  0.3906250E-02
  0.1009524E+01 -0.8774164E-02  0.2136230E-03  0.4956369E+05  0.7716692E+04  0.2950417E-01  0.2258301E-02
  0.1040476E+01 -0.2023797E-02 -0.4119873E-02  0.4921008E+05  0.7632243E+04  0.2862647E-01 -0.1678467E-01
  0.1071429E+01 -0.1901245E-02  0.2441406E-03  0.4901475E+05  0.7525913E+04  0.1777344E-01 -0.5187988E-02
  0.1102381E+01 -0.1057849E-01  0.5493164E-03  0.4865043E+05  0.7330540E+04  0.2059640E-01  0.6347656E-02
  0.1133333E+01 -0.9219225E-02 -0.4913330E-02  0.4827841E+05  0.7108927E+04  0.2821978E-01  0.2197266E-02
  0.1164286E+01 -0.5886101E-02 -0.3356934E-02  0.4798721E+05  0.6860691E+04  0.2579203E-01  0.1281738E-01
  0.1195238E+01 -0.5314778E-02 -0.2624512E-02  0.4781629E+05  0.6608620E+04  0.1286845E-01  0.1672363E-01
  0.1226190E+01 -0.6379137E-02  0.1922607E-02  0.4776653E+05  0.6369917E+04  0.3165769E-01 -0.1147461E-01
  0.1257143E+01 -0.2951730E-02 -0.5828857E-02  0.4774877E+05  0.6105264E+04  0.7768110E-02 -0.3173828E-02
  0.1288095E+01 -0.4999016E-02 -0.9002686E-02  0.4751443E+05  0.5698086E+04  0.1971176E-01  0.1138306E-01
  0.1319048E+01 -0.5729069E-02 -0.1037598E-02  0.4738304E+05  0.5343117E+04  0.2184045E-01 -0.5950928E-02
  0.1350000E+01 -0.5450779E-02 -0.2075195E-02  0.4731609E+05  0.4992430E+04  0.2893518E-01  0.3265381E-02
  0.1380952E+01 -0.6436315E-02 -0.2075195E-02  0.4733472E+05  0.4683490E+04  0.2722589E-01  0.1861572E-02
  0.1411905E+01 -0.3112484E-02 -0.5096436E-02  0.4742412E+05  0.4431833E+04  0.1798324E-01  0.8575439E-02
  0.1442857E+01 -0.3823007E-02 -0.3601074E-02  0.4760627E+05  0.4252082E+04  0.1725905E-01 -0.2746582E-03
  0.1473810E+01 -0.3877310E-02 -0.2593994E-02  0.4753199E+05  0.3754186E+04  0.1822180E-01 -0.1708984E-02
  0.1504762E+01 -0.4411045E-02  0.2136230E-03  0.4754759E+05  0.3388929E+04  0.2595926E-01  0.5187988E-02
  0.1535714E+01 -0.5126953E-02 -0.1019287E-01  0.4758117E+05  0.3038744E+04  0.1112827E-01  0.1618958E-01
  0.1566667E+01 -0.2717363E-02 -0.1525879E-03  0.4766537E+05  0.2746066E+04  0.1776513E-01  0.5996704E-02
  0.1597619E+01 -0.3304631E-02 -0.3540039E-02  0.4778225E+05  0.2521477E+04  0.1803220E-01  0.8392334E-03
  0.1628572E+01 -0.2857676E-02 -0.9918213E-03  0.4792610E+05  0.2372134E+04  0.2248663E-01  0.1332092E-01
  0.1659524E+01 -0.3650288E-02 -0.3463745E-02  0.4810795E+05  0.2318256E+04  0.2265569E-01  0.1605225E-01
  0.1690476E+01 -0.5208190E-02 -0.1708984E-02  0.4819771E+05  0.1978130E+04  0.2715119E-01  0.7812500E-02
  0.1721429E+01 -0.2738984E-02 -0.1876831E-02  0.4827709E+05  0.1650499E+04  0.1673528E-01  0.1983643E-02
  0.1752381E+01 -0.1488976E-02 -0.1205444E-02  0.4836815E+05  0.1411557E+04  0.1226011E-01  0.3906250E-02
  0.1783333E+01 -0.3722004E-02 -0.3692627E-02  0.4846564E+05  0.1186717E+04  0.2053519E-01  0.9315491E-02
  0.1814286E+01 -0.1909151E-02 -0.2410889E-02  0.4858330E+05  0.1047896E+04  0.1318744E-01  0.6408691E-02
  0.1845238E+01 -0.2935594E-02 -0.2990723E-02  0.4869615E+05  0.9554249E+03  0.1376008E-01  0.5523682E-02
  0.1876190E+01 -0.1423250E-02 -0.9155273E-04  0.4880421E+05  0.9093377E+03  0.1171131E-01  0.5393982E-02
  0.1907143E+01 -0.1616174E-02 -0.9765625E-03  0.4891484E+05  0.9313973E+03  0.2048221E-01  0.2120972E-02
  0.1938095E+01 -0.3393300E-02 -0.7934570E-03  0.4902304E+05  0.8424269E+03  0.1813959E-01  0.3128052E-02
  0.1969048E+01 -0.3417452E-02 -0.1983643E-03  0.4912583E+05  0.6020788E+03  0.2058221E-01 -0.4158020E-03
  0.2000000E+01 -0.4043579E-02 -0.1159668E-02  0.4921214E+05  0.4996658E+03  0.2050781E-01  0.3665924E-02
Zone t="Motion of body    1 in DoF   3",I=    64,F=POINT
  0.5000000E-01 -0.2841748E+06 -0.2960091E-01 -0.6598473E-01 -0.2133831E-03  0.8739318E+06  0.7243306E-01
  0.8095238E-01 -0.2866266E+06 -0.1306466E+00 -0.7732840E-01 -0.2962814E-03  0.8785352E+06  0.3193457E+00
  0.1119048E+00 -0.2873998E+06 -0.3666821E+00 -0.6737648E-01 -0.2523251E-03  0.8797172E+06  0.8950994E+00
  0.1428571E+00 -0.2876881E+06 -0.8230365E+00 -0.1304035E+00 -0.8801594E-03  0.8804692E+06  0.2008240E+01
  0.1738095E+00 -0.2879919E+06 -0.1635696E+01 -0.4535466E-01 -0.2181288E-03  0.8809181E+06  0.3987533E+01
  0.2047619E+00 -0.2884086E+06 -0.3012598E+01 -0.6194447E-01 -0.9698998E-03  0.8819140E+06  0.7341194E+01
  0.2357143E+00 -0.2888981E+06 -0.5295049E+01 -0.6417592E-01 -0.1043495E-02  0.8828048E+06  0.1289225E+02
  0.2666667E+00 -0.2893288E+06 -0.9010108E+01 -0.6428719E-01 -0.9767562E-03  0.8836976E+06  0.2191251E+02
  0.2976190E+00 -0.2901235E+06 -0.1507098E+02 -0.6457397E-01 -0.6557554E-03  0.8854766E+06  0.3661982E+02
  0.3285715E+00 -0.2907015E+06 -0.2485603E+02 -0.1462853E-02  0.9550899E-03  0.8864721E+06  0.6031062E+02
  0.3595238E+00 -0.2914834E+06 -0.4068110E+02 -0.4363003E-01 -0.8233786E-03  0.8880514E+06  0.9856211E+02
  0.3904762E+00 -0.2922519E+06 -0.6603776E+02 -0.3887223E-01 -0.5163550E-03  0.8897978E+06  0.1598085E+03
  0.4214286E+00 -0.2934572E+06 -0.1058426E+03 -0.4489704E-01 -0.1251101E-02  0.8923926E+06  0.2557362E+03
  0.4523810E+00 -0.2947742E+06 -0.1682487E+03 -0.4320807E-01 -0.1921058E-02  0.8949842E+06  0.4057360E+03
  0.4833333E+00 -0.2959242E+06 -0.2604942E+03 -0.4793891E-01 -0.2759695E-02  0.8972296E+06  0.6269951E+03
  0.5142857E+00 -0.2976038E+06 -0.3969061E+03 -0.7291371E-01 -0.6433249E-02  0.9011131E+06  0.9538169E+03
  0.5452381E+00 -0.2989310E+06 -0.5901119E+03 -0.9410142E-01 -0.1054287E-01  0.9036583E+06  0.1414872E+04
  0.5761905E+00 -0.3006586E+06 -0.8568442E+03 -0.8672918E-02  0.4701614E-02  0.9072601E+06  0.2049315E+04
  0.6071429E+00 -0.3027830E+06 -0.1221779E+04 -0.3024651E-01  0.1294136E-02  0.9118262E+06  0.2915275E+04
  0.6380953E+00 -0.3047237E+06 -0.1701780E+04 -0.9192167E-01 -0.1201916E-01  0.9159422E+06  0.4051410E+04
  0.6690477E+00 -0.3069551E+06 -0.2330134E+04 -0.9373566E-02  0.6999969E-03  0.9207455E+06  0.5533307E+04
  0.7000000E+00 -0.3095932E+06 -0.3144873E+04 -0.7845197E-01 -0.1032639E-01  0.9261391E+06  0.7445740E+04
  0.7309524E+00 -0.3118331E+06 -0.4175372E+04 -0.1075074E-01  0.8113861E-02  0.9303819E+06  0.9852886E+04
  0.7619048E+00 -0.3145326E+06 -0.5471175E+04 -0.5525493E-01 -0.1220322E-01  0.9360036E+06  0.1287026E+05
  0.7928572E+00 -0.3176359E+06 -0.7084432E+04 -0.6006464E-01 -0.1633453E-01  0.9424736E+06  0.1661276E+05
  0.8238096E+00 -0.3204945E+06 -0.9061043E+04 -0.8325741E-01 -0.1937103E-01  0.9485922E+06  0.2118261E+05
  0.8547620E+00 -0.3236474E+06 -0.1146560E+05 -0.4678880E-01 -0.1744080E-01  0.9548392E+06  0.2670627E+05
  0.8857143E+00 -0.3266199E+06 -0.1436264E+05 -0.5636892E-01 -0.8819580E-02  0.9606123E+06  0.3331788E+05
  0.9166667E+00 -0.3300258E+06 -0.1783120E+05 -0.8396218E-01 -0.1770020E-01  0.9670577E+06  0.4119067E+05
  0.9476191E+00 -0.3329778E+06 -0.2192119E+05 -0.4476422E-01 -0.1322937E-01  0.9727834E+06  0.5042509E+05
  0.9785714E+00 -0.3359771E+06 -0.2671755E+05 -0.4734011E-01  0.6408691E-03  0.9784814E+06  0.6119883E+05
  0.1009524E+01 -0.3390427E+06 -0.3229421E+05 -0.5891764E-01 -0.1113892E-02  0.9842873E+06  0.7366466E+05
  0.1040476E+01 -0.3418870E+06 -0.3871345E+05 -0.4801386E-01 -0.7171631E-02  0.9895371E+06  0.8791144E+05
  0.1071429E+01 -0.3446375E+06 -0.4603167E+05 -0.4027507E-01 -0.6072998E-02  0.9942404E+06  0.1040110E+06
  0.1102381E+01 -0.3464213E+06 -0.5426768E+05 -0.4058376E-01  0.9735107E-02  0.9963139E+06  0.1219420E+06
  0.1133333E+01 -0.3482613E+06 -0.6353322E+05 -0.5091948E-01 -0.1828003E-01  0.9987596E+06  0.1420048E+06
  0.1164286E+01 -0.3494307E+06 -0.7380273E+05 -0.5459838E-01 -0.1675415E-01  0.9994916E+06  0.1640325E+06
  0.1195238E+01 -0.3499009E+06 -0.8509154E+05 -0.6316774E-01 -0.2032471E-01  0.9988817E+06  0.1880297E+06
  0.1226190E+01 -0.3501216E+06 -0.9742791E+05 -0.5181707E-01 -0.1043701E-01  0.9975625E+06  0.2140500E+06
  0.1257143E+01 -0.3489014E+06 -0.1105637E+06 -0.4534635E-01 -0.1733398E-01  0.9934371E+06  0.2415157E+06
  0.1288095E+01 -0.3469740E+06 -0.1245814E+06 -0.5318858E-01 -0.1501465E-01  0.9871031E+06  0.2703936E+06
  0.1319048E+01 -0.3446340E+06 -0.1393060E+06 -0.4062694E-01 -0.1013184E-01  0.9804097E+06  0.3005200E+06
  0.1350000E+01 -0.3406544E+06 -0.1543298E+06 -0.3303810E-01  0.6591797E-02  0.9698254E+06  0.3306032E+06
  0.1380952E+01 -0.3359086E+06 -0.1697405E+06 -0.5895996E-01 -0.1916504E-01  0.9578308E+06  0.3610386E+06
  0.1411905E+01 -0.3302802E+06 -0.1852029E+06 -0.4587672E-01 -0.7263184E-02  0.9441741E+06  0.3912973E+06
  0.1442857E+01 -0.3236601E+06 -0.2005314E+06 -0.4100082E-01 -0.5554199E-02  0.9288782E+06  0.4206673E+06
  0.1473810E+01 -0.3155437E+06 -0.2151236E+06 -0.2479227E-01 -0.5432129E-02  0.9095937E+06  0.4474755E+06
  0.1504762E+01 -0.3073332E+06 -0.2293627E+06 -0.6169380E-01 -0.1696777E-01  0.8912486E+06  0.4735600E+06
  0.1535714E+01 -0.2986045E+06 -0.2426310E+06 -0.3603771E-01 -0.4272461E-02  0.8717138E+06  0.4969025E+06
  0.1566667E+01 -0.2887876E+06 -0.2544063E+06 -0.3490691E-01 -0.2685547E-02  0.8503767E+06  0.5165700E+06
  0.1597619E+01 -0.2788829E+06 -0.2650295E+06 -0.4158486E-01 -0.6591797E-02  0.8291018E+06  0.5334524E+06
  0.1628572E+01 -0.2690309E+06 -0.2743929E+06 -0.5368684E-01 -0.9216309E-02  0.8081522E+06  0.5473761E+06
  0.1659524E+01 -0.2588704E+06 -0.2820548E+06 -0.2158911E-01  0.4516602E-02  0.7875084E+06  0.5577928E+06
  0.1690476E+01 -0.2483927E+06 -0.2876070E+06 -0.4791173E-01  0.9216309E-02  0.7657838E+06  0.5628616E+06
  0.1721429E+01 -0.2383269E+06 -0.2917070E+06 -0.4811394E-01 -0.1525879E-01  0.7453816E+06  0.5650481E+06
  0.1752381E+01 -0.2290668E+06 -0.2947689E+06 -0.4412942E-01 -0.5493164E-03  0.7273599E+06  0.5656631E+06
  0.1783333E+01 -0.2199051E+06 -0.2958596E+06 -0.4350038E-01 -0.1489258E-01  0.7094858E+06  0.5617101E+06
  0.1814286E+01 -0.2110740E+06 -0.2953868E+06 -0.5130317E-01 -0.1025391E-01  0.6930631E+06  0.5552292E+06
  0.1845238E+01 -0.2029630E+06 -0.2937195E+06 -0.5126953E-01 -0.2075195E-02  0.6780188E+06  0.5460929E+06
  0.1876190E+01 -0.1956784E+06 -0.2911238E+06 -0.1776216E-01  0.2807617E-02  0.6647005E+06  0.5350912E+06
  0.1907143E+01 -0.1888922E+06 -0.2873898E+06 -0.2544275E-01 -0.1647949E-02  0.6531868E+06  0.5227479E+06
  0.1938095E+01 -0.1825482E+06 -0.2823208E+06 -0.4818328E-01 -0.7507324E-02  0.6423516E+06  0.5072825E+06
  0.1969048E+01 -0.1765726E+06 -0.2759081E+06 -0.4854177E-01 -0.5187988E-02  0.6320886E+06  0.4885087E+06
  0.2000000E+01 -0.1715973E+06 -0.2698693E+06 -0.4681396E-01 -0.7812500E-02  0.6243196E+06  0.4724033E+06
