VARIABLES="w (rad/s)"
"abs(F   1   1)" "angle(F   1   1)"
"abs(F   1   2)" "angle(F   1   2)"
"abs(F   1   3)" "angle(F   1   3)"
Zone t="Diffraction force - beta =   0.000 deg",I=    64,F=POINT
  0.5000000E-01  0.5523382E+03 -0.1570796E+01  0.1777804E+02 -0.3091969E+01  0.1317238E+04  0.1570797E+01
  0.8095238E-01  0.9058319E+03 -0.1570795E+01  0.4617532E+02 -0.3090260E+01  0.2157239E+04  0.1570798E+01
  0.1119048E+00  0.1268664E+04 -0.1570794E+01  0.8779503E+02 -0.3088088E+01  0.3012503E+04  0.1570799E+01
  0.1428571E+00  0.1637983E+04 -0.1570791E+01  0.1428119E+03 -0.3085332E+01  0.3887427E+04  0.1570801E+01
  0.1738095E+00  0.2026850E+04 -0.1570788E+01  0.2114552E+03 -0.3081837E+01  0.4798802E+04  0.1570804E+01
  0.2047619E+00  0.2433145E+04 -0.1570784E+01  0.2943572E+03 -0.3077492E+01  0.5750387E+04  0.1570808E+01
  0.2357143E+00  0.2862619E+04 -0.1570777E+01  0.3915280E+03 -0.3071927E+01  0.6752137E+04  0.1570815E+01
  0.2666667E+00  0.3324759E+04 -0.1570767E+01  0.5039405E+03 -0.3065193E+01  0.7824114E+04  0.1570824E+01
  0.2976190E+00  0.3820172E+04 -0.1570753E+01  0.6321882E+03 -0.3056719E+01  0.8968574E+04  0.1570838E+01
  0.3285715E+00  0.4368741E+04 -0.1570731E+01  0.7768320E+03 -0.3046562E+01  0.1021978E+05  0.1570858E+01
  0.3595238E+00  0.4963039E+04 -0.1570699E+01  0.9374319E+03 -0.3034108E+01  0.1157234E+05  0.1570889E+01
  0.3904762E+00  0.5621080E+04 -0.1570651E+01  0.1116159E+04 -0.3019454E+01  0.1306058E+05  0.1570935E+01
  0.4214286E+00  0.6337569E+04 -0.1570580E+01  0.1309780E+04 -0.3002862E+01  0.1467965E+05  0.1571002E+01
  0.4523810E+00  0.7143863E+04 -0.1570477E+01  0.1520011E+04 -0.2983628E+01  0.1645846E+05  0.1571101E+01
  0.4833333E+00  0.8002662E+04 -0.1570334E+01  0.1743165E+04 -0.2963899E+01  0.1835945E+05  0.1571237E+01
  0.5142857E+00  0.8928130E+04 -0.1570135E+01  0.1980826E+04 -0.2942537E+01  0.2039667E+05  0.1571427E+01
  0.5452381E+00  0.9929623E+04 -0.1569870E+01  0.2231654E+04 -0.2921103E+01  0.2257416E+05  0.1571678E+01
  0.5761905E+00  0.1098321E+05 -0.1569526E+01  0.2492534E+04 -0.2899682E+01  0.2483370E+05  0.1572006E+01
  0.6071429E+00  0.1210507E+05 -0.1569082E+01  0.2764898E+04 -0.2877649E+01  0.2719271E+05  0.1572429E+01
  0.6380953E+00  0.1324362E+05 -0.1568526E+01  0.3049893E+04 -0.2856611E+01  0.2959687E+05  0.1572957E+01
  0.6690477E+00  0.1441629E+05 -0.1567834E+01  0.3345119E+04 -0.2835603E+01  0.3205669E+05  0.1573613E+01
  0.7000000E+00  0.1567387E+05 -0.1566988E+01  0.3648522E+04 -0.2814241E+01  0.3459313E+05  0.1574418E+01
  0.7309524E+00  0.1695104E+05 -0.1565963E+01  0.3961558E+04 -0.2793339E+01  0.3715724E+05  0.1575391E+01
  0.7619048E+00  0.1824607E+05 -0.1564731E+01  0.4282811E+04 -0.2772563E+01  0.3972575E+05  0.1576559E+01
  0.7928572E+00  0.1957380E+05 -0.1563265E+01  0.4611556E+04 -0.2751854E+01  0.4230061E+05  0.1577950E+01
  0.8238096E+00  0.2094099E+05 -0.1561540E+01  0.4948901E+04 -0.2731485E+01  0.4493850E+05  0.1579583E+01
  0.8547620E+00  0.2230957E+05 -0.1559519E+01  0.5289814E+04 -0.2711063E+01  0.4751602E+05  0.1581495E+01
  0.8857143E+00  0.2372800E+05 -0.1557181E+01  0.5636573E+04 -0.2690950E+01  0.5013118E+05  0.1583708E+01
  0.9166667E+00  0.2517733E+05 -0.1554491E+01  0.5986062E+04 -0.2670950E+01  0.5270821E+05  0.1586258E+01
  0.9476191E+00  0.2666838E+05 -0.1551423E+01  0.6339615E+04 -0.2651339E+01  0.5533068E+05  0.1589163E+01
  0.9785714E+00  0.2812334E+05 -0.1547915E+01  0.6693947E+04 -0.2631805E+01  0.5784212E+05  0.1592476E+01
  0.1009524E+01  0.2958162E+05 -0.1543946E+01  0.7051709E+04 -0.2612711E+01  0.6031471E+05  0.1596218E+01
  0.1040476E+01  0.3104303E+05 -0.1539482E+01  0.7409868E+04 -0.2593875E+01  0.6274092E+05  0.1600418E+01
  0.1071429E+01  0.3256979E+05 -0.1534530E+01  0.7768631E+04 -0.2575420E+01  0.6516498E+05  0.1605090E+01
  0.1102381E+01  0.3410984E+05 -0.1529030E+01  0.8126380E+04 -0.2557269E+01  0.6756584E+05  0.1610273E+01
  0.1133333E+01  0.3562279E+05 -0.1522929E+01  0.8478704E+04 -0.2539062E+01  0.6982129E+05  0.1616023E+01
  0.1164286E+01  0.3712578E+05 -0.1516203E+01  0.8830631E+04 -0.2521381E+01  0.7201197E+05  0.1622351E+01
  0.1195238E+01  0.3862029E+05 -0.1508830E+01  0.9178421E+04 -0.2503985E+01  0.7411253E+05  0.1629281E+01
  0.1226190E+01  0.4012650E+05 -0.1500808E+01  0.9524479E+04 -0.2487170E+01  0.7612725E+05  0.1636828E+01
  0.1257143E+01  0.4160447E+05 -0.1492093E+01  0.9870476E+04 -0.2470560E+01  0.7808988E+05  0.1644983E+01
  0.1288095E+01  0.4305655E+05 -0.1482620E+01  0.1020699E+05 -0.2454914E+01  0.7992634E+05  0.1653838E+01
  0.1319048E+01  0.4441670E+05 -0.1472375E+01  0.1053722E+05 -0.2438889E+01  0.8152091E+05  0.1663389E+01
  0.1350000E+01  0.4578578E+05 -0.1461407E+01  0.1086475E+05 -0.2423462E+01  0.8307531E+05  0.1673609E+01
  0.1380952E+01  0.4713123E+05 -0.1449702E+01  0.1118356E+05 -0.2408300E+01  0.8447907E+05  0.1684526E+01
  0.1411905E+01  0.4817606E+05 -0.1437399E+01  0.1146217E+05 -0.2392535E+01  0.8556319E+05  0.1695782E+01
  0.1442857E+01  0.4949731E+05 -0.1424304E+01  0.1176625E+05 -0.2378332E+01  0.8679816E+05  0.1707967E+01
  0.1473810E+01  0.5066996E+05 -0.1410311E+01  0.1206190E+05 -0.2364161E+01  0.8777324E+05  0.1720926E+01
  0.1504762E+01  0.5175420E+05 -0.1395563E+01  0.1234610E+05 -0.2350142E+01  0.8850366E+05  0.1734555E+01
  0.1535714E+01  0.5275449E+05 -0.1380054E+01  0.1262387E+05 -0.2336624E+01  0.8903856E+05  0.1748860E+01
  0.1566667E+01  0.5368016E+05 -0.1363766E+01  0.1289743E+05 -0.2323853E+01  0.8947951E+05  0.1763792E+01
  0.1597619E+01  0.5448495E+05 -0.1346785E+01  0.1315774E+05 -0.2311143E+01  0.8961673E+05  0.1779303E+01
  0.1628572E+01  0.5522046E+05 -0.1329181E+01  0.1341161E+05 -0.2299066E+01  0.8961623E+05  0.1795321E+01
  0.1659524E+01  0.5589404E+05 -0.1311037E+01  0.1365702E+05 -0.2287609E+01  0.8952145E+05  0.1811721E+01
  0.1690476E+01  0.5642190E+05 -0.1292237E+01  0.1389383E+05 -0.2276202E+01  0.8919860E+05  0.1828660E+01
  0.1721429E+01  0.5682297E+05 -0.1272908E+01  0.1411842E+05 -0.2264877E+01  0.8863898E+05  0.1846019E+01
  0.1752381E+01  0.5706461E+05 -0.1253130E+01  0.1432718E+05 -0.2253477E+01  0.8775830E+05  0.1863721E+01
  0.1783333E+01  0.5720928E+05 -0.1232929E+01  0.1453088E+05 -0.2242713E+01  0.8677735E+05  0.1881756E+01
  0.1814286E+01  0.5723862E+05 -0.1212306E+01  0.1472674E+05 -0.2232530E+01  0.8570274E+05  0.1900001E+01
  0.1845238E+01  0.5708238E+05 -0.1191482E+01  0.1490317E+05 -0.2222229E+01  0.8425258E+05  0.1918216E+01
  0.1876190E+01  0.5683413E+05 -0.1170532E+01  0.1507320E+05 -0.2212644E+01  0.8271224E+05  0.1936440E+01
  0.1907143E+01  0.5648068E+05 -0.1149522E+01  0.1523275E+05 -0.2203713E+01  0.8107732E+05  0.1954434E+01
  0.1938095E+01  0.5600061E+05 -0.1128438E+01  0.1538604E+05 -0.2195210E+01  0.7934880E+05  0.1972361E+01
  0.1969048E+01  0.5532060E+05 -0.1107293E+01  0.1552538E+05 -0.2186434E+01  0.7733143E+05  0.1990155E+01
  0.2000000E+01  0.5450559E+05 -0.1086340E+01  0.1564957E+05 -0.2177914E+01  0.7513655E+05  0.2007414E+01
