VARIABLES="w (rad/s)"
"A   1   1" "B   1   1"
"A   1   2" "B   1   2"
"A   1   3" "B   1   3"
Zone t="Motion of body    1 in DoF   1",I=    64,F=POINT
  0.5000000E-01  0.9476177E+05  0.1040089E-01 -0.2441406E-02  0.8774732E-05 -0.9805081E+04  0.1918284E-02
  0.8095238E-01  0.9520144E+05  0.4577022E-01 -0.1969730E-01 -0.1518379E-03 -0.1015490E+05  0.8523990E-02
  0.1119048E+00  0.9518847E+05  0.1283229E+00  0.1322645E-01  0.5615805E-04 -0.1037418E+05  0.2407413E-01
  0.1428571E+00  0.9542445E+05  0.2886328E+00 -0.6942749E-02 -0.7035397E-04 -0.1020561E+05  0.5483833E-01
  0.1738095E+00  0.9546062E+05  0.5738007E+00  0.7023223E-02  0.4854240E-04 -0.1016284E+05  0.1104811E+00
  0.2047619E+00  0.9573241E+05  0.1057521E+01  0.1550009E-01  0.1776554E-03 -0.9903400E+04  0.2069632E+00
  0.2357143E+00  0.9577263E+05  0.1858283E+01 -0.1683091E-02 -0.5632825E-04 -0.1004743E+05  0.3686664E+00
  0.2666667E+00  0.9604187E+05  0.3165900E+01 -0.1510620E-01 -0.3698431E-03 -0.9664901E+04  0.6436704E+00
  0.2976190E+00  0.9630407E+05  0.5299652E+01 -0.1250977E-01 -0.8554012E-04 -0.9486511E+04  0.1099612E+01
  0.3285715E+00  0.9644406E+05  0.8743779E+01 -0.2414869E-02  0.4275143E-04 -0.9598719E+04  0.1849071E+01
  0.3595238E+00  0.9669480E+05  0.1431806E+02  0.2249408E-01  0.1399919E-02 -0.9315746E+04  0.3111438E+01
  0.3904762E+00  0.9715388E+05  0.2329087E+02  0.2563476E-01  0.1812965E-02 -0.8794738E+04  0.5222819E+01
  0.4214286E+00  0.9751136E+05  0.3734491E+02 -0.3331071E-02 -0.5125999E-05 -0.8697228E+04  0.8592502E+01
  0.4523810E+00  0.9782129E+05  0.5934056E+02 -0.3912674E-02 -0.4503727E-03 -0.8470987E+04  0.1404365E+02
  0.4833333E+00  0.9825727E+05  0.9195378E+02 -0.7703057E-02 -0.4780293E-03 -0.8087152E+04  0.2247614E+02
  0.5142857E+00  0.9885767E+05  0.1401929E+03 -0.1079983E-01 -0.1051188E-02 -0.7653475E+04  0.3536215E+02
  0.5452381E+00  0.9939787E+05  0.2085420E+03  0.2686613E-01  0.1826048E-02 -0.7470079E+04  0.5414275E+02
  0.5761905E+00  0.9983857E+05  0.3027009E+03  0.3071934E-02  0.1556873E-02 -0.7247877E+04  0.8102496E+02
  0.6071429E+00  0.1004937E+06  0.4313313E+03  0.4322725E-02 -0.1060009E-02 -0.6664190E+04  0.1194725E+03
  0.6380953E+00  0.1012772E+06  0.6010148E+03  0.7269560E-02 -0.8869171E-04 -0.6134473E+04  0.1720780E+03
  0.6690477E+00  0.1020448E+06  0.8227204E+03  0.4013984E-02 -0.9326935E-03 -0.5718776E+04  0.2431963E+03
  0.7000000E+00  0.1027595E+06  0.1108648E+04  0.5929129E-02  0.3059387E-02 -0.5318773E+04  0.3383258E+03
  0.7309524E+00  0.1035206E+06  0.1469859E+04  0.3340034E-02 -0.5397797E-03 -0.4873592E+04  0.4631175E+03
  0.7619048E+00  0.1043643E+06  0.1922011E+04 -0.1441955E-02 -0.4882812E-02 -0.4191095E+04  0.6264323E+03
  0.7928572E+00  0.1053393E+06  0.2481976E+04  0.6004539E-02  0.4688263E-02 -0.3423691E+04  0.8367095E+03
  0.8238096E+00  0.1063650E+06  0.3166892E+04 -0.2000401E-01 -0.1005936E-01 -0.2668025E+04  0.1103608E+04
  0.8547620E+00  0.1072911E+06  0.3994267E+04 -0.1813713E-01 -0.9834290E-02 -0.2110599E+04  0.1436551E+04
  0.8857143E+00  0.1081731E+06  0.4983087E+04  0.1502252E-01  0.2693176E-02 -0.1517457E+04  0.1849897E+04
  0.9166667E+00  0.1090433E+06  0.6151247E+04  0.7590554E-02  0.2037048E-02 -0.7748715E+03  0.2358210E+04
  0.9476191E+00  0.1099738E+06  0.7517160E+04  0.7600257E-02  0.8087158E-02  0.1317642E+03  0.2976447E+04
  0.9785714E+00  0.1108916E+06  0.9098914E+04  0.2382599E-01  0.1667786E-01  0.9745657E+03  0.3716254E+04
  0.1009524E+01  0.1117209E+06  0.1091142E+05  0.6650529E-02  0.1373291E-01  0.1858833E+04  0.4598013E+04
  0.1040476E+01  0.1125002E+06  0.1296929E+05 -0.4692863E-02 -0.1054382E-01  0.2653231E+04  0.5634663E+04
  0.1071429E+01  0.1131229E+06  0.1528162E+05 -0.9114584E-02 -0.8880615E-02  0.3403153E+04  0.6846751E+04
  0.1102381E+01  0.1135795E+06  0.1784902E+05  0.8194266E-02  0.1312256E-02  0.4072315E+04  0.8243875E+04
  0.1133333E+01  0.1138559E+06  0.2066910E+05 -0.4631491E-02 -0.9490967E-02  0.4644296E+04  0.9832609E+04
  0.1164286E+01  0.1139289E+06  0.2372877E+05 -0.1037972E-01  0.8575439E-02  0.5228303E+04  0.1162546E+05
  0.1195238E+01  0.1138843E+06  0.2701387E+05  0.4085221E-03  0.7751465E-02  0.5736377E+04  0.1361918E+05
  0.1226190E+01  0.1136094E+06  0.3050517E+05  0.4181204E-02  0.7629395E-02  0.6183138E+04  0.1582451E+05
  0.1257143E+01  0.1131482E+06  0.3420427E+05 -0.4078258E-02  0.4150391E-02  0.6488348E+04  0.1824711E+05
  0.1288095E+01  0.1124859E+06  0.3797804E+05 -0.6254693E-02 -0.6835938E-02  0.6648117E+04  0.2082114E+05
  0.1319048E+01  0.1115805E+06  0.4188555E+05  0.2072992E-01  0.1068115E-01  0.6678595E+04  0.2358847E+05
  0.1350000E+01  0.1104774E+06  0.4584761E+05  0.4882812E-02  0.1446533E-01  0.6586622E+04  0.2650679E+05
  0.1380952E+01  0.1092072E+06  0.4981830E+05 -0.4773370E-02 -0.8178711E-02  0.6350350E+04  0.2955364E+05
  0.1411905E+01  0.1067782E+06  0.5300228E+05  0.1971240E-01  0.3076172E-01  0.5026823E+04  0.3223264E+05
  0.1442857E+01  0.1051729E+06  0.5685588E+05  0.1438254E-01  0.1086426E-01  0.4545041E+04  0.3545603E+05
  0.1473810E+01  0.1034147E+06  0.6059259E+05  0.2816097E-02  0.1306152E-01  0.3916179E+04  0.3873382E+05
  0.1504762E+01  0.1015266E+06  0.6419590E+05  0.1492657E-01  0.6835938E-02  0.3083268E+04  0.4202500E+05
  0.1535714E+01  0.9948500E+05  0.6761828E+05  0.1637445E-01 -0.1599121E-01  0.2197962E+04  0.4534998E+05
  0.1566667E+01  0.9741159E+05  0.7084059E+05  0.6700881E-02 -0.1098633E-01  0.1141667E+04  0.4861730E+05
  0.1597619E+01  0.9528389E+05  0.7382802E+05  0.6876688E-02  0.2294922E-01  0.1028814E+02  0.5184393E+05
  0.1628572E+01  0.9310091E+05  0.7657855E+05  0.9294476E-02  0.1196289E-01 -0.1182344E+04  0.5500377E+05
  0.1659524E+01  0.9093677E+05  0.7906971E+05  0.6325939E-02  0.1220703E-02 -0.2450337E+04  0.5804789E+05
  0.1690476E+01  0.8878689E+05  0.8129146E+05  0.5054742E-02 -0.9521484E-02 -0.3750791E+04  0.6099759E+05
  0.1721429E+01  0.8666791E+05  0.8328865E+05  0.3829260E-02  0.8544922E-03 -0.5160339E+04  0.6380820E+05
  0.1752381E+01  0.8457260E+05  0.8503230E+05  0.1671833E-02  0.3906250E-02 -0.6576839E+04  0.6650402E+05
  0.1783333E+01  0.8251624E+05  0.8654448E+05  0.6981966E-02 -0.1123047E-01 -0.8010263E+04  0.6907569E+05
  0.1814286E+01  0.8055376E+05  0.8784129E+05  0.8073943E-02  0.6835938E-02 -0.9512494E+04  0.7147942E+05
  0.1845238E+01  0.7865568E+05  0.8890072E+05  0.2315398E-02 -0.1367188E-01 -0.1098144E+05  0.7377430E+05
  0.1876190E+01  0.7680599E+05  0.8975357E+05 -0.6506286E-04 -0.8544922E-02 -0.1242837E+05  0.7593073E+05
  0.1907143E+01  0.7506070E+05  0.9040753E+05  0.1145724E-01  0.1220703E-01 -0.1388722E+05  0.7789244E+05
  0.1938095E+01  0.7339687E+05  0.9085716E+05  0.7306223E-02  0.1123047E-01 -0.1529155E+05  0.7976523E+05
  0.1969048E+01  0.7183768E+05  0.9114785E+05  0.4649595E-02  0.1464844E-02 -0.1668692E+05  0.8149448E+05
  0.2000000E+01  0.7035804E+05  0.9133665E+05  0.5432129E-02  0.6347656E-02 -0.1811239E+05  0.8303667E+05
Zone t="Motion of body    1 in DoF   2",I=    64,F=POINT
  0.5000000E-01  0.7629395E-02 -0.4291534E-04  0.1684870E+06  0.5473018E+03  0.3662109E-01  0.5149841E-04
  0.8095238E-01 -0.9801527E-02 -0.1716614E-04  0.1659152E+06  0.9073376E+03  0.3430535E-01  0.1296997E-03
  0.1119048E+00 -0.2918000E-01  0.1411438E-03  0.1646491E+06  0.1299047E+04  0.2618019E-01  0.3089905E-03
  0.1428571E+00 -0.1943970E-01  0.3814697E-04  0.1638639E+06  0.1737003E+04  0.1965332E-01  0.3890991E-03
  0.1738095E+00  0.3336031E-02 -0.3242493E-03  0.1637396E+06  0.2239941E+04  0.2247432E-01  0.2593994E-03
  0.2047619E+00  0.8644281E-02 -0.6103516E-04  0.1638675E+06  0.2830722E+04  0.2861555E-01  0.2593994E-03
  0.2357143E+00 -0.2589370E-02 -0.4272461E-03  0.1643785E+06  0.3541715E+04  0.3159032E-01  0.6713867E-03
  0.2666667E+00 -0.2105713E-01  0.3280640E-03  0.1651454E+06  0.4400260E+04  0.2334595E-01  0.4730225E-03
  0.2976190E+00 -0.2460937E-02  0.4653931E-03  0.1659163E+06  0.5466805E+04  0.1599609E-01  0.3356934E-03
  0.3285715E+00 -0.8359162E-02 -0.1754761E-03  0.1669756E+06  0.6772701E+04  0.3343665E-01  0.2197266E-02
  0.3595238E+00  0.3565100E-02 -0.1220703E-03  0.1679152E+06  0.8389710E+04  0.2105106E-01  0.1434326E-02
  0.3904762E+00  0.2266488E-01 -0.2593994E-03  0.1687932E+06  0.1037193E+05  0.1813191E-01  0.2014160E-02
  0.4214286E+00 -0.1013804E-01 -0.2746582E-03  0.1691172E+06  0.1269387E+05  0.5793167E-02  0.2746582E-02
  0.4523810E+00  0.1484118E-01 -0.7324219E-03  0.1693543E+06  0.1547105E+05  0.2536492E-01  0.2136230E-02
  0.4833333E+00 -0.1515356E-01 -0.1770020E-02  0.1688044E+06  0.1847657E+05  0.4394531E-01  0.3051758E-02
  0.5142857E+00 -0.1091851E-01 -0.4272461E-03  0.1676560E+06  0.2184726E+05  0.1614041E-01  0.3784180E-02
  0.5452381E+00  0.1007480E-01  0.1525879E-03  0.1662110E+06  0.2539175E+05  0.2820944E-01  0.3173828E-02
  0.5761905E+00  0.4025294E-02  0.4150391E-02  0.1643569E+06  0.2904918E+05  0.2499919E-01  0.1831055E-02
  0.6071429E+00  0.1789407E-01  0.1403809E-02  0.1620275E+06  0.3290353E+05  0.3417968E-01  0.4272461E-02
  0.6380953E+00  0.5165214E-02  0.2197266E-02  0.1594892E+06  0.3673745E+05  0.3252172E-01  0.4760742E-02
  0.6690477E+00  0.1094723E-02  0.1770020E-02  0.1567061E+06  0.4062448E+05  0.1861029E-01  0.6713867E-02
  0.7000000E+00  0.2162388E-01  0.1647949E-02  0.1537527E+06  0.4457411E+05  0.1674107E-01  0.3417969E-02
  0.7309524E+00 -0.5511057E-02 -0.4577637E-02  0.1507392E+06  0.4847542E+05  0.7348076E-02  0.5126953E-02
  0.7619048E+00  0.5287170E-02 -0.4821777E-02  0.1475193E+06  0.5235968E+05  0.1666260E-01  0.7812500E-02
  0.7928572E+00  0.2217061E-01 -0.2685547E-02  0.1441194E+06  0.5621326E+05  0.4926801E-02  0.9033203E-02
  0.8238096E+00  0.1022427E-01 -0.8911133E-02  0.1406619E+06  0.5999140E+05  0.1541049E-01  0.1708984E-02
  0.8547620E+00 -0.7140603E-03  0.3540039E-02  0.1372158E+06  0.6366244E+05  0.1942244E-01  0.1269531E-01
  0.8857143E+00  0.1929499E-02  0.6958008E-02  0.1337789E+06  0.6720796E+05  0.3473097E-01  0.1147461E-01
  0.9166667E+00  0.8922230E-02  0.1098633E-02  0.1303338E+06  0.7062635E+05  0.1012074E-01  0.8789062E-02
  0.9476191E+00 -0.9017254E-03 -0.6835938E-02  0.1268552E+06  0.7391142E+05  0.1700396E-01  0.7080078E-02
  0.9785714E+00  0.1559292E-01  0.1513672E-01  0.1233625E+06  0.7705373E+05  0.1496921E-01  0.1635742E-01
  0.1009524E+01  0.7738797E-02 -0.6347656E-02  0.1198837E+06  0.8004167E+05  0.1112452E-01  0.7080078E-02
  0.1040476E+01  0.1161484E-01 -0.9765625E-03  0.1164850E+06  0.8283682E+05  0.1220144E-01  0.1391602E-01
  0.1071429E+01  0.4671224E-02  0.6469727E-02  0.1131771E+06  0.8543394E+05  0.2141927E-01  0.1586914E-01
  0.1102381E+01  0.3654200E-02 -0.1220703E-03  0.1099716E+06  0.8783141E+05  0.1240213E-01  0.1171875E-01
  0.1133333E+01  0.5385455E-02 -0.1220703E-03  0.1068528E+06  0.9004268E+05  0.9047564E-02  0.9277344E-02
  0.1164286E+01 -0.7653733E-02  0.7080078E-02  0.1038293E+06  0.9207844E+05  0.1761407E-01  0.1416016E-01
  0.1195238E+01  0.3778830E-02  0.4760742E-02  0.1009039E+06  0.9392353E+05  0.7353399E-02  0.2294922E-01
  0.1226190E+01  0.1304138E-01  0.5981445E-02  0.9807413E+05  0.9560037E+05  0.7565989E-02  0.3417969E-02
  0.1257143E+01  0.2136230E-02  0.8300781E-02  0.9536566E+05  0.9714118E+05  0.5437677E-02  0.1513672E-01
  0.1288095E+01 -0.4738404E-03 -0.4882812E-02  0.9272166E+05  0.9840310E+05  0.9855880E-02  0.8789062E-02
  0.1319048E+01  0.1730578E-01  0.8300781E-02  0.9020467E+05  0.9954768E+05  0.2258080E-01  0.1904297E-01
  0.1350000E+01  0.4340278E-02 -0.1708984E-01  0.8780907E+05  0.1005191E+06  0.1699942E-01  0.6835938E-02
  0.1380952E+01  0.6806472E-02  0.1220703E-02  0.8553092E+05  0.1012984E+06  0.9546741E-02  0.2441406E-01
  0.1411905E+01  0.1028849E-01 -0.1220703E-02  0.8269434E+05  0.1021874E+06  0.2489987E-01  0.1464844E-01
  0.1442857E+01  0.3637937E-02  0.6103516E-02  0.8062925E+05  0.1027385E+06  0.1590540E-01  0.9277344E-02
  0.1473810E+01  0.1325222E-02  0.3173828E-02  0.7866059E+05  0.1031466E+06  0.1424614E-01  0.1416016E-01
  0.1504762E+01  0.2101077E-01 -0.1953125E-02  0.7681066E+05  0.1034318E+06  0.2595926E-01  0.2294922E-01
  0.1535714E+01  0.1367187E-01  0.2270508E-01  0.7503815E+05  0.1036214E+06  0.1923601E-01  0.5859375E-02
  0.1566667E+01  0.1246675E-01  0.1855469E-01  0.7338447E+05  0.1036709E+06  0.1963514E-01  0.1611328E-01
  0.1597619E+01  0.1413541E-01  0.1147461E-01  0.7182131E+05  0.1036054E+06  0.8252026E-02  0.1611328E-01
  0.1628572E+01 -0.1124332E-02 -0.5859375E-02  0.7034038E+05  0.1034444E+06  0.1634029E-01  0.8300781E-02
  0.1659524E+01  0.6178824E-02 -0.5126953E-02  0.6895188E+05  0.1031531E+06  0.0000000E+00  0.8300781E-02
  0.1690476E+01  0.6282323E-02  0.6591797E-02  0.6764420E+05  0.1027524E+06  0.1631960E-01  0.1611328E-01
  0.1721429E+01  0.9005851E-02 -0.7812500E-02  0.6642880E+05  0.1022751E+06  0.3261962E-02  0.1611328E-01
  0.1752381E+01  0.5294137E-02 -0.7080078E-02  0.6528616E+05  0.1017294E+06  0.8637802E-02  0.1318359E-01
  0.1783333E+01  0.1026760E-02  0.9521484E-02  0.6421564E+05  0.1011294E+06  0.1916618E-02  0.1953125E-01
  0.1814286E+01  0.5449911E-02  0.1440430E-01  0.6323434E+05  0.1004489E+06  0.9688730E-02  0.1953125E-01
  0.1845238E+01 -0.1038621E-01  0.3906250E-02  0.6231254E+05  0.9969910E+05  0.3969254E-03  0.2343750E-01
  0.1876190E+01  0.7807543E-02  0.8544922E-02  0.6144068E+05  0.9890402E+05  0.1522471E-01  0.2490234E-01
  0.1907143E+01  0.5696615E-02 -0.4150391E-02  0.6063121E+05  0.9801620E+05  0.1356946E-01  0.3417969E-02
  0.1938095E+01  0.1234500E-01  0.5371094E-02  0.5987702E+05  0.9706191E+05  0.4786836E-02  0.1464844E-01
  0.1969048E+01  0.5517519E-02 -0.4150391E-02  0.5918537E+05  0.9603545E+05  0.1983827E-02  0.1562500E-01
  0.2000000E+01  0.7141113E-02 -0.5371094E-02  0.5855447E+05  0.9500161E+05  0.1086426E-01  0.2343750E-01
Zone t="Motion of body    1 in DoF   3",I=    64,F=POINT
  0.5000000E-01 -0.1098363E+05  0.1726615E-02  0.6927490E-01  0.1998235E-03  0.2453884E+06  0.6974774E-03
  0.8095238E-01 -0.1141029E+05  0.7641112E-02  0.4778245E-01  0.2437821E-03  0.2449303E+06  0.1623449E-02
  0.1119048E+00 -0.1165245E+05  0.2175381E-01  0.1977149E-01  0.1161430E-03  0.2444979E+06  0.3753428E-02
  0.1428571E+00 -0.1153250E+05  0.4955110E-01  0.3631592E-02 -0.3177556E-04  0.2443922E+06  0.8990776E-02
  0.1738095E+00 -0.1143786E+05  0.9989371E-01 -0.3476496E-01 -0.5568089E-03  0.2447824E+06  0.1872765E-01
  0.2047619E+00 -0.1120477E+05  0.1871727E+00  0.9478901E-01  0.1718277E-02  0.2449060E+06  0.3765685E-01
  0.2357143E+00 -0.1136939E+05  0.3355349E+00  0.8480187E-01  0.1819190E-02  0.2445218E+06  0.6757075E-01
  0.2666667E+00 -0.1092684E+05  0.5839609E+00  0.5664825E-01  0.1287768E-02  0.2454358E+06  0.1182105E+00
  0.2976190E+00 -0.1080382E+05  0.9989706E+00  0.6521484E-01  0.2169756E-02  0.2452133E+06  0.2076297E+00
  0.3285715E+00 -0.1095351E+05  0.1693480E+01  0.3631591E-01  0.1375314E-02  0.2446976E+06  0.3596802E+00
  0.3595238E+00 -0.1062616E+05  0.2848877E+01  0.6094623E-01  0.2692811E-02  0.2453204E+06  0.6157819E+00
  0.3904762E+00 -0.1009173E+05  0.4772894E+01  0.4126571E-01  0.2209201E-02  0.2460118E+06  0.1067237E+01
  0.4214286E+00 -0.1006421E+05  0.7886723E+01  0.3881422E-01  0.2507746E-02  0.2455816E+06  0.1811440E+01
  0.4523810E+00 -0.9781510E+04  0.1291420E+02  0.3170615E-01  0.2688453E-02  0.2461470E+06  0.3071058E+01
  0.4833333E+00 -0.9396802E+04  0.2067476E+02  0.3977808E-01  0.3566176E-02  0.2465894E+06  0.5045605E+01
  0.5142857E+00 -0.9013506E+04  0.3253842E+02  0.4557292E-01  0.5084515E-02  0.2467475E+06  0.8189527E+01
  0.5452381E+00 -0.8883531E+04  0.5008968E+02  0.6134433E-01  0.9190917E-02  0.2464533E+06  0.1301814E+02
  0.5761905E+00 -0.8629127E+04  0.7524129E+02  0.6323948E-01  0.1124132E-01  0.2468132E+06  0.2013158E+02
  0.6071429E+00 -0.8021507E+04  0.1107975E+03  0.6051815E-01  0.1208496E-01  0.2477008E+06  0.3078251E+02
  0.6380953E+00 -0.7545566E+04  0.1598409E+03  0.2879128E-01  0.5910397E-02  0.2478679E+06  0.4568882E+02
  0.6690477E+00 -0.7199845E+04  0.2267896E+03  0.1569103E-01  0.2920628E-02  0.2477385E+06  0.6706246E+02
  0.7000000E+00 -0.6795343E+04  0.3165751E+03  0.4150390E-01  0.1090479E-01  0.2480769E+06  0.9693164E+02
  0.7309524E+00 -0.6332870E+04  0.4345412E+03  0.1970620E-01  0.4866600E-02  0.2485754E+06  0.1369149E+03
  0.7619048E+00 -0.5662519E+04  0.5878260E+03  0.4502105E-01  0.1406288E-01  0.2492592E+06  0.1910814E+03
  0.7928572E+00 -0.4927009E+04  0.7855820E+03 -0.1385663E-02 -0.2838135E-02  0.2498429E+06  0.2639740E+03
  0.8238096E+00 -0.4228186E+04  0.1038144E+04 -0.1926312E-01 -0.1630783E-01  0.2501808E+06  0.3612886E+03
  0.8547620E+00 -0.3723200E+04  0.1357495E+04  0.2113619E-01  0.6328583E-02  0.2502232E+06  0.4892644E+03
  0.8857143E+00 -0.3134304E+04  0.1753512E+04  0.4424064E-01  0.2413559E-01  0.2506685E+06  0.6528995E+03
  0.9166667E+00 -0.2378632E+04  0.2236859E+04  0.1211825E-01  0.4371643E-02  0.2515174E+06  0.8576443E+03
  0.9476191E+00 -0.1478733E+04  0.2822477E+04  0.1584460E-01  0.1055527E-01  0.2524863E+06  0.1113773E+04
  0.9785714E+00 -0.6608500E+03  0.3529370E+04  0.1097742E-01  0.6858826E-02  0.2531855E+06  0.1433967E+04
  0.1009524E+01  0.1704644E+03  0.4371413E+04  0.1039901E-01  0.5882263E-02  0.2538044E+06  0.1833556E+04
  0.1040476E+01  0.9222408E+03  0.5371617E+04  0.1560377E-01  0.3005981E-02  0.2542631E+06  0.2329603E+04
  0.1071429E+01  0.1644196E+04  0.6542156E+04  0.2552084E-01  0.1009369E-01  0.2548686E+06  0.2939695E+04
  0.1102381E+01  0.2309881E+04  0.7895921E+04  0.4728313E-01  0.4173279E-01  0.2554281E+06  0.3667308E+04
  0.1133333E+01  0.2891138E+04  0.9434302E+04  0.2283433E-01  0.1313782E-01  0.2561560E+06  0.4512974E+04
  0.1164286E+01  0.3469116E+04  0.1115839E+05  0.2348543E-01  0.1596069E-01  0.2569809E+06  0.5487236E+04
  0.1195238E+01  0.3990090E+04  0.1309440E+05  0.1593236E-01  0.2102661E-01  0.2576552E+06  0.6612897E+04
  0.1226190E+01  0.4433313E+04  0.1522746E+05  0.1811855E-01  0.1934814E-01  0.2583867E+06  0.7909544E+04
  0.1257143E+01  0.4751327E+04  0.1760008E+05 -0.3884055E-02 -0.2526855E-01  0.2589319E+06  0.9402102E+04
  0.1288095E+01  0.4905229E+04  0.2010939E+05  0.2046991E-01  0.1086426E-01  0.2592603E+06  0.1102694E+05
  0.1319048E+01  0.4924662E+04  0.2280680E+05  0.2961417E-01  0.3784180E-01  0.2596241E+06  0.1282623E+05
  0.1350000E+01  0.4830364E+04  0.2564487E+05  0.2803096E-01  0.5047607E-01  0.2600434E+06  0.1478916E+05
  0.1380952E+01  0.4624120E+04  0.2862970E+05  0.2404364E-01  0.5255127E-01  0.2603574E+06  0.1692605E+05
  0.1411905E+01  0.4796124E+03  0.2877778E+05  0.1106661E-01  0.7690430E-02  0.2567849E+06  0.1742796E+05
  0.1442857E+01  0.9651599E+02  0.3172627E+05  0.1928953E-01  0.3674316E-01  0.2571318E+06  0.1969535E+05
  0.1473810E+01 -0.4258671E+03  0.3475987E+05  0.1573701E-01  0.3155518E-01  0.2571442E+06  0.2208176E+05
  0.1504762E+01 -0.1150327E+04  0.3782590E+05  0.8761249E-02  0.1403809E-01  0.2571325E+06  0.2461221E+05
  0.1535714E+01 -0.1948507E+04  0.4089062E+05  0.1462573E-01 -0.1165771E-01  0.2569883E+06  0.2724458E+05
  0.1566667E+01 -0.2884630E+04  0.4394153E+05  0.1963514E-01  0.3472900E-01  0.2568027E+06  0.2995913E+05
  0.1597619E+01 -0.3895721E+04  0.4697724E+05  0.1100270E-01  0.1098633E-01  0.2564092E+06  0.3273080E+05
  0.1628572E+01 -0.4986539E+04  0.4989314E+05  0.1229269E-01  0.2148438E-01  0.2560766E+06  0.3554462E+05
  0.1659524E+01 -0.6123393E+04  0.5272247E+05  0.9562466E-02 -0.7080078E-02  0.2557322E+06  0.3838106E+05
  0.1690476E+01 -0.7294865E+04  0.5549722E+05  0.2050781E-01  0.1232910E-01  0.2551682E+06  0.4121581E+05
  0.1721429E+01 -0.8574245E+04  0.5816579E+05  0.2056454E-01  0.1318359E-01  0.2545519E+06  0.4407647E+05
  0.1752381E+01 -0.9867695E+04  0.6070041E+05  0.1936539E-01  0.1770020E-01  0.2539175E+06  0.4692169E+05
  0.1783333E+01 -0.1119015E+05  0.6309585E+05  0.1341633E-01 -0.1623535E-01  0.2532369E+06  0.4975291E+05
  0.1814286E+01 -0.1256891E+05  0.6540632E+05  0.6997417E-02  0.3442383E-01  0.2524451E+06  0.5256073E+05
  0.1845238E+01 -0.1392142E+05  0.6762013E+05  0.1614163E-01  0.2172852E-01  0.2515363E+06  0.5529523E+05
  0.1876190E+01 -0.1526982E+05  0.6961763E+05  0.1821760E-01  0.1293945E-01  0.2507208E+06  0.5799727E+05
  0.1907143E+01 -0.1660483E+05  0.7147261E+05  0.1152124E-01  0.1684570E-01  0.2499120E+06  0.6062855E+05
  0.1938095E+01 -0.1790895E+05  0.7325882E+05  0.7684131E-02  0.2709961E-01  0.2489836E+06  0.6320921E+05
  0.1969048E+01 -0.1920635E+05  0.7496929E+05  0.1921833E-01  0.1501465E-01  0.2479417E+06  0.6566139E+05
  0.2000000E+01 -0.2054898E+05  0.7648175E+05  0.1379395E-01  0.1403809E-01  0.2469645E+06  0.6822359E+05
