VARIABLES="w (rad/s)"
"abs(F   1   1)" "angle(F   1   1)"
"abs(F   1   2)" "angle(F   1   2)"
"abs(F   1   3)" "angle(F   1   3)"
Zone t="Diffraction force - beta =   0.000 deg",I=    64,F=POINT
  0.5000000E-01  0.4988224E+04 -0.1570792E+01  0.6700228E+06 -0.4585964E-04  0.1419587E+03 -0.1571082E+01
  0.8095238E-01  0.8132371E+04 -0.1570790E+01  0.6684376E+06 -0.1233010E-03  0.2311978E+03 -0.1570964E+01
  0.1119048E+00  0.1134948E+05 -0.1570784E+01  0.6661124E+06 -0.2446248E-03  0.3226267E+03 -0.1570920E+01
  0.1428571E+00  0.1466034E+05 -0.1570784E+01  0.6630475E+06 -0.4189737E-03  0.4189947E+03 -0.1570876E+01
  0.1738095E+00  0.1813354E+05 -0.1570780E+01  0.6592368E+06 -0.6600138E-03  0.5203511E+03 -0.1570859E+01
  0.2047619E+00  0.2177494E+05 -0.1570768E+01  0.6546726E+06 -0.9875710E-03  0.6296104E+03 -0.1570833E+01
  0.2357143E+00  0.2563868E+05 -0.1570757E+01  0.6493518E+06 -0.1430870E-02  0.7447484E+03 -0.1570807E+01
  0.2666667E+00  0.2981447E+05 -0.1570739E+01  0.6432641E+06 -0.2024670E-02  0.8734312E+03 -0.1570778E+01
  0.2976190E+00  0.3430274E+05 -0.1570705E+01  0.6364119E+06 -0.2829420E-02  0.1014902E+04 -0.1570742E+01
  0.3285715E+00  0.3921394E+05 -0.1570660E+01  0.6287835E+06 -0.3903791E-02  0.1169573E+04 -0.1570692E+01
  0.3595238E+00  0.4464862E+05 -0.1570593E+01  0.6204218E+06 -0.5343946E-02  0.1349829E+04 -0.1570621E+01
  0.3904762E+00  0.5061663E+05 -0.1570490E+01  0.6113093E+06 -0.7253193E-02  0.1545861E+04 -0.1570515E+01
  0.4214286E+00  0.5715084E+05 -0.1570346E+01  0.6015769E+06 -0.9695414E-02  0.1761874E+04 -0.1570366E+01
  0.4523810E+00  0.6442404E+05 -0.1570130E+01  0.5911968E+06 -0.1285556E-01  0.2016376E+04 -0.1570148E+01
  0.4833333E+00  0.7237264E+05 -0.1569831E+01  0.5803377E+06 -0.1663031E-01  0.2298919E+04 -0.1569848E+01
  0.5142857E+00  0.8088602E+05 -0.1569421E+01  0.5690268E+06 -0.2123883E-01  0.2603368E+04 -0.1569436E+01
  0.5452381E+00  0.8996195E+05 -0.1568873E+01  0.5573011E+06 -0.2659360E-01  0.2930114E+04 -0.1568885E+01
  0.5761905E+00  0.9966573E+05 -0.1568165E+01  0.5452708E+06 -0.3269866E-01  0.3302488E+04 -0.1568175E+01
  0.6071429E+00  0.1099239E+06 -0.1567252E+01  0.5329827E+06 -0.3973100E-01  0.3712309E+04 -0.1567262E+01
  0.6380953E+00  0.1205287E+06 -0.1566118E+01  0.5203871E+06 -0.4748638E-01  0.4129168E+04 -0.1566127E+01
  0.6690477E+00  0.1313794E+06 -0.1564717E+01  0.5076230E+06 -0.5614027E-01  0.4570766E+04 -0.1564724E+01
  0.7000000E+00  0.1427154E+06 -0.1563007E+01  0.4947288E+06 -0.6578597E-01  0.5057622E+04 -0.1563015E+01
  0.7309524E+00  0.1544553E+06 -0.1560961E+01  0.4816882E+06 -0.7631798E-01  0.5573241E+04 -0.1560971E+01
  0.7619048E+00  0.1664643E+06 -0.1558529E+01  0.4686220E+06 -0.8783159E-01  0.6130812E+04 -0.1558540E+01
  0.7928572E+00  0.1786786E+06 -0.1555667E+01  0.4555444E+06 -0.1003603E+00  0.6717826E+04 -0.1555673E+01
  0.8238096E+00  0.1909330E+06 -0.1552332E+01  0.4424779E+06 -0.1139172E+00  0.7293838E+04 -0.1552328E+01
  0.8547620E+00  0.2033077E+06 -0.1548502E+01  0.4294439E+06 -0.1285124E+00  0.7906447E+04 -0.1548504E+01
  0.8857143E+00  0.2158661E+06 -0.1544160E+01  0.4165169E+06 -0.1441694E+00  0.8578094E+04 -0.1544188E+01
  0.9166667E+00  0.2285636E+06 -0.1539285E+01  0.4036941E+06 -0.1608833E+00  0.9289241E+04 -0.1539318E+01
  0.9476191E+00  0.2412106E+06 -0.1533856E+01  0.3910628E+06 -0.1786689E+00  0.1001206E+05 -0.1533895E+01
  0.9785714E+00  0.2536929E+06 -0.1527864E+01  0.3786192E+06 -0.1975134E+00  0.1075167E+05 -0.1527903E+01
  0.1009524E+01  0.2657992E+06 -0.1521311E+01  0.3663958E+06 -0.2174421E+00  0.1150037E+05 -0.1521313E+01
  0.1040476E+01  0.2775041E+06 -0.1514229E+01  0.3543426E+06 -0.2384363E+00  0.1226118E+05 -0.1514167E+01
  0.1071429E+01  0.2888148E+06 -0.1506712E+01  0.3424919E+06 -0.2605116E+00  0.1303336E+05 -0.1506647E+01
  0.1102381E+01  0.2996666E+06 -0.1498860E+01  0.3308843E+06 -0.2836901E+00  0.1381307E+05 -0.1498859E+01
  0.1133333E+01  0.3099348E+06 -0.1490756E+01  0.3195631E+06 -0.3079530E+00  0.1459423E+05 -0.1490790E+01
  0.1164286E+01  0.3194199E+06 -0.1482492E+01  0.3085197E+06 -0.3333156E+00  0.1538473E+05 -0.1482469E+01
  0.1195238E+01  0.3280695E+06 -0.1474201E+01  0.2977298E+06 -0.3597463E+00  0.1617250E+05 -0.1474117E+01
  0.1226190E+01  0.3357961E+06 -0.1466073E+01  0.2871773E+06 -0.3872423E+00  0.1694417E+05 -0.1466018E+01
  0.1257143E+01  0.3424970E+06 -0.1458246E+01  0.2769345E+06 -0.4160000E+00  0.1766507E+05 -0.1458208E+01
  0.1288095E+01  0.3481539E+06 -0.1451159E+01  0.2669649E+06 -0.4455138E+00  0.1834514E+05 -0.1451215E+01
  0.1319048E+01  0.3526772E+06 -0.1444740E+01  0.2573094E+06 -0.4762656E+00  0.1899906E+05 -0.1444728E+01
  0.1350000E+01  0.3560219E+06 -0.1439264E+01  0.2479322E+06 -0.5080968E+00  0.1962685E+05 -0.1439157E+01
  0.1380952E+01  0.3582610E+06 -0.1434999E+01  0.2387904E+06 -0.5409634E+00  0.2022445E+05 -0.1434889E+01
  0.1411905E+01  0.3588322E+06 -0.1432761E+01  0.2300607E+06 -0.5742618E+00  0.2068428E+05 -0.1432660E+01
  0.1442857E+01  0.3588882E+06 -0.1431481E+01  0.2214716E+06 -0.6092228E+00  0.2116561E+05 -0.1431442E+01
  0.1473810E+01  0.3578695E+06 -0.1431918E+01  0.2131625E+06 -0.6452841E+00  0.2157740E+05 -0.1431867E+01
  0.1504762E+01  0.3558891E+06 -0.1434255E+01  0.2051147E+06 -0.6824304E+00  0.2194856E+05 -0.1434241E+01
  0.1535714E+01  0.3530178E+06 -0.1438623E+01  0.1973697E+06 -0.7206346E+00  0.2228472E+05 -0.1438614E+01
  0.1566667E+01  0.3493417E+06 -0.1445117E+01  0.1898604E+06 -0.7599525E+00  0.2257562E+05 -0.1445147E+01
  0.1597619E+01  0.3449449E+06 -0.1453829E+01  0.1825923E+06 -0.8003754E+00  0.2282039E+05 -0.1453728E+01
  0.1628572E+01  0.3399548E+06 -0.1464817E+01  0.1755423E+06 -0.8418479E+00  0.2301761E+05 -0.1464568E+01
  0.1659524E+01  0.3344459E+06 -0.1478114E+01  0.1687228E+06 -0.8843611E+00  0.2316015E+05 -0.1477834E+01
  0.1690476E+01  0.3284833E+06 -0.1493736E+01  0.1621437E+06 -0.9280093E+00  0.2325338E+05 -0.1493703E+01
  0.1721429E+01  0.3221592E+06 -0.1511702E+01  0.1557928E+06 -0.9728215E+00  0.2331236E+05 -0.1511960E+01
  0.1752381E+01  0.3155618E+06 -0.1531999E+01  0.1496761E+06 -0.1018717E+01  0.2334848E+05 -0.1532394E+01
  0.1783333E+01  0.3087465E+06 -0.1554597E+01  0.1437950E+06 -0.1065723E+01  0.2336785E+05 -0.1554965E+01
  0.1814286E+01  0.3017763E+06 -0.1579473E+01  0.1380933E+06 -0.1113938E+01  0.2336772E+05 -0.1579756E+01
  0.1845238E+01  0.2947061E+06 -0.1606585E+01  0.1325618E+06 -0.1163356E+01  0.2334930E+05 -0.1606621E+01
  0.1876190E+01  0.2875909E+06 -0.1635858E+01  0.1271980E+06 -0.1214002E+01  0.2330101E+05 -0.1635779E+01
  0.1907143E+01  0.2804584E+06 -0.1667260E+01  0.1219994E+06 -0.1265828E+01  0.2323232E+05 -0.1667222E+01
  0.1938095E+01  0.2733444E+06 -0.1700741E+01  0.1169550E+06 -0.1318945E+01  0.2314214E+05 -0.1700937E+01
  0.1969048E+01  0.2662929E+06 -0.1736275E+01  0.1120796E+06 -0.1373448E+01  0.2303355E+05 -0.1736894E+01
  0.2000000E+01  0.2593138E+06 -0.1773796E+01  0.1073687E+06 -0.1429318E+01  0.2291292E+05 -0.1774982E+01
