VARIABLES="w (rad/s)"
"A   1   1" "B   1   1"
"A   1   2" "B   1   2"
"A   1   3" "B   1   3"
Zone t="Motion of body    1 in DoF   1",I=    64,F=POINT
  0.5000000E-01  0.7083743E+05  0.4114246E-02 -0.1373291E-02 -0.9615906E-07 -0.1937869E+06 -0.1143092E-01
  0.8095238E-01  0.7159384E+05  0.1799956E-01  0.1743541E-02  0.1508009E-04 -0.1956061E+06 -0.4996852E-01
  0.1119048E+00  0.7175886E+05  0.5033345E-01 -0.8522196E-04  0.1182721E-04 -0.1958893E+06 -0.1392602E+00
  0.1428571E+00  0.7194720E+05  0.1131205E+00 -0.4405975E-03  0.9977201E-05 -0.1962216E+06 -0.3126564E+00
  0.1738095E+00  0.7199630E+05  0.2248356E+00 -0.3072660E-03  0.1632178E-04 -0.1963311E+06 -0.6211193E+00
  0.2047619E+00  0.7209579E+05  0.4144190E+00 -0.1006015E-02 -0.5650800E-06 -0.1965445E+06 -0.1143880E+01
  0.2357143E+00  0.7222668E+05  0.7279617E+00  0.4693233E-03  0.1067715E-04 -0.1967295E+06 -0.2006492E+01
  0.2666667E+00  0.7228001E+05  0.1237988E+01  0.1716614E-02  0.6686617E-04 -0.1969395E+06 -0.3408933E+01
  0.2976190E+00  0.7242571E+05  0.2071403E+01 -0.3691406E-02 -0.4356075E-04 -0.1972228E+06 -0.5695337E+01
  0.3285715E+00  0.7254126E+05  0.3415476E+01  0.3482984E-03  0.1171827E-03 -0.1974048E+06 -0.9373563E+01
  0.3595238E+00  0.7273567E+05  0.5589703E+01 -0.3140683E-02 -0.4133582E-04 -0.1978100E+06 -0.1531075E+02
  0.3904762E+00  0.7286248E+05  0.9073524E+01 -0.4943289E-02 -0.7101148E-04 -0.1981298E+06 -0.2480801E+02
  0.4214286E+00  0.7311238E+05  0.1454368E+02 -0.3620729E-04  0.1328140E-03 -0.1985187E+06 -0.3965818E+02
  0.4523810E+00  0.7328554E+05  0.2309171E+02 -0.1146818E-02  0.5200505E-05 -0.1989007E+06 -0.6282963E+02
  0.4833333E+00  0.7352800E+05  0.3575320E+02 -0.9786672E-03  0.9171665E-04 -0.1995122E+06 -0.9704939E+02
  0.5142857E+00  0.7383328E+05  0.5447319E+02  0.2269745E-02  0.3457367E-03 -0.2001072E+06 -0.1474420E+03
  0.5452381E+00  0.7412755E+05  0.8098488E+02  0.2546685E-02  0.4913509E-03 -0.2007041E+06 -0.2185536E+03
  0.5761905E+00  0.7449050E+05  0.1175719E+03 -0.6620548E-04  0.6097555E-04 -0.2014301E+06 -0.3162567E+03
  0.6071429E+00  0.7479566E+05  0.1674624E+03 -0.2261891E-02 -0.3814101E-03 -0.2021867E+06 -0.4491672E+03
  0.6380953E+00  0.7518274E+05  0.2333101E+03  0.2630433E-02  0.1200795E-02 -0.2030462E+06 -0.6236743E+03
  0.6690477E+00  0.7567222E+05  0.3196032E+03 -0.4333279E-03  0.1465082E-03 -0.2039911E+06 -0.8509559E+03
  0.7000000E+00  0.7606754E+05  0.4309045E+03  0.4076276E-02  0.1679182E-02 -0.2048070E+06 -0.1142952E+04
  0.7309524E+00  0.7655134E+05  0.5721732E+03 -0.1920520E-02 -0.6928444E-03 -0.2058892E+06 -0.1511807E+04
  0.7619048E+00  0.7709795E+05  0.7498710E+03 -0.1001358E-03  0.9226799E-04 -0.2070718E+06 -0.1973080E+04
  0.7928572E+00  0.7764752E+05  0.9706514E+03 -0.1039247E-02 -0.5025864E-03 -0.2082809E+06 -0.2543167E+04
  0.8238096E+00  0.7820049E+05  0.1242065E+04 -0.8335003E-03  0.3032684E-03 -0.2094078E+06 -0.3239207E+04
  0.8547620E+00  0.7878976E+05  0.1572600E+04  0.2160032E-02  0.1296997E-03 -0.2105694E+06 -0.4080974E+04
  0.8857143E+00  0.7947145E+05  0.1972467E+04 -0.1774449E-02 -0.6675720E-04 -0.2119028E+06 -0.5091877E+04
  0.9166667E+00  0.8010235E+05  0.2450108E+04  0.4161488E-03  0.4529953E-03 -0.2132119E+06 -0.6292719E+04
  0.9476191E+00  0.8073778E+05  0.3016785E+04  0.1014441E-02  0.7066727E-03 -0.2145509E+06 -0.7708194E+04
  0.9785714E+00  0.8140565E+05  0.3684306E+04 -0.8576108E-03 -0.4444122E-03 -0.2159295E+06 -0.9363091E+04
  0.1009524E+01  0.8211847E+05  0.4464836E+04  0.1753321E-02  0.3566742E-02 -0.2172415E+06 -0.1127802E+05
  0.1040476E+01  0.8285593E+05  0.5371391E+04 -0.1349198E-02 -0.7400513E-03 -0.2185981E+06 -0.1348374E+05
  0.1071429E+01  0.8348506E+05  0.6411845E+04  0.3574626E-02  0.3629684E-02 -0.2196506E+06 -0.1599161E+05
  0.1102381E+01  0.8417239E+05  0.7606367E+04 -0.4152500E-03 -0.6942749E-03 -0.2208878E+06 -0.1884876E+05
  0.1133333E+01  0.8479084E+05  0.8961581E+04  0.3500546E-03 -0.4730225E-03 -0.2218938E+06 -0.2205694E+05
  0.1164286E+01  0.8542891E+05  0.1049542E+05 -0.2621142E-04 -0.1945496E-03 -0.2228955E+06 -0.2565053E+05
  0.1195238E+01  0.8604144E+05  0.1221771E+05 -0.2502198E-02 -0.2815247E-02 -0.2238582E+06 -0.2964893E+05
  0.1226190E+01  0.8651423E+05  0.1412758E+05 -0.7466437E-04  0.1029968E-02 -0.2244864E+06 -0.3403596E+05
  0.1257143E+01  0.8684312E+05  0.1622043E+05  0.9224631E-03  0.1869202E-02 -0.2247383E+06 -0.3878561E+05
  0.1288095E+01  0.8731012E+05  0.1855451E+05 -0.2392894E-02 -0.1716614E-02 -0.2251669E+06 -0.4400982E+05
  0.1319048E+01  0.8753431E+05  0.2107158E+05  0.1850885E-03  0.9002686E-03 -0.2249696E+06 -0.4955696E+05
  0.1350000E+01  0.8770970E+05  0.2380557E+05 -0.1808449E-03  0.5340576E-03 -0.2246300E+06 -0.5550055E+05
  0.1380952E+01  0.8777707E+05  0.2674962E+05 -0.1193343E-02  0.9231567E-03 -0.2240872E+06 -0.6182102E+05
  0.1411905E+01  0.8746697E+05  0.2980353E+05 -0.8429645E-03 -0.3051758E-03 -0.2228754E+06 -0.6830691E+05
  0.1442857E+01  0.8714939E+05  0.3309082E+05  0.4018651E-03 -0.7171631E-03 -0.2214570E+06 -0.7514573E+05
  0.1473810E+01  0.8676409E+05  0.3656807E+05 -0.4762517E-03  0.1869202E-02 -0.2199587E+06 -0.8228730E+05
  0.1504762E+01  0.8613237E+05  0.4015325E+05 -0.2433680E-03  0.1052856E-02 -0.2178769E+06 -0.8949183E+05
  0.1535714E+01  0.8536817E+05  0.4385897E+05 -0.6359011E-03 -0.5035400E-03 -0.2155387E+06 -0.9680065E+05
  0.1566667E+01  0.8446920E+05  0.4762428E+05 -0.7791722E-03 -0.9918213E-04 -0.2128352E+06 -0.1040226E+06
  0.1597619E+01  0.8337929E+05  0.5141497E+05 -0.8595860E-03 -0.4959106E-03 -0.2098228E+06 -0.1111410E+06
  0.1628572E+01  0.8207513E+05  0.5516714E+05  0.1536587E-02  0.1861572E-02 -0.2063558E+06 -0.1179593E+06
  0.1659524E+01  0.8057534E+05  0.5884230E+05 -0.5332914E-03 -0.1052856E-02 -0.2025017E+06 -0.1244060E+06
  0.1690476E+01  0.7900899E+05  0.6249227E+05 -0.3068951E-03 -0.8697510E-03 -0.1986679E+06 -0.1306815E+06
  0.1721429E+01  0.7729597E+05  0.6599791E+05 -0.1311876E-02  0.1037598E-02 -0.1945784E+06 -0.1364619E+06
  0.1752381E+01  0.7541185E+05  0.6928163E+05 -0.2960537E-03 -0.8087158E-03 -0.1901693E+06 -0.1415403E+06
  0.1783333E+01  0.7348088E+05  0.7239274E+05  0.1403238E-02  0.5493164E-03 -0.1857806E+06 -0.1461307E+06
  0.1814286E+01  0.7152103E+05  0.7527092E+05 -0.3027728E-03  0.1449585E-02 -0.1813663E+06 -0.1500282E+06
  0.1845238E+01  0.6947238E+05  0.7786565E+05  0.4961568E-04  0.1678467E-03 -0.1769605E+06 -0.1532900E+06
  0.1876190E+01  0.6736831E+05  0.8013205E+05 -0.1301257E-03  0.6027222E-03 -0.1725099E+06 -0.1557116E+06
  0.1907143E+01  0.6519775E+05  0.8200848E+05  0.4000432E-03 -0.4577637E-04 -0.1679880E+06 -0.1571755E+06
  0.1938095E+01  0.6310043E+05  0.8368736E+05  0.6298468E-04  0.1296997E-03 -0.1638062E+06 -0.1583167E+06
  0.1969048E+01  0.6106289E+05  0.8510455E+05 -0.1968329E-02  0.1029968E-02 -0.1598483E+06 -0.1588992E+06
  0.2000000E+01  0.5899912E+05  0.8605852E+05  0.7324219E-03  0.4882812E-03 -0.1558872E+06 -0.1584052E+06
Zone t="Motion of body    1 in DoF   2",I=    64,F=POINT
  0.5000000E-01  0.1068115E-02 -0.2503395E-05  0.2122231E+05  0.2469332E+02 -0.8010864E-02 -0.2479553E-04
  0.8095238E-01 -0.2261891E-02  0.7033348E-05  0.2111768E+05  0.4085511E+02  0.3769818E-02  0.1645088E-04
  0.1119048E+00  0.2147593E-02  0.1096725E-04  0.2103505E+05  0.5831145E+02 -0.7976775E-02 -0.3099442E-05
  0.1428571E+00 -0.3311157E-02 -0.2813339E-04  0.2100594E+05  0.7768985E+02  0.9399414E-02  0.2956390E-04
  0.1738095E+00 -0.4718728E-03  0.3099442E-04  0.2095318E+05  0.9966007E+02  0.4477305E-02 -0.3576279E-04
  0.2047619E+00 -0.1825732E-02  0.3767014E-04  0.2094138E+05  0.1252527E+03  0.1020919E-01 -0.0000000E+00
  0.2357143E+00 -0.4855069E-04 -0.5722046E-05  0.2096947E+05  0.1556943E+03  0.9386467E-02 -0.1144409E-04
  0.2666667E+00 -0.3948212E-02 -0.5722046E-05  0.2094621E+05  0.1918893E+03  0.9498595E-02 -0.3814697E-05
  0.2976190E+00 -0.1589356E-02  0.9536743E-05  0.2099545E+05  0.2364507E+03 -0.4716797E-02 -0.2632141E-03
  0.3285715E+00  0.5108376E-03 -0.2431870E-03  0.2097125E+05  0.2901300E+03 -0.9752356E-02  0.3623962E-04
  0.3595238E+00 -0.3140683E-02  0.1907349E-04  0.2100852E+05  0.3558220E+03 -0.1612783E-02 -0.3814697E-04
  0.3904762E+00  0.5666221E-03 -0.1773834E-03  0.2098180E+05  0.4349691E+03  0.4220357E-02  0.1621246E-03
  0.4214286E+00 -0.3023309E-02 -0.2880096E-03  0.2097205E+05  0.5259036E+03 -0.2896583E-02  0.5722046E-04
  0.4523810E+00 -0.1416658E-02 -0.2441406E-03  0.2093221E+05  0.6337897E+03 -0.4249974E-02 -0.8239746E-03
  0.4833333E+00 -0.3156991E-03 -0.4959106E-04  0.2085655E+05  0.7461579E+03  0.5303744E-02 -0.9689331E-03
  0.5142857E+00 -0.3412035E-03  0.3814697E-04  0.2079994E+05  0.8698694E+03  0.3560384E-02 -0.7247925E-03
  0.5452381E+00 -0.6856460E-03 -0.2555847E-03  0.2065841E+05  0.9958682E+03  0.9627030E-02  0.5416870E-03
  0.5761905E+00 -0.1032806E-02 -0.5416870E-03  0.2055874E+05  0.1120183E+04  0.9533589E-03  0.1224518E-02
  0.6071429E+00  0.4021139E-03  0.1068115E-03  0.2041292E+05  0.1247685E+04  0.1809513E-02  0.1655579E-02
  0.6380953E+00 -0.1147825E-02 -0.3967285E-03  0.2024930E+05  0.1366097E+04 -0.9565211E-03  0.1487732E-02
  0.6690477E+00 -0.2793824E-02  0.4806519E-03  0.2013155E+05  0.1480169E+04  0.5564842E-02 -0.2464294E-02
  0.7000000E+00 -0.6539481E-03 -0.1502991E-02  0.1995930E+05  0.1589856E+04 -0.1055036E-01 -0.1403809E-02
  0.7309524E+00  0.1095949E-02  0.5493164E-03  0.1977685E+05  0.1689397E+04 -0.1670017E-03 -0.1739502E-02
  0.7619048E+00 -0.1512051E-02  0.4577637E-04  0.1963331E+05  0.1780267E+04  0.3204345E-03 -0.1113892E-02
  0.7928572E+00 -0.5773595E-04 -0.2593994E-03  0.1950356E+05  0.1861283E+04  0.2309438E-03 -0.2197266E-02
  0.8238096E+00 -0.2130056E-03  0.9994507E-03  0.1930272E+05  0.1929985E+04 -0.4074890E-02 -0.1403809E-02
  0.8547620E+00  0.1053239E-02  0.5493164E-03  0.1913969E+05  0.1987514E+04 -0.6426543E-02  0.1457214E-02
  0.8857143E+00  0.4393055E-03  0.1113892E-02  0.1901563E+05  0.2033784E+04  0.0000000E+00 -0.2517700E-02
  0.9166667E+00 -0.3995028E-03  0.2288818E-03  0.1890088E+05  0.2066302E+04  0.8123225E-02  0.5798340E-03
  0.9476191E+00 -0.1449201E-02  0.4577637E-03  0.1872629E+05  0.2081869E+04  0.4573036E-02 -0.3662109E-03
  0.9785714E+00  0.4911771E-03 -0.1098633E-02  0.1858494E+05  0.2086974E+04  0.1684036E-02 -0.3128052E-03
  0.1009524E+01  0.3022968E-04  0.8697510E-03  0.1848079E+05  0.2082615E+04  0.9008444E-02 -0.4653931E-03
  0.1040476E+01  0.4766189E-03 -0.1525879E-03  0.1842349E+05  0.2071456E+04 -0.1759824E-03 -0.1525879E-03
  0.1071429E+01 -0.3952027E-03 -0.1068115E-02  0.1829519E+05  0.2032999E+04  0.4329427E-02  0.8239746E-03
  0.1102381E+01 -0.2733729E-03  0.6713867E-03  0.1817786E+05  0.1985642E+04  0.3045166E-02 -0.4493713E-02
  0.1133333E+01 -0.2655702E-02  0.6103516E-04  0.1809087E+05  0.1933057E+04  0.7862764E-02 -0.2891541E-02
  0.1164286E+01  0.3014313E-03 -0.7476807E-03  0.1803767E+05  0.1878468E+04 -0.4822901E-02 -0.5187988E-03
  0.1195238E+01 -0.4172990E-03 -0.9613037E-03  0.1802290E+05  0.1826388E+04  0.2961786E-02  0.5310059E-02
  0.1226190E+01 -0.1428734E-02 -0.2014160E-02  0.1797070E+05  0.1746423E+04  0.5077177E-02 -0.2288818E-04
  0.1257143E+01 -0.2984161E-03  0.3356934E-03  0.1790220E+05  0.1651099E+04  0.3786954E-02  0.9994507E-03
  0.1288095E+01 -0.4146103E-03 -0.5340576E-03  0.1785531E+05  0.1557964E+04  0.7581447E-03  0.2159119E-02
  0.1319048E+01 -0.1019433E-02 -0.7019043E-03  0.1783104E+05  0.1470840E+04  0.3331594E-02 -0.2441406E-03
  0.1350000E+01  0.1426979E-03  0.7934570E-03  0.1783509E+05  0.1395044E+04  0.1718027E-02 -0.2593994E-02
  0.1380952E+01 -0.7154531E-03  0.7171631E-03  0.1786695E+05  0.1336541E+04  0.2386685E-02  0.1464844E-02
  0.1411905E+01 -0.4890275E-03 -0.2304077E-02  0.1786853E+05  0.1243822E+04  0.2420821E-02  0.1060486E-02
  0.1442857E+01 -0.3939336E-03 -0.7629395E-04  0.1784778E+05  0.1122542E+04  0.3637937E-02  0.1441956E-02
  0.1473810E+01 -0.6677877E-03 -0.1296997E-02  0.1783998E+05  0.1014607E+04  0.4803930E-02  0.1335144E-02
  0.1504762E+01 -0.7858759E-03  0.1068115E-03  0.1784956E+05  0.9226030E+03  0.2677048E-02 -0.1804352E-02
  0.1535714E+01 -0.7998444E-03 -0.8392334E-03  0.1787173E+05  0.8478004E+03  0.2543604E-02  0.2601624E-02
  0.1566667E+01 -0.1947930E-04 -0.7781982E-03  0.1790898E+05  0.7936566E+03 -0.7012550E-03  0.1682281E-02
  0.1597619E+01 -0.4727723E-03  0.4119873E-03  0.1795949E+05  0.7702365E+03  0.1528153E-03 -0.1457214E-02
  0.1628572E+01 -0.6699144E-03 -0.1434326E-02  0.1798806E+05  0.6950632E+03  0.2173708E-02  0.2708435E-03
  0.1659524E+01 -0.2620484E-03 -0.2746582E-03  0.1800166E+05  0.5817673E+03  0.7355743E-03  0.1296997E-03
  0.1690476E+01 -0.4693689E-03  0.6103516E-04  0.1801913E+05  0.4894323E+03  0.1444212E-02 -0.1100540E-02
  0.1721429E+01 -0.3279690E-03  0.3662109E-03  0.1804507E+05  0.4191038E+03  0.7091222E-04  0.9078979E-03
  0.1752381E+01  0.1828567E-03 -0.1251221E-02  0.1807303E+05  0.3627610E+03 -0.1671833E-02  0.2607346E-02
  0.1783333E+01 -0.2524118E-03 -0.1770020E-02  0.1810656E+05  0.3310011E+03 -0.6845064E-03  0.4127502E-02
  0.1814286E+01  0.1219502E-03 -0.5874634E-03  0.1814280E+05  0.3179604E+03 -0.5382628E-03 -0.9880066E-03
  0.1845238E+01 -0.5705802E-03 -0.1182556E-02  0.1817964E+05  0.3334749E+03  0.4696951E-02  0.1487732E-03
  0.1876190E+01 -0.2480522E-03 -0.3128052E-03  0.1821143E+05  0.3029405E+03 -0.5855658E-03  0.5550385E-03
  0.1907143E+01 -0.3960427E-03 -0.0000000E+00  0.1823832E+05  0.2189027E+03  0.2560276E-03 -0.7314682E-03
  0.1938095E+01  0.7085777E-04 -0.5950928E-03  0.1826413E+05  0.1642805E+03 -0.2015510E-02  0.1339912E-02
  0.1969048E+01  0.6703166E-03  0.7476807E-03  0.1828812E+05  0.1189184E+03 -0.2479784E-02 -0.4868507E-03
  0.2000000E+01 -0.6790161E-03  0.3585815E-03  0.1831284E+05  0.9157172E+02  0.9155273E-03 -0.6518364E-03
Zone t="Motion of body    1 in DoF   3",I=    64,F=POINT
  0.5000000E-01 -0.1939539E+06 -0.1141564E-01  0.6408691E-02  0.1179984E-04  0.6512373E+06  0.3183624E-01
  0.8095238E-01 -0.1958114E+06 -0.4999484E-01  0.7869496E-02  0.2906044E-04  0.6548170E+06  0.1387370E+00
  0.1119048E+00 -0.1961049E+06 -0.1394685E+00  0.6272336E-02 -0.3055378E-05  0.6552601E+06  0.3857463E+00
  0.1428571E+00 -0.1964522E+06 -0.3133056E+00 -0.7957458E-02 -0.6945524E-04  0.6558767E+06  0.8658993E+00
  0.1738095E+00 -0.1965613E+06 -0.6223385E+00 -0.1540720E-01 -0.1996243E-03  0.6561586E+06  0.1719424E+01
  0.2047619E+00 -0.1967738E+06 -0.1146232E+01  0.1065631E-01  0.1386413E-04  0.6565531E+06  0.3164146E+01
  0.2357143E+00 -0.1969709E+06 -0.2010909E+01 -0.6538160E-02 -0.1581367E-03  0.6569500E+06  0.5542858E+01
  0.2666667E+00 -0.1971698E+06 -0.3415315E+01 -0.1653671E-01 -0.5521234E-03  0.6574589E+06  0.9405632E+01
  0.2976190E+00 -0.1974535E+06 -0.5706284E+01  0.3127442E-02 -0.3494322E-04  0.6580499E+06  0.1569028E+02
  0.3285715E+00 -0.1976414E+06 -0.9392334E+01 -0.1439633E-01 -0.5866401E-03  0.6584168E+06  0.2577632E+02
  0.3595238E+00 -0.1980510E+06 -0.1534223E+02  0.1396331E-01  0.1315847E-03  0.6593076E+06  0.4202240E+02
  0.3904762E+00 -0.1983645E+06 -0.2485443E+02  0.2500952E-02 -0.1289099E-03  0.6600156E+06  0.6795245E+02
  0.4214286E+00 -0.1987655E+06 -0.3974725E+02  0.7929397E-02  0.4232079E-03  0.6607715E+06  0.1083818E+03
  0.4523810E+00 -0.1991424E+06 -0.6296430E+02  0.1150191E-01  0.1320660E-02  0.6617006E+06  0.1713209E+03
  0.4833333E+00 -0.1997578E+06 -0.9723278E+02 -0.1101790E-01 -0.1146436E-02  0.6631476E+06  0.2639306E+03
  0.5142857E+00 -0.2003493E+06 -0.1477462E+03 -0.7625157E-02 -0.8291006E-03  0.6643208E+06  0.3999016E+03
  0.5452381E+00 -0.2009556E+06 -0.2190143E+03 -0.3722079E-02 -0.3559589E-03  0.6656596E+06  0.5910553E+03
  0.5761905E+00 -0.2016880E+06 -0.3169742E+03  0.4237151E-03 -0.6370544E-03  0.6672116E+06  0.8526226E+03
  0.6071429E+00 -0.2024258E+06 -0.4500480E+03 -0.9047563E-02 -0.2656221E-02  0.6690145E+06  0.1207154E+04
  0.6380953E+00 -0.2032945E+06 -0.6248342E+03  0.1482608E-01  0.5848408E-03  0.6709194E+06  0.1670278E+04
  0.6690477E+00 -0.2042492E+06 -0.8528068E+03 -0.1318229E-01 -0.2753258E-02  0.6728749E+06  0.2270625E+04
  0.7000000E+00 -0.2050563E+06 -0.1145419E+04 -0.3574916E-02 -0.9145737E-03  0.6747101E+06  0.3038204E+04
  0.7309524E+00 -0.2061491E+06 -0.1514822E+04  0.2108397E-01  0.6831169E-02  0.6771308E+06  0.4002490E+04
  0.7619048E+00 -0.2073306E+06 -0.1976983E+04  0.7770537E-02 -0.8106232E-04  0.6797123E+06  0.5201886E+04
  0.7928572E+00 -0.2085324E+06 -0.2547809E+04  0.2097740E-01  0.6033897E-02  0.6823151E+06  0.6675366E+04
  0.8238096E+00 -0.2096598E+06 -0.3245112E+04  0.1389167E-01  0.4682541E-02  0.6847065E+06  0.8462926E+04
  0.8547620E+00 -0.2108355E+06 -0.4088808E+04 -0.3213271E-02 -0.2241135E-02  0.6871481E+06  0.1061059E+05
  0.8857143E+00 -0.2121730E+06 -0.5102628E+04  0.4444737E-02  0.1262665E-02  0.6898172E+06  0.1317221E+05
  0.9166667E+00 -0.2134781E+06 -0.6305090E+04  0.6958008E-02  0.3604889E-03  0.6925498E+06  0.1619340E+05
  0.9476191E+00 -0.2148080E+06 -0.7721510E+04 -0.1149700E-01 -0.6126404E-02  0.6953478E+06  0.1972896E+05
  0.9785714E+00 -0.2161852E+06 -0.9377265E+04  0.2245381E-02  0.2006531E-02  0.6980829E+06  0.2383053E+05
  0.1009524E+01 -0.2175040E+06 -0.1129676E+05 -0.3960088E-02 -0.6706238E-02  0.7005734E+06  0.2853486E+05
  0.1040476E+01 -0.2188643E+06 -0.1350702E+05  0.2170449E-02 -0.2548218E-02  0.7030133E+06  0.3390558E+05
  0.1071429E+01 -0.2199083E+06 -0.1602020E+05 -0.6750489E-02 -0.1113892E-02  0.7047182E+06  0.3995396E+05
  0.1102381E+01 -0.2211526E+06 -0.1888029E+05  0.1129480E-01  0.3036499E-02  0.7068497E+06  0.4678373E+05
  0.1133333E+01 -0.2221626E+06 -0.2209305E+05  0.3769818E-02  0.1388550E-02  0.7083902E+06  0.5437514E+05
  0.1164286E+01 -0.2231697E+06 -0.2569417E+05  0.1415416E-02  0.5844116E-02  0.7098514E+06  0.6279430E+05
  0.1195238E+01 -0.2241227E+06 -0.2969517E+05  0.9242814E-02  0.2555847E-02  0.7110007E+06  0.7205752E+05
  0.1226190E+01 -0.2247361E+06 -0.3408210E+05 -0.4678967E-02  0.1213074E-02  0.7114157E+06  0.8210220E+05
  0.1257143E+01 -0.2249765E+06 -0.3883127E+05 -0.1034130E-01 -0.9414673E-02  0.7110102E+06  0.9284382E+05
  0.1288095E+01 -0.2254105E+06 -0.4406054E+05 -0.5259628E-02 -0.3219604E-02  0.7106739E+06  0.1044984E+06
  0.1319048E+01 -0.2252270E+06 -0.4962259E+05  0.6940821E-02 -0.3112793E-02  0.7090332E+06  0.1166928E+06
  0.1350000E+01 -0.2248884E+06 -0.5558223E+05  0.2667462E-02 -0.7934570E-03  0.7069249E+06  0.1295740E+06
  0.1380952E+01 -0.2243386E+06 -0.6190783E+05 -0.6187702E-02 -0.4592896E-02  0.7043003E+06  0.1430529E+06
  0.1411905E+01 -0.2231236E+06 -0.6838605E+05 -0.5014558E-02 -0.4669189E-02  0.7004572E+06  0.1567000E+06
  0.1442857E+01 -0.2216904E+06 -0.7522867E+05 -0.9813970E-02 -0.6301880E-02  0.6960243E+06  0.1708040E+06
  0.1473810E+01 -0.2201931E+06 -0.8235759E+05 -0.5797847E-02 -0.4455566E-02  0.6913621E+06  0.1852735E+06
  0.1504762E+01 -0.2181094E+06 -0.8956013E+05 -0.3326030E-02 -0.1312256E-02  0.6855423E+06  0.1995584E+06
  0.1535714E+01 -0.2157778E+06 -0.9687248E+05 -0.5484647E-02 -0.2822876E-02  0.6792926E+06  0.2137572E+06
  0.1566667E+01 -0.2130586E+06 -0.1040958E+06 -0.9739652E-03 -0.5493164E-03  0.6720281E+06  0.2273039E+06
  0.1597619E+01 -0.2100398E+06 -0.1111988E+06  0.9398141E-02  0.4364014E-02  0.6643665E+06  0.2402723E+06
  0.1628572E+01 -0.2065623E+06 -0.1180101E+06  0.7270679E-02  0.7293701E-02  0.6558343E+06  0.2521917E+06
  0.1659524E+01 -0.2026873E+06 -0.1244549E+06  0.1471149E-02  0.9155273E-03  0.6466551E+06  0.2629816E+06
  0.1690476E+01 -0.1988658E+06 -0.1307139E+06  0.1769160E-02 -0.2105713E-02  0.6377483E+06  0.2731500E+06
  0.1721429E+01 -0.1947779E+06 -0.1364708E+06  0.7233046E-02  0.3967285E-03  0.6284438E+06  0.2819772E+06
  0.1752381E+01 -0.1903760E+06 -0.1415580E+06 -0.3065027E-02  0.2563477E-02  0.6187141E+06  0.2889621E+06
  0.1783333E+01 -0.1859906E+06 -0.1461498E+06 -0.8316753E-02 -0.1617432E-02  0.6093230E+06  0.2948207E+06
  0.1814286E+01 -0.1815605E+06 -0.1500251E+06  0.3700557E-02 -0.5187988E-02  0.5997501E+06  0.2987216E+06
  0.1845238E+01 -0.1771629E+06 -0.1532687E+06  0.3671560E-02  0.9613037E-03  0.5907078E+06  0.3013484E+06
  0.1876190E+01 -0.1727110E+06 -0.1556772E+06 -0.2179606E-02 -0.1373291E-02  0.5817540E+06  0.3020430E+06
  0.1907143E+01 -0.1681686E+06 -0.1571241E+06 -0.2848307E-02 -0.6866455E-03  0.5727904E+06  0.3005866E+06
  0.1938095E+01 -0.1640020E+06 -0.1582686E+06  0.3779081E-03  0.2700806E-02  0.5649235E+06  0.2988399E+06
  0.1969048E+01 -0.1600658E+06 -0.1588176E+06  0.8369271E-02 -0.2380371E-02  0.5574832E+06  0.2957459E+06
  0.2000000E+01 -0.1561066E+06 -0.1583229E+06 -0.3570557E-02 -0.6103516E-03  0.5503653E+06  0.2906568E+06
