VARIABLES="w (rad/s)"
"abs(F   1   1)" "angle(F   1   1)"
"abs(F   1   2)" "angle(F   1   2)"
"abs(F   1   3)" "angle(F   1   3)"
Zone t="Diffraction force - beta =   0.000 deg",I=    64,F=POINT
  0.5000000E-01  0.1023988E+05 -0.1570785E+01  0.4336482E+06 -0.2909813E-04  0.3733530E+05  0.1570802E+01
  0.8095238E-01  0.1670888E+05 -0.1570798E+01  0.4317802E+06 -0.7809726E-04  0.6087638E+05  0.1570802E+01
  0.1119048E+00  0.2329265E+05 -0.1570780E+01  0.4290408E+06 -0.1545240E-03  0.8481571E+05  0.1570805E+01
  0.1428571E+00  0.3009497E+05 -0.1570777E+01  0.4254313E+06 -0.2638152E-03  0.1094511E+06  0.1570820E+01
  0.1738095E+00  0.3713670E+05 -0.1570762E+01  0.4209649E+06 -0.4135955E-03  0.1349852E+06  0.1570831E+01
  0.2047619E+00  0.4452605E+05 -0.1570742E+01  0.4156469E+06 -0.6159703E-03  0.1616295E+06  0.1570851E+01
  0.2357143E+00  0.5235651E+05 -0.1570713E+01  0.4094793E+06 -0.8874155E-03  0.1898025E+06  0.1570877E+01
  0.2666667E+00  0.6069744E+05 -0.1570672E+01  0.4025118E+06 -0.1246655E-02  0.2196926E+06  0.1570920E+01
  0.2976190E+00  0.6971834E+05 -0.1570611E+01  0.3947248E+06 -0.1730117E-02  0.2518477E+06  0.1570981E+01
  0.3285715E+00  0.7947814E+05 -0.1570519E+01  0.3862079E+06 -0.2366784E-02  0.2865838E+06  0.1571073E+01
  0.3595238E+00  0.9019863E+05 -0.1570386E+01  0.3769362E+06 -0.3213020E-02  0.3245637E+06  0.1571208E+01
  0.3904762E+00  0.1019125E+06 -0.1570184E+01  0.3670702E+06 -0.4321274E-02  0.3657906E+06  0.1571409E+01
  0.4214286E+00  0.1148548E+06 -0.1569893E+01  0.3565858E+06 -0.5718549E-02  0.4110830E+06  0.1571699E+01
  0.4523810E+00  0.1288966E+06 -0.1569468E+01  0.3456498E+06 -0.7525689E-02  0.4602258E+06  0.1572125E+01
  0.4833333E+00  0.1442321E+06 -0.1568885E+01  0.3343053E+06 -0.9636707E-02  0.5132711E+06  0.1572707E+01
  0.5142857E+00  0.1606939E+06 -0.1568078E+01  0.3226250E+06 -0.1220730E-01  0.5698431E+06  0.1573514E+01
  0.5452381E+00  0.1781803E+06 -0.1567013E+01  0.3107498E+06 -0.1516240E-01  0.6297031E+06  0.1574580E+01
  0.5761905E+00  0.1966519E+06 -0.1565640E+01  0.2985880E+06 -0.1848803E-01  0.6926492E+06  0.1575952E+01
  0.6071429E+00  0.2158237E+06 -0.1563879E+01  0.2864285E+06 -0.2232517E-01  0.7571068E+06  0.1577713E+01
  0.6380953E+00  0.2357901E+06 -0.1561702E+01  0.2741430E+06 -0.2649257E-01  0.8234302E+06  0.1579889E+01
  0.6690477E+00  0.2564361E+06 -0.1559024E+01  0.2617070E+06 -0.3114085E-01  0.8915216E+06  0.1582568E+01
  0.7000000E+00  0.2773537E+06 -0.1555757E+01  0.2494938E+06 -0.3630252E-01  0.9598085E+06  0.1585835E+01
  0.7309524E+00  0.2987672E+06 -0.1551853E+01  0.2372883E+06 -0.4192000E-01  0.1029229E+07  0.1589739E+01
  0.7619048E+00  0.3208047E+06 -0.1547227E+01  0.2250931E+06 -0.4809370E-01  0.1099219E+07  0.1594364E+01
  0.7928572E+00  0.3428268E+06 -0.1541792E+01  0.2131268E+06 -0.5478601E-01  0.1167890E+07  0.1599799E+01
  0.8238096E+00  0.3651791E+06 -0.1535462E+01  0.2014508E+06 -0.6205868E-01  0.1237062E+07  0.1606129E+01
  0.8547620E+00  0.3874003E+06 -0.1528178E+01  0.1899335E+06 -0.6994545E-01  0.1304146E+07  0.1613412E+01
  0.8857143E+00  0.4098324E+06 -0.1519856E+01  0.1785915E+06 -0.7857252E-01  0.1371276E+07  0.1621734E+01
  0.9166667E+00  0.4316342E+06 -0.1510453E+01  0.1676475E+06 -0.8767533E-01  0.1435116E+07  0.1631136E+01
  0.9476191E+00  0.4533675E+06 -0.1499945E+01  0.1571244E+06 -0.9745368E-01  0.1497290E+07  0.1641640E+01
  0.9785714E+00  0.4744858E+06 -0.1488307E+01  0.1469030E+06 -0.1079905E+00  0.1555252E+07  0.1653274E+01
  0.1009524E+01  0.4952582E+06 -0.1475503E+01  0.1369765E+06 -0.1194504E+00  0.1610773E+07  0.1666072E+01
  0.1040476E+01  0.5147662E+06 -0.1461538E+01  0.1273776E+06 -0.1318465E+00  0.1661339E+07  0.1680035E+01
  0.1071429E+01  0.5328480E+06 -0.1446475E+01  0.1184161E+06 -0.1442902E+00  0.1705479E+07  0.1695088E+01
  0.1102381E+01  0.5499032E+06 -0.1430313E+01  0.1098309E+06 -0.1577504E+00  0.1745989E+07  0.1711255E+01
  0.1133333E+01  0.5650482E+06 -0.1413270E+01  0.1016070E+06 -0.1722737E+00  0.1778495E+07  0.1728294E+01
  0.1164286E+01  0.5787886E+06 -0.1395478E+01  0.9375433E+05 -0.1880185E+00  0.1805752E+07  0.1746073E+01
  0.1195238E+01  0.5902608E+06 -0.1377203E+01  0.8625862E+05 -0.2052381E+00  0.1824696E+07  0.1764338E+01
  0.1226190E+01  0.5992364E+06 -0.1358684E+01  0.7934902E+05 -0.2216817E+00  0.1833928E+07  0.1782802E+01
  0.1257143E+01  0.6060249E+06 -0.1339883E+01  0.7288041E+05 -0.2392873E+00  0.1836726E+07  0.1801611E+01
  0.1288095E+01  0.6105823E+06 -0.1321366E+01  0.6676289E+05 -0.2578995E+00  0.1831377E+07  0.1820104E+01
  0.1319048E+01  0.6125364E+06 -0.1303252E+01  0.6101307E+05 -0.2780314E+00  0.1817557E+07  0.1838189E+01
  0.1350000E+01  0.6124296E+06 -0.1285843E+01  0.5563178E+05 -0.2996045E+00  0.1797669E+07  0.1855573E+01
  0.1380952E+01  0.6096711E+06 -0.1269580E+01  0.5057901E+05 -0.3231004E+00  0.1769511E+07  0.1871817E+01
  0.1411905E+01  0.6034215E+06 -0.1255255E+01  0.4595409E+05 -0.3448754E+00  0.1731482E+07  0.1885987E+01
  0.1442857E+01  0.5962698E+06 -0.1241809E+01  0.4170650E+05 -0.3675329E+00  0.1690646E+07  0.1899442E+01
  0.1473810E+01  0.5872888E+06 -0.1230036E+01  0.3777359E+05 -0.3913964E+00  0.1645102E+07  0.1911219E+01
  0.1504762E+01  0.5764725E+06 -0.1220451E+01  0.3411153E+05 -0.4172917E+00  0.1593790E+07  0.1920667E+01
  0.1535714E+01  0.5645983E+06 -0.1212882E+01  0.3074736E+05 -0.4442185E+00  0.1540491E+07  0.1928122E+01
  0.1566667E+01  0.5516410E+06 -0.1207343E+01  0.2765904E+05 -0.4727206E+00  0.1485557E+07  0.1933699E+01
  0.1597619E+01  0.5373582E+06 -0.1204333E+01  0.2481163E+05 -0.5037776E+00  0.1427447E+07  0.1936645E+01
  0.1628572E+01  0.5221582E+06 -0.1203916E+01  0.2220101E+05 -0.5344115E+00  0.1367238E+07  0.1936729E+01
  0.1659524E+01  0.5066324E+06 -0.1205624E+01  0.1985695E+05 -0.5635177E+00  0.1307787E+07  0.1934985E+01
  0.1690476E+01  0.4909537E+06 -0.1209461E+01  0.1772847E+05 -0.5925550E+00  0.1249502E+07  0.1931368E+01
  0.1721429E+01  0.4748854E+06 -0.1216155E+01  0.1577017E+05 -0.6259842E+00  0.1190162E+07  0.1924319E+01
  0.1752381E+01  0.4589273E+06 -0.1225007E+01  0.1399042E+05 -0.6624082E+00  0.1132437E+07  0.1915250E+01
  0.1783333E+01  0.4431853E+06 -0.1235880E+01  0.1238860E+05 -0.6982374E+00  0.1076843E+07  0.1904327E+01
  0.1814286E+01  0.4275337E+06 -0.1248931E+01  0.1094558E+05 -0.7358174E+00  0.1022725E+07  0.1891441E+01
  0.1845238E+01  0.4119994E+06 -0.1264361E+01  0.9643077E+04 -0.7778409E+00  0.9698307E+06  0.1875970E+01
  0.1876190E+01  0.3967201E+06 -0.1282154E+01  0.8469455E+04 -0.8237777E+00  0.9184309E+06  0.1857747E+01
  0.1907143E+01  0.3818783E+06 -0.1301753E+01  0.7417125E+04 -0.8657591E+00  0.8694156E+06  0.1838053E+01
  0.1938095E+01  0.3674857E+06 -0.1323040E+01  0.6471852E+04 -0.9051995E+00  0.8227893E+06  0.1817089E+01
  0.1969048E+01  0.3535244E+06 -0.1346339E+01  0.5632946E+04 -0.9511750E+00  0.7781149E+06  0.1793854E+01
  0.2000000E+01  0.3400175E+06 -0.1371568E+01  0.4894149E+04 -0.1011398E+01  0.7353819E+06  0.1768425E+01
