VARIABLES="w (rad/s)"
"A   1   1" "B   1   1"
"A   1   2" "B   1   2"
"A   1   3" "B   1   3"
Zone t="Motion of body    1 in DoF   1",I=    64,F=POINT
  0.5000000E-01  0.8173384E+05  0.6154303E-02 -0.1716614E-02 -0.7191935E-05 -0.1696805E+06 -0.1243246E-01
  0.8095238E-01  0.8248356E+05  0.2720620E-01  0.1460805E-02  0.4113477E-05 -0.1712789E+06 -0.5513928E-01
  0.1119048E+00  0.8275747E+05  0.7651936E-01  0.8147219E-02  0.5687051E-04 -0.1718575E+06 -0.1549635E+00
  0.1428571E+00  0.8284061E+05  0.1720838E+00  0.3978729E-02  0.2333883E-04 -0.1720339E+06 -0.3484171E+00
  0.1738095E+00  0.8294814E+05  0.3422337E+00  0.9656932E-03  0.4404923E-05 -0.1721668E+06 -0.6925439E+00
  0.2047619E+00  0.8315949E+05  0.6315530E+00  0.3725983E-03 -0.2139201E-04 -0.1724345E+06 -0.1276956E+01
  0.2357143E+00  0.8325666E+05  0.1111095E+01  0.1488888E-02  0.1988374E-04 -0.1727149E+06 -0.2245887E+01
  0.2666667E+00  0.8343692E+05  0.1894929E+01  0.3147125E-03 -0.2219342E-04 -0.1729825E+06 -0.3827369E+01
  0.2976190E+00  0.8372165E+05  0.3178794E+01 -0.7690430E-03 -0.4358217E-04 -0.1733940E+06 -0.6413966E+01
  0.3285715E+00  0.8387039E+05  0.5254928E+01  0.2786387E-03 -0.5889311E-04 -0.1737413E+06 -0.1059677E+02
  0.3595238E+00  0.8419634E+05  0.8628156E+01  0.1358133E-02 -0.6350875E-04 -0.1741632E+06 -0.1737487E+02
  0.3904762E+00  0.8443233E+05  0.1405344E+02 -0.4142202E-02 -0.1745671E-03 -0.1745666E+06 -0.2826974E+02
  0.4214286E+00  0.8471512E+05  0.2259493E+02 -0.2425889E-02 -0.2415925E-03 -0.1751582E+06 -0.4541144E+02
  0.4523810E+00  0.8518407E+05  0.3604196E+02 -0.1011899E-02 -0.4222989E-04 -0.1759575E+06 -0.7234099E+02
  0.4833333E+00  0.8555534E+05  0.5603504E+02 -0.2620302E-02 -0.8319616E-03 -0.1765449E+06 -0.1122988E+03
  0.5142857E+00  0.8609045E+05  0.8576369E+02 -0.1424154E-02  0.6592274E-04 -0.1774551E+06 -0.1716125E+03
  0.5452381E+00  0.8646512E+05  0.1280146E+03 -0.3078411E-02 -0.6395578E-03 -0.1782558E+06 -0.2558793E+03
  0.5761905E+00  0.8701630E+05  0.1867243E+03 -0.3707507E-02 -0.5419254E-03 -0.1790843E+06 -0.3724690E+03
  0.6071429E+00  0.8776019E+05  0.2676340E+03  0.3367704E-02  0.1776218E-03 -0.1803894E+06 -0.5328960E+03
  0.6380953E+00  0.8832477E+05  0.3747542E+03  0.6552170E-02  0.1509905E-02 -0.1813922E+06 -0.7448341E+03
  0.6690477E+00  0.8896626E+05  0.5158652E+03 -0.2326286E-02 -0.2622604E-03 -0.1824833E+06 -0.1023234E+04
  0.7000000E+00  0.8979008E+05  0.7000073E+03  0.2572196E-02  0.1443386E-02 -0.1840825E+06 -0.1386136E+04
  0.7309524E+00  0.9055516E+05  0.9348769E+03 -0.8350086E-03 -0.1618385E-02 -0.1853240E+06 -0.1846655E+04
  0.7619048E+00  0.9142257E+05  0.1232729E+04  0.2523422E-02  0.9012222E-03 -0.1867192E+06 -0.2428568E+04
  0.7928572E+00  0.9245899E+05  0.1607093E+04 -0.5273217E-02 -0.3094673E-02 -0.1885300E+06 -0.3158261E+04
  0.8238096E+00  0.9335838E+05  0.2069923E+04  0.2222667E-03  0.7095337E-03 -0.1900872E+06 -0.4057644E+04
  0.8547620E+00  0.9431970E+05  0.2638225E+04  0.5783888E-02  0.8106232E-03 -0.1919888E+06 -0.5161366E+04
  0.8857143E+00  0.9534290E+05  0.3329380E+04  0.5995227E-02  0.3507614E-02 -0.1935822E+06 -0.6492384E+04
  0.9166667E+00  0.9659900E+05  0.4167317E+04  0.1831055E-02 -0.1808167E-02 -0.1957147E+06 -0.8101388E+04
  0.9476191E+00  0.9772035E+05  0.5167083E+04 -0.6923963E-02 -0.5756378E-02 -0.1975136E+06 -0.1001159E+05
  0.9785714E+00  0.9886135E+05  0.6355060E+04 -0.4054160E-02 -0.2075195E-02 -0.1994415E+06 -0.1227438E+05
  0.1009524E+01  0.9999005E+05  0.7754126E+04  0.2720671E-03 -0.2021790E-02 -0.2012458E+06 -0.1492439E+05
  0.1040476E+01  0.1012212E+06  0.9394712E+04 -0.6452687E-03 -0.2571106E-02 -0.2032278E+06 -0.1801740E+05
  0.1071429E+01  0.1023842E+06  0.1129759E+05 -0.1765951E-02 -0.2403259E-02 -0.2052944E+06 -0.2160097E+05
  0.1102381E+01  0.1034094E+06  0.1347674E+05 -0.4540066E-02 -0.3227234E-02 -0.2068410E+06 -0.2566690E+05
  0.1133333E+01  0.1044678E+06  0.1597076E+05  0.4846909E-03 -0.2899170E-02 -0.2084876E+06 -0.3029738E+05
  0.1164286E+01  0.1054173E+06  0.1879319E+05  0.4193826E-03 -0.2899170E-03 -0.2097123E+06 -0.3548948E+05
  0.1195238E+01  0.1063354E+06  0.2197531E+05 -0.1378762E-02 -0.2014160E-02 -0.2108485E+06 -0.4130470E+05
  0.1226190E+01  0.1071535E+06  0.2553439E+05  0.9955249E-04 -0.2105713E-02 -0.2119518E+06 -0.4778827E+05
  0.1257143E+01  0.1075484E+06  0.2943042E+05  0.4515214E-02  0.2182007E-02 -0.2122274E+06 -0.5483197E+05
  0.1288095E+01  0.1079216E+06  0.3373846E+05  0.2416586E-02  0.4577637E-02 -0.2123595E+06 -0.6254914E+05
  0.1319048E+01  0.1080267E+06  0.3841014E+05  0.2313607E-03  0.6103516E-03 -0.2122108E+06 -0.7089804E+05
  0.1350000E+01  0.1077607E+06  0.4339466E+05  0.1627604E-02  0.1647949E-02 -0.2111645E+06 -0.7968629E+05
  0.1380952E+01  0.1073572E+06  0.4870829E+05 -0.2209894E-03 -0.3295898E-02 -0.2098597E+06 -0.8896441E+05
  0.1411905E+01  0.1064135E+06  0.5413378E+05  0.1253639E-02 -0.8850098E-03 -0.2078461E+06 -0.9840831E+05
  0.1442857E+01  0.1053512E+06  0.5988673E+05  0.1607461E-02 -0.3051758E-02 -0.2053729E+06 -0.1082592E+06
  0.1473810E+01  0.1038521E+06  0.6573691E+05  0.5383714E-03 -0.7629395E-03 -0.2019923E+06 -0.1180882E+06
  0.1504762E+01  0.1021083E+06  0.7171259E+05  0.4867360E-03 -0.6744385E-02 -0.1984224E+06 -0.1280981E+06
  0.1535714E+01  0.1000234E+06  0.7766412E+05  0.7551326E-03  0.1525879E-03 -0.1942143E+06 -0.1378937E+06
  0.1566667E+01  0.9759998E+05  0.8348802E+05  0.3311482E-02  0.1434326E-02 -0.1893060E+06 -0.1472371E+06
  0.1597619E+01  0.9503395E+05  0.8918281E+05 -0.7640765E-04  0.1525879E-02 -0.1842522E+06 -0.1562220E+06
  0.1628572E+01  0.9227247E+05  0.9465409E+05 -0.1574064E-02 -0.2716064E-02 -0.1790030E+06 -0.1647269E+06
  0.1659524E+01  0.8921340E+05  0.9973902E+05 -0.5149020E-03  0.1800537E-02 -0.1732533E+06 -0.1723942E+06
  0.1690476E+01  0.8590341E+05  0.1043322E+06  0.3610530E-03  0.7629395E-03 -0.1670132E+06 -0.1789419E+06
  0.1721429E+01  0.8251509E+05  0.1085411E+06  0.6382100E-03 -0.8239746E-03 -0.1608329E+06 -0.1847899E+06
  0.1752381E+01  0.7910959E+05  0.1123450E+06  0.1114555E-02 -0.3631592E-02 -0.1548301E+06 -0.1899550E+06
  0.1783333E+01  0.7560316E+05  0.1154823E+06  0.1197886E-03  0.1434326E-02 -0.1485109E+06 -0.1936202E+06
  0.1814286E+01  0.7218240E+05  0.1181263E+06 -0.1009243E-02  0.2716064E-02 -0.1423963E+06 -0.1963120E+06
  0.1845238E+01  0.6888265E+05  0.1203598E+06  0.1339623E-02  0.1159668E-02 -0.1366725E+06 -0.1983447E+06
  0.1876190E+01  0.6569282E+05  0.1221462E+06  0.1496446E-02 -0.2319336E-02 -0.1313180E+06 -0.1997224E+06
  0.1907143E+01  0.6251601E+05  0.1233113E+06  0.8800950E-03 -0.9460449E-03 -0.1260197E+06 -0.1999573E+06
  0.1938095E+01  0.5945086E+05  0.1239300E+06  0.2818565E-02  0.4577637E-03 -0.1209202E+06 -0.1991003E+06
  0.1969048E+01  0.5653461E+05  0.1240882E+06  0.2154312E-02 -0.2655029E-02 -0.1161441E+06 -0.1974235E+06
  0.2000000E+01  0.5381856E+05  0.1239548E+06  0.6408691E-03  0.3753662E-02 -0.1118812E+06 -0.1954850E+06
Zone t="Motion of body    1 in DoF   2",I=    64,F=POINT
  0.5000000E-01  0.1449585E-02  0.4529953E-05  0.4565666E+05  0.6646409E+02  0.3051758E-03  0.2336502E-04
  0.8095238E-01 -0.1602173E-02  0.1621246E-04  0.4538204E+05  0.1100258E+03  0.1375984E-01  0.5292892E-04
  0.1119048E+00 -0.5624649E-02  0.7629395E-05  0.4516079E+05  0.1571766E+03  0.1690804E-01 -0.8106232E-04
  0.1428571E+00  0.2990722E-02 -0.4386902E-04  0.4506723E+05  0.2096426E+03  0.8544922E-02  0.1239777E-03
  0.1738095E+00 -0.3731087E-02  0.3623962E-04  0.4504171E+05  0.2693408E+03  0.2001619E-01 -0.6103516E-04
  0.2047619E+00  0.2384629E-02  0.9632111E-04  0.4495802E+05  0.3390740E+03 -0.2682708E-02 -0.1277924E-03
  0.2357143E+00 -0.3463282E-02  0.6675720E-04  0.4501940E+05  0.4223087E+03  0.1268791E-01 -0.1144409E-04
  0.2666667E+00  0.3061294E-02  0.1220703E-03  0.4501451E+05  0.5217599E+03  0.1373291E-02 -0.1144409E-03
  0.2976190E+00 -0.4614258E-03  0.9918213E-04  0.4509413E+05  0.6445380E+03 -0.8203125E-03 -0.2288818E-03
  0.3285715E+00  0.1021675E-02 -0.2670288E-04  0.4511359E+05  0.7932375E+03  0.1095979E-01 -0.2174377E-03
  0.3595238E+00 -0.9761582E-03  0.1907349E-04  0.4521171E+05  0.9758432E+03  0.3734866E-02  0.9155273E-04
  0.3904762E+00  0.8597024E-03 -0.4959106E-04  0.4516633E+05  0.1197157E+04 -0.7190239E-02 -0.1907349E-03
  0.4214286E+00 -0.5105228E-02 -0.2288818E-04  0.4525312E+05  0.1452783E+04  0.1535189E-01 -0.1907349E-03
  0.4523810E+00 -0.1214278E-02 -0.1754761E-03  0.4505991E+05  0.1757713E+04  0.9714226E-02 -0.2288818E-03
  0.4833333E+00  0.2083614E-02  0.1144409E-03  0.4496666E+05  0.2078341E+04  0.8839574E-02 -0.5340576E-03
  0.5142857E+00 -0.2788968E-02  0.3051758E-04  0.4471547E+05  0.2433957E+04  0.8307563E-02 -0.1007080E-02
  0.5452381E+00  0.6716533E-03  0.2593994E-03  0.4441427E+05  0.2799787E+04  0.4477689E-02 -0.2899170E-03
  0.5761905E+00  0.1800789E-02 -0.8392334E-03  0.4422229E+05  0.3164425E+04  0.1271145E-01  0.4272461E-03
  0.6071429E+00  0.1357135E-02 -0.1983643E-03  0.4372914E+05  0.3544949E+04  0.1809513E-01 -0.5493164E-03
  0.6380953E+00  0.1769564E-02 -0.1525879E-04  0.4336435E+05  0.3903527E+04  0.1339130E-02 -0.1403809E-02
  0.6690477E+00  0.0000000E+00 -0.4119873E-03  0.4305113E+05  0.4252246E+04  0.6020977E-02 -0.8544922E-03
  0.7000000E+00 -0.1482282E-02 -0.5798340E-03  0.4250657E+05  0.4599185E+04  0.1011440E-01  0.1770020E-02
  0.7309524E+00 -0.1002010E-02 -0.3356934E-03  0.4206770E+05  0.4920175E+04  0.9352096E-02 -0.7019043E-03
  0.7619048E+00  0.1762390E-02  0.1708984E-02  0.4176263E+05  0.5217753E+04 -0.1441955E-02 -0.4241943E-02
  0.7928572E+00  0.2386419E-02 -0.2044678E-02  0.4120502E+05  0.5496157E+04  0.2155476E-02 -0.1678467E-02
  0.8238096E+00 -0.3741490E-02  0.1373291E-02  0.4069764E+05  0.5746801E+04  0.1452143E-01 -0.1312256E-02
  0.8547620E+00  0.5712482E-03 -0.1220703E-02  0.4030016E+05  0.5968146E+04  0.6283730E-02  0.6134033E-02
  0.8857143E+00 -0.1205937E-02  0.9765625E-03  0.3998208E+05  0.6151496E+04  0.3583354E-02  0.1525879E-02
  0.9166667E+00 -0.2596768E-02 -0.1342773E-02  0.3945025E+05  0.6304195E+04  0.1225142E-01 -0.2166748E-02
  0.9476191E+00  0.1610224E-02  0.6103516E-03  0.3898851E+05  0.6421161E+04  0.1545815E-02 -0.7324219E-02
  0.9785714E+00 -0.4054160E-03  0.1831055E-03  0.3862073E+05  0.6508086E+04  0.2993841E-02 -0.5767822E-02
  0.1009524E+01  0.6952826E-03 -0.1495361E-02  0.3836437E+05  0.6557035E+04 -0.2176537E-02 -0.3723145E-02
  0.1040476E+01 -0.3959603E-03  0.1953125E-02  0.3797674E+05  0.6558415E+04  0.6335365E-02 -0.3967285E-02
  0.1071429E+01 -0.1424154E-02 -0.2685547E-02  0.3758033E+05  0.6531115E+04  0.8430989E-02  0.5859375E-02
  0.1102381E+01  0.1494900E-02 -0.3295898E-02  0.3724366E+05  0.6467576E+04  0.5536666E-02  0.5187988E-02
  0.1133333E+01 -0.9828456E-03 -0.3662109E-03  0.3701230E+05  0.6391481E+04  0.5385455E-02 -0.1647949E-02
  0.1164286E+01 -0.1428522E-02  0.3417969E-02  0.3687844E+05  0.6288864E+04  0.9016727E-02 -0.5157471E-02
  0.1195238E+01 -0.7276801E-03  0.2075195E-02  0.3665386E+05  0.6131406E+04  0.1103010E-01 -0.9643555E-02
  0.1226190E+01 -0.2239931E-03 -0.2136230E-02  0.3637421E+05  0.5944961E+04  0.6570464E-02  0.6256104E-02
  0.1257143E+01 -0.4915757E-03  0.1525879E-02  0.3616294E+05  0.5741635E+04  0.1068115E-01  0.1464844E-02
  0.1288095E+01 -0.2652026E-02 -0.2441406E-03  0.3601728E+05  0.5531477E+04  0.6254693E-02 -0.3967285E-03
  0.1319048E+01 -0.2631728E-02  0.1831055E-02  0.3596082E+05  0.5337000E+04  0.1017987E-01  0.6713867E-03
  0.1350000E+01  0.7177282E-03  0.1647949E-02  0.3598482E+05  0.5141079E+04  0.7595486E-02  0.6103516E-04
  0.1380952E+01 -0.1627034E-02 -0.1892090E-02  0.3588587E+05  0.4860065E+04  0.1255220E-01  0.3967285E-02
  0.1411905E+01 -0.1848037E-02  0.6103516E-03  0.3575494E+05  0.4565947E+04  0.9337452E-02 -0.1037598E-02
  0.1442857E+01  0.8989088E-04 -0.2441406E-02  0.3568747E+05  0.4282182E+04  0.7275874E-02  0.1342773E-02
  0.1473810E+01  0.1345929E-02 -0.4882812E-03  0.3565170E+05  0.3998161E+04  0.4472625E-02 -0.2136230E-03
  0.1504762E+01  0.5577184E-03  0.2807617E-02  0.3568417E+05  0.3776860E+04  0.4380624E-02 -0.1281738E-02
  0.1535714E+01 -0.7253247E-03  0.5065918E-02  0.3576553E+05  0.3584692E+04  0.1208212E-01 -0.4028320E-02
  0.1566667E+01 -0.1022663E-02  0.5004883E-02  0.3589795E+05  0.3426637E+04  0.9194232E-02 -0.5828857E-02
  0.1597619E+01 -0.6399141E-03  0.2075195E-02  0.3587949E+05  0.3087330E+04  0.6876688E-02 -0.1770020E-02
  0.1628572E+01 -0.1124332E-02  0.6134033E-02  0.3587466E+05  0.2778784E+04  0.9744208E-02 -0.9033203E-02
  0.1659524E+01  0.2114776E-03  0.2197266E-02  0.3590966E+05  0.2513670E+04  0.6473054E-02 -0.3555298E-02
  0.1690476E+01 -0.1985792E-02  0.3631592E-02  0.3596026E+05  0.2255282E+04  0.1473096E-01 -0.5416870E-02
  0.1721429E+01 -0.1825990E-02  0.4333496E-02  0.3603382E+05  0.2067559E+04  0.1418244E-01 -0.6973267E-02
  0.1752381E+01 -0.2490334E-02  0.1617432E-02  0.3613214E+05  0.1939015E+04  0.1212079E-01 -0.4745483E-02
  0.1783333E+01 -0.1967956E-02 -0.3967285E-03  0.3625021E+05  0.1848824E+04  0.1081520E-01  0.8239746E-03
  0.1814286E+01 -0.1160629E-02  0.3021240E-02  0.3638118E+05  0.1791955E+04  0.8073943E-02 -0.5661011E-02
  0.1845238E+01 -0.1157699E-02  0.3021240E-02  0.3642950E+05  0.1494227E+04  0.4763105E-02 -0.3982544E-02
  0.1876190E+01  0.1951886E-03  0.2990723E-02  0.3648427E+05  0.1259066E+04  0.6506286E-02 -0.2983093E-02
  0.1907143E+01 -0.6400691E-04  0.4180908E-02  0.3655830E+05  0.1091696E+04  0.6912746E-02 -0.9094238E-02
  0.1938095E+01 -0.8502932E-03  0.4272461E-03  0.3663631E+05  0.9321566E+03  0.9825611E-02 -0.8316040E-03
  0.1969048E+01 -0.2402291E-02  0.4455566E-02  0.3671214E+05  0.8037493E+03  0.1711051E-01 -0.7080078E-02
  0.2000000E+01  0.5950928E-03  0.2563477E-02  0.3679055E+05  0.7490665E+03  0.7324219E-02 -0.4734039E-02
Zone t="Motion of body    1 in DoF   3",I=    64,F=POINT
  0.5000000E-01 -0.1702028E+06 -0.1247210E-01  0.1168728E-01  0.9285915E-04  0.4408575E+06  0.2523449E-01
  0.8095238E-01 -0.1717594E+06 -0.5533939E-01  0.2825008E-01  0.1310477E-03  0.4442579E+06  0.1122043E+00
  0.1119048E+00 -0.1723726E+06 -0.1555195E+00 -0.1171802E-01 -0.5744665E-04  0.4452329E+06  0.3149840E+00
  0.1428571E+00 -0.1725443E+06 -0.3494918E+00  0.3110885E-02  0.1105580E-03  0.4456129E+06  0.7074697E+00
  0.1738095E+00 -0.1726708E+06 -0.6948037E+00  0.6200189E-02  0.9481190E-04  0.4458316E+06  0.1405918E+01
  0.2047619E+00 -0.1729645E+06 -0.1281539E+01  0.2245604E-01  0.7287851E-03  0.4461524E+06  0.2591328E+01
  0.2357143E+00 -0.1732165E+06 -0.2253110E+01 -0.2200762E-01 -0.2317391E-03  0.4467129E+06  0.4554552E+01
  0.2666667E+00 -0.1735070E+06 -0.3840087E+01 -0.2966523E-02  0.7845089E-04  0.4471967E+06  0.7756927E+01
  0.2976190E+00 -0.1739125E+06 -0.6436966E+01  0.1395012E-01  0.1006953E-02  0.4478256E+06  0.1298891E+02
  0.3285715E+00 -0.1742702E+06 -0.1063126E+02 -0.1112088E-01 -0.7475913E-04  0.4485661E+06  0.2143904E+02
  0.3595238E+00 -0.1746675E+06 -0.1743817E+02  0.2519974E-01  0.1361594E-02  0.4491204E+06  0.3511520E+02
  0.3904762E+00 -0.1751012E+06 -0.2837206E+02  0.2717710E-01  0.1481026E-02  0.4497816E+06  0.5707195E+02
  0.4214286E+00 -0.1756594E+06 -0.4555976E+02 -0.1092102E-01 -0.3344715E-03  0.4511000E+06  0.9156516E+02
  0.4523810E+00 -0.1764946E+06 -0.7258453E+02  0.5968621E-02  0.5471706E-03  0.4523323E+06  0.1456857E+03
  0.4833333E+00 -0.1770797E+06 -0.1126885E+03  0.1402690E-01  0.2097726E-02  0.4535109E+06  0.2258374E+03
  0.5142857E+00 -0.1779978E+06 -0.1722228E+03  0.2145386E-01  0.3198743E-02  0.4549785E+06  0.3446172E+03
  0.5452381E+00 -0.1788081E+06 -0.2566650E+03  0.1552848E-01  0.3481865E-02  0.4565898E+06  0.5130307E+03
  0.5761905E+00 -0.1795880E+06 -0.3737419E+03  0.1139314E-01  0.3061533E-02  0.4579237E+06  0.7455237E+03
  0.6071429E+00 -0.1809520E+06 -0.5347475E+03 -0.8205637E-02 -0.1235008E-02  0.4601428E+06  0.1064776E+04
  0.6380953E+00 -0.1819599E+06 -0.7473253E+03 -0.1528341E-01 -0.4354954E-02  0.4621464E+06  0.1485336E+04
  0.6690477E+00 -0.1829983E+06 -0.1026672E+04  0.3124807E-01  0.8178711E-02  0.4639818E+06  0.2036446E+04
  0.7000000E+00 -0.1846481E+06 -0.1390202E+04 -0.1556396E-01 -0.3285408E-02  0.4668990E+06  0.2752862E+04
  0.7309524E+00 -0.1858920E+06 -0.1852396E+04 -0.3344731E-01 -0.8405685E-02  0.4690353E+06  0.3659020E+04
  0.7619048E+00 -0.1872564E+06 -0.2436774E+04  0.3965377E-02  0.1016617E-02  0.4714247E+06  0.4800631E+04
  0.7928572E+00 -0.1890988E+06 -0.3168849E+04  0.2141041E-02  0.4400253E-02  0.4745152E+06  0.6227400E+04
  0.8238096E+00 -0.1906642E+06 -0.4070763E+04  0.2329170E-01  0.1026154E-01  0.4771720E+06  0.7979863E+04
  0.8547620E+00 -0.1925746E+06 -0.5174531E+04 -0.1374566E-01 -0.2388000E-02  0.4810885E+06  0.1012345E+05
  0.8857143E+00 -0.1941163E+06 -0.6510938E+04 -0.1361847E-01 -0.3631592E-02  0.4834938E+06  0.1269645E+05
  0.9166667E+00 -0.1962910E+06 -0.8124667E+04 -0.1551403E-01 -0.1983643E-02  0.4870480E+06  0.1579434E+05
  0.9476191E+00 -0.1981004E+06 -0.1004169E+05  0.2143208E-01  0.1634216E-01  0.4899001E+06  0.1945633E+05
  0.9785714E+00 -0.2000465E+06 -0.1231001E+05  0.5457523E-04  0.6828308E-02  0.4933688E+06  0.2377607E+05
  0.1009524E+01 -0.2018239E+06 -0.1496852E+05  0.1265112E-01  0.8369446E-02  0.4963398E+06  0.2881029E+05
  0.1040476E+01 -0.2037994E+06 -0.1807104E+05  0.3043029E-01  0.2207947E-01  0.4993761E+06  0.3465657E+05
  0.1071429E+01 -0.2058920E+06 -0.2165287E+05 -0.7135010E-02 -0.1892090E-02  0.5029879E+06  0.4140038E+05
  0.1102381E+01 -0.2074304E+06 -0.2572674E+05 -0.1937833E-03  0.7186890E-02  0.5051379E+06  0.4899642E+05
  0.1133333E+01 -0.2090888E+06 -0.3036315E+05 -0.9559182E-02 -0.3601074E-02  0.5079005E+06  0.5760039E+05
  0.1164286E+01 -0.2102925E+06 -0.3557574E+05  0.1769271E-02  0.3662109E-02  0.5093825E+06  0.6718252E+05
  0.1195238E+01 -0.2114144E+06 -0.4141595E+05 -0.4557575E-02  0.4180908E-02  0.5104832E+06  0.7784273E+05
  0.1226190E+01 -0.2125583E+06 -0.4790914E+05  0.4392754E-02  0.1568604E-01  0.5118117E+06  0.8965974E+05
  0.1257143E+01 -0.2128219E+06 -0.5495728E+05 -0.6554343E-02 -0.3723145E-02  0.5114787E+06  0.1023879E+06
  0.1288095E+01 -0.2129640E+06 -0.6269982E+05 -0.1786378E-01 -0.9063721E-02  0.5109047E+06  0.1162390E+06
  0.1319048E+01 -0.2128149E+06 -0.7104162E+05  0.1264386E-01  0.2517700E-01  0.5103214E+06  0.1311383E+06
  0.1350000E+01 -0.2117121E+06 -0.7983983E+05  0.9686505E-02  0.5920410E-02  0.5073924E+06  0.1466180E+06
  0.1380952E+01 -0.2103808E+06 -0.8912799E+05 -0.2563477E-02  0.9521484E-02  0.5039200E+06  0.1627805E+06
  0.1411905E+01 -0.2084315E+06 -0.9856095E+05 -0.3542072E-02  0.6591797E-02  0.4996642E+06  0.1791520E+06
  0.1442857E+01 -0.2059641E+06 -0.1084064E+06 -0.3483107E-02 -0.1403809E-02  0.4942485E+06  0.1959518E+06
  0.1473810E+01 -0.2025611E+06 -0.1182625E+06 -0.7964274E-02 -0.6103516E-03  0.4870376E+06  0.2124121E+06
  0.1504762E+01 -0.1990055E+06 -0.1282642E+06 -0.3549117E-04  0.5493164E-03  0.4802112E+06  0.2291150E+06
  0.1535714E+01 -0.1947801E+06 -0.1380482E+06  0.7352607E-03  0.1226807E-01  0.4720916E+06  0.2451283E+06
  0.1566667E+01 -0.1898028E+06 -0.1473907E+06 -0.9184492E-02 -0.3234863E-02  0.4623435E+06  0.2599409E+06
  0.1597619E+01 -0.1847414E+06 -0.1563751E+06 -0.9493650E-02 -0.5981445E-02  0.4524741E+06  0.2738645E+06
  0.1628572E+01 -0.1795386E+06 -0.1648665E+06 -0.1555326E-02  0.4089355E-02  0.4427088E+06  0.2868437E+06
  0.1659524E+01 -0.1738093E+06 -0.1725120E+06 -0.6987956E-03 -0.5615234E-02  0.4321114E+06  0.2981190E+06
  0.1690476E+01 -0.1675369E+06 -0.1790655E+06  0.1642791E-02  0.9094238E-02  0.4204936E+06  0.3070039E+06
  0.1721429E+01 -0.1613704E+06 -0.1849217E+06  0.2659208E-03  0.5554199E-02  0.4095742E+06  0.3147393E+06
  0.1752381E+01 -0.1553990E+06 -0.1900646E+06 -0.4458220E-02  0.6591797E-02  0.3995402E+06  0.3214302E+06
  0.1783333E+01 -0.1490332E+06 -0.1937130E+06 -0.9719991E-02 -0.2197266E-02  0.3883523E+06  0.3248227E+06
  0.1814286E+01 -0.1428498E+06 -0.1963874E+06 -0.1446581E-02 -0.6103516E-04  0.3775377E+06  0.3263371E+06
  0.1845238E+01 -0.1371318E+06 -0.1984065E+06 -0.4564642E-02 -0.5249023E-02  0.3676479E+06  0.3267364E+06
  0.1876190E+01 -0.1318400E+06 -0.1997736E+06 -0.8718423E-02  0.9155273E-03  0.3588792E+06  0.3263980E+06
  0.1907143E+01 -0.1265818E+06 -0.1999880E+06 -0.7936857E-02 -0.3906250E-02  0.3502659E+06  0.3240959E+06
  0.1938095E+01 -0.1214785E+06 -0.1990915E+06 -0.8439948E-02 -0.5004883E-02  0.3418376E+06  0.3194836E+06
  0.1969048E+01 -0.1166935E+06 -0.1974190E+06 -0.1097304E-01 -0.5493164E-03  0.3341621E+06  0.3135848E+06
  0.2000000E+01 -0.1124692E+06 -0.1955243E+06  0.3692627E-02 -0.1037598E-02  0.3279704E+06  0.3081266E+06
