VARIABLES="w (rad/s)"
"abs(F   1   1)" "angle(F   1   1)"
"abs(F   1   2)" "angle(F   1   2)"
"abs(F   1   3)" "angle(F   1   3)"
Zone t="Diffraction force - beta =   0.000 deg",I=    64,F=POINT
  0.5000000E-01  0.3383931E+04 -0.1570795E+01  0.4249505E+06 -0.2867765E-04  0.1153999E+04  0.1570777E+01
  0.8095238E-01  0.5516845E+04 -0.1570791E+01  0.4238938E+06 -0.7709304E-04  0.1886285E+04  0.1570801E+01
  0.1119048E+00  0.7703838E+04 -0.1570794E+01  0.4223426E+06 -0.1529236E-03  0.2649365E+04  0.1570821E+01
  0.1428571E+00  0.9956451E+04 -0.1570788E+01  0.4202959E+06 -0.2618896E-03  0.3444089E+04  0.1570805E+01
  0.1738095E+00  0.1232751E+05 -0.1570786E+01  0.4177595E+06 -0.4124468E-03  0.4304235E+04  0.1570804E+01
  0.2047619E+00  0.1480459E+05 -0.1570780E+01  0.4147234E+06 -0.6170293E-03  0.5208083E+04  0.1570823E+01
  0.2357143E+00  0.1745272E+05 -0.1570769E+01  0.4111828E+06 -0.8937925E-03  0.6211987E+04  0.1570829E+01
  0.2666667E+00  0.2030495E+05 -0.1570755E+01  0.4071637E+06 -0.1264346E-02  0.7310492E+04  0.1570842E+01
  0.2976190E+00  0.2337037E+05 -0.1570736E+01  0.4026237E+06 -0.1766448E-02  0.8513910E+04  0.1570859E+01
  0.3285715E+00  0.2676110E+05 -0.1570704E+01  0.3976292E+06 -0.2436714E-02  0.9889310E+04  0.1570884E+01
  0.3595238E+00  0.3049361E+05 -0.1570658E+01  0.3921237E+06 -0.3335020E-02  0.1144924E+05  0.1570931E+01
  0.3904762E+00  0.3460251E+05 -0.1570590E+01  0.3861905E+06 -0.4525920E-02  0.1318038E+05  0.1571005E+01
  0.4214286E+00  0.3910068E+05 -0.1570490E+01  0.3798144E+06 -0.6048976E-02  0.1513210E+05  0.1571102E+01
  0.4523810E+00  0.4415209E+05 -0.1570342E+01  0.3730452E+06 -0.8022554E-02  0.1739690E+05  0.1571251E+01
  0.4833333E+00  0.4966259E+05 -0.1570137E+01  0.3659455E+06 -0.1037782E-01  0.1995784E+05  0.1571459E+01
  0.5142857E+00  0.5554495E+05 -0.1569852E+01  0.3584722E+06 -0.1325421E-01  0.2272614E+05  0.1571742E+01
  0.5452381E+00  0.6187265E+05 -0.1569472E+01  0.3508120E+06 -0.1660136E-01  0.2578946E+05  0.1572127E+01
  0.5761905E+00  0.6868110E+05 -0.1568976E+01  0.3428190E+06 -0.2041315E-01  0.2924511E+05  0.1572619E+01
  0.6071429E+00  0.7582795E+05 -0.1568335E+01  0.3346653E+06 -0.2481504E-01  0.3288519E+05  0.1573265E+01
  0.6380953E+00  0.8326860E+05 -0.1567532E+01  0.3263107E+06 -0.2966349E-01  0.3689232E+05  0.1574072E+01
  0.6690477E+00  0.9087564E+05 -0.1566534E+01  0.3177005E+06 -0.3507065E-01  0.4105372E+05  0.1575075E+01
  0.7000000E+00  0.9888827E+05 -0.1565309E+01  0.3090512E+06 -0.4111240E-01  0.4555399E+05  0.1576299E+01
  0.7309524E+00  0.1072840E+06 -0.1563832E+01  0.3002953E+06 -0.4771327E-01  0.5056431E+05  0.1577778E+01
  0.7619048E+00  0.1157991E+06 -0.1562059E+01  0.2913804E+06 -0.5492050E-01  0.5570620E+05  0.1579567E+01
  0.7928572E+00  0.1244489E+06 -0.1559949E+01  0.2823592E+06 -0.6275668E-01  0.6112956E+05  0.1581699E+01
  0.8238096E+00  0.1332580E+06 -0.1557470E+01  0.2735059E+06 -0.7125477E-01  0.6667539E+05  0.1584215E+01
  0.8547620E+00  0.1421670E+06 -0.1554591E+01  0.2645513E+06 -0.8041093E-01  0.7263192E+05  0.1587127E+01
  0.8857143E+00  0.1513497E+06 -0.1551306E+01  0.2555336E+06 -0.9021349E-01  0.7895986E+05  0.1590387E+01
  0.9166667E+00  0.1606360E+06 -0.1547554E+01  0.2465130E+06 -0.1006549E+00  0.8556939E+05  0.1594162E+01
  0.9476191E+00  0.1699781E+06 -0.1543306E+01  0.2377902E+06 -0.1117602E+00  0.9218525E+05  0.1598466E+01
  0.9785714E+00  0.1792816E+06 -0.1538526E+01  0.2290609E+06 -0.1235573E+00  0.9926049E+05  0.1603352E+01
  0.1009524E+01  0.1883600E+06 -0.1533195E+01  0.2203596E+06 -0.1359646E+00  0.1062600E+06  0.1608835E+01
  0.1040476E+01  0.1972459E+06 -0.1527303E+01  0.2116328E+06 -0.1490228E+00  0.1135153E+06  0.1614921E+01
  0.1071429E+01  0.2059193E+06 -0.1520906E+01  0.2032702E+06 -0.1626653E+00  0.1204797E+06  0.1621476E+01
  0.1102381E+01  0.2145827E+06 -0.1514120E+01  0.1950719E+06 -0.1769655E+00  0.1277711E+06  0.1628261E+01
  0.1133333E+01  0.2229339E+06 -0.1506894E+01  0.1869697E+06 -0.1919266E+00  0.1352024E+06  0.1635585E+01
  0.1164286E+01  0.2307591E+06 -0.1499231E+01  0.1789513E+06 -0.2074182E+00  0.1423102E+06  0.1643436E+01
  0.1195238E+01  0.2380562E+06 -0.1491179E+01  0.1709742E+06 -0.2235667E+00  0.1494482E+06  0.1651846E+01
  0.1226190E+01  0.2447385E+06 -0.1482882E+01  0.1633091E+06 -0.2400988E+00  0.1560792E+06  0.1660511E+01
  0.1257143E+01  0.2507697E+06 -0.1474537E+01  0.1560032E+06 -0.2570436E+00  0.1621147E+06  0.1669064E+01
  0.1288095E+01  0.2564067E+06 -0.1466450E+01  0.1487959E+06 -0.2743317E+00  0.1685073E+06  0.1677305E+01
  0.1319048E+01  0.2610066E+06 -0.1458442E+01  0.1417225E+06 -0.2921930E+00  0.1740811E+06  0.1685727E+01
  0.1350000E+01  0.2647056E+06 -0.1450761E+01  0.1347485E+06 -0.3104664E+00  0.1790232E+06  0.1693851E+01
  0.1380952E+01  0.2675448E+06 -0.1443556E+01  0.1278314E+06 -0.3294319E+00  0.1836641E+06  0.1701746E+01
  0.1411905E+01  0.2692674E+06 -0.1437194E+01  0.1212594E+06 -0.3482563E+00  0.1872364E+06  0.1708529E+01
  0.1442857E+01  0.2703184E+06 -0.1432009E+01  0.1150547E+06 -0.3665080E+00  0.1898223E+06  0.1713735E+01
  0.1473810E+01  0.2705344E+06 -0.1427819E+01  0.1089422E+06 -0.3853621E+00  0.1922993E+06  0.1718603E+01
  0.1504762E+01  0.2697164E+06 -0.1424982E+01  0.1029499E+06 -0.4044509E+00  0.1938764E+06  0.1722093E+01
  0.1535714E+01  0.2679445E+06 -0.1423712E+01  0.9706810E+05 -0.4236505E+00  0.1945530E+06  0.1723941E+01
  0.1566667E+01  0.2653675E+06 -0.1424260E+01  0.9126003E+05 -0.4431766E+00  0.1946302E+06  0.1723887E+01
  0.1597619E+01  0.2619763E+06 -0.1426588E+01  0.8554351E+05 -0.4634220E+00  0.1941456E+06  0.1722412E+01
  0.1628572E+01  0.2578149E+06 -0.1431054E+01  0.8008509E+05 -0.4827724E+00  0.1925808E+06  0.1718404E+01
  0.1659524E+01  0.2529675E+06 -0.1437921E+01  0.7488033E+05 -0.5006449E+00  0.1898538E+06  0.1711160E+01
  0.1690476E+01  0.2476297E+06 -0.1447070E+01  0.6973405E+05 -0.5191095E+00  0.1869418E+06  0.1701951E+01
  0.1721429E+01  0.2417542E+06 -0.1458651E+01  0.6469490E+05 -0.5386327E+00  0.1835700E+06  0.1690574E+01
  0.1752381E+01  0.2352720E+06 -0.1472967E+01  0.5974847E+05 -0.5593241E+00  0.1793872E+06  0.1675996E+01
  0.1783333E+01  0.2283522E+06 -0.1490097E+01  0.5489348E+05 -0.5818604E+00  0.1746520E+06  0.1658136E+01
  0.1814286E+01  0.2211171E+06 -0.1510081E+01  0.5016521E+05 -0.6074587E+00  0.1696599E+06  0.1637534E+01
  0.1845238E+01  0.2135561E+06 -0.1533153E+01  0.4559136E+05 -0.6365392E+00  0.1643018E+06  0.1613745E+01
  0.1876190E+01  0.2057543E+06 -0.1559743E+01  0.4124032E+05 -0.6679640E+00  0.1583251E+06  0.1584806E+01
  0.1907143E+01  0.1977874E+06 -0.1590219E+01  0.3712609E+05 -0.7022535E+00  0.1516943E+06  0.1549270E+01
  0.1938095E+01  0.1897048E+06 -0.1624578E+01  0.3326179E+05 -0.7437429E+00  0.1449344E+06  0.1508922E+01
  0.1969048E+01  0.1816125E+06 -0.1663118E+01  0.2973124E+05 -0.7933215E+00  0.1382235E+06  0.1463771E+01
  0.2000000E+01  0.1735171E+06 -0.1706529E+01  0.2650795E+05 -0.8518023E+00  0.1314395E+06  0.1411552E+01
