VARIABLES="w (rad/s)"
"A   1   1" "B   1   1"
"A   1   2" "B   1   2"
"A   1   3" "B   1   3"
Zone t="Motion of body    1 in DoF   1",I=    64,F=POINT
  0.5000000E-01  0.6843614E+04  0.7156673E-04 -0.7283688E-03 -0.1151644E-05  0.6084757E+02  0.7225358E-06
  0.8095238E-01  0.6846260E+04  0.2876356E-03 -0.8540995E-04 -0.2460170E-05  0.6059115E+02  0.3294314E-05
  0.1119048E+00  0.6852485E+04  0.8159502E-03 -0.7030811E-03 -0.2437679E-05  0.5989367E+02  0.9318729E-05
  0.1428571E+00  0.6847784E+04  0.1831293E-02  0.2603531E-03 -0.3956652E-06  0.6021166E+02  0.2077159E-04
  0.1738095E+00  0.6874750E+04  0.3658840E-02  0.1064457E-02  0.5556449E-05  0.5993488E+02  0.4107830E-04
  0.2047619E+00  0.6873393E+04  0.6783549E-02  0.3632834E-03 -0.5367765E-06  0.6075122E+02  0.7709148E-04
  0.2357143E+00  0.6874897E+04  0.1196958E-01 -0.9325778E-03 -0.1237407E-04  0.6017108E+02  0.1353818E-03
  0.2666667E+00  0.6901939E+04  0.2049457E-01  0.1085401E-02  0.1768375E-04  0.6083120E+02  0.2328460E-03
  0.2976190E+00  0.6898723E+04  0.3446441E-01 -0.8523560E-03 -0.1178520E-04  0.6114343E+02  0.3923211E-03
  0.3285715E+00  0.6903700E+04  0.5723278E-01  0.2104303E-03  0.3639958E-05  0.6087799E+02  0.6542837E-03
  0.3595238E+00  0.6927884E+04  0.9440096E-01  0.3143336E-03  0.7601659E-05  0.6112146E+02  0.1083810E-02
  0.3904762E+00  0.6941447E+04  0.1545589E+00 -0.1327410E-02 -0.4558518E-04  0.6178571E+02  0.1784901E-02
  0.4214286E+00  0.6942647E+04  0.2497166E+00  0.1087350E-02  0.2942514E-04  0.6165424E+02  0.2892534E-02
  0.4523810E+00  0.6959126E+04  0.4002733E+00 -0.7315183E-03 -0.1115247E-04  0.6193639E+02  0.4658010E-02
  0.4833333E+00  0.6991340E+04  0.6266286E+00  0.1416700E-02  0.6736256E-04  0.6274526E+02  0.7339315E-02
  0.5142857E+00  0.7003334E+04  0.9639570E+00 -0.1084805E-02 -0.1232726E-03  0.6331319E+02  0.1136861E-01
  0.5452381E+00  0.7010559E+04  0.1447820E+01 -0.1451751E-03 -0.6673858E-05  0.6367358E+02  0.1718610E-01
  0.5761905E+00  0.7037233E+04  0.2126061E+01 -0.2846836E-03 -0.6355671E-04  0.6425185E+02  0.2540620E-01
  0.6071429E+00  0.7074263E+04  0.3066845E+01  0.1501644E-02  0.1208317E-03  0.6609471E+02  0.3707765E-01
  0.6380953E+00  0.7099878E+04  0.4325362E+01 -0.9086950E-03 -0.6966572E-04  0.6644054E+02  0.5262168E-01
  0.6690477E+00  0.7103382E+04  0.5991445E+01 -0.1080469E-02 -0.1267083E-03  0.6578606E+02  0.7314686E-01
  0.7000000E+00  0.7125453E+04  0.8183725E+01 -0.9890965E-03 -0.8427352E-04  0.6675802E+02  0.1008501E+00
  0.7309524E+00  0.7166583E+04  0.1101817E+02 -0.5414509E-03 -0.7065386E-04  0.6784556E+02  0.1370180E+00
  0.7619048E+00  0.7209540E+04  0.1464567E+02  0.4643797E-03  0.2173819E-03  0.6890860E+02  0.1837712E+00
  0.7928572E+00  0.7243096E+04  0.1923055E+02 -0.1130662E-03 -0.1040436E-03  0.7004496E+02  0.2437554E+00
  0.8238096E+00  0.7266944E+04  0.2496215E+02 -0.3345578E-03 -0.5961210E-04  0.7022021E+02  0.3186465E+00
  0.8547620E+00  0.7290415E+04  0.3206623E+02  0.9528242E-03  0.1781732E-03  0.7032460E+02  0.4121027E+00
  0.8857143E+00  0.7328636E+04  0.4082625E+02 -0.6417305E-03 -0.1104251E-03  0.7127473E+02  0.5296215E+00
  0.9166667E+00  0.7376394E+04  0.5153842E+02  0.3329190E-04 -0.2426058E-03  0.7276372E+02  0.6762887E+00
  0.9476191E+00  0.7431371E+04  0.6454061E+02 -0.1702812E-02 -0.5158633E-03  0.7459560E+02  0.8574775E+00
  0.9785714E+00  0.7485445E+04  0.8019245E+02 -0.1502768E-02 -0.7587224E-03  0.7604426E+02  0.1077189E+01
  0.1009524E+01  0.7532213E+04  0.9887955E+02 -0.2588416E-03 -0.2176166E-03  0.7674512E+02  0.1339828E+01
  0.1040476E+01  0.7567465E+04  0.1210197E+03  0.2328100E-03  0.5537868E-03  0.7712728E+02  0.1653856E+01
  0.1071429E+01  0.7608958E+04  0.1471709E+03 -0.9061178E-03 -0.6523132E-03  0.7823795E+02  0.2033430E+01
  0.1102381E+01  0.7663434E+04  0.1779305E+03 -0.2076250E-04 -0.2735555E-03  0.7971750E+02  0.2486629E+01
  0.1133333E+01  0.7725765E+04  0.2138930E+03 -0.1499513E-02 -0.9608269E-03  0.8131763E+02  0.3023084E+01
  0.1164286E+01  0.7793250E+04  0.2557211E+03  0.7945335E-03  0.3388524E-03  0.8291811E+02  0.3655329E+01
  0.1195238E+01  0.7859633E+04  0.3040830E+03 -0.1021305E-03  0.1411438E-03  0.8485138E+02  0.4402076E+01
  0.1226190E+01  0.7927843E+04  0.3597697E+03 -0.6750903E-03 -0.5077124E-03  0.8699272E+02  0.5278774E+01
  0.1257143E+01  0.7986697E+04  0.4233982E+03  0.8511543E-03  0.4667640E-03  0.8875660E+02  0.6292435E+01
  0.1288095E+01  0.8056315E+04  0.4961778E+03  0.1172755E-02  0.1155853E-02  0.9014509E+02  0.7455672E+01
  0.1319048E+01  0.8111984E+04  0.5784960E+03  0.1055583E-03  0.4769564E-03  0.9108325E+02  0.8780839E+01
  0.1350000E+01  0.8173002E+04  0.6715245E+03 -0.2896344E-03 -0.2000332E-03  0.9244801E+02  0.1030634E+02
  0.1380952E+01  0.8237538E+04  0.7761703E+03 -0.8328537E-03 -0.9913445E-03  0.9446021E+02  0.1206523E+02
  0.1411905E+01  0.8268902E+04  0.8887205E+03 -0.1096935E-02 -0.8208752E-03  0.9444019E+02  0.1392415E+02
  0.1442857E+01  0.8343614E+04  0.1018929E+04 -0.2456136E-02 -0.1934052E-02  0.9704800E+02  0.1619796E+02
  0.1473810E+01  0.8417858E+04  0.1163575E+04  0.1009446E-02  0.1004696E-02  0.9924787E+02  0.1874298E+02
  0.1504762E+01  0.8489957E+04  0.1323626E+04  0.7072883E-03  0.4482269E-03  0.1016158E+03  0.2161222E+02
  0.1535714E+01  0.8558480E+04  0.1500030E+04  0.1028371E-02  0.5238056E-03  0.1037635E+03  0.2481405E+02
  0.1566667E+01  0.8622381E+04  0.1693669E+04 -0.6598614E-03  0.8344650E-04  0.1058939E+03  0.2839694E+02
  0.1597619E+01  0.8675466E+04  0.1904969E+04  0.1232073E-02  0.1978874E-02  0.1077848E+03  0.3237955E+02
  0.1628572E+01  0.8722716E+04  0.2134851E+04 -0.5481117E-03 -0.7333755E-03  0.1094999E+03  0.3678791E+02
  0.1659524E+01  0.8764001E+04  0.2383869E+04  0.5884594E-03 -0.1487732E-03  0.1113198E+03  0.4166368E+02
  0.1690476E+01  0.8801284E+04  0.2651964E+04 -0.5054742E-03  0.1049042E-04  0.1130570E+03  0.4697976E+02
  0.1721429E+01  0.8835663E+04  0.2939354E+04  0.1307444E-03  0.1288891E-02  0.1147733E+03  0.5276996E+02
  0.1752381E+01  0.8863314E+04  0.3245880E+04  0.1007889E-02  0.7500648E-03  0.1163326E+03  0.5901246E+02
  0.1783333E+01  0.8885631E+04  0.3571533E+04 -0.1471689E-02 -0.2695084E-02  0.1178755E+03  0.6578158E+02
  0.1814286E+01  0.8899669E+04  0.3916001E+04 -0.1133296E-02 -0.9155273E-03  0.1194227E+03  0.7314761E+02
  0.1845238E+01  0.8902603E+04  0.4278441E+04  0.8165913E-03 -0.6122589E-03  0.1208644E+03  0.8109462E+02
  0.1876190E+01  0.8896551E+04  0.4658290E+04 -0.6404625E-03 -0.9965897E-03  0.1222033E+03  0.8960856E+02
  0.1907143E+01  0.8880485E+04  0.5054517E+04  0.4800518E-03  0.1271248E-02  0.1235184E+03  0.9872647E+02
  0.1938095E+01  0.8853546E+04  0.5464992E+04  0.4881313E-03  0.1811981E-04  0.1246111E+03  0.1083228E+03
  0.1969048E+01  0.8817042E+04  0.5887639E+04  0.3584063E-03  0.7429123E-03  0.1252105E+03  0.1183557E+03
  0.2000000E+01  0.8768287E+04  0.6320089E+04 -0.6599426E-03  0.6742477E-03  0.1256019E+03  0.1288160E+03
Zone t="Motion of body    1 in DoF   2",I=    64,F=POINT
  0.5000000E-01  0.6127357E-03  0.1257285E-05  0.1154080E+05  0.1512701E+02  0.3349781E-03  0.3129244E-06
  0.8095238E-01  0.7539637E-03  0.1110137E-05  0.1148354E+05  0.2513204E+02  0.2915719E-03  0.6444752E-06
  0.1119048E+00  0.1620283E-02 -0.1601875E-06  0.1148040E+05  0.3609550E+02  0.3611280E-03  0.1043081E-05
  0.1428571E+00  0.1692295E-02  0.4239380E-05  0.1147958E+05  0.4847174E+02  0.3588199E-03  0.1605600E-05
  0.1738095E+00 -0.1799701E-02  0.7078052E-05  0.1149199E+05  0.6284781E+02  0.3676218E-03  0.1974404E-05
  0.2047619E+00  0.1653405E-03  0.3486872E-05  0.1151469E+05  0.7993225E+02  0.3027362E-03  0.3725290E-05
  0.2357143E+00 -0.9224631E-03 -0.9119511E-05  0.1154890E+05  0.1007670E+03  0.2730976E-03  0.2868474E-05
  0.2666667E+00  0.1024604E-02  0.9000301E-05  0.1159475E+05  0.1263283E+03  0.3129244E-03  0.3963709E-05
  0.2976190E+00  0.4486084E-03  0.3363192E-04  0.1164619E+05  0.1585117E+03  0.3140259E-03  0.5945563E-05
  0.3285715E+00  0.7778665E-03  0.6914139E-05  0.1170964E+05  0.1986805E+03  0.3178223E-03  0.6198883E-05
  0.3595238E+00 -0.2599552E-03  0.4410744E-05  0.1177010E+05  0.2492628E+03  0.2175135E-03  0.8314848E-05
  0.3904762E+00 -0.9488477E-03 -0.1034141E-03  0.1183519E+05  0.3125293E+03  0.3907738E-03  0.1165271E-04
  0.4214286E+00  0.1154107E-02  0.3573298E-04  0.1189022E+05  0.3885134E+03  0.3620729E-03  0.1743436E-04
  0.4523810E+00  0.2445421E-03  0.3910065E-04  0.1194072E+05  0.4813929E+03  0.3362455E-03  0.1847744E-04
  0.4833333E+00  0.3531883E-03 -0.2861023E-04  0.1197322E+05  0.5852805E+03  0.3374034E-03  0.1716614E-04
  0.5142857E+00  0.1144144E-02 -0.4887581E-04  0.1198880E+05  0.7048836E+03  0.3616015E-03  0.2175570E-04
  0.5452381E+00 -0.2273826E-04  0.6890297E-04  0.1199763E+05  0.8355335E+03  0.3830522E-03  0.2026558E-04
  0.5761905E+00 -0.3177863E-03 -0.1175404E-03  0.1198895E+05  0.9758182E+03  0.2532360E-03  0.4029274E-04
  0.6071429E+00  0.1688564E-02 -0.2038479E-04  0.1196636E+05  0.1128838E+04  0.3062977E-03  0.3886223E-04
  0.6380953E+00  0.4050269E-03 -0.1680851E-04  0.1194031E+05  0.1288164E+04  0.3706519E-03  0.3373623E-04
  0.6690477E+00  0.1270050E-02 -0.6580353E-04  0.1190107E+05  0.1457194E+04  0.3492280E-03  0.3385544E-04
  0.7000000E+00 -0.1711164E-02 -0.1368523E-03  0.1185225E+05  0.1636640E+04  0.2002716E-03  0.5006790E-04
  0.7309524E+00 -0.3587927E-03 -0.1690388E-03  0.1179914E+05  0.1823080E+04  0.4409889E-03  0.5173683E-04
  0.7619048E+00  0.5782842E-03 -0.1578331E-03  0.1173485E+05  0.2017671E+04  0.3592372E-03  0.7820129E-04
  0.7928572E+00  0.1941371E-02 -0.3647804E-04  0.1165962E+05  0.2220064E+04  0.2946939E-03  0.6771088E-04
  0.8238096E+00  0.2292126E-03  0.1890659E-03  0.1157972E+05  0.2429138E+04  0.3704446E-03  0.1065731E-03
  0.8547620E+00 -0.4741806E-03 -0.1182556E-03  0.1149259E+05  0.2644022E+04  0.2476897E-03  0.1037121E-03
  0.8857143E+00  0.1401901E-02  0.2632141E-03  0.1139685E+05  0.2864133E+04  0.2304200E-03  0.1230240E-03
  0.9166667E+00  0.1637545E-02 -0.2269745E-03  0.1129396E+05  0.3088537E+04  0.3589283E-03  0.1142025E-03
  0.9476191E+00 -0.8212142E-03 -0.7867813E-04  0.1118485E+05  0.3316204E+04  0.3311023E-03  0.1232624E-03
  0.9785714E+00  0.9550665E-03 -0.2622604E-04  0.1106872E+05  0.3546318E+04  0.3849503E-03  0.1151562E-03
  0.1009524E+01  0.1857236E-02  0.2012253E-03  0.1094619E+05  0.3777953E+04  0.3514200E-03  0.1559258E-03
  0.1040476E+01 -0.2379428E-02  0.1045704E-02  0.1081684E+05  0.4010428E+04  0.3263007E-03  0.1735687E-03
  0.1071429E+01  0.6177266E-03  0.1311302E-03  0.1068509E+05  0.4242486E+04  0.2207438E-03  0.1401901E-03
  0.1102381E+01 -0.2353083E-03  0.4091263E-03  0.1055067E+05  0.4473266E+04  0.2768333E-03  0.1707077E-03
  0.1133333E+01  0.7219876E-03 -0.5383492E-03  0.1041115E+05  0.4702257E+04  0.2608580E-03  0.1912117E-03
  0.1164286E+01  0.1048457E-02 -0.8440018E-03  0.1026815E+05  0.4928542E+04  0.2604759E-03  0.1950264E-03
  0.1195238E+01  0.6861895E-04 -0.1112461E-02  0.1012029E+05  0.5151630E+04  0.3095832E-03  0.1707077E-03
  0.1226190E+01  0.1389068E-02  0.8916855E-04  0.9971622E+04  0.5370204E+04  0.3359897E-03  0.2155304E-03
  0.1257143E+01 -0.2215125E-03  0.8716583E-03  0.9821290E+04  0.5588218E+04  0.3155795E-03  0.1916885E-03
  0.1288095E+01  0.7359334E-03 -0.9784698E-03  0.9671271E+04  0.5791164E+04  0.3242845E-03  0.2827644E-03
  0.1319048E+01  0.2588348E-03 -0.2255440E-03  0.9519287E+04  0.5992693E+04  0.2472667E-03  0.2298355E-03
  0.1350000E+01  0.3744055E-03  0.2837181E-03  0.9366841E+04  0.6187337E+04  0.3080015E-03  0.2708435E-03
  0.1380952E+01 -0.2113211E-03  0.8487701E-03  0.9214495E+04  0.6374755E+04  0.2292765E-03  0.2207756E-03
  0.1411905E+01  0.1812914E-02  0.8268356E-03  0.9063477E+04  0.6558207E+04  0.2431628E-03  0.1854897E-03
  0.1442857E+01  0.6556747E-03  0.3957748E-03  0.8913639E+04  0.6730424E+04  0.1678844E-03  0.2231598E-03
  0.1473810E+01  0.1690176E-02 -0.1811981E-04  0.8765039E+04  0.6894230E+04  0.2640091E-03  0.2431870E-03
  0.1504762E+01 -0.3130828E-03  0.7390976E-03  0.8617160E+04  0.7049494E+04  0.2205523E-03  0.2665520E-03
  0.1535714E+01  0.2806907E-03  0.4739761E-03  0.8470604E+04  0.7195768E+04  0.1850572E-03  0.3356934E-03
  0.1566667E+01  0.3372355E-03  0.6732941E-03  0.8325630E+04  0.7333088E+04  0.2300993E-03  0.2527237E-03
  0.1597619E+01  0.6399141E-03  0.6852150E-03  0.8182456E+04  0.7461400E+04  0.1563969E-03  0.2417564E-03
  0.1628572E+01  0.1070458E-02 -0.9717941E-03  0.8043053E+04  0.7580028E+04  0.2330646E-03  0.2865791E-03
  0.1659524E+01  0.1206802E-02  0.1667976E-02  0.7906961E+04  0.7688700E+04  0.1953869E-03  0.3623962E-03
  0.1690476E+01  0.4671123E-03 -0.8115768E-03  0.7774490E+04  0.7787275E+04  0.2155035E-03  0.3151894E-03
  0.1721429E+01  0.8066265E-03 -0.6198883E-04  0.7644866E+04  0.7876833E+04  0.1706325E-03  0.3819466E-03
  0.1752381E+01  0.1119997E-02 -0.4796982E-03  0.7518717E+04  0.7957041E+04  0.1959179E-03  0.3676414E-03
  0.1783333E+01  0.7882519E-03 -0.6380081E-03  0.7395484E+04  0.8028169E+04  0.2417163E-03  0.3075600E-03
  0.1814286E+01  0.1671558E-03  0.9622574E-03  0.7275044E+04  0.8090607E+04  0.1839765E-03  0.4029274E-03
  0.1845238E+01  0.5426715E-03 -0.4997253E-03  0.7157938E+04  0.8144078E+04  0.2305062E-03  0.4439354E-03
  0.1876190E+01  0.4320580E-03 -0.8220673E-03  0.7045370E+04  0.8188370E+04  0.1890889E-03  0.3833771E-03
  0.1907143E+01 -0.3980430E-03  0.1706123E-02  0.6936734E+04  0.8223591E+04  0.1560168E-03  0.3066063E-03
  0.1938095E+01  0.6918474E-03  0.8497238E-03  0.6832220E+04  0.8249264E+04  0.2125733E-03  0.4663467E-03
  0.1969048E+01  0.1714538E-02  0.3123283E-03  0.6731584E+04  0.8267061E+04  0.1143025E-03  0.3347397E-03
  0.2000000E+01  0.5168915E-03 -0.1117229E-02  0.6634284E+04  0.8276532E+04  0.1716614E-03  0.4105568E-03
Zone t="Motion of body    1 in DoF   3",I=    64,F=POINT
  0.5000000E-01  0.6230751E+02  0.6984332E-06  0.2478063E-03  0.4906525E-06  0.5628523E+02  0.6591633E-09
  0.8095238E-01  0.6203670E+02  0.3375049E-05  0.5997104E-03  0.1626089E-05  0.5622168E+02  0.6360300E-07
  0.1119048E+00  0.6118312E+02  0.9597411E-05  0.4627286E-03  0.1690884E-05  0.5619468E+02  0.9340746E-07
  0.1428571E+00  0.6158157E+02  0.2139084E-04  0.4611462E-03  0.2384919E-05  0.5575424E+02  0.1765136E-06
  0.1738095E+00  0.6120227E+02  0.4271779E-04  0.3501324E-03  0.2491891E-05  0.5627088E+02  0.4650490E-06
  0.2047619E+00  0.6215571E+02  0.7966683E-04  0.4100037E-03  0.3856145E-05  0.5590292E+02  0.1002131E-05
  0.2357143E+00  0.6145308E+02  0.1404473E-03  0.2390869E-03  0.3162342E-05  0.5590742E+02  0.1863178E-05
  0.2666667E+00  0.6208832E+02  0.2413684E-03  0.3410876E-03  0.5163345E-05  0.5587218E+02  0.2632322E-05
  0.2976190E+00  0.6259262E+02  0.4064786E-03  0.4570198E-03  0.7145697E-05  0.5630438E+02  0.4280266E-05
  0.3285715E+00  0.6217018E+02  0.6782335E-03  0.7147373E-04  0.2567684E-05  0.5597836E+02  0.8083778E-05
  0.3595238E+00  0.6234011E+02  0.1124994E-02  0.2805129E-03  0.8239381E-05  0.5593557E+02  0.1370226E-04
  0.3904762E+00  0.6303859E+02  0.1849278E-02  0.2561400E-03  0.8556408E-05  0.5582542E+02  0.2158101E-04
  0.4214286E+00  0.6296491E+02  0.3001056E-02  0.6286774E-03  0.2414519E-04  0.5604557E+02  0.3527522E-04
  0.4523810E+00  0.6312370E+02  0.4834564E-02  0.6180750E-03  0.2932585E-04  0.5572242E+02  0.5645714E-04
  0.4833333E+00  0.6395961E+02  0.7609704E-02  0.7110628E-03  0.4060575E-04  0.5590123E+02  0.8793327E-04
  0.5142857E+00  0.6462640E+02  0.1177437E-01  0.4028612E-03  0.3086704E-04  0.5599292E+02  0.1371760E-03
  0.5452381E+00  0.6500917E+02  0.1779252E-01  0.4530161E-03  0.3836775E-04  0.5591845E+02  0.2091529E-03
  0.5761905E+00  0.6559948E+02  0.2629970E-01  0.6776752E-03  0.6908705E-04  0.5608821E+02  0.3135232E-03
  0.6071429E+00  0.6758080E+02  0.3818713E-01  0.6980054E-03  0.8928445E-04  0.5611374E+02  0.4616398E-03
  0.6380953E+00  0.6790061E+02  0.5426241E-01  0.6049249E-03  0.8130554E-04  0.5608946E+02  0.6578215E-03
  0.6690477E+00  0.6719275E+02  0.7575648E-01  0.1473529E-03  0.2396690E-04  0.5618651E+02  0.9212839E-03
  0.7000000E+00  0.6820353E+02  0.1042458E+00  0.4395416E-03  0.7839181E-04  0.5610290E+02  0.1284230E-02
  0.7309524E+00  0.6926968E+02  0.1414591E+00  0.3516169E-03  0.7901745E-04  0.5604086E+02  0.1760445E-02
  0.7619048E+00  0.7039944E+02  0.1896078E+00  0.5249306E-03  0.1108169E-03  0.5630157E+02  0.2377869E-02
  0.7928572E+00  0.7159803E+02  0.2510755E+00  0.3253662E-03  0.8409604E-04  0.5635126E+02  0.3180277E-02
  0.8238096E+00  0.7168782E+02  0.3289066E+00  0.2956321E-03  0.8839503E-04  0.5610732E+02  0.4200081E-02
  0.8547620E+00  0.7179588E+02  0.4266272E+00  0.2312328E-03  0.8305733E-04  0.5616701E+02  0.5488792E-02
  0.8857143E+00  0.7279984E+02  0.5481957E+00  0.2087508E-03  0.7522258E-04  0.5635360E+02  0.7119977E-02
  0.9166667E+00  0.7430251E+02  0.6984020E+00  0.3923503E-03  0.1382792E-03  0.5635836E+02  0.9172357E-02
  0.9476191E+00  0.7614940E+02  0.8828251E+00  0.3259445E-03  0.1396418E-03  0.5626819E+02  0.1173767E-01
  0.9785714E+00  0.7767625E+02  0.1108318E+01  0.5010445E-03  0.2036933E-03  0.5638368E+02  0.1488469E-01
  0.1009524E+01  0.7840578E+02  0.1381436E+01  0.3935763E-03  0.1830342E-03  0.5654453E+02  0.1871870E-01
  0.1040476E+01  0.7876353E+02  0.1709686E+01  0.5594544E-03  0.2606506E-03  0.5654033E+02  0.2338151E-01
  0.1071429E+01  0.7987940E+02  0.2101647E+01  0.4656315E-03  0.2638851E-03  0.5642227E+02  0.2906302E-01
  0.1102381E+01  0.8135979E+02  0.2567792E+01  0.4994895E-03  0.2808287E-03  0.5638841E+02  0.3581288E-01
  0.1133333E+01  0.8303909E+02  0.3121390E+01  0.1048691E-03  0.5129864E-04  0.5647478E+02  0.4407905E-01
  0.1164286E+01  0.8466524E+02  0.3773618E+01  0.2234114E-03  0.1433557E-03  0.5667698E+02  0.5390001E-01
  0.1195238E+01  0.8663098E+02  0.4537469E+01  0.2551269E-03  0.1814701E-03  0.5679751E+02  0.6576466E-01
  0.1226190E+01  0.8881929E+02  0.5429959E+01  0.3601000E-03  0.2747010E-03  0.5683197E+02  0.7971106E-01
  0.1257143E+01  0.9058422E+02  0.6467066E+01  0.2304261E-03  0.2082875E-03  0.5673446E+02  0.9606899E-01
  0.1288095E+01  0.9196457E+02  0.7676369E+01  0.3864761E-03  0.3164858E-03  0.5668823E+02  0.1153920E+00
  0.1319048E+01  0.9302652E+02  0.9073349E+01  0.2812478E-03  0.2165101E-03  0.5682352E+02  0.1377322E+00
  0.1350000E+01  0.9443591E+02  0.1066489E+02  0.3237194E-03  0.3369413E-03  0.5697836E+02  0.1641387E+00
  0.1380952E+01  0.9649991E+02  0.1247223E+02  0.1222347E-03  0.1010951E-03  0.5707675E+02  0.1936050E+00
  0.1411905E+01  0.9192690E+02  0.1386114E+02  0.2661282E-03  0.2955999E-03  0.5672540E+02  0.2171568E+00
  0.1442857E+01  0.9444045E+02  0.1608939E+02  0.2817352E-03  0.2901107E-03  0.5665019E+02  0.2550149E+00
  0.1473810E+01  0.9652902E+02  0.1861298E+02  0.2761419E-03  0.2834350E-03  0.5665182E+02  0.2988290E+00
  0.1504762E+01  0.9894225E+02  0.2146127E+02  0.5388637E-03  0.6768145E-03  0.5678966E+02  0.3504976E+00
  0.1535714E+01  0.1011626E+03  0.2466071E+02  0.2674945E-03  0.4380643E-03  0.5703345E+02  0.4083855E+00
  0.1566667E+01  0.1033016E+03  0.2823551E+02  0.8491759E-04  0.6187707E-04  0.5716710E+02  0.4744341E+00
  0.1597619E+01  0.1051496E+03  0.3220851E+02  0.3104061E-03  0.5050376E-03  0.5724514E+02  0.5487846E+00
  0.1628572E+01  0.1068169E+03  0.3662967E+02  0.1430302E-03  0.1880527E-03  0.5724039E+02  0.6335741E+00
  0.1659524E+01  0.1086249E+03  0.4151165E+02  0.3156361E-03  0.4451647E-03  0.5715690E+02  0.7253543E+00
  0.1690476E+01  0.1103016E+03  0.4682735E+02  0.3438466E-03  0.7304177E-03  0.5710509E+02  0.8303534E+00
  0.1721429E+01  0.1120650E+03  0.5265768E+02  0.2178612E-03  0.3622919E-03  0.5716352E+02  0.9406232E+00
  0.1752381E+01  0.1138116E+03  0.5900898E+02  0.1896594E-03  0.3202483E-03  0.5733521E+02  0.1068187E+01
  0.1783333E+01  0.1154044E+03  0.6584066E+02  0.1465272E-03  0.2798438E-03  0.5755807E+02  0.1215061E+01
  0.1814286E+01  0.1169229E+03  0.7324169E+02  0.1356170E-03  0.2437979E-03  0.5765651E+02  0.1369553E+01
  0.1845238E+01  0.1182915E+03  0.8117652E+02  0.1412238E-03  0.1408905E-03  0.5776108E+02  0.1541599E+01
  0.1876190E+01  0.1196006E+03  0.8966999E+02  0.1028044E-03  0.3610849E-03  0.5783251E+02  0.1731713E+01
  0.1907143E+01  0.1209087E+03  0.9875597E+02  0.4850524E-04  0.1468807E-03  0.5776887E+02  0.1929244E+01
  0.1938095E+01  0.1219748E+03  0.1082688E+03  0.3144314E-03  0.7211864E-03  0.5776286E+02  0.2135668E+01
  0.1969048E+01  0.1225757E+03  0.1183896E+03  0.1347656E-03  0.3877729E-03  0.5778595E+02  0.2367777E+01
  0.2000000E+01  0.1230783E+03  0.1289868E+03  0.1920462E-03  0.3616363E-03  0.5786755E+02  0.2606109E+01
