VARIABLES="w (rad/s)"
"abs(F   1   1)" "angle(F   1   1)"
"abs(F   1   2)" "angle(F   1   2)"
"abs(F   1   3)" "angle(F   1   3)"
Zone t="Diffraction force - beta =   0.000 deg",I=    64,F=POINT
  0.5000000E-01  0.1292717E+04 -0.1570777E+01  0.2345725E+06 -0.1800090E-04  0.3380828E+03 -0.1570853E+01
  0.8095238E-01  0.2109752E+04 -0.1570797E+01  0.2342100E+06 -0.4844333E-04  0.5472872E+03 -0.1570760E+01
  0.1119048E+00  0.2945278E+04 -0.1570797E+01  0.2336774E+06 -0.9623914E-04  0.7669876E+03 -0.1570839E+01
  0.1428571E+00  0.3806216E+04 -0.1570792E+01  0.2329732E+06 -0.1651357E-03  0.9949735E+03 -0.1570819E+01
  0.1738095E+00  0.4705109E+04 -0.1570796E+01  0.2320977E+06 -0.2607697E-03  0.1238702E+04 -0.1570796E+01
  0.2047619E+00  0.5648465E+04 -0.1570784E+01  0.2310470E+06 -0.3912434E-03  0.1495837E+04 -0.1570793E+01
  0.2357143E+00  0.6652013E+04 -0.1570781E+01  0.2298225E+06 -0.5686891E-03  0.1778847E+04 -0.1570783E+01
  0.2666667E+00  0.7728343E+04 -0.1570779E+01  0.2284194E+06 -0.8078935E-03  0.2085032E+04 -0.1570784E+01
  0.2976190E+00  0.8891277E+04 -0.1570772E+01  0.2268350E+06 -0.1133763E-02  0.2422486E+04 -0.1570766E+01
  0.3285715E+00  0.1016307E+05 -0.1570754E+01  0.2250710E+06 -0.1572237E-02  0.2804850E+04 -0.1570756E+01
  0.3595238E+00  0.1156015E+05 -0.1570736E+01  0.2231284E+06 -0.2163902E-02  0.3230806E+04 -0.1570739E+01
  0.3904762E+00  0.1309623E+05 -0.1570708E+01  0.2209991E+06 -0.2954795E-02  0.3704546E+04 -0.1570707E+01
  0.4214286E+00  0.1479122E+05 -0.1570661E+01  0.2187038E+06 -0.3976438E-02  0.4247188E+04 -0.1570666E+01
  0.4523810E+00  0.1665672E+05 -0.1570600E+01  0.2162407E+06 -0.5308200E-02  0.4862686E+04 -0.1570598E+01
  0.4833333E+00  0.1868680E+05 -0.1570511E+01  0.2136234E+06 -0.6920198E-02  0.5536229E+04 -0.1570507E+01
  0.5142857E+00  0.2087391E+05 -0.1570388E+01  0.2108521E+06 -0.8905781E-02  0.6282335E+04 -0.1570385E+01
  0.5452381E+00  0.2321336E+05 -0.1570225E+01  0.2079443E+06 -0.1124287E-01  0.7113580E+04 -0.1570224E+01
  0.5761905E+00  0.2569288E+05 -0.1570013E+01  0.2049108E+06 -0.1394339E-01  0.8023349E+04 -0.1570013E+01
  0.6071429E+00  0.2828896E+05 -0.1569742E+01  0.2017532E+06 -0.1708711E-01  0.8993210E+04 -0.1569741E+01
  0.6380953E+00  0.3097996E+05 -0.1569405E+01  0.1984617E+06 -0.2061011E-01  0.1001566E+05 -0.1569404E+01
  0.6690477E+00  0.3376986E+05 -0.1568988E+01  0.1950627E+06 -0.2459354E-01  0.1112708E+05 -0.1568985E+01
  0.7000000E+00  0.3665135E+05 -0.1568479E+01  0.1915722E+06 -0.2909150E-01  0.1232824E+05 -0.1568474E+01
  0.7309524E+00  0.3961219E+05 -0.1567868E+01  0.1879833E+06 -0.3407810E-01  0.1359976E+05 -0.1567861E+01
  0.7619048E+00  0.4263504E+05 -0.1567140E+01  0.1843022E+06 -0.3960404E-01  0.1492554E+05 -0.1567132E+01
  0.7928572E+00  0.4570600E+05 -0.1566283E+01  0.1805393E+06 -0.4570321E-01  0.1631053E+05 -0.1566270E+01
  0.8238096E+00  0.4882470E+05 -0.1565285E+01  0.1767063E+06 -0.5239774E-01  0.1777666E+05 -0.1565268E+01
  0.8547620E+00  0.5198543E+05 -0.1564136E+01  0.1728177E+06 -0.5970871E-01  0.1932999E+05 -0.1564113E+01
  0.8857143E+00  0.5518787E+05 -0.1562823E+01  0.1688775E+06 -0.6766149E-01  0.2096710E+05 -0.1562795E+01
  0.9166667E+00  0.5841011E+05 -0.1561341E+01  0.1648979E+06 -0.7627305E-01  0.2267332E+05 -0.1561303E+01
  0.9476191E+00  0.6163619E+05 -0.1559679E+01  0.1608802E+06 -0.8555917E-01  0.2443211E+05 -0.1559627E+01
  0.9785714E+00  0.6484736E+05 -0.1557833E+01  0.1568286E+06 -0.9553776E-01  0.2623031E+05 -0.1557762E+01
  0.1009524E+01  0.6803988E+05 -0.1555804E+01  0.1527479E+06 -0.1062298E+00  0.2808632E+05 -0.1555714E+01
  0.1040476E+01  0.7119977E+05 -0.1553598E+01  0.1486529E+06 -0.1176582E+00  0.3001088E+05 -0.1553483E+01
  0.1071429E+01  0.7432366E+05 -0.1551224E+01  0.1445535E+06 -0.1298404E+00  0.3199980E+05 -0.1551086E+01
  0.1102381E+01  0.7739236E+05 -0.1548695E+01  0.1404533E+06 -0.1428133E+00  0.3403802E+05 -0.1548529E+01
  0.1133333E+01  0.8038503E+05 -0.1546029E+01  0.1363652E+06 -0.1565790E+00  0.3610964E+05 -0.1545828E+01
  0.1164286E+01  0.8329302E+05 -0.1543249E+01  0.1322757E+06 -0.1711451E+00  0.3819882E+05 -0.1543004E+01
  0.1195238E+01  0.8608791E+05 -0.1540385E+01  0.1281884E+06 -0.1865304E+00  0.4029409E+05 -0.1540078E+01
  0.1226190E+01  0.8875650E+05 -0.1537476E+01  0.1241025E+06 -0.2027554E+00  0.4238087E+05 -0.1537094E+01
  0.1257143E+01  0.9127033E+05 -0.1534550E+01  0.1200331E+06 -0.2199919E+00  0.4444901E+05 -0.1534080E+01
  0.1288095E+01  0.9364898E+05 -0.1531733E+01  0.1159653E+06 -0.2378778E+00  0.4651051E+05 -0.1531169E+01
  0.1319048E+01  0.9584020E+05 -0.1529016E+01  0.1119338E+06 -0.2568547E+00  0.4853899E+05 -0.1528350E+01
  0.1350000E+01  0.9785503E+05 -0.1526502E+01  0.1079173E+06 -0.2768195E+00  0.5052983E+05 -0.1525725E+01
  0.1380952E+01  0.9967367E+05 -0.1524260E+01  0.1039171E+06 -0.2978609E+00  0.5246360E+05 -0.1523366E+01
  0.1411905E+01  0.1012547E+06 -0.1522451E+01  0.9999008E+05 -0.3192376E+00  0.5428961E+05 -0.1521440E+01
  0.1442857E+01  0.1026578E+06 -0.1520988E+01  0.9603842E+05 -0.3425257E+00  0.5608328E+05 -0.1519846E+01
  0.1473810E+01  0.1038401E+06 -0.1520055E+01  0.9211554E+05 -0.3671113E+00  0.5777640E+05 -0.1518789E+01
  0.1504762E+01  0.1047852E+06 -0.1519748E+01  0.8822742E+05 -0.3931055E+00  0.5936607E+05 -0.1518357E+01
  0.1535714E+01  0.1055020E+06 -0.1520167E+01  0.8435982E+05 -0.4206569E+00  0.6083179E+05 -0.1518673E+01
  0.1566667E+01  0.1059831E+06 -0.1521417E+01  0.8051162E+05 -0.4499207E+00  0.6217383E+05 -0.1519836E+01
  0.1597619E+01  0.1062291E+06 -0.1523583E+01  0.7670215E+05 -0.4811007E+00  0.6337583E+05 -0.1521945E+01
  0.1628572E+01  0.1062469E+06 -0.1526774E+01  0.7291732E+05 -0.5144483E+00  0.6443249E+05 -0.1525118E+01
  0.1659524E+01  0.1060402E+06 -0.1531080E+01  0.6916526E+05 -0.5503031E+00  0.6533872E+05 -0.1529462E+01
  0.1690476E+01  0.1056180E+06 -0.1536600E+01  0.6545272E+05 -0.5890678E+00  0.6609661E+05 -0.1535081E+01
  0.1721429E+01  0.1049930E+06 -0.1543412E+01  0.6179311E+05 -0.6315665E+00  0.6669441E+05 -0.1542094E+01
  0.1752381E+01  0.1041718E+06 -0.1551596E+01  0.5820014E+05 -0.6781762E+00  0.6714045E+05 -0.1550579E+01
  0.1783333E+01  0.1031737E+06 -0.1561243E+01  0.5467264E+05 -0.7297660E+00  0.6743317E+05 -0.1560651E+01
  0.1814286E+01  0.1020058E+06 -0.1572418E+01  0.5123070E+05 -0.7873515E+00  0.6757345E+05 -0.1572416E+01
  0.1845238E+01  0.1006870E+06 -0.1585170E+01  0.4793631E+05 -0.8518079E+00  0.6756195E+05 -0.1585961E+01
  0.1876190E+01  0.9923009E+05 -0.1599580E+01  0.4479255E+05 -0.9246085E+00  0.6740718E+05 -0.1601381E+01
  0.1907143E+01  0.9765234E+05 -0.1615696E+01  0.4186428E+05 -0.1006994E+01  0.6711447E+05 -0.1618807E+01
  0.1938095E+01  0.9596459E+05 -0.1633585E+01  0.3920368E+05 -0.1100247E+01  0.6669815E+05 -0.1638288E+01
  0.1969048E+01  0.9419144E+05 -0.1653274E+01  0.3690422E+05 -0.1205376E+01  0.6616079E+05 -0.1659972E+01
  0.2000000E+01  0.9233914E+05 -0.1674794E+01  0.3504187E+05 -0.1321663E+01  0.6551115E+05 -0.1683933E+01
