VARIABLES="w (rad/s)"
"A   1   1" "B   1   1"
"A   1   2" "B   1   2"
"A   1   3" "B   1   3"
Zone t="Motion of body    1 in DoF   1",I=    64,F=POINT
  0.5000000E-01  0.5983239E+05  0.2983842E-02  0.8354187E-02  0.1223224E-04 -0.1151152E+06 -0.5348944E-02
  0.8095238E-01  0.6024425E+05  0.1287986E-01  0.6738550E-02  0.2301326E-04 -0.1158753E+06 -0.2279063E-01
  0.1119048E+00  0.6030549E+05  0.3612009E-01  0.9885747E-03  0.9786454E-06 -0.1160148E+06 -0.6353398E-01
  0.1428571E+00  0.6042536E+05  0.8123686E-01  0.1575470E-02  0.2148509E-04 -0.1161104E+06 -0.1427548E+00
  0.1738095E+00  0.6051350E+05  0.1615324E+00  0.8164497E-02  0.1036818E-03 -0.1161861E+06 -0.2833165E+00
  0.2047619E+00  0.6057396E+05  0.2978783E+00  0.1777294E-01  0.2074917E-03 -0.1162422E+06 -0.5218440E+00
  0.2357143E+00  0.6063293E+05  0.5235739E+00  0.6020286E-02  0.1031626E-03 -0.1162792E+06 -0.9150612E+00
  0.2666667E+00  0.6073692E+05  0.8914614E+00  0.1029968E-01  0.2005133E-03 -0.1163994E+06 -0.1553039E+01
  0.2976190E+00  0.6082449E+05  0.1492321E+01  0.5126953E-02  0.6112270E-04 -0.1165018E+06 -0.2592712E+01
  0.3285715E+00  0.6092778E+05  0.2463641E+01  0.3808063E-02  0.1631174E-03 -0.1165675E+06 -0.4264380E+01
  0.3595238E+00  0.6104777E+05  0.4035284E+01 -0.2843591E-02 -0.3306940E-04 -0.1166728E+06 -0.6956059E+01
  0.3904762E+00  0.6121537E+05  0.6561407E+01  0.2266488E-02  0.1129061E-03 -0.1168082E+06 -0.1125834E+02
  0.4214286E+00  0.6135848E+05  0.1052509E+02  0.7024215E-02  0.2168790E-03 -0.1169944E+06 -0.1797901E+02
  0.4523810E+00  0.6144701E+05  0.1672490E+02  0.1177175E-01  0.7019788E-03 -0.1171210E+06 -0.2844251E+02
  0.4833333E+00  0.6174514E+05  0.2595176E+02  0.1957334E-02  0.3646761E-03 -0.1173982E+06 -0.4387184E+02
  0.5142857E+00  0.6195920E+05  0.3958158E+02  0.8426243E-02  0.6601810E-03 -0.1176324E+06 -0.6653973E+02
  0.5452381E+00  0.6215760E+05  0.5890951E+02  0.2966469E-02  0.3518462E-03 -0.1178437E+06 -0.9844360E+02
  0.5761905E+00  0.6233250E+05  0.8557219E+02  0.5720154E-02  0.7110238E-03 -0.1180791E+06 -0.1421431E+03
  0.6071429E+00  0.6264592E+05  0.1221221E+03  0.2513212E-02 -0.3492832E-03 -0.1183932E+06 -0.2014641E+03
  0.6380953E+00  0.6304229E+05  0.1705169E+03 -0.1673912E-02 -0.5544424E-03 -0.1187892E+06 -0.2792145E+03
  0.6690477E+00  0.6330801E+05  0.2337365E+03  0.2326286E-02  0.5507469E-04 -0.1190954E+06 -0.3799901E+03
  0.7000000E+00  0.6356050E+05  0.3154966E+03  0.1482282E-02  0.1323223E-03 -0.1194642E+06 -0.5093067E+03
  0.7309524E+00  0.6395629E+05  0.4195656E+03 -0.4008041E-02 -0.1101732E-02 -0.1198438E+06 -0.6716620E+03
  0.7619048E+00  0.6438344E+05  0.5506474E+03  0.3845214E-02  0.5741119E-03 -0.1202892E+06 -0.8739990E+03
  0.7928572E+00  0.6481338E+05  0.7138943E+03  0.6043029E-02  0.1277447E-02 -0.1207564E+06 -0.1123290E+04
  0.8238096E+00  0.6525462E+05  0.9150148E+03  0.2333801E-02  0.4043579E-03 -0.1211833E+06 -0.1426458E+04
  0.8547620E+00  0.6573018E+05  0.1160333E+04  0.5355452E-02  0.2471924E-02 -0.1217036E+06 -0.1792072E+04
  0.8857143E+00  0.6610152E+05  0.1455674E+04  0.5719585E-02  0.1132011E-02 -0.1221234E+06 -0.2227290E+04
  0.9166667E+00  0.6657122E+05  0.1810082E+04  0.4094904E-02  0.1071930E-02 -0.1226084E+06 -0.2742033E+04
  0.9476191E+00  0.6709315E+05  0.2231515E+04  0.7117190E-02  0.3482819E-02 -0.1230380E+06 -0.3343936E+04
  0.9785714E+00  0.6770394E+05  0.2729631E+04  0.6611399E-02  0.3528595E-02 -0.1235785E+06 -0.4045107E+04
  0.1009524E+01  0.6824050E+05  0.3311141E+04  0.7255123E-03 -0.2536774E-03 -0.1240879E+06 -0.4853359E+04
  0.1040476E+01  0.6872356E+05  0.3984991E+04 -0.5866079E-03 -0.1419067E-02 -0.1244674E+06 -0.5774096E+04
  0.1071429E+01  0.6921636E+05  0.4761894E+04 -0.2050781E-02 -0.1956940E-02 -0.1249084E+06 -0.6820589E+04
  0.1102381E+01  0.6966389E+05  0.5648879E+04 -0.3322000E-03 -0.3585815E-03 -0.1252171E+06 -0.7992851E+04
  0.1133333E+01  0.7016759E+05  0.6657447E+04  0.5385455E-03  0.2334595E-02 -0.1255639E+06 -0.9302081E+04
  0.1164286E+01  0.7061787E+05  0.7793295E+04 -0.5242283E-04 -0.9002686E-03 -0.1258323E+06 -0.1075128E+05
  0.1195238E+01  0.7102248E+05  0.9063514E+04  0.3625634E-02  0.3364563E-02 -0.1259449E+06 -0.1233677E+05
  0.1226190E+01  0.7144373E+05  0.1047976E+05  0.4878072E-02  0.3051758E-03 -0.1261471E+06 -0.1407767E+05
  0.1257143E+01  0.7171177E+05  0.1203580E+05 -0.6311590E-03 -0.3448486E-02 -0.1260823E+06 -0.1594551E+05
  0.1288095E+01  0.7205398E+05  0.1374678E+05  0.2179666E-02 -0.6652832E-02 -0.1260451E+06 -0.1794981E+05
  0.1319048E+01  0.7227273E+05  0.1560483E+05  0.1850885E-03 -0.4562378E-02 -0.1259261E+06 -0.2008483E+05
  0.1350000E+01  0.7233626E+05  0.1760238E+05  0.2983941E-02  0.3051758E-03 -0.1256154E+06 -0.2232352E+05
  0.1380952E+01  0.7226692E+05  0.1973401E+05 -0.5303745E-03 -0.7080078E-02 -0.1251193E+06 -0.2464546E+05
  0.1411905E+01  0.7174296E+05  0.2178776E+05 -0.1123953E-02 -0.4776001E-02 -0.1243992E+06 -0.2684733E+05
  0.1442857E+01  0.7150447E+05  0.2413848E+05 -0.1184445E-02 -0.3540039E-02 -0.1236527E+06 -0.2926427E+05
  0.1473810E+01  0.7120269E+05  0.2659311E+05  0.6170565E-02  0.8422852E-02 -0.1228238E+06 -0.3171216E+05
  0.1504762E+01  0.7084142E+05  0.2913704E+05  0.4867360E-03 -0.5035400E-02 -0.1219513E+06 -0.3417216E+05
  0.1535714E+01  0.7031297E+05  0.3174295E+05  0.6319267E-02  0.4089355E-02 -0.1209769E+06 -0.3662376E+05
  0.1566667E+01  0.6963562E+05  0.3437496E+05  0.5648998E-02  0.4882812E-02 -0.1198025E+06 -0.3898058E+05
  0.1597619E+01  0.6884016E+05  0.3702028E+05 -0.3820382E-02 -0.8239746E-03 -0.1185305E+06 -0.4124940E+05
  0.1628572E+01  0.6797880E+05  0.3966649E+05  0.7120768E-03 -0.5554199E-02 -0.1172664E+06 -0.4343557E+05
  0.1659524E+01  0.6699440E+05  0.4225529E+05 -0.3677871E-04  0.3356934E-03 -0.1158281E+06 -0.4542595E+05
  0.1690476E+01  0.6593778E+05  0.4478120E+05  0.7221060E-03 -0.2563477E-02 -0.1143426E+06 -0.4725055E+05
  0.1721429E+01  0.6482739E+05  0.4722024E+05  0.6382100E-03 -0.3356934E-02 -0.1128356E+06 -0.4887775E+05
  0.1752381E+01  0.6366846E+05  0.4956736E+05  0.1184215E-02  0.8544922E-03 -0.1113869E+06 -0.5035261E+05
  0.1783333E+01  0.6240842E+05  0.5177775E+05  0.4107038E-02  0.5065918E-02 -0.1098936E+06 -0.5161309E+05
  0.1814286E+01  0.6106420E+05  0.5380639E+05 -0.1883920E-02  0.5554199E-02 -0.1082826E+06 -0.5253363E+05
  0.1845238E+01  0.5970560E+05  0.5568805E+05  0.1488470E-02  0.5126953E-02 -0.1067531E+06 -0.5328226E+05
  0.1876190E+01  0.5836215E+05  0.5742901E+05  0.1659103E-02  0.6103516E-04 -0.1053429E+06 -0.5387496E+05
  0.1907143E+01  0.5700174E+05  0.5897466E+05  0.8320898E-03 -0.4272461E-02 -0.1039300E+06 -0.5419027E+05
  0.1938095E+01  0.5562824E+05  0.6031821E+05 -0.7243239E-03  0.5798340E-02 -0.1025218E+06 -0.5423111E+05
  0.1969048E+01  0.5430170E+05  0.6149639E+05 -0.2386792E-02 -0.4577637E-02 -0.1012260E+06 -0.5410275E+05
  0.2000000E+01  0.5302486E+05  0.6250555E+05 -0.1647949E-02 -0.5371094E-02 -0.1000391E+06 -0.5379044E+05
Zone t="Motion of body    1 in DoF   2",I=    64,F=POINT
  0.5000000E-01 -0.1144409E-02 -0.5245209E-05  0.2660591E+05  0.7373249E+02  0.1525879E-03  0.4172325E-04
  0.8095238E-01  0.9613037E-02  0.7629395E-05  0.2629752E+05  0.1223199E+03 -0.3369275E-02  0.3397465E-04
  0.1119048E+00 -0.1568084E-02  0.1907349E-05  0.2614217E+05  0.1753003E+03  0.6579135E-02  0.5364418E-04
  0.1428571E+00  0.1335144E-02  0.8583069E-05  0.2606119E+05  0.2347379E+03 -0.2670288E-02  0.1931190E-04
  0.1738095E+00 -0.4389515E-03  0.5340576E-04  0.2605958E+05  0.3032128E+03  0.3643297E-02 -0.2694130E-04
  0.2047619E+00 -0.4396660E-02  0.2384186E-04  0.2609991E+05  0.3840146E+03 -0.9836596E-02 -0.2050400E-04
  0.2357143E+00  0.4531397E-02  0.5149841E-04  0.2620467E+05  0.4817124E+03 -0.3463282E-02  0.1749992E-03
  0.2666667E+00  0.5149841E-03  0.2326965E-03  0.2632738E+05  0.6002731E+03  0.8697510E-02  0.4148483E-04
  0.2976190E+00  0.2050781E-03 -0.9155273E-04  0.2647638E+05  0.7483993E+03 -0.7023926E-02  0.5435944E-04
  0.3285715E+00 -0.4458220E-02  0.3433228E-04  0.2667166E+05  0.9309415E+03 -0.1349076E-01 -0.4968643E-03
  0.3595238E+00 -0.5008116E-02 -0.1068115E-03  0.2683913E+05  0.1158623E+04 -0.4541258E-02  0.3223419E-03
  0.3904762E+00  0.6486846E-02 -0.2593994E-03  0.2700748E+05  0.1439668E+04 -0.2813572E-02  0.1316071E-03
  0.4214286E+00 -0.5865581E-02  0.3738403E-03  0.2711782E+05  0.1772196E+04  0.5793167E-03 -0.5989075E-03
  0.4523810E+00  0.3980134E-02  0.2899170E-03  0.2720225E+05  0.2173590E+04  0.1194040E-01 -0.2689362E-03
  0.4833333E+00  0.1325936E-02  0.4348755E-03  0.2718887E+05  0.2613392E+04  0.1957334E-02 -0.3242493E-03
  0.5142857E+00 -0.6764730E-02 -0.9918213E-04  0.2709093E+05  0.3111761E+04  0.9998746E-02  0.4463196E-03
  0.5452381E+00  0.2686613E-02  0.1327515E-02  0.2695247E+05  0.3643470E+04  0.7080345E-02 -0.2822876E-03
  0.5761905E+00  0.1133438E-01 -0.1525879E-03  0.2674476E+05  0.4200577E+04  0.1620710E-01  0.6904602E-03
  0.6071429E+00  0.1005285E-03 -0.7019043E-03  0.2646404E+05  0.4794927E+04 -0.3669290E-02 -0.5264282E-03
  0.6380953E+00  0.6313039E-02 -0.7324219E-03  0.2616114E+05  0.5396762E+04  0.1793477E-02  0.3845215E-02
  0.6690477E+00 -0.3010488E-02  0.1190186E-02  0.2581332E+05  0.6017104E+04  0.3649077E-02  0.3494263E-02
  0.7000000E+00  0.3574916E-02 -0.3204346E-03  0.2543053E+05  0.6657723E+04 -0.2593994E-02  0.1045227E-02
  0.7309524E+00 -0.2087521E-02 -0.1586914E-02  0.2502886E+05  0.7303175E+04 -0.8057833E-02 -0.2029419E-02
  0.7619048E+00  0.2082824E-02 -0.5798340E-03  0.2458710E+05  0.7955743E+04  0.6008148E-02  0.3196716E-02
  0.7928572E+00  0.6697371E-02 -0.2136230E-02  0.2411149E+05  0.8612864E+04 -0.5427179E-02  0.4562378E-02
  0.8238096E+00  0.5482580E-02 -0.2899170E-02  0.2361858E+05  0.9268895E+04 -0.2074490E-02 -0.4730225E-03
  0.8547620E+00  0.1071090E-01  0.1464844E-02  0.2312079E+05  0.9917879E+04  0.2856241E-02  0.2380371E-02
  0.8857143E+00  0.7580173E-02 -0.6103516E-03  0.2260439E+05  0.1055882E+05 -0.2549694E-02  0.1693726E-02
  0.9166667E+00 -0.1398260E-02  0.8544922E-03  0.2207854E+05  0.1118701E+05  0.6658381E-04  0.4928589E-02
  0.9476191E+00 -0.3864537E-02 -0.3601074E-02  0.2153040E+05  0.1180072E+05  0.1130377E-01  0.1205444E-02
  0.9785714E+00  0.3056213E-02  0.1373291E-02  0.2097675E+05  0.1239356E+05  0.6018868E-02  0.4119873E-03
  0.1009524E+01  0.1027809E-02 -0.1342773E-02  0.2041763E+05  0.1296478E+05  0.5562261E-02  0.2288818E-03
  0.1040476E+01  0.2757057E-02 -0.2502441E-02  0.1985796E+05  0.1351133E+05 -0.1404926E-01 -0.2136230E-02
  0.1071429E+01 -0.3531901E-02 -0.1708984E-02  0.1930867E+05  0.1402863E+05 -0.6835938E-03  0.9704590E-02
  0.1102381E+01 -0.1107333E-02  0.3906250E-02  0.1876500E+05  0.1451765E+05  0.1791112E-01  0.3494263E-02
  0.1133333E+01  0.5385455E-04 -0.2319336E-02  0.1822820E+05  0.1497511E+05  0.2962000E-03 -0.3051758E-04
  0.1164286E+01  0.2096913E-02  0.1586914E-02  0.1769859E+05  0.1540363E+05  0.5740300E-02  0.9460449E-03
  0.1195238E+01  0.2808590E-02 -0.1159668E-02  0.1717037E+05  0.1580202E+05 -0.9651336E-02 -0.8300781E-02
  0.1226190E+01  0.1144854E-02  0.1708984E-02  0.1666141E+05  0.1616398E+05  0.8636178E-02 -0.3051758E-02
  0.1257143E+01 -0.9224631E-03  0.2136230E-02  0.1615816E+05  0.1650630E+05 -0.3641302E-03  0.1220703E-03
  0.1288095E+01  0.1705825E-02 -0.2624512E-02  0.1567513E+05  0.1678985E+05  0.2369202E-03 -0.1586914E-02
  0.1319048E+01  0.2406151E-02 -0.1220703E-03  0.1521133E+05  0.1704753E+05 -0.8884250E-02  0.3479004E-02
  0.1350000E+01  0.1356337E-02  0.7934570E-03  0.1476375E+05  0.1727456E+05 -0.1078288E-01  0.2349854E-02
  0.1380952E+01 -0.4198798E-02  0.5187988E-02  0.1433404E+05  0.1746832E+05  0.7403144E-02 -0.3204346E-02
  0.1411905E+01  0.3588002E-02 -0.1770020E-02  0.1388704E+05  0.1761842E+05  0.3328629E-02  0.2166748E-02
  0.1442857E+01  0.2326588E-02  0.1281738E-02  0.1349209E+05  0.1775470E+05 -0.5287699E-03 -0.5493164E-03
  0.1473810E+01  0.3934253E-02  0.2685547E-02  0.1311740E+05  0.1786114E+05 -0.5922086E-02 -0.1586914E-02
  0.1504762E+01 -0.3731643E-02 -0.1220703E-02  0.1276105E+05  0.1793423E+05  0.2251154E-02 -0.4760742E-02
  0.1535714E+01  0.6359011E-03  0.1464844E-02  0.1242359E+05  0.1798586E+05  0.2980787E-02 -0.4516602E-02
  0.1566667E+01  0.3233565E-02  0.3051758E-03  0.1209717E+05  0.1801205E+05 -0.1079153E-01  0.1525879E-03
  0.1597619E+01  0.1146115E-02 -0.4150391E-02  0.1179136E+05  0.1801417E+05 -0.9741975E-03 -0.3631592E-02
  0.1628572E+01 -0.1199287E-02 -0.4394531E-02  0.1150934E+05  0.1798860E+05  0.8535552E-02  0.1831055E-02
  0.1659524E+01  0.2280280E-02 -0.5859375E-02  0.1123921E+05  0.1794267E+05  0.2206723E-02  0.1342773E-02
  0.1690476E+01 -0.1119264E-02  0.7324219E-03  0.1098851E+05  0.1787677E+05  0.3276556E-02 -0.1678467E-02
  0.1721429E+01  0.2091910E-02 -0.3540039E-02  0.1075327E+05  0.1778757E+05 -0.2747848E-03 -0.4272461E-03
  0.1752381E+01  0.2681898E-02 -0.4394531E-02  0.1053746E+05  0.1767915E+05 -0.4057677E-02 -0.2807617E-02
  0.1783333E+01 -0.3422532E-04  0.1953125E-02  0.1033637E+05  0.1756434E+05 -0.2857814E-02  0.5706787E-02
  0.1814286E+01 -0.8410357E-03 -0.3662109E-03  0.1014006E+05  0.1742867E+05 -0.4020150E-02 -0.1434326E-02
  0.1845238E+01 -0.3307712E-04  0.2807617E-02  0.9963044E+04  0.1728521E+05 -0.4134640E-04 -0.8239746E-03
  0.1876190E+01  0.3090486E-03  0.1342773E-02  0.9804724E+04  0.1712702E+05 -0.5953251E-02  0.5187988E-03
  0.1907143E+01 -0.1056114E-02 -0.4882812E-03  0.9655479E+04  0.1695724E+05  0.7672828E-02  0.6256104E-02
  0.1938095E+01  0.1999764E-02  0.3662109E-03  0.9515776E+04  0.1677748E+05  0.8353343E-02 -0.7324219E-02
  0.1969048E+01 -0.2603773E-02 -0.2075195E-02  0.9390993E+04  0.1658604E+05 -0.3835916E-02  0.6500244E-02
  0.2000000E+01  0.8697510E-03  0.3662109E-03  0.9279979E+04  0.1637984E+05  0.4875183E-02 -0.1861572E-02
Zone t="Motion of body    1 in DoF   3",I=    64,F=POINT
  0.5000000E-01 -0.1148911E+06 -0.5329944E-02  0.6980896E-02  0.4699896E-04  0.3879324E+06  0.9793879E-02
  0.8095238E-01 -0.1157053E+06 -0.2267595E-01  0.1974442E-01  0.1162625E-03  0.3888586E+06  0.4040025E-01
  0.1119048E+00 -0.1158469E+06 -0.6321638E-01 -0.7942687E-02 -0.2339453E-04  0.3890562E+06  0.1109596E+00
  0.1428571E+00 -0.1159533E+06 -0.1420545E+00 -0.2882576E-01 -0.1638130E-03  0.3891144E+06  0.2494881E+00
  0.1738095E+00 -0.1160326E+06 -0.2820110E+00 -0.2269379E-01 -0.2452158E-03  0.3891860E+06  0.4940211E+00
  0.2047619E+00 -0.1160901E+06 -0.5193005E+00 -0.1056316E-01 -0.9151269E-04  0.3892372E+06  0.9092303E+00
  0.2357143E+00 -0.1161188E+06 -0.9105492E+00 -0.5324392E-02 -0.3980473E-05  0.3893262E+06  0.1590876E+01
  0.2666667E+00 -0.1162453E+06 -0.1545294E+01 -0.1989841E-01 -0.4047398E-03  0.3894004E+06  0.2692191E+01
  0.2976190E+00 -0.1163455E+06 -0.2579781E+01 -0.1338135E-01 -0.3174841E-03  0.3895356E+06  0.4482909E+01
  0.3285715E+00 -0.1164040E+06 -0.4243435E+01 -0.1606817E-01 -0.4797019E-03  0.3896344E+06  0.7345240E+01
  0.3595238E+00 -0.1165063E+06 -0.6922703E+01  0.1061042E-02 -0.1753233E-03  0.3897638E+06  0.1193233E+02
  0.3904762E+00 -0.1166452E+06 -0.1120711E+02 -0.4884673E-03 -0.1247227E-03  0.3899237E+06  0.1922906E+02
  0.4214286E+00 -0.1168290E+06 -0.1789271E+02 -0.9775969E-03  0.2605468E-03  0.3901094E+06  0.3056255E+02
  0.4523810E+00 -0.1169410E+06 -0.2829560E+02 -0.3558510E-02  0.1535714E-03  0.3903277E+06  0.4812630E+02
  0.4833333E+00 -0.1172314E+06 -0.4366721E+02 -0.1862625E-02 -0.3005564E-03  0.3906131E+06  0.7381728E+02
  0.5142857E+00 -0.1174646E+06 -0.6622955E+02 -0.2391391E-01 -0.1324296E-02  0.3908942E+06  0.1113319E+03
  0.5452381E+00 -0.1176721E+06 -0.9797588E+02  0.3078411E-02 -0.2626777E-03  0.3911258E+06  0.1637315E+03
  0.5761905E+00 -0.1178957E+06 -0.1414089E+03 -0.2648219E-01 -0.2569914E-02  0.3914436E+06  0.2348957E+03
  0.6071429E+00 -0.1182118E+06 -0.2004750E+03  0.1658720E-02  0.3643036E-03  0.3918365E+06  0.3307641E+03
  0.6380953E+00 -0.1186199E+06 -0.2779475E+03 -0.5786953E-02 -0.1116991E-02  0.3922359E+06  0.4551179E+03
  0.6690477E+00 -0.1189174E+06 -0.3781619E+03 -0.3192942E-03 -0.1978874E-03  0.3926215E+06  0.6147744E+03
  0.7000000E+00 -0.1192707E+06 -0.5064758E+03 -0.9068079E-02 -0.1709461E-02  0.3931014E+06  0.8176534E+03
  0.7309524E+00 -0.1196516E+06 -0.6681368E+03  0.2045771E-01  0.4546642E-02  0.3935223E+06  0.1069587E+04
  0.7619048E+00 -0.1200989E+06 -0.8694957E+03 -0.3384590E-02  0.9431839E-03  0.3940176E+06  0.1380034E+04
  0.7928572E+00 -0.1205644E+06 -0.1117387E+04  0.3829818E-02 -0.1237869E-02  0.3945533E+06  0.1758062E+04
  0.8238096E+00 -0.1209893E+06 -0.1419122E+04 -0.5797457E-02  0.5397797E-03  0.3950346E+06  0.2212213E+04
  0.8547620E+00 -0.1215067E+06 -0.1782346E+04  0.6551503E-02  0.2883911E-02  0.3955272E+06  0.2752664E+04
  0.8857143E+00 -0.1219098E+06 -0.2213852E+04 -0.2032864E-02 -0.3433228E-03  0.3959772E+06  0.3387420E+04
  0.9166667E+00 -0.1223855E+06 -0.2724930E+04  0.1874334E-01  0.1081657E-01  0.3965158E+06  0.4127851E+04
  0.9476191E+00 -0.1228182E+06 -0.3324402E+04 -0.5700193E-02 -0.1728058E-02  0.3969205E+06  0.4981196E+04
  0.9785714E+00 -0.1233673E+06 -0.4022364E+04  0.1528106E-01  0.1211929E-01  0.3973216E+06  0.5959831E+04
  0.1009524E+01 -0.1238702E+06 -0.4824530E+04 -0.6771448E-02 -0.4489899E-02  0.3977693E+06  0.7070185E+04
  0.1040476E+01 -0.1242443E+06 -0.5739309E+04  0.2698396E-02  0.1789093E-02  0.3980512E+06  0.8314482E+04
  0.1071429E+01 -0.1246711E+06 -0.6775656E+04 -0.2193197E-02  0.1220703E-03  0.3983777E+06  0.9703727E+04
  0.1102381E+01 -0.1249718E+06 -0.7938579E+04  0.7169983E-02  0.7987976E-02  0.3985262E+06  0.1123237E+05
  0.1133333E+01 -0.1253135E+06 -0.9237470E+04  0.3527473E-02 -0.3051758E-04  0.3986086E+06  0.1290626E+05
  0.1164286E+01 -0.1255753E+06 -0.1067445E+05  0.1289602E-01  0.1560974E-01  0.3986584E+06  0.1472350E+05
  0.1195238E+01 -0.1256926E+06 -0.1225163E+05  0.1404295E-02  0.3776550E-02  0.3984638E+06  0.1667036E+05
  0.1226190E+01 -0.1258874E+06 -0.1397432E+05 -0.8561514E-02 -0.7934570E-03  0.3983506E+06  0.1876109E+05
  0.1257143E+01 -0.1258212E+06 -0.1582503E+05 -0.8496371E-03  0.6103516E-02  0.3979137E+06  0.2095148E+05
  0.1288095E+01 -0.1257921E+06 -0.1782020E+05  0.7273450E-02  0.1588440E-01  0.3974559E+06  0.2325296E+05
  0.1319048E+01 -0.1256638E+06 -0.1992983E+05  0.8005080E-02  0.1033020E-01  0.3968749E+06  0.2563391E+05
  0.1350000E+01 -0.1253453E+06 -0.2214007E+05 -0.6419994E-02  0.4577637E-03  0.3961261E+06  0.2806403E+05
  0.1380952E+01 -0.1248489E+06 -0.2443560E+05 -0.5303745E-03  0.3143311E-02  0.3951714E+06  0.3050934E+05
  0.1411905E+01 -0.1244628E+06 -0.2677428E+05 -0.1145567E-02  0.7934570E-03  0.3943155E+06  0.3298283E+05
  0.1442857E+01 -0.1237241E+06 -0.2919058E+05 -0.3997501E-02  0.3967285E-02  0.3930753E+06  0.3537584E+05
  0.1473810E+01 -0.1229046E+06 -0.3164079E+05  0.3230229E-02  0.5096436E-02  0.3917579E+06  0.3770964E+05
  0.1504762E+01 -0.1220326E+06 -0.3408686E+05  0.1277682E-02  0.9857178E-02  0.3902912E+06  0.3993473E+05
  0.1535714E+01 -0.1210549E+06 -0.3650948E+05  0.6915424E-02 -0.2105713E-02  0.3888631E+06  0.4206791E+05
  0.1566667E+01 -0.1198876E+06 -0.3884930E+05 -0.2376475E-02 -0.3387451E-02  0.3872026E+06  0.4398343E+05
  0.1597619E+01 -0.1186279E+06 -0.4110703E+05 -0.1642764E-02  0.1892090E-01  0.3855348E+06  0.4572698E+05
  0.1628572E+01 -0.1173678E+06 -0.4326610E+05 -0.5246882E-03  0.1263428E-01  0.3839314E+06  0.4727825E+05
  0.1659524E+01 -0.1159452E+06 -0.4525737E+05 -0.5057074E-02  0.6225586E-02  0.3821719E+06  0.4853221E+05
  0.1690476E+01 -0.1144757E+06 -0.4709288E+05  0.1335896E-02  0.9765625E-02  0.3804576E+06  0.4955069E+05
  0.1721429E+01 -0.1129782E+06 -0.4871656E+05 -0.4963855E-03  0.7812500E-02  0.3786739E+06  0.5024960E+05
  0.1752381E+01 -0.1115285E+06 -0.5015470E+05  0.6408692E-02  0.4943848E-02  0.3770220E+06  0.5071434E+05
  0.1783333E+01 -0.1100414E+06 -0.5139297E+05  0.8607669E-02  0.3601074E-02  0.3755215E+06  0.5100375E+05
  0.1814286E+01 -0.1084465E+06 -0.5232579E+05 -0.4036971E-03 -0.6103516E-03  0.3738193E+06  0.5079607E+05
  0.1845238E+01 -0.1069315E+06 -0.5308343E+05 -0.3473097E-03  0.4455566E-02  0.3723572E+06  0.5047497E+05
  0.1876190E+01 -0.1055286E+06 -0.5365085E+05  0.2049480E-02 -0.6103516E-03  0.3710724E+06  0.4995932E+05
  0.1907143E+01 -0.1041278E+06 -0.5395783E+05 -0.1496161E-02  0.1062012E-01  0.3698000E+06  0.4915519E+05
  0.1938095E+01 -0.1027370E+06 -0.5402254E+05  0.5652875E-02  0.1666260E-01  0.3685866E+06  0.4810478E+05
  0.1969048E+01 -0.1014531E+06 -0.5390320E+05 -0.4339622E-03  0.1135254E-01  0.3675258E+06  0.4692524E+05
  0.2000000E+01 -0.1002756E+06 -0.5356148E+05  0.7499695E-02  0.6103516E-02  0.3665256E+06  0.4547739E+05
