VARIABLES="w (rad/s)"
"abs(F   1   1)" "angle(F   1   1)"
"abs(F   1   2)" "angle(F   1   2)"
"abs(F   1   3)" "angle(F   1   3)"
Zone t="Diffraction force - beta =   0.000 deg",I=    64,F=POINT
  0.5000000E-01  0.3762415E+04 -0.1570777E+01  0.4505174E+06 -0.3078593E-04  0.4500271E+04  0.1570765E+01
  0.8095238E-01  0.6142860E+04 -0.1570801E+01  0.4496332E+06 -0.8280519E-04  0.7340094E+04  0.1570791E+01
  0.1119048E+00  0.8572227E+04 -0.1570788E+01  0.4483353E+06 -0.1643853E-03  0.1022696E+05  0.1570792E+01
  0.1428571E+00  0.1108012E+05 -0.1570785E+01  0.4466230E+06 -0.2817678E-03  0.1318046E+05  0.1570803E+01
  0.1738095E+00  0.1368592E+05 -0.1570782E+01  0.4444922E+06 -0.4443229E-03  0.1624114E+05  0.1570814E+01
  0.2047619E+00  0.1642212E+05 -0.1570779E+01  0.4419412E+06 -0.6656418E-03  0.1942203E+05  0.1570819E+01
  0.2357143E+00  0.1933892E+05 -0.1570759E+01  0.4389663E+06 -0.9657973E-03  0.2276388E+05  0.1570828E+01
  0.2666667E+00  0.2243406E+05 -0.1570748E+01  0.4355603E+06 -0.1368947E-02  0.2632017E+05  0.1570844E+01
  0.2976190E+00  0.2579768E+05 -0.1570724E+01  0.4317282E+06 -0.1916683E-02  0.3010852E+05  0.1570861E+01
  0.3285715E+00  0.2948177E+05 -0.1570696E+01  0.4274623E+06 -0.2650276E-02  0.3417889E+05  0.1570908E+01
  0.3595238E+00  0.3347966E+05 -0.1570641E+01  0.4227733E+06 -0.3636615E-02  0.3860962E+05  0.1570947E+01
  0.3904762E+00  0.3789493E+05 -0.1570570E+01  0.4176602E+06 -0.4949266E-02  0.4339341E+05  0.1571019E+01
  0.4214286E+00  0.4278388E+05 -0.1570459E+01  0.4121924E+06 -0.6635399E-02  0.4860969E+05  0.1571135E+01
  0.4523810E+00  0.4811773E+05 -0.1570297E+01  0.4063438E+06 -0.8822764E-02  0.5425184E+05  0.1571293E+01
  0.4833333E+00  0.5390346E+05 -0.1570076E+01  0.4001752E+06 -0.1145374E-01  0.6029532E+05  0.1571516E+01
  0.5142857E+00  0.6015948E+05 -0.1569769E+01  0.3937393E+06 -0.1467853E-01  0.6666784E+05  0.1571823E+01
  0.5452381E+00  0.6686638E+05 -0.1569363E+01  0.3870522E+06 -0.1844579E-01  0.7333416E+05  0.1572230E+01
  0.5761905E+00  0.7390236E+05 -0.1568836E+01  0.3801321E+06 -0.2276534E-01  0.8026672E+05  0.1572755E+01
  0.6071429E+00  0.8122364E+05 -0.1568159E+01  0.3730062E+06 -0.2775924E-01  0.8734687E+05  0.1573435E+01
  0.6380953E+00  0.8889701E+05 -0.1567320E+01  0.3656746E+06 -0.3331886E-01  0.9446201E+05  0.1574271E+01
  0.6690477E+00  0.9682280E+05 -0.1566286E+01  0.3582248E+06 -0.3955728E-01  0.1016400E+06  0.1575307E+01
  0.7000000E+00  0.1049901E+06 -0.1565021E+01  0.3506605E+06 -0.4654195E-01  0.1088387E+06  0.1576573E+01
  0.7309524E+00  0.1133233E+06 -0.1563505E+01  0.3429400E+06 -0.5421905E-01  0.1159509E+06  0.1578089E+01
  0.7619048E+00  0.1217722E+06 -0.1561703E+01  0.3351304E+06 -0.6266101E-01  0.1229869E+06  0.1579889E+01
  0.7928572E+00  0.1303793E+06 -0.1559585E+01  0.3272854E+06 -0.7191706E-01  0.1298070E+06  0.1582008E+01
  0.8238096E+00  0.1391707E+06 -0.1557120E+01  0.3194243E+06 -0.8199952E-01  0.1364045E+06  0.1584475E+01
  0.8547620E+00  0.1480906E+06 -0.1554281E+01  0.3115560E+06 -0.9291454E-01  0.1428312E+06  0.1587316E+01
  0.8857143E+00  0.1569885E+06 -0.1551037E+01  0.3037012E+06 -0.1046781E+00  0.1489699E+06  0.1590562E+01
  0.9166667E+00  0.1658763E+06 -0.1547363E+01  0.2958458E+06 -0.1173004E+00  0.1548327E+06  0.1594236E+01
  0.9476191E+00  0.1746833E+06 -0.1543244E+01  0.2880379E+06 -0.1308102E+00  0.1602573E+06  0.1598349E+01
  0.9785714E+00  0.1834913E+06 -0.1538683E+01  0.2802904E+06 -0.1452197E+00  0.1652332E+06  0.1602910E+01
  0.1009524E+01  0.1921964E+06 -0.1533671E+01  0.2726491E+06 -0.1605555E+00  0.1698001E+06  0.1607929E+01
  0.1040476E+01  0.2007280E+06 -0.1528211E+01  0.2651350E+06 -0.1768209E+00  0.1737900E+06  0.1613401E+01
  0.1071429E+01  0.2091060E+06 -0.1522321E+01  0.2577339E+06 -0.1939949E+00  0.1773764E+06  0.1619308E+01
  0.1102381E+01  0.2171830E+06 -0.1516025E+01  0.2504414E+06 -0.2120765E+00  0.1802875E+06  0.1625615E+01
  0.1133333E+01  0.2249471E+06 -0.1509367E+01  0.2432582E+06 -0.2310439E+00  0.1826487E+06  0.1632268E+01
  0.1164286E+01  0.2322370E+06 -0.1502375E+01  0.2361858E+06 -0.2509452E+00  0.1844518E+06  0.1639235E+01
  0.1195238E+01  0.2390047E+06 -0.1495149E+01  0.2292652E+06 -0.2717945E+00  0.1854208E+06  0.1646413E+01
  0.1226190E+01  0.2453432E+06 -0.1487791E+01  0.2224598E+06 -0.2935879E+00  0.1858083E+06  0.1653734E+01
  0.1257143E+01  0.2510689E+06 -0.1480346E+01  0.2158424E+06 -0.3165513E+00  0.1853742E+06  0.1661145E+01
  0.1288095E+01  0.2563207E+06 -0.1473117E+01  0.2093694E+06 -0.3400592E+00  0.1842755E+06  0.1668355E+01
  0.1319048E+01  0.2609108E+06 -0.1466019E+01  0.2030762E+06 -0.3646888E+00  0.1826090E+06  0.1675421E+01
  0.1350000E+01  0.2647660E+06 -0.1459236E+01  0.1969541E+06 -0.3902619E+00  0.1802685E+06  0.1682159E+01
  0.1380952E+01  0.2678777E+06 -0.1452940E+01  0.1909868E+06 -0.4167005E+00  0.1771808E+06  0.1688372E+01
  0.1411905E+01  0.2695390E+06 -0.1448582E+01  0.1855848E+06 -0.4410679E+00  0.1735368E+06  0.1692687E+01
  0.1442857E+01  0.2712699E+06 -0.1443767E+01  0.1799270E+06 -0.4691858E+00  0.1692875E+06  0.1697438E+01
  0.1473810E+01  0.2723013E+06 -0.1439892E+01  0.1744148E+06 -0.4982174E+00  0.1645142E+06  0.1701257E+01
  0.1504762E+01  0.2726440E+06 -0.1437101E+01  0.1690564E+06 -0.5281095E+00  0.1592965E+06  0.1703939E+01
  0.1535714E+01  0.2722941E+06 -0.1435479E+01  0.1638562E+06 -0.5589874E+00  0.1537448E+06  0.1705499E+01
  0.1566667E+01  0.2712538E+06 -0.1435198E+01  0.1588432E+06 -0.5907979E+00  0.1477909E+06  0.1705668E+01
  0.1597619E+01  0.2695982E+06 -0.1436371E+01  0.1539794E+06 -0.6234922E+00  0.1415365E+06  0.1704374E+01
  0.1628572E+01  0.2674234E+06 -0.1439073E+01  0.1492475E+06 -0.6571714E+00  0.1351684E+06  0.1701624E+01
  0.1659524E+01  0.2647170E+06 -0.1443430E+01  0.1446823E+06 -0.6917267E+00  0.1285869E+06  0.1697128E+01
  0.1690476E+01  0.2615495E+06 -0.1449505E+01  0.1402547E+06 -0.7271682E+00  0.1218987E+06  0.1690906E+01
  0.1721429E+01  0.2579946E+06 -0.1457365E+01  0.1359505E+06 -0.7634653E+00  0.1151750E+06  0.1682865E+01
  0.1752381E+01  0.2541096E+06 -0.1467032E+01  0.1317659E+06 -0.8006757E+00  0.1084938E+06  0.1673045E+01
  0.1783333E+01  0.2499078E+06 -0.1478490E+01  0.1277346E+06 -0.8388909E+00  0.1018879E+06  0.1661602E+01
  0.1814286E+01  0.2454348E+06 -0.1491836E+01  0.1238420E+06 -0.8778304E+00  0.9530030E+05  0.1647994E+01
  0.1845238E+01  0.2407663E+06 -0.1507009E+01  0.1200617E+06 -0.9177200E+00  0.8887351E+05  0.1632733E+01
  0.1876190E+01  0.2359581E+06 -0.1524004E+01  0.1163934E+06 -0.9587265E+00  0.8264121E+05  0.1615849E+01
  0.1907143E+01  0.2310229E+06 -0.1542853E+01  0.1128479E+06 -0.1000622E+01  0.7656131E+05  0.1597016E+01
  0.1938095E+01  0.2259858E+06 -0.1563525E+01  0.1094318E+06 -0.1043329E+01  0.7067207E+05  0.1576450E+01
  0.1969048E+01  0.2209040E+06 -0.1585985E+01  0.1061089E+06 -0.1087033E+01  0.6500754E+05  0.1554320E+01
  0.2000000E+01  0.2158000E+06 -0.1610261E+01  0.1028804E+06 -0.1131604E+01  0.5952139E+05  0.1530269E+01
