VARIABLES="w (rad/s)"
"A   1   1" "B   1   1"
"A   1   2" "B   1   2"
"A   1   3" "B   1   3"
Zone t="Motion of body    1 in DoF   1",I=    64,F=POINT
  0.5000000E-01  0.1026484E+06  0.9814059E-02  0.2059937E-02  0.1125437E-04 -0.1463261E+06 -0.1188818E-01
  0.8095238E-01  0.1032763E+06  0.4307359E-01 -0.6314446E-02 -0.3471476E-04 -0.1470750E+06 -0.5156244E-01
  0.1119048E+00  0.1034797E+06  0.1208402E+00 -0.2181682E-01 -0.1166863E-03 -0.1472971E+06 -0.1440435E+00
  0.1428571E+00  0.1036911E+06  0.2716590E+00  0.1110840E-01  0.9775767E-04 -0.1472788E+06 -0.3230162E+00
  0.1738095E+00  0.1038010E+06  0.5400489E+00  0.8866820E-02  0.9755744E-04 -0.1474263E+06 -0.6407307E+00
  0.2047619E+00  0.1039114E+06  0.9943921E+00 -0.5887053E-02 -0.2830476E-04 -0.1474315E+06 -0.1176183E+01
  0.2357143E+00  0.1042327E+06  0.1748371E+01 -0.1009854E-01 -0.2217181E-03 -0.1474535E+06 -0.2057897E+01
  0.2666667E+00  0.1042425E+06  0.2974113E+01  0.2677917E-01  0.4529133E-03 -0.1476551E+06 -0.3489106E+01
  0.2976190E+00  0.1044889E+06  0.4976799E+01 -0.1138184E-01 -0.4947595E-03 -0.1477353E+06 -0.5809593E+01
  0.3285715E+00  0.1049196E+06  0.8215755E+01  0.1383906E-01  0.5654991E-03 -0.1477678E+06 -0.9523587E+01
  0.3595238E+00  0.1050554E+06  0.1344029E+02 -0.3904633E-02 -0.4262775E-03 -0.1479982E+06 -0.1549765E+02
  0.3904762E+00  0.1053453E+06  0.2183446E+02  0.5001905E-02  0.9201467E-04 -0.1480544E+06 -0.2500071E+02
  0.4214286E+00  0.1058465E+06  0.3501252E+02  0.3555556E-01  0.1684457E-02 -0.1482792E+06 -0.3977221E+02
  0.4523810E+00  0.1062386E+06  0.5562368E+02  0.7622969E-02  0.8519888E-03 -0.1485615E+06 -0.6271115E+02
  0.4833333E+00  0.1065920E+06  0.8612939E+02  0.2847606E-01  0.2684832E-02 -0.1488687E+06 -0.9631686E+02
  0.5142857E+00  0.1070889E+06  0.1312180E+03  0.2290514E-01  0.3014803E-02 -0.1490871E+06 -0.1454005E+03
  0.5452381E+00  0.1077689E+06  0.1952181E+03  0.1891823E-01  0.2354145E-02 -0.1493505E+06 -0.2140895E+03
  0.5761905E+00  0.1083392E+06  0.2834028E+03  0.2055018E-01  0.2611399E-02 -0.1497978E+06 -0.3077634E+03
  0.6071429E+00  0.1088383E+06  0.4036066E+03  0.6534352E-02 -0.1072884E-02 -0.1502455E+06 -0.4339951E+03
  0.6380953E+00  0.1095882E+06  0.5623530E+03  0.1549564E-01  0.3771305E-02 -0.1505559E+06 -0.5975317E+03
  0.6690477E+00  0.1103828E+06  0.7699202E+03 -0.4652573E-02 -0.2860069E-02 -0.1509799E+06 -0.8082264E+03
  0.7000000E+00  0.1112679E+06  0.1038315E+04  0.1961844E-01  0.1086235E-02 -0.1515201E+06 -0.1076487E+04
  0.7309524E+00  0.1121238E+06  0.1377943E+04  0.2137622E-01  0.6431580E-02 -0.1520167E+06 -0.1410018E+04
  0.7619048E+00  0.1129177E+06  0.1803269E+04  0.8972167E-02  0.1525879E-04 -0.1525958E+06 -0.1821270E+04
  0.7928572E+00  0.1137942E+06  0.2330619E+04 -0.9545677E-02 -0.3826141E-02 -0.1530504E+06 -0.2320480E+04
  0.8238096E+00  0.1148422E+06  0.2978129E+04  0.5482580E-02 -0.3227234E-02 -0.1534532E+06 -0.2919449E+04
  0.8547620E+00  0.1159949E+06  0.3764143E+04  0.1228184E-01  0.2079010E-02 -0.1539631E+06 -0.3631533E+04
  0.8857143E+00  0.1170332E+06  0.4706956E+04  0.1240392E-01  0.2090454E-02 -0.1544389E+06 -0.4468078E+04
  0.9166667E+00  0.1180427E+06  0.5827937E+04 -0.6258878E-02 -0.8064270E-02 -0.1549561E+06 -0.5441284E+04
  0.9476191E+00  0.1189593E+06  0.7145722E+04 -0.9790162E-02 -0.1024628E-01 -0.1553126E+06 -0.6555908E+04
  0.9785714E+00  0.1199567E+06  0.8682355E+04  0.6985629E-02  0.4516602E-02 -0.1555508E+06 -0.7818327E+04
  0.1009524E+01  0.1209316E+06  0.1045655E+05  0.1039901E-01  0.8911133E-02 -0.1557804E+06 -0.9239490E+04
  0.1040476E+01  0.1218241E+06  0.1248557E+05  0.5044828E-02  0.3143311E-02 -0.1557936E+06 -0.1081428E+05
  0.1071429E+01  0.1227227E+06  0.1478924E+05  0.6722006E-02 -0.1861572E-02 -0.1558768E+06 -0.1255357E+05
  0.1102381E+01  0.1234644E+06  0.1737441E+05  0.5647399E-02 -0.2807617E-02 -0.1557040E+06 -0.1443436E+05
  0.1133333E+01  0.1240947E+06  0.2024991E+05  0.1389447E-01  0.1464844E-02 -0.1554525E+06 -0.1645294E+05
  0.1164286E+01  0.1244679E+06  0.2341638E+05 -0.1467839E-02 -0.2258301E-02 -0.1551586E+06 -0.1860322E+05
  0.1195238E+01  0.1245606E+06  0.2685815E+05  0.1327697E-02  0.2136230E-03 -0.1544899E+06 -0.2082934E+05
  0.1226190E+01  0.1245497E+06  0.3057153E+05 -0.8959724E-03 -0.2471924E-02 -0.1537835E+06 -0.2313526E+05
  0.1257143E+01  0.1242443E+06  0.3454039E+05  0.1369129E-01  0.6164551E-02 -0.1527508E+06 -0.2547426E+05
  0.1288095E+01  0.1238641E+06  0.3869233E+05  0.6444229E-02  0.1831055E-02 -0.1515891E+06 -0.2778180E+05
  0.1319048E+01  0.1232289E+06  0.4304770E+05  0.1156803E-01  0.1708984E-01 -0.1503861E+06 -0.3008235E+05
  0.1350000E+01  0.1222874E+06  0.4754321E+05 -0.2260561E-02 -0.3540039E-02 -0.1490464E+06 -0.3230995E+05
  0.1380952E+01  0.1210539E+06  0.5212053E+05  0.1829792E-01  0.2703857E-01 -0.1474562E+06 -0.3438829E+05
  0.1411905E+01  0.1188966E+06  0.5607255E+05  0.6052053E-02  0.3601074E-02 -0.1458647E+06 -0.3599966E+05
  0.1442857E+01  0.1172697E+06  0.6062597E+05  0.4737779E-02  0.2746582E-02 -0.1440986E+06 -0.3770994E+05
  0.1473810E+01  0.1154583E+06  0.6510971E+05  0.7785680E-02 -0.4882812E-03 -0.1422688E+06 -0.3919286E+05
  0.1504762E+01  0.1134804E+06  0.6946659E+05  0.1095156E-01  0.1757812E-01 -0.1404063E+06 -0.4040574E+05
  0.1535714E+01  0.1113323E+06  0.7367157E+05 -0.1589753E-03  0.1562500E-01 -0.1386235E+06 -0.4139218E+05
  0.1566667E+01  0.1089937E+06  0.7765075E+05  0.5064619E-02  0.3784180E-02 -0.1367755E+06 -0.4206287E+05
  0.1597619E+01  0.1065374E+06  0.8137593E+05  0.1283648E-01 -0.9399414E-02 -0.1349310E+06 -0.4243413E+05
  0.1628572E+01  0.1040658E+06  0.8484758E+05  0.8544922E-02  0.1953125E-01 -0.1332750E+06 -0.4257393E+05
  0.1659524E+01  0.1015158E+06  0.8800052E+05 -0.2500953E-02  0.5859375E-02 -0.1316121E+06 -0.4238038E+05
  0.1690476E+01  0.9894215E+05  0.9083288E+05  0.9387378E-03  0.5004883E-02 -0.1300205E+06 -0.4190718E+05
  0.1721429E+01  0.9640306E+05  0.9333155E+05 -0.2481928E-02  0.4272461E-02 -0.1285361E+06 -0.4116376E+05
  0.1752381E+01  0.9393324E+05  0.9551081E+05  0.3691964E-02  0.5004883E-02 -0.1272220E+06 -0.4020134E+05
  0.1783333E+01  0.9148076E+05  0.9739986E+05  0.6708163E-02 -0.6103516E-02 -0.1260725E+06 -0.3911171E+05
  0.1814286E+01  0.8904830E+05  0.9892955E+05  0.1345657E-02  0.6713867E-02 -0.1248907E+06 -0.3767595E+05
  0.1845238E+01  0.8670872E+05  0.1001827E+06  0.3175403E-02 -0.1110840E-01 -0.1238796E+06 -0.3614883E+05
  0.1876190E+01  0.8450345E+05  0.1011964E+06  0.9108800E-02  0.4882812E-03 -0.1230987E+06 -0.3458165E+05
  0.1907143E+01  0.8238837E+05  0.1019251E+06  0.9024974E-02 -0.4882812E-03 -0.1223935E+06 -0.3283811E+05
  0.1938095E+01  0.8032730E+05  0.1023722E+06  0.4156989E-02 -0.5249023E-02 -0.1217152E+06 -0.3092512E+05
  0.1969048E+01  0.7840793E+05  0.1026086E+06  0.5827492E-02  0.9765625E-02 -0.1212103E+06 -0.2901376E+05
  0.2000000E+01  0.7661271E+05  0.1026113E+06  0.3173828E-02 -0.1696777E-01 -0.1207924E+06 -0.2694996E+05
Zone t="Motion of body    1 in DoF   2",I=    64,F=POINT
  0.5000000E-01  0.1602173E-01 -0.2336502E-04  0.8561942E+05  0.2773801E+03  0.1007080E-01  0.9918213E-04
  0.8095238E-01 -0.5277746E-02  0.3623962E-04  0.8434077E+05  0.4599017E+03  0.2827364E-01  0.5722046E-05
  0.1119048E+00  0.1036299E-01 -0.2002716E-04  0.8365266E+05  0.6585463E+03  0.2768009E-01  0.2841949E-03
  0.1428571E+00  0.1473999E-01  0.1087189E-03  0.8328772E+05  0.8808108E+03 -0.2136230E-02  0.3623962E-03
  0.1738095E+00  0.1703132E-01  0.1907349E-05  0.8322288E+05  0.1136102E+04 -0.4916256E-02 -0.2861023E-04
  0.2047619E+00  0.2086551E-02  0.2098083E-03  0.8332693E+05  0.1436345E+04  0.3457712E-01 -0.1296997E-03
  0.2357143E+00 -0.6732362E-02  0.1335144E-03  0.8356929E+05  0.1798031E+04 -0.2149177E-01  0.3318787E-03
  0.2666667E+00  0.2975464E-02  0.3547668E-03  0.8398169E+05  0.2235029E+04  0.1121521E-01 -0.1045227E-02
  0.2976190E+00 -0.4101562E-02 -0.3204346E-03  0.8442766E+05  0.2778837E+04 -0.1661133E-01 -0.1037598E-02
  0.3285715E+00 -0.1374618E-01 -0.8392334E-04  0.8495980E+05  0.3445479E+04 -0.1857591E-02  0.2441406E-03
  0.3595238E+00  0.1969293E-01 -0.1144409E-03  0.8547141E+05  0.4272464E+04  0.5008116E-01  0.1312256E-02
  0.3904762E+00 -0.7346548E-02  0.3051758E-03  0.8599572E+05  0.5287506E+04 -0.1735036E-01 -0.1068115E-03
  0.4214286E+00  0.8255263E-02  0.1983643E-03  0.8616238E+05  0.6480074E+04 -0.2853135E-01 -0.2197266E-02
  0.4523810E+00  0.1551578E-01  0.5187988E-03  0.8625917E+05  0.7909747E+04  0.1942845E-01  0.2700806E-02
  0.4833333E+00 -0.9344692E-02 -0.6256104E-03  0.8608051E+05  0.9460195E+04 -0.1944706E-01  0.1190186E-02
  0.5142857E+00  0.8307563E-02  0.1647949E-02  0.8556229E+05  0.1120424E+05 -0.3323025E-02  0.3845215E-02
  0.5452381E+00  0.1029868E-01 -0.1220703E-02  0.8479621E+05  0.1304569E+05 -0.2059737E-01 -0.2258301E-02
  0.5761905E+00  0.1059288E-02 -0.1647949E-02  0.8383052E+05  0.1495078E+05 -0.9533590E-02  0.7049561E-02
  0.6071429E+00  0.4624310E-02 -0.3051758E-04  0.8268903E+05  0.1696078E+05 -0.1829618E-01 -0.3631592E-02
  0.6380953E+00 -0.4017388E-02 -0.1220703E-02  0.8146116E+05  0.1896836E+05 -0.5739126E-03 -0.6591797E-02
  0.6690477E+00 -0.6933246E-02  0.3723145E-02  0.8002062E+05  0.2101393E+05  0.1295422E-01 -0.1464844E-02
  0.7000000E+00 -0.2040318E-01  0.6713867E-03  0.7844518E+05  0.2309976E+05  0.1412528E-01  0.6103516E-03
  0.7309524E+00  0.2822329E-01  0.5432129E-02  0.7687103E+05  0.2516405E+05 -0.8016082E-02  0.4882812E-03
  0.7619048E+00  0.1938629E-01 -0.2929688E-02  0.7522928E+05  0.2721803E+05  0.5767822E-02 -0.7446289E-02
  0.7928572E+00  0.1077738E-01 -0.3417969E-02  0.7348890E+05  0.2925992E+05 -0.1062342E-01 -0.7690430E-02
  0.8238096E+00  0.2963557E-03  0.8239746E-02  0.7167999E+05  0.3127129E+05  0.1659592E-01  0.5065918E-02
  0.8547620E+00  0.5998106E-02  0.2197266E-02  0.6983769E+05  0.3323230E+05  0.2427805E-01  0.5004883E-02
  0.8857143E+00 -0.6615423E-02  0.3356934E-02  0.6797094E+05  0.3513300E+05  0.2728862E-01 -0.8789062E-02
  0.9166667E+00 -0.4128196E-02  0.3417969E-02  0.6612314E+05  0.3695674E+05 -0.2716619E-01 -0.4638672E-02
  0.9476191E+00 -0.5539170E-02 -0.2441406E-02  0.6426698E+05  0.3870365E+05 -0.1661751E-01  0.4760742E-02
  0.9785714E+00 -0.2120638E-02  0.7568359E-02  0.6242190E+05  0.4036302E+05 -0.4864992E-02 -0.1257324E-01
  0.1009524E+01  0.8947984E-02 -0.2685547E-02  0.6057966E+05  0.4193661E+05  0.1124544E-01  0.1782227E-01
  0.1040476E+01  0.4692863E-02 -0.4882812E-03  0.5873797E+05  0.4342160E+05  0.1724627E-01 -0.4394531E-02
  0.1071429E+01  0.0000000E+00 -0.4272461E-02  0.5693152E+05  0.4480052E+05 -0.1720378E-01  0.1916504E-01
  0.1102381E+01  0.8747933E-02 -0.1538086E-01  0.5517004E+05  0.4607176E+05  0.2314327E-01  0.7324219E-02
  0.1133333E+01 -0.4739200E-02  0.2319336E-02  0.5345870E+05  0.4722464E+05  0.6031710E-02  0.1147461E-01
  0.1164286E+01  0.2201759E-02  0.3540039E-02  0.5181906E+05  0.4826568E+05 -0.1467839E-02  0.1110840E-01
  0.1195238E+01  0.7047007E-02 -0.9521484E-02  0.5021804E+05  0.4920586E+05 -0.8681096E-02  0.1782227E-01
  0.1226190E+01 -0.1493287E-02 -0.9765625E-02  0.4869668E+05  0.5002942E+05 -0.7765094E-02  0.1477051E-01
  0.1257143E+01 -0.5826083E-02 -0.8178711E-02  0.4722302E+05  0.5079120E+05 -0.3884055E-03  0.4028320E-02
  0.1288095E+01  0.8813431E-02 -0.7446289E-02  0.4580254E+05  0.5139075E+05 -0.3032579E-02 -0.4394531E-02
  0.1319048E+01  0.6015378E-02 -0.1098633E-02  0.4444137E+05  0.5191687E+05 -0.9069339E-02  0.2221680E-01
  0.1350000E+01 -0.3255208E-02 -0.6103516E-02  0.4314550E+05  0.5235323E+05 -0.1392506E-01  0.1562500E-01
  0.1380952E+01  0.1714877E-01  0.4516602E-02  0.4190800E+05  0.5269051E+05  0.1104947E-01  0.5859375E-02
  0.1411905E+01  0.2507279E-02  0.3173828E-02  0.4056651E+05  0.5294549E+05 -0.7262463E-02  0.6835938E-02
  0.1442857E+01  0.1040619E-01 -0.1135254E-01  0.3946310E+05  0.5311878E+05  0.3045715E-02 -0.4882812E-03
  0.1473810E+01 -0.3313055E-03 -0.5249023E-02  0.3842650E+05  0.5320779E+05 -0.1035330E-01  0.1098633E-01
  0.1504762E+01  0.1030258E-01  0.1367188E-01  0.3744616E+05  0.5321124E+05 -0.4705115E-02  0.1586914E-01
  0.1535714E+01  0.6994912E-02  0.7202148E-02  0.3653206E+05  0.5314790E+05 -0.4928234E-02 -0.4882812E-03
  0.1566667E+01  0.1309009E-01  0.4882812E-03  0.3566610E+05  0.5303111E+05  0.1145383E-01  0.6591797E-02
  0.1597619E+01  0.8481249E-02 -0.8544922E-02  0.3485405E+05  0.5285355E+05  0.9474549E-02  0.1196289E-01
  0.1628572E+01  0.3522906E-02  0.1098633E-01  0.3411018E+05  0.5260701E+05 -0.1214278E-01 -0.4882812E-03
  0.1659524E+01  0.6620169E-02 -0.7324219E-02  0.3340949E+05  0.5231564E+05  0.4781233E-02  0.7324219E-03
  0.1690476E+01  0.3538320E-02  0.1025391E-01  0.3275804E+05  0.5197345E+05 -0.4404847E-02  0.7568359E-02
  0.1721429E+01 -0.2836489E-02 -0.3417969E-02  0.3215690E+05  0.5157402E+05  0.9218588E-02  0.1977539E-01
  0.1752381E+01  0.7662566E-03 -0.4882812E-02  0.3160741E+05  0.5111439E+05 -0.3900943E-02  0.1000977E-01
  0.1783333E+01 -0.6708163E-02  0.8789062E-02  0.3110456E+05  0.5064432E+05  0.7871824E-02  0.5859375E-02
  0.1814286E+01  0.2758597E-02  0.3662109E-02  0.3062508E+05  0.5013195E+05 -0.3700557E-02 -0.1220703E-02
  0.1845238E+01 -0.6251575E-02 -0.1782227E-01  0.3019036E+05  0.4959253E+05  0.6086190E-02  0.8300781E-02
  0.1876190E+01 -0.1919354E-02  0.5371094E-02  0.2980696E+05  0.4901786E+05 -0.8523234E-02  0.9033203E-02
  0.1907143E+01  0.4704508E-02  0.6103516E-02  0.2945429E+05  0.4841670E+05  0.1216131E-02  0.2197266E-02
  0.1938095E+01 -0.1795063E-02  0.1611328E-01  0.2912318E+05  0.4780302E+05 -0.1007755E-01  0.3173828E-02
  0.1969048E+01  0.5517519E-02  0.7568359E-02  0.2883138E+05  0.4716138E+05 -0.1053908E-01  0.9765625E-02
  0.2000000E+01 -0.1190186E-02 -0.8056641E-02  0.2857046E+05  0.4648275E+05 -0.1193237E-01  0.7080078E-02
Zone t="Motion of body    1 in DoF   3",I=    64,F=POINT
  0.5000000E-01 -0.1461889E+06 -0.1182729E-01  0.1818180E-01  0.1555120E-03  0.5213975E+06  0.1504621E-01
  0.8095238E-01 -0.1470306E+06 -0.5133891E-01  0.3991295E-01  0.3275054E-03  0.5218398E+06  0.6155502E-01
  0.1119048E+00 -0.1472798E+06 -0.1434008E+00  0.4682308E-01  0.4205683E-03  0.5219026E+06  0.1706651E+00
  0.1428571E+00 -0.1472599E+06 -0.3219619E+00  0.1580644E-01  0.3283459E-03  0.5219986E+06  0.3823292E+00
  0.1738095E+00 -0.1474176E+06 -0.6382322E+00  0.1470350E-01  0.4790900E-03  0.5220319E+06  0.7559287E+00
  0.2047619E+00 -0.1474117E+06 -0.1171627E+01  0.2317678E-01  0.6719446E-03  0.5221008E+06  0.1386490E+01
  0.2357143E+00 -0.1474353E+06 -0.2051551E+01  0.3309842E-01  0.8459389E-03  0.5222018E+06  0.2414940E+01
  0.2666667E+00 -0.1476319E+06 -0.3474463E+01  0.1563728E-02  0.3365315E-03  0.5222084E+06  0.4076687E+01
  0.2976190E+00 -0.1477105E+06 -0.5786776E+01 -0.1952808E-01  0.2563000E-05  0.5223069E+06  0.6755343E+01
  0.3285715E+00 -0.1477406E+06 -0.9496013E+01  0.2319522E-01  0.1585349E-02  0.5224541E+06  0.1100738E+02
  0.3595238E+00 -0.1479633E+06 -0.1543808E+02  0.1679761E-01  0.1702487E-02  0.5225244E+06  0.1779707E+02
  0.3904762E+00 -0.1479855E+06 -0.2490998E+02  0.7613984E-02  0.1473278E-02  0.5228371E+06  0.2852300E+02
  0.4214286E+00 -0.1482396E+06 -0.3965204E+02 -0.2024638E-01 -0.1004905E-02  0.5228263E+06  0.4503775E+02
  0.4523810E+00 -0.1485301E+06 -0.6250487E+02 -0.3390651E-02  0.9791851E-03  0.5229618E+06  0.7049590E+02
  0.4833333E+00 -0.1488148E+06 -0.9594677E+02  0.7581711E-03  0.1436591E-02  0.5232717E+06  0.1072936E+03
  0.5142857E+00 -0.1490265E+06 -0.1449078E+03 -0.2279805E-01 -0.1929402E-02  0.5235286E+06  0.1605538E+03
  0.5452381E+00 -0.1493089E+06 -0.2135407E+03 -0.6826726E-02 -0.2151489E-02  0.5236950E+06  0.2341770E+03
  0.5761905E+00 -0.1497703E+06 -0.3067881E+03 -0.5381513E-01 -0.6525755E-02  0.5238497E+06  0.3331346E+03
  0.6071429E+00 -0.1501870E+06 -0.4322423E+03  0.3268746E-02  0.3859520E-02  0.5242783E+06  0.4649812E+03
  0.6380953E+00 -0.1504867E+06 -0.5955438E+03 -0.9923906E-03  0.1903534E-02  0.5246449E+06  0.6327725E+03
  0.6690477E+00 -0.1509248E+06 -0.8056932E+03  0.1122376E-01  0.7589340E-02  0.5248899E+06  0.8456539E+03
  0.7000000E+00 -0.1514799E+06 -0.1073009E+04  0.1960754E-01  0.1186943E-01  0.5252006E+06  0.1112478E+04
  0.7309524E+00 -0.1519777E+06 -0.1405132E+04 -0.3585318E-02 -0.3200531E-02  0.5254674E+06  0.1437893E+04
  0.7619048E+00 -0.1525300E+06 -0.1813213E+04 -0.1506543E-01 -0.2473831E-02  0.5258584E+06  0.1831544E+04
  0.7928572E+00 -0.1529625E+06 -0.2310141E+04  0.1348616E-01  0.9675980E-02  0.5262909E+06  0.2300023E+04
  0.8238096E+00 -0.1533722E+06 -0.2908420E+04  0.5316343E-01  0.3170013E-01  0.5265748E+06  0.2850341E+04
  0.8547620E+00 -0.1539013E+06 -0.3618546E+04 -0.4650318E-02  0.7537842E-02  0.5266534E+06  0.3489574E+04
  0.8857143E+00 -0.1543854E+06 -0.4450828E+04  0.3014841E-01  0.2371597E-01  0.5267916E+06  0.4223539E+04
  0.9166667E+00 -0.1548930E+06 -0.5415289E+04 -0.8031672E-02  0.3501892E-02  0.5269471E+06  0.5055988E+04
  0.9476191E+00 -0.1552263E+06 -0.6520831E+04 -0.7157445E-02  0.2197266E-02  0.5270738E+06  0.5984496E+04
  0.9785714E+00 -0.1554493E+06 -0.7778335E+04  0.1758882E-01  0.1776886E-01  0.5270955E+06  0.7005012E+04
  0.1009524E+01 -0.1556689E+06 -0.9191495E+04  0.1923363E-01  0.2079010E-01  0.5271015E+06  0.8117858E+04
  0.1040476E+01 -0.1556975E+06 -0.1076174E+05  0.3396460E-01  0.4173279E-01  0.5268024E+06  0.9311316E+04
  0.1071429E+01 -0.1557791E+06 -0.1248622E+05  0.8160400E-02  0.1702881E-01  0.5264711E+06  0.1058329E+05
  0.1102381E+01 -0.1556188E+06 -0.1436021E+05  0.1456143E-01  0.1994324E-01  0.5260820E+06  0.1191404E+05
  0.1133333E+01 -0.1553681E+06 -0.1636069E+05 -0.2181109E-02  0.2941895E-01  0.5253873E+06  0.1328149E+05
  0.1164286E+01 -0.1550527E+06 -0.1847107E+05  0.5792723E-02  0.1663208E-01  0.5248151E+06  0.1467830E+05
  0.1195238E+01 -0.1543846E+06 -0.2067563E+05 -0.9344945E-02  0.4394531E-02  0.5240138E+06  0.1605043E+05
  0.1226190E+01 -0.1536577E+06 -0.2294947E+05 -0.7230000E-02  0.6713867E-02  0.5232575E+06  0.1738151E+05
  0.1257143E+01 -0.1526161E+06 -0.2525779E+05 -0.6857785E-03  0.1541138E-01  0.5223007E+06  0.1863080E+05
  0.1288095E+01 -0.1514797E+06 -0.2756989E+05 -0.6219155E-03  0.1403809E-02  0.5212510E+06  0.1978432E+05
  0.1319048E+01 -0.1502676E+06 -0.2981109E+05 -0.8438881E-02  0.8361816E-02  0.5198934E+06  0.2079681E+05
  0.1350000E+01 -0.1489315E+06 -0.3197491E+05  0.2674527E-01  0.4763794E-01  0.5186878E+06  0.2169272E+05
  0.1380952E+01 -0.1473786E+06 -0.3402377E+05 -0.3107663E-02  0.1754761E-01  0.5173709E+06  0.2239970E+05
  0.1411905E+01 -0.1471286E+06 -0.3665456E+05 -0.6179038E-02  0.1593018E-01  0.5162914E+06  0.2345276E+05
  0.1442857E+01 -0.1453656E+06 -0.3843482E+05  0.1633205E-01  0.3753662E-01  0.5150194E+06  0.2378510E+05
  0.1473810E+01 -0.1435294E+06 -0.4000290E+05  0.1106509E-01  0.2258301E-01  0.5138949E+06  0.2392665E+05
  0.1504762E+01 -0.1416452E+06 -0.4126631E+05  0.5714078E-02  0.1837158E-01  0.5125913E+06  0.2380613E+05
  0.1535714E+01 -0.1398281E+06 -0.4227857E+05 -0.6676962E-02  0.1116943E-01  0.5115328E+06  0.2350931E+05
  0.1566667E+01 -0.1379647E+06 -0.4299659E+05 -0.2775801E-02  0.1495361E-01  0.5104998E+06  0.2299368E+05
  0.1597619E+01 -0.1361145E+06 -0.4344534E+05  0.1010491E-01  0.1177979E-01  0.5095929E+06  0.2230898E+05
  0.1628572E+01 -0.1344336E+06 -0.4358995E+05  0.8582399E-02  0.3295898E-01  0.5088036E+06  0.2144623E+05
  0.1659524E+01 -0.1327563E+06 -0.4342993E+05  0.1195308E-02  0.1635742E-01  0.5080572E+06  0.2042371E+05
  0.1690476E+01 -0.1311543E+06 -0.4302961E+05  0.7148850E-02  0.1586914E-01  0.5075133E+06  0.1932101E+05
  0.1721429E+01 -0.1296527E+06 -0.4233184E+05  0.3900172E-03  0.5310059E-02  0.5069891E+06  0.1806635E+05
  0.1752381E+01 -0.1283137E+06 -0.4134809E+05  0.3535229E-02  0.9277344E-02  0.5064345E+06  0.1659211E+05
  0.1783333E+01 -0.1271507E+06 -0.4026717E+05  0.8453654E-02  0.3289795E-01  0.5063072E+06  0.1535152E+05
  0.1814286E+01 -0.1259683E+06 -0.3890653E+05 -0.8477639E-02  0.9033203E-02  0.5060088E+06  0.1381004E+05
  0.1845238E+01 -0.1249504E+06 -0.3745682E+05  0.1058468E-01  0.3259277E-01  0.5059652E+06  0.1242471E+05
  0.1876190E+01 -0.1241488E+06 -0.3587840E+05 -0.1226435E-01  0.7751465E-02  0.5060518E+06  0.1104285E+05
  0.1907143E+01 -0.1234215E+06 -0.3412817E+05 -0.1344145E-01  0.8544922E-02  0.5061147E+06  0.9577010E+04
  0.1938095E+01 -0.1227278E+06 -0.3231161E+05  0.3149234E-04  0.7995605E-02  0.5062964E+06  0.8222844E+04
  0.1969048E+01 -0.1221990E+06 -0.3043894E+05 -0.8648247E-02  0.3662109E-02  0.5065977E+06  0.7012331E+04
  0.2000000E+01 -0.1217712E+06 -0.2836863E+05 -0.8087158E-02  0.1342773E-01  0.5067339E+06  0.5558503E+04
