VARIABLES="w (rad/s)"
"A   1   1" "B   1   1"
"A   1   2" "B   1   2"
"A   1   3" "B   1   3"
Zone t="Motion of body    1 in DoF   1",I=    64,F=POINT
  0.5000000E-01  0.5950100E+05  0.4019650E-02 -0.2059937E-02  0.1861888E-04 -0.1292587E+05  0.1010681E-03
  0.8095238E-01  0.5981355E+05  0.1766679E-01 -0.9377423E-02 -0.2205436E-04 -0.1314300E+05  0.4693451E-03
  0.1119048E+00  0.5998368E+05  0.4967328E-01 -0.1431729E-02  0.2249843E-04 -0.1308799E+05  0.1362367E-02
  0.1428571E+00  0.6008259E+05  0.1116808E+00  0.9132385E-02  0.7180288E-04 -0.1296461E+05  0.3352668E-02
  0.1738095E+00  0.6013406E+05  0.2222477E+00 -0.3511612E-03 -0.9110896E-05 -0.1302258E+05  0.6996619E-02
  0.2047619E+00  0.6020122E+05  0.4097387E+00  0.1229575E-01  0.2038293E-03 -0.1293183E+05  0.1366645E-01
  0.2357143E+00  0.6033777E+05  0.7211438E+00 -0.5437677E-02  0.6847177E-04 -0.1287686E+05  0.2604344E-01
  0.2666667E+00  0.6035714E+05  0.1228658E+01 -0.2975464E-02  0.7813238E-04 -0.1294255E+05  0.4748676E-01
  0.2976190E+00  0.6051966E+05  0.2059406E+01  0.1076660E-02 -0.2547726E-04 -0.1275450E+05  0.8771323E-01
  0.3285715E+00  0.6067840E+05  0.3404580E+01  0.1318890E-01  0.7023439E-03 -0.1267423E+05  0.1574863E+00
  0.3595238E+00  0.6077751E+05  0.5582164E+01 -0.8912749E-02 -0.2599880E-03 -0.1274438E+05  0.2755183E+00
  0.3904762E+00  0.6087798E+05  0.9085334E+01  0.1008196E-01  0.6355792E-03 -0.1267690E+05  0.4890918E+00
  0.4214286E+00  0.6117549E+05  0.1460149E+02  0.1238289E-01  0.1083747E-02 -0.1238352E+05  0.8754292E+00
  0.4523810E+00  0.6140238E+05  0.2325291E+02  0.8567408E-02  0.1771480E-02 -0.1232755E+05  0.1501985E+01
  0.4833333E+00  0.6158266E+05  0.3609772E+02  0.1250168E-01  0.1293540E-02 -0.1227956E+05  0.2520872E+01
  0.5142857E+00  0.6179091E+05  0.5510937E+02  0.1240201E-01  0.2260029E-02 -0.1216620E+05  0.4162018E+01
  0.5452381E+00  0.6212251E+05  0.8217258E+02  0.1276141E-01  0.8871555E-03 -0.1197443E+05  0.6735003E+01
  0.5761905E+00  0.6247993E+05  0.1196495E+03 -0.6885370E-02  0.3523827E-03 -0.1183366E+05  0.1057201E+02
  0.6071429E+00  0.6272828E+05  0.1708738E+03  0.5478802E-02  0.1875639E-02 -0.1181414E+05  0.1610176E+02
  0.6380953E+00  0.6303165E+05  0.2386238E+03  0.6026083E-02  0.5764961E-03 -0.1167432E+05  0.2412973E+02
  0.6690477E+00  0.6345350E+05  0.3275981E+03  0.1888397E-01  0.6239891E-02 -0.1143777E+05  0.3562014E+02
  0.7000000E+00  0.6389273E+05  0.4429341E+03 -0.5318778E-02 -0.9522438E-03 -0.1123308E+05  0.5150996E+02
  0.7309524E+00  0.6434756E+05  0.5895143E+03  0.1519716E-01  0.2798080E-02 -0.1108034E+05  0.7299107E+02
  0.7619048E+00  0.6478073E+05  0.7739362E+03  0.1770401E-01  0.5468369E-02 -0.1093058E+05  0.1018586E+03
  0.7928572E+00  0.6520256E+05  0.1003223E+04  0.7621146E-02  0.4222870E-02 -0.1077036E+05  0.1400671E+03
  0.8238096E+00  0.6570568E+05  0.1285491E+04  0.1415098E-01  0.5750656E-02 -0.1050704E+05  0.1905873E+03
  0.8547620E+00  0.6626555E+05  0.1629272E+04 -0.4355768E-02 -0.1935959E-02 -0.1018563E+05  0.2563627E+03
  0.8857143E+00  0.6686280E+05  0.2043995E+04  0.1006096E-01  0.6172180E-02 -0.9879496E+04  0.3403143E+03
  0.9166667E+00  0.6741786E+05  0.2539187E+04  0.4061612E-02  0.6706238E-02 -0.9642479E+04  0.4457282E+03
  0.9476191E+00  0.6794077E+05  0.3124929E+04 -0.5667988E-02 -0.4730225E-03 -0.9431085E+04  0.5772227E+03
  0.9785714E+00  0.6845289E+05  0.3811044E+04  0.1060319E-02 -0.4241943E-02 -0.9144551E+04  0.7408754E+03
  0.1009524E+01  0.6898145E+05  0.4607386E+04 -0.3083427E-02 -0.1419067E-02 -0.8794317E+04  0.9418179E+03
  0.1040476E+01  0.6952102E+05  0.5523895E+04  0.5044828E-02  0.1556396E-02 -0.8445583E+04  0.1184361E+04
  0.1071429E+01  0.7002378E+05  0.6569461E+04 -0.7063802E-02  0.1029968E-02 -0.8053188E+04  0.1476611E+04
  0.1102381E+01  0.7052840E+05  0.7753173E+04  0.5093733E-02  0.1754761E-02 -0.7693495E+04  0.1822899E+04
  0.1133333E+01  0.7096195E+05  0.9081179E+04  0.5924000E-02  0.8605957E-02 -0.7325789E+04  0.2232532E+04
  0.1164286E+01  0.7132953E+05  0.1055852E+05  0.5242283E-02  0.2944946E-02 -0.6990410E+04  0.2711433E+04
  0.1195238E+01  0.7159937E+05  0.1218648E+05 -0.3268177E-02  0.7415771E-02 -0.6714139E+04  0.3263437E+04
  0.1226190E+01  0.7175606E+05  0.1396191E+05  0.2289707E-02 -0.9460449E-03 -0.6422031E+04  0.3896934E+04
  0.1257143E+01  0.7181202E+05  0.1589236E+05  0.0000000E+00  0.8087158E-02 -0.6168191E+04  0.4614837E+04
  0.1288095E+01  0.7182017E+05  0.1793158E+05  0.2843042E-03 -0.6896973E-02 -0.5870063E+04  0.5414441E+04
  0.1319048E+01  0.7170635E+05  0.2010816E+05 -0.9254427E-03 -0.9765625E-02 -0.5604945E+04  0.6306982E+04
  0.1350000E+01  0.7149119E+05  0.2239380E+05  0.2712673E-03  0.2166748E-02 -0.5376674E+04  0.7289688E+04
  0.1380952E+01  0.7116500E+05  0.2477406E+05 -0.2828664E-02 -0.3387451E-02 -0.5235224E+04  0.8356516E+04
  0.1411905E+01  0.7002740E+05  0.2677674E+05 -0.4322894E-02 -0.1281738E-02 -0.5623984E+04  0.9326813E+04
  0.1442857E+01  0.6948047E+05  0.2925339E+05  0.5245398E-02  0.1947021E-01 -0.5542250E+04  0.1054509E+05
  0.1473810E+01  0.6884161E+05  0.3175690E+05 -0.2650444E-02 -0.5371094E-02 -0.5516599E+04  0.1183353E+05
  0.1504762E+01  0.6807195E+05  0.3426502E+05  0.1703576E-02 -0.2746582E-02 -0.5519679E+04  0.1319429E+05
  0.1535714E+01  0.6721986E+05  0.3675159E+05  0.2384629E-02  0.2014160E-02 -0.5576932E+04  0.1460923E+05
  0.1566667E+01  0.6626909E+05  0.3919082E+05  0.7090467E-02  0.1306152E-01 -0.5698797E+04  0.1607155E+05
  0.1597619E+01  0.6523423E+05  0.4157085E+05  0.4126013E-02 -0.7751465E-02 -0.5915337E+04  0.1756125E+05
  0.1628572E+01  0.6411259E+05  0.4386236E+05 -0.4047594E-02  0.4699707E-02 -0.6162401E+04  0.1908495E+05
  0.1659524E+01  0.6293259E+05  0.4605265E+05  0.2721625E-02 -0.1422119E-01 -0.6466806E+04  0.2062110E+05
  0.1690476E+01  0.6172579E+05  0.4812555E+05  0.1010948E-01  0.6958008E-02 -0.6836684E+04  0.2215476E+05
  0.1721429E+01  0.6047492E+05  0.5006489E+05  0.9005851E-02  0.6347656E-02 -0.7235418E+04  0.2368690E+05
  0.1752381E+01  0.5920159E+05  0.5186150E+05  0.7244608E-02 -0.2441406E-02 -0.7667058E+04  0.2520142E+05
  0.1783333E+01  0.5792792E+05  0.5350752E+05  0.1711266E-02  0.7202148E-02 -0.8134441E+04  0.2668590E+05
  0.1814286E+01  0.5665912E+05  0.5499475E+05  0.1682071E-02  0.1440430E-01 -0.8620852E+04  0.2814678E+05
  0.1845238E+01  0.5540353E+05  0.5634847E+05  0.5424647E-02  0.4150391E-02 -0.9166761E+04  0.2954914E+05
  0.1876190E+01  0.5415155E+05  0.5754788E+05 -0.2927829E-02 -0.2441406E-03 -0.9713763E+04  0.3092147E+05
  0.1907143E+01  0.5291874E+05  0.5860401E+05  0.3264352E-02  0.4394531E-02 -0.1027345E+05  0.3224712E+05
  0.1938095E+01  0.5173756E+05  0.5952812E+05  0.5542652E-02  0.2075195E-02 -0.1087727E+05  0.3349404E+05
  0.1969048E+01  0.5059174E+05  0.6030935E+05  0.3099730E-02 -0.3173828E-02 -0.1147825E+05  0.3470800E+05
  0.2000000E+01  0.4945672E+05  0.6096530E+05  0.7446289E-02 -0.2075195E-02 -0.1207642E+05  0.3587492E+05
Zone t="Motion of body    1 in DoF   2",I=    64,F=POINT
  0.5000000E-01  0.3814697E-02  0.6151199E-04  0.9770688E+05  0.2727016E+03  0.3051758E-02  0.2765656E-04
  0.8095238E-01  0.1668145E-01  0.1764297E-04  0.9652297E+05  0.4523722E+03  0.3769818E-02  0.8583069E-05
  0.1119048E+00 -0.4227009E-02  0.9346008E-04  0.9586791E+05  0.6482719E+03  0.4090654E-02  0.2861023E-04
  0.1428571E+00  0.1068115E-01  0.6008148E-04  0.9559578E+05  0.8678343E+03  0.1004028E-01  0.6675720E-04
  0.1738095E+00  0.1755806E-03 -0.1029968E-03  0.9553409E+05  0.1120819E+04  0.6320901E-02 -0.3814697E-04
  0.2047619E+00  0.2384629E-02  0.5340576E-04  0.9574711E+05  0.1418971E+04  0.4471180E-02  0.7247925E-04
  0.2357143E+00  0.7768110E-02 -0.7247925E-04  0.9600319E+05  0.1779198E+04  0.3107244E-02  0.1487732E-03
  0.2666667E+00  0.1190185E-01 -0.1525879E-04  0.9649094E+05  0.2216093E+04  0.5950927E-02 -0.1983643E-03
  0.2976190E+00 -0.3896484E-02  0.1144409E-03  0.9707626E+05  0.2760861E+04  0.7382812E-02  0.5416870E-03
  0.3285715E+00  0.8730680E-02  0.9918213E-04  0.9764197E+05  0.3431855E+04  0.1170283E-01 -0.3051758E-04
  0.3595238E+00 -0.6111600E-02 -0.3814697E-04  0.9823945E+05  0.4266429E+04  0.6790666E-03 -0.3204346E-03
  0.3904762E+00  0.1703774E-01  0.1449585E-03  0.9890409E+05  0.5295516E+04  0.8753334E-02  0.3051758E-04
  0.4214286E+00  0.1897262E-01  0.1014709E-02  0.9922725E+05  0.6509541E+04  0.4634534E-02 -0.9918213E-03
  0.4523810E+00  0.4722193E-02  0.5187988E-03  0.9941788E+05  0.7971238E+04  0.4047594E-02  0.1190186E-02
  0.4833333E+00  0.1843683E-01  0.1525879E-04  0.9938290E+05  0.9566169E+04  0.1237540E-01  0.8850098E-03
  0.5142857E+00  0.7476807E-02 -0.4577637E-04  0.9903646E+05  0.1136813E+05  0.1424154E-02  0.2136230E-03
  0.5452381E+00  0.3246324E-02  0.2899170E-03  0.9840278E+05  0.1328625E+05  0.1052257E-01 -0.6103516E-04
  0.5761905E+00  0.7944658E-02  0.8544922E-03  0.9755941E+05  0.1528704E+05  0.8050587E-02  0.3051758E-03
  0.6071429E+00 -0.1005285E-03 -0.1953125E-02  0.9654548E+05  0.1741167E+05  0.3619025E-02  0.1831055E-03
  0.6380953E+00  0.2869563E-02 -0.3051758E-02  0.9546305E+05  0.1955156E+05  0.6504343E-02 -0.7324219E-03
  0.6690477E+00  0.1185950E-01  0.2471924E-02  0.9417025E+05  0.2175215E+05  0.7480607E-02  0.3662109E-03
  0.7000000E+00 -0.1743861E-02 -0.1525879E-03  0.9267852E+05  0.2402025E+05  0.5580357E-02 -0.3662109E-03
  0.7309524E+00 -0.7014072E-02 -0.9460449E-03  0.9117852E+05  0.2628833E+05 -0.3006031E-02  0.6103516E-04
  0.7619048E+00  0.7049560E-02  0.1892090E-02  0.8962848E+05  0.2856681E+05  0.3524780E-02  0.1586914E-02
  0.7928572E+00  0.1139323E-01 -0.9155273E-03  0.8797532E+05  0.3085512E+05  0.9237753E-03 -0.3662109E-03
  0.8238096E+00  0.4000802E-02  0.1037598E-02  0.8623477E+05  0.3313732E+05  0.6519824E-02  0.9765625E-03
  0.8547620E+00 -0.5998106E-02 -0.0000000E+00  0.8443032E+05  0.3539786E+05  0.2570617E-02  0.1464844E-02
  0.8857143E+00  0.1047442E-01 -0.2197266E-02  0.8258012E+05  0.3761945E+05  0.1323085E-01  0.2563477E-02
  0.9166667E+00 -0.2663352E-03  0.6103516E-03  0.8071630E+05  0.3978862E+05  0.1198508E-01  0.8544922E-03
  0.9476191E+00  0.3864537E-02  0.7934570E-02  0.7884291E+05  0.4189555E+05  0.9532525E-02  0.2685547E-02
  0.9785714E+00  0.9480498E-02  0.6103516E-03  0.7696730E+05  0.4393327E+05  0.1746407E-02 -0.1831055E-02
  0.1009524E+01  0.9310741E-02  0.3601074E-02  0.7508638E+05  0.4589906E+05  0.5320423E-02 -0.9765625E-03
  0.1040476E+01  0.4223577E-02 -0.1220703E-03  0.7319870E+05  0.4778924E+05  0.8916440E-02  0.2685547E-02
  0.1071429E+01  0.1367188E-02 -0.3601074E-02  0.7130142E+05  0.4960346E+05  0.1367188E-02  0.6103516E-03
  0.1102381E+01  0.7419133E-02 -0.2319336E-02  0.6943309E+05  0.5132058E+05  0.2436133E-02  0.8544922E-03
  0.1133333E+01  0.1432531E-01  0.6713867E-02  0.6759198E+05  0.5293773E+05  0.5170037E-02  0.6835938E-02
  0.1164286E+01  0.1362994E-02 -0.4516602E-02  0.6580849E+05  0.5444153E+05  0.5242283E-02 -0.9765625E-03
  0.1195238E+01 -0.4085221E-03  0.5004883E-02  0.6406789E+05  0.5583896E+05  0.1041732E-01  0.5126953E-02
  0.1226190E+01  0.2090602E-02  0.3662109E-03  0.6237672E+05  0.5713398E+05 -0.1991050E-02 -0.1953125E-02
  0.1257143E+01 -0.2524636E-02 -0.8178711E-02  0.6074706E+05  0.5836757E+05 -0.1553622E-02 -0.4394531E-02
  0.1288095E+01  0.9476808E-04 -0.5737305E-02  0.5913402E+05  0.5942777E+05  0.6065157E-02  0.2929688E-02
  0.1319048E+01 -0.2498695E-02 -0.1220703E-03  0.5758134E+05  0.6043011E+05  0.7403542E-02 -0.4882812E-03
  0.1350000E+01  0.3526476E-02  0.9887695E-02  0.5607861E+05  0.6133239E+05  0.4882812E-02  0.5859375E-02
  0.1380952E+01  0.5038558E-02  0.1586914E-02  0.5463496E+05  0.6212627E+05  0.1767915E-03  0.2441406E-03
  0.1411905E+01 -0.6052052E-03 -0.9765625E-02  0.5287817E+05  0.6286423E+05  0.8645789E-03 -0.6835938E-02
  0.1442857E+01  0.7952699E-02  0.1708984E-02  0.5154709E+05  0.6350251E+05  0.5583810E-02  0.2685547E-02
  0.1473810E+01  0.2153486E-02  0.5981445E-02  0.5027382E+05  0.6404402E+05  0.6460458E-02 -0.2441406E-03
  0.1504762E+01  0.0000000E+00  0.7324219E-03  0.4904989E+05  0.6450845E+05  0.6976550E-02 -0.7324219E-02
  0.1535714E+01  0.7153887E-03 -0.9155273E-02  0.4788526E+05  0.6487725E+05  0.4133357E-02 -0.2441406E-02
  0.1566667E+01  0.1090841E-02  0.1184082E-01  0.4677121E+05  0.6517230E+05  0.2337517E-02  0.8300781E-02
  0.1597619E+01  0.5348535E-03  0.5371094E-02  0.4571385E+05  0.6539498E+05  0.3209121E-02  0.8056641E-02
  0.1628572E+01  0.6596080E-02  0.4760742E-02  0.4470331E+05  0.6555147E+05  0.9594298E-02 -0.1708984E-02
  0.1659524E+01 -0.1471149E-02 -0.3540039E-02  0.4374636E+05  0.6564498E+05 -0.2206723E-02  0.3662109E-02
  0.1690476E+01  0.9531800E-02  0.2319336E-02  0.4284302E+05  0.6566220E+05  0.4043794E-02  0.9765625E-02
  0.1721429E+01  0.4680207E-02  0.1257324E-01  0.4198546E+05  0.6562509E+05  0.5176592E-02  0.5126953E-02
  0.1752381E+01  0.4458220E-02  0.1037598E-01  0.4117244E+05  0.6552757E+05  0.7592907E-02  0.1953125E-02
  0.1783333E+01  0.4551968E-02 -0.4394531E-02  0.4040630E+05  0.6536282E+05  0.1095210E-02  0.1220703E-02
  0.1814286E+01  0.3330501E-02  0.2441406E-02  0.3968164E+05  0.6513520E+05  0.9957862E-02  0.4394531E-02
  0.1845238E+01  0.5689264E-02 -0.3173828E-02  0.3900516E+05  0.6486552E+05  0.9063130E-02  0.5859375E-02
  0.1876190E+01  0.6961726E-02 -0.8544922E-03  0.3836308E+05  0.6455362E+05  0.6376160E-02  0.4394531E-02
  0.1907143E+01  0.2208238E-02  0.2685547E-02  0.3775931E+05  0.6420779E+05  0.1408152E-02  0.1098633E-01
  0.1938095E+01  0.8786364E-02 -0.4882812E-02  0.3720137E+05  0.6380922E+05  0.2141479E-02 -0.1708984E-02
  0.1969048E+01  0.2572776E-02  0.2197266E-02  0.3668042E+05  0.6337436E+05  0.1673854E-02  0.5859375E-02
  0.2000000E+01  0.1586914E-02  0.4760742E-02  0.3618438E+05  0.6293421E+05  0.4821777E-02  0.1708984E-02
Zone t="Motion of body    1 in DoF   3",I=    64,F=POINT
  0.5000000E-01 -0.1349220E+05  0.5672245E-04  0.1838684E-01  0.2677109E-04  0.1150705E+06  0.1757730E-03
  0.8095238E-01 -0.1371497E+05  0.2487769E-03  0.3722696E-02 -0.9933558E-05  0.1153104E+06  0.7648586E-04
  0.1119048E+00 -0.1368927E+05  0.7471036E-03 -0.1336280E-01 -0.1465993E-03  0.1152183E+06  0.7296875E-04
  0.1428571E+00 -0.1352160E+05  0.1908031E-02 -0.8544921E-03 -0.6816937E-04  0.1156093E+06 -0.2470145E-03
  0.1738095E+00 -0.1362182E+05  0.4211476E-02 -0.1185169E-01 -0.2283001E-03  0.1152982E+06 -0.2063175E-03
  0.2047619E+00 -0.1349150E+05  0.8450879E-02 -0.2742324E-01 -0.5187668E-03  0.1156079E+06  0.3837345E-03
  0.2357143E+00 -0.1346456E+05  0.1688886E-01  0.5826083E-03 -0.1273516E-03  0.1155035E+06  0.1081435E-02
  0.2666667E+00 -0.1354065E+05  0.3275006E-01 -0.4177094E-02 -0.2695930E-03  0.1153355E+06  0.1545585E-02
  0.2976190E+00 -0.1331563E+05  0.6101920E-01  0.7998047E-02  0.8689967E-04  0.1157407E+06  0.2347046E-02
  0.3285715E+00 -0.1326052E+05  0.1131421E+00  0.3947382E-02 -0.7570279E-04  0.1156480E+06  0.5677835E-02
  0.3595238E+00 -0.1336350E+05  0.2079692E+00 -0.2588941E-02 -0.3393008E-03  0.1153522E+06  0.1082194E-01
  0.3904762E+00 -0.1326713E+05  0.3799279E+00  0.3595119E-02 -0.2972689E-04  0.1155555E+06  0.1951562E-01
  0.4214286E+00 -0.1295472E+05  0.6770269E+00  0.7603531E-02  0.2010502E-03  0.1159417E+06  0.3728667E-01
  0.4523810E+00 -0.1293619E+05  0.1191273E+01  0.8972167E-02  0.2911538E-03  0.1157738E+06  0.7884815E-01
  0.4833333E+00 -0.1287447E+05  0.2047462E+01  0.6061422E-02  0.2166592E-03  0.1158563E+06  0.1444668E+00
  0.5142857E+00 -0.1274956E+05  0.3423584E+01  0.1732720E-01  0.1367223E-02  0.1160105E+06  0.2560118E+00
  0.5452381E+00 -0.1256898E+05  0.5587399E+01 -0.3806035E-02 -0.1026839E-02  0.1161266E+06  0.4554667E+00
  0.5761905E+00 -0.1245883E+05  0.8900897E+01  0.2399287E-01  0.3105178E-02  0.1160521E+06  0.7855798E+00
  0.6071429E+00 -0.1244484E+05  0.1383189E+02  0.1151051E-01  0.9080470E-03  0.1159925E+06  0.1347868E+01
  0.6380953E+00 -0.1228179E+05  0.2091970E+02  0.2726085E-02 -0.8925200E-03  0.1162371E+06  0.2111650E+01
  0.6690477E+00 -0.1204941E+05  0.3102793E+02 -0.4470119E-02 -0.2432048E-02  0.1164176E+06  0.3342089E+01
  0.7000000E+00 -0.1187030E+05  0.4521096E+02  0.3618513E-02 -0.1017153E-02  0.1164527E+06  0.5255848E+01
  0.7309524E+00 -0.1174441E+05  0.6481785E+02 -0.3841039E-02 -0.2497435E-02  0.1163882E+06  0.8051535E+01
  0.7619048E+00 -0.1159374E+05  0.9138818E+02 -0.5447387E-02 -0.3754139E-02  0.1164512E+06  0.1212334E+02
  0.7928572E+00 -0.1142331E+05  0.1266572E+03 -0.1247097E-01 -0.6859541E-02  0.1166103E+06  0.1770755E+02
  0.8238096E+00 -0.1116182E+05  0.1729300E+03  0.1022427E-01  0.2762318E-02  0.1168303E+06  0.2544549E+02
  0.8547620E+00 -0.1084884E+05  0.2330859E+03  0.2277852E-01  0.8173466E-02  0.1170594E+06  0.3627560E+02
  0.8857143E+00 -0.1056830E+05  0.3109155E+03  0.7511262E-02  0.6332397E-03  0.1171199E+06  0.5137997E+02
  0.9166667E+00 -0.1035837E+05  0.4104443E+03 -0.1131925E-02 -0.3556252E-02  0.1171072E+06  0.7215614E+02
  0.9476191E+00 -0.1015692E+05  0.5358553E+03  0.1030543E-02 -0.2193451E-02  0.1171431E+06  0.9985745E+02
  0.9785714E+00 -0.9862935E+04  0.6900939E+03 -0.8544922E-02 -0.9939194E-02  0.1173754E+06  0.1349388E+03
  0.1009524E+01 -0.9506042E+04  0.8780780E+03  0.6287773E-02  0.3179550E-02  0.1177012E+06  0.1790159E+03
  0.1040476E+01 -0.9164654E+04  0.1107262E+04  0.1818485E-02 -0.3526688E-02  0.1179196E+06  0.2349988E+03
  0.1071429E+01 -0.8789927E+04  0.1382473E+04 -0.1429850E-01 -0.1796150E-01  0.1181350E+06  0.3067039E+03
  0.1102381E+01 -0.8447412E+04  0.1713268E+04  0.8747933E-02  0.5886078E-02  0.1182837E+06  0.3983220E+03
  0.1133333E+01 -0.8100021E+04  0.2104476E+04  0.8455165E-02  0.7038116E-02  0.1184593E+06  0.5149604E+03
  0.1164286E+01 -0.7776035E+04  0.2566405E+04 -0.2621142E-03 -0.1453400E-02  0.1186205E+06  0.6623981E+03
  0.1195238E+01 -0.7500223E+04  0.3104029E+04  0.4493744E-02  0.4043579E-02  0.1187461E+06  0.8405159E+03
  0.1226190E+01 -0.7207901E+04  0.3713894E+04 -0.4579415E-02 -0.1869965E-01  0.1189934E+06  0.1048696E+04
  0.1257143E+01 -0.6944250E+04  0.4412042E+04  0.5923184E-02  0.6286621E-02  0.1192617E+06  0.1292166E+04
  0.1288095E+01 -0.6647903E+04  0.5177320E+04  0.5117476E-02  0.9300232E-02  0.1195397E+06  0.1570211E+04
  0.1319048E+01 -0.6381270E+04  0.6038015E+04 -0.5645201E-02 -0.2363586E-01  0.1198250E+06  0.1897837E+04
  0.1350000E+01 -0.6151290E+04  0.6994135E+04 -0.2893518E-02 -0.1499939E-01  0.1200282E+06  0.2281591E+04
  0.1380952E+01 -0.6007585E+04  0.8044311E+04  0.1679519E-02 -0.1480103E-02  0.1201494E+06  0.2716807E+04
  0.1411905E+01 -0.7888325E+04  0.8038073E+04 -0.8645789E-04 -0.8956909E-02  0.1188362E+06  0.2798469E+04
  0.1442857E+01 -0.7797745E+04  0.9132764E+04  0.8460318E-04 -0.6530762E-02  0.1190113E+06  0.3281504E+04
  0.1473810E+01 -0.7744374E+04  0.1030475E+05  0.6046326E-02  0.1077271E-01  0.1191617E+06  0.3815949E+04
  0.1504762E+01 -0.7723168E+04  0.1152926E+05  0.6489814E-03 -0.7034302E-02  0.1193752E+06  0.4410410E+04
  0.1535714E+01 -0.7738112E+04  0.1280635E+05  0.0000000E+00 -0.1431274E-01  0.1196170E+06  0.5054494E+04
  0.1566667E+01 -0.7817912E+04  0.1414672E+05  0.7791722E-03 -0.1449585E-01  0.1197282E+06  0.5750084E+04
  0.1597619E+01 -0.7988014E+04  0.1552456E+05  0.3591159E-02  0.3997803E-02  0.1198172E+06  0.6492674E+04
  0.1628572E+01 -0.8195341E+04  0.1692700E+05  0.5471748E-02  0.2310181E-01  0.1198843E+06  0.7284769E+04
  0.1659524E+01 -0.8458071E+04  0.1834469E+05 -0.6620169E-03 -0.2590942E-01  0.1199393E+06  0.8126143E+04
  0.1690476E+01 -0.8772726E+04  0.1978514E+05  0.3899373E-02 -0.1416016E-01  0.1199360E+06  0.9005920E+04
  0.1721429E+01 -0.9119748E+04  0.2121408E+05 -0.1418244E-03 -0.1513672E-01  0.1199328E+06  0.9917150E+04
  0.1752381E+01 -0.9503441E+04  0.2261555E+05  0.3343665E-02 -0.8392334E-02  0.1199195E+06  0.1085133E+05
  0.1783333E+01 -0.9917135E+04  0.2399738E+05 -0.3354082E-02 -0.1275635E-01  0.1198955E+06  0.1182089E+05
  0.1814286E+01 -0.1034813E+05  0.2537880E+05  0.5315345E-02  0.1275635E-01  0.1197705E+06  0.1278787E+05
  0.1845238E+01 -0.1083872E+05  0.2671065E+05  0.3043095E-02  0.1458740E-01  0.1196669E+06  0.1378223E+05
  0.1876190E+01 -0.1133410E+05  0.2799979E+05  0.2537451E-02  0.5615234E-02  0.1195482E+06  0.1478805E+05
  0.1907143E+01 -0.1184584E+05  0.2923371E+05  0.4992539E-02  0.1239014E-01  0.1194201E+06  0.1579991E+05
  0.1938095E+01 -0.1238984E+05  0.3042764E+05  0.1574617E-02  0.4455566E-02  0.1192750E+06  0.1681830E+05
  0.1969048E+01 -0.1293387E+05  0.3161418E+05  0.5393530E-02  0.5187988E-02  0.1190466E+06  0.1781071E+05
  0.2000000E+01 -0.1348858E+05  0.3269720E+05  0.6103516E-03 -0.2258301E-02  0.1188670E+06  0.1883719E+05
