VARIABLES="w (rad/s)"
"abs(F   1   1)" "angle(F   1   1)"
"abs(F   1   2)" "angle(F   1   2)"
"abs(F   1   3)" "angle(F   1   3)"
Zone t="Diffraction force - beta =   0.000 deg",I=    64,F=POINT
  0.5000000E-01  0.1440825E+04 -0.1570789E+01  0.3245728E+06 -0.2355073E-04  0.1403143E+04 -0.1570795E+01
  0.8095238E-01  0.2349823E+04 -0.1570789E+01  0.3240609E+06 -0.6337340E-04  0.2283303E+04 -0.1570798E+01
  0.1119048E+00  0.3280555E+04 -0.1570801E+01  0.3233092E+06 -0.1258987E-03  0.3188304E+04 -0.1570795E+01
  0.1428571E+00  0.4240206E+04 -0.1570796E+01  0.3223156E+06 -0.2159704E-03  0.4124126E+04 -0.1570793E+01
  0.1738095E+00  0.5242149E+04 -0.1570790E+01  0.3210793E+06 -0.3409865E-03  0.5105844E+04 -0.1570791E+01
  0.2047619E+00  0.6294699E+04 -0.1570794E+01  0.3195941E+06 -0.5114677E-03  0.6139221E+04 -0.1570788E+01
  0.2357143E+00  0.7414240E+04 -0.1570780E+01  0.3178622E+06 -0.7432030E-03  0.7245111E+04 -0.1570785E+01
  0.2666667E+00  0.8616785E+04 -0.1570774E+01  0.3158733E+06 -0.1055471E-02  0.8437158E+04 -0.1570778E+01
  0.2976190E+00  0.9917062E+04 -0.1570770E+01  0.3136255E+06 -0.1480491E-02  0.9732097E+04 -0.1570767E+01
  0.3285715E+00  0.1133870E+05 -0.1570754E+01  0.3111195E+06 -0.2052064E-02  0.1115698E+05 -0.1570753E+01
  0.3595238E+00  0.1290235E+05 -0.1570732E+01  0.3083541E+06 -0.2822525E-02  0.1273242E+05 -0.1570733E+01
  0.3904762E+00  0.1462331E+05 -0.1570703E+01  0.3053175E+06 -0.3851959E-02  0.1447092E+05 -0.1570701E+01
  0.4214286E+00  0.1652329E+05 -0.1570656E+01  0.3020495E+06 -0.5179174E-02  0.1640570E+05 -0.1570654E+01
  0.4523810E+00  0.1861412E+05 -0.1570585E+01  0.2985388E+06 -0.6907169E-02  0.1855054E+05 -0.1570586E+01
  0.4833333E+00  0.2089415E+05 -0.1570492E+01  0.2948069E+06 -0.8995739E-02  0.2089701E+05 -0.1570492E+01
  0.5142857E+00  0.2335413E+05 -0.1570363E+01  0.2908642E+06 -0.1156349E-01  0.2344539E+05 -0.1570362E+01
  0.5452381E+00  0.2598413E+05 -0.1570190E+01  0.2867388E+06 -0.1458055E-01  0.2619522E+05 -0.1570189E+01
  0.5761905E+00  0.2877297E+05 -0.1569966E+01  0.2824392E+06 -0.1806027E-01  0.2913841E+05 -0.1569965E+01
  0.6071429E+00  0.3170036E+05 -0.1569678E+01  0.2779673E+06 -0.2210174E-01  0.3224992E+05 -0.1569677E+01
  0.6380953E+00  0.3473812E+05 -0.1569320E+01  0.2733159E+06 -0.2661924E-01  0.3548673E+05 -0.1569320E+01
  0.6690477E+00  0.3788859E+05 -0.1568880E+01  0.2685310E+06 -0.3171711E-01  0.3888566E+05 -0.1568878E+01
  0.7000000E+00  0.4114375E+05 -0.1568341E+01  0.2636339E+06 -0.3745875E-01  0.4244827E+05 -0.1568340E+01
  0.7309524E+00  0.4449445E+05 -0.1567696E+01  0.2585987E+06 -0.4380495E-01  0.4614764E+05 -0.1567695E+01
  0.7619048E+00  0.4792177E+05 -0.1566930E+01  0.2534445E+06 -0.5081902E-01  0.4996427E+05 -0.1566928E+01
  0.7928572E+00  0.5140846E+05 -0.1566030E+01  0.2481955E+06 -0.5853930E-01  0.5387404E+05 -0.1566027E+01
  0.8238096E+00  0.5495139E+05 -0.1564985E+01  0.2428692E+06 -0.6699148E-01  0.5789904E+05 -0.1564979E+01
  0.8547620E+00  0.5854397E+05 -0.1563784E+01  0.2374870E+06 -0.7619936E-01  0.6203886E+05 -0.1563777E+01
  0.8857143E+00  0.6218541E+05 -0.1562419E+01  0.2320510E+06 -0.8618164E-01  0.6628765E+05 -0.1562409E+01
  0.9166667E+00  0.6585408E+05 -0.1560881E+01  0.2265653E+06 -0.9695589E-01  0.7062805E+05 -0.1560868E+01
  0.9476191E+00  0.6953162E+05 -0.1559167E+01  0.2210401E+06 -0.1085424E+00  0.7502983E+05 -0.1559150E+01
  0.9785714E+00  0.7319829E+05 -0.1557274E+01  0.2154873E+06 -0.1209544E+00  0.7945727E+05 -0.1557250E+01
  0.1009524E+01  0.7684392E+05 -0.1555207E+01  0.2099193E+06 -0.1342189E+00  0.8391488E+05 -0.1555176E+01
  0.1040476E+01  0.8045316E+05 -0.1552977E+01  0.2043526E+06 -0.1483620E+00  0.8840859E+05 -0.1552936E+01
  0.1071429E+01  0.8401805E+05 -0.1550596E+01  0.1988011E+06 -0.1634037E+00  0.9291891E+05 -0.1550548E+01
  0.1102381E+01  0.8751623E+05 -0.1548090E+01  0.1932673E+06 -0.1793630E+00  0.9742630E+05 -0.1548031E+01
  0.1133333E+01  0.9093003E+05 -0.1545480E+01  0.1877564E+06 -0.1962392E+00  0.1018955E+06 -0.1545408E+01
  0.1164286E+01  0.9424243E+05 -0.1542803E+01  0.1822467E+06 -0.2140652E+00  0.1063056E+06 -0.1542714E+01
  0.1195238E+01  0.9742618E+05 -0.1540100E+01  0.1767496E+06 -0.2328431E+00  0.1106326E+06 -0.1539986E+01
  0.1226190E+01  0.1004621E+06 -0.1537418E+01  0.1712712E+06 -0.2526006E+00  0.1148338E+06 -0.1537276E+01
  0.1257143E+01  0.1033213E+06 -0.1534787E+01  0.1658251E+06 -0.2736180E+00  0.1188812E+06 -0.1534610E+01
  0.1288095E+01  0.1060180E+06 -0.1532375E+01  0.1604062E+06 -0.2952591E+00  0.1227839E+06 -0.1532162E+01
  0.1319048E+01  0.1084948E+06 -0.1530157E+01  0.1550463E+06 -0.3182766E+00  0.1264978E+06 -0.1529902E+01
  0.1350000E+01  0.1107676E+06 -0.1528259E+01  0.1497179E+06 -0.3424554E+00  0.1300033E+06 -0.1527963E+01
  0.1380952E+01  0.1128101E+06 -0.1526770E+01  0.1444207E+06 -0.3678417E+00  0.1332858E+06 -0.1526430E+01
  0.1411905E+01  0.1146360E+06 -0.1525721E+01  0.1393261E+06 -0.3917944E+00  0.1363536E+06 -0.1525341E+01
  0.1442857E+01  0.1162092E+06 -0.1525276E+01  0.1340853E+06 -0.4196955E+00  0.1391630E+06 -0.1524849E+01
  0.1473810E+01  0.1175306E+06 -0.1525530E+01  0.1288836E+06 -0.4491853E+00  0.1416901E+06 -0.1525061E+01
  0.1504762E+01  0.1185889E+06 -0.1526583E+01  0.1237240E+06 -0.4803546E+00  0.1439206E+06 -0.1526075E+01
  0.1535714E+01  0.1193849E+06 -0.1528541E+01  0.1186115E+06 -0.5134185E+00  0.1458423E+06 -0.1528007E+01
  0.1566667E+01  0.1199229E+06 -0.1531521E+01  0.1135436E+06 -0.5485323E+00  0.1474551E+06 -0.1530975E+01
  0.1597619E+01  0.1202015E+06 -0.1535614E+01  0.1085336E+06 -0.5859861E+00  0.1487515E+06 -0.1535076E+01
  0.1628572E+01  0.1202309E+06 -0.1540920E+01  0.1035772E+06 -0.6260382E+00  0.1497270E+06 -0.1540420E+01
  0.1659524E+01  0.1200164E+06 -0.1547537E+01  0.9868798E+05 -0.6691547E+00  0.1503921E+06 -0.1547106E+01
  0.1690476E+01  0.1195718E+06 -0.1555561E+01  0.9388385E+05 -0.7159011E+00  0.1507525E+06 -0.1555243E+01
  0.1721429E+01  0.1189167E+06 -0.1565063E+01  0.8918506E+05 -0.7667304E+00  0.1508125E+06 -0.1564923E+01
  0.1752381E+01  0.1180536E+06 -0.1576115E+01  0.8462872E+05 -0.8222833E+00  0.1505917E+06 -0.1576214E+01
  0.1783333E+01  0.1170121E+06 -0.1588803E+01  0.8022041E+05 -0.8833592E+00  0.1501014E+06 -0.1589238E+01
  0.1814286E+01  0.1157965E+06 -0.1603190E+01  0.7600738E+05 -0.9506065E+00  0.1493595E+06 -0.1604036E+01
  0.1845238E+01  0.1144308E+06 -0.1619299E+01  0.7207502E+05 -0.1024715E+01  0.1483739E+06 -0.1620695E+01
  0.1876190E+01  0.1129300E+06 -0.1637190E+01  0.6849030E+05 -0.1106688E+01  0.1471665E+06 -0.1639270E+01
  0.1907143E+01  0.1113142E+06 -0.1656915E+01  0.6532261E+05 -0.1196812E+01  0.1457631E+06 -0.1659852E+01
  0.1938095E+01  0.1095968E+06 -0.1678536E+01  0.6266496E+05 -0.1294719E+01  0.1442002E+06 -0.1682495E+01
  0.1969048E+01  0.1078057E+06 -0.1702049E+01  0.6060031E+05 -0.1399819E+01  0.1424870E+06 -0.1707269E+01
  0.2000000E+01  0.1059508E+06 -0.1727480E+01  0.5920476E+05 -0.1510146E+01  0.1406507E+06 -0.1734228E+01
