VARIABLES="w (rad/s)"
"abs(F   1   1)" "angle(F   1   1)"
"abs(F   1   2)" "angle(F   1   2)"
"abs(F   1   3)" "angle(F   1   3)"
Zone t="Diffraction force - beta =   0.000 deg",I=    64,F=POINT
  0.5000000E-01  0.2156631E+04 -0.1570796E+01  0.6504703E+06 -0.4289980E-04  0.5099204E+04 -0.1570817E+01
  0.8095238E-01  0.3515728E+04 -0.1570795E+01  0.6492864E+06 -0.1154055E-03  0.8307266E+04 -0.1570802E+01
  0.1119048E+00  0.4904453E+04 -0.1570799E+01  0.6475498E+06 -0.2291639E-03  0.1158682E+05 -0.1570797E+01
  0.1428571E+00  0.6340229E+04 -0.1570794E+01  0.6452604E+06 -0.3928311E-03  0.1498817E+05 -0.1570790E+01
  0.1738095E+00  0.7834350E+04 -0.1570790E+01  0.6424021E+06 -0.6197108E-03  0.1852964E+05 -0.1570791E+01
  0.2047619E+00  0.9409121E+04 -0.1570782E+01  0.6389756E+06 -0.9285799E-03  0.2227571E+05 -0.1570786E+01
  0.2357143E+00  0.1108016E+05 -0.1570779E+01  0.6349619E+06 -0.1347580E-02  0.2624860E+05 -0.1570783E+01
  0.2666667E+00  0.1287258E+05 -0.1570770E+01  0.6303460E+06 -0.1910990E-02  0.3052883E+05 -0.1570774E+01
  0.2976190E+00  0.1481649E+05 -0.1570757E+01  0.6251361E+06 -0.2676018E-02  0.3518402E+05 -0.1570759E+01
  0.3285715E+00  0.1693370E+05 -0.1570743E+01  0.6192990E+06 -0.3701736E-02  0.4025129E+05 -0.1570741E+01
  0.3595238E+00  0.1925768E+05 -0.1570713E+01  0.6128472E+06 -0.5079894E-02  0.4583662E+05 -0.1570715E+01
  0.3904762E+00  0.2182761E+05 -0.1570671E+01  0.6057801E+06 -0.6915938E-02  0.5204961E+05 -0.1570675E+01
  0.4214286E+00  0.2465553E+05 -0.1570615E+01  0.5982161E+06 -0.9271936E-02  0.5887366E+05 -0.1570615E+01
  0.4523810E+00  0.2775667E+05 -0.1570530E+01  0.5900565E+06 -0.1232614E-01  0.6637718E+05 -0.1570529E+01
  0.4833333E+00  0.3113805E+05 -0.1570411E+01  0.5814655E+06 -0.1599925E-01  0.7461149E+05 -0.1570412E+01
  0.5142857E+00  0.3479846E+05 -0.1570249E+01  0.5725060E+06 -0.2049412E-01  0.8356691E+05 -0.1570249E+01
  0.5452381E+00  0.3869607E+05 -0.1570036E+01  0.5631748E+06 -0.2574175E-01  0.9309776E+05 -0.1570038E+01
  0.5761905E+00  0.4281382E+05 -0.1569763E+01  0.5534750E+06 -0.3175265E-01  0.1032175E+06 -0.1569764E+01
  0.6071429E+00  0.4712188E+05 -0.1569417E+01  0.5435456E+06 -0.3869346E-01  0.1138585E+06 -0.1569417E+01
  0.6380953E+00  0.5160443E+05 -0.1568990E+01  0.5333647E+06 -0.4640294E-01  0.1249889E+06 -0.1568990E+01
  0.6690477E+00  0.5624668E+05 -0.1568474E+01  0.5229933E+06 -0.5503733E-01  0.1365621E+06 -0.1568472E+01
  0.7000000E+00  0.6101316E+05 -0.1567849E+01  0.5124408E+06 -0.6468367E-01  0.1484814E+06 -0.1567849E+01
  0.7309524E+00  0.6588327E+05 -0.1567114E+01  0.5016802E+06 -0.7526042E-01  0.1607330E+06 -0.1567115E+01
  0.7619048E+00  0.7084955E+05 -0.1566259E+01  0.4908395E+06 -0.8686733E-01  0.1733175E+06 -0.1566259E+01
  0.7928572E+00  0.7590473E+05 -0.1565276E+01  0.4800038E+06 -0.9955834E-01  0.1862150E+06 -0.1565278E+01
  0.8238096E+00  0.8101405E+05 -0.1564162E+01  0.4691948E+06 -0.1133457E+00  0.1993052E+06 -0.1564163E+01
  0.8547620E+00  0.8616410E+05 -0.1562916E+01  0.4583335E+06 -0.1282220E+00  0.2125729E+06 -0.1562916E+01
  0.8857143E+00  0.9132830E+05 -0.1561540E+01  0.4474512E+06 -0.1441900E+00  0.2259690E+06 -0.1561541E+01
  0.9166667E+00  0.9648012E+05 -0.1560046E+01  0.4366140E+06 -0.1612813E+00  0.2394326E+06 -0.1560047E+01
  0.9476191E+00  0.1015916E+06 -0.1558451E+01  0.4259238E+06 -0.1795279E+00  0.2528915E+06 -0.1558454E+01
  0.9785714E+00  0.1066518E+06 -0.1556778E+01  0.4153788E+06 -0.1989315E+00  0.2663362E+06 -0.1556782E+01
  0.1009524E+01  0.1116284E+06 -0.1555055E+01  0.4050206E+06 -0.2195078E+00  0.2796739E+06 -0.1555061E+01
  0.1040476E+01  0.1165000E+06 -0.1553323E+01  0.3948079E+06 -0.2412208E+00  0.2928411E+06 -0.1553331E+01
  0.1071429E+01  0.1212268E+06 -0.1551625E+01  0.3847488E+06 -0.2640555E+00  0.3057326E+06 -0.1551633E+01
  0.1102381E+01  0.1257760E+06 -0.1550016E+01  0.3748242E+06 -0.2880003E+00  0.3182659E+06 -0.1550022E+01
  0.1133333E+01  0.1301244E+06 -0.1548565E+01  0.3650582E+06 -0.3130439E+00  0.3303813E+06 -0.1548569E+01
  0.1164286E+01  0.1342345E+06 -0.1547348E+01  0.3554748E+06 -0.3392206E+00  0.3419890E+06 -0.1547350E+01
  0.1195238E+01  0.1380885E+06 -0.1546453E+01  0.3460910E+06 -0.3665134E+00  0.3530353E+06 -0.1546455E+01
  0.1226190E+01  0.1416606E+06 -0.1545975E+01  0.3369349E+06 -0.3949442E+00  0.3634523E+06 -0.1545977E+01
  0.1257143E+01  0.1449333E+06 -0.1545982E+01  0.3280127E+06 -0.4247957E+00  0.3731753E+06 -0.1545982E+01
  0.1288095E+01  0.1478826E+06 -0.1546675E+01  0.3193654E+06 -0.4551947E+00  0.3821548E+06 -0.1546673E+01
  0.1319048E+01  0.1505016E+06 -0.1548073E+01  0.3109024E+06 -0.4869474E+00  0.3903490E+06 -0.1548070E+01
  0.1350000E+01  0.1527717E+06 -0.1550316E+01  0.3026384E+06 -0.5197529E+00  0.3977012E+06 -0.1550311E+01
  0.1380952E+01  0.1546852E+06 -0.1553517E+01  0.2945372E+06 -0.5535244E+00  0.4041714E+06 -0.1553511E+01
  0.1411905E+01  0.1567585E+06 -0.1556407E+01  0.2893175E+06 -0.5772942E+00  0.4113012E+06 -0.1556400E+01
  0.1442857E+01  0.1580695E+06 -0.1561442E+01  0.2816716E+06 -0.6125569E+00  0.4163265E+06 -0.1561435E+01
  0.1473810E+01  0.1590251E+06 -0.1567696E+01  0.2742668E+06 -0.6488832E+00  0.4204651E+06 -0.1567687E+01
  0.1504762E+01  0.1596418E+06 -0.1575272E+01  0.2670583E+06 -0.6862164E+00  0.4237249E+06 -0.1575264E+01
  0.1535714E+01  0.1599256E+06 -0.1584255E+01  0.2600545E+06 -0.7245598E+00  0.4261244E+06 -0.1584249E+01
  0.1566667E+01  0.1598925E+06 -0.1594713E+01  0.2532558E+06 -0.7639129E+00  0.4276867E+06 -0.1594709E+01
  0.1597619E+01  0.1595672E+06 -0.1606725E+01  0.2466726E+06 -0.8042889E+00  0.4284784E+06 -0.1606723E+01
  0.1628572E+01  0.1589673E+06 -0.1620355E+01  0.2402885E+06 -0.8456391E+00  0.4285528E+06 -0.1620355E+01
  0.1659524E+01  0.1581142E+06 -0.1635643E+01  0.2340781E+06 -0.8879454E+00  0.4279330E+06 -0.1635648E+01
  0.1690476E+01  0.1570219E+06 -0.1652609E+01  0.2280396E+06 -0.9311698E+00  0.4266456E+06 -0.1652616E+01
  0.1721429E+01  0.1557152E+06 -0.1671289E+01  0.2221535E+06 -0.9753031E+00  0.4247439E+06 -0.1671302E+01
  0.1752381E+01  0.1542100E+06 -0.1691710E+01  0.2164103E+06 -0.1020338E+01  0.4222775E+06 -0.1691725E+01
  0.1783333E+01  0.1525342E+06 -0.1713869E+01  0.2108334E+06 -0.1066352E+01  0.4193012E+06 -0.1713894E+01
  0.1814286E+01  0.1507100E+06 -0.1737789E+01  0.2054272E+06 -0.1113331E+01  0.4158828E+06 -0.1737827E+01
  0.1845238E+01  0.1487584E+06 -0.1763469E+01  0.2001810E+06 -0.1161266E+01  0.4120727E+06 -0.1763525E+01
  0.1876190E+01  0.1467023E+06 -0.1790913E+01  0.1950991E+06 -0.1210137E+01  0.4079535E+06 -0.1790991E+01
  0.1907143E+01  0.1445598E+06 -0.1820118E+01  0.1901747E+06 -0.1260009E+01  0.4035507E+06 -0.1820208E+01
  0.1938095E+01  0.1423395E+06 -0.1851027E+01  0.1853759E+06 -0.1310728E+01  0.3988804E+06 -0.1851143E+01
  0.1969048E+01  0.1400595E+06 -0.1883608E+01  0.1807216E+06 -0.1362320E+01  0.3939760E+06 -0.1883768E+01
  0.2000000E+01  0.1377405E+06 -0.1917911E+01  0.1762058E+06 -0.1414881E+01  0.3889462E+06 -0.1918100E+01
