VARIABLES="w (rad/s)"
"A   1   1" "B   1   1"
"A   1   2" "B   1   2"
"A   1   3" "B   1   3"
Zone t="Motion of body    1 in DoF   1",I=    64,F=POINT
  0.5000000E-01  0.1064343E+06  0.1591494E-01 -0.1510620E-01 -0.2885944E-04  0.2358978E+04  0.4511557E-03
  0.8095238E-01  0.1067240E+06  0.7003648E-01  0.3463521E-02  0.3792059E-04  0.2341602E+04  0.1969039E-02
  0.1119048E+00  0.1068763E+06  0.1964882E+00  0.4107698E-02  0.4198554E-04  0.2324093E+04  0.5525955E-02
  0.1428571E+00  0.1068629E+06  0.4420828E+00 -0.3765106E-02 -0.2119201E-04  0.2342081E+04  0.1247568E-01
  0.1738095E+00  0.1072702E+06  0.8804191E+00 -0.2089409E-01 -0.1364115E-03  0.2350702E+04  0.2497493E-01
  0.2047619E+00  0.1074852E+06  0.1623466E+01 -0.8774690E-02 -0.2159770E-03  0.2379747E+04  0.4636703E-01
  0.2357143E+00  0.1076190E+06  0.2857173E+01  0.1734878E-01  0.3648065E-03  0.2375678E+04  0.8193465E-01
  0.2666667E+00  0.1081440E+06  0.4876694E+01  0.6380081E-02  0.2911426E-03  0.2407795E+04  0.1410439E+00
  0.2976190E+00  0.1084001E+06  0.8173246E+01 -0.1920044E-01 -0.7278994E-03  0.2437729E+04  0.2386739E+00
  0.3285715E+00  0.1087273E+06  0.1351408E+02 -0.2205890E-02 -0.4083291E-04  0.2451578E+04  0.3979503E+00
  0.3595238E+00  0.1093895E+06  0.2219346E+02 -0.2018101E-01 -0.9245500E-03  0.2510626E+04  0.6620439E+00
  0.3904762E+00  0.1099709E+06  0.3617554E+02  0.1326677E-01  0.1554064E-02  0.2547344E+04  0.1091606E+01
  0.4214286E+00  0.1102658E+06  0.5810855E+02 -0.8563025E-02 -0.1312435E-02  0.2543766E+04  0.1768512E+01
  0.4523810E+00  0.1110810E+06  0.9266457E+02 -0.1224397E-01 -0.1702264E-02  0.2611651E+04  0.2861897E+01
  0.4833333E+00  0.1120404E+06  0.1441537E+03  0.4451357E-02  0.3003776E-03  0.2675871E+04  0.4518221E+01
  0.5142857E+00  0.1127740E+06  0.2203945E+03  0.3590054E-02  0.6826520E-03  0.2721841E+04  0.7004612E+01
  0.5452381E+00  0.1134152E+06  0.3287571E+03 -0.1768687E-01 -0.8988380E-03  0.2733171E+04  0.1056408E+02
  0.5761905E+00  0.1144653E+06  0.4792804E+03 -0.2290710E-01 -0.3208399E-02  0.2809187E+04  0.1566059E+02
  0.6071429E+00  0.1158109E+06  0.6862457E+03  0.1741656E-01  0.9543896E-03  0.2912868E+04  0.2284079E+02
  0.6380953E+00  0.1170219E+06  0.9603197E+03 -0.1738477E-01 -0.2544880E-02  0.2975189E+04  0.3246198E+02
  0.6690477E+00  0.1179150E+06  0.1319291E+04 -0.6454304E-02 -0.4160404E-03  0.3010185E+04  0.4524899E+02
  0.7000000E+00  0.1191939E+06  0.1785998E+04 -0.2437046E-01 -0.3886700E-02  0.3096678E+04  0.6235584E+02
  0.7309524E+00  0.1207811E+06  0.2380793E+04 -0.6575692E-02 -0.2307892E-03  0.3194192E+04  0.8461642E+02
  0.7619048E+00  0.1224338E+06  0.3131129E+04 -0.1648235E-01 -0.2371311E-02  0.3313100E+04  0.1135262E+03
  0.7928572E+00  0.1241060E+06  0.4066749E+04  0.8429449E-02  0.5208969E-02  0.3443003E+04  0.1506187E+03
  0.8238096E+00  0.1255891E+06  0.5216971E+04  0.9335203E-02  0.6379128E-02  0.3513093E+04  0.1964965E+03
  0.8547620E+00  0.1270273E+06  0.6615268E+04 -0.8782942E-02 -0.1206398E-02  0.3585833E+04  0.2533916E+03
  0.8857143E+00  0.1286390E+06  0.8299133E+04 -0.3100980E-03  0.4339218E-02  0.3713643E+04  0.3244249E+03
  0.9166667E+00  0.1304601E+06  0.1030793E+05  0.9022105E-02  0.3162384E-02  0.3867080E+04  0.4119899E+03
  0.9476191E+00  0.1322716E+06  0.1267741E+05  0.3220448E-03  0.3528595E-03  0.4008745E+04  0.5174655E+03
  0.9785714E+00  0.1339561E+06  0.1544481E+05  0.8388992E-02  0.6679535E-02  0.4142660E+04  0.6435583E+03
  0.1009524E+01  0.1353655E+06  0.1864064E+05 -0.1130590E-01 -0.1475525E-01  0.4263360E+04  0.7934288E+03
  0.1040476E+01  0.1364974E+06  0.2229171E+05  0.6423356E-02 -0.1229858E-01  0.4369296E+04  0.9696048E+03
  0.1071429E+01  0.1374300E+06  0.2641449E+05 -0.1264649E-01 -0.1022339E-02  0.4477748E+04  0.1173890E+04
  0.1102381E+01  0.1382134E+06  0.3101127E+05 -0.9024766E-02  0.6645203E-02  0.4580243E+04  0.1406729E+04
  0.1133333E+01  0.1387639E+06  0.3607966E+05 -0.1855289E-01 -0.1620483E-01  0.4674622E+04  0.1670362E+04
  0.1164286E+01  0.1389574E+06  0.4160622E+05 -0.5347129E-02  0.3753662E-02  0.4765369E+04  0.1970171E+04
  0.1195238E+01  0.1387757E+06  0.4756354E+05  0.5949104E-02  0.8735657E-02  0.4847487E+04  0.2305489E+04
  0.1226190E+01  0.1381915E+06  0.5390346E+05 -0.4230981E-03  0.2799988E-02  0.4918428E+04  0.2674574E+04
  0.1257143E+01  0.1371740E+06  0.6058122E+05 -0.1687136E-01 -0.2323151E-01  0.4947825E+04  0.3072591E+04
  0.1288095E+01  0.1357452E+06  0.6739682E+05 -0.2179666E-02  0.2037048E-02  0.4950153E+04  0.3490035E+04
  0.1319048E+01  0.1338853E+06  0.7439625E+05 -0.8884250E-02  0.1210022E-01  0.4928843E+04  0.3937058E+04
  0.1350000E+01  0.1315482E+06  0.8144701E+05  0.4046405E-02  0.1206970E-01  0.4893673E+04  0.4412654E+04
  0.1380952E+01  0.1288610E+06  0.8844898E+05  0.4552381E-02 -0.1760864E-01  0.4844177E+04  0.4905867E+04
  0.1411905E+01  0.1253526E+06  0.9485759E+05 -0.4301280E-02  0.3692627E-02  0.4694817E+04  0.5372675E+04
  0.1442857E+01  0.1220457E+06  0.1014398E+06 -0.2961111E-02  0.1098633E-02  0.4588700E+04  0.5875506E+04
  0.1473810E+01  0.1184446E+06  0.1077028E+06 -0.8841716E-02  0.2624512E-02  0.4455046E+04  0.6380241E+04
  0.1504762E+01  0.1146379E+06  0.1135840E+06 -0.2332277E-02 -0.2098083E-01  0.4302112E+04  0.6881220E+04
  0.1535714E+01  0.1106729E+06  0.1190254E+06 -0.5544263E-02 -0.1843262E-01  0.4138100E+04  0.7378591E+04
  0.1566667E+01  0.1066066E+06  0.1239815E+06 -0.2590748E-02  0.1101685E-01  0.3963633E+04  0.7867043E+04
  0.1597619E+01  0.1025025E+06  0.1284277E+06 -0.6723873E-02 -0.6698608E-02  0.3769052E+04  0.8341525E+04
  0.1628572E+01  0.9842463E+05  0.1323458E+06 -0.9725470E-02  0.2059937E-01  0.3570755E+04  0.8801970E+04
  0.1659524E+01  0.9441999E+05  0.1357389E+06 -0.7576415E-02  0.1119995E-01  0.3353472E+04  0.9237110E+04
  0.1690476E+01  0.9048616E+05  0.1386117E+06 -0.1462265E-02  0.7736206E-02  0.3134167E+04  0.9645846E+04
  0.1721429E+01  0.8665585E+05  0.1409949E+06 -0.1755077E-02 -0.4547119E-02  0.2905777E+04  0.1002176E+05
  0.1752381E+01  0.8297766E+05  0.1429120E+06 -0.4388561E-02  0.4577637E-03  0.2681338E+04  0.1038198E+05
  0.1783333E+01  0.7940943E+05  0.1443870E+06 -0.6194783E-02 -0.2685547E-02  0.2458595E+04  0.1073262E+05
  0.1814286E+01  0.7602645E+05  0.1454449E+06 -0.5719042E-03 -0.2270508E-01  0.2240682E+04  0.1106224E+05
  0.1845238E+01  0.7283526E+05  0.1461250E+06 -0.9261593E-02  0.3784180E-02  0.2026240E+04  0.1137334E+05
  0.1876190E+01  0.6983502E+05  0.1464536E+06 -0.9743163E-02  0.6866455E-03  0.1819010E+04  0.1166823E+05
  0.1907143E+01  0.6702093E+05  0.1464618E+06 -0.4912530E-02  0.8102417E-02  0.1608219E+04  0.1193645E+05
  0.1938095E+01  0.6438589E+05  0.1461706E+06 -0.5463921E-02  0.2441406E-02  0.1406067E+04  0.1217870E+05
  0.1969048E+01  0.6190799E+05  0.1456335E+06 -0.7501347E-02 -0.1484680E-01  0.1205975E+04  0.1239815E+05
  0.2000000E+01  0.5961427E+05  0.1448916E+06 -0.4333496E-02 -0.5172729E-02  0.1008785E+04  0.1259146E+05
Zone t="Motion of body    1 in DoF   2",I=    64,F=POINT
  0.5000000E-01  0.6637573E-02 -0.8022785E-04  0.1851455E+06  0.5857176E+03 -0.1304626E-01 -0.1657009E-04
  0.8095238E-01  0.1326505E-01 -0.2777576E-04  0.1822790E+06  0.9703859E+03 -0.1116809E-01 -0.1013279E-03
  0.1119048E+00  0.3852033E-02  0.1227856E-03  0.1807448E+06  0.1387946E+04 -0.9953924E-02 -0.9775162E-04
  0.1428571E+00 -0.1113510E-01 -0.1304150E-03  0.1798569E+06  0.1853706E+04 -0.1009369E-01 -0.1373291E-03
  0.1738095E+00 -0.1075431E-01  0.9346008E-04  0.1794972E+06  0.2386549E+04 -0.8164497E-02 -0.1449585E-03
  0.2047619E+00 -0.5030077E-02 -0.1502037E-03  0.1795627E+06  0.3010516E+04 -0.1102891E-01 -0.2279282E-03
  0.2357143E+00 -0.1424154E-02 -0.2593994E-03  0.1798652E+06  0.3758767E+04 -0.1087535E-01 -0.3185272E-03
  0.2666667E+00  0.1873970E-01 -0.2040863E-03  0.1804409E+06  0.4657848E+04 -0.1132965E-01 -0.3519058E-03
  0.2976190E+00 -0.2209717E-01 -0.4725456E-03  0.1811086E+06  0.5770970E+04 -0.1276611E-01 -0.4730225E-03
  0.3285715E+00  0.3877722E-02  0.1381874E-02  0.1819556E+06  0.7126781E+04 -0.1091335E-01 -0.6866455E-03
  0.3595238E+00 -0.1797404E-01 -0.3890991E-03  0.1825948E+06  0.8798683E+04 -0.1239297E-01 -0.8525848E-03
  0.3904762E+00 -0.3712351E-03  0.1583099E-03  0.1832707E+06  0.1083538E+05 -0.1410693E-01 -0.9479523E-03
  0.4214286E+00 -0.6173343E-02 -0.1296997E-03  0.1832784E+06  0.1320735E+05 -0.1209324E-01 -0.1281738E-02
  0.4523810E+00  0.3103156E-02 -0.2155304E-03  0.1830921E+06  0.1603318E+05 -0.1349198E-01 -0.1396179E-02
  0.4833333E+00 -0.1357506E-01  0.2374649E-02  0.1821431E+06  0.1905522E+05 -0.1426960E-01 -0.2071381E-02
  0.5142857E+00 -0.8426243E-02 -0.7133484E-03  0.1806434E+06  0.2242298E+05 -0.1204597E-01 -0.1815796E-02
  0.5452381E+00  0.1698723E-01 -0.2851486E-02  0.1787421E+06  0.2593059E+05 -0.9906886E-02 -0.2525330E-02
  0.5761905E+00  0.1933200E-02 -0.1182556E-02  0.1763278E+06  0.2950830E+05 -0.1186402E-01 -0.2601624E-02
  0.6071429E+00 -0.1922607E-01  0.1426697E-02  0.1735176E+06  0.3324473E+05 -0.1110840E-01 -0.3540039E-02
  0.6380953E+00  0.2592172E-01  0.5237579E-02  0.1705954E+06  0.3688821E+05 -0.1171738E-01 -0.2891541E-02
  0.6690477E+00  0.1343316E-01 -0.1296997E-03  0.1673561E+06  0.4054082E+05 -0.9989347E-02 -0.3173828E-02
  0.7000000E+00 -0.1041957E-01  0.7854462E-02  0.1639267E+06  0.4420813E+05 -0.1133510E-01 -0.4669189E-02
  0.7309524E+00 -0.8976343E-03  0.5332947E-02  0.1604507E+06  0.4776068E+05 -0.9059843E-02 -0.4028320E-02
  0.7619048E+00  0.1007366E-01 -0.3646851E-02  0.1568144E+06  0.5122866E+05 -0.1754379E-01 -0.5325317E-02
  0.7928572E+00 -0.1716682E-01  0.2429962E-02  0.1530971E+06  0.5459137E+05 -0.4965292E-02 -0.3677368E-02
  0.8238096E+00  0.3521075E-01  0.4333496E-02  0.1493529E+06  0.5781662E+05 -0.1003905E-01 -0.5340576E-02
  0.8547620E+00  0.1642339E-01 -0.1281738E-02  0.1456157E+06  0.6087430E+05 -0.9068565E-02 -0.5447388E-02
  0.8857143E+00  0.5771268E-02 -0.2014160E-02  0.1418710E+06  0.6376060E+05 -0.9165118E-02 -0.4425049E-02
  0.9166667E+00  0.9088689E-02  0.4676819E-02  0.1382016E+06  0.6644488E+05 -0.9621360E-02 -0.5630493E-02
  0.9476191E+00  0.1135208E-01 -0.1968384E-01  0.1345466E+06  0.6892788E+05 -0.1275297E-01 -0.7431030E-02
  0.9785714E+00 -0.1035370E-01 -0.7835388E-02  0.1309421E+06  0.7119041E+05 -0.8388992E-02 -0.6668091E-02
  0.1009524E+01  0.2841590E-02 -0.8308411E-02  0.1273953E+06  0.7323585E+05 -0.6831907E-02 -0.6546021E-02
  0.1040476E+01  0.2419758E-02  0.2623749E-01  0.1239807E+06  0.7504474E+05 -0.6452687E-02 -0.5386353E-02
  0.1071429E+01 -0.1609294E-02  0.1357269E-01  0.1206992E+06  0.7660813E+05 -0.2449544E-02 -0.8346558E-02
  0.1102381E+01  0.2657600E-02  0.2868652E-02  0.1175510E+06  0.7794177E+05 -0.6588633E-02 -0.6958008E-02
  0.1133333E+01 -0.8105109E-02  0.6507874E-02  0.1145101E+06  0.7905095E+05 -0.4927692E-02 -0.7095337E-02
  0.1164286E+01 -0.5556820E-02  0.7186890E-02  0.1115950E+06  0.7994455E+05 -0.3459907E-02 -0.7858276E-02
  0.1195238E+01 -0.9472608E-02 -0.1838684E-02  0.1088353E+06  0.8061400E+05 -0.6383159E-02 -0.7446289E-02
  0.1226190E+01  0.3434561E-02  0.6813049E-02  0.1062443E+06  0.8105068E+05 -0.5525163E-02 -0.6057739E-02
  0.1257143E+01 -0.1238043E-02 -0.2052307E-02  0.1038035E+06  0.8132710E+05 -0.6165938E-02 -0.7202148E-02
  0.1288095E+01 -0.1407306E-01  0.1119995E-01  0.1014866E+06  0.8132608E+05 -0.4406716E-02 -0.9094238E-02
  0.1319048E+01 -0.5251888E-02  0.1766205E-01  0.9930945E+05  0.8118188E+05 -0.5321296E-02 -0.8911133E-02
  0.1350000E+01  0.5368833E-02  0.8529663E-02  0.9726195E+05  0.8086231E+05 -0.5018446E-02 -0.9735107E-02
  0.1380952E+01 -0.1219861E-01  0.1115417E-01  0.9539504E+05  0.8035757E+05 -0.3182247E-02 -0.8209229E-02
  0.1411905E+01  0.3890605E-03 -0.1438904E-01  0.9367424E+05  0.7984212E+05 -0.2982797E-02 -0.6896973E-02
  0.1442857E+01 -0.7096092E-02  0.1696014E-01  0.9209080E+05  0.7904394E+05 -0.4864683E-02 -0.9429932E-02
  0.1473810E+01 -0.4141319E-02 -0.1313019E-01  0.9063559E+05  0.7810751E+05 -0.2940336E-02 -0.8956909E-02
  0.1504762E+01 -0.9978089E-02  0.1076508E-01  0.8930951E+05  0.7704808E+05 -0.3285468E-02 -0.1148987E-01
  0.1535714E+01 -0.7253247E-02 -0.1186371E-02  0.8808495E+05  0.7588258E+05 -0.3815407E-02 -0.7125854E-02
  0.1566667E+01 -0.4363364E-02 -0.1304626E-02  0.8698693E+05  0.7460712E+05 -0.2259599E-02 -0.8651733E-02
  0.1597619E+01 -0.8691370E-02  0.5279541E-02  0.8602231E+05  0.7325916E+05 -0.2445045E-02 -0.8377075E-02
  0.1628572E+01 -0.9744209E-03  0.3524780E-02  0.8517539E+05  0.7181720E+05 -0.3785250E-02 -0.5966187E-02
  0.1659524E+01  0.7705141E-02  0.2567291E-02  0.8441900E+05  0.7030100E+05 -0.2574510E-02 -0.9391785E-02
  0.1690476E+01  0.6896113E-02  0.1122665E-01  0.8375105E+05  0.6871546E+05 -0.2094107E-02 -0.6217957E-02
  0.1721429E+01 -0.3935628E-02 -0.5065918E-02  0.8318134E+05  0.6707790E+05 -0.2623752E-02 -0.4379272E-02
  0.1752381E+01 -0.6739575E-02  0.2086639E-02  0.8269112E+05  0.6540089E+05 -0.2507749E-02 -0.5455017E-02
  0.1783333E+01 -0.7238655E-02  0.5947113E-02  0.8225838E+05  0.6369505E+05 -0.2395773E-02 -0.7202148E-02
  0.1814286E+01 -0.5988174E-02  0.1366043E-01  0.8191939E+05  0.6194548E+05 -0.2960446E-02 -0.5844116E-02
  0.1845238E+01 -0.3324250E-02  0.4074097E-02  0.8164906E+05  0.6019524E+05 -0.2017704E-02 -0.7392883E-02
  0.1876190E+01 -0.6115909E-02 -0.4020691E-02  0.8144494E+05  0.5840249E+05 -0.2407326E-02 -0.5607605E-02
  0.1907143E+01 -0.5040544E-02 -0.4489899E-02  0.8129159E+05  0.5658055E+05 -0.1856200E-02 -0.4547119E-02
  0.1938095E+01 -0.2409164E-02 -0.1609802E-02  0.8117781E+05  0.5473327E+05 -0.2582372E-02 -0.1048279E-01
  0.1969048E+01 -0.1718800E-01  0.4116058E-02  0.8111200E+05  0.5287690E+05 -0.4959568E-03 -0.4631042E-02
  0.2000000E+01 -0.3036499E-02  0.2531242E-01  0.8108388E+05  0.5101352E+05 -0.1098633E-02 -0.3997803E-02
Zone t="Motion of body    1 in DoF   3",I=    64,F=POINT
  0.5000000E-01  0.2415661E+04  0.4614662E-03 -0.3023148E-02 -0.2670938E-04  0.5450645E+04  0.1225173E-04
  0.8095238E-01  0.2394825E+04  0.2035352E-02 -0.4706383E-02 -0.5656620E-04  0.5435518E+04  0.5737244E-04
  0.1119048E+00  0.2368917E+04  0.5721310E-02 -0.1597912E-01 -0.1508856E-03  0.5385926E+04  0.1689400E-03
  0.1428571E+00  0.2394382E+04  0.1291404E-01 -0.8204460E-02 -0.1238124E-03  0.5430244E+04  0.3499741E-03
  0.1738095E+00  0.2398224E+04  0.2587852E-01 -0.5283878E-02 -0.1316183E-03  0.5415052E+04  0.7659557E-03
  0.2047619E+00  0.2431737E+04  0.4797837E-01 -0.1274752E-01 -0.2767492E-03  0.5420051E+04  0.1384548E-02
  0.2357143E+00  0.2424426E+04  0.8497629E-01 -0.1625234E-01 -0.4690294E-03  0.5410704E+04  0.2473114E-02
  0.2666667E+00  0.2456576E+04  0.1461424E+00 -0.1362562E-01 -0.5110848E-03  0.5415620E+04  0.4168927E-02
  0.2976190E+00  0.2490731E+04  0.2469565E+00 -0.1126648E-01 -0.4546356E-03  0.5421479E+04  0.7142066E-02
  0.3285715E+00  0.2504104E+04  0.4123035E+00 -0.2786387E-03 -0.1154264E-03  0.5425747E+04  0.1208534E-01
  0.3595238E+00  0.2565921E+04  0.6838778E+00 -0.1739047E-01 -0.1104876E-02  0.5432137E+04  0.2039918E-01
  0.3904762E+00  0.2604237E+04  0.1127799E+01 -0.1489337E-01 -0.1125564E-02  0.5429561E+04  0.3389110E-01
  0.4214286E+00  0.2598576E+04  0.1832782E+01 -0.9753339E-02 -0.1014377E-02  0.5437875E+04  0.5570117E-01
  0.4523810E+00  0.2667031E+04  0.2957059E+01 -0.7003181E-02 -0.9997222E-03  0.5421803E+04  0.9132233E-01
  0.4833333E+00  0.2734917E+04  0.4662330E+01  0.1681098E-02 -0.1315856E-03  0.5451694E+04  0.1459396E+00
  0.5142857E+00  0.2780517E+04  0.7224485E+01 -0.6252925E-02 -0.1306564E-02  0.5436052E+04  0.2294470E+00
  0.5452381E+00  0.2791123E+04  0.1093898E+02 -0.1080242E-01 -0.2372753E-02  0.5447126E+04  0.3515814E+00
  0.5761905E+00  0.2869231E+04  0.1618338E+02  0.1648517E-02 -0.1296923E-03  0.5456765E+04  0.5290376E+00
  0.6071429E+00  0.2973501E+04  0.2351215E+02 -0.1540599E-01 -0.3879998E-02  0.5448250E+04  0.7829173E+00
  0.6380953E+00  0.3039702E+04  0.3346871E+02 -0.1070108E-02 -0.6732196E-03  0.5472314E+04  0.1131319E+01
  0.6690477E+00  0.3074381E+04  0.4678644E+02 -0.1107267E-01 -0.5024627E-02  0.5471700E+04  0.1604724E+01
  0.7000000E+00  0.3160396E+04  0.6439861E+02 -0.2822876E-02 -0.2020568E-02  0.5458042E+04  0.2245992E+01
  0.7309524E+00  0.3261566E+04  0.8737793E+02  0.8517087E-02  0.2665684E-02  0.5479859E+04  0.3103834E+01
  0.7619048E+00  0.3382800E+04  0.1169514E+03  0.1251697E-02 -0.8586347E-03  0.5500629E+04  0.4245249E+01
  0.7928572E+00  0.3514294E+04  0.1547117E+03 -0.1038285E-01 -0.6166637E-02  0.5493739E+04  0.5728226E+01
  0.8238096E+00  0.3585493E+04  0.2026083E+03  0.4834302E-02  0.1515388E-02  0.5490660E+04  0.7640514E+01
  0.8547620E+00  0.3662923E+04  0.2622143E+03  0.9862958E-03 -0.1906931E-02  0.5514589E+04  0.1007150E+02
  0.8857143E+00  0.3793617E+04  0.3350446E+03  0.7291609E-02  0.4285693E-02  0.5528461E+04  0.1308136E+02
  0.9166667E+00  0.3944917E+04  0.4240718E+03 -0.3287575E-02 -0.3449559E-02  0.5517324E+04  0.1690729E+02
  0.9476191E+00  0.4087857E+04  0.5321696E+03 -0.1057112E-01 -0.8246899E-02  0.5527981E+04  0.2171286E+02
  0.9785714E+00  0.4229048E+04  0.6621809E+03 -0.9597444E-02 -0.1146626E-01  0.5563667E+04  0.2763347E+02
  0.1009524E+01  0.4351060E+04  0.8166487E+03 -0.9869990E-02 -0.1141417E-01  0.5576658E+04  0.3483429E+02
  0.1040476E+01  0.4456908E+04  0.9990817E+03 -0.1182748E-01 -0.1489091E-01  0.5570325E+04  0.4357810E+02
  0.1071429E+01  0.4564980E+04  0.1209718E+04  0.5084229E-02  0.5490303E-02  0.5564529E+04  0.5381829E+02
  0.1102381E+01  0.4676096E+04  0.1452166E+04 -0.6159541E-02 -0.1060128E-01  0.5580738E+04  0.6558459E+02
  0.1133333E+01  0.4777003E+04  0.1726689E+04  0.8347455E-03  0.6699562E-04  0.5612089E+04  0.8009976E+02
  0.1164286E+01  0.4865464E+04  0.2035723E+04 -0.5235730E-02 -0.1196265E-01  0.5625604E+04  0.9657720E+02
  0.1195238E+01  0.4946393E+04  0.2379837E+04 -0.2617095E-02 -0.6538868E-02  0.5633149E+04  0.1156924E+03
  0.1226190E+01  0.5016617E+04  0.2756826E+04 -0.4249647E-02 -0.1376247E-01  0.5629210E+04  0.1361263E+03
  0.1257143E+01  0.5048972E+04  0.3171344E+04 -0.9952892E-03 -0.5669117E-02  0.5632205E+04  0.1594345E+03
  0.1288095E+01  0.5057709E+04  0.3609327E+04 -0.1451136E-02 -0.8561611E-02  0.5656187E+04  0.1864791E+03
  0.1319048E+01  0.5033031E+04  0.4076042E+04 -0.1446004E-03 -0.1052523E-01  0.5676788E+04  0.2169815E+03
  0.1350000E+01  0.4988479E+04  0.4563521E+04 -0.1780192E-02 -0.2276421E-02  0.5686183E+04  0.2493601E+03
  0.1380952E+01  0.4931585E+04  0.5065201E+04 -0.4607628E-02 -0.1352215E-01  0.5680708E+04  0.2821524E+03
  0.1411905E+01  0.4584764E+04  0.5383949E+04  0.5565727E-03 -0.1757336E-01  0.5624806E+04  0.3015892E+03
  0.1442857E+01  0.4477267E+04  0.5891333E+04 -0.2215546E-02 -0.1949883E-01  0.5617842E+04  0.3362645E+03
  0.1473810E+01  0.4349011E+04  0.6410375E+04 -0.4679691E-02 -0.1260567E-01  0.5627705E+04  0.3759589E+03
  0.1504762E+01  0.4195042E+04  0.6919853E+04  0.1014033E-02 -0.5893707E-03  0.5655756E+04  0.4217780E+03
  0.1535714E+01  0.4029141E+04  0.7419372E+04  0.2220686E-02 -0.5589485E-02  0.5665442E+04  0.4660561E+03
  0.1566667E+01  0.3852932E+04  0.7899622E+04 -0.1217457E-02 -0.9261131E-02  0.5671447E+04  0.5088622E+03
  0.1597619E+01  0.3655792E+04  0.8371647E+04  0.1446970E-02 -0.1062870E-01  0.5648275E+04  0.5456899E+03
  0.1628572E+01  0.3450096E+04  0.8822852E+04 -0.9182043E-03  0.4825592E-03  0.5618827E+04  0.5773925E+03
  0.1659524E+01  0.3222922E+04  0.9259205E+04 -0.9286626E-03  0.7152557E-04  0.5597849E+04  0.6120865E+03
  0.1690476E+01  0.3003132E+04  0.9680860E+04 -0.1353949E-04 -0.1620293E-02  0.5593272E+04  0.6568737E+03
  0.1721429E+01  0.2773429E+04  0.1008183E+05 -0.1223236E-02  0.1654625E-02  0.5607265E+04  0.7131746E+03
  0.1752381E+01  0.2540500E+04  0.1044647E+05  0.3726794E-02  0.5681992E-02  0.5621541E+04  0.7762854E+03
  0.1783333E+01  0.2311818E+04  0.1078701E+05  0.1617146E-02 -0.7774353E-02  0.5615449E+04  0.8229819E+03
  0.1814286E+01  0.2090279E+04  0.1109849E+05  0.1400324E-02 -0.1097679E-01  0.5610542E+04  0.8696000E+03
  0.1845238E+01  0.1874263E+04  0.1140122E+05  0.9716403E-03 -0.1135159E-01  0.5577876E+04  0.8904834E+03
  0.1876190E+01  0.1665481E+04  0.1167845E+05 -0.2769238E-02 -0.1162624E-01  0.5547645E+04  0.9028586E+03
  0.1907143E+01  0.1448542E+04  0.1193899E+05  0.3424370E-02 -0.1050854E-01  0.5523114E+04  0.9205759E+03
  0.1938095E+01  0.1245995E+04  0.1219177E+05 -0.1932842E-02 -0.7279396E-02  0.5512042E+04  0.9537390E+03
  0.1969048E+01  0.1043840E+04  0.1243673E+05  0.6896899E-03 -0.7209778E-02  0.5516907E+04  0.1017042E+04
  0.2000000E+01  0.8396721E+03  0.1263250E+05  0.1605988E-02 -0.7479668E-02  0.5534973E+04  0.1106366E+04
