VARIABLES="w (rad/s)"
"A   1   1" "B   1   1"
"A   1   2" "B   1   2"
"A   1   3" "B   1   3"
Zone t="Motion of body    1 in DoF   1",I=    64,F=POINT
  0.5000000E-01  0.1214174E+06  0.9225171E-02 -0.2510071E-01 -0.8883050E-04 -0.6062567E+05 -0.1721455E-02
  0.8095238E-01  0.1220013E+06  0.4061781E-01 -0.6974164E-02 -0.1437057E-04 -0.6141266E+05 -0.7690200E-02
  0.1119048E+00  0.1222065E+06  0.1140878E+00 -0.1506724E-01 -0.7070659E-04 -0.6149664E+05 -0.2175608E-01
  0.1428571E+00  0.1223317E+06  0.2567712E+00  0.1719666E-01  0.1516747E-03 -0.6155209E+05 -0.4834788E-01
  0.1738095E+00  0.1225568E+06  0.5114934E+00 -0.2027956E-01 -0.2789251E-03 -0.6147657E+05 -0.9557696E-01
  0.2047619E+00  0.1227015E+06  0.9436498E+00 -0.1117795E-03 -0.8102506E-07 -0.6144872E+05 -0.1756389E+00
  0.2357143E+00  0.1228543E+06  0.1661557E+01  0.2045602E-01  0.5233930E-03 -0.6146875E+05 -0.3060859E+00
  0.2666667E+00  0.1231301E+06  0.2835140E+01  0.2288818E-01  0.3303159E-03 -0.6139956E+05 -0.5155641E+00
  0.2976190E+00  0.1233969E+06  0.4755410E+01  0.2225098E-01  0.4559271E-03 -0.6131786E+05 -0.8532941E+00
  0.3285715E+00  0.1236213E+06  0.7866263E+01  0.1458209E-01  0.5768090E-03 -0.6137081E+05 -0.1393478E+01
  0.3595238E+00  0.1240222E+06  0.1292030E+02  0.5814508E-02  0.1266524E-03 -0.6125416E+05 -0.2245301E+01
  0.3904762E+00  0.1243777E+06  0.2106370E+02  0.5588066E-02  0.1637340E-03 -0.6119762E+05 -0.3593475E+01
  0.4214286E+00  0.1248081E+06  0.3388892E+02  0.3874180E-02  0.5274564E-03 -0.6119164E+05 -0.5670953E+01
  0.4523810E+00  0.1253101E+06  0.5405276E+02 -0.1227770E-01 -0.1183778E-02 -0.6107031E+05 -0.8829254E+01
  0.4833333E+00  0.1259123E+06  0.8410825E+02  0.1060749E-01  0.2324462E-02 -0.6087413E+05 -0.1334326E+02
  0.5142857E+00  0.1264187E+06  0.1286755E+03  0.6764730E-02  0.7759929E-03 -0.6089254E+05 -0.1993909E+02
  0.5452381E+00  0.1270043E+06  0.1922072E+03  0.7500128E-02  0.7355213E-03 -0.6090185E+05 -0.2899845E+02
  0.5761905E+00  0.1277539E+06  0.2804707E+03 -0.3008377E-01 -0.5221009E-02 -0.6078577E+05 -0.4094415E+02
  0.6071429E+00  0.1285640E+06  0.4017816E+03  0.1512954E-01  0.3212690E-02 -0.6064690E+05 -0.5659744E+02
  0.6380953E+00  0.1293643E+06  0.5627631E+03  0.3443476E-02 -0.7376671E-03 -0.6057754E+05 -0.7642997E+02
  0.6690477E+00  0.1302254E+06  0.7747587E+03 -0.8392877E-02 -0.3850937E-02 -0.6059387E+05 -0.1014224E+03
  0.7000000E+00  0.1311230E+06  0.1050439E+04 -0.3923689E-02 -0.2803802E-02 -0.6051259E+05 -0.1318268E+03
  0.7309524E+00  0.1321746E+06  0.1402472E+04 -0.2338024E-02 -0.3538132E-03 -0.6029552E+05 -0.1672984E+03
  0.7619048E+00  0.1333511E+06  0.1848148E+04  0.2206993E-01  0.7622719E-02 -0.6013445E+05 -0.2090330E+03
  0.7928572E+00  0.1344594E+06  0.2404988E+04  0.2116985E-01  0.4279137E-02 -0.6002497E+05 -0.2573824E+03
  0.8238096E+00  0.1356467E+06  0.3094035E+04 -0.1696636E-01 -0.3726959E-02 -0.5993509E+05 -0.3119562E+03
  0.8547620E+00  0.1368263E+06  0.3936081E+04  0.1927963E-02  0.4005432E-02 -0.5980105E+05 -0.3714948E+03
  0.8857143E+00  0.1381380E+06  0.4956917E+04 -0.9509671E-02 -0.7057190E-03 -0.5961925E+05 -0.4342847E+03
  0.9166667E+00  0.1394213E+06  0.6180824E+04  0.1118608E-01  0.5825043E-02 -0.5931356E+05 -0.4963759E+03
  0.9476191E+00  0.1408121E+06  0.7637545E+04  0.2144818E-01  0.5596161E-02 -0.5903757E+05 -0.5573257E+03
  0.9785714E+00  0.1421333E+06  0.9352359E+04  0.1041607E-01  0.1290131E-01 -0.5871573E+05 -0.6112421E+03
  0.1009524E+01  0.1434334E+06  0.1135448E+05 -0.1789597E-01 -0.7675171E-02 -0.5846831E+05 -0.6578981E+03
  0.1040476E+01  0.1445995E+06  0.1366658E+05 -0.1314002E-01 -0.5378723E-02 -0.5815368E+05 -0.6853731E+03
  0.1071429E+01  0.1456952E+06  0.1631438E+05  0.6722006E-02  0.1136780E-02 -0.5787269E+05 -0.6932846E+03
  0.1102381E+01  0.1467035E+06  0.1931282E+05 -0.3155900E-02 -0.6576538E-02 -0.5745795E+05 -0.6618905E+03
  0.1133333E+01  0.1475676E+06  0.2267744E+05 -0.2046473E-02 -0.1086426E-01 -0.5698197E+05 -0.5849005E+03
  0.1164286E+01  0.1483191E+06  0.2641618E+05  0.1425901E-01  0.1390076E-01 -0.5647265E+05 -0.4508004E+03
  0.1195238E+01  0.1488134E+06  0.3053028E+05  0.2175380E-01  0.3524780E-02 -0.5598370E+05 -0.2544039E+03
  0.1226190E+01  0.1490474E+06  0.3500724E+05 -0.1791945E-02 -0.1977539E-01 -0.5548559E+05  0.2025140E+02
  0.1257143E+01  0.1490222E+06  0.3985593E+05 -0.2175071E-01 -0.1727295E-01 -0.5509819E+05  0.3665060E+03
  0.1288095E+01  0.1487018E+06  0.4495495E+05 -0.1374137E-02 -0.2716064E-02 -0.5454723E+05  0.8377612E+03
  0.1319048E+01  0.1480536E+06  0.5033586E+05  0.2503323E-01  0.9948730E-02 -0.5405491E+05  0.1411034E+04
  0.1350000E+01  0.1471142E+06  0.5592469E+05 -0.2762406E-01 -0.2288818E-01 -0.5365698E+05  0.2084143E+04
  0.1380952E+01  0.1458185E+06  0.6165104E+05  0.2245252E-01  0.2777100E-01 -0.5322088E+05  0.2887836E+04
  0.1411905E+01  0.1435212E+06  0.6690478E+05 -0.3977063E-02  0.1464844E-02 -0.5312245E+05  0.3737770E+04
  0.1442857E+01  0.1416947E+06  0.7269445E+05 -0.1340961E-01 -0.1348877E-01 -0.5277659E+05  0.4772553E+04
  0.1473810E+01  0.1395297E+06  0.7840215E+05  0.6336218E-02  0.1342773E-01 -0.5239550E+05  0.5955226E+04
  0.1504762E+01  0.1371401E+06  0.8397841E+05  0.1208728E-01  0.3784180E-02 -0.5208732E+05  0.7250446E+04
  0.1535714E+01  0.1345542E+06  0.8935798E+05  0.2106423E-02  0.1165771E-01 -0.5185986E+05  0.8642336E+04
  0.1566667E+01  0.1317838E+06  0.9449842E+05 -0.1336280E-01  0.9582520E-02 -0.5175606E+05  0.1011196E+05
  0.1597619E+01  0.1288336E+06  0.9932284E+05  0.1535794E-01  0.1464844E-02 -0.5165690E+05  0.1169012E+05
  0.1628572E+01  0.1257650E+06  0.1038115E+06  0.6446169E-02 -0.2197266E-02 -0.5162280E+05  0.1333805E+05
  0.1659524E+01  0.1226941E+06  0.1079476E+06  0.1081294E-01  0.2008057E-01 -0.5172581E+05  0.1500450E+05
  0.1690476E+01  0.1195656E+06  0.1116801E+06  0.2025507E-01 -0.2502441E-02 -0.5186207E+05  0.1673345E+05
  0.1721429E+01  0.1164148E+06  0.1150131E+06  0.9254044E-02  0.2075195E-02 -0.5205125E+05  0.1848868E+05
  0.1752381E+01  0.1133100E+06  0.1179335E+06  0.6548011E-02  0.1171875E-01 -0.5229301E+05  0.2027128E+05
  0.1783333E+01  0.1102890E+06  0.1204619E+06  0.8453654E-02 -0.1477051E-01 -0.5262450E+05  0.2202521E+05
  0.1814286E+01  0.1073251E+06  0.1226454E+06 -0.9419599E-03 -0.1489258E-01 -0.5304697E+05  0.2374249E+05
  0.1845238E+01  0.1044216E+06  0.1244298E+06  0.3373866E-02  0.1367188E-01 -0.5344910E+05  0.2549485E+05
  0.1876190E+01  0.1016218E+06  0.1258761E+06 -0.4782120E-02 -0.1605225E-01 -0.5389762E+05  0.2720792E+05
  0.1907143E+01  0.9898320E+05  0.1270272E+06 -0.1027311E-01 -0.1208496E-01 -0.5444590E+05  0.2882109E+05
  0.1938095E+01  0.9648085E+05  0.1278635E+06  0.1259694E-02 -0.2807617E-02 -0.5501016E+05  0.3041466E+05
  0.1969048E+01  0.9403554E+05  0.1283804E+06  0.2014824E-02  0.5187988E-02 -0.5552714E+05  0.3201144E+05
  0.2000000E+01  0.9175638E+05  0.1286592E+06 -0.1525879E-02 -0.6103516E-02 -0.5612023E+05  0.3349634E+05
Zone t="Motion of body    1 in DoF   2",I=    64,F=POINT
  0.5000000E-01  0.1762390E-01 -0.4625320E-04  0.1363201E+06  0.3740927E+03  0.1007080E-01  0.4243851E-04
  0.8095238E-01 -0.6031709E-02 -0.6675720E-04  0.1346812E+06  0.6203777E+03  0.9424546E-02  0.1029968E-03
  0.1119048E+00 -0.1431729E-01 -0.3910065E-04  0.1337891E+06  0.8886379E+03 -0.4636074E-02  0.2861023E-05
  0.1428571E+00 -0.9719849E-02 -0.6389618E-04  0.1333687E+06  0.1188913E+04  0.2114868E-01  0.1907349E-05
  0.1738095E+00  0.9744722E-02 -0.1382828E-03  0.1332512E+06  0.1534386E+04  0.8779029E-02  0.6294250E-04
  0.2047619E+00 -0.1579817E-01  0.1344681E-03  0.1334699E+06  0.1940818E+04  0.2921171E-01  0.1354218E-03
  0.2357143E+00  0.4596132E-02 -0.7438660E-04  0.1338304E+06  0.2430966E+04 -0.2226858E-01 -0.5722046E-04
  0.2666667E+00  0.1539230E-01  0.3337860E-03  0.1343829E+06  0.3024245E+04  0.1316070E-01  0.5836487E-03
  0.2976190E+00  0.4819336E-02  0.1125336E-03  0.1351028E+06  0.3762410E+04 -0.1568848E-01 -0.1106262E-03
  0.3285715E+00 -0.1188859E-01 -0.2632141E-03  0.1358745E+06  0.4669253E+04  0.0000000E+00  0.1525879E-03
  0.3595238E+00  0.4753466E-02  0.2670288E-03  0.1365730E+06  0.5794684E+04  0.3395333E-02 -0.6713867E-03
  0.3904762E+00 -0.8284405E-02  0.3738403E-03  0.1373371E+06  0.7178334E+04  0.9378572E-03  0.1449585E-03
  0.4214286E+00  0.1737950E-02 -0.3814697E-04  0.1377322E+06  0.8804578E+04 -0.6951800E-02 -0.6103516E-03
  0.4523810E+00 -0.1086104E-01  0.3433228E-03  0.1379214E+06  0.1075738E+05  0.8230109E-02  0.3509521E-03
  0.4833333E+00  0.2399313E-01  0.5645752E-03  0.1376826E+06  0.1287841E+05  0.8839574E-02 -0.8239746E-03
  0.5142857E+00 -0.7239448E-02 -0.7247925E-03  0.1370887E+06  0.1526478E+05 -0.1341078E-01 -0.2685547E-02
  0.5452381E+00  0.1925406E-01  0.1373291E-02  0.1362092E+06  0.1779031E+05 -0.2238844E-02 -0.4394531E-02
  0.5761905E+00 -0.7520943E-02 -0.1525879E-04  0.1349871E+06  0.2041196E+05  0.1292331E-01  0.5493164E-03
  0.6071429E+00  0.1125919E-01 -0.8697510E-03  0.1334464E+06  0.2318701E+05  0.9650734E-02 -0.1098633E-02
  0.6380953E+00 -0.8895646E-02 -0.7171631E-03  0.1318593E+06  0.2595741E+05  0.1721738E-02  0.1159668E-02
  0.6690477E+00 -0.1468753E-01 -0.2899170E-03  0.1300694E+06  0.2878605E+05 -0.4561346E-02 -0.1190186E-02
  0.7000000E+00 -0.8632114E-02 -0.6713867E-03  0.1280526E+06  0.3168555E+05 -0.7498604E-02  0.3479004E-02
  0.7309524E+00  0.6680069E-03 -0.4577637E-03  0.1259849E+06  0.3456782E+05 -0.1653317E-01  0.2990723E-02
  0.7619048E+00  0.8411407E-02  0.9765625E-03  0.1238060E+06  0.3744789E+05 -0.4005432E-02 -0.4455566E-02
  0.7928572E+00  0.1239398E-01  0.1434326E-02  0.1215146E+06  0.4031811E+05 -0.8160015E-02 -0.4516602E-02
  0.8238096E+00  0.8964758E-02  0.2471924E-02  0.1191782E+06  0.4315023E+05 -0.1778134E-02  0.5126953E-02
  0.8547620E+00  0.4070144E-02 -0.3295898E-02  0.1168084E+06  0.4593084E+05  0.1613776E-01  0.4333496E-02
  0.8857143E+00 -0.7855815E-02  0.2441406E-03  0.1144024E+06  0.4864386E+05 -0.9647492E-02 -0.1525879E-02
  0.9166667E+00  0.1025391E-01  0.6500244E-02  0.1119499E+06  0.5128250E+05 -0.6658381E-03  0.5310059E-02
  0.9476191E+00  0.3993355E-02  0.2563477E-02  0.1094862E+06  0.5382734E+05  0.9918979E-02  0.1342773E-02
  0.9785714E+00 -0.2519816E-01 -0.1892090E-02  0.1070409E+06  0.5626481E+05  0.8357807E-02 -0.4638672E-02
  0.1009524E+01 -0.4534452E-02  0.3417969E-02  0.1046084E+06  0.5858834E+05  0.6529611E-02 -0.4882812E-03
  0.1040476E+01  0.1818485E-02  0.1525879E-01  0.1022169E+06  0.6079201E+05  0.2229110E-02  0.9765625E-03
  0.1071429E+01  0.6038412E-02  0.4333496E-02  0.9985364E+05  0.6287874E+05 -0.5013021E-02 -0.9765625E-02
  0.1102381E+01  0.1456143E-01  0.3417969E-02  0.9754512E+05  0.6483961E+05  0.3432733E-02 -0.2075195E-02
  0.1133333E+01 -0.5008473E-02  0.3173828E-02  0.9529042E+05  0.6667402E+05  0.9693819E-03  0.6103516E-03
  0.1164286E+01 -0.3355061E-02 -0.4577637E-02  0.9310143E+05  0.6836928E+05  0.5661666E-02 -0.3662109E-03
  0.1195238E+01  0.2553263E-02 -0.1770020E-02  0.9098180E+05  0.6993880E+05 -0.4391613E-02 -0.2441406E-02
  0.1226190E+01  0.2538589E-02 -0.1281738E-02  0.8892892E+05  0.7137680E+05  0.9557039E-02  0.3540039E-02
  0.1257143E+01 -0.5874634E-02 -0.4638672E-02  0.8697552E+05  0.7272220E+05 -0.3204346E-02 -0.2319336E-02
  0.1288095E+01 -0.7723599E-02  0.3540039E-02  0.8507898E+05  0.7385584E+05  0.6538997E-02  0.4394531E-02
  0.1319048E+01  0.7033365E-02 -0.2685547E-02  0.8329036E+05  0.7490452E+05 -0.7218454E-02 -0.1098633E-02
  0.1350000E+01 -0.1003689E-01  0.6103516E-04  0.8157988E+05  0.7583961E+05  0.6239149E-02 -0.1354980E-01
  0.1380952E+01  0.8220804E-02  0.9460449E-02  0.7996338E+05  0.7666547E+05 -0.1918188E-01  0.3417969E-02
  0.1411905E+01 -0.5101016E-02  0.2868652E-02  0.7836671E+05  0.7742048E+05 -0.2420821E-02  0.3662109E-03
  0.1442857E+01  0.2115080E-02 -0.3662109E-03  0.7692238E+05  0.7807651E+05  0.5414604E-02 -0.5737305E-02
  0.1473810E+01 -0.7702853E-02 -0.2807617E-02  0.7555550E+05  0.7865701E+05  0.9939165E-03 -0.2319336E-02
  0.1504762E+01 -0.1703576E-02  0.2929688E-02  0.7428591E+05  0.7915071E+05  0.5110729E-02 -0.5371094E-02
  0.1535714E+01 -0.3338481E-02  0.4699707E-02  0.7309687E+05  0.7958771E+05  0.7392351E-02  0.3295898E-02
  0.1566667E+01 -0.4207530E-02 -0.7995605E-02  0.7198838E+05  0.7997053E+05 -0.1059674E-01 -0.4150391E-02
  0.1597619E+01 -0.1298930E-02  0.6652832E-02  0.7093956E+05  0.8032273E+05 -0.1031503E-01  0.3906250E-02
  0.1628572E+01  0.4197505E-02  0.1953125E-02  0.6995878E+05  0.8065308E+05  0.6183825E-02 -0.6835938E-02
  0.1659524E+01  0.9029175E-02  0.1831055E-02  0.6904859E+05  0.8095273E+05 -0.6105267E-02  0.5615234E-02
  0.1690476E+01 -0.6137901E-02  0.8483887E-02  0.6818530E+05  0.8124452E+05 -0.2816214E-02 -0.8544922E-03
  0.1721429E+01 -0.2127367E-02 -0.3417969E-02  0.6738257E+05  0.8155181E+05 -0.1113322E-01 -0.3417969E-02
  0.1752381E+01 -0.7819301E-02  0.4516602E-02  0.6662162E+05  0.8185669E+05  0.1880812E-02  0.1098633E-02
  0.1783333E+01  0.1155105E-01 -0.1464844E-02  0.6588435E+05  0.8216386E+05 -0.4209714E-02 -0.1342773E-02
  0.1814286E+01  0.8107584E-02  0.3723145E-02  0.6517862E+05  0.8251614E+05  0.1345657E-02  0.5371094E-02
  0.1845238E+01 -0.2150013E-02  0.1385498E-01  0.6447559E+05  0.8289701E+05  0.9923135E-04 -0.1220703E-02
  0.1876190E+01 -0.2667577E-02 -0.1428223E-01  0.6377505E+05  0.8329034E+05 -0.2016949E-02 -0.2685547E-02
  0.1907143E+01  0.8800950E-02  0.2807617E-02  0.6308797E+05  0.8367697E+05  0.1536166E-02 -0.7080078E-02
  0.1938095E+01 -0.1102232E-03  0.4882812E-03  0.6238593E+05  0.8404548E+05 -0.4219974E-02  0.3295898E-02
  0.1969048E+01  0.1379380E-02  0.6408691E-02  0.6166123E+05  0.8442055E+05  0.3006738E-02  0.3051758E-02
  0.2000000E+01 -0.5081177E-02 -0.1605225E-01  0.6093948E+05  0.8472956E+05 -0.6103516E-03 -0.1220703E-02
Zone t="Motion of body    1 in DoF   3",I=    64,F=POINT
  0.5000000E-01 -0.5967246E+05 -0.1545167E-02  0.7972717E-02  0.7352643E-04  0.2024731E+06  0.4161779E-03
  0.8095238E-01 -0.6043907E+05 -0.6660196E-02  0.1453736E-01  0.8807234E-04  0.2033815E+06  0.1452112E-02
  0.1119048E+00 -0.6051853E+05 -0.1879921E-01  0.2750965E-01  0.1178873E-03  0.2034583E+06  0.3663850E-02
  0.1428571E+00 -0.6056113E+05 -0.4185878E-01 -0.1399231E-01 -0.1312160E-03  0.2034575E+06  0.7821358E-02
  0.1738095E+00 -0.6049701E+05 -0.8228977E-01 -0.1286128E-01 -0.5566637E-04  0.2034943E+06  0.1430443E-01
  0.2047619E+00 -0.6045744E+05 -0.1510823E+00 -0.2347369E-02  0.2685440E-04  0.2035465E+06  0.2799099E-01
  0.2357143E+00 -0.6045919E+05 -0.2629545E+00  0.2168597E-02  0.2444638E-03  0.2035400E+06  0.4875486E-01
  0.2666667E+00 -0.6040947E+05 -0.4422200E+00 -0.2503395E-01 -0.6068896E-03  0.2035049E+06  0.8099327E-01
  0.2976190E+00 -0.6031439E+05 -0.7313203E+00 -0.7690430E-02  0.3816746E-04  0.2035756E+06  0.1324561E+00
  0.3285715E+00 -0.6034445E+05 -0.1187969E+01 -0.1936539E-01 -0.9074910E-03  0.2035531E+06  0.2107787E+00
  0.3595238E+00 -0.6024361E+05 -0.1914285E+01  0.2325803E-01  0.6234450E-03  0.2035255E+06  0.3309320E+00
  0.3904762E+00 -0.6019535E+05 -0.3052934E+01  0.3946816E-02 -0.2750941E-04  0.2034972E+06  0.5215853E+00
  0.4214286E+00 -0.6015418E+05 -0.4796494E+01  0.4042544E-01  0.2625387E-02  0.2035826E+06  0.7988179E+00
  0.4523810E+00 -0.6001484E+05 -0.7459898E+01  0.1426777E-01  0.4616603E-03  0.2037322E+06  0.1217694E+01
  0.4833333E+00 -0.5983499E+05 -0.1127369E+02  0.1458530E-01  0.9096935E-03  0.2037650E+06  0.1780819E+01
  0.5142857E+00 -0.5985267E+05 -0.1672825E+02  0.1824697E-01  0.2010383E-02  0.2035906E+06  0.2589814E+01
  0.5452381E+00 -0.5981056E+05 -0.2415928E+02 -0.8591564E-02 -0.9375513E-03  0.2037375E+06  0.3643203E+01
  0.5761905E+00 -0.5967379E+05 -0.3396907E+02  0.4284819E-01  0.6838039E-02  0.2038992E+06  0.4956118E+01
  0.6071429E+00 -0.5954414E+05 -0.4675854E+02 -0.1249066E-01 -0.2952904E-02  0.2038783E+06  0.6636452E+01
  0.6380953E+00 -0.5947202E+05 -0.6259264E+02  0.5284779E-01  0.1284724E-01  0.2037852E+06  0.8505261E+01
  0.6690477E+00 -0.5944661E+05 -0.8200884E+02 -0.3975213E-01 -0.7790864E-02  0.2037755E+06  0.1072524E+02
  0.7000000E+00 -0.5932529E+05 -0.1055461E+03 -0.1844133E-01 -0.4286289E-02  0.2038768E+06  0.1325365E+02
  0.7309524E+00 -0.5907659E+05 -0.1331199E+03 -0.7682079E-02 -0.3036082E-02  0.2041353E+06  0.1584534E+02
  0.7619048E+00 -0.5891680E+05 -0.1642375E+03  0.6088256E-02  0.2229929E-02  0.2040921E+06  0.1855333E+02
  0.7928572E+00 -0.5879474E+05 -0.1985534E+03  0.1599286E-01  0.4888654E-02  0.2039762E+06  0.2128902E+02
  0.8238096E+00 -0.5866937E+05 -0.2351878E+03 -0.2980227E-01 -0.1221514E-01  0.2039413E+06  0.2370399E+02
  0.8547620E+00 -0.5847780E+05 -0.2735865E+03  0.4105847E-01  0.2116489E-01  0.2040567E+06  0.2575673E+02
  0.8857143E+00 -0.5825484E+05 -0.3112615E+03 -0.1646965E-01 -0.1015162E-01  0.2041898E+06  0.2678399E+02
  0.9166667E+00 -0.5792505E+05 -0.3459860E+03 -0.2330433E-01 -0.1103067E-01  0.2043169E+06  0.2737689E+02
  0.9476191E+00 -0.5762933E+05 -0.3722494E+03 -0.1697176E-01 -0.9791613E-02  0.2043949E+06  0.2659126E+02
  0.9785714E+00 -0.5729479E+05 -0.3860833E+03 -0.5707010E-02 -0.2159595E-02  0.2044375E+06  0.2454668E+02
  0.1009524E+01 -0.5701282E+05 -0.3780752E+03  0.1934699E-01  0.1432180E-01  0.2043133E+06  0.2244526E+02
  0.1040476E+01 -0.5665412E+05 -0.3472831E+03 -0.4370229E-02 -0.1281714E-01  0.2043543E+06  0.1728032E+02
  0.1071429E+01 -0.5632224E+05 -0.2857021E+03 -0.2278646E-02 -0.9592891E-02  0.2044568E+06  0.1200269E+02
  0.1102381E+01 -0.5588138E+05 -0.1837698E+03 -0.2879066E-02 -0.3800273E-02  0.2045780E+06  0.4639795E+01
  0.1133333E+01 -0.5538148E+05 -0.3382947E+02 -0.3204346E-02 -0.1335607E-01  0.2048242E+06 -0.1331497E+01
  0.1164286E+01 -0.5485567E+05  0.1880763E+03  0.3121779E-01  0.2919304E-01  0.2049140E+06 -0.7421376E+01
  0.1195238E+01 -0.5435418E+05  0.4838192E+03 -0.6715083E-02 -0.2291131E-01  0.2050388E+06 -0.6511514E+01
  0.1226190E+01 -0.5385721E+05  0.8725594E+03  0.1060234E-01  0.2022743E-01  0.2050597E+06 -0.2469234E+01
  0.1257143E+01 -0.5342872E+05  0.1381056E+04  0.2502788E-01  0.1869106E-01  0.2050787E+06  0.1741122E+02
  0.1288095E+01 -0.5289970E+05  0.1965059E+04  0.4217179E-02  0.8530617E-02  0.2051927E+06  0.4370462E+02
  0.1319048E+01 -0.5240105E+05  0.2677259E+04  0.1073514E-01 -0.8735657E-03  0.2053232E+06  0.8555135E+02
  0.1350000E+01 -0.5198845E+05  0.3518900E+04  0.1152886E-01  0.1219940E-01  0.2054376E+06  0.1408410E+03
  0.1380952E+01 -0.5157823E+05  0.4467375E+04 -0.3681683E-01 -0.4855347E-01  0.2056296E+06  0.2211262E+03
  0.1411905E+01 -0.5328666E+05  0.4191736E+04  0.1344420E-01  0.2129364E-01  0.2048679E+06  0.2394576E+03
  0.1442857E+01 -0.5293674E+05  0.5280334E+04  0.6429842E-02  0.1628494E-01  0.2050687E+06  0.3501536E+03
  0.1473810E+01 -0.5258188E+05  0.6477548E+04  0.1863594E-02 -0.1359558E-01  0.2052776E+06  0.4989492E+03
  0.1504762E+01 -0.5229929E+05  0.7782610E+04  0.1091100E-01  0.7663727E-02  0.2055224E+06  0.6653929E+03
  0.1535714E+01 -0.5207921E+05  0.9237005E+04  0.6120548E-02  0.1242828E-01  0.2056076E+06  0.8801185E+03
  0.1566667E+01 -0.5198678E+05  0.1076804E+05 -0.1001236E-01 -0.1278687E-01  0.2057824E+06  0.1141314E+04
  0.1597619E+01 -0.5192016E+05  0.1235854E+05 -0.1520512E-01  0.3868103E-02  0.2059479E+06  0.1414252E+04
  0.1628572E+01 -0.5192398E+05  0.1399611E+05  0.1199287E-02  0.5187988E-02  0.2061220E+06  0.1737892E+04
  0.1659524E+01 -0.5203903E+05  0.1570479E+05 -0.1103361E-02  0.7270813E-02  0.2063110E+06  0.2103595E+04
  0.1690476E+01 -0.5219649E+05  0.1746153E+05 -0.1552528E-01 -0.3440857E-01  0.2064346E+06  0.2509053E+04
  0.1721429E+01 -0.5242115E+05  0.1919178E+05  0.1914630E-02 -0.1982117E-01  0.2066450E+06  0.2975833E+04
  0.1752381E+01 -0.5268615E+05  0.2098466E+05  0.3134686E-02  0.1367188E-01  0.2067370E+06  0.3458044E+04
  0.1783333E+01 -0.5301053E+05  0.2281634E+05 -0.9240837E-02  0.2056885E-01  0.2067889E+06  0.3967214E+04
  0.1814286E+01 -0.5344149E+05  0.2456708E+05 -0.1782996E-02  0.1632690E-02  0.2069518E+06  0.4566215E+04
  0.1845238E+01 -0.5386762E+05  0.2631062E+05  0.4002331E-02  0.3588867E-01  0.2070198E+06  0.5163516E+04
  0.1876190E+01 -0.5434377E+05  0.2800809E+05  0.5530343E-03  0.9017944E-02  0.2070815E+06  0.5789523E+04
  0.1907143E+01 -0.5489955E+05  0.2966691E+05  0.5600605E-02  0.1969910E-01  0.2071798E+06  0.6469887E+04
  0.1938095E+01 -0.5545800E+05  0.3134736E+05  0.4723851E-02  0.1072693E-01  0.2071509E+06  0.7096687E+04
  0.1969048E+01 -0.5600670E+05  0.3288191E+05 -0.9640160E-02 -0.7019043E-03  0.2071954E+06  0.7807824E+04
  0.2000000E+01 -0.5660812E+05  0.3434225E+05  0.7324219E-02  0.8422852E-02  0.2072996E+06  0.8574369E+04
