VARIABLES="w (rad/s)"
"abs(F   1   1)" "angle(F   1   1)"
"abs(F   1   2)" "angle(F   1   2)"
"abs(F   1   3)" "angle(F   1   3)"
Zone t="Diffraction force - beta =   0.000 deg",I=    64,F=POINT
  0.5000000E-01  0.5090900E+03 -0.1570795E+01  0.1524404E+03 -0.3107789E+01  0.3929972E+03  0.1570796E+01
  0.8095238E-01  0.8303705E+03 -0.1570793E+01  0.3996640E+03 -0.3106982E+01  0.6410994E+03  0.1570797E+01
  0.1119048E+00  0.1158953E+04 -0.1570790E+01  0.7594068E+03 -0.3105539E+01  0.8939351E+03  0.1570797E+01
  0.1428571E+00  0.1506109E+04 -0.1570785E+01  0.1234889E+04 -0.3103732E+01  0.1165454E+04  0.1570797E+01
  0.1738095E+00  0.1861199E+04 -0.1570778E+01  0.1826121E+04 -0.3101411E+01  0.1448576E+04  0.1570798E+01
  0.2047619E+00  0.2245807E+04 -0.1570767E+01  0.2531715E+04 -0.3098419E+01  0.1754123E+04  0.1570799E+01
  0.2357143E+00  0.2642170E+04 -0.1570752E+01  0.3360307E+04 -0.3094713E+01  0.2073244E+04  0.1570800E+01
  0.2666667E+00  0.3085451E+04 -0.1570729E+01  0.4302107E+04 -0.3090084E+01  0.2435497E+04  0.1570803E+01
  0.2976190E+00  0.3560837E+04 -0.1570695E+01  0.5371441E+04 -0.3084330E+01  0.2826966E+04  0.1570807E+01
  0.3285715E+00  0.4076180E+04 -0.1570645E+01  0.6552582E+04 -0.3077300E+01  0.3259023E+04  0.1570812E+01
  0.3595238E+00  0.4646155E+04 -0.1570570E+01  0.7865342E+04 -0.3068874E+01  0.3745777E+04  0.1570820E+01
  0.3904762E+00  0.5303625E+04 -0.1570457E+01  0.9275203E+04 -0.3058628E+01  0.4306022E+04  0.1570835E+01
  0.4214286E+00  0.6013680E+04 -0.1570293E+01  0.1081646E+05 -0.3047405E+01  0.4924699E+04  0.1570855E+01
  0.4523810E+00  0.6783709E+04 -0.1570049E+01  0.1241606E+05 -0.3033893E+01  0.5594543E+04  0.1570888E+01
  0.4833333E+00  0.7654846E+04 -0.1569713E+01  0.1412417E+05 -0.3020462E+01  0.6381446E+04  0.1570935E+01
  0.5142857E+00  0.8615894E+04 -0.1569247E+01  0.1588921E+05 -0.3005682E+01  0.7229064E+04  0.1571005E+01
  0.5452381E+00  0.9639027E+04 -0.1568624E+01  0.1770826E+05 -0.2990763E+01  0.8170155E+04  0.1571104E+01
  0.5761905E+00  0.1067262E+05 -0.1567801E+01  0.1962713E+05 -0.2976550E+01  0.9154015E+04  0.1571238E+01
  0.6071429E+00  0.1185332E+05 -0.1566755E+01  0.2149957E+05 -0.2960988E+01  0.1025155E+05  0.1571420E+01
  0.6380953E+00  0.1309530E+05 -0.1565450E+01  0.2345475E+05 -0.2946674E+01  0.1143537E+05  0.1571662E+01
  0.6690477E+00  0.1437292E+05 -0.1563820E+01  0.2547433E+05 -0.2932822E+01  0.1269249E+05  0.1571979E+01
  0.7000000E+00  0.1569562E+05 -0.1561806E+01  0.2740827E+05 -0.2917850E+01  0.1396529E+05  0.1572384E+01
  0.7309524E+00  0.1702538E+05 -0.1559352E+01  0.2939818E+05 -0.2903808E+01  0.1532731E+05  0.1572896E+01
  0.7619048E+00  0.1848056E+05 -0.1556456E+01  0.3144277E+05 -0.2890547E+01  0.1685029E+05  0.1573530E+01
  0.7928572E+00  0.2001343E+05 -0.1553035E+01  0.3337473E+05 -0.2876443E+01  0.1836964E+05  0.1574314E+01
  0.8238096E+00  0.2160595E+05 -0.1549016E+01  0.3529493E+05 -0.2862571E+01  0.2004970E+05  0.1575297E+01
  0.8547620E+00  0.2317608E+05 -0.1544277E+01  0.3721671E+05 -0.2849388E+01  0.2172200E+05  0.1576482E+01
  0.8857143E+00  0.2474694E+05 -0.1538749E+01  0.3915773E+05 -0.2837154E+01  0.2350670E+05  0.1577923E+01
  0.9166667E+00  0.2633349E+05 -0.1532391E+01  0.4091298E+05 -0.2823803E+01  0.2520690E+05  0.1579599E+01
  0.9476191E+00  0.2807073E+05 -0.1525358E+01  0.4263757E+05 -0.2810950E+01  0.2720138E+05  0.1581513E+01
  0.9785714E+00  0.2982370E+05 -0.1517435E+01  0.4432014E+05 -0.2798753E+01  0.2920932E+05  0.1583754E+01
  0.1009524E+01  0.3157669E+05 -0.1508510E+01  0.4598551E+05 -0.2787501E+01  0.3130839E+05  0.1586382E+01
  0.1040476E+01  0.3332021E+05 -0.1498520E+01  0.4750767E+05 -0.2775991E+01  0.3339774E+05  0.1589444E+01
  0.1071429E+01  0.3506388E+05 -0.1487451E+01  0.4887029E+05 -0.2764048E+01  0.3547636E+05  0.1592923E+01
  0.1102381E+01  0.3675818E+05 -0.1475170E+01  0.5018250E+05 -0.2752806E+01  0.3769446E+05  0.1596927E+01
  0.1133333E+01  0.3833179E+05 -0.1461527E+01  0.5141634E+05 -0.2742309E+01  0.3982925E+05  0.1601380E+01
  0.1164286E+01  0.3984515E+05 -0.1446686E+01  0.5260285E+05 -0.2732838E+01  0.4206842E+05  0.1606262E+01
  0.1195238E+01  0.4139033E+05 -0.1431231E+01  0.5363169E+05 -0.2723347E+01  0.4432750E+05  0.1611177E+01
  0.1226190E+01  0.4287552E+05 -0.1414727E+01  0.5444327E+05 -0.2713098E+01  0.4645386E+05  0.1616640E+01
  0.1257143E+01  0.4425122E+05 -0.1396954E+01  0.5519280E+05 -0.2703290E+01  0.4872172E+05  0.1622694E+01
  0.1288095E+01  0.4547911E+05 -0.1378033E+01  0.5583420E+05 -0.2694551E+01  0.5091110E+05  0.1629282E+01
  0.1319048E+01  0.4648204E+05 -0.1357695E+01  0.5638409E+05 -0.2686422E+01  0.5299016E+05  0.1636312E+01
  0.1350000E+01  0.4731282E+05 -0.1336394E+01  0.5686098E+05 -0.2679353E+01  0.5508181E+05  0.1643541E+01
  0.1380952E+01  0.4799400E+05 -0.1314937E+01  0.5713939E+05 -0.2672104E+01  0.5701055E+05  0.1650352E+01
  0.1411905E+01  0.4835706E+05 -0.1292169E+01  0.5718488E+05 -0.2664074E+01  0.5860675E+05  0.1657441E+01
  0.1442857E+01  0.4863788E+05 -0.1269305E+01  0.5716175E+05 -0.2656897E+01  0.6036045E+05  0.1664789E+01
  0.1473810E+01  0.4859038E+05 -0.1245540E+01  0.5703121E+05 -0.2650432E+01  0.6190086E+05  0.1672108E+01
  0.1504762E+01  0.4823840E+05 -0.1221165E+01  0.5680303E+05 -0.2644885E+01  0.6321967E+05  0.1679264E+01
  0.1535714E+01  0.4762675E+05 -0.1197212E+01  0.5649106E+05 -0.2640429E+01  0.6442493E+05  0.1685418E+01
  0.1566667E+01  0.4672930E+05 -0.1173192E+01  0.5610459E+05 -0.2637132E+01  0.6551343E+05  0.1691210E+01
  0.1597619E+01  0.4552096E+05 -0.1149218E+01  0.5548900E+05 -0.2633106E+01  0.6616393E+05  0.1696282E+01
  0.1628572E+01  0.4401358E+05 -0.1125736E+01  0.5469195E+05 -0.2629238E+01  0.6643710E+05  0.1700012E+01
  0.1659524E+01  0.4226877E+05 -0.1103219E+01  0.5382897E+05 -0.2626275E+01  0.6674202E+05  0.1703073E+01
  0.1690476E+01  0.4022848E+05 -0.1082211E+01  0.5288278E+05 -0.2624365E+01  0.6683453E+05  0.1704393E+01
  0.1721429E+01  0.3785611E+05 -0.1061890E+01  0.5186591E+05 -0.2623679E+01  0.6661523E+05  0.1704362E+01
  0.1752381E+01  0.3518887E+05 -0.1042606E+01  0.5078994E+05 -0.2624396E+01  0.6614383E+05  0.1702777E+01
  0.1783333E+01  0.3229476E+05 -0.1025248E+01  0.4969000E+05 -0.2626457E+01  0.6558438E+05  0.1699685E+01
  0.1814286E+01  0.2918269E+05 -0.1010775E+01  0.4855557E+05 -0.2630276E+01  0.6488687E+05  0.1694458E+01
  0.1845238E+01  0.2583205E+05 -0.1000835E+01  0.4721370E+05 -0.2634129E+01  0.6366899E+05  0.1685440E+01
  0.1876190E+01  0.2227215E+05 -0.9964129E+00  0.4579807E+05 -0.2639244E+01  0.6213357E+05  0.1673172E+01
  0.1907143E+01  0.1858966E+05 -0.1000654E+01  0.4439684E+05 -0.2645971E+01  0.6063169E+05  0.1658991E+01
  0.1938095E+01  0.1479660E+05 -0.1020831E+01  0.4300321E+05 -0.2654030E+01  0.5905227E+05  0.1641812E+01
  0.1969048E+01  0.1086004E+05 -0.1071246E+01  0.4163380E+05 -0.2663675E+01  0.5726327E+05  0.1620774E+01
  0.2000000E+01  0.6902241E+04 -0.1205028E+01  0.4029302E+05 -0.2674589E+01  0.5533404E+05  0.1595710E+01
