VARIABLES="w (rad/s)"
"abs(F   1   1)" "angle(F   1   1)"
"abs(F   1   2)" "angle(F   1   2)"
"abs(F   1   3)" "angle(F   1   3)"
Zone t="Diffraction force - beta =   0.000 deg",I=    64,F=POINT
  0.5000000E-01  0.1678399E+04 -0.1570796E+01  0.2763980E+06 -0.1864044E-04  0.9601756E+02  0.1570267E+01
  0.8095238E-01  0.2735694E+04 -0.1570793E+01  0.2758511E+06 -0.5013544E-04  0.1583596E+03  0.1570464E+01
  0.1119048E+00  0.3817999E+04 -0.1570794E+01  0.2750501E+06 -0.9952154E-04  0.2226361E+03  0.1570478E+01
  0.1428571E+00  0.4944273E+04 -0.1570795E+01  0.2739922E+06 -0.1706006E-03  0.3015731E+03  0.1570608E+01
  0.1738095E+00  0.6112486E+04 -0.1570792E+01  0.2726772E+06 -0.2690234E-03  0.3867118E+03  0.1570670E+01
  0.2047619E+00  0.7354030E+04 -0.1570787E+01  0.2711071E+06 -0.4030487E-03  0.4873063E+03  0.1570698E+01
  0.2357143E+00  0.8662481E+04 -0.1570783E+01  0.2692735E+06 -0.5848091E-03  0.5926969E+03  0.1570695E+01
  0.2666667E+00  0.1008607E+05 -0.1570776E+01  0.2671870E+06 -0.8289964E-03  0.7303900E+03  0.1570726E+01
  0.2976190E+00  0.1162492E+05 -0.1570765E+01  0.2648342E+06 -0.1160788E-02  0.8841863E+03  0.1570785E+01
  0.3285715E+00  0.1330350E+05 -0.1570750E+01  0.2622323E+06 -0.1605426E-02  0.1063061E+04  0.1570800E+01
  0.3595238E+00  0.1515404E+05 -0.1570727E+01  0.2593632E+06 -0.2203295E-02  0.1278823E+04  0.1570824E+01
  0.3904762E+00  0.1722640E+05 -0.1570692E+01  0.2562640E+06 -0.2999389E-02  0.1548447E+04  0.1570870E+01
  0.4214286E+00  0.1949998E+05 -0.1570641E+01  0.2529032E+06 -0.4022389E-02  0.1856076E+04  0.1570929E+01
  0.4523810E+00  0.2199120E+05 -0.1570566E+01  0.2493588E+06 -0.5352265E-02  0.2195194E+04  0.1571005E+01
  0.4833333E+00  0.2474329E+05 -0.1570462E+01  0.2455820E+06 -0.6949630E-02  0.2634248E+04  0.1571107E+01
  0.5142857E+00  0.2774025E+05 -0.1570315E+01  0.2416307E+06 -0.8909896E-02  0.3121165E+04  0.1571262E+01
  0.5452381E+00  0.3094421E+05 -0.1570120E+01  0.2375101E+06 -0.1120321E-01  0.3694119E+04  0.1571457E+01
  0.5761905E+00  0.3429117E+05 -0.1569864E+01  0.2331764E+06 -0.1382955E-01  0.4308264E+04  0.1571722E+01
  0.6071429E+00  0.3790525E+05 -0.1569532E+01  0.2287846E+06 -0.1688067E-01  0.5040287E+04  0.1572056E+01
  0.6380953E+00  0.4168957E+05 -0.1569117E+01  0.2242019E+06 -0.2026383E-01  0.5868095E+04  0.1572474E+01
  0.6690477E+00  0.4560881E+05 -0.1568598E+01  0.2194531E+06 -0.2406103E-01  0.6783547E+04  0.1573002E+01
  0.7000000E+00  0.4966431E+05 -0.1567955E+01  0.2146980E+06 -0.2832892E-01  0.7733384E+04  0.1573654E+01
  0.7309524E+00  0.5381076E+05 -0.1567175E+01  0.2097909E+06 -0.3301381E-01  0.8795195E+04  0.1574448E+01
  0.7619048E+00  0.5815968E+05 -0.1566239E+01  0.2047374E+06 -0.3816014E-01  0.1004450E+05  0.1575378E+01
  0.7928572E+00  0.6265661E+05 -0.1565123E+01  0.1997167E+06 -0.4380585E-01  0.1132017E+05  0.1576502E+01
  0.8238096E+00  0.6727697E+05 -0.1563802E+01  0.1946277E+06 -0.4996615E-01  0.1278980E+05  0.1577846E+01
  0.8547620E+00  0.7193154E+05 -0.1562253E+01  0.1894567E+06 -0.5661726E-01  0.1428807E+05  0.1579438E+01
  0.8857143E+00  0.7663627E+05 -0.1560449E+01  0.1841874E+06 -0.6377085E-01  0.1593785E+05  0.1581304E+01
  0.9166667E+00  0.8139849E+05 -0.1558374E+01  0.1790437E+06 -0.7146231E-01  0.1754490E+05  0.1583441E+01
  0.9476191E+00  0.8634521E+05 -0.1556029E+01  0.1738636E+06 -0.7970051E-01  0.1949018E+05  0.1585751E+01
  0.9785714E+00  0.9133325E+05 -0.1553379E+01  0.1686581E+06 -0.8845259E-01  0.2149494E+05  0.1588403E+01
  0.1009524E+01  0.9633786E+05 -0.1550392E+01  0.1634018E+06 -0.9773684E-01  0.2363854E+05  0.1591438E+01
  0.1040476E+01  0.1013402E+06 -0.1547051E+01  0.1582360E+06 -0.1075438E+00  0.2582125E+05  0.1594916E+01
  0.1071429E+01  0.1063401E+06 -0.1543343E+01  0.1531835E+06 -0.1178803E+00  0.2804319E+05  0.1598788E+01
  0.1102381E+01  0.1112777E+06 -0.1539251E+01  0.1481262E+06 -0.1287763E+00  0.3045508E+05  0.1603139E+01
  0.1133333E+01  0.1160705E+06 -0.1534774E+01  0.1430899E+06 -0.1401505E+00  0.3283420E+05  0.1607897E+01
  0.1164286E+01  0.1207681E+06 -0.1529942E+01  0.1380427E+06 -0.1520447E+00  0.3536799E+05  0.1612984E+01
  0.1195238E+01  0.1254528E+06 -0.1524883E+01  0.1331094E+06 -0.1643862E+00  0.3797104E+05  0.1617941E+01
  0.1226190E+01  0.1300199E+06 -0.1519517E+01  0.1283647E+06 -0.1771518E+00  0.4048979E+05  0.1623397E+01
  0.1257143E+01  0.1344069E+06 -0.1513818E+01  0.1236478E+06 -0.1905931E+00  0.4319672E+05  0.1629338E+01
  0.1288095E+01  0.1385641E+06 -0.1507878E+01  0.1189788E+06 -0.2042873E+00  0.4586975E+05  0.1635718E+01
  0.1319048E+01  0.1424005E+06 -0.1501706E+01  0.1143603E+06 -0.2184817E+00  0.4847449E+05  0.1642425E+01
  0.1350000E+01  0.1459592E+06 -0.1495437E+01  0.1097651E+06 -0.2331209E+00  0.5113046E+05  0.1649173E+01
  0.1380952E+01  0.1492570E+06 -0.1489329E+01  0.1053358E+06 -0.2479536E+00  0.5365896E+05  0.1655333E+01
  0.1411905E+01  0.1521080E+06 -0.1483247E+01  0.1011224E+06 -0.2629099E+00  0.5588612E+05  0.1661670E+01
  0.1442857E+01  0.1547443E+06 -0.1477327E+01  0.9694191E+05 -0.2783201E+00  0.5829804E+05  0.1668124E+01
  0.1473810E+01  0.1569078E+06 -0.1471677E+01  0.9283080E+05 -0.2939772E+00  0.6051896E+05  0.1674429E+01
  0.1504762E+01  0.1586165E+06 -0.1466430E+01  0.8877584E+05 -0.3098429E+00  0.6253563E+05  0.1680455E+01
  0.1535714E+01  0.1599202E+06 -0.1461892E+01  0.8476259E+05 -0.3259397E+00  0.6445073E+05  0.1685372E+01
  0.1566667E+01  0.1607831E+06 -0.1458020E+01  0.8078520E+05 -0.3423185E+00  0.6625552E+05  0.1689855E+01
  0.1597619E+01  0.1611794E+06 -0.1454969E+01  0.7702723E+05 -0.3583419E+00  0.6762304E+05  0.1693560E+01
  0.1628572E+01  0.1611248E+06 -0.1452923E+01  0.7341943E+05 -0.3738318E+00  0.6860810E+05  0.1695901E+01
  0.1659524E+01  0.1606841E+06 -0.1451951E+01  0.6985804E+05 -0.3895094E+00  0.6961366E+05  0.1697587E+01
  0.1690476E+01  0.1598107E+06 -0.1452365E+01  0.6635188E+05 -0.4050853E+00  0.7038962E+05  0.1697608E+01
  0.1721429E+01  0.1584606E+06 -0.1454135E+01  0.6289049E+05 -0.4205736E+00  0.7083028E+05  0.1696370E+01
  0.1752381E+01  0.1566760E+06 -0.1457363E+01  0.5946528E+05 -0.4359939E+00  0.7098904E+05  0.1693721E+01
  0.1783333E+01  0.1545341E+06 -0.1462145E+01  0.5606478E+05 -0.4518568E+00  0.7102346E+05  0.1689766E+01
  0.1814286E+01  0.1520547E+06 -0.1468669E+01  0.5268596E+05 -0.4678459E+00  0.7087715E+05  0.1683960E+01
  0.1845238E+01  0.1492352E+06 -0.1477257E+01  0.4950022E+05 -0.4819575E+00  0.7016244E+05  0.1674790E+01
  0.1876190E+01  0.1461003E+06 -0.1487875E+01  0.4638818E+05 -0.4953738E+00  0.6907487E+05  0.1662853E+01
  0.1907143E+01  0.1427322E+06 -0.1500440E+01  0.4329640E+05 -0.5094147E+00  0.6795743E+05  0.1649463E+01
  0.1938095E+01  0.1391483E+06 -0.1515190E+01  0.4024854E+05 -0.5242188E+00  0.6669258E+05  0.1633664E+01
  0.1969048E+01  0.1352951E+06 -0.1532335E+01  0.3723554E+05 -0.5401421E+00  0.6514135E+05  0.1614725E+01
  0.2000000E+01  0.1312263E+06 -0.1551982E+01  0.3427557E+05 -0.5577200E+00  0.6336524E+05  0.1592552E+01
