VARIABLES="w (rad/s)"
"abs(F   1   1)" "angle(F   1   1)"
"abs(F   1   2)" "angle(F   1   2)"
"abs(F   1   3)" "angle(F   1   3)"
Zone t="Diffraction force - beta =   0.000 deg",I=    64,F=POINT
  0.5000000E-01  0.4434365E+04 -0.1570791E+01  0.4689259E+06 -0.3372458E-04  0.3589079E+04  0.1570796E+01
  0.8095238E-01  0.7240287E+04 -0.1570798E+01  0.4679506E+06 -0.9070733E-04  0.5860122E+04  0.1570803E+01
  0.1119048E+00  0.1010283E+05 -0.1570794E+01  0.4665192E+06 -0.1800657E-03  0.8163446E+04  0.1570810E+01
  0.1428571E+00  0.1305838E+05 -0.1570784E+01  0.4646300E+06 -0.3086330E-03  0.1051847E+05  0.1570823E+01
  0.1738095E+00  0.1612901E+05 -0.1570784E+01  0.4622800E+06 -0.4866649E-03  0.1296205E+05  0.1570819E+01
  0.2047619E+00  0.1936018E+05 -0.1570766E+01  0.4594641E+06 -0.7290256E-03  0.1549549E+05  0.1570819E+01
  0.2357143E+00  0.2279082E+05 -0.1570760E+01  0.4561815E+06 -0.1057691E-02  0.1816560E+05  0.1570835E+01
  0.2666667E+00  0.2645672E+05 -0.1570737E+01  0.4524194E+06 -0.1499080E-02  0.2100054E+05  0.1570858E+01
  0.2976190E+00  0.3042951E+05 -0.1570706E+01  0.4481829E+06 -0.2098702E-02  0.2401112E+05  0.1570884E+01
  0.3285715E+00  0.3476153E+05 -0.1570669E+01  0.4434666E+06 -0.2901809E-02  0.2725832E+05  0.1570919E+01
  0.3595238E+00  0.3949668E+05 -0.1570604E+01  0.4382788E+06 -0.3981430E-02  0.3079833E+05  0.1570982E+01
  0.3904762E+00  0.4471502E+05 -0.1570509E+01  0.4326130E+06 -0.5418206E-02  0.3459893E+05  0.1571082E+01
  0.4214286E+00  0.5048799E+05 -0.1570369E+01  0.4265450E+06 -0.7263801E-02  0.3872341E+05  0.1571222E+01
  0.4523810E+00  0.5680995E+05 -0.1570169E+01  0.4200475E+06 -0.9659452E-02  0.4320163E+05  0.1571424E+01
  0.4833333E+00  0.6366238E+05 -0.1569889E+01  0.4131949E+06 -0.1253871E-01  0.4802649E+05  0.1571700E+01
  0.5142857E+00  0.7107543E+05 -0.1569504E+01  0.4060244E+06 -0.1607011E-01  0.5306818E+05  0.1572086E+01
  0.5452381E+00  0.7901639E+05 -0.1568992E+01  0.3985548E+06 -0.2019726E-01  0.5832009E+05  0.1572603E+01
  0.5761905E+00  0.8735902E+05 -0.1568328E+01  0.3908218E+06 -0.2493118E-01  0.6379890E+05  0.1573265E+01
  0.6071429E+00  0.9607945E+05 -0.1567474E+01  0.3828529E+06 -0.3041065E-01  0.6942861E+05  0.1574115E+01
  0.6380953E+00  0.1051736E+06 -0.1566417E+01  0.3746258E+06 -0.3650957E-01  0.7505059E+05  0.1575172E+01
  0.6690477E+00  0.1145907E+06 -0.1565112E+01  0.3662398E+06 -0.4336042E-01  0.8064611E+05  0.1576474E+01
  0.7000000E+00  0.1242893E+06 -0.1563518E+01  0.3577061E+06 -0.5104317E-01  0.8623151E+05  0.1578067E+01
  0.7309524E+00  0.1342123E+06 -0.1561609E+01  0.3489854E+06 -0.5949672E-01  0.9178915E+05  0.1579973E+01
  0.7619048E+00  0.1442732E+06 -0.1559340E+01  0.3401502E+06 -0.6880771E-01  0.9728875E+05  0.1582237E+01
  0.7928572E+00  0.1545471E+06 -0.1556674E+01  0.3312324E+06 -0.7903509E-01  0.1025886E+06  0.1584897E+01
  0.8238096E+00  0.1649801E+06 -0.1553577E+01  0.3222562E+06 -0.9020311E-01  0.1075908E+06  0.1587984E+01
  0.8547620E+00  0.1755324E+06 -0.1550016E+01  0.3132366E+06 -0.1023277E+00  0.1124082E+06  0.1591531E+01
  0.8857143E+00  0.1860788E+06 -0.1545955E+01  0.3041956E+06 -0.1154415E+00  0.1169546E+06  0.1595573E+01
  0.9166667E+00  0.1966371E+06 -0.1541371E+01  0.2951319E+06 -0.1295704E+00  0.1212740E+06  0.1600132E+01
  0.9476191E+00  0.2070855E+06 -0.1536250E+01  0.2860834E+06 -0.1447579E+00  0.1252438E+06  0.1605218E+01
  0.9785714E+00  0.2174276E+06 -0.1530595E+01  0.2770586E+06 -0.1610486E+00  0.1288044E+06  0.1610832E+01
  0.1009524E+01  0.2275668E+06 -0.1524412E+01  0.2681003E+06 -0.1785051E+00  0.1318450E+06  0.1616963E+01
  0.1040476E+01  0.2375121E+06 -0.1517723E+01  0.2592070E+06 -0.1971402E+00  0.1344149E+06  0.1623587E+01
  0.1071429E+01  0.2471058E+06 -0.1510559E+01  0.2503981E+06 -0.2169937E+00  0.1364381E+06  0.1630664E+01
  0.1102381E+01  0.2563047E+06 -0.1502966E+01  0.2416409E+06 -0.2381043E+00  0.1379620E+06  0.1638139E+01
  0.1133333E+01  0.2650042E+06 -0.1495014E+01  0.2329775E+06 -0.2605323E+00  0.1389692E+06  0.1645932E+01
  0.1164286E+01  0.2730656E+06 -0.1486783E+01  0.2243995E+06 -0.2843666E+00  0.1394045E+06  0.1653957E+01
  0.1195238E+01  0.2804837E+06 -0.1478393E+01  0.2159019E+06 -0.3096896E+00  0.1393218E+06  0.1662091E+01
  0.1226190E+01  0.2871494E+06 -0.1470004E+01  0.2074971E+06 -0.3366504E+00  0.1385355E+06  0.1670161E+01
  0.1257143E+01  0.2929928E+06 -0.1461690E+01  0.1992373E+06 -0.3655980E+00  0.1371090E+06  0.1678097E+01
  0.1288095E+01  0.2980594E+06 -0.1453868E+01  0.1910490E+06 -0.3960753E+00  0.1349618E+06  0.1685455E+01
  0.1319048E+01  0.3022377E+06 -0.1446435E+01  0.1830440E+06 -0.4288289E+00  0.1323966E+06  0.1692389E+01
  0.1350000E+01  0.3054188E+06 -0.1439681E+01  0.1752158E+06 -0.4638008E+00  0.1291285E+06  0.1698512E+01
  0.1380952E+01  0.3077433E+06 -0.1433783E+01  0.1674768E+06 -0.5012594E+00  0.1254888E+06  0.1703728E+01
  0.1411905E+01  0.3087592E+06 -0.1429478E+01  0.1599364E+06 -0.5395741E+00  0.1214249E+06  0.1707281E+01
  0.1442857E+01  0.3092230E+06 -0.1425853E+01  0.1525319E+06 -0.5830137E+00  0.1168431E+06  0.1709996E+01
  0.1473810E+01  0.3088010E+06 -0.1423673E+01  0.1453175E+06 -0.6301237E+00  0.1118984E+06  0.1711149E+01
  0.1504762E+01  0.3075532E+06 -0.1423080E+01  0.1383592E+06 -0.6813913E+00  0.1067022E+06  0.1710645E+01
  0.1535714E+01  0.3055074E+06 -0.1424209E+01  0.1316951E+06 -0.7373205E+00  0.1013305E+06  0.1708394E+01
  0.1566667E+01  0.3026855E+06 -0.1427227E+01  0.1254151E+06 -0.7982378E+00  0.9572386E+05  0.1704098E+01
  0.1597619E+01  0.2992663E+06 -0.1432244E+01  0.1195276E+06 -0.8652064E+00  0.9012285E+05  0.1697915E+01
  0.1628572E+01  0.2952463E+06 -0.1439404E+01  0.1141368E+06 -0.9384036E+00  0.8442875E+05  0.1689524E+01
  0.1659524E+01  0.2907100E+06 -0.1448746E+01  0.1093817E+06 -0.1017905E+01  0.7877423E+05  0.1679121E+01
  0.1690476E+01  0.2857645E+06 -0.1460378E+01  0.1052997E+06 -0.1104128E+01  0.7320286E+05  0.1666768E+01
  0.1721429E+01  0.2804603E+06 -0.1474394E+01  0.1020262E+06 -0.1196321E+01  0.6767280E+05  0.1652137E+01
  0.1752381E+01  0.2749068E+06 -0.1490700E+01  0.9976490E+05 -0.1292877E+01  0.6237618E+05  0.1636225E+01
  0.1783333E+01  0.2691141E+06 -0.1509419E+01  0.9852630E+05 -0.1391664E+01  0.5719596E+05  0.1618533E+01
  0.1814286E+01  0.2631844E+06 -0.1530507E+01  0.9834080E+05 -0.1490201E+01  0.5222792E+05  0.1599941E+01
  0.1845238E+01  0.2572002E+06 -0.1553984E+01  0.9916154E+05 -0.1586421E+01  0.4749119E+05  0.1580959E+01
  0.1876190E+01  0.2511655E+06 -0.1579887E+01  0.1008970E+06 -0.1676985E+01  0.4291747E+05  0.1561428E+01
  0.1907143E+01  0.2451458E+06 -0.1608066E+01  0.1033814E+06 -0.1759435E+01  0.3861555E+05  0.1543593E+01
  0.1938095E+01  0.2391962E+06 -0.1638545E+01  0.1064128E+06 -0.1834017E+01  0.3455578E+05  0.1528441E+01
  0.1969048E+01  0.2333293E+06 -0.1671385E+01  0.1097969E+06 -0.1900134E+01  0.3065338E+05  0.1516560E+01
  0.2000000E+01  0.2276032E+06 -0.1706462E+01  0.1133005E+06 -0.1957842E+01  0.2694071E+05  0.1509929E+01
