VARIABLES="w (rad/s)"
"A   1   1" "B   1   1"
"A   1   2" "B   1   2"
"A   1   3" "B   1   3"
Zone t="Motion of body    1 in DoF   1",I=    64,F=POINT
  0.5000000E-01  0.4055614E+06  0.1423153E+00  0.7629395E-03 -0.8799566E-04 -0.1610697E+07 -0.5626207E+00
  0.8095238E-01  0.4075745E+06  0.6263309E+00  0.1394833E-01  0.7411651E-04 -0.1617076E+07 -0.2473112E+01
  0.1119048E+00  0.4083500E+06  0.1753019E+01 -0.3408878E-02 -0.1377743E-03 -0.1619948E+07 -0.6918254E+01
  0.1428571E+00  0.4093648E+06  0.3936370E+01  0.5554199E-02 -0.2200268E-03 -0.1623409E+07 -0.1552070E+02
  0.1738095E+00  0.4101618E+06  0.7808154E+01  0.8252287E-02 -0.1534745E-03 -0.1625427E+07 -0.3075189E+02
  0.2047619E+00  0.4114346E+06  0.1435334E+02  0.1520201E-01 -0.4652143E-04 -0.1629042E+07 -0.5645438E+02
  0.2357143E+00  0.4125204E+06  0.2515506E+02 -0.4401929E-02 -0.4884899E-03 -0.1633251E+07 -0.9881964E+02
  0.2666667E+00  0.4142893E+06  0.4267951E+02  0.0000000E+00  0.1205206E-03 -0.1638133E+07 -0.1673221E+03
  0.2976190E+00  0.4156940E+06  0.7114145E+02  0.2522461E-01  0.8324981E-03 -0.1643067E+07 -0.2784350E+03
  0.3285715E+00  0.4177497E+06  0.1169073E+03  0.3622304E-01  0.8288622E-03 -0.1649954E+07 -0.4565976E+03
  0.3595238E+00  0.4198022E+06  0.1905760E+03  0.1035577E-01 -0.7653236E-03 -0.1655941E+07 -0.7424840E+03
  0.3904762E+00  0.4222717E+06  0.3082467E+03  0.2969881E-02 -0.5552769E-03 -0.1663596E+07 -0.1197739E+04
  0.4214286E+00  0.4249504E+06  0.4916683E+03 -0.1086219E-01 -0.2950668E-02 -0.1673227E+07 -0.1905536E+04
  0.4523810E+00  0.4282695E+06  0.7778379E+03 -0.4452354E-02 -0.3005028E-02 -0.1683734E+07 -0.3005493E+04
  0.4833333E+00  0.4322445E+06  0.1199676E+04 -0.2310917E-01 -0.8510590E-02 -0.1696172E+07 -0.4618880E+04
  0.5142857E+00  0.4360167E+06  0.1819288E+04 -0.3916423E-01 -0.1226521E-01 -0.1708731E+07 -0.6981048E+04
  0.5452381E+00  0.4406748E+06  0.2693058E+04  0.2619448E-01  0.1743317E-02 -0.1724893E+07 -0.1029801E+05
  0.5761905E+00  0.4452012E+06  0.3888812E+04  0.2118575E-02 -0.3089905E-02 -0.1738720E+07 -0.1480734E+05
  0.6071429E+00  0.4505504E+06  0.5515527E+04 -0.7036994E-02 -0.7949829E-02 -0.1755555E+07 -0.2091034E+05
  0.6380953E+00  0.4565958E+06  0.7650320E+04  0.1530434E-02 -0.6469727E-02 -0.1775063E+07 -0.2887147E+05
  0.6690477E+00  0.4621017E+06  0.1041450E+05  0.3284169E-02  0.3677368E-02 -0.1793033E+07 -0.3912441E+05
  0.7000000E+00  0.4682770E+06  0.1396299E+05  0.8196149E-02 -0.2441406E-02 -0.1813248E+07 -0.5220529E+05
  0.7309524E+00  0.4754638E+06  0.1843359E+05 -0.4008041E-02 -0.1548767E-01 -0.1835001E+07 -0.6853249E+05
  0.7619048E+00  0.4818432E+06  0.2397436E+05 -0.1602173E-02 -0.8316040E-02 -0.1853292E+07 -0.8860447E+05
  0.7928572E+00  0.4886844E+06  0.3079818E+05  0.9237753E-03 -0.1579285E-01 -0.1874308E+07 -0.1131716E+06
  0.8238096E+00  0.4951838E+06  0.3906597E+05  0.8149780E-02 -0.1066589E-01 -0.1892671E+07 -0.1426481E+06
  0.8547620E+00  0.5017033E+06  0.4897429E+05  0.6854979E-02 -0.8239746E-03 -0.1912597E+07 -0.1777642E+06
  0.8857143E+00  0.5070924E+06  0.6060999E+05 -0.1033660E-01 -0.1296997E-01 -0.1925676E+07 -0.2184419E+06
  0.9166667E+00  0.5124137E+06  0.7422051E+05  0.1851030E-01  0.7904053E-02 -0.1938736E+07 -0.2655859E+06
  0.9476191E+00  0.5164569E+06  0.8985099E+05  0.2615004E-01  0.1782227E-01 -0.1945400E+07 -0.3189788E+06
  0.9785714E+00  0.5198081E+06  0.1076656E+06  0.3368072E-02 -0.1770020E-01 -0.1950342E+07 -0.3792386E+06
  0.1009524E+01  0.5206604E+06  0.1274686E+06  0.2660212E-02 -0.4089355E-02 -0.1945839E+07 -0.4452610E+06
  0.1040476E+01  0.5200449E+06  0.1493674E+06  0.9737691E-02  0.4272461E-03 -0.1937285E+07 -0.5175133E+06
  0.1071429E+01  0.5172207E+06  0.1730438E+06  0.5013021E-02 -0.5493164E-02 -0.1921020E+07 -0.5944632E+06
  0.1102381E+01  0.5124360E+06  0.1981735E+06  0.4097133E-02 -0.8666992E-02 -0.1897148E+07 -0.6745472E+06
  0.1133333E+01  0.5055928E+06  0.2244130E+06  0.8832146E-02 -0.3906250E-02 -0.1866726E+07 -0.7566536E+06
  0.1164286E+01  0.4956103E+06  0.2509618E+06 -0.3145370E-03 -0.2136230E-02 -0.1825007E+07 -0.8374588E+06
  0.1195238E+01  0.4834629E+06  0.2776760E+06 -0.8068313E-02 -0.3540039E-02 -0.1777730E+07 -0.9172452E+06
  0.1226190E+01  0.4692803E+06  0.3038900E+06  0.5873597E-02  0.1220703E-03 -0.1724812E+07 -0.9934544E+06
  0.1257143E+01  0.4527125E+06  0.3287272E+06 -0.3981157E-02 -0.6347656E-02 -0.1664502E+07 -0.1062844E+07
  0.1288095E+01  0.4357393E+06  0.3520641E+06  0.4738404E-02  0.2441406E-03 -0.1603358E+07 -0.1125077E+07
  0.1319048E+01  0.4168626E+06  0.3729718E+06  0.6848277E-02  0.9399414E-02 -0.1538504E+07 -0.1178231E+07
  0.1350000E+01  0.3967382E+06  0.3907583E+06  0.1464844E-01 -0.3417969E-02 -0.1469446E+07 -0.1218390E+07
  0.1380952E+01  0.3766055E+06  0.4061766E+06  0.1759075E-01 -0.6103516E-03 -0.1403378E+07 -0.1251049E+07
  0.1411905E+01  0.3559805E+06  0.4175893E+06  0.1616763E-01  0.7202148E-02 -0.1338517E+07 -0.1270759E+07
  0.1442857E+01  0.3362559E+06  0.4264738E+06  0.3468731E-02 -0.1342773E-02 -0.1275724E+07 -0.1279803E+07
  0.1473810E+01  0.3176337E+06  0.4328007E+06  0.3147402E-02 -0.6225586E-02 -0.1218074E+07 -0.1280546E+07
  0.1504762E+01  0.3000772E+06  0.4365827E+06 -0.4623992E-02 -0.5310059E-02 -0.1165939E+07 -0.1274198E+07
  0.1535714E+01  0.2832540E+06  0.4372561E+06  0.5007721E-02 -0.2075195E-02 -0.1117027E+07 -0.1257666E+07
  0.1566667E+01  0.2674037E+06  0.4349728E+06  0.5454205E-02  0.2868652E-02 -0.1071482E+07 -0.1230691E+07
  0.1597619E+01  0.2532559E+06  0.4315248E+06  0.5195720E-02  0.5615234E-02 -0.1033248E+07 -0.1203154E+07
  0.1628572E+01  0.2405541E+06  0.4263965E+06  0.1431649E-01  0.8544922E-03 -0.1000162E+07 -0.1170759E+07
  0.1659524E+01  0.2288714E+06  0.4189736E+06  0.9488909E-02  0.8544922E-03 -0.9702104E+06 -0.1130747E+07
  0.1690476E+01  0.2187581E+06  0.4108304E+06  0.5126953E-02 -0.1953125E-02 -0.9457643E+06 -0.1089880E+07
  0.1721429E+01  0.2101205E+06  0.4022791E+06  0.1318967E-01  0.2380371E-02 -0.9264829E+06 -0.1049451E+07
  0.1752381E+01  0.2022467E+06  0.3924498E+06  0.1323534E-02 -0.2441406E-03 -0.9102311E+06 -0.1007002E+07
  0.1783333E+01  0.1953898E+06  0.3815597E+06  0.6845064E-04 -0.2807617E-02 -0.8968603E+06 -0.9605709E+06
  0.1814286E+01  0.1894553E+06  0.3699883E+06  0.1157265E-01  0.1525879E-02 -0.8862939E+06 -0.9126488E+06
  0.1845238E+01  0.1845131E+06  0.3591199E+06 -0.5027722E-02  0.1831055E-02 -0.8791474E+06 -0.8709675E+06
  0.1876190E+01  0.1804773E+06  0.3483738E+06 -0.3253143E-03 -0.2136230E-02 -0.8747544E+06 -0.8306278E+06
  0.1907143E+01  0.1770350E+06  0.3362465E+06 -0.3200345E-03  0.4272461E-03 -0.8717039E+06 -0.7845052E+06
  0.1938095E+01  0.1743691E+06  0.3247955E+06 -0.3653112E-02 -0.0000000E+00 -0.8707947E+06 -0.7425758E+06
  0.1969048E+01  0.1724295E+06  0.3138852E+06  0.4959568E-03  0.9307861E-03 -0.8721396E+06 -0.7030118E+06
  0.2000000E+01  0.1709044E+06  0.3038050E+06 -0.1098633E-02  0.1098633E-02 -0.8744672E+06 -0.6690394E+06
Zone t="Motion of body    1 in DoF   2",I=    64,F=POINT
  0.5000000E-01  0.2456665E-01  0.2117157E-03  0.1815239E+06  0.4147817E+03 -0.1831055E+00 -0.4615784E-03
  0.8095238E-01 -0.3581327E-02  0.1907349E-04  0.1793796E+06  0.6838761E+03 -0.4523782E-02  0.5035400E-03
  0.1119048E+00  0.1281738E-01 -0.4577637E-04  0.1779537E+06  0.9711158E+03 -0.1079933E+00 -0.1068115E-03
  0.1428571E+00  0.9826660E-02 -0.4730225E-03  0.1770692E+06  0.1285078E+04 -0.5810547E-01  0.1419067E-02
  0.1738095E+00 -0.8252287E-02  0.1983643E-03  0.1765588E+06  0.1633734E+04  0.4073469E-01 -0.1876831E-02
  0.2047619E+00  0.1952415E-01  0.2288818E-04  0.1759948E+06  0.2032586E+04 -0.4769259E-02  0.2029419E-02
  0.2357143E+00 -0.1100482E-01  0.1029968E-02  0.1756245E+06  0.2496109E+04 -0.8285984E-01 -0.1495361E-02
  0.2666667E+00  0.7781982E-02 -0.3509521E-03  0.1754836E+06  0.3031440E+04 -0.3845214E-01  0.3479004E-02
  0.2976190E+00 -0.1486816E-01 -0.5950928E-03  0.1750693E+06  0.3676202E+04  0.7710937E-01  0.3967285E-03
  0.3285715E+00 -0.4829738E-02 -0.6866455E-03  0.1749339E+06  0.4426047E+04 -0.7430366E-02  0.7812500E-02
  0.3595238E+00 -0.1782550E-01 -0.9613037E-03  0.1743898E+06  0.5316637E+04  0.1398877E+00 -0.9765625E-03
  0.3904762E+00 -0.7502858E-02 -0.7019043E-03  0.1738799E+06  0.6355121E+04  0.1625619E-01 -0.1080322E-01
  0.4214286E+00 -0.3475900E-02 -0.8544922E-03  0.1730318E+06  0.7487519E+04  0.1042770E-01 -0.1440430E-01
  0.4523810E+00 -0.4047594E-03 -0.5798340E-03  0.1717599E+06  0.8800813E+04 -0.1457134E+00 -0.5004883E-02
  0.4833333E+00  0.1161773E-01 -0.1953125E-02  0.1707046E+06  0.1005332E+05 -0.2020474E-02 -0.8544922E-03
  0.5142857E+00 -0.8307563E-03 -0.1586914E-02  0.1684586E+06  0.1138256E+05 -0.1898872E-01  0.2685547E-02
  0.5452381E+00  0.9179262E-02 -0.3479004E-02  0.1668158E+06  0.1262060E+05 -0.1791075E-02 -0.1013184E-01
  0.5761905E+00  0.5826083E-02  0.2929688E-02  0.1646782E+06  0.1371649E+05 -0.1694860E-01 -0.6958008E-02
  0.6071429E+00 -0.5931180E-02 -0.4150391E-02  0.1622584E+06  0.1477967E+05  0.4825367E-01  0.1477051E-01
  0.6380953E+00 -0.2199998E-02 -0.3601074E-02  0.1606804E+06  0.1558432E+05 -0.2601737E-01  0.2148438E-01
  0.6690477E+00  0.1112968E-01 -0.5981445E-02  0.1583170E+06  0.1623029E+05 -0.6568338E-01  0.1940918E-01
  0.7000000E+00  0.5405970E-02  0.4882812E-03  0.1560557E+06  0.1676611E+05 -0.4743303E-01 -0.9033203E-02
  0.7309524E+00  0.7181074E-02  0.6469727E-02  0.1545892E+06  0.1709075E+05 -0.4141643E-01 -0.1452637E-01
  0.7619048E+00  0.1514053E-01  0.3784180E-02  0.1527841E+06  0.1720657E+05 -0.4998779E-01 -0.1806641E-01
  0.7928572E+00  0.6620389E-02 -0.5493164E-02  0.1508607E+06  0.1717971E+05 -0.5173142E-01  0.2673340E-01
  0.8238096E+00  0.4223068E-02 -0.9277344E-02  0.1494772E+06  0.1701262E+05 -0.4741691E-02  0.4870605E-01
  0.8547620E+00  0.1413839E-01 -0.4150391E-02  0.1488202E+06  0.1675113E+05 -0.6055231E-01  0.4760742E-02
  0.8857143E+00 -0.3100980E-03  0.1354980E-01  0.1472658E+06  0.1618430E+05 -0.1764113E-01 -0.4638672E-01
  0.9166667E+00 -0.9055397E-02  0.2441406E-03  0.1461402E+06  0.1555239E+05  0.2130682E-01  0.4858398E-01
  0.9476191E+00 -0.1202032E-01  0.1464844E-02  0.1454373E+06  0.1487826E+05  0.5152716E-02 -0.1232910E-01
  0.9785714E+00 -0.5441443E-02  0.1123047E-01  0.1452784E+06  0.1424881E+05  0.2395073E-01 -0.2038574E-01
  0.1009524E+01 -0.9144478E-03  0.2929688E-02  0.1447939E+06  0.1333203E+05 -0.2998784E-01 -0.2453613E-01
  0.1040476E+01  0.5631436E-02 -0.3784180E-02  0.1441713E+06  0.1231785E+05 -0.1783288E-01  0.9887695E-02
  0.1071429E+01  0.3617350E-02 -0.9765625E-03  0.1438444E+06  0.1133386E+05 -0.3463542E-01  0.1708984E-02
  0.1102381E+01  0.1494900E-02  0.6591797E-02  0.1439183E+06  0.1049460E+05 -0.5226613E-01  0.4882812E-03
  0.1133333E+01  0.4685346E-02  0.3051758E-02  0.1443616E+06  0.9886398E+04 -0.5428538E-01 -0.3356934E-01
  0.1164286E+01  0.3302638E-02  0.7202148E-02  0.1444482E+06  0.8850774E+04 -0.2684049E-01  0.1220703E-02
  0.1195238E+01  0.2553263E-02  0.4882812E-02  0.1443955E+06  0.7734831E+04 -0.9804532E-02 -0.1403809E-02
  0.1226190E+01 -0.6570464E-02  0.1245117E-01  0.1445052E+06  0.6742429E+04  0.2867112E-01 -0.3381348E-01
  0.1257143E+01  0.4660866E-02 -0.7324219E-03  0.1448440E+06  0.5997452E+04 -0.4505504E-01  0.7629395E-02
  0.1288095E+01 -0.3459035E-02  0.5615234E-02  0.1453220E+06  0.5504815E+04  0.2122805E-01  0.4272461E-02
  0.1319048E+01 -0.1166058E-01  0.1403809E-01  0.1459746E+06  0.5367662E+04  0.6515117E-01 -0.4974365E-01
  0.1350000E+01 -0.3526476E-02  0.8666992E-02  0.1462064E+06  0.4236188E+04 -0.2893518E-02 -0.4064941E-01
  0.1380952E+01 -0.8441794E-02 -0.1074219E-01  0.1465131E+06  0.3470303E+04  0.2404364E-01  0.4330444E-01
  0.1411905E+01 -0.2593737E-02  0.2868652E-02  0.1468007E+06  0.2778408E+04  0.1936657E-01  0.5889893E-02
  0.1442857E+01 -0.5668413E-02  0.6408691E-02  0.1472115E+06  0.2360855E+04  0.4467048E-01 -0.2197266E-01
  0.1473810E+01 -0.5383715E-02  0.3662109E-03  0.1476081E+06  0.2132412E+04  0.3975666E-02  0.6072998E-02
  0.1504762E+01 -0.3447714E-02  0.2807617E-02  0.1480092E+06  0.2133089E+04  0.1946944E-01 -0.1260376E-01
  0.1535714E+01 -0.8743641E-03 -0.1281738E-02  0.1484124E+06  0.2065809E+04  0.0000000E+00  0.4302979E-02
  0.1566667E+01 -0.8648811E-02  0.4272461E-02  0.1487640E+06  0.1333587E+04  0.0000000E+00 -0.1043701E-01
  0.1597619E+01  0.4278828E-02 -0.9765625E-03  0.1490649E+06  0.1024397E+04 -0.6357116E-01  0.1884460E-02
  0.1628572E+01 -0.3522906E-02 -0.9765625E-03  0.1493466E+06  0.7152204E+03  0.5996436E-02 -0.6256104E-03
  0.1659524E+01  0.7355743E-04  0.3234863E-02  0.1496338E+06  0.6197761E+03 -0.8238432E-02 -0.8415222E-02
  0.1690476E+01  0.3574425E-02  0.2807617E-02  0.1498820E+06  0.5987727E+03 -0.5892385E-01 -0.1004791E-01
  0.1721429E+01 -0.4112909E-02  0.1647949E-02  0.1500906E+06  0.5986323E+03  0.2269191E-02 -0.8140564E-02
  0.1752381E+01 -0.8359163E-02 -0.3265381E-02  0.1502876E+06  0.6921688E+03 -0.1003100E-01  0.7881165E-02
  0.1783333E+01  0.3046054E-02  0.1831055E-03  0.1505412E+06  0.5360129E+03 -0.4052278E-01 -0.4013062E-02
  0.1814286E+01 -0.5079855E-02 -0.1800537E-02  0.1507767E+06  0.3161301E+03 -0.9688730E-02  0.6427765E-02
  0.1845238E+01 -0.1240392E-01 -0.1037598E-02  0.1509276E+06  0.3083193E+03  0.3916331E-01  0.2590179E-02
  0.1876190E+01 -0.3903772E-02  0.1739502E-02  0.1510764E+06  0.2505780E+03  0.1873810E-01 -0.2077103E-02
  0.1907143E+01 -0.1504162E-02  0.1510620E-02  0.1512053E+06  0.2930765E+03 -0.5530197E-01 -0.3902435E-02
  0.1938095E+01 -0.6015037E-02 -0.1739502E-02  0.1513160E+06  0.3755741E+03  0.7255836E-01  0.1209259E-02
  0.1969048E+01 -0.9919136E-02  0.1373291E-03  0.1514398E+06  0.3554431E+03  0.4364420E-01  0.6141663E-03
  0.2000000E+01 -0.3662109E-03  0.6256104E-03  0.1515731E+06  0.3275257E+03 -0.6152344E-01 -0.6675720E-03
Zone t="Motion of body    1 in DoF   3",I=    64,F=POINT
  0.5000000E-01 -0.1614366E+07 -0.5641083E+00 -0.1184082E+00 -0.4778011E-04  0.7851188E+07  0.2231449E+01
  0.8095238E-01 -0.1620882E+07 -0.2481261E+01 -0.6031709E-02  0.1090726E-02  0.7869402E+07  0.9795079E+01
  0.1119048E+00 -0.1623792E+07 -0.6939957E+01  0.6054168E-01  0.1349878E-02  0.7878556E+07  0.2738902E+02
  0.1428571E+00 -0.1627323E+07 -0.1557115E+02 -0.1001892E+00  0.3139675E-04  0.7891463E+07  0.6140048E+02
  0.1738095E+00 -0.1629125E+07 -0.3085616E+02  0.1207994E+00  0.4826277E-02  0.7895862E+07  0.1215333E+03
  0.2047619E+00 -0.1632976E+07 -0.5665281E+02 -0.2436793E+00 -0.4269361E-02  0.7908310E+07  0.2228328E+03
  0.2357143E+00 -0.1637115E+07 -0.9914378E+02  0.2281235E+00  0.1253104E-01  0.7923106E+07  0.3894737E+03
  0.2666667E+00 -0.1642088E+07 -0.1679140E+03  0.6294250E-01  0.5663514E-02  0.7937956E+07  0.6582915E+03
  0.2976190E+00 -0.1647047E+07 -0.2793647E+03 -0.1837500E+00  0.4692078E-03  0.7955382E+07  0.1093372E+04
  0.3285715E+00 -0.1653895E+07 -0.4580902E+03 -0.7523245E-01  0.2613068E-02  0.7978036E+07  0.1789136E+04
  0.3595238E+00 -0.1659871E+07 -0.7449975E+03 -0.4685559E-01  0.6201744E-02  0.7996874E+07  0.2902483E+04
  0.3904762E+00 -0.1667605E+07 -0.1201870E+04  0.1112924E+00  0.1769066E-01  0.8021897E+07  0.4670042E+04
  0.4214286E+00 -0.1677065E+07 -0.1911506E+04  0.2534510E-01  0.1219940E-01  0.8054974E+07  0.7408199E+04
  0.4523810E+00 -0.1687729E+07 -0.3015318E+04 -0.1243961E+00  0.6378174E-02  0.8090811E+07  0.1165141E+05
  0.4833333E+00 -0.1700157E+07 -0.4634557E+04  0.1492625E+00  0.4493332E-01  0.8130538E+07  0.1784330E+05
  0.5142857E+00 -0.1712963E+07 -0.7003767E+04  0.1794434E+00  0.5035400E-01  0.8173020E+07  0.2687449E+05
  0.5452381E+00 -0.1729085E+07 -0.1032901E+05 -0.2641836E-01  0.2667999E-01  0.8228518E+07  0.3949704E+05
  0.5761905E+00 -0.1742729E+07 -0.1485386E+05  0.6355727E-01  0.3119659E-01  0.8271645E+07  0.5655772E+05
  0.6071429E+00 -0.1759843E+07 -0.2097877E+05  0.2231732E+00  0.7756042E-01  0.8327760E+07  0.7953754E+05
  0.6380953E+00 -0.1779398E+07 -0.2896484E+05 -0.2100520E+00 -0.3088379E-01  0.8391721E+07  0.1093097E+06
  0.6690477E+00 -0.1797240E+07 -0.3924108E+05  0.1293598E+00  0.3887939E-01  0.8449791E+07  0.1474168E+06
  0.7000000E+00 -0.1817554E+07 -0.5234666E+05 -0.1215471E+00  0.2624512E-02  0.8516055E+07  0.1957183E+06
  0.7309524E+00 -0.1839411E+07 -0.6873003E+05 -0.2755528E-01  0.4190063E-01  0.8582536E+07  0.2555229E+06
  0.7619048E+00 -0.1857518E+07 -0.8887515E+05  0.9068298E-01  0.9338379E-01  0.8634686E+07  0.3284574E+06
  0.7928572E+00 -0.1878865E+07 -0.1134908E+06  0.4249366E-01  0.1035767E+00  0.8699735E+07  0.4170265E+06
  0.8238096E+00 -0.1897206E+07 -0.1430602E+06  0.1689227E-01  0.7073975E-01  0.8752555E+07  0.5223822E+06
  0.8547620E+00 -0.1916987E+07 -0.1781915E+06  0.2770554E-01  0.5920410E-01  0.8811205E+07  0.6467903E+06
  0.8857143E+00 -0.1929866E+07 -0.2189735E+06  0.6698116E-01  0.1021729E+00  0.8837743E+07  0.7891589E+06
  0.9166667E+00 -0.1943226E+07 -0.2661973E+06 -0.1885653E+00  0.1232910E-01  0.8866771E+07  0.9524896E+06
  0.9476191E+00 -0.1949899E+07 -0.3198031E+06 -0.3434286E+00 -0.9619141E-01  0.8870774E+07  0.1135330E+07
  0.9785714E+00 -0.1954852E+07 -0.3801877E+06 -0.2494868E-02  0.6506348E-01  0.8867115E+07  0.1339127E+07
  0.1009524E+01 -0.1949945E+07 -0.4463518E+06  0.4764197E-01  0.1330566E+00  0.8828305E+07  0.1559018E+07
  0.1040476E+01 -0.1941578E+07 -0.5186601E+06 -0.1046508E+00 -0.1831055E-01  0.8779972E+07  0.1796884E+07
  0.1071429E+01 -0.1925256E+07 -0.5956007E+06 -0.9661458E-01  0.1806641E-01  0.8703643E+07  0.2045946E+07
  0.1102381E+01 -0.1901232E+07 -0.6757677E+06 -0.6954053E-01  0.3613281E-01  0.8600305E+07  0.2300106E+07
  0.1133333E+01 -0.1870652E+07 -0.7578328E+06 -0.9090648E-01  0.6103516E-02  0.8476270E+07  0.2554988E+07
  0.1164286E+01 -0.1828471E+07 -0.8387235E+06 -0.4497879E-01  0.3613281E-01  0.8312092E+07  0.2798242E+07
  0.1195238E+01 -0.1781334E+07 -0.9185531E+06 -0.2614542E-01  0.1879883E-01  0.8136938E+07  0.3033731E+07
  0.1226190E+01 -0.1728522E+07 -0.9946021E+06 -0.1209563E+00  0.4394531E-02  0.7944823E+07  0.3250440E+07
  0.1257143E+01 -0.1667870E+07 -0.1063791E+07 -0.2417824E-01  0.5664062E-01  0.7734432E+07  0.3439332E+07
  0.1288095E+01 -0.1606801E+07 -0.1126161E+07 -0.1175598E+00 -0.2612305E-01  0.7519372E+07  0.3597730E+07
  0.1319048E+01 -0.1541875E+07 -0.1179109E+07 -0.7472950E-02 -0.2636719E-01  0.7304758E+07  0.3724168E+07
  0.1350000E+01 -0.1472321E+07 -0.1219174E+07 -0.1415790E+00 -0.1098633E-01  0.7071622E+07  0.3798631E+07
  0.1380952E+01 -0.1406585E+07 -0.1251894E+07 -0.1291351E+00 -0.4638672E-02  0.6862342E+07  0.3853726E+07
  0.1411905E+01 -0.1342342E+07 -0.1271427E+07 -0.8118396E-01 -0.1611328E-01  0.6661396E+07  0.3865119E+07
  0.1442857E+01 -0.1279321E+07 -0.1280504E+07 -0.3887516E-01  0.2441406E-01  0.6470283E+07  0.3840764E+07
  0.1473810E+01 -0.1221666E+07 -0.1281077E+07 -0.3221946E-01 -0.3662109E-02  0.6296556E+07  0.3787096E+07
  0.1504762E+01 -0.1169748E+07 -0.1274478E+07  0.7301040E-03  0.1904297E-01  0.6147836E+07  0.3715654E+07
  0.1535714E+01 -0.1120789E+07 -0.1257514E+07 -0.8266714E-01  0.3442383E-01  0.6011834E+07  0.3612651E+07
  0.1566667E+01 -0.1074932E+07 -0.1230311E+07 -0.8594269E-01  0.3173828E-02  0.5884360E+07  0.3471782E+07
  0.1597619E+01 -0.1037154E+07 -0.1203251E+07 -0.2315152E-01 -0.1440430E-01  0.5788914E+07  0.3347054E+07
  0.1628572E+01 -0.1004446E+07 -0.1170982E+07 -0.3178111E-01  0.1611328E-01  0.5708802E+07  0.3203843E+07
  0.1659524E+01 -0.9743088E+06 -0.1130960E+07 -0.1397591E-02  0.9033203E-02  0.5639612E+07  0.3043373E+07
  0.1690476E+01 -0.9498606E+06 -0.1089992E+07 -0.1034778E+00 -0.1586914E-01  0.5587792E+07  0.2882498E+07
  0.1721429E+01 -0.9308786E+06 -0.1049335E+07 -0.9161858E-01 -0.3540039E-02  0.5552125E+07  0.2723990E+07
  0.1752381E+01 -0.9148141E+06 -0.1006985E+07 -0.3448155E-01 -0.8422852E-02  0.5529576E+07  0.2573884E+07
  0.1783333E+01 -0.9013996E+06 -0.9600344E+06  0.3148730E-01  0.7995605E-02  0.5512638E+07  0.2402248E+07
  0.1814286E+01 -0.8906480E+06 -0.9118602E+06 -0.1603014E+00 -0.2502441E-02  0.5502826E+07  0.2227494E+07
  0.1845238E+01 -0.8837484E+06 -0.8711873E+06 -0.7197580E-01 -0.3051758E-02  0.5504688E+07  0.2094447E+07
  0.1876190E+01 -0.8797372E+06 -0.8313848E+06 -0.3093739E-01 -0.1220703E-02  0.5514566E+07  0.1961090E+07
  0.1907143E+01 -0.8765490E+06 -0.7850984E+06 -0.7136771E-02  0.2380371E-02  0.5525831E+07  0.1809772E+07
  0.1938095E+01 -0.8755912E+06 -0.7430440E+06  0.6392946E-02  0.7324219E-03  0.5542212E+07  0.1680854E+07
  0.1969048E+01 -0.8773252E+06 -0.7035306E+06 -0.4905323E-01 -0.2746582E-02  0.5566362E+07  0.1551199E+07
  0.2000000E+01 -0.8799894E+06 -0.6701084E+06 -0.1918030E-01 -0.6103516E-03  0.5592038E+07  0.1454418E+07
