VARIABLES="w (rad/s)"
"abs(F   1   1)" "angle(F   1   1)"
"abs(F   1   2)" "angle(F   1   2)"
"abs(F   1   3)" "angle(F   1   3)"
Zone t="Diffraction force - beta =   0.000 deg",I=    64,F=POINT
  0.5000000E-01  0.3378583E+04 -0.1570798E+01  0.3317030E+06 -0.2265317E-04  0.3749251E+04  0.1570791E+01
  0.8095238E-01  0.5512300E+04 -0.1570797E+01  0.3308010E+06 -0.6088553E-04  0.6124574E+04  0.1570797E+01
  0.1119048E+00  0.7698101E+04 -0.1570794E+01  0.3294751E+06 -0.1207298E-03  0.8562146E+04  0.1570803E+01
  0.1428571E+00  0.9943526E+04 -0.1570790E+01  0.3277279E+06 -0.2066962E-03  0.1107482E+05  0.1570803E+01
  0.1738095E+00  0.1230081E+05 -0.1570784E+01  0.3255619E+06 -0.3253285E-03  0.1372098E+05  0.1570809E+01
  0.2047619E+00  0.1476753E+05 -0.1570778E+01  0.3229717E+06 -0.4864447E-03  0.1650190E+05  0.1570814E+01
  0.2357143E+00  0.1739305E+05 -0.1570769E+01  0.3199604E+06 -0.7042034E-03  0.1947979E+05  0.1570821E+01
  0.2666667E+00  0.2021430E+05 -0.1570755E+01  0.3165398E+06 -0.9952782E-03  0.2269283E+05  0.1570837E+01
  0.2976190E+00  0.2325191E+05 -0.1570735E+01  0.3126942E+06 -0.1389581E-02  0.2617218E+05  0.1570858E+01
  0.3285715E+00  0.2659416E+05 -0.1570704E+01  0.3084609E+06 -0.1914950E-02  0.3002465E+05  0.1570888E+01
  0.3595238E+00  0.3025891E+05 -0.1570657E+01  0.3038201E+06 -0.2618728E-02  0.3427186E+05  0.1570935E+01
  0.3904762E+00  0.3428915E+05 -0.1570589E+01  0.2988142E+06 -0.3550027E-02  0.3896646E+05  0.1571003E+01
  0.4214286E+00  0.3871493E+05 -0.1570489E+01  0.2934626E+06 -0.4740275E-02  0.4417214E+05  0.1571103E+01
  0.4523810E+00  0.4364384E+05 -0.1570343E+01  0.2877737E+06 -0.6282333E-02  0.4997339E+05  0.1571251E+01
  0.4833333E+00  0.4897818E+05 -0.1570139E+01  0.2818326E+06 -0.8118040E-02  0.5630029E+05  0.1571454E+01
  0.5142857E+00  0.5470384E+05 -0.1569857E+01  0.2755653E+06 -0.1036073E-01  0.6315777E+05  0.1571737E+01
  0.5452381E+00  0.6085271E+05 -0.1569482E+01  0.2691672E+06 -0.1296800E-01  0.7057856E+05  0.1572112E+01
  0.5761905E+00  0.6739295E+05 -0.1568994E+01  0.2625103E+06 -0.1593320E-01  0.7852131E+05  0.1572599E+01
  0.6071429E+00  0.7424399E+05 -0.1568365E+01  0.2556721E+06 -0.1935624E-01  0.8685734E+05  0.1573229E+01
  0.6380953E+00  0.8132589E+05 -0.1567582E+01  0.2487222E+06 -0.2312228E-01  0.9557693E+05  0.1574013E+01
  0.6690477E+00  0.8860433E+05 -0.1566611E+01  0.2415730E+06 -0.2732988E-01  0.1046833E+06  0.1574986E+01
  0.7000000E+00  0.9622428E+05 -0.1565425E+01  0.2343311E+06 -0.3201861E-01  0.1141774E+06  0.1576172E+01
  0.7309524E+00  0.1040634E+06 -0.1563999E+01  0.2270641E+06 -0.3713911E-01  0.1240776E+06  0.1577598E+01
  0.7619048E+00  0.1120085E+06 -0.1562295E+01  0.2196762E+06 -0.4274033E-01  0.1341933E+06  0.1579308E+01
  0.7928572E+00  0.1200609E+06 -0.1560277E+01  0.2121514E+06 -0.4882837E-01  0.1445213E+06  0.1581333E+01
  0.8238096E+00  0.1282330E+06 -0.1557913E+01  0.2048055E+06 -0.5543400E-01  0.1551136E+06  0.1583709E+01
  0.8547620E+00  0.1364110E+06 -0.1555184E+01  0.1974123E+06 -0.6253830E-01  0.1657621E+06  0.1586449E+01
  0.8857143E+00  0.1448095E+06 -0.1552091E+01  0.1899789E+06 -0.7017458E-01  0.1768388E+06  0.1589532E+01
  0.9166667E+00  0.1531756E+06 -0.1548568E+01  0.1824754E+06 -0.7829649E-01  0.1878734E+06  0.1593064E+01
  0.9476191E+00  0.1615529E+06 -0.1544598E+01  0.1752808E+06 -0.8691056E-01  0.1990082E+06  0.1597053E+01
  0.9785714E+00  0.1697411E+06 -0.1540154E+01  0.1681079E+06 -0.9604890E-01  0.2099932E+06  0.1601533E+01
  0.1009524E+01  0.1777525E+06 -0.1535222E+01  0.1609737E+06 -0.1057372E+00  0.2208598E+06  0.1606516E+01
  0.1040476E+01  0.1855448E+06 -0.1529797E+01  0.1538580E+06 -0.1159686E+00  0.2316141E+06  0.1612016E+01
  0.1071429E+01  0.1931018E+06 -0.1523934E+01  0.1469195E+06 -0.1266021E+00  0.2419755E+06  0.1617935E+01
  0.1102381E+01  0.2005213E+06 -0.1517796E+01  0.1402548E+06 -0.1376481E+00  0.2521769E+06  0.1624045E+01
  0.1133333E+01  0.2074829E+06 -0.1511248E+01  0.1336852E+06 -0.1491456E+00  0.2618077E+06  0.1630643E+01
  0.1164286E+01  0.2139862E+06 -0.1504343E+01  0.1272121E+06 -0.1611738E+00  0.2709308E+06  0.1637621E+01
  0.1195238E+01  0.2199682E+06 -0.1497128E+01  0.1208218E+06 -0.1737246E+00  0.2795070E+06  0.1644977E+01
  0.1226190E+01  0.2253470E+06 -0.1489728E+01  0.1145527E+06 -0.1866495E+00  0.2871844E+06  0.1652522E+01
  0.1257143E+01  0.2301805E+06 -0.1482395E+01  0.1087181E+06 -0.1994568E+00  0.2940432E+06  0.1659881E+01
  0.1288095E+01  0.2343880E+06 -0.1475237E+01  0.1029806E+06 -0.2126125E+00  0.3001879E+06  0.1667117E+01
  0.1319048E+01  0.2377340E+06 -0.1468207E+01  0.9740349E+05 -0.2260396E+00  0.3050330E+06  0.1674286E+01
  0.1350000E+01  0.2403389E+06 -0.1461467E+01  0.9195695E+05 -0.2399293E+00  0.3090542E+06  0.1681227E+01
  0.1380952E+01  0.2421282E+06 -0.1455220E+01  0.8661576E+05 -0.2542093E+00  0.3119744E+06  0.1687730E+01
  0.1411905E+01  0.2429750E+06 -0.1449767E+01  0.8140469E+05 -0.2688557E+00  0.3135841E+06  0.1693318E+01
  0.1442857E+01  0.2432112E+06 -0.1445282E+01  0.7660950E+05 -0.2817309E+00  0.3140488E+06  0.1697854E+01
  0.1473810E+01  0.2425783E+06 -0.1441718E+01  0.7194456E+05 -0.2948479E+00  0.3134674E+06  0.1701670E+01
  0.1504762E+01  0.2410729E+06 -0.1439383E+01  0.6741324E+05 -0.3077875E+00  0.3115466E+06  0.1704204E+01
  0.1535714E+01  0.2387903E+06 -0.1438514E+01  0.6301953E+05 -0.3205400E+00  0.3084719E+06  0.1705208E+01
  0.1566667E+01  0.2358341E+06 -0.1439140E+01  0.5874783E+05 -0.3335650E+00  0.3046423E+06  0.1704871E+01
  0.1597619E+01  0.2321346E+06 -0.1441387E+01  0.5459257E+05 -0.3468804E+00  0.2996653E+06  0.1702946E+01
  0.1628572E+01  0.2277720E+06 -0.1445461E+01  0.5054068E+05 -0.3603438E+00  0.2936873E+06  0.1699131E+01
  0.1659524E+01  0.2228915E+06 -0.1451536E+01  0.4678254E+05 -0.3698275E+00  0.2867424E+06  0.1692928E+01
  0.1690476E+01  0.2174911E+06 -0.1459644E+01  0.4315101E+05 -0.3789440E+00  0.2791269E+06  0.1684804E+01
  0.1721429E+01  0.2115484E+06 -0.1469918E+01  0.3962758E+05 -0.3881674E+00  0.2707160E+06  0.1674563E+01
  0.1752381E+01  0.2051277E+06 -0.1482590E+01  0.3620977E+05 -0.3973028E+00  0.2615051E+06  0.1661623E+01
  0.1783333E+01  0.1984079E+06 -0.1497602E+01  0.3290978E+05 -0.4067902E+00  0.2519450E+06  0.1646387E+01
  0.1814286E+01  0.1913748E+06 -0.1515061E+01  0.2973644E+05 -0.4177628E+00  0.2419989E+06  0.1628818E+01
  0.1845238E+01  0.1840246E+06 -0.1535320E+01  0.2669712E+05 -0.4307006E+00  0.2315505E+06  0.1608186E+01
  0.1876190E+01  0.1764356E+06 -0.1558524E+01  0.2378006E+05 -0.4461381E+00  0.2207747E+06  0.1584348E+01
  0.1907143E+01  0.1686760E+06 -0.1584858E+01  0.2102505E+05 -0.4596535E+00  0.2096129E+06  0.1556415E+01
  0.1938095E+01  0.1607777E+06 -0.1614646E+01  0.1846419E+05 -0.4752756E+00  0.1982195E+06  0.1524307E+01
  0.1969048E+01  0.1527774E+06 -0.1648091E+01  0.1608218E+05 -0.4978008E+00  0.1867882E+06  0.1488376E+01
  0.2000000E+01  0.1446893E+06 -0.1685954E+01  0.1387149E+05 -0.5277588E+00  0.1752607E+06  0.1447009E+01
