VARIABLES="w (rad/s)"
"abs(F   1   1)" "angle(F   1   1)"
"abs(F   1   2)" "angle(F   1   2)"
"abs(F   1   3)" "angle(F   1   3)"
Zone t="Diffraction force - beta =   0.000 deg",I=    64,F=POINT
  0.5000000E-01  0.1786518E+04 -0.1570793E+01  0.4903134E+03 -0.3076885E+01  0.2895250E+02 -0.1570793E+01
  0.8095238E-01  0.2916742E+04 -0.1570788E+01  0.1264933E+04 -0.3074316E+01  0.4670307E+02 -0.1570786E+01
  0.1119048E+00  0.4072922E+04 -0.1570779E+01  0.2396323E+04 -0.3071380E+01  0.6442493E+02 -0.1570774E+01
  0.1428571E+00  0.5253647E+04 -0.1570765E+01  0.3885848E+04 -0.3067775E+01  0.8426104E+02 -0.1570757E+01
  0.1738095E+00  0.6507843E+04 -0.1570746E+01  0.5739945E+04 -0.3063321E+01  0.1050802E+03 -0.1570731E+01
  0.2047619E+00  0.7811742E+04 -0.1570718E+01  0.7969819E+04 -0.3057825E+01  0.1285259E+03 -0.1570695E+01
  0.2357143E+00  0.9193015E+04 -0.1570677E+01  0.1058099E+05 -0.3050912E+01  0.1514566E+03 -0.1570639E+01
  0.2666667E+00  0.1070441E+05 -0.1570617E+01  0.1358850E+05 -0.3042607E+01  0.1800466E+03 -0.1570561E+01
  0.2976190E+00  0.1230336E+05 -0.1570528E+01  0.1699736E+05 -0.3032164E+01  0.2113980E+03 -0.1570446E+01
  0.3285715E+00  0.1406451E+05 -0.1570396E+01  0.2082764E+05 -0.3019823E+01  0.2441579E+03 -0.1570271E+01
  0.3595238E+00  0.1603601E+05 -0.1570199E+01  0.2504893E+05 -0.3004777E+01  0.2888301E+03 -0.1570024E+01
  0.3904762E+00  0.1818117E+05 -0.1569904E+01  0.2970032E+05 -0.2987188E+01  0.3318428E+03 -0.1569640E+01
  0.4214286E+00  0.2049965E+05 -0.1569472E+01  0.3466462E+05 -0.2967432E+01  0.3779648E+03 -0.1569072E+01
  0.4523810E+00  0.2314675E+05 -0.1568844E+01  0.4000723E+05 -0.2944738E+01  0.4410123E+03 -0.1568288E+01
  0.4833333E+00  0.2604791E+05 -0.1567979E+01  0.4556002E+05 -0.2921802E+01  0.5130101E+03 -0.1567219E+01
  0.5142857E+00  0.2910517E+05 -0.1566773E+01  0.5134629E+05 -0.2896998E+01  0.5833528E+03 -0.1565688E+01
  0.5452381E+00  0.3235653E+05 -0.1565170E+01  0.5732904E+05 -0.2872478E+01  0.6566560E+03 -0.1563625E+01
  0.5761905E+00  0.3590635E+05 -0.1563109E+01  0.6341316E+05 -0.2848354E+01  0.7556786E+03 -0.1561130E+01
  0.6071429E+00  0.3970616E+05 -0.1560474E+01  0.6959878E+05 -0.2823603E+01  0.8711047E+03 -0.1558032E+01
  0.6380953E+00  0.4357566E+05 -0.1557189E+01  0.7590384E+05 -0.2800636E+01  0.9733729E+03 -0.1553950E+01
  0.6690477E+00  0.4745506E+05 -0.1553100E+01  0.8224239E+05 -0.2777908E+01  0.1081994E+04 -0.1548890E+01
  0.7000000E+00  0.5162040E+05 -0.1548158E+01  0.8859795E+05 -0.2755154E+01  0.1215772E+04 -0.1543034E+01
  0.7309524E+00  0.5599427E+05 -0.1542285E+01  0.9497305E+05 -0.2733479E+01  0.1358056E+04 -0.1536048E+01
  0.7619048E+00  0.6046208E+05 -0.1535310E+01  0.1012834E+06 -0.2712124E+01  0.1525775E+04 -0.1528110E+01
  0.7928572E+00  0.6498530E+05 -0.1527099E+01  0.1075319E+06 -0.2691248E+01  0.1701428E+04 -0.1518771E+01
  0.8238096E+00  0.6940937E+05 -0.1517460E+01  0.1136995E+06 -0.2670943E+01  0.1845005E+04 -0.1506932E+01
  0.8547620E+00  0.7385905E+05 -0.1506376E+01  0.1197713E+06 -0.2651320E+01  0.2012096E+04 -0.1493795E+01
  0.8857143E+00  0.7843134E+05 -0.1493853E+01  0.1256935E+06 -0.2632209E+01  0.2217651E+04 -0.1479865E+01
  0.9166667E+00  0.8307745E+05 -0.1479820E+01  0.1314625E+06 -0.2613792E+01  0.2442054E+04 -0.1464450E+01
  0.9476191E+00  0.8763705E+05 -0.1464115E+01  0.1370078E+06 -0.2595739E+01  0.2661685E+04 -0.1446906E+01
  0.9785714E+00  0.9202987E+05 -0.1446624E+01  0.1423347E+06 -0.2578276E+01  0.2884177E+04 -0.1427297E+01
  0.1009524E+01  0.9606462E+05 -0.1427137E+01  0.1474234E+06 -0.2561331E+01  0.3102786E+04 -0.1405272E+01
  0.1040476E+01  0.9975753E+05 -0.1405669E+01  0.1522949E+06 -0.2545210E+01  0.3317423E+04 -0.1380897E+01
  0.1071429E+01  0.1031589E+06 -0.1382481E+01  0.1569232E+06 -0.2529799E+01  0.3529671E+04 -0.1354808E+01
  0.1102381E+01  0.1062266E+06 -0.1357706E+01  0.1612790E+06 -0.2514955E+01  0.3737900E+04 -0.1327198E+01
  0.1133333E+01  0.1088708E+06 -0.1331372E+01  0.1653273E+06 -0.2500524E+01  0.3942924E+04 -0.1297820E+01
  0.1164286E+01  0.1109089E+06 -0.1303327E+01  0.1690768E+06 -0.2486628E+01  0.4152176E+04 -0.1267200E+01
  0.1195238E+01  0.1123400E+06 -0.1273759E+01  0.1725251E+06 -0.2473404E+01  0.4352661E+04 -0.1235438E+01
  0.1226190E+01  0.1130967E+06 -0.1242919E+01  0.1756713E+06 -0.2460949E+01  0.4533083E+04 -0.1202810E+01
  0.1257143E+01  0.1130912E+06 -0.1210725E+01  0.1785205E+06 -0.2448787E+01  0.4660822E+04 -0.1167253E+01
  0.1288095E+01  0.1123145E+06 -0.1178218E+01  0.1809624E+06 -0.2437460E+01  0.4751266E+04 -0.1130970E+01
  0.1319048E+01  0.1106895E+06 -0.1144554E+01  0.1830964E+06 -0.2426340E+01  0.4818889E+04 -0.1093522E+01
  0.1350000E+01  0.1082010E+06 -0.1110153E+01  0.1848978E+06 -0.2415834E+01  0.4862340E+04 -0.1056555E+01
  0.1380952E+01  0.1049069E+06 -0.1075610E+01  0.1863569E+06 -0.2406116E+01  0.4875040E+04 -0.1020688E+01
  0.1411905E+01  0.1001721E+06 -0.1040950E+01  0.1872574E+06 -0.2396427E+01  0.4752324E+04 -0.9790500E+00
  0.1442857E+01  0.9524166E+05 -0.1006024E+01  0.1880205E+06 -0.2387684E+01  0.4652334E+04 -0.9412471E+00
  0.1473810E+01  0.8949690E+05 -0.9707749E+00  0.1884444E+06 -0.2379434E+01  0.4489431E+04 -0.9012387E+00
  0.1504762E+01  0.8302805E+05 -0.9355464E+00  0.1885245E+06 -0.2371731E+01  0.4284453E+04 -0.8624972E+00
  0.1535714E+01  0.7586334E+05 -0.9000481E+00  0.1882549E+06 -0.2364355E+01  0.4043000E+04 -0.8260004E+00
  0.1566667E+01  0.6807583E+05 -0.8639907E+00  0.1876521E+06 -0.2357650E+01  0.3748844E+04 -0.7897616E+00
  0.1597619E+01  0.5972714E+05 -0.8268108E+00  0.1867095E+06 -0.2351549E+01  0.3402552E+04 -0.7528261E+00
  0.1628572E+01  0.5090958E+05 -0.7876105E+00  0.1854285E+06 -0.2346117E+01  0.2997152E+04 -0.7132102E+00
  0.1659524E+01  0.4168468E+05 -0.7440138E+00  0.1838071E+06 -0.2341198E+01  0.2530368E+04 -0.6685167E+00
  0.1690476E+01  0.3211837E+05 -0.6905715E+00  0.1818682E+06 -0.2336766E+01  0.2000848E+04 -0.6117743E+00
  0.1721429E+01  0.2231491E+05 -0.6129166E+00  0.1796130E+06 -0.2332929E+01  0.1430381E+04 -0.5336137E+00
  0.1752381E+01  0.1246765E+05 -0.4503556E+00  0.1770413E+06 -0.2329528E+01  0.8322438E+03 -0.3832458E+00
  0.1783333E+01  0.4136156E+04  0.4356073E+00  0.1741644E+06 -0.2326698E+01  0.2756358E+03  0.3611196E+00
  0.1814286E+01  0.9568855E+04  0.2013477E+01  0.1709955E+06 -0.2324586E+01  0.5828921E+03  0.2124654E+01
  0.1845238E+01  0.1955327E+05  0.2247333E+01  0.1675247E+06 -0.2323304E+01  0.1278767E+04  0.2373008E+01
  0.1876190E+01  0.2979548E+05  0.2334250E+01  0.1637620E+06 -0.2322835E+01  0.2036703E+04  0.2460278E+01
  0.1907143E+01  0.4002909E+05  0.2384932E+01  0.1597028E+06 -0.2323214E+01  0.2840264E+04  0.2511864E+01
  0.1938095E+01  0.5015907E+05  0.2421085E+01  0.1553673E+06 -0.2324473E+01  0.3682286E+04  0.2548200E+01
  0.1969048E+01  0.6012586E+05  0.2449742E+01  0.1507721E+06 -0.2326617E+01  0.4553765E+04  0.2576814E+01
  0.2000000E+01  0.6987526E+05  0.2473679E+01  0.1459162E+06 -0.2329736E+01  0.5450230E+04  0.2601706E+01
