VARIABLES="w (rad/s)"
"abs(F   1   1)" "angle(F   1   1)"
"abs(F   1   2)" "angle(F   1   2)"
"abs(F   1   3)" "angle(F   1   3)"
Zone t="Diffraction force - beta =   0.000 deg",I=    64,F=POINT
  0.5000000E-01  0.2254109E+04 -0.1570794E+01  0.2346108E+03 -0.3103071E+01  0.5290326E+04  0.1570799E+01
  0.8095238E-01  0.3698965E+04 -0.1570789E+01  0.6073862E+03 -0.3101746E+01  0.8675435E+04  0.1570804E+01
  0.1119048E+00  0.5172858E+04 -0.1570781E+01  0.1153958E+04 -0.3100228E+01  0.1212869E+05  0.1570811E+01
  0.1428571E+00  0.6701285E+04 -0.1570769E+01  0.1871539E+04 -0.3098238E+01  0.1568879E+05  0.1570822E+01
  0.1738095E+00  0.8290257E+04 -0.1570752E+01  0.2761504E+04 -0.3095765E+01  0.1940779E+05  0.1570839E+01
  0.2047619E+00  0.9960005E+04 -0.1570727E+01  0.3829246E+04 -0.3092702E+01  0.2329889E+05  0.1570863E+01
  0.2357143E+00  0.1174615E+05 -0.1570691E+01  0.5054997E+04 -0.3088642E+01  0.2745783E+05  0.1570897E+01
  0.2666667E+00  0.1366631E+05 -0.1570638E+01  0.6463944E+04 -0.3083919E+01  0.3193647E+05  0.1570948E+01
  0.2976190E+00  0.1575893E+05 -0.1570560E+01  0.8026669E+04 -0.3077784E+01  0.3678663E+05  0.1571023E+01
  0.3285715E+00  0.1805452E+05 -0.1570444E+01  0.9770213E+04 -0.3070675E+01  0.4208473E+05  0.1571134E+01
  0.3595238E+00  0.2055966E+05 -0.1570271E+01  0.1163711E+05 -0.3061775E+01  0.4792848E+05  0.1571300E+01
  0.3904762E+00  0.2335163E+05 -0.1570013E+01  0.1369325E+05 -0.3051650E+01  0.5436547E+05  0.1571547E+01
  0.4214286E+00  0.2649831E+05 -0.1569638E+01  0.1579270E+05 -0.3039900E+01  0.6157511E+05  0.1571907E+01
  0.4523810E+00  0.2990783E+05 -0.1569088E+01  0.1806167E+05 -0.3026663E+01  0.6943779E+05  0.1572434E+01
  0.4833333E+00  0.3368976E+05 -0.1568331E+01  0.2032583E+05 -0.3013156E+01  0.7818052E+05  0.1573160E+01
  0.5142857E+00  0.3781449E+05 -0.1567283E+01  0.2265572E+05 -0.2998581E+01  0.8758842E+05  0.1574165E+01
  0.5452381E+00  0.4228796E+05 -0.1565895E+01  0.2503855E+05 -0.2984459E+01  0.9766723E+05  0.1575500E+01
  0.5761905E+00  0.4701162E+05 -0.1564096E+01  0.2734070E+05 -0.2970200E+01  0.1084252E+06  0.1577226E+01
  0.6071429E+00  0.5198448E+05 -0.1561781E+01  0.2971378E+05 -0.2956085E+01  0.1198522E+06  0.1579443E+01
  0.6380953E+00  0.5739448E+05 -0.1558930E+01  0.3201459E+05 -0.2942857E+01  0.1319452E+06  0.1582186E+01
  0.6690477E+00  0.6300008E+05 -0.1555403E+01  0.3423250E+05 -0.2929513E+01  0.1444181E+06  0.1585580E+01
  0.7000000E+00  0.6884532E+05 -0.1551087E+01  0.3647841E+05 -0.2916749E+01  0.1574925E+06  0.1589729E+01
  0.7309524E+00  0.7498415E+05 -0.1545924E+01  0.3861348E+05 -0.2904512E+01  0.1710758E+06  0.1594700E+01
  0.7619048E+00  0.8129455E+05 -0.1539763E+01  0.4060230E+05 -0.2892039E+01  0.1852287E+06  0.1600610E+01
  0.7928572E+00  0.8789449E+05 -0.1532523E+01  0.4255373E+05 -0.2880214E+01  0.1997198E+06  0.1607576E+01
  0.8238096E+00  0.9476192E+05 -0.1524084E+01  0.4451407E+05 -0.2869682E+01  0.2144946E+06  0.1615724E+01
  0.8547620E+00  0.1019873E+06 -0.1514370E+01  0.4612348E+05 -0.2857849E+01  0.2300667E+06  0.1625097E+01
  0.8857143E+00  0.1092075E+06 -0.1503156E+01  0.4765180E+05 -0.2846679E+01  0.2454948E+06  0.1635924E+01
  0.9166667E+00  0.1165952E+06 -0.1490379E+01  0.4914084E+05 -0.2836449E+01  0.2614196E+06  0.1648229E+01
  0.9476191E+00  0.1240130E+06 -0.1475914E+01  0.5058107E+05 -0.2827353E+01  0.2772175E+06  0.1662169E+01
  0.9785714E+00  0.1318261E+06 -0.1459898E+01  0.5164774E+05 -0.2817115E+01  0.2935565E+06  0.1677631E+01
  0.1009524E+01  0.1396490E+06 -0.1442091E+01  0.5258848E+05 -0.2807222E+01  0.3097643E+06  0.1694824E+01
  0.1040476E+01  0.1473523E+06 -0.1422362E+01  0.5341566E+05 -0.2797959E+01  0.3252897E+06  0.1713937E+01
  0.1071429E+01  0.1550855E+06 -0.1400733E+01  0.5417666E+05 -0.2789515E+01  0.3409791E+06  0.1734845E+01
  0.1102381E+01  0.1625736E+06 -0.1377104E+01  0.5485062E+05 -0.2782122E+01  0.3555963E+06  0.1757766E+01
  0.1133333E+01  0.1700661E+06 -0.1351609E+01  0.5508745E+05 -0.2773327E+01  0.3703218E+06  0.1782439E+01
  0.1164286E+01  0.1770318E+06 -0.1324002E+01  0.5524645E+05 -0.2765161E+01  0.3839686E+06  0.1809087E+01
  0.1195238E+01  0.1833390E+06 -0.1294341E+01  0.5528740E+05 -0.2757488E+01  0.3958372E+06  0.1837736E+01
  0.1226190E+01  0.1893841E+06 -0.1263209E+01  0.5525145E+05 -0.2750309E+01  0.4071615E+06  0.1867724E+01
  0.1257143E+01  0.1945416E+06 -0.1230358E+01  0.5514999E+05 -0.2743852E+01  0.4159101E+06  0.1899458E+01
  0.1288095E+01  0.1994619E+06 -0.1196527E+01  0.5477383E+05 -0.2737753E+01  0.4238154E+06  0.1932226E+01
  0.1319048E+01  0.2035353E+06 -0.1161196E+01  0.5414912E+05 -0.2730947E+01  0.4301970E+06  0.1966287E+01
  0.1350000E+01  0.2064796E+06 -0.1124540E+01  0.5345787E+05 -0.2724723E+01  0.4339998E+06  0.2001594E+01
  0.1380952E+01  0.2082852E+06 -0.1086798E+01  0.5268055E+05 -0.2718931E+01  0.4350947E+06  0.2037956E+01
  0.1411905E+01  0.2089047E+06 -0.1047965E+01  0.5182629E+05 -0.2713115E+01  0.4344552E+06  0.2074889E+01
  0.1442857E+01  0.2087318E+06 -0.1009639E+01  0.5093626E+05 -0.2708193E+01  0.4312153E+06  0.2111630E+01
  0.1473810E+01  0.2075664E+06 -0.9713632E+00  0.4994625E+05 -0.2703933E+01  0.4257632E+06  0.2148309E+01
  0.1504762E+01  0.2056093E+06 -0.9334049E+00  0.4865055E+05 -0.2699441E+01  0.4189283E+06  0.2184464E+01
  0.1535714E+01  0.2023923E+06 -0.8953380E+00  0.4733390E+05 -0.2695058E+01  0.4097698E+06  0.2220568E+01
  0.1566667E+01  0.1981129E+06 -0.8580170E+00  0.4597892E+05 -0.2691188E+01  0.3982104E+06  0.2255861E+01
  0.1597619E+01  0.1929200E+06 -0.8216225E+00  0.4456831E+05 -0.2687485E+01  0.3847810E+06  0.2290161E+01
  0.1628572E+01  0.1870293E+06 -0.7860816E+00  0.4312513E+05 -0.2684036E+01  0.3704777E+06  0.2323364E+01
  0.1659524E+01  0.1802933E+06 -0.7516612E+00  0.4168600E+05 -0.2681069E+01  0.3543893E+06  0.2355349E+01
  0.1690476E+01  0.1728663E+06 -0.7184458E+00  0.4026258E+05 -0.2678602E+01  0.3369713E+06  0.2385982E+01
  0.1721429E+01  0.1650602E+06 -0.6867265E+00  0.3864800E+05 -0.2676974E+01  0.3191621E+06  0.2414763E+01
  0.1752381E+01  0.1568416E+06 -0.6563075E+00  0.3698964E+05 -0.2675370E+01  0.3010211E+06  0.2441934E+01
  0.1783333E+01  0.1480717E+06 -0.6269599E+00  0.3536180E+05 -0.2673966E+01  0.2819772E+06  0.2467805E+01
  0.1814286E+01  0.1388697E+06 -0.5989022E+00  0.3376057E+05 -0.2672974E+01  0.2621324E+06  0.2492057E+01
  0.1845238E+01  0.1294761E+06 -0.5721373E+00  0.3214915E+05 -0.2672263E+01  0.2422731E+06  0.2514663E+01
  0.1876190E+01  0.1200034E+06 -0.5464709E+00  0.3055405E+05 -0.2671982E+01  0.2228168E+06  0.2535684E+01
  0.1907143E+01  0.1103962E+06 -0.5221364E+00  0.2899736E+05 -0.2672103E+01  0.2033109E+06  0.2554721E+01
  0.1938095E+01  0.1006775E+06 -0.4990519E+00  0.2748907E+05 -0.2672573E+01  0.1837627E+06  0.2571651E+01
  0.1969048E+01  0.9101740E+05 -0.4770720E+00  0.2598657E+05 -0.2673903E+01  0.1647179E+06  0.2586446E+01
  0.2000000E+01  0.8150903E+05 -0.4563306E+00  0.2444421E+05 -0.2676291E+01  0.1464110E+06  0.2598528E+01
