VARIABLES="w (rad/s)"
"abs(F   1   1)" "angle(F   1   1)"
"abs(F   1   2)" "angle(F   1   2)"
"abs(F   1   3)" "angle(F   1   3)"
Zone t="Diffraction force - beta =   0.000 deg",I=    64,F=POINT
  0.5000000E-01  0.2205465E+04 -0.1570793E+01  0.5618787E+03 -0.3091823E+01  0.2797023E+04  0.1570798E+01
  0.8095238E-01  0.3606720E+04 -0.1570786E+01  0.1453854E+04 -0.3090058E+01  0.4573924E+04  0.1570801E+01
  0.1119048E+00  0.5054148E+04 -0.1570776E+01  0.2757194E+04 -0.3087960E+01  0.6422348E+04  0.1570806E+01
  0.1428571E+00  0.6538304E+04 -0.1570760E+01  0.4471118E+04 -0.3085329E+01  0.8325699E+04  0.1570813E+01
  0.1738095E+00  0.8094580E+04 -0.1570737E+01  0.6600861E+04 -0.3082080E+01  0.1032038E+05  0.1570824E+01
  0.2047619E+00  0.9727616E+04 -0.1570704E+01  0.9150937E+04 -0.3078010E+01  0.1245454E+05  0.1570839E+01
  0.2357143E+00  0.1150923E+05 -0.1570656E+01  0.1210447E+05 -0.3072772E+01  0.1477731E+05  0.1570861E+01
  0.2666667E+00  0.1338393E+05 -0.1570585E+01  0.1551282E+05 -0.3066670E+01  0.1726121E+05  0.1570895E+01
  0.2976190E+00  0.1544628E+05 -0.1570481E+01  0.1929146E+05 -0.3058681E+01  0.1999267E+05  0.1570944E+01
  0.3285715E+00  0.1775141E+05 -0.1570327E+01  0.2355320E+05 -0.3049544E+01  0.2308472E+05  0.1571017E+01
  0.3595238E+00  0.2028342E+05 -0.1570096E+01  0.2812400E+05 -0.3038046E+01  0.2647368E+05  0.1571127E+01
  0.3904762E+00  0.2298712E+05 -0.1569749E+01  0.3316298E+05 -0.3024897E+01  0.3019863E+05  0.1571293E+01
  0.4214286E+00  0.2617267E+05 -0.1569249E+01  0.3841759E+05 -0.3009962E+01  0.3450584E+05  0.1571536E+01
  0.4523810E+00  0.2967230E+05 -0.1568517E+01  0.4401398E+05 -0.2992810E+01  0.3933679E+05  0.1571894E+01
  0.4833333E+00  0.3341080E+05 -0.1567500E+01  0.4979283E+05 -0.2975845E+01  0.4451256E+05  0.1572394E+01
  0.5142857E+00  0.3749129E+05 -0.1566094E+01  0.5563716E+05 -0.2957088E+01  0.5031475E+05  0.1573090E+01
  0.5452381E+00  0.4208678E+05 -0.1564247E+01  0.6175884E+05 -0.2939375E+01  0.5683604E+05  0.1574018E+01
  0.5761905E+00  0.4700819E+05 -0.1561862E+01  0.6765060E+05 -0.2921191E+01  0.6366322E+05  0.1575235E+01
  0.6071429E+00  0.5206862E+05 -0.1558776E+01  0.7364298E+05 -0.2902884E+01  0.7095683E+05  0.1576817E+01
  0.6380953E+00  0.5728910E+05 -0.1554932E+01  0.7977688E+05 -0.2886833E+01  0.7866702E+05  0.1578798E+01
  0.6690477E+00  0.6313249E+05 -0.1550278E+01  0.8555323E+05 -0.2869877E+01  0.8703919E+05  0.1581244E+01
  0.7000000E+00  0.6923333E+05 -0.1544606E+01  0.9131553E+05 -0.2853371E+01  0.9591963E+05  0.1584265E+01
  0.7309524E+00  0.7547567E+05 -0.1537790E+01  0.9718430E+05 -0.2838916E+01  0.1053137E+06  0.1587928E+01
  0.7619048E+00  0.8189659E+05 -0.1529679E+01  0.1024986E+06 -0.2823260E+01  0.1145965E+06  0.1592362E+01
  0.7928572E+00  0.8847245E+05 -0.1520133E+01  0.1077123E+06 -0.2808392E+01  0.1247206E+06  0.1597606E+01
  0.8238096E+00  0.9512646E+05 -0.1509030E+01  0.1128334E+06 -0.2794742E+01  0.1349799E+06  0.1603736E+01
  0.8547620E+00  0.1023507E+06 -0.1496535E+01  0.1176765E+06 -0.2781720E+01  0.1459970E+06  0.1610729E+01
  0.8857143E+00  0.1097440E+06 -0.1482310E+01  0.1219423E+06 -0.2767953E+01  0.1570852E+06  0.1618866E+01
  0.9166667E+00  0.1170486E+06 -0.1466126E+01  0.1260858E+06 -0.2755507E+01  0.1686841E+06  0.1628190E+01
  0.9476191E+00  0.1240980E+06 -0.1447795E+01  0.1299832E+06 -0.2744042E+01  0.1800818E+06  0.1638815E+01
  0.9785714E+00  0.1309411E+06 -0.1427311E+01  0.1335997E+06 -0.2733589E+01  0.1916377E+06  0.1650718E+01
  0.1009524E+01  0.1375581E+06 -0.1404771E+01  0.1364455E+06 -0.2721875E+01  0.2023041E+06  0.1663915E+01
  0.1040476E+01  0.1441388E+06 -0.1380506E+01  0.1390423E+06 -0.2711079E+01  0.2138155E+06  0.1678041E+01
  0.1071429E+01  0.1503893E+06 -0.1354594E+01  0.1413032E+06 -0.2701319E+01  0.2247541E+06  0.1693038E+01
  0.1102381E+01  0.1559705E+06 -0.1326446E+01  0.1433247E+06 -0.2692928E+01  0.2353268E+06  0.1709447E+01
  0.1133333E+01  0.1608045E+06 -0.1296285E+01  0.1449060E+06 -0.2685096E+01  0.2451105E+06  0.1726873E+01
  0.1164286E+01  0.1648193E+06 -0.1264442E+01  0.1457212E+06 -0.2676203E+01  0.2532747E+06  0.1745220E+01
  0.1195238E+01  0.1681529E+06 -0.1231434E+01  0.1462918E+06 -0.2668092E+01  0.2615936E+06  0.1763859E+01
  0.1226190E+01  0.1703281E+06 -0.1197603E+01  0.1464990E+06 -0.2661017E+01  0.2683635E+06  0.1782225E+01
  0.1257143E+01  0.1711635E+06 -0.1162191E+01  0.1464315E+06 -0.2654904E+01  0.2736220E+06  0.1801096E+01
  0.1288095E+01  0.1709704E+06 -0.1126420E+01  0.1460846E+06 -0.2650522E+01  0.2781134E+06  0.1819492E+01
  0.1319048E+01  0.1693269E+06 -0.1090061E+01  0.1450343E+06 -0.2645292E+01  0.2800309E+06  0.1837135E+01
  0.1350000E+01  0.1664701E+06 -0.1054235E+01  0.1434737E+06 -0.2640164E+01  0.2801053E+06  0.1853218E+01
  0.1380952E+01  0.1625638E+06 -0.1019355E+01  0.1417038E+06 -0.2635992E+01  0.2797270E+06  0.1867460E+01
  0.1411905E+01  0.1566964E+06 -0.9832456E+00  0.1396272E+06 -0.2632705E+01  0.2768553E+06  0.1880400E+01
  0.1442857E+01  0.1497912E+06 -0.9486432E+00  0.1373333E+06 -0.2630816E+01  0.2724561E+06  0.1890639E+01
  0.1473810E+01  0.1417916E+06 -0.9152790E+00  0.1348599E+06 -0.2630163E+01  0.2671810E+06  0.1898004E+01
  0.1504762E+01  0.1327146E+06 -0.8836620E+00  0.1321070E+06 -0.2630649E+01  0.2604491E+06  0.1901569E+01
  0.1535714E+01  0.1224941E+06 -0.8541214E+00  0.1287242E+06 -0.2630544E+01  0.2510040E+06  0.1900405E+01
  0.1566667E+01  0.1114784E+06 -0.8268518E+00  0.1252128E+06 -0.2631743E+01  0.2409873E+06  0.1894893E+01
  0.1597619E+01  0.9981099E+05 -0.8028060E+00  0.1216160E+06 -0.2633956E+01  0.2307999E+06  0.1884414E+01
  0.1628572E+01  0.8723292E+05 -0.7812844E+00  0.1179473E+06 -0.2637405E+01  0.2193372E+06  0.1867529E+01
  0.1659524E+01  0.7394454E+05 -0.7632398E+00  0.1142383E+06 -0.2641726E+01  0.2070334E+06  0.1843508E+01
  0.1690476E+01  0.6023602E+05 -0.7510178E+00  0.1105021E+06 -0.2646622E+01  0.1948361E+06  0.1812016E+01
  0.1721429E+01  0.4615451E+05 -0.7486311E+00  0.1067720E+06 -0.2652759E+01  0.1827198E+06  0.1771291E+01
  0.1752381E+01  0.3170895E+05 -0.7707653E+00  0.1027946E+06 -0.2658632E+01  0.1698975E+06  0.1716454E+01
  0.1783333E+01  0.1712734E+05 -0.8752697E+00  0.9870161E+05 -0.2664167E+01  0.1570822E+06  0.1645197E+01
  0.1814286E+01  0.4889178E+04 -0.1821087E+01  0.9466159E+05 -0.2669426E+01  0.1458515E+06  0.1560591E+01
  0.1845238E+01  0.1419919E+05  0.2915287E+01  0.9059587E+05 -0.2674249E+01  0.1361189E+06  0.1459044E+01
  0.1876190E+01  0.2894937E+05  0.2761684E+01  0.8647609E+05 -0.2678742E+01  0.1280965E+06  0.1337888E+01
  0.1907143E+01  0.4400993E+05  0.2724654E+01  0.8229145E+05 -0.2683047E+01  0.1225366E+06  0.1199490E+01
  0.1938095E+01  0.5904170E+05  0.2716119E+01  0.7805068E+05 -0.2687147E+01  0.1200004E+06  0.1051485E+01
  0.1969048E+01  0.7393349E+05  0.2718851E+01  0.7372241E+05 -0.2691373E+01  0.1206693E+06  0.9026753E+00
  0.2000000E+01  0.8866684E+05  0.2727156E+01  0.6932023E+05 -0.2696193E+01  0.1244468E+06  0.7601723E+00
