VARIABLES="w (rad/s)"
"A   1   1" "B   1   1"
"A   1   2" "B   1   2"
"A   1   3" "B   1   3"
Zone t="Motion of body    1 in DoF   1",I=    64,F=POINT
  0.5000000E-01  0.1705249E+05  0.3530515E-03 -0.4730225E-02 -0.8881466E-05 -0.9561326E+03  0.3556364E-04
  0.8095238E-01  0.1711479E+05  0.1478618E-02 -0.2002716E-02 -0.8086905E-05 -0.9879626E+03  0.1662777E-03
  0.1119048E+00  0.1717061E+05  0.4209114E-02 -0.2266904E-02 -0.1193227E-04 -0.1019706E+04  0.4431463E-03
  0.1428571E+00  0.1721508E+05  0.9463176E-02 -0.4272461E-03 -0.4121408E-05 -0.9930318E+03  0.1028672E-02
  0.1738095E+00  0.1721812E+05  0.1883666E-01 -0.4389515E-04 -0.2688903E-05 -0.1011761E+04  0.2091501E-02
  0.2047619E+00  0.1724977E+05  0.3484441E-01  0.3725983E-03  0.4178903E-05 -0.9771680E+03  0.3880538E-02
  0.2357143E+00  0.1726382E+05  0.6140457E-01 -0.1747825E-02 -0.3463752E-04 -0.9875239E+03  0.6876284E-02
  0.2666667E+00  0.1726593E+05  0.1048409E+00  0.1530647E-02 -0.9019976E-05 -0.9943585E+03  0.1183699E-01
  0.2976190E+00  0.1730545E+05  0.1761431E+00 -0.5126953E-03 -0.2309098E-04 -0.9518776E+03  0.2026268E-01
  0.3285715E+00  0.1733539E+05  0.2918950E+00 -0.1764712E-02 -0.4695775E-04 -0.9537146E+03  0.3397176E-01
  0.3595238E+00  0.1733643E+05  0.4797514E+00 -0.2567721E-02 -0.7578079E-04 -0.9668854E+03  0.5646405E-01
  0.3904762E+00  0.1736597E+05  0.7835819E+00  0.2012485E-02  0.1557982E-03 -0.9357827E+03  0.9403516E-01
  0.4214286E+00  0.1742770E+05  0.1263825E+01  0.6336276E-03 -0.2336502E-04 -0.8984388E+03  0.1547036E+00
  0.4523810E+00  0.1744691E+05  0.2018552E+01  0.1838282E-02  0.1336299E-03 -0.9145516E+03  0.2500714E+00
  0.4833333E+00  0.1746034E+05  0.3144580E+01  0.3362195E-02  0.3916882E-03 -0.9152908E+03  0.3963355E+00
  0.5142857E+00  0.1752764E+05  0.4823246E+01 -0.1216465E-02 -0.1005456E-03 -0.8613439E+03  0.6235442E+00
  0.5452381E+00  0.1760367E+05  0.7224869E+01  0.3554165E-02  0.3918037E-03 -0.8286646E+03  0.9544390E+00
  0.5761905E+00  0.1764277E+05  0.1056158E+02 -0.1906718E-02 -0.3009290E-03 -0.8295879E+03  0.1420048E+01
  0.6071429E+00  0.1768449E+05  0.1515541E+02  0.9047563E-03  0.6774068E-04 -0.8106362E+03  0.2081475E+01
  0.6380953E+00  0.1774312E+05  0.2127460E+02 -0.2869563E-03  0.4267693E-04 -0.7826907E+03  0.2989357E+01
  0.6690477E+00  0.1782312E+05  0.2936752E+02 -0.2394707E-02 -0.1568794E-03 -0.7480005E+03  0.4225054E+01
  0.7000000E+00  0.1790433E+05  0.3993536E+02 -0.4141671E-03 -0.1664758E-03 -0.7166412E+03  0.5880081E+01
  0.7309524E+00  0.1797097E+05  0.5345598E+02  0.9602599E-03  0.1839995E-03 -0.7121383E+03  0.8029946E+01
  0.7619048E+00  0.1802977E+05  0.7060416E+02 -0.5126953E-02 -0.7654428E-03 -0.6942382E+03  0.1084633E+02
  0.7928572E+00  0.1810964E+05  0.9215614E+02 -0.1693588E-02 -0.3409386E-03 -0.6555048E+03  0.1451270E+02
  0.8238096E+00  0.1821489E+05  0.1189822E+03  0.4074890E-03  0.5335808E-03 -0.6053713E+03  0.1922441E+02
  0.8547620E+00  0.1831796E+05  0.1519922E+03 -0.2463508E-02 -0.3633499E-03 -0.5687345E+03  0.2515343E+02
  0.8857143E+00  0.1842359E+05  0.1922847E+03  0.1085343E-02 -0.1220703E-03 -0.5375453E+03  0.3257396E+02
  0.9166667E+00  0.1851982E+05  0.2410016E+03 -0.1048695E-02 -0.9207726E-03 -0.5104751E+03  0.4178658E+02
  0.9476191E+00  0.1862174E+05  0.2994504E+03 -0.2817892E-02 -0.1589298E-02 -0.4733034E+03  0.5319168E+02
  0.9785714E+00  0.1872721E+05  0.3690297E+03  0.1684036E-02  0.1250744E-02 -0.4355870E+03  0.6713430E+02
  0.1009524E+01  0.1884102E+05  0.4512969E+03 -0.5894787E-02 -0.2796173E-02 -0.3828599E+03  0.8418117E+02
  0.1040476E+01  0.1897350E+05  0.5479980E+03 -0.2317101E-02 -0.5836487E-03 -0.3256910E+03  0.1047900E+03
  0.1071429E+01  0.1910993E+05  0.6608326E+03 -0.1481120E-02 -0.1230240E-02 -0.2645002E+03  0.1295678E+03
  0.1102381E+01  0.1924681E+05  0.7916254E+03 -0.5896550E-02 -0.3093719E-02 -0.2108889E+03  0.1590056E+03
  0.1133333E+01  0.1937287E+05  0.9422475E+03  0.3473619E-02  0.3789902E-02 -0.1685089E+03  0.1937248E+03
  0.1164286E+01  0.1949048E+05  0.1114551E+04  0.2175547E-02  0.2405167E-02 -0.1225973E+03  0.2346308E+03
  0.1195238E+01  0.1961314E+05  0.1310500E+04  0.0000000E+00  0.5302429E-03 -0.7219935E+02  0.2824381E+03
  0.1226190E+01  0.1973139E+05  0.1531824E+04 -0.6470912E-03  0.1716614E-03 -0.1031667E+02  0.3381601E+03
  0.1257143E+01  0.1984413E+05  0.1780842E+04  0.6068836E-03  0.5645752E-03  0.5340275E+02  0.4025610E+03
  0.1288095E+01  0.1998197E+05  0.2058235E+04  0.9002968E-03  0.2288818E-04  0.1255506E+03  0.4763054E+03
  0.1319048E+01  0.2009929E+05  0.2366743E+04  0.4904847E-02  0.2914429E-02  0.1945461E+03  0.5606039E+03
  0.1350000E+01  0.2021247E+05  0.2707580E+04 -0.1989294E-02 -0.4329681E-02  0.2589490E+03  0.6561500E+03
  0.1380952E+01  0.2031968E+05  0.3082080E+04  0.1237540E-02 -0.8926392E-03  0.3208924E+03  0.7640590E+03
  0.1411905E+01  0.2016681E+05  0.3419181E+04 -0.8429645E-03 -0.9841919E-03  0.2511975E+03  0.8632301E+03
  0.1442857E+01  0.2024133E+05  0.3854737E+04 -0.6556747E-03 -0.2998352E-02  0.3053278E+03  0.9958265E+03
  0.1473810E+01  0.2029875E+05  0.4324362E+04 -0.2526205E-02 -0.4280090E-02  0.3553904E+03  0.1142840E+04
  0.1504762E+01  0.2033726E+05  0.4827933E+04  0.2251154E-02  0.3128052E-03  0.3991569E+03  0.1304530E+04
  0.1535714E+01  0.2035172E+05  0.5363909E+04  0.1410906E-02  0.2304077E-02  0.4460375E+03  0.1482211E+04
  0.1566667E+01  0.2035848E+05  0.5931258E+04  0.1889493E-02  0.2746582E-02  0.4875708E+03  0.1674812E+04
  0.1597619E+01  0.2034646E+05  0.6527885E+04  0.9550956E-04  0.7171631E-03  0.5280672E+03  0.1883579E+04
  0.1628572E+01  0.2031198E+05  0.7152289E+04 -0.8432489E-03 -0.1251221E-02  0.5632880E+03  0.2108550E+04
  0.1659524E+01  0.2026145E+05  0.7801022E+04 -0.1655042E-02  0.1739502E-02  0.5922416E+03  0.2349038E+04
  0.1690476E+01  0.2018829E+05  0.8470254E+04 -0.6137901E-03 -0.6439209E-02  0.6122729E+03  0.2604480E+04
  0.1721429E+01  0.2009360E+05  0.9157848E+04  0.1879174E-02  0.2227783E-02  0.6193475E+03  0.2873501E+04
  0.1752381E+01  0.1997387E+05  0.9857861E+04 -0.1671833E-02 -0.5340576E-03  0.6244844E+03  0.3156632E+04
  0.1783333E+01  0.1983365E+05  0.1056676E+05 -0.2464223E-02 -0.4531860E-02  0.6223997E+03  0.3451892E+04
  0.1814286E+01  0.1967744E+05  0.1128030E+05 -0.8073942E-03 -0.1770020E-02  0.6093749E+03  0.3757363E+04
  0.1845238E+01  0.1950012E+05  0.1199277E+05 -0.6946194E-03 -0.2380371E-02  0.5912896E+03  0.4073038E+04
  0.1876190E+01  0.1930099E+05  0.1270127E+05  0.1366320E-02 -0.1678467E-02  0.5662078E+03  0.4397620E+04
  0.1907143E+01  0.1908718E+05  0.1340002E+05 -0.7680829E-03 -0.4089355E-02  0.5308468E+03  0.4727389E+04
  0.1938095E+01  0.1885476E+05  0.1408432E+05 -0.1637602E-02 -0.8178711E-02  0.4868661E+03  0.5062544E+04
  0.1969048E+01  0.1860979E+05  0.1475172E+05  0.8059298E-03  0.3173828E-02  0.4322228E+03  0.5399987E+04
  0.2000000E+01  0.1835264E+05  0.1539992E+05  0.2319336E-02 -0.6713867E-03  0.3656671E+03  0.5737389E+04
Zone t="Motion of body    1 in DoF   2",I=    64,F=POINT
  0.5000000E-01  0.5569458E-02  0.3039837E-05  0.2984657E+05  0.5610514E+02  0.1564026E-02  0.5841255E-05
  0.8095238E-01 -0.2120523E-02  0.4768372E-06  0.2963921E+05  0.9317747E+02  0.2733118E-02  0.4768372E-05
  0.1119048E+00 -0.1874883E-02  0.2384186E-04  0.2953955E+05  0.1337561E+03  0.1499907E-02  0.4291534E-05
  0.1428571E+00 -0.1174927E-02  0.5245209E-05  0.2949819E+05  0.1794598E+03  0.4646301E-02  0.1621246E-04
  0.1738095E+00 -0.3511612E-02 -0.1883507E-04  0.2953178E+05  0.2324462E+03  0.1580225E-02  0.2717972E-04
  0.2047619E+00 -0.5328156E-02 -0.4768372E-06  0.2960604E+05  0.2952835E+03  0.1006015E-02  0.1621246E-04
  0.2357143E+00  0.1165217E-02 -0.1049042E-04  0.2970032E+05  0.3717190E+03  0.2459902E-02  0.1811981E-04
  0.2666667E+00  0.1859665E-02  0.1430511E-04  0.2986164E+05  0.4652226E+03  0.4291534E-02  0.3433228E-04
  0.2976190E+00  0.2050781E-02  0.4386902E-04  0.3002842E+05  0.5826319E+03  0.3537598E-02  0.5340576E-04
  0.3285715E+00 -0.3157906E-02  0.4291534E-04  0.3021197E+05  0.7286731E+03  0.1904031E-02  0.5912781E-04
  0.3595238E+00  0.4244166E-04  0.4768372E-04  0.3041819E+05  0.9119290E+03  0.1952316E-02  0.7057190E-04
  0.3904762E+00 -0.2540030E-02 -0.2670288E-04  0.3063188E+05  0.1140416E+04  0.2618185E-02  0.1182556E-03
  0.4214286E+00  0.4779363E-02  0.1068115E-03  0.3077518E+05  0.1413281E+04  0.3693144E-02  0.9155273E-04
  0.4523810E+00  0.2023797E-02  0.8773804E-04  0.3091210E+05  0.1745453E+04  0.4182514E-02  0.1144409E-03
  0.4833333E+00 -0.3156991E-04  0.1068115E-03  0.3100089E+05  0.2114594E+04  0.3346410E-02  0.2250671E-03
  0.5142857E+00  0.1008776E-02 -0.1525879E-04  0.3102469E+05  0.2537247E+04  0.4272461E-02  0.1564026E-03
  0.5452381E+00  0.1903018E-02  0.1907349E-04  0.3098592E+05  0.2995740E+04  0.2350786E-02  0.1296997E-03
  0.5761905E+00  0.3230828E-02 -0.1144409E-04  0.3091112E+05  0.3484135E+04  0.2436362E-02  0.2670288E-03
  0.6071429E+00 -0.1407399E-02  0.5340576E-04  0.3080465E+05  0.4012445E+04  0.2513212E-02  0.1068115E-03
  0.6380953E+00 -0.2008694E-02 -0.4501343E-03  0.3066035E+05  0.4558320E+04  0.2773911E-02  0.3967285E-03
  0.6690477E+00 -0.4470119E-02 -0.4806519E-03  0.3046016E+05  0.5132539E+04  0.6112203E-02  0.2365112E-03
  0.7000000E+00  0.3923688E-03  0.2136230E-03  0.3022841E+05  0.5736504E+04  0.1220703E-02  0.2899170E-03
  0.7309524E+00  0.5093552E-02 -0.1144409E-03  0.2999466E+05  0.6357262E+04  0.3674038E-02  0.6713867E-03
  0.7619048E+00 -0.4405975E-02 -0.2212524E-03  0.2973502E+05  0.6998592E+04  0.2603531E-02  0.5645752E-03
  0.7928572E+00  0.2886798E-02 -0.3509521E-03  0.2943789E+05  0.7659513E+04  0.1732079E-02  0.6256104E-03
  0.8238096E+00  0.2778334E-02 -0.4730225E-03  0.2910646E+05  0.8336377E+04  0.2667201E-02  0.5645752E-03
  0.8547620E+00 -0.2642023E-02  0.7629395E-03  0.2874735E+05  0.9025347E+04  0.2642023E-02  0.1129150E-02
  0.8857143E+00 -0.1274847E-02  0.1220703E-03  0.2837681E+05  0.9721981E+04  0.3307712E-02  0.2441406E-03
  0.9166667E+00  0.1598011E-02  0.6866455E-03  0.2799645E+05  0.1042336E+05  0.2530185E-02  0.1068115E-02
  0.9476191E+00  0.1127157E-02 -0.8392334E-03  0.2760082E+05  0.1112716E+05 -0.3220448E-03  0.6713867E-03
  0.9785714E+00 -0.1496921E-02  0.1083374E-02  0.2718448E+05  0.1183157E+05  0.1247434E-02  0.1617432E-02
  0.1009524E+01 -0.6227314E-02 -0.1220703E-03  0.2674717E+05  0.1253457E+05  0.9068904E-03  0.6713867E-03
  0.1040476E+01 -0.1847815E-02  0.9765625E-03  0.2629456E+05  0.1323260E+05  0.1759824E-02  0.3967285E-03
  0.1071429E+01  0.2022298E-02  0.1831055E-03  0.2583114E+05  0.1392224E+05  0.1708984E-02  0.1678467E-02
  0.1102381E+01  0.3737250E-02  0.9155273E-04  0.2536353E+05  0.1459992E+05  0.2768333E-03  0.1220703E-02
  0.1133333E+01  0.4039091E-02 -0.9460449E-03  0.2489387E+05  0.1526319E+05  0.2692728E-02  0.1251221E-02
  0.1164286E+01  0.2699776E-02 -0.1617432E-02  0.2442495E+05  0.1591043E+05  0.2621141E-02  0.1495361E-02
  0.1195238E+01 -0.1480893E-02 -0.1617432E-02  0.2395587E+05  0.1653997E+05  0.1736219E-02  0.5798340E-03
  0.1226190E+01 -0.2961687E-02 -0.6408691E-03  0.2348498E+05  0.1715230E+05  0.1244406E-02  0.1434326E-02
  0.1257143E+01  0.1602173E-02  0.1525879E-03  0.2301540E+05  0.1776279E+05  0.5340576E-03  0.1281738E-02
  0.1288095E+01  0.2606122E-03 -0.3356934E-03  0.2253782E+05  0.1832043E+05  0.4264564E-03  0.2288818E-02
  0.1319048E+01  0.1642661E-02 -0.1037598E-02  0.2206265E+05  0.1887538E+05  0.1573253E-02  0.1556396E-02
  0.1350000E+01 -0.2961335E-02 -0.1983643E-02  0.2159297E+05  0.1940552E+05  0.1401548E-02  0.1525879E-02
  0.1380952E+01 -0.3314840E-03 -0.1403809E-02  0.2113342E+05  0.1990665E+05  0.2917060E-02  0.8544922E-03
  0.1411905E+01  0.1469784E-02  0.1708984E-02  0.2054452E+05  0.2032810E+05  0.1858845E-02  0.1770020E-02
  0.1442857E+01  0.2686151E-02 -0.2227783E-02  0.2010587E+05  0.2078230E+05  0.6345239E-03  0.1647949E-02
  0.1473810E+01  0.9110902E-03  0.2471924E-02  0.1967578E+05  0.2121062E+05  0.2112073E-02  0.1342773E-02
  0.1504762E+01 -0.1237121E-02  0.2136230E-03  0.1925601E+05  0.2161402E+05  0.1703576E-02  0.1098633E-02
  0.1535714E+01  0.2185910E-02  0.3479004E-02  0.1884293E+05  0.2199557E+05  0.1828216E-02  0.2319336E-02
  0.1566667E+01  0.1499906E-02  0.2105713E-02  0.1844151E+05  0.2235049E+05  0.1519386E-02  0.1831055E-02
  0.1597619E+01  0.5730573E-03 -0.6317139E-02  0.1804851E+05  0.2268231E+05  0.7258726E-03  0.1037598E-02
  0.1628572E+01 -0.3747772E-03 -0.3204346E-02  0.1766498E+05  0.2299103E+05  0.1236765E-02  0.1770020E-02
  0.1659524E+01  0.1471149E-02  0.2777100E-02  0.1729279E+05  0.2327387E+05  0.1029804E-02  0.1220703E-02
  0.1690476E+01  0.1010948E-02 -0.1068115E-02  0.1692976E+05  0.2353293E+05  0.1660844E-02  0.1586914E-02
  0.1721429E+01  0.2783305E-02  0.3601074E-02  0.1657951E+05  0.2376730E+05  0.1099139E-02  0.1953125E-02
  0.1752381E+01  0.1358364E-02  0.1953125E-02  0.1623899E+05  0.2398033E+05  0.1114555E-02  0.2075195E-02
  0.1783333E+01 -0.8556330E-04  0.1831055E-02  0.1591062E+05  0.2417032E+05  0.1369013E-02  0.2258301E-02
  0.1814286E+01 -0.6391871E-03 -0.1647949E-02  0.1559447E+05  0.2433590E+05  0.1042884E-02  0.1098633E-02
  0.1845238E+01 -0.7773123E-03 -0.3173828E-02  0.1528852E+05  0.2448091E+05  0.1256930E-02  0.1037598E-02
  0.1876190E+01  0.8620829E-03  0.4211426E-02  0.1499277E+05  0.2460579E+05  0.1203663E-02  0.6713867E-03
  0.1907143E+01  0.4800518E-04  0.2990723E-02  0.1470921E+05  0.2470949E+05  0.6720725E-03  0.6103516E-03
  0.1938095E+01 -0.2330433E-02 -0.1464844E-02  0.1443553E+05  0.2479506E+05  0.3149234E-04  0.1586914E-02
  0.1969048E+01  0.1224393E-02  0.3051758E-03  0.1417299E+05  0.2486072E+05  0.8989217E-03  0.1525879E-02
  0.2000000E+01  0.3433228E-02  0.2868652E-02  0.1392292E+05  0.2490970E+05  0.0000000E+00  0.7934570E-03
Zone t="Motion of body    1 in DoF   3",I=    64,F=POINT
  0.5000000E-01 -0.1085222E+04  0.2935819E-04  0.2746582E-02  0.5452534E-05  0.1405201E+05 -0.3460516E-05
  0.8095238E-01 -0.1113606E+04  0.1547937E-03  0.6632524E-02  0.2178477E-04  0.1412589E+05  0.4031332E-04
  0.1119048E+00 -0.1153348E+04  0.4015178E-03  0.4448586E-02  0.1858604E-04  0.1409996E+05  0.6600581E-04
  0.1428571E+00 -0.1122780E+04  0.9318385E-03  0.3217697E-02  0.2033443E-04  0.1413724E+05  0.1292226E-03
  0.1738095E+00 -0.1146256E+04  0.1892152E-02  0.3193372E-02  0.2411479E-04  0.1410339E+05  0.1529991E-03
  0.2047619E+00 -0.1104320E+04  0.3502388E-02  0.1862992E-03 -0.1145945E-05  0.1415633E+05  0.3365634E-03
  0.2357143E+00 -0.1123701E+04  0.6230713E-02 -0.5178740E-03 -0.1117021E-04  0.1411266E+05  0.6811334E-03
  0.2666667E+00 -0.1128355E+04  0.1078205E-01  0.3905296E-02  0.6547525E-04  0.1411355E+05  0.1224066E-02
  0.2976190E+00 -0.1079584E+04  0.1836367E-01  0.6588135E-02  0.1266769E-03  0.1416738E+05  0.2142303E-02
  0.3285715E+00 -0.1090530E+04  0.3092573E-01  0.3459764E-02  0.8641358E-04  0.1412923E+05  0.3687413E-02
  0.3595238E+00 -0.1104763E+04  0.5167526E-01  0.4509427E-02  0.1332954E-03  0.1410963E+05  0.6141358E-02
  0.3904762E+00 -0.1067934E+04  0.8583420E-01  0.5031213E-02  0.1769852E-03  0.1415341E+05  0.1025190E-01
  0.4214286E+00 -0.1032029E+04  0.1407629E+00  0.2262956E-02  0.7271743E-04  0.1417470E+05  0.1718319E-01
  0.4523810E+00 -0.1057201E+04  0.2290583E+00  0.2124987E-02  0.1326541E-03  0.1412126E+05  0.2846309E-01
  0.4833333E+00 -0.1054698E+04  0.3643821E+00  0.5950928E-02  0.3707083E-03  0.1412888E+05  0.4583073E-01
  0.5142857E+00 -0.9940096E+03  0.5701175E+00  0.1498328E-02  0.1428500E-03  0.1419634E+05  0.7332009E-01
  0.5452381E+00 -0.9658790E+03  0.8723239E+00  0.3218339E-03 -0.1184363E-04  0.1420191E+05  0.1150596E+00
  0.5761905E+00 -0.9720917E+03  0.1304669E+01  0.7865211E-02  0.8651018E-03  0.1417336E+05  0.1756544E+00
  0.6071429E+00 -0.9463175E+03  0.1914217E+01  0.4523782E-03  0.1560897E-05  0.1421078E+05  0.2640742E+00
  0.6380953E+00 -0.9174764E+03  0.2750187E+01  0.5380431E-03  0.5918369E-04  0.1423238E+05  0.3864898E+00
  0.6690477E+00 -0.8858278E+03  0.3888170E+01  0.7845515E-02  0.1307726E-02  0.1424312E+05  0.5590675E+00
  0.7000000E+00 -0.8586520E+03  0.5417479E+01  0.2179827E-03  0.1320988E-04  0.1424765E+05  0.7987816E+00
  0.7309524E+00 -0.8576083E+03  0.7439058E+01  0.3945415E-02  0.7919222E-03  0.1422845E+05  0.1119166E+01
  0.7619048E+00 -0.8368565E+03  0.1007257E+02  0.4996776E-02  0.1205251E-02  0.1424670E+05  0.1548519E+01
  0.7928572E+00 -0.7956202E+03  0.1347483E+02  0.4811329E-03  0.7180870E-04  0.1428129E+05  0.2120292E+01
  0.8238096E+00 -0.7465124E+03  0.1783880E+02  0.1222467E-02  0.2636909E-03  0.1430872E+05  0.2877704E+01
  0.8547620E+00 -0.7149393E+03  0.2338415E+02  0.1945814E-02  0.3128350E-03  0.1431088E+05  0.3865247E+01
  0.8857143E+00 -0.6891951E+03  0.3037690E+02 -0.4134639E-03 -0.3516078E-03  0.1430546E+05  0.5147987E+01
  0.9166667E+00 -0.6636252E+03  0.3909836E+02  0.3012917E-02  0.9569526E-03  0.1430834E+05  0.6792853E+01
  0.9476191E+00 -0.6244034E+03  0.4985059E+02  0.2560256E-02  0.8575320E-03  0.1433307E+05  0.8868461E+01
  0.9785714E+00 -0.5854587E+03  0.6301574E+02  0.4553134E-02  0.1874804E-02  0.1435956E+05  0.1145892E+02
  0.1009524E+01 -0.5338977E+03  0.7902056E+02 -0.5894787E-03 -0.6308556E-03  0.1438948E+05  0.1470573E+02
  0.1040476E+01 -0.4787642E+03  0.9842926E+02  0.2830383E-02  0.1482010E-02  0.1441525E+05  0.1876280E+02
  0.1071429E+01 -0.4207761E+03  0.1217581E+03  0.6693522E-03  0.2455711E-03  0.1444104E+05  0.2381035E+02
  0.1102381E+01 -0.3722766E+03  0.1497651E+03 -0.2007042E-02 -0.1904011E-02  0.1444561E+05  0.3005792E+02
  0.1133333E+01 -0.3337961E+03  0.1830991E+03  0.2423455E-02  0.9617805E-03  0.1444822E+05  0.3771674E+02
  0.1164286E+01 -0.2891582E+03  0.2222616E+03  0.7011554E-02  0.5714417E-02  0.1446477E+05  0.4693483E+02
  0.1195238E+01 -0.2377174E+03  0.2680172E+03  0.1059604E-02  0.7357597E-03  0.1449186E+05  0.5787487E+02
  0.1226190E+01 -0.1748415E+03  0.3208276E+03  0.4790964E-02  0.3800392E-02  0.1453639E+05  0.7078515E+02
  0.1257143E+01 -0.1110638E+03  0.3822121E+03 -0.1662861E-02 -0.1979351E-02  0.1457497E+05  0.8612910E+02
  0.1288095E+01 -0.4159951E+02  0.4522473E+03  0.2843042E-03 -0.7858276E-03  0.1460796E+05  0.1041447E+03
  0.1319048E+01  0.2430553E+02  0.5326270E+03  0.1179939E-02  0.1379013E-02  0.1463875E+05  0.1255024E+03
  0.1350000E+01  0.8459972E+02  0.6242885E+03 -0.6781684E-04 -0.7257462E-03  0.1466296E+05  0.1506526E+03
  0.1380952E+01  0.1433884E+03  0.7284720E+03  0.1259639E-02  0.9441376E-03  0.1468249E+05  0.1802286E+03
  0.1411905E+01 -0.2323577E+03  0.7382054E+03  0.2096604E-02  0.1811028E-02  0.1447591E+05  0.1866389E+03
  0.1442857E+01 -0.1813992E+03  0.8554069E+03  0.1660338E-02  0.1232147E-02  0.1450186E+05  0.2220675E+03
  0.1473810E+01 -0.1327043E+03  0.9858919E+03  0.1863594E-02  0.1382828E-02  0.1452533E+05  0.2621679E+03
  0.1504762E+01 -0.8947699E+02  0.1129536E+04  0.2859574E-02  0.3417969E-02  0.1455707E+05  0.3070866E+03
  0.1535714E+01 -0.4433270E+02  0.1286443E+04  0.1271802E-02  0.1073837E-02  0.1459011E+05  0.3571678E+03
  0.1566667E+01 -0.2909526E+01  0.1458038E+04  0.1071362E-02  0.9498596E-03  0.1462387E+05  0.4129673E+03
  0.1597619E+01  0.3763889E+02  0.1644901E+04  0.2024803E-02  0.3833771E-02  0.1465278E+05  0.4754369E+03
  0.1628572E+01  0.7281693E+02  0.1846299E+04  0.7495545E-04 -0.2079010E-02  0.1468309E+05  0.5450479E+03
  0.1659524E+01  0.1032389E+03  0.2062843E+04  0.1011415E-02  0.1022339E-02  0.1471289E+05  0.6221103E+03
  0.1690476E+01  0.1241250E+03  0.2294953E+04  0.5415795E-03 -0.2170563E-02  0.1472651E+05  0.7062285E+03
  0.1721429E+01  0.1328992E+03  0.2540500E+04  0.1418244E-03  0.6484985E-04  0.1474159E+05  0.7972428E+03
  0.1752381E+01  0.1392189E+03  0.2797317E+04  0.2873462E-02  0.5729675E-02  0.1475801E+05  0.8945355E+03
  0.1783333E+01  0.1391823E+03  0.3064911E+04  0.4620418E-03 -0.6561279E-03  0.1477723E+05  0.9989479E+03
  0.1814286E+01  0.1310601E+03  0.3344485E+04  0.2523107E-02  0.4257202E-02  0.1479342E+05  0.1110402E+04
  0.1845238E+01  0.1189206E+03  0.3633229E+04  0.1075006E-02  0.1068115E-03  0.1481022E+05  0.1229411E+04
  0.1876190E+01  0.9964271E+02  0.3927754E+04  0.9596772E-03 -0.4493713E-02  0.1482933E+05  0.1354365E+04
  0.1907143E+01  0.7215899E+02  0.4229042E+04  0.5440587E-03 -0.1762390E-02  0.1484639E+05  0.1485366E+04
  0.1938095E+01  0.3546258E+02  0.4537387E+04  0.2598118E-02  0.3005981E-02  0.1485124E+05  0.1622390E+04
  0.1969048E+01 -0.1075330E+02  0.4850826E+04  0.4339622E-03 -0.3723145E-02  0.1484991E+05  0.1764409E+04
  0.2000000E+01 -0.6860190E+02  0.5165727E+04  0.4272461E-03 -0.3631592E-02  0.1484953E+05  0.1913169E+04
