VARIABLES="w (rad/s)"
"abs(F   1   1)" "angle(F   1   1)"
"abs(F   1   2)" "angle(F   1   2)"
"abs(F   1   3)" "angle(F   1   3)"
Zone t="Diffraction force - beta =   0.000 deg",I=    64,F=POINT
  0.5000000E-01  0.2805824E+03 -0.1570796E+01  0.2774109E+02 -0.3104447E+01  0.2845919E+03  0.1570797E+01
  0.8095238E-01  0.4594846E+03 -0.1570796E+01  0.7232710E+02 -0.3103280E+01  0.4670781E+03  0.1570797E+01
  0.1119048E+00  0.6426082E+03 -0.1570795E+01  0.1377617E+03 -0.3101674E+01  0.6531424E+03  0.1570798E+01
  0.1428571E+00  0.8313929E+03 -0.1570793E+01  0.2244636E+03 -0.3099618E+01  0.8447686E+03  0.1570799E+01
  0.1738095E+00  0.1029697E+04 -0.1570791E+01  0.3324753E+03 -0.3096923E+01  0.1043582E+04  0.1570801E+01
  0.2047619E+00  0.1237006E+04 -0.1570789E+01  0.4629429E+03 -0.3093566E+01  0.1252725E+04  0.1570803E+01
  0.2357143E+00  0.1458196E+04 -0.1570784E+01  0.6159695E+03 -0.3089261E+01  0.1472852E+04  0.1570807E+01
  0.2666667E+00  0.1696462E+04 -0.1570778E+01  0.7923297E+03 -0.3083961E+01  0.1710410E+04  0.1570812E+01
  0.2976190E+00  0.1950377E+04 -0.1570769E+01  0.9934355E+03 -0.3077301E+01  0.1965746E+04  0.1570820E+01
  0.3285715E+00  0.2234457E+04 -0.1570756E+01  0.1220245E+04 -0.3069266E+01  0.2243029E+04  0.1570832E+01
  0.3595238E+00  0.2544539E+04 -0.1570736E+01  0.1471172E+04 -0.3059353E+01  0.2547817E+04  0.1570849E+01
  0.3904762E+00  0.2883545E+04 -0.1570706E+01  0.1749746E+04 -0.3047573E+01  0.2883846E+04  0.1570876E+01
  0.4214286E+00  0.3258175E+04 -0.1570661E+01  0.2053390E+04 -0.3034266E+01  0.3251255E+04  0.1570915E+01
  0.4523810E+00  0.3681652E+04 -0.1570596E+01  0.2382533E+04 -0.3018735E+01  0.3651915E+04  0.1570973E+01
  0.4833333E+00  0.4137623E+04 -0.1570505E+01  0.2732635E+04 -0.3002653E+01  0.4091024E+04  0.1571054E+01
  0.5142857E+00  0.4626562E+04 -0.1570377E+01  0.3107702E+04 -0.2985248E+01  0.4563259E+04  0.1571166E+01
  0.5452381E+00  0.5155538E+04 -0.1570206E+01  0.3504992E+04 -0.2967621E+01  0.5066289E+04  0.1571316E+01
  0.5761905E+00  0.5720218E+04 -0.1569982E+01  0.3919208E+04 -0.2949814E+01  0.5595604E+04  0.1571513E+01
  0.6071429E+00  0.6317969E+04 -0.1569691E+01  0.4352685E+04 -0.2931368E+01  0.6147880E+04  0.1571769E+01
  0.6380953E+00  0.6934825E+04 -0.1569323E+01  0.4809898E+04 -0.2913693E+01  0.6725773E+04  0.1572091E+01
  0.6690477E+00  0.7571255E+04 -0.1568862E+01  0.5286409E+04 -0.2895935E+01  0.7319731E+04  0.1572493E+01
  0.7000000E+00  0.8243328E+04 -0.1568292E+01  0.5777610E+04 -0.2877723E+01  0.7922013E+04  0.1572992E+01
  0.7309524E+00  0.8947555E+04 -0.1567599E+01  0.6285876E+04 -0.2859726E+01  0.8551448E+04  0.1573598E+01
  0.7619048E+00  0.9664278E+04 -0.1566758E+01  0.6808917E+04 -0.2841651E+01  0.9187618E+04  0.1574332E+01
  0.7928572E+00  0.1039894E+05 -0.1565749E+01  0.7349165E+04 -0.2823655E+01  0.9834144E+04  0.1575211E+01
  0.8238096E+00  0.1115229E+05 -0.1564548E+01  0.7906049E+04 -0.2805822E+01  0.1049496E+05  0.1576252E+01
  0.8547620E+00  0.1191617E+05 -0.1563131E+01  0.8473774E+04 -0.2787949E+01  0.1115350E+05  0.1577481E+01
  0.8857143E+00  0.1271416E+05 -0.1561479E+01  0.9051702E+04 -0.2770103E+01  0.1182405E+05  0.1578914E+01
  0.9166667E+00  0.1353225E+05 -0.1559563E+01  0.9637347E+04 -0.2752250E+01  0.1249522E+05  0.1580577E+01
  0.9476191E+00  0.1437699E+05 -0.1557358E+01  0.1023107E+05 -0.2734527E+01  0.1317777E+05  0.1582487E+01
  0.9785714E+00  0.1521987E+05 -0.1554821E+01  0.1083324E+05 -0.2717026E+01  0.1386078E+05  0.1584674E+01
  0.1009524E+01  0.1606004E+05 -0.1551920E+01  0.1144297E+05 -0.2699767E+01  0.1453619E+05  0.1587165E+01
  0.1040476E+01  0.1691146E+05 -0.1548633E+01  0.1205959E+05 -0.2682804E+01  0.1521284E+05  0.1589976E+01
  0.1071429E+01  0.1778346E+05 -0.1544943E+01  0.1268001E+05 -0.2666034E+01  0.1587217E+05  0.1593141E+01
  0.1102381E+01  0.1868083E+05 -0.1540829E+01  0.1330062E+05 -0.2649386E+01  0.1653891E+05  0.1596665E+01
  0.1133333E+01  0.1957760E+05 -0.1536236E+01  0.1391878E+05 -0.2632787E+01  0.1719153E+05  0.1600590E+01
  0.1164286E+01  0.2047685E+05 -0.1531140E+01  0.1453553E+05 -0.2616376E+01  0.1783291E+05  0.1604935E+01
  0.1195238E+01  0.2138539E+05 -0.1525523E+01  0.1515136E+05 -0.2600299E+01  0.1847217E+05  0.1609706E+01
  0.1226190E+01  0.2228656E+05 -0.1519342E+01  0.1576729E+05 -0.2584650E+01  0.1908053E+05  0.1614948E+01
  0.1257143E+01  0.2316742E+05 -0.1512559E+01  0.1638499E+05 -0.2568969E+01  0.1967181E+05  0.1620659E+01
  0.1288095E+01  0.2406147E+05 -0.1505186E+01  0.1699298E+05 -0.2554548E+01  0.2026598E+05  0.1626836E+01
  0.1319048E+01  0.2491220E+05 -0.1497143E+01  0.1759706E+05 -0.2539810E+01  0.2080429E+05  0.1633546E+01
  0.1350000E+01  0.2576435E+05 -0.1488486E+01  0.1819651E+05 -0.2525471E+01  0.2132540E+05  0.1640753E+01
  0.1380952E+01  0.2661438E+05 -0.1479215E+01  0.1878714E+05 -0.2511397E+01  0.2182176E+05  0.1648460E+01
  0.1411905E+01  0.2722778E+05 -0.1469766E+01  0.1927638E+05 -0.2496740E+01  0.2222092E+05  0.1656021E+01
  0.1442857E+01  0.2803790E+05 -0.1459273E+01  0.1984306E+05 -0.2483043E+01  0.2264774E+05  0.1664670E+01
  0.1473810E+01  0.2881637E+05 -0.1448110E+01  0.2039870E+05 -0.2469624E+01  0.2305235E+05  0.1673789E+01
  0.1504762E+01  0.2954511E+05 -0.1436242E+01  0.2094289E+05 -0.2456471E+01  0.2340771E+05  0.1683408E+01
  0.1535714E+01  0.3021964E+05 -0.1423671E+01  0.2147539E+05 -0.2443667E+01  0.2370310E+05  0.1693523E+01
  0.1566667E+01  0.3085655E+05 -0.1410457E+01  0.2199969E+05 -0.2431487E+01  0.2397463E+05  0.1704027E+01
  0.1597619E+01  0.3143338E+05 -0.1396576E+01  0.2251151E+05 -0.2419655E+01  0.2419152E+05  0.1714931E+01
  0.1628572E+01  0.3194370E+05 -0.1382056E+01  0.2301084E+05 -0.2408189E+01  0.2434296E+05  0.1726222E+01
  0.1659524E+01  0.3240381E+05 -0.1367035E+01  0.2349779E+05 -0.2397155E+01  0.2444501E+05  0.1737787E+01
  0.1690476E+01  0.3280924E+05 -0.1351543E+01  0.2397047E+05 -0.2386452E+01  0.2450701E+05  0.1749561E+01
  0.1721429E+01  0.3313099E+05 -0.1335496E+01  0.2442723E+05 -0.2375808E+01  0.2451217E+05  0.1761588E+01
  0.1752381E+01  0.3337227E+05 -0.1319017E+01  0.2486480E+05 -0.2365291E+01  0.2443874E+05  0.1773785E+01
  0.1783333E+01  0.3354155E+05 -0.1302155E+01  0.2528739E+05 -0.2355129E+01  0.2432145E+05  0.1786042E+01
  0.1814286E+01  0.3363841E+05 -0.1284975E+01  0.2569363E+05 -0.2345333E+01  0.2417073E+05  0.1798226E+01
  0.1845238E+01  0.3364184E+05 -0.1267492E+01  0.2608144E+05 -0.2335770E+01  0.2395253E+05  0.1810317E+01
  0.1876190E+01  0.3355140E+05 -0.1249792E+01  0.2645094E+05 -0.2326524E+01  0.2366674E+05  0.1822237E+01
  0.1907143E+01  0.3338040E+05 -0.1232056E+01  0.2680369E+05 -0.2317822E+01  0.2333342E+05  0.1833809E+01
  0.1938095E+01  0.3312636E+05 -0.1214374E+01  0.2713787E+05 -0.2309503E+01  0.2295689E+05  0.1844910E+01
  0.1969048E+01  0.3277073E+05 -0.1196598E+01  0.2745507E+05 -0.2301395E+01  0.2253522E+05  0.1855585E+01
  0.2000000E+01  0.3232087E+05 -0.1178931E+01  0.2775418E+05 -0.2293480E+01  0.2206170E+05  0.1865678E+01
