VARIABLES="w (rad/s)"
"abs(F   1   1)" "angle(F   1   1)"
"abs(F   1   2)" "angle(F   1   2)"
"abs(F   1   3)" "angle(F   1   3)"
Zone t="Diffraction force - beta =   0.000 deg",I=    64,F=POINT
  0.5000000E-01  0.1826070E+04 -0.1570793E+01  0.5041468E+03 -0.3076197E+01  0.4164071E+02 -0.1570794E+01
  0.8095238E-01  0.2981231E+04 -0.1570787E+01  0.1300297E+04 -0.3073586E+01  0.6757913E+02 -0.1570787E+01
  0.1119048E+00  0.4165099E+04 -0.1570778E+01  0.2463015E+04 -0.3070615E+01  0.9373817E+02 -0.1570776E+01
  0.1428571E+00  0.5371687E+04 -0.1570765E+01  0.3993706E+04 -0.3066970E+01  0.1219559E+03 -0.1570760E+01
  0.1738095E+00  0.6654083E+04 -0.1570745E+01  0.5898751E+04 -0.3062468E+01  0.1518592E+03 -0.1570735E+01
  0.2047619E+00  0.7984690E+04 -0.1570716E+01  0.8190110E+04 -0.3056921E+01  0.1841970E+03 -0.1570698E+01
  0.2357143E+00  0.9399908E+04 -0.1570673E+01  0.1087316E+05 -0.3049944E+01  0.2175129E+03 -0.1570645E+01
  0.2666667E+00  0.1094396E+05 -0.1570612E+01  0.1396284E+05 -0.3041560E+01  0.2566761E+03 -0.1570567E+01
  0.2976190E+00  0.1257511E+05 -0.1570520E+01  0.1746619E+05 -0.3031031E+01  0.2992472E+03 -0.1570454E+01
  0.3285715E+00  0.1438066E+05 -0.1570384E+01  0.2140114E+05 -0.3018583E+01  0.3450927E+03 -0.1570281E+01
  0.3595238E+00  0.1639671E+05 -0.1570181E+01  0.2573831E+05 -0.3003415E+01  0.4048467E+03 -0.1570036E+01
  0.3904762E+00  0.1857985E+05 -0.1569878E+01  0.3051659E+05 -0.2985685E+01  0.4606915E+03 -0.1569651E+01
  0.4214286E+00  0.2095671E+05 -0.1569434E+01  0.3561551E+05 -0.2965776E+01  0.5254525E+03 -0.1569094E+01
  0.4523810E+00  0.2366612E+05 -0.1568788E+01  0.4110152E+05 -0.2942908E+01  0.6074121E+03 -0.1568309E+01
  0.4833333E+00  0.2662747E+05 -0.1567898E+01  0.4680011E+05 -0.2919799E+01  0.7003043E+03 -0.1567232E+01
  0.5142857E+00  0.2973773E+05 -0.1566657E+01  0.5273878E+05 -0.2894820E+01  0.7893168E+03 -0.1565690E+01
  0.5452381E+00  0.3307650E+05 -0.1565011E+01  0.5887499E+05 -0.2870126E+01  0.8883334E+03 -0.1563648E+01
  0.5761905E+00  0.3671125E+05 -0.1562895E+01  0.6511128E+05 -0.2845836E+01  0.1015538E+04 -0.1561141E+01
  0.6071429E+00  0.4058870E+05 -0.1560189E+01  0.7144863E+05 -0.2820916E+01  0.1156833E+04 -0.1557977E+01
  0.6380953E+00  0.4451420E+05 -0.1556810E+01  0.7790380E+05 -0.2797790E+01  0.1282363E+04 -0.1553832E+01
  0.6690477E+00  0.4849289E+05 -0.1552618E+01  0.8439625E+05 -0.2774947E+01  0.1421769E+04 -0.1548772E+01
  0.7000000E+00  0.5276157E+05 -0.1547554E+01  0.9089587E+05 -0.2752039E+01  0.1587336E+04 -0.1542848E+01
  0.7309524E+00  0.5723180E+05 -0.1541535E+01  0.9741009E+05 -0.2730214E+01  0.1760679E+04 -0.1535759E+01
  0.7619048E+00  0.6178687E+05 -0.1534387E+01  0.1038600E+06 -0.2708757E+01  0.1962197E+04 -0.1527652E+01
  0.7928572E+00  0.6637703E+05 -0.1525965E+01  0.1102416E+06 -0.2687769E+01  0.2161901E+04 -0.1517946E+01
  0.8238096E+00  0.7086816E+05 -0.1516086E+01  0.1165367E+06 -0.2667359E+01  0.2336930E+04 -0.1506018E+01
  0.8547620E+00  0.7542701E+05 -0.1504768E+01  0.1227270E+06 -0.2647614E+01  0.2541568E+04 -0.1492831E+01
  0.8857143E+00  0.8009842E+05 -0.1491984E+01  0.1287625E+06 -0.2628402E+01  0.2782701E+04 -0.1478601E+01
  0.9166667E+00  0.8482546E+05 -0.1477657E+01  0.1346358E+06 -0.2609885E+01  0.3037088E+04 -0.1462689E+01
  0.9476191E+00  0.8944505E+05 -0.1461620E+01  0.1402767E+06 -0.2591748E+01  0.3287360E+04 -0.1444691E+01
  0.9785714E+00  0.9386704E+05 -0.1443747E+01  0.1456857E+06 -0.2574152E+01  0.3536987E+04 -0.1424530E+01
  0.1009524E+01  0.9790794E+05 -0.1423839E+01  0.1508556E+06 -0.2557135E+01  0.3776593E+04 -0.1401817E+01
  0.1040476E+01  0.1016163E+06 -0.1401966E+01  0.1558009E+06 -0.2540969E+01  0.4019071E+04 -0.1377128E+01
  0.1071429E+01  0.1050472E+06 -0.1378430E+01  0.1604896E+06 -0.2525469E+01  0.4253777E+04 -0.1350579E+01
  0.1102381E+01  0.1080954E+06 -0.1353259E+01  0.1648941E+06 -0.2510507E+01  0.4476426E+04 -0.1322271E+01
  0.1133333E+01  0.1106836E+06 -0.1326496E+01  0.1689782E+06 -0.2495940E+01  0.4698804E+04 -0.1292273E+01
  0.1164286E+01  0.1126493E+06 -0.1298028E+01  0.1727605E+06 -0.2481990E+01  0.4916004E+04 -0.1260866E+01
  0.1195238E+01  0.1139783E+06 -0.1268037E+01  0.1762309E+06 -0.2468720E+01  0.5122451E+04 -0.1228379E+01
  0.1226190E+01  0.1146098E+06 -0.1236843E+01  0.1793869E+06 -0.2456169E+01  0.5288757E+04 -0.1194234E+01
  0.1257143E+01  0.1144314E+06 -0.1204249E+01  0.1822356E+06 -0.2443883E+01  0.5399730E+04 -0.1157522E+01
  0.1288095E+01  0.1134753E+06 -0.1171420E+01  0.1846682E+06 -0.2432457E+01  0.5475222E+04 -0.1120292E+01
  0.1319048E+01  0.1116372E+06 -0.1137418E+01  0.1867788E+06 -0.2421206E+01  0.5522881E+04 -0.1081993E+01
  0.1350000E+01  0.1089242E+06 -0.1102767E+01  0.1885533E+06 -0.2410629E+01  0.5537116E+04 -0.1044115E+01
  0.1380952E+01  0.1053772E+06 -0.1067999E+01  0.1899765E+06 -0.2400837E+01  0.5514000E+04 -0.1006982E+01
  0.1411905E+01  0.1003695E+06 -0.1033055E+01  0.1908560E+06 -0.2391021E+01  0.5335685E+04 -0.9636063E+00
  0.1442857E+01  0.9513904E+05 -0.9978238E+00  0.1915641E+06 -0.2382186E+01  0.5180826E+04 -0.9233560E+00
  0.1473810E+01  0.8909486E+05 -0.9623318E+00  0.1919229E+06 -0.2373841E+01  0.4960056E+04 -0.8814037E+00
  0.1504762E+01  0.8231955E+05 -0.9268604E+00  0.1919252E+06 -0.2365977E+01  0.4694147E+04 -0.8402081E+00
  0.1535714E+01  0.7484038E+05 -0.8909906E+00  0.1915746E+06 -0.2358522E+01  0.4382357E+04 -0.8002588E+00
  0.1566667E+01  0.6673269E+05 -0.8543926E+00  0.1908885E+06 -0.2351665E+01  0.4013879E+04 -0.7590187E+00
  0.1597619E+01  0.5807882E+05 -0.8165595E+00  0.1898523E+06 -0.2345449E+01  0.3589899E+04 -0.7156478E+00
  0.1628572E+01  0.4895864E+05 -0.7762064E+00  0.1884634E+06 -0.2339887E+01  0.3102056E+04 -0.6660520E+00
  0.1659524E+01  0.3943447E+05 -0.7302549E+00  0.1867290E+06 -0.2334863E+01  0.2552657E+04 -0.6068243E+00
  0.1690476E+01  0.2958245E+05 -0.6716375E+00  0.1846781E+06 -0.2330315E+01  0.1942058E+04 -0.5227467E+00
  0.1721429E+01  0.1952379E+05 -0.5788870E+00  0.1823029E+06 -0.2326352E+01  0.1301495E+04 -0.3830257E+00
  0.1752381E+01  0.9557115E+04 -0.3395465E+00  0.1796079E+06 -0.2322699E+01  0.6771733E+03 -0.2377354E-01
  0.1783333E+01  0.4247035E+04  0.1273805E+01  0.1766055E+06 -0.2319762E+01  0.4557908E+03  0.1376708E+01
  0.1814286E+01  0.1299329E+05  0.2129753E+01  0.1733046E+06 -0.2317509E+01  0.1053250E+04  0.2124222E+01
  0.1845238E+01  0.2336022E+05  0.2285025E+01  0.1696984E+06 -0.2316127E+01  0.1832353E+04  0.2319869E+01
  0.1876190E+01  0.3385077E+05  0.2355350E+01  0.1657953E+06 -0.2315505E+01  0.2673557E+04  0.2412078E+01
  0.1907143E+01  0.4429570E+05  0.2399896E+01  0.1615982E+06 -0.2315743E+01  0.3557585E+04  0.2470269E+01
  0.1938095E+01  0.5460713E+05  0.2433285E+01  0.1571385E+06 -0.2316737E+01  0.4485499E+04  0.2512131E+01
  0.1969048E+01  0.6473829E+05  0.2460270E+01  0.1524246E+06 -0.2318562E+01  0.5437481E+04  0.2545535E+01
  0.2000000E+01  0.7462098E+05  0.2483285E+01  0.1474563E+06 -0.2321378E+01  0.6405306E+04  0.2574945E+01
