VARIABLES="w (rad/s)"
"abs(F   1   1)" "angle(F   1   1)"
"abs(F   1   2)" "angle(F   1   2)"
"abs(F   1   3)" "angle(F   1   3)"
Zone t="Diffraction force - beta =   0.000 deg",I=    64,F=POINT
  0.5000000E-01  0.1097003E+04 -0.1570794E+01  0.2379419E+03 -0.3103192E+01  0.1321750E+04  0.1570797E+01
  0.8095238E-01  0.1793100E+04 -0.1570791E+01  0.6186649E+03 -0.3101980E+01  0.2157834E+04  0.1570799E+01
  0.1119048E+00  0.2502104E+04 -0.1570786E+01  0.1174824E+04 -0.3100358E+01  0.3014362E+04  0.1570802E+01
  0.1428571E+00  0.3248125E+04 -0.1570778E+01  0.1908942E+04 -0.3098330E+01  0.3915201E+04  0.1570807E+01
  0.1738095E+00  0.4018082E+04 -0.1570767E+01  0.2816482E+04 -0.3095675E+01  0.4851729E+04  0.1570814E+01
  0.2047619E+00  0.4844172E+04 -0.1570751E+01  0.3904947E+04 -0.3092384E+01  0.5852937E+04  0.1570824E+01
  0.2357143E+00  0.5702053E+04 -0.1570727E+01  0.5182257E+04 -0.3088312E+01  0.6908930E+04  0.1570839E+01
  0.2666667E+00  0.6648611E+04 -0.1570692E+01  0.6623784E+04 -0.3083162E+01  0.8071230E+04  0.1570860E+01
  0.2976190E+00  0.7677634E+04 -0.1570640E+01  0.8270147E+04 -0.3076888E+01  0.9336672E+04  0.1570891E+01
  0.3285715E+00  0.8798345E+04 -0.1570562E+01  0.1006905E+05 -0.3069126E+01  0.1072307E+05  0.1570939E+01
  0.3595238E+00  0.1003208E+05 -0.1570446E+01  0.1207566E+05 -0.3059952E+01  0.1226802E+05  0.1571010E+01
  0.3904762E+00  0.1144621E+05 -0.1570274E+01  0.1421459E+05 -0.3048775E+01  0.1401276E+05  0.1571116E+01
  0.4214286E+00  0.1297227E+05 -0.1570019E+01  0.1652372E+05 -0.3036489E+01  0.1593309E+05  0.1571272E+01
  0.4523810E+00  0.1463258E+05 -0.1569645E+01  0.1895571E+05 -0.3022052E+01  0.1801988E+05  0.1571503E+01
  0.4833333E+00  0.1654432E+05 -0.1569131E+01  0.2148271E+05 -0.3007501E+01  0.2044573E+05  0.1571821E+01
  0.5142857E+00  0.1860613E+05 -0.1568416E+01  0.2413794E+05 -0.2991983E+01  0.2304904E+05  0.1572266E+01
  0.5452381E+00  0.2082264E+05 -0.1567463E+01  0.2678529E+05 -0.2975975E+01  0.2587868E+05  0.1572862E+01
  0.5761905E+00  0.2309807E+05 -0.1566211E+01  0.2955362E+05 -0.2960835E+01  0.2883741E+05  0.1573642E+01
  0.6071429E+00  0.2564935E+05 -0.1564615E+01  0.3229607E+05 -0.2944808E+01  0.3205751E+05  0.1574649E+01
  0.6380953E+00  0.2839098E+05 -0.1562636E+01  0.3506325E+05 -0.2929793E+01  0.3560777E+05  0.1575904E+01
  0.6690477E+00  0.3116101E+05 -0.1560157E+01  0.3791341E+05 -0.2915542E+01  0.3921447E+05  0.1577479E+01
  0.7000000E+00  0.3401982E+05 -0.1557099E+01  0.4065152E+05 -0.2900501E+01  0.4289261E+05  0.1579435E+01
  0.7309524E+00  0.3703784E+05 -0.1553426E+01  0.4337722E+05 -0.2886078E+01  0.4693020E+05  0.1581786E+01
  0.7619048E+00  0.4026491E+05 -0.1549068E+01  0.4612703E+05 -0.2872447E+01  0.5114393E+05  0.1584599E+01
  0.7928572E+00  0.4362113E+05 -0.1543906E+01  0.4883295E+05 -0.2859206E+01  0.5555180E+05  0.1587959E+01
  0.8238096E+00  0.4712238E+05 -0.1537860E+01  0.5133371E+05 -0.2845214E+01  0.6008292E+05  0.1591936E+01
  0.8547620E+00  0.5064164E+05 -0.1530782E+01  0.5382378E+05 -0.2832081E+01  0.6482234E+05  0.1596592E+01
  0.8857143E+00  0.5415196E+05 -0.1522553E+01  0.5628863E+05 -0.2819881E+01  0.6957433E+05  0.1602021E+01
  0.9166667E+00  0.5773804E+05 -0.1513145E+01  0.5864841E+05 -0.2808129E+01  0.7444541E+05  0.1608252E+01
  0.9476191E+00  0.6161646E+05 -0.1502695E+01  0.6073312E+05 -0.2795505E+01  0.7953031E+05  0.1615241E+01
  0.9785714E+00  0.6561862E+05 -0.1490992E+01  0.6275233E+05 -0.2783662E+01  0.8497366E+05  0.1623108E+01
  0.1009524E+01  0.6953597E+05 -0.1477794E+01  0.6468575E+05 -0.2772763E+01  0.9024747E+05  0.1632042E+01
  0.1040476E+01  0.7341692E+05 -0.1463047E+01  0.6657862E+05 -0.2763168E+01  0.9568460E+05  0.1642046E+01
  0.1071429E+01  0.7723268E+05 -0.1446717E+01  0.6809441E+05 -0.2752239E+01  0.1008264E+06  0.1653229E+01
  0.1102381E+01  0.8105030E+05 -0.1428834E+01  0.6947961E+05 -0.2741722E+01  0.1062008E+06  0.1665483E+01
  0.1133333E+01  0.8464695E+05 -0.1409223E+01  0.7074795E+05 -0.2731882E+01  0.1114402E+06  0.1678872E+01
  0.1164286E+01  0.8803827E+05 -0.1388001E+01  0.7190220E+05 -0.2723024E+01  0.1163714E+06  0.1693332E+01
  0.1195238E+01  0.9140756E+05 -0.1365678E+01  0.7297259E+05 -0.2715360E+01  0.1213798E+06  0.1708407E+01
  0.1226190E+01  0.9454875E+05 -0.1341851E+01  0.7371475E+05 -0.2707053E+01  0.1259667E+06  0.1724637E+01
  0.1257143E+01  0.9733563E+05 -0.1316353E+01  0.7419386E+05 -0.2698237E+01  0.1300812E+06  0.1741992E+01
  0.1288095E+01  0.9997505E+05 -0.1289865E+01  0.7455960E+05 -0.2690513E+01  0.1343611E+06  0.1759940E+01
  0.1319048E+01  0.1019589E+06 -0.1261574E+01  0.7479361E+05 -0.2683393E+01  0.1378554E+06  0.1778884E+01
  0.1350000E+01  0.1034493E+06 -0.1232175E+01  0.7491711E+05 -0.2677303E+01  0.1407499E+06  0.1798241E+01
  0.1380952E+01  0.1045497E+06 -0.1202355E+01  0.7495288E+05 -0.2672369E+01  0.1433438E+06  0.1817369E+01
  0.1411905E+01  0.1048402E+06 -0.1170958E+01  0.7465795E+05 -0.2666577E+01  0.1449013E+06  0.1837072E+01
  0.1442857E+01  0.1048145E+06 -0.1139720E+01  0.7408627E+05 -0.2660690E+01  0.1457704E+06  0.1856515E+01
  0.1473810E+01  0.1043287E+06 -0.1108285E+01  0.7342429E+05 -0.2655478E+01  0.1464988E+06  0.1875472E+01
  0.1504762E+01  0.1030512E+06 -0.1076251E+01  0.7264971E+05 -0.2651033E+01  0.1462663E+06  0.1893980E+01
  0.1535714E+01  0.1011406E+06 -0.1044670E+01  0.7176030E+05 -0.2647669E+01  0.1451977E+06  0.1911059E+01
  0.1566667E+01  0.9861183E+05 -0.1013315E+01  0.7078006E+05 -0.2645266E+01  0.1434877E+06  0.1926943E+01
  0.1597619E+01  0.9545384E+05 -0.9819818E+00  0.6974384E+05 -0.2643842E+01  0.1411690E+06  0.1941636E+01
  0.1628572E+01  0.9169491E+05 -0.9514190E+00  0.6841320E+05 -0.2642175E+01  0.1378307E+06  0.1954218E+01
  0.1659524E+01  0.8739349E+05 -0.9220747E+00  0.6686139E+05 -0.2640873E+01  0.1336042E+06  0.1964110E+01
  0.1690476E+01  0.8273591E+05 -0.8943554E+00  0.6528308E+05 -0.2640631E+01  0.1293830E+06  0.1971307E+01
  0.1721429E+01  0.7755842E+05 -0.8676312E+00  0.6364033E+05 -0.2641146E+01  0.1246131E+06  0.1975710E+01
  0.1752381E+01  0.7182752E+05 -0.8416876E+00  0.6195163E+05 -0.2642689E+01  0.1190977E+06  0.1976685E+01
  0.1783333E+01  0.6565545E+05 -0.8169884E+00  0.6024325E+05 -0.2645352E+01  0.1130271E+06  0.1973387E+01
  0.1814286E+01  0.5921755E+05 -0.7942013E+00  0.5852390E+05 -0.2649028E+01  0.1068879E+06  0.1965597E+01
  0.1845238E+01  0.5247002E+05 -0.7730746E+00  0.5680637E+05 -0.2653934E+01  0.1005058E+06  0.1952523E+01
  0.1876190E+01  0.4542921E+05 -0.7547063E+00  0.5494531E+05 -0.2659236E+01  0.9359510E+05  0.1931885E+01
  0.1907143E+01  0.3815777E+05 -0.7400742E+00  0.5300910E+05 -0.2665260E+01  0.8633944E+05  0.1901784E+01
  0.1938095E+01  0.3077717E+05 -0.7304257E+00  0.5113145E+05 -0.2672058E+01  0.7931473E+05  0.1862427E+01
  0.1969048E+01  0.2333206E+05 -0.7301072E+00  0.4926839E+05 -0.2678526E+01  0.7262141E+05  0.1812201E+01
  0.2000000E+01  0.1568970E+05 -0.7476959E+00  0.4742954E+05 -0.2684908E+01  0.6596636E+05  0.1746358E+01
