VARIABLES="w (rad/s)"
"abs(F   1   1)" "angle(F   1   1)"
"abs(F   1   2)" "angle(F   1   2)"
"abs(F   1   3)" "angle(F   1   3)"
Zone t="Diffraction force - beta =   0.000 deg",I=    64,F=POINT
  0.5000000E-01  0.7998769E+03 -0.1570796E+01  0.5870579E+02 -0.3089156E+01  0.1430380E+04  0.1570797E+01
  0.8095238E-01  0.1313805E+04 -0.1570794E+01  0.1523004E+03 -0.3087291E+01  0.2346586E+04  0.1570798E+01
  0.1119048E+00  0.1832642E+04 -0.1570792E+01  0.2894341E+03 -0.3084967E+01  0.3272026E+04  0.1570801E+01
  0.1428571E+00  0.2373970E+04 -0.1570788E+01  0.4704661E+03 -0.3082016E+01  0.4227877E+04  0.1570804E+01
  0.1738095E+00  0.2932503E+04 -0.1570783E+01  0.6968843E+03 -0.3078346E+01  0.5214809E+04  0.1570808E+01
  0.2047619E+00  0.3521399E+04 -0.1570776E+01  0.9691277E+03 -0.3073689E+01  0.6250976E+04  0.1570815E+01
  0.2357143E+00  0.4147120E+04 -0.1570765E+01  0.1290318E+04 -0.3067885E+01  0.7343169E+04  0.1570825E+01
  0.2666667E+00  0.4812855E+04 -0.1570749E+01  0.1660631E+04 -0.3060769E+01  0.8505233E+04  0.1570840E+01
  0.2976190E+00  0.5539921E+04 -0.1570725E+01  0.2082014E+04 -0.3051784E+01  0.9763268E+04  0.1570861E+01
  0.3285715E+00  0.6325275E+04 -0.1570690E+01  0.2559151E+04 -0.3041107E+01  0.1111673E+05  0.1570893E+01
  0.3595238E+00  0.7195524E+04 -0.1570638E+01  0.3090556E+04 -0.3028091E+01  0.1259943E+05  0.1570941E+01
  0.3904762E+00  0.8151236E+04 -0.1570559E+01  0.3676758E+04 -0.3012572E+01  0.1421821E+05  0.1571013E+01
  0.4214286E+00  0.9215481E+04 -0.1570445E+01  0.4313705E+04 -0.2995143E+01  0.1599837E+05  0.1571117E+01
  0.4523810E+00  0.1035306E+05 -0.1570276E+01  0.5006947E+04 -0.2975020E+01  0.1792588E+05  0.1571271E+01
  0.4833333E+00  0.1162326E+05 -0.1570042E+01  0.5741242E+04 -0.2954390E+01  0.2001236E+05  0.1571484E+01
  0.5142857E+00  0.1299551E+05 -0.1569718E+01  0.6515163E+04 -0.2931841E+01  0.2225991E+05  0.1571779E+01
  0.5452381E+00  0.1444900E+05 -0.1569285E+01  0.7333332E+04 -0.2909349E+01  0.2463174E+05  0.1572173E+01
  0.5761905E+00  0.1598355E+05 -0.1568721E+01  0.8190319E+04 -0.2887161E+01  0.2712384E+05  0.1572684E+01
  0.6071429E+00  0.1759803E+05 -0.1567993E+01  0.9075562E+04 -0.2864096E+01  0.2969080E+05  0.1573345E+01
  0.6380953E+00  0.1930676E+05 -0.1567086E+01  0.9995752E+04 -0.2842035E+01  0.3235438E+05  0.1574168E+01
  0.6690477E+00  0.2108650E+05 -0.1565961E+01  0.1094623E+05 -0.2820075E+01  0.3510423E+05  0.1575188E+01
  0.7000000E+00  0.2287023E+05 -0.1564568E+01  0.1192369E+05 -0.2797888E+01  0.3786226E+05  0.1576446E+01
  0.7309524E+00  0.2471256E+05 -0.1562887E+01  0.1293373E+05 -0.2776402E+01  0.4066429E+05  0.1577962E+01
  0.7619048E+00  0.2666715E+05 -0.1560882E+01  0.1396507E+05 -0.2755048E+01  0.4353046E+05  0.1579774E+01
  0.7928572E+00  0.2864248E+05 -0.1558494E+01  0.1500600E+05 -0.2733475E+01  0.4639196E+05  0.1581929E+01
  0.8238096E+00  0.3067205E+05 -0.1555685E+01  0.1606531E+05 -0.2712199E+01  0.4930430E+05  0.1584459E+01
  0.8547620E+00  0.3272163E+05 -0.1552402E+01  0.1714262E+05 -0.2691356E+01  0.5215216E+05  0.1587414E+01
  0.8857143E+00  0.3480439E+05 -0.1548600E+01  0.1823630E+05 -0.2671018E+01  0.5505289E+05  0.1590821E+01
  0.9166667E+00  0.3687191E+05 -0.1544215E+01  0.1933534E+05 -0.2650851E+01  0.5786480E+05  0.1594740E+01
  0.9476191E+00  0.3901094E+05 -0.1539235E+01  0.2043651E+05 -0.2630927E+01  0.6069145E+05  0.1599193E+01
  0.9785714E+00  0.4118679E+05 -0.1533604E+01  0.2153296E+05 -0.2611139E+01  0.6343613E+05  0.1604236E+01
  0.1009524E+01  0.4342100E+05 -0.1527294E+01  0.2262741E+05 -0.2591764E+01  0.6619430E+05  0.1609882E+01
  0.1040476E+01  0.4560821E+05 -0.1520202E+01  0.2371561E+05 -0.2572707E+01  0.6887731E+05  0.1616193E+01
  0.1071429E+01  0.4775355E+05 -0.1512287E+01  0.2479748E+05 -0.2554076E+01  0.7140021E+05  0.1623221E+01
  0.1102381E+01  0.4989200E+05 -0.1503534E+01  0.2587815E+05 -0.2536176E+01  0.7390430E+05  0.1630946E+01
  0.1133333E+01  0.5197380E+05 -0.1493889E+01  0.2694618E+05 -0.2518622E+01  0.7621070E+05  0.1639442E+01
  0.1164286E+01  0.5408964E+05 -0.1483428E+01  0.2800352E+05 -0.2501622E+01  0.7844517E+05  0.1648658E+01
  0.1195238E+01  0.5614350E+05 -0.1472035E+01  0.2903998E+05 -0.2484802E+01  0.8056064E+05  0.1658653E+01
  0.1226190E+01  0.5812474E+05 -0.1459713E+01  0.3004941E+05 -0.2468102E+01  0.8242781E+05  0.1669466E+01
  0.1257143E+01  0.6001632E+05 -0.1446400E+01  0.3105095E+05 -0.2451580E+01  0.8419584E+05  0.1681056E+01
  0.1288095E+01  0.6189242E+05 -0.1432278E+01  0.3200421E+05 -0.2436085E+01  0.8578345E+05  0.1693359E+01
  0.1319048E+01  0.6363500E+05 -0.1417187E+01  0.3294729E+05 -0.2420884E+01  0.8712826E+05  0.1706434E+01
  0.1350000E+01  0.6527566E+05 -0.1401216E+01  0.3386804E+05 -0.2406442E+01  0.8832069E+05  0.1720149E+01
  0.1380952E+01  0.6671192E+05 -0.1384212E+01  0.3476555E+05 -0.2392563E+01  0.8925919E+05  0.1734582E+01
  0.1411905E+01  0.6741816E+05 -0.1367029E+01  0.3547963E+05 -0.2377709E+01  0.8955994E+05  0.1748522E+01
  0.1442857E+01  0.6848299E+05 -0.1348395E+01  0.3631713E+05 -0.2364571E+01  0.8992957E+05  0.1764008E+01
  0.1473810E+01  0.6939579E+05 -0.1329117E+01  0.3712189E+05 -0.2351799E+01  0.9004669E+05  0.1779911E+01
  0.1504762E+01  0.7009981E+05 -0.1309216E+01  0.3788973E+05 -0.2339193E+01  0.8981605E+05  0.1796226E+01
  0.1535714E+01  0.7065100E+05 -0.1288891E+01  0.3862465E+05 -0.2327226E+01  0.8937877E+05  0.1812720E+01
  0.1566667E+01  0.7098869E+05 -0.1268056E+01  0.3932449E+05 -0.2315681E+01  0.8875765E+05  0.1829297E+01
  0.1597619E+01  0.7103650E+05 -0.1246660E+01  0.3998778E+05 -0.2304297E+01  0.8780369E+05  0.1846006E+01
  0.1628572E+01  0.7079925E+05 -0.1224890E+01  0.4060634E+05 -0.2293132E+01  0.8647010E+05  0.1862621E+01
  0.1659524E+01  0.7034638E+05 -0.1202989E+01  0.4119643E+05 -0.2282702E+01  0.8494345E+05  0.1878979E+01
  0.1690476E+01  0.6968927E+05 -0.1181144E+01  0.4175232E+05 -0.2272943E+01  0.8324762E+05  0.1894852E+01
  0.1721429E+01  0.6872929E+05 -0.1159349E+01  0.4226106E+05 -0.2263222E+01  0.8113774E+05  0.1910243E+01
  0.1752381E+01  0.6757009E+05 -0.1137887E+01  0.4273625E+05 -0.2254126E+01  0.7888038E+05  0.1924867E+01
  0.1783333E+01  0.6619409E+05 -0.1116844E+01  0.4316695E+05 -0.2245469E+01  0.7646357E+05  0.1938456E+01
  0.1814286E+01  0.6457919E+05 -0.1096083E+01  0.4356179E+05 -0.2237250E+01  0.7391756E+05  0.1951038E+01
  0.1845238E+01  0.6271401E+05 -0.1075760E+01  0.4391815E+05 -0.2229208E+01  0.7117286E+05  0.1962499E+01
  0.1876190E+01  0.6059918E+05 -0.1056069E+01  0.4422320E+05 -0.2221209E+01  0.6819420E+05  0.1972432E+01
  0.1907143E+01  0.5830912E+05 -0.1037206E+01  0.4449339E+05 -0.2213785E+01  0.6516702E+05  0.1980827E+01
  0.1938095E+01  0.5586550E+05 -0.1019285E+01  0.4472832E+05 -0.2206881E+01  0.6213651E+05  0.1987460E+01
  0.1969048E+01  0.5324038E+05 -0.1002467E+01  0.4491536E+05 -0.2200163E+01  0.5899932E+05  0.1991915E+01
  0.2000000E+01  0.5045190E+05 -0.9869259E+00  0.4505555E+05 -0.2193727E+01  0.5578173E+05  0.1993998E+01
