VARIABLES="w (rad/s)"
"A   1   1" "B   1   1"
"A   1   2" "B   1   2"
"A   1   3" "B   1   3"
Zone t="Motion of body    1 in DoF   1",I=    64,F=POINT
  0.5000000E-01  0.2555136E+06  0.5266668E-01 -0.9841919E-02 -0.7736182E-04 -0.1077949E+07 -0.2257011E+00
  0.8095238E-01  0.2571777E+06  0.2297431E+00 -0.1578612E-01 -0.1886885E-03 -0.1082835E+07 -0.9808698E+00
  0.1119048E+00  0.2576866E+06  0.6439421E+00 -0.1309009E-01 -0.1399154E-03 -0.1083767E+07 -0.2746860E+01
  0.1428571E+00  0.2581567E+06  0.1444068E+01 -0.6942748E-03 -0.1078239E-03 -0.1085310E+07 -0.6153579E+01
  0.1738095E+00  0.2586770E+06  0.2862617E+01 -0.1992840E-01 -0.5051997E-03 -0.1086580E+07 -0.1217902E+02
  0.2047619E+00  0.2591176E+06  0.5255116E+01 -0.8867840E-02 -0.2571978E-03 -0.1088448E+07 -0.2233113E+02
  0.2357143E+00  0.2596157E+06  0.9201884E+01 -0.1385313E-01 -0.5808622E-03 -0.1089767E+07 -0.3902924E+02
  0.2666667E+00  0.2603640E+06  0.1559339E+02  0.5149841E-02 -0.2862513E-03 -0.1092274E+07 -0.6599434E+02
  0.2976190E+00  0.2609477E+06  0.2595923E+02 -0.3845215E-02 -0.5354136E-03 -0.1094173E+07 -0.1096223E+03
  0.3285715E+00  0.2619189E+06  0.4259528E+02 -0.2818895E-01 -0.2137303E-02 -0.1096953E+07 -0.1793579E+03
  0.3595238E+00  0.2627247E+06  0.6931234E+02 -0.5941833E-03 -0.4757345E-03 -0.1099740E+07 -0.2910623E+03
  0.3904762E+00  0.2637695E+06  0.1118743E+03 -0.1758482E-01 -0.1556337E-02 -0.1103355E+07 -0.4683540E+03
  0.4214286E+00  0.2649495E+06  0.1780953E+03 -0.6879386E-02 -0.1486778E-02 -0.1106911E+07 -0.7428551E+03
  0.4523810E+00  0.2663302E+06  0.2810746E+03 -0.2023797E-03 -0.1224160E-02 -0.1111110E+07 -0.1168017E+04
  0.4833333E+00  0.2677445E+06  0.4321291E+03  0.2841292E-02 -0.1132965E-02 -0.1116106E+07 -0.1788718E+04
  0.5142857E+00  0.2694182E+06  0.6536273E+03  0.8722941E-02 -0.1821518E-03 -0.1121902E+07 -0.2694551E+04
  0.5452381E+00  0.2715396E+06  0.9649839E+03  0.4477688E-03 -0.1439571E-02 -0.1128450E+07 -0.3958844E+04
  0.5761905E+00  0.2733720E+06  0.1389231E+04 -0.7944658E-03 -0.7991791E-03 -0.1134437E+07 -0.5671830E+04
  0.6071429E+00  0.2755650E+06  0.1963819E+04  0.7992014E-02 -0.6685257E-03 -0.1141689E+07 -0.7977646E+04
  0.6380953E+00  0.2780292E+06  0.2713949E+04 -0.1023478E-01 -0.5774498E-02 -0.1150084E+07 -0.1096673E+05
  0.6690477E+00  0.2805373E+06  0.3683641E+04  0.5564842E-02 -0.1325607E-02 -0.1157998E+07 -0.1479872E+05
  0.7000000E+00  0.2831351E+06  0.4923111E+04  0.2877371E-02 -0.3471375E-03 -0.1165754E+07 -0.1965491E+05
  0.7309524E+00  0.2861307E+06  0.6478447E+04 -0.6680069E-03 -0.3808975E-02 -0.1175203E+07 -0.2569912E+05
  0.7619048E+00  0.2888353E+06  0.8402716E+04  0.7209777E-03  0.5187988E-03 -0.1183680E+07 -0.3311507E+05
  0.7928572E+00  0.2917782E+06  0.1076428E+05  0.5773595E-02 -0.8811951E-03 -0.1193006E+07 -0.4213664E+05
  0.8238096E+00  0.2950340E+06  0.1362953E+05 -0.5112135E-02 -0.6591797E-02 -0.1202166E+07 -0.5294507E+05
  0.8547620E+00  0.2979762E+06  0.1705207E+05 -0.6355137E-02 -0.9178162E-02 -0.1210212E+07 -0.6572187E+05
  0.8857143E+00  0.3008957E+06  0.2111244E+05  0.7166709E-02  0.4272461E-03 -0.1218132E+07 -0.8071925E+05
  0.9166667E+00  0.3036637E+06  0.2587497E+05 -0.1131925E-02 -0.7011414E-02 -0.1225095E+07 -0.9809463E+05
  0.9476191E+00  0.3065345E+06  0.3142167E+05 -0.4895081E-02 -0.8316040E-02 -0.1231902E+07 -0.1180646E+06
  0.9785714E+00  0.3089963E+06  0.3779405E+05  0.4366018E-03 -0.2929688E-02 -0.1237862E+07 -0.1407720E+06
  0.1009524E+01  0.3107888E+06  0.4499866E+05  0.2902049E-02  0.6561279E-02 -0.1240626E+07 -0.1660385E+06
  0.1040476E+01  0.3124845E+06  0.5311988E+05 -0.1173216E-02 -0.5889893E-02 -0.1242596E+07 -0.1940837E+06
  0.1071429E+01  0.3135125E+06  0.6213218E+05 -0.2335612E-02 -0.8865356E-02 -0.1241365E+07 -0.2246121E+06
  0.1102381E+01  0.3142028E+06  0.7208666E+05  0.1107333E-03 -0.7293701E-02 -0.1238755E+07 -0.2577620E+06
  0.1133333E+01  0.3139145E+06  0.8288451E+05 -0.9155273E-03 -0.7431030E-02 -0.1233096E+07 -0.2931171E+06
  0.1164286E+01  0.3126184E+06  0.9444680E+05 -0.9488532E-02 -0.8728027E-02 -0.1223770E+07 -0.3301930E+06
  0.1195238E+01  0.3109157E+06  0.1068375E+06 -0.2604329E-02 -0.3326416E-02 -0.1213517E+07 -0.3692622E+06
  0.1226190E+01  0.3079192E+06  0.1197008E+06  0.1294182E-02 -0.2685547E-02 -0.1198589E+07 -0.4087139E+06
  0.1257143E+01  0.3040986E+06  0.1329694E+06 -0.1407970E-02 -0.3448486E-02 -0.1181182E+07 -0.4484110E+06
  0.1288095E+01  0.2997317E+06  0.1465217E+06  0.3790723E-03 -0.3662109E-02 -0.1161850E+07 -0.4876948E+06
  0.1319048E+01  0.2939302E+06  0.1598413E+06  0.4627214E-04  0.1861572E-02 -0.1138044E+07 -0.5247758E+06
  0.1350000E+01  0.2873674E+06  0.1729865E+06 -0.1898872E-02 -0.6408691E-03 -0.1112453E+07 -0.5601474E+06
  0.1380952E+01  0.2803128E+06  0.1858626E+06 -0.3977809E-02 -0.4882812E-03 -0.1086115E+07 -0.5935711E+06
  0.1411905E+01  0.2716956E+06  0.1973002E+06  0.1296868E-03 -0.4241943E-02 -0.1055891E+07 -0.6212424E+06
  0.1442857E+01  0.2632695E+06  0.2084545E+06  0.2580397E-02 -0.2136230E-02 -0.1026310E+07 -0.6465880E+06
  0.1473810E+01  0.2546198E+06  0.2185997E+06 -0.9069488E-02  0.7629395E-03 -0.9966879E+06 -0.6675794E+06
  0.1504762E+01  0.2455182E+06  0.2274192E+06 -0.1176279E-02 -0.3875732E-02 -0.9668405E+06 -0.6837264E+06
  0.1535714E+01  0.2359816E+06  0.2345278E+06  0.3894894E-02 -0.4608154E-02 -0.9359510E+06 -0.6930846E+06
  0.1566667E+01  0.2267804E+06  0.2407196E+06 -0.3077730E-02 -0.4150391E-02 -0.9076829E+06 -0.6999906E+06
  0.1597619E+01  0.2177518E+06  0.2455480E+06  0.4660866E-02 -0.1312256E-02 -0.8806665E+06 -0.7021994E+06
  0.1628572E+01  0.2087691E+06  0.2485905E+06  0.6745991E-03 -0.1281738E-02 -0.8543662E+06 -0.6981302E+06
  0.1659524E+01  0.2003908E+06  0.2505590E+06  0.1103361E-02 -0.1281738E-02 -0.8307686E+06 -0.6911104E+06
  0.1690476E+01  0.1925749E+06  0.2514031E+06 -0.1985792E-02  0.2136230E-03 -0.8094181E+06 -0.6805296E+06
  0.1721429E+01  0.1851156E+06  0.2510398E+06  0.9927710E-03 -0.1327515E-02 -0.7902882E+06 -0.6674309E+06
  0.1752381E+01  0.1780673E+06  0.2492503E+06  0.2124621E-02 -0.8850098E-03 -0.7726704E+06 -0.6496539E+06
  0.1783333E+01  0.1715416E+06  0.2464556E+06 -0.7871824E-03 -0.2029419E-02 -0.7570844E+06 -0.6295257E+06
  0.1814286E+01  0.1657674E+06  0.2433799E+06  0.1682071E-03 -0.1068115E-03 -0.7443638E+06 -0.6101354E+06
  0.1845238E+01  0.1605755E+06  0.2395603E+06  0.1984627E-03 -0.1281738E-02 -0.7334945E+06 -0.5888792E+06
  0.1876190E+01  0.1557989E+06  0.2346289E+06  0.5790594E-02  0.1419067E-02 -0.7240231E+06 -0.5643500E+06
  0.1907143E+01  0.1516638E+06  0.2295918E+06 -0.1280138E-03  0.6103516E-03 -0.7166596E+06 -0.5409237E+06
  0.1938095E+01  0.1481120E+06  0.2242221E+06  0.7558162E-03 -0.5493164E-03 -0.7109606E+06 -0.5166933E+06
  0.1969048E+01  0.1450165E+06  0.2187739E+06  0.1084905E-01  0.7629395E-05 -0.7068506E+06 -0.4936963E+06
  0.2000000E+01  0.1422708E+06  0.2130950E+06  0.4943848E-02  0.2288818E-04 -0.7038737E+06 -0.4716887E+06
Zone t="Motion of body    1 in DoF   2",I=    64,F=POINT
  0.5000000E-01 -0.7553101E-02  0.3767014E-04  0.7575745E+05  0.1330548E+03  0.6713867E-01  0.4196167E-04
  0.8095238E-01 -0.1644583E-01  0.4768372E-05  0.7501674E+05  0.2194625E+03  0.5315444E-01  0.5912781E-04
  0.1119048E+00 -0.5386028E-02 -0.5912781E-04  0.7458855E+05  0.3118288E+03 -0.1090841E-01 -0.6904602E-03
  0.1428571E+00 -0.6088256E-02 -0.4386902E-04  0.7429794E+05  0.4129727E+03  0.1196289E-01 -0.1525879E-04
  0.1738095E+00  0.0000000E+00 -0.8773804E-04  0.7412688E+05  0.5255526E+03 -0.1404645E-01 -0.4081726E-03
  0.2047619E+00 -0.7712786E-02  0.9155273E-04  0.7402904E+05  0.6546252E+03  0.1371162E-01 -0.1640320E-03
  0.2357143E+00  0.1683091E-02 -0.2937317E-03  0.7385684E+05  0.8050863E+03  0.4505504E-01  0.1754761E-03
  0.2666667E+00 -0.6923675E-02  0.2326965E-03  0.7390929E+05  0.9794012E+03  0.2288818E-02 -0.1358032E-02
  0.2976190E+00  0.4101563E-03  0.5531311E-03  0.7370747E+05  0.1190069E+04 -0.2255859E-01  0.7247925E-03
  0.3285715E+00 -0.9287957E-02  0.5035400E-03  0.7377237E+05  0.1436059E+04  0.5052649E-01 -0.5798340E-03
  0.3595238E+00 -0.7299966E-02 -0.4043579E-03  0.7350904E+05  0.1729314E+04 -0.1527900E-01  0.1235962E-02
  0.3904762E+00 -0.1121521E-01  0.7629395E-04  0.7344780E+05  0.2073069E+04  0.4626762E-01  0.1983643E-02
  0.4214286E+00 -0.1064494E-01 -0.3814697E-03  0.7308914E+05  0.2450684E+04 -0.8110434E-02  0.4272461E-03
  0.4523810E+00 -0.7420590E-02  0.8239746E-03  0.7276088E+05  0.2889301E+04  0.9174547E-02  0.2487183E-02
  0.4833333E+00 -0.6566541E-02 -0.5035400E-03  0.7232844E+05  0.3313195E+04  0.6415005E-01 -0.3082275E-02
  0.5142857E+00 -0.1068115E-01 -0.9765625E-03  0.7167380E+05  0.3764642E+04  0.2421061E-01  0.8850098E-02
  0.5452381E+00 -0.2630642E-02  0.6103516E-03  0.7126093E+05  0.4190804E+04  0.1298530E-01  0.3784180E-02
  0.5761905E+00 -0.5508296E-02 -0.1739502E-02  0.7039910E+05  0.4573705E+04 -0.3347349E-01  0.8178711E-02
  0.6071429E+00 -0.9751263E-02  0.1861572E-02  0.6967727E+05  0.4946589E+04  0.7599954E-01 -0.1708984E-02
  0.6380953E+00 -0.1013912E-01 -0.1800537E-02  0.6914152E+05  0.5238730E+04  0.6504343E-01  0.3051758E-03
  0.6690477E+00 -0.4652573E-02  0.9155273E-04  0.6828962E+05  0.5480920E+04 -0.1167705E-01  0.1220703E-02
  0.7000000E+00 -0.9678431E-02  0.2014160E-02  0.6760123E+05  0.5687664E+04  0.7010324E-01 -0.1559448E-01
  0.7309524E+00 -0.7327200E-02 -0.3967285E-03  0.6720082E+05  0.5828828E+04  0.9686099E-02 -0.0000000E+00
  0.7619048E+00  0.1361847E-02 -0.9765625E-03  0.6639901E+05  0.5890482E+04  0.2018738E-01  0.6713867E-03
  0.7928572E+00 -0.7582655E-02  0.5645752E-02  0.6577923E+05  0.5909849E+04  0.1447248E-01 -0.2789307E-01
  0.8238096E+00 -0.8983281E-02  0.9155273E-03  0.6537577E+05  0.5889389E+04  0.8001603E-02 -0.7080078E-02
  0.8547620E+00 -0.1081801E-01  0.3051758E-02  0.6499746E+05  0.5806123E+04  0.2799116E-01  0.1031494E-01
  0.8857143E+00 -0.1429896E-01  0.3417969E-02  0.6443963E+05  0.5644575E+04  0.7442351E-01 -0.1861572E-02
  0.9166667E+00 -0.4261364E-02 -0.7324219E-03  0.6408732E+05  0.5460380E+04  0.2397017E-01  0.6378174E-02
  0.9476191E+00 -0.9383580E-02 -0.1464844E-02  0.6389533E+05  0.5269019E+04  0.3864538E-01 -0.8850098E-03
  0.9785714E+00 -0.3235532E-02 -0.2990723E-02  0.6383688E+05  0.5072145E+04 -0.1397126E-01 -0.4089355E-02
  0.1009524E+01 -0.6744052E-02 -0.1647949E-02  0.6348064E+05  0.4723274E+04  0.2660212E-01 -0.4028320E-02
  0.1040476E+01 -0.9162082E-02 -0.1403809E-02  0.6327061E+05  0.4396894E+04  0.4974435E-01 -0.4455566E-02
  0.1071429E+01 -0.7889812E-02  0.3051758E-02  0.6319178E+05  0.4101018E+04  0.2643229E-01 -0.1086426E-01
  0.1102381E+01 -0.8567991E-02 -0.4089355E-02  0.6326175E+05  0.3856665E+04  0.2923360E-01  0.2075195E-01
  0.1133333E+01 -0.2760046E-02 -0.1037598E-02  0.6335380E+05  0.3604802E+04  0.9047564E-02  0.3082275E-02
  0.1164286E+01 -0.2516296E-02  0.2929688E-02  0.6324924E+05  0.3168874E+04  0.1258148E-02  0.3936768E-02
  0.1195238E+01 -0.6319327E-02  0.1892090E-02  0.6323052E+05  0.2801292E+04  0.4861414E-01 -0.8361816E-02
  0.1226190E+01 -0.6869122E-02 -0.3723145E-02  0.6329243E+05  0.2497653E+04  0.3464426E-01  0.2929688E-02
  0.1257143E+01 -0.6469380E-02  0.3662109E-03  0.6343276E+05  0.2286465E+04  0.1475941E-01 -0.3723145E-02
  0.1288095E+01 -0.5378088E-02 -0.5493164E-02  0.6365070E+05  0.2192306E+04  0.2994671E-01  0.5645752E-02
  0.1319048E+01 -0.7287862E-02 -0.1312256E-02  0.6373791E+05  0.1860199E+04  0.2295098E-01 -0.1907349E-02
  0.1350000E+01 -0.9652597E-02 -0.1190186E-02  0.6381898E+05  0.1521015E+04  0.4195602E-01  0.5996704E-02
  0.1380952E+01 -0.3425335E-02 -0.1556396E-02  0.6391645E+05  0.1239485E+04  0.8132408E-02  0.9086609E-02
  0.1411905E+01 -0.6959860E-02 -0.2441406E-03  0.6403076E+05  0.1034810E+04  0.1314160E-01  0.7049561E-02
  0.1442857E+01 -0.5224247E-02  0.1129150E-02  0.6417909E+05  0.9307522E+03  0.1793588E-01  0.5523682E-02
  0.1473810E+01 -0.4514038E-02 -0.2319336E-02  0.6433734E+05  0.9180455E+03  0.1358353E-01  0.1823425E-02
  0.1504762E+01 -0.8497600E-02 -0.2136230E-02  0.6449466E+05  0.9455476E+03  0.3666745E-01  0.9521484E-02
  0.1535714E+01 -0.4570539E-02 -0.3021240E-02  0.6460871E+05  0.6296528E+03  0.1271802E-02  0.4043579E-02
  0.1566667E+01 -0.5960667E-02 -0.3204346E-02  0.6472001E+05  0.4358101E+03  0.1870013E-01  0.7209778E-02
  0.1597619E+01 -0.4336134E-02 -0.1525879E-02  0.6482727E+05  0.3020546E+03  0.2567297E-01  0.7787704E-02
  0.1628572E+01 -0.4947060E-02 -0.3356934E-03  0.6492873E+05  0.2173212E+03  0.2098753E-01  0.6381989E-02
  0.1659524E+01 -0.5682311E-02 -0.3662109E-03  0.6502536E+05  0.2051124E+03  0.2765759E-01  0.4940033E-02
  0.1690476E+01 -0.6950270E-02 -0.8239746E-03  0.6511160E+05  0.2345051E+03  0.3466109E-01  0.3452301E-02
  0.1721429E+01 -0.8438554E-02 -0.2456665E-02  0.6517936E+05  0.3227361E+03  0.2779759E-01  0.6265640E-02
  0.1752381E+01 -0.9752357E-03 -0.1770020E-02  0.6527638E+05  0.2318488E+03  0.8916440E-02  0.4808426E-02
  0.1783333E+01 -0.5458939E-02 -0.9002686E-03  0.6537631E+05  0.1379394E+03  0.2409463E-01  0.3727913E-02
  0.1814286E+01 -0.3767840E-02 -0.2151489E-02  0.6545170E+05  0.6168503E+02  0.2583661E-01  0.6719589E-02
  0.1845238E+01 -0.6565808E-02 -0.1869202E-02  0.6551502E+05  0.3393499E+02  0.3122480E-01  0.5360603E-02
  0.1876190E+01 -0.6799069E-02 -0.2044678E-02  0.6557139E+05  0.1874692E+02  0.2810716E-01  0.4781842E-02
  0.1907143E+01 -0.7456805E-02 -0.3044128E-02  0.6561798E+05  0.3444788E+02  0.2150632E-01  0.7056952E-02
  0.1938095E+01 -0.2377672E-02 -0.1045227E-02  0.6565826E+05  0.6125851E+02  0.3325591E-01  0.4135132E-02
  0.1969048E+01 -0.1255391E-02 -0.2174377E-02  0.6569116E+05  0.8081396E+02 -0.2380593E-01  0.4566193E-02
  0.2000000E+01 -0.1284790E-01 -0.1724243E-02  0.6572024E+05  0.1108519E+03  0.6835938E-01  0.3792763E-02
Zone t="Motion of body    1 in DoF   3",I=    64,F=POINT
  0.5000000E-01 -0.1078871E+07 -0.2255953E+00  0.1037598E+00  0.4626709E-03  0.5573480E+07  0.9670630E+00
  0.8095238E-01 -0.1083913E+07 -0.9822566E+00  0.1530546E+00  0.1537953E-02  0.5586065E+07  0.4192415E+01
  0.1119048E+00 -0.1084958E+07 -0.2751577E+01  0.1150837E+00  0.1119664E-02  0.5588770E+07  0.1173768E+02
  0.1428571E+00 -0.1086484E+07 -0.6163606E+01  0.1388550E-01  0.6498210E-03  0.5593306E+07  0.2626322E+02
  0.1738095E+00 -0.1087785E+07 -0.1220292E+02  0.1376552E+00  0.2766423E-02  0.5597528E+07  0.5192151E+02
  0.2047619E+00 -0.1089615E+07 -0.2237085E+02  0.1026881E+00  0.2797499E-02  0.5603605E+07  0.9506800E+02
  0.2357143E+00 -0.1090972E+07 -0.3910079E+02  0.1053874E+00  0.2865851E-02  0.5608132E+07  0.1658388E+03
  0.2666667E+00 -0.1093493E+07 -0.6611714E+02 -0.2998352E-01  0.5787015E-03  0.5616878E+07  0.2798161E+03
  0.2976190E+00 -0.1095372E+07 -0.1098162E+03  0.1435547E-01  0.2279818E-02  0.5623036E+07  0.4637224E+03
  0.3285715E+00 -0.1098205E+07 -0.1797114E+03  0.1231583E+00  0.8478999E-02  0.5632208E+07  0.7567181E+03
  0.3595238E+00 -0.1100972E+07 -0.2915932E+03  0.4685559E-01  0.5463839E-02  0.5641790E+07  0.1224463E+04
  0.3904762E+00 -0.1104564E+07 -0.4691680E+03  0.2688524E-01  0.4987001E-02  0.5653962E+07  0.1964146E+04
  0.4214286E+00 -0.1108138E+07 -0.7441970E+03 -0.9993212E-02  0.1790047E-02  0.5665994E+07  0.3104060E+04
  0.4523810E+00 -0.1112402E+07 -0.1170335E+04 -0.1133326E-01  0.3573895E-02  0.5680324E+07  0.4863727E+04
  0.4833333E+00 -0.1117310E+07 -0.1791882E+04  0.2247777E-01  0.9908676E-02  0.5697554E+07  0.7417052E+04
  0.5142857E+00 -0.1123159E+07 -0.2698960E+04 -0.1044379E-01  0.7675171E-02  0.5717668E+07  0.1112604E+05
  0.5452381E+00 -0.1129767E+07 -0.3966369E+04  0.1589579E-01  0.1283073E-01  0.5739362E+07  0.1627187E+05
  0.5761905E+00 -0.1135738E+07 -0.5682062E+04  0.3601578E-02 -0.5836487E-03  0.5759467E+07  0.2319782E+05
  0.6071429E+00 -0.1143030E+07 -0.7991869E+04 -0.4322725E-01  0.3219604E-02  0.5784770E+07  0.3246721E+05
  0.6380953E+00 -0.1151358E+07 -0.1098432E+05  0.3692171E-01  0.1072311E-01  0.5812126E+07  0.4438582E+05
  0.6690477E+00 -0.1159290E+07 -0.1482238E+05 -0.6294657E-01  0.7682800E-02  0.5837714E+07  0.5954677E+05
  0.7000000E+00 -0.1167132E+07 -0.1969010E+05 -0.5231585E-03  0.1296997E-02  0.5863182E+07  0.7861168E+05
  0.7309524E+00 -0.1176577E+07 -0.2574457E+05  0.3674038E-01  0.3028870E-01  0.5893030E+07  0.1021239E+06
  0.7619048E+00 -0.1184985E+07 -0.3316751E+05  0.3684997E-01  0.2626038E-01  0.5919540E+07  0.1307110E+06
  0.7928572E+00 -0.1194310E+07 -0.4219306E+05 -0.1693588E-01 -0.8544922E-02  0.5948088E+07  0.1651614E+06
  0.8238096E+00 -0.1203487E+07 -0.5302711E+05 -0.2519023E-01  0.6973267E-02  0.5973673E+07  0.2059841E+06
  0.8547620E+00 -0.1211542E+07 -0.6582541E+05 -0.1142496E-02  0.1303101E-01  0.5995555E+07  0.2536928E+06
  0.8857143E+00 -0.1219466E+07 -0.8084001E+05 -0.6891066E-01 -0.2642822E-01  0.6016369E+07  0.3090619E+06
  0.9166667E+00 -0.1226463E+07 -0.9823835E+05  0.1624645E-01  0.1385498E-01  0.6032852E+07  0.3724171E+06
  0.9476191E+00 -0.1233272E+07 -0.1182513E+06  0.1777687E-01  0.2273560E-01  0.6046774E+07  0.4443030E+06
  0.9785714E+00 -0.1239172E+07 -0.1409493E+06 -0.2320227E-01  0.1135254E-01  0.6058058E+07  0.5249569E+06
  0.1009524E+01 -0.1241836E+07 -0.1662242E+06 -0.1837964E-01 -0.1416016E-01  0.6056585E+07  0.6132951E+06
  0.1040476E+01 -0.1243809E+07 -0.1942726E+06  0.1689431E-01  0.1574707E-01  0.6050850E+07  0.7097542E+06
  0.1071429E+01 -0.1242678E+07 -0.2248803E+06  0.6106771E-01  0.5010986E-01  0.6034000E+07  0.8128882E+06
  0.1102381E+01 -0.1240019E+07 -0.2580894E+06  0.1439533E-01 -0.4028320E-02  0.6009468E+07  0.9227252E+06
  0.1133333E+01 -0.1234325E+07 -0.2934589E+06 -0.4006778E-01  0.1190186E-01  0.5976570E+07  0.1037594E+07
  0.1164286E+01 -0.1224894E+07 -0.3305511E+06  0.9792585E-01  0.4431152E-01  0.5930907E+07  0.1155403E+07
  0.1195238E+01 -0.1214633E+07 -0.3695535E+06 -0.7761921E-02 -0.1959229E-01  0.5881904E+07  0.1276942E+07
  0.1226190E+01 -0.1199726E+07 -0.4090320E+06  0.2926843E-01 -0.7690430E-02  0.5818839E+07  0.1396250E+07
  0.1257143E+01 -0.1182210E+07 -0.4486547E+06  0.1767245E-01  0.2441406E-03  0.5747490E+07  0.1512610E+07
  0.1288095E+01 -0.1162877E+07 -0.4879482E+06 -0.8718664E-02  0.3417969E-02  0.5670180E+07  0.1623444E+07
  0.1319048E+01 -0.1138967E+07 -0.5249851E+06  0.2369133E-01  0.1660156E-01  0.5579719E+07  0.1722505E+07
  0.1350000E+01 -0.1113344E+07 -0.5603394E+06  0.1862703E-01  0.2209473E-01  0.5487159E+07  0.1813378E+07
  0.1380952E+01 -0.1087039E+07 -0.5936107E+06  0.3359038E-01  0.8911133E-02  0.5393050E+07  0.1894272E+07
  0.1411905E+01 -0.1056933E+07 -0.6212256E+06  0.4945391E-01  0.2160645E-01  0.5291508E+07  0.1954463E+07
  0.1442857E+01 -0.1027359E+07 -0.6465551E+06  0.1133683E-01  0.8178711E-02  0.5193611E+07  0.2004172E+07
  0.1473810E+01 -0.9976824E+06 -0.6673726E+06  0.4737669E-01  0.3295898E-02  0.5095560E+07  0.2035540E+07
  0.1504762E+01 -0.9678899E+06 -0.6834812E+06  0.3666745E-01  0.4272461E-02  0.5003148E+07  0.2052069E+07
  0.1535714E+01 -0.9368713E+06 -0.6927417E+06 -0.1414880E-01  0.9277344E-02  0.4907742E+07  0.2043456E+07
  0.1566667E+01 -0.9087155E+06 -0.6996517E+06  0.8150141E-01  0.1428223E-01  0.4825766E+07  0.2030546E+07
  0.1597619E+01 -0.8818021E+06 -0.7016938E+06 -0.7946395E-02  0.1708984E-02  0.4748077E+07  0.2001478E+07
  0.1628572E+01 -0.8555234E+06 -0.6977154E+06 -0.3088165E-01  0.6713867E-03  0.4676398E+07  0.1953876E+07
  0.1659524E+01 -0.8319430E+06 -0.6907374E+06  0.4663541E-01 -0.7446289E-02  0.4615414E+07  0.1900472E+07
  0.1690476E+01 -0.8105713E+06 -0.6798641E+06  0.2180760E-01 -0.3234863E-02  0.4560303E+07  0.1833093E+07
  0.1721429E+01 -0.7915514E+06 -0.6667363E+06 -0.2070637E-01  0.2563477E-02  0.4516344E+07  0.1764794E+07
  0.1752381E+01 -0.7739415E+06 -0.6488279E+06 -0.4040262E-02  0.2929688E-02  0.4476940E+07  0.1681313E+07
  0.1783333E+01 -0.7583069E+06 -0.6286014E+06  0.7118867E-02  0.3814697E-02  0.4444800E+07  0.1595397E+07
  0.1814286E+01 -0.7457458E+06 -0.6093449E+06  0.2354900E-01  0.1159668E-02  0.4421934E+07  0.1515893E+07
  0.1845238E+01 -0.7350121E+06 -0.5880574E+06  0.9896673E-01  0.1525879E-02  0.4403824E+07  0.1431629E+07
  0.1876190E+01 -0.7255106E+06 -0.5636965E+06 -0.1587534E-01 -0.3051758E-04  0.4391231E+07  0.1341458E+07
  0.1907143E+01 -0.7181496E+06 -0.5404204E+06  0.1113720E-01  0.7324219E-03  0.4384890E+07  0.1260326E+07
  0.1938095E+01 -0.7125047E+06 -0.5159523E+06 -0.3905050E-02  0.3967285E-03  0.4382000E+07  0.1173630E+07
  0.1969048E+01 -0.7085277E+06 -0.4928273E+06 -0.9423179E-02 -0.1266479E-02  0.4384173E+07  0.1093576E+07
  0.2000000E+01 -0.7056112E+06 -0.4710131E+06  0.1708984E-02  0.1449585E-02  0.4390052E+07  0.1027363E+07
