VARIABLES="w (rad/s)"
"A   1   1" "B   1   1"
"A   1   2" "B   1   2"
"A   1   3" "B   1   3"
Zone t="Motion of body    1 in DoF   1",I=    64,F=POINT
  0.5000000E-01  0.9681525E+05  0.5687393E-02 -0.7362366E-02  0.4629670E-05 -0.2268827E+05  0.1408639E-03
  0.8095238E-01  0.9715180E+05  0.2487857E-01 -0.1602173E-01 -0.4431039E-04 -0.2304547E+05  0.3676527E-03
  0.1119048E+00  0.9739651E+05  0.7009546E-01  0.1015846E-01  0.2619662E-04 -0.2317300E+05  0.1103853E-02
  0.1428571E+00  0.9763638E+05  0.1578038E+00 -0.7369995E-02 -0.1109695E-03 -0.2301605E+05  0.2871957E-02
  0.1738095E+00  0.9765849E+05  0.3142702E+00 -0.7681651E-02 -0.9039929E-04 -0.2310783E+05  0.5734341E-02
  0.2047619E+00  0.9783969E+05  0.5805864E+00 -0.6632250E-02  0.4389044E-04 -0.2297786E+05  0.1163980E-01
  0.2357143E+00  0.9799284E+05  0.1023075E+01 -0.1437100E-01 -0.4247203E-04 -0.2300728E+05  0.2144469E-01
  0.2666667E+00  0.9812069E+05  0.1747198E+01 -0.1384735E-01 -0.6131642E-04 -0.2301943E+05  0.3840177E-01
  0.2976190E+00  0.9839920E+05  0.2934607E+01  0.4178467E-02  0.1199357E-03 -0.2281981E+05  0.7140031E-01
  0.3285715E+00  0.9860629E+05  0.4862380E+01  0.1611461E-01  0.2301615E-03 -0.2282030E+05  0.1246395E+00
  0.3595238E+00  0.9880736E+05  0.7993383E+01 -0.7384849E-02 -0.4106425E-03 -0.2281720E+05  0.2176477E+00
  0.3904762E+00  0.9904520E+05  0.1304908E+02 -0.1992946E-01 -0.5763248E-03 -0.2271772E+05  0.3858928E+00
  0.4214286E+00  0.9949745E+05  0.2104349E+02 -0.1133288E-01 -0.9489805E-03 -0.2247511E+05  0.6900096E+00
  0.4523810E+00  0.9979374E+05  0.3361240E+02  0.3103156E-02  0.5449355E-04 -0.2250244E+05  0.1162040E+01
  0.4833333E+00  0.1001903E+06  0.5238808E+02 -0.2588732E-02 -0.7132292E-03 -0.2237547E+05  0.1959620E+01
  0.5142857E+00  0.1006957E+06  0.8035232E+02  0.1928541E-01  0.2053916E-02 -0.2220318E+05  0.3254018E+01
  0.5452381E+00  0.1011767E+06  0.1203055E+03 -0.2487916E-01 -0.2847016E-02 -0.2211392E+05  0.5206880E+01
  0.5761905E+00  0.1016420E+06  0.1758727E+03 -0.7944658E-04  0.1407504E-02 -0.2203292E+05  0.8120140E+01
  0.6071429E+00  0.1022092E+06  0.2524824E+03  0.1095760E-01  0.1937389E-02 -0.2190816E+05  0.1245026E+02
  0.6380953E+00  0.1028411E+06  0.3545555E+03 -0.1587825E-01 -0.3282547E-02 -0.2176231E+05  0.1870368E+02
  0.6690477E+00  0.1035608E+06  0.4895124E+03 -0.9259532E-02 -0.1047850E-02 -0.2148033E+05  0.2786920E+02
  0.7000000E+00  0.1042557E+06  0.6656138E+03  0.1547677E-01  0.1119137E-02 -0.2142124E+05  0.3996281E+02
  0.7309524E+00  0.1049926E+06  0.8911385E+03  0.8517087E-02  0.3212452E-02 -0.2134032E+05  0.5646473E+02
  0.7619048E+00  0.1058028E+06  0.1177510E+04 -0.1249695E-01  0.5874634E-03 -0.2106778E+05  0.7980970E+02
  0.7928572E+00  0.1067046E+06  0.1537517E+04 -0.2906043E-01 -0.3894806E-02 -0.2087892E+05  0.1104113E+03
  0.8238096E+00  0.1076256E+06  0.1984627E+04 -0.5260313E-02 -0.5642891E-02 -0.2057472E+05  0.1517815E+03
  0.8547620E+00  0.1086292E+06  0.2534901E+04  0.8890050E-02  0.2786636E-02 -0.2034884E+05  0.2047772E+03
  0.8857143E+00  0.1096126E+06  0.3204741E+04 -0.1298966E-01 -0.1103592E-01 -0.2011497E+05  0.2730669E+03
  0.9166667E+00  0.1106417E+06  0.4013739E+04 -0.1634632E-01 -0.5695343E-02 -0.1993181E+05  0.3589407E+03
  0.9476191E+00  0.1116558E+06  0.4980501E+04  0.1806671E-01 -0.1865387E-02 -0.1962776E+05  0.4700050E+03
  0.9785714E+00  0.1127710E+06  0.6129304E+04  0.1824372E-01  0.9181976E-02 -0.1934473E+05  0.6079990E+03
  0.1009524E+01  0.1138285E+06  0.7479312E+04  0.1892378E-01  0.6050110E-02 -0.1894008E+05  0.7830123E+03
  0.1040476E+01  0.1149495E+06  0.9054512E+04  0.6570009E-02  0.1064682E-01 -0.1854859E+05  0.9973970E+03
  0.1071429E+01  0.1159897E+06  0.1087584E+05  0.2677409E-01  0.2133179E-01 -0.1820984E+05  0.1255324E+04
  0.1102381E+01  0.1169229E+06  0.1296271E+05 -0.5979599E-02  0.1316071E-01 -0.1789651E+05  0.1564741E+04
  0.1133333E+01  0.1178318E+06  0.1533566E+05 -0.4039091E-02  0.1145935E-01 -0.1762305E+05  0.1931583E+04
  0.1164286E+01  0.1185902E+06  0.1800196E+05 -0.1058941E-01 -0.1366425E-01 -0.1723045E+05  0.2372075E+04
  0.1195238E+01  0.1192847E+06  0.2097383E+05  0.2333683E-01  0.8621216E-02 -0.1685901E+05  0.2887521E+04
  0.1226190E+01  0.1198241E+06  0.2425699E+05 -0.1363869E-01 -0.1747131E-01 -0.1652975E+05  0.3479069E+04
  0.1257143E+01  0.1200857E+06  0.2785329E+05 -0.6408691E-02  0.3051758E-03 -0.1617940E+05  0.4167811E+04
  0.1288095E+01  0.1203257E+06  0.3172960E+05 -0.1355184E-01 -0.9277344E-02 -0.1582130E+05  0.4945182E+04
  0.1319048E+01  0.1202849E+06  0.3588875E+05  0.9161883E-02  0.1904297E-01 -0.1547738E+05  0.5829346E+04
  0.1350000E+01  0.1199935E+06  0.4029657E+05 -0.7550275E-02 -0.7202148E-02 -0.1520432E+05  0.6804300E+04
  0.1380952E+01  0.1194799E+06  0.4491864E+05 -0.2740268E-02 -0.1040649E-01 -0.1503614E+05  0.7869363E+04
  0.1411905E+01  0.1179039E+06  0.4914088E+05 -0.1232025E-01  0.3417969E-02 -0.1533408E+05  0.8875498E+04
  0.1442857E+01  0.1168411E+06  0.5400023E+05 -0.1315580E-01 -0.1873779E-01 -0.1523429E+05  0.1011743E+05
  0.1473810E+01  0.1155286E+06  0.5892488E+05  0.6708937E-02 -0.1040649E-01 -0.1519863E+05  0.1144043E+05
  0.1504762E+01  0.1140463E+06  0.6385130E+05  0.6814305E-02  0.4058838E-02 -0.1525409E+05  0.1282100E+05
  0.1535714E+01  0.1122587E+06  0.6869950E+05 -0.1637445E-01 -0.1272583E-01 -0.1527854E+05  0.1430051E+05
  0.1566667E+01  0.1103009E+06  0.7344500E+05  0.3623151E-02  0.1470947E-01 -0.1540342E+05  0.1580503E+05
  0.1597619E+01  0.1082054E+06  0.7801424E+05  0.7335134E-02  0.2484131E-01 -0.1559739E+05  0.1735248E+05
  0.1628572E+01  0.1059352E+06  0.8239087E+05 -0.3747773E-02  0.3417969E-02 -0.1585804E+05  0.1892432E+05
  0.1659524E+01  0.1035318E+06  0.8650027E+05 -0.4229552E-02 -0.1354980E-01 -0.1614369E+05  0.2051307E+05
  0.1690476E+01  0.1010457E+06  0.9033577E+05 -0.9242957E-02 -0.2294922E-01 -0.1649098E+05  0.2210704E+05
  0.1721429E+01  0.9854160E+05  0.9388834E+05  0.1191325E-01 -0.1995850E-01 -0.1693974E+05  0.2365835E+05
  0.1752381E+01  0.9599614E+05  0.9709977E+05  0.1163317E-01 -0.3295898E-02 -0.1740095E+05  0.2519512E+05
  0.1783333E+01  0.9341748E+05  0.9997018E+05  0.5920981E-02  0.8666992E-02 -0.1787639E+05  0.2670771E+05
  0.1814286E+01  0.9087736E+05  0.1025037E+06 -0.2724956E-02  0.1953125E-02 -0.1839178E+05  0.2818098E+05
  0.1845238E+01  0.8840534E+05  0.1047138E+06 -0.3572329E-02 -0.4028320E-02 -0.1895468E+05  0.2958658E+05
  0.1876190E+01  0.8597295E+05  0.1066231E+06  0.1528977E-02  0.9155273E-03 -0.1955450E+05  0.3093115E+05
  0.1907143E+01  0.8359764E+05  0.1082021E+06  0.0000000E+00 -0.4882812E-03 -0.2014543E+05  0.3223538E+05
  0.1938095E+01  0.8128505E+05  0.1094919E+06 -0.2550880E-02  0.2319336E-01 -0.2073415E+05  0.3349131E+05
  0.1969048E+01  0.7909200E+05  0.1105193E+06 -0.7687330E-02 -0.1318359E-01 -0.2135703E+05  0.3465038E+05
  0.2000000E+01  0.7702309E+05  0.1113172E+06  0.4608154E-02 -0.4211426E-02 -0.2202185E+05  0.3571350E+05
Zone t="Motion of body    1 in DoF   2",I=    64,F=POINT
  0.5000000E-01 -0.6713867E-02  0.1144409E-04  0.1343607E+06  0.3543510E+03  0.1083374E-01  0.2145767E-04
  0.8095238E-01 -0.5560482E-02  0.1220703E-03  0.1328456E+06  0.5878234E+03 -0.1498503E-01 -0.3433228E-04
  0.1119048E+00 -0.7295000E-02  0.1811981E-04  0.1320778E+06  0.8424001E+03  0.9272149E-02  0.1335144E-03
  0.1428571E+00  0.7957458E-02 -0.1831055E-03  0.1316822E+06  0.1127682E+04 -0.5767822E-02 -0.3433228E-04
  0.1738095E+00 -0.2370338E-02 -0.3433228E-04  0.1316355E+06  0.1456491E+04  0.9656932E-03  0.1907349E-03
  0.2047619E+00  0.4620219E-02 -0.5626678E-04  0.1318465E+06  0.1843910E+04 -0.1460585E-01  0.8201599E-04
  0.2357143E+00  0.9645403E-02 -0.6103516E-04  0.1322907E+06  0.2311866E+04  0.6343957E-02 -0.3814697E-05
  0.2666667E+00  0.8239746E-02 -0.1888275E-03  0.1328761E+06  0.2879659E+04  0.9155273E-02 -0.2098083E-03
  0.2976190E+00  0.4152832E-02  0.5722046E-05  0.1335933E+06  0.3587218E+04  0.6767578E-02 -0.2822876E-03
  0.3285715E+00 -0.8730680E-02 -0.7514954E-03  0.1344470E+06  0.4458542E+04 -0.1207434E-02  0.3585815E-03
  0.3595238E+00  0.8997632E-02  0.3700256E-03  0.1352195E+06  0.5541995E+04 -0.4668583E-02  0.9155273E-04
  0.3904762E+00 -0.1383339E-01 -0.2326965E-03  0.1359946E+06  0.6878276E+04  0.5627143E-02 -0.2670288E-03
  0.4214286E+00  0.1433809E-01  0.1144409E-03  0.1364807E+06  0.8452571E+04 -0.8834579E-02 -0.1548767E-02
  0.4523810E+00 -0.1821417E-02  0.1525879E-04  0.1368138E+06  0.1034696E+05 -0.1214278E-02 -0.1235962E-02
  0.4833333E+00 -0.1376448E-01  0.2632141E-02  0.1367057E+06  0.1241464E+05  0.2108870E-01 -0.1113892E-02
  0.5142857E+00 -0.1275804E-01  0.2479553E-02  0.1362287E+06  0.1474822E+05 -0.3560384E-02  0.1129150E-02
  0.5452381E+00 -0.6828475E-02 -0.7476807E-03  0.1354990E+06  0.1722870E+05 -0.1007480E-01 -0.1113892E-02
  0.5761905E+00  0.1509485E-01  0.4028320E-02  0.1344884E+06  0.1981559E+05  0.1048695E-01 -0.4272461E-03
  0.6071429E+00 -0.3518497E-02  0.1678467E-02  0.1331534E+06  0.2256575E+05 -0.4523782E-02  0.2136230E-03
  0.6380953E+00  0.5547822E-02 -0.1419067E-02  0.1317073E+06  0.2533172E+05 -0.6026083E-02 -0.2746582E-03
  0.6690477E+00 -0.2773298E-01  0.1831055E-03  0.1300957E+06  0.2817096E+05 -0.9487599E-02  0.4577637E-03
  0.7000000E+00 -0.5231584E-02  0.2914429E-02  0.1282860E+06  0.3109342E+05  0.6539481E-02 -0.6713867E-03
  0.7309524E+00  0.9519097E-02 -0.2532959E-02  0.1264235E+06  0.3401795E+05  0.6847071E-02  0.1037598E-02
  0.7619048E+00 -0.2162933E-02  0.1464844E-02  0.1244327E+06  0.3696429E+05  0.5847930E-02 -0.5157471E-02
  0.7928572E+00 -0.8544921E-02 -0.3051758E-02  0.1223016E+06  0.3992446E+05 -0.4080007E-02  0.3051758E-02
  0.8238096E+00  0.5408491E-02  0.3631592E-02  0.1200983E+06  0.4287338E+05  0.2370845E-02 -0.3662109E-03
  0.8547620E+00 -0.2463508E-01  0.3051758E-04  0.1178814E+06  0.4578584E+05  0.1856557E-02 -0.1281738E-02
  0.8857143E+00  0.1226610E-01  0.3845215E-02  0.1156287E+06  0.4865073E+05 -0.5099389E-02 -0.9765625E-03
  0.9166667E+00 -0.5792791E-02  0.8575439E-02  0.1133384E+06  0.5145934E+05  0.5459872E-02  0.2441406E-03
  0.9476191E+00  0.8437573E-02  0.1525879E-02  0.1109922E+06  0.5420891E+05 -0.7857893E-02  0.9765625E-03
  0.9785714E+00  0.9231010E-02  0.3753662E-02  0.1086382E+06  0.5687851E+05 -0.6237169E-02 -0.6164551E-02
  0.1009524E+01 -0.6106395E-02 -0.8148193E-02  0.1062843E+06  0.5946612E+05  0.5683179E-02  0.1098633E-02
  0.1040476E+01 -0.1407859E-02  0.5126953E-02  0.1039557E+06  0.6194981E+05 -0.1877145E-02  0.1281738E-02
  0.1071429E+01 -0.5639649E-02 -0.4211426E-02  0.1016531E+06  0.6433264E+05  0.7975261E-03 -0.2502441E-02
  0.1102381E+01 -0.3211266E-02 -0.8666992E-02  0.9938834E+05  0.6660805E+05  0.4540066E-02  0.2319336E-02
  0.1133333E+01  0.1669491E-02  0.1892090E-02  0.9716451E+05  0.6876912E+05  0.4416073E-02  0.1647949E-02
  0.1164286E+01 -0.8020693E-02 -0.9155273E-03  0.9500155E+05  0.7082316E+05  0.1782376E-02 -0.1953125E-02
  0.1195238E+01  0.3727765E-02 -0.2685547E-02  0.9287927E+05  0.7276468E+05 -0.2144741E-02  0.1831055E-02
  0.1226190E+01  0.8163304E-02  0.1831055E-03  0.9081613E+05  0.7459984E+05 -0.5475387E-03  0.1464844E-02
  0.1257143E+01 -0.4903620E-02  0.5004883E-02  0.8881638E+05  0.7638622E+05 -0.8447820E-02 -0.1098633E-02
  0.1288095E+01  0.4785788E-02  0.1251221E-01  0.8684762E+05  0.7795905E+05  0.8292207E-02 -0.5371094E-02
  0.1319048E+01  0.1526981E-01 -0.1770020E-02  0.8496307E+05  0.7947360E+05 -0.3933132E-02  0.5493164E-02
  0.1350000E+01  0.7685909E-02 -0.1831055E-02  0.8315462E+05  0.8088344E+05 -0.9856047E-02 -0.3662109E-02
  0.1380952E+01 -0.3093851E-02 -0.1647949E-02  0.8141523E+05  0.8217051E+05  0.1812113E-02  0.1098633E-02
  0.1411905E+01 -0.5014558E-02  0.5249023E-02  0.7958740E+05  0.8339853E+05 -0.2118218E-02 -0.1831055E-02
  0.1442857E+01 -0.2918810E-02  0.9155273E-03  0.7797916E+05  0.8456021E+05  0.5414604E-02  0.2563477E-02
  0.1473810E+01 -0.1014623E-01  0.6103516E-03  0.7644740E+05  0.8563730E+05 -0.5383714E-03 -0.9765625E-03
  0.1504762E+01  0.9491353E-02 -0.7934570E-02  0.7497534E+05  0.8662926E+05  0.8517881E-03 -0.2807617E-02
  0.1535714E+01 -0.1470521E-02  0.4516602E-02  0.7355859E+05  0.8758540E+05 -0.7591070E-02 -0.0000000E+00
  0.1566667E+01 -0.3603671E-02 -0.5249023E-02  0.7220935E+05  0.8846922E+05 -0.4168571E-02  0.3417969E-02
  0.1597619E+01  0.7086809E-02  0.1220703E-02  0.7090179E+05  0.8929047E+05  0.2445045E-02  0.3051758E-02
  0.1628572E+01  0.3710295E-02 -0.1831055E-03  0.6964833E+05  0.9007716E+05  0.3148129E-02  0.4760742E-02
  0.1659524E+01  0.1096006E-01 -0.2807617E-02  0.6842681E+05  0.9083040E+05 -0.2574510E-03 -0.4394531E-02
  0.1690476E+01  0.6065690E-02 -0.6713867E-02  0.6725067E+05  0.9153758E+05 -0.6210112E-02  0.1586914E-02
  0.1721429E+01 -0.7321686E-02  0.6469727E-02  0.6612088E+05  0.9219677E+05 -0.2162823E-02 -0.3662109E-03
  0.1752381E+01 -0.3291420E-02  0.6774902E-02  0.6500935E+05  0.9281965E+05  0.5015498E-02 -0.5859375E-02
  0.1783333E+01  0.8624781E-02  0.1165771E-01  0.6392474E+05  0.9341537E+05  0.6365910E-02  0.2075195E-02
  0.1814286E+01  0.1111849E-01  0.5798340E-02  0.6285576E+05  0.9395509E+05 -0.1312016E-02  0.3662109E-03
  0.1845238E+01 -0.7756584E-02  0.2563477E-02  0.6180813E+05  0.9442205E+05 -0.5986958E-02 -0.2197266E-02
  0.1876190E+01  0.2667577E-02  0.2502441E-02  0.6077386E+05  0.9485205E+05 -0.7384635E-02  0.1220703E-02
  0.1907143E+01  0.1152124E-02 -0.4272461E-02  0.5974650E+05  0.9522123E+05  0.3600389E-02  0.5126953E-02
  0.1938095E+01  0.8802109E-02  0.3662109E-02  0.5872550E+05  0.9551173E+05  0.6692123E-02 -0.3784180E-02
  0.1969048E+01  0.3270215E-02  0.3601074E-02  0.5773972E+05  0.9570767E+05 -0.3719676E-03  0.3540039E-02
  0.2000000E+01 -0.8537292E-02  0.6286621E-02  0.5676531E+05  0.9578486E+05  0.3860474E-02 -0.1831055E-02
Zone t="Motion of body    1 in DoF   3",I=    64,F=POINT
  0.5000000E-01 -0.2217863E+05  0.2025742E-03 -0.3213882E-01 -0.9203864E-04  0.9602243E+05 -0.2008699E-04
  0.8095238E-01 -0.2247388E+05  0.9100558E-03 -0.2688352E-01 -0.1486317E-03  0.9650072E+05  0.1162363E-03
  0.1119048E+00 -0.2262599E+05  0.2495591E-02 -0.8709684E-02 -0.3509614E-04  0.9645216E+05  0.1120301E-03
  0.1428571E+00 -0.2245243E+05  0.5796766E-02  0.1506042E-01  0.4868769E-04  0.9669570E+05  0.2400992E-03
  0.1738095E+00 -0.2255126E+05  0.1203639E-01 -0.1815064E-01 -0.1503632E-03  0.9650316E+05 -0.7438003E-04
  0.2047619E+00 -0.2240336E+05  0.2268473E-01  0.2190878E-01  0.2342218E-03  0.9668712E+05  0.2981087E-03
  0.2357143E+00 -0.2244774E+05  0.4109195E-01  0.7379705E-02  0.2433007E-04  0.9656855E+05  0.6821857E-03
  0.2666667E+00 -0.2245162E+05  0.7282283E-01 -0.3576278E-02 -0.9369000E-04  0.9654131E+05  0.1440809E-02
  0.2976190E+00 -0.2224144E+05  0.1270033E+00  0.2053345E-01  0.7531666E-03  0.9674752E+05  0.2727080E-02
  0.3285715E+00 -0.2225780E+05  0.2185858E+00 -0.1244586E-01 -0.4769875E-03  0.9662430E+05  0.6159381E-02
  0.3595238E+00 -0.2225267E+05  0.3749605E+00  0.2731121E-01  0.1119894E-02  0.9653580E+05  0.1023497E-01
  0.3904762E+00 -0.2213831E+05  0.6397303E+00  0.1060951E-01  0.7554055E-03  0.9662981E+05  0.1930490E-01
  0.4214286E+00 -0.2189329E+05  0.1078618E+01 -0.2264766E-01 -0.1253128E-02  0.9684211E+05  0.3447312E-01
  0.4523810E+00 -0.2192788E+05  0.1802513E+01  0.2175582E-01  0.1876186E-02  0.9666212E+05  0.6217362E-01
  0.4833333E+00 -0.2177616E+05  0.2945524E+01  0.4830196E-02  0.1042709E-02  0.9683092E+05  0.1101630E+00
  0.5142857E+00 -0.2159505E+05  0.4729223E+01 -0.7387797E-02 -0.6101690E-03  0.9696902E+05  0.1884675E+00
  0.5452381E+00 -0.2151770E+05  0.7433732E+01  0.1474839E-01  0.2769403E-02  0.9689598E+05  0.3200603E+00
  0.5761905E+00 -0.2143000E+05  0.1141166E+02 -0.4449008E-02 -0.2448596E-02  0.9684312E+05  0.5271734E+00
  0.6071429E+00 -0.2128490E+05  0.1716591E+02 -0.1656207E-01 -0.3371187E-02  0.9692843E+05  0.8611781E+00
  0.6380953E+00 -0.2111680E+05  0.2528779E+02 -0.9015211E-02 -0.2702802E-02  0.9706683E+05  0.1331690E+01
  0.6690477E+00 -0.2083313E+05  0.3662123E+02 -0.3421010E-02 -0.3026873E-02  0.9719682E+05  0.2082061E+01
  0.7000000E+00 -0.2077695E+05  0.5233756E+02  0.6321498E-02  0.1648933E-02  0.9704502E+05  0.3161561E+01
  0.7309524E+00 -0.2067114E+05  0.7351194E+02 -0.1615742E-01 -0.5511433E-02  0.9704503E+05  0.4666529E+01
  0.7619048E+00 -0.2037640E+05  0.1016399E+03 -0.4686355E-02 -0.1791120E-02  0.9722402E+05  0.6877869E+01
  0.7928572E+00 -0.2015610E+05  0.1390433E+03  0.8660393E-03 -0.4405975E-03  0.9734752E+05  0.9946725E+01
  0.8238096E+00 -0.1984558E+05  0.1878251E+03  0.1229876E-01  0.8845329E-02  0.9745202E+05  0.1433799E+02
  0.8547620E+00 -0.1961319E+05  0.2513362E+03 -0.4998422E-03 -0.3559589E-03  0.9749043E+05  0.2027681E+02
  0.8857143E+00 -0.1936678E+05  0.3327653E+03  0.2060429E-01  0.1395226E-01  0.9746440E+05  0.2839447E+02
  0.9166667E+00 -0.1914705E+05  0.4359897E+03 -0.2287154E-01 -0.1523328E-01  0.9749509E+05  0.3905846E+02
  0.9476191E+00 -0.1882197E+05  0.5646438E+03 -0.1793789E-01 -0.1078486E-01  0.9759441E+05  0.5301845E+02
  0.9785714E+00 -0.1850567E+05  0.7249428E+03 -0.1312924E-01 -0.5976677E-02  0.9777750E+05  0.7186538E+02
  0.1009524E+01 -0.1808442E+05  0.9212051E+03  0.1523576E-01  0.9654999E-02  0.9798520E+05  0.9621307E+02
  0.1040476E+01 -0.1767493E+05  0.1163103E+04  0.5162150E-02  0.1585007E-02  0.9813091E+05  0.1276791E+03
  0.1071429E+01 -0.1731930E+05  0.1457397E+04  0.2136230E-02 -0.9584427E-03  0.9818593E+05  0.1682880E+03
  0.1102381E+01 -0.1698892E+05  0.1810925E+04  0.2029188E-01  0.2484035E-01  0.9818654E+05  0.2192962E+03
  0.1133333E+01 -0.1667521E+05  0.2232313E+04  0.1235962E-01  0.8864403E-02  0.9825527E+05  0.2806677E+03
  0.1164286E+01 -0.1626654E+05  0.2719513E+04  0.2034006E-01  0.2377129E-01  0.9844569E+05  0.3596120E+03
  0.1195238E+01 -0.1587300E+05  0.3291806E+04 -0.2057930E-01 -0.2808571E-01  0.9858748E+05  0.4509190E+03
  0.1226190E+01 -0.1551694E+05  0.3949994E+04  0.1655060E-01  0.2161217E-01  0.9878678E+05  0.5665870E+03
  0.1257143E+01 -0.1515792E+05  0.4707140E+04  0.2694563E-02  0.1979828E-02  0.9893762E+05  0.7006387E+03
  0.1288095E+01 -0.1479993E+05  0.5554258E+04 -0.9832188E-02 -0.2829361E-01  0.9913362E+05  0.8675685E+03
  0.1319048E+01 -0.1446013E+05  0.6507275E+04  0.8791707E-02  0.5523682E-02  0.9933267E+05  0.1052372E+04
  0.1350000E+01 -0.1419126E+05  0.7571214E+04  0.9200484E-02  0.9597778E-02  0.9946741E+05  0.1280258E+04
  0.1380952E+01 -0.1400387E+05  0.8758444E+04  0.4684974E-02 -0.4478455E-02  0.9951203E+05  0.1539603E+04
  0.1411905E+01 -0.1589534E+05  0.8909726E+04  0.3220557E-02  0.8522034E-02  0.9862028E+05  0.1614402E+04
  0.1442857E+01 -0.1579412E+05  0.1016208E+05  0.1505937E-01  0.2450562E-01  0.9869176E+05  0.1908936E+04
  0.1473810E+01 -0.1575856E+05  0.1148562E+05  0.1159569E-02  0.6935120E-02  0.9880650E+05  0.2236916E+04
  0.1504762E+01 -0.1579865E+05  0.1289145E+05 -0.1926664E-02  0.8125305E-02  0.9893840E+05  0.2599468E+04
  0.1535714E+01 -0.1583787E+05  0.1433627E+05  0.1728856E-02 -0.7644653E-02  0.9907230E+05  0.2973621E+04
  0.1566667E+01 -0.1595987E+05  0.1583749E+05 -0.5532123E-02  0.3234863E-02  0.9920698E+05  0.3423126E+04
  0.1597619E+01 -0.1613758E+05  0.1740839E+05 -0.6857586E-02 -0.2532959E-02  0.9927275E+05  0.3875371E+04
  0.1628572E+01 -0.1639407E+05  0.1898628E+05 -0.1405415E-02 -0.6958008E-02  0.9934399E+05  0.4355632E+04
  0.1659524E+01 -0.1668263E+05  0.2056360E+05  0.2464174E-02 -0.1841736E-01  0.9939932E+05  0.4873182E+04
  0.1690476E+01 -0.1704639E+05  0.2214651E+05 -0.2256581E-02  0.9429932E-02  0.9939620E+05  0.5401138E+04
  0.1721429E+01 -0.1749495E+05  0.2372930E+05  0.1138141E-01  0.3742981E-01  0.9939344E+05  0.5954959E+04
  0.1752381E+01 -0.1796363E+05  0.2527896E+05  0.1184215E-02  0.1434326E-02  0.9937579E+05  0.6528172E+04
  0.1783333E+01 -0.1845243E+05  0.2677078E+05 -0.1659928E-02 -0.1586914E-02  0.9937281E+05  0.7122100E+04
  0.1814286E+01 -0.1897391E+05  0.2824718E+05 -0.5937712E-02 -0.2876282E-01  0.9931179E+05  0.7717591E+04
  0.1845238E+01 -0.1952813E+05  0.2969738E+05 -0.1587702E-02  0.4943848E-02  0.9922430E+05  0.8322402E+04
  0.1876190E+01 -0.2013195E+05  0.3106825E+05  0.1496446E-02 -0.1403809E-01  0.9915228E+05  0.8931871E+04
  0.1907143E+01 -0.2073125E+05  0.3238950E+05 -0.3744404E-02  0.6622314E-02  0.9904471E+05  0.9545541E+04
  0.1938095E+01 -0.2133662E+05  0.3362129E+05  0.1102232E-02 -0.2424622E-01  0.9892758E+05  0.1015855E+05
  0.1969048E+01 -0.2196629E+05  0.3479116E+05 -0.3905660E-02  0.1097107E-01  0.9882649E+05  0.1077089E+05
  0.2000000E+01 -0.2261907E+05  0.3590011E+05 -0.2243042E-02  0.5691528E-02  0.9873923E+05  0.1139266E+05
