VARIABLES="w (rad/s)"
"A   1   1" "B   1   1"
"A   1   2" "B   1   2"
"A   1   3" "B   1   3"
Zone t="Motion of body    1 in DoF   1",I=    64,F=POINT
  0.5000000E-01  0.1168883E+05  0.1399305E-03  0.1411438E-02  0.2665375E-05 -0.7809664E+04 -0.7710601E-04
  0.8095238E-01  0.1173940E+05  0.5563810E-03 -0.6479375E-03 -0.5231238E-05 -0.7861777E+04 -0.3159177E-03
  0.1119048E+00  0.1175759E+05  0.1591467E-02  0.3323657E-03 -0.2759120E-05 -0.7905263E+04 -0.8997354E-03
  0.1428571E+00  0.1177886E+05  0.3559251E-02  0.2269745E-03  0.1123160E-05 -0.7920084E+04 -0.2004488E-02
  0.1738095E+00  0.1180022E+05  0.7081640E-02  0.6803747E-03  0.2655201E-05 -0.7924487E+04 -0.3941829E-02
  0.2047619E+00  0.1181782E+05  0.1313330E-01 -0.1751212E-02 -0.1644759E-04 -0.7926257E+04 -0.7296004E-02
  0.2357143E+00  0.1181697E+05  0.2316331E-01 -0.1683091E-02 -0.1820810E-04 -0.7928449E+04 -0.1288790E-01
  0.2666667E+00  0.1183526E+05  0.3957147E-01  0.1423359E-02  0.1531994E-04 -0.7929334E+04 -0.2197762E-01
  0.2976190E+00  0.1185209E+05  0.6650616E-01 -0.1192017E-02 -0.2167479E-05 -0.7931646E+04 -0.3684327E-01
  0.3285715E+00  0.1184883E+05  0.1101994E+00  0.6501570E-03  0.1974811E-04 -0.7935168E+04 -0.6091741E-01
  0.3595238E+00  0.1186736E+05  0.1812965E+00  0.1114094E-02  0.3839401E-04 -0.7936688E+04 -0.9987611E-01
  0.3904762E+00  0.1190359E+05  0.2963659E+00  0.6545461E-03  0.2349471E-04 -0.7932417E+04 -0.1624582E+00
  0.4214286E+00  0.1189926E+05  0.4776532E+00  0.8508714E-03  0.7106224E-04 -0.7945332E+04 -0.2613106E+00
  0.4523810E+00  0.1191448E+05  0.7637135E+00 -0.2361097E-03 -0.7103197E-05 -0.7951708E+04 -0.4164229E+00
  0.4833333E+00  0.1194919E+05  0.1191975E+01  0.9234198E-03  0.1747161E-05 -0.7953348E+04 -0.6466845E+00
  0.5142857E+00  0.1199118E+05  0.1830265E+01  0.6675721E-03  0.1396239E-04 -0.7952691E+04 -0.9873683E+00
  0.5452381E+00  0.1199307E+05  0.2740212E+01  0.1749097E-03 -0.2061203E-04 -0.7962860E+04 -0.1472919E+01
  0.5761905E+00  0.1201847E+05  0.4009931E+01  0.3733989E-02  0.3351159E-03 -0.7964708E+04 -0.2144122E+01
  0.6071429E+00  0.1206790E+05  0.5765388E+01 -0.2764533E-03  0.1326203E-04 -0.7973632E+04 -0.3065070E+01
  0.6380953E+00  0.1210257E+05  0.8103916E+01  0.8369560E-03  0.1598150E-03 -0.7983670E+04 -0.4284428E+01
  0.6690477E+00  0.1212823E+05  0.1119417E+02  0.2075412E-02  0.3402531E-03 -0.7996023E+04 -0.5886525E+01
  0.7000000E+00  0.1215767E+05  0.1523403E+02  0.2354213E-02  0.3339797E-03 -0.8007352E+04 -0.7964944E+01
  0.7309524E+00  0.1219336E+05  0.2041816E+02  0.5218804E-04  0.3698468E-04 -0.8012351E+04 -0.1060464E+02
  0.7619048E+00  0.1224546E+05  0.2702672E+02 -0.9212493E-03 -0.1573265E-03 -0.8024310E+04 -0.1393916E+02
  0.7928572E+00  0.1230497E+05  0.3535710E+02  0.3146609E-02  0.6853640E-03 -0.8036688E+04 -0.1809983E+02
  0.8238096E+00  0.1235012E+05  0.4572115E+02  0.4445335E-03  0.2139807E-03 -0.8055618E+04 -0.2324747E+02
  0.8547620E+00  0.1238478E+05  0.5848632E+02  0.8033178E-03  0.3056526E-03 -0.8073250E+04 -0.2953732E+02
  0.8857143E+00  0.1242965E+05  0.7411498E+02 -0.1033660E-02 -0.3256202E-03 -0.8084014E+04 -0.3713713E+02
  0.9166667E+00  0.1249490E+05  0.9312704E+02  0.4744096E-03  0.1935959E-03 -0.8095268E+04 -0.4625714E+02
  0.9476191E+00  0.1256154E+05  0.1160352E+03 -0.1682684E-02 -0.4179478E-03 -0.8113656E+04 -0.5714863E+02
  0.9785714E+00  0.1262623E+05  0.1434307E+03  0.1247434E-03  0.1074076E-03 -0.8129139E+04 -0.7001656E+02
  0.1009524E+01  0.1269681E+05  0.1760033E+03  0.4836748E-03  0.3421307E-03 -0.8149142E+04 -0.8514573E+02
  0.1040476E+01  0.1276387E+05  0.2144289E+03  0.8065859E-03  0.2162457E-03 -0.8166425E+04 -0.1027650E+03
  0.1071429E+01  0.1282922E+05  0.2594695E+03  0.8972168E-03  0.3747940E-03 -0.8189812E+04 -0.1232195E+03
  0.1102381E+01  0.1289123E+05  0.3119254E+03 -0.1661000E-03 -0.7724762E-04 -0.8206291E+04 -0.1466879E+03
  0.1133333E+01  0.1296123E+05  0.3727784E+03  0.2692727E-03  0.1244545E-03 -0.8222512E+04 -0.1735137E+03
  0.1164286E+01  0.1304375E+05  0.4430696E+03  0.1572685E-03  0.1850128E-03 -0.8238918E+04 -0.2040039E+03
  0.1195238E+01  0.1313029E+05  0.5237747E+03  0.2310704E-02  0.5030632E-03 -0.8252946E+04 -0.2384275E+03
  0.1226190E+01  0.1322291E+05  0.6159952E+03 -0.1617728E-03 -0.9455681E-03 -0.8271234E+04 -0.2771991E+03
  0.1257143E+01  0.1329924E+05  0.7204569E+03 -0.1492934E-02 -0.5798340E-03 -0.8291078E+04 -0.3206196E+03
  0.1288095E+01  0.1338666E+05  0.8389315E+03 -0.3435343E-03 -0.2212524E-03 -0.8305964E+04 -0.3688165E+03
  0.1319048E+01  0.1346576E+05  0.9720484E+03  0.1619525E-03  0.9565353E-03 -0.8326010E+04 -0.4223025E+03
  0.1350000E+01  0.1353912E+05  0.1120947E+04  0.3390842E-03  0.5226135E-03 -0.8339811E+04 -0.4809683E+03
  0.1380952E+01  0.1361598E+05  0.1286933E+04  0.1104947E-02  0.5817413E-03 -0.8348163E+04 -0.5449319E+03
  0.1411905E+01  0.1358979E+05  0.1451199E+04  0.1621085E-03  0.6275177E-03 -0.8348674E+04 -0.6081595E+03
  0.1442857E+01  0.1366703E+05  0.1651678E+04  0.1269048E-02  0.1214981E-02 -0.8356908E+04 -0.6828601E+03
  0.1473810E+01  0.1373855E+05  0.1871897E+04 -0.1542641E-02  0.1316071E-03 -0.8357082E+04 -0.7629691E+03
  0.1504762E+01  0.1380971E+05  0.2113103E+04 -0.2230874E-03  0.1096725E-02 -0.8358175E+04 -0.8489829E+03
  0.1535714E+01  0.1388194E+05  0.2376222E+04  0.5564135E-03  0.7209778E-03 -0.8361621E+04 -0.9409532E+03
  0.1566667E+01  0.1393946E+05  0.2661078E+04  0.2824499E-03  0.7362366E-03 -0.8353625E+04 -0.1037659E+04
  0.1597619E+01  0.1399510E+05  0.2968872E+04 -0.6972198E-03 -0.1113892E-02 -0.8344675E+04 -0.1139509E+04
  0.1628572E+01  0.1404148E+05  0.3299363E+04 -0.1433523E-02 -0.1480103E-02 -0.8334025E+04 -0.1246113E+04
  0.1659524E+01  0.1407353E+05  0.3652794E+04 -0.1967661E-02 -0.2750397E-02 -0.8323168E+04 -0.1357474E+04
  0.1690476E+01  0.1409079E+05  0.4028216E+04 -0.6318428E-03  0.3433228E-04 -0.8304177E+04 -0.1471933E+04
  0.1721429E+01  0.1409446E+05  0.4424934E+04 -0.1453700E-02 -0.1392365E-02 -0.8276731E+04 -0.1588664E+04
  0.1752381E+01  0.1409337E+05  0.4843044E+04 -0.1340949E-02 -0.1533508E-02 -0.8250008E+04 -0.1708272E+04
  0.1783333E+01  0.1408205E+05  0.5280396E+04  0.1848167E-02  0.1930237E-02 -0.8217192E+04 -0.1828887E+04
  0.1814286E+01  0.1405554E+05  0.5735356E+04  0.9083185E-03 -0.4882812E-03 -0.8174560E+04 -0.1948919E+04
  0.1845238E+01  0.1402234E+05  0.6207464E+04 -0.3969254E-03 -0.3433228E-03 -0.8130899E+04 -0.2068866E+04
  0.1876190E+01  0.1397704E+05  0.6693936E+04 -0.1024740E-02 -0.3028870E-02 -0.8084864E+04 -0.2187370E+04
  0.1907143E+01  0.1391745E+05  0.7193651E+04  0.9601036E-04 -0.1602173E-03 -0.8039334E+04 -0.2304562E+04
  0.1938095E+01  0.1384227E+05  0.7703365E+04 -0.1889540E-03  0.2075195E-02 -0.7990307E+04 -0.2418383E+04
  0.1969048E+01  0.1374685E+05  0.8218510E+04  0.8369271E-03  0.4936218E-02 -0.7930312E+04 -0.2524906E+04
  0.2000000E+01  0.1364307E+05  0.8738600E+04 -0.7629395E-04  0.3051758E-03 -0.7871056E+04 -0.2627050E+04
Zone t="Motion of body    1 in DoF   2",I=    64,F=POINT
  0.5000000E-01  0.3585815E-02 -0.1490116E-06  0.9728741E+04  0.1573918E+02  0.1726151E-02 -0.1952052E-05
  0.8095238E-01  0.1390120E-02  0.1072884E-05  0.9682744E+04  0.2614813E+02  0.7186216E-03  0.3367662E-05
  0.1119048E+00 -0.2045327E-03  0.7569790E-05  0.9663323E+04  0.3755346E+02 -0.3067990E-03 -0.9655952E-05
  0.1428571E+00 -0.1121521E-02  0.1788139E-05  0.9659971E+04  0.5042601E+02  0.1428604E-02  0.1287460E-04
  0.1738095E+00 -0.1624120E-02 -0.3218651E-05  0.9670537E+04  0.6537566E+02  0.5377155E-03  0.1668930E-05
  0.2047619E+00 -0.1713952E-02  0.1859665E-04  0.9694893E+04  0.8314037E+02 -0.1425189E-02  0.7152557E-05
  0.2357143E+00 -0.3236713E-03  0.6198883E-05  0.9734782E+04  0.1047998E+03 -0.7120768E-03 -0.1192093E-04
  0.2666667E+00 -0.4291534E-04 -0.1764297E-04  0.9777162E+04  0.1313669E+03  0.2861023E-03 -0.2539158E-04
  0.2976190E+00  0.5126953E-03 -0.5245209E-05  0.9833474E+04  0.1648109E+03  0.4101563E-03  0.3337860E-05
  0.3285715E+00  0.0000000E+00 -0.1430511E-04  0.9900457E+04  0.2065394E+03  0.1973691E-03 -0.2622604E-05
  0.3595238E+00  0.1612783E-02 -0.2908707E-04  0.9961561E+04  0.2590824E+03 -0.3819750E-03 -0.1192093E-04
  0.3904762E+00 -0.2168795E-02  0.1811981E-04  0.1002853E+05  0.3247811E+03  0.7327009E-03 -0.6723404E-04
  0.4214286E+00  0.2027608E-02 -0.9536743E-06  0.1008751E+05  0.4036515E+03 -0.7150940E-03  0.2622604E-04
  0.4523810E+00  0.7251940E-03  0.5817413E-04  0.1014135E+05  0.5000436E+03 -0.6661665E-03 -0.7152557E-04
  0.4833333E+00 -0.1736345E-03 -0.5531311E-04  0.1017017E+05  0.6078450E+03  0.1262796E-03  0.4673004E-04
  0.5142857E+00 -0.1884037E-02  0.8010864E-04  0.1019070E+05  0.7318803E+03  0.1335144E-03 -0.1811981E-04
  0.5452381E+00  0.2042945E-02  0.7247925E-04  0.1020144E+05  0.8673205E+03 -0.7276244E-03 -0.1516342E-03
  0.5761905E+00 -0.1377074E-02  0.1029968E-03  0.1019567E+05  0.1012710E+04 -0.7812247E-03  0.3814697E-04
  0.6071429E+00  0.3015854E-02  0.1907349E-03  0.1017115E+05  0.1171190E+04 -0.7790957E-03 -0.3814697E-04
  0.6380953E+00 -0.4782605E-03  0.1411438E-03  0.1014074E+05  0.1336328E+04  0.6815213E-03  0.8392334E-04
  0.6690477E+00  0.1049110E-02  0.1983643E-03  0.1010544E+05  0.1511273E+04 -0.1459631E-02 -0.3051758E-04
  0.7000000E+00  0.1547677E-02 -0.1182556E-03  0.1006001E+05  0.1696881E+04  0.7629394E-04 -0.5722046E-04
  0.7309524E+00  0.3193908E-02 -0.4196167E-04  0.1000385E+05  0.1889941E+04 -0.8976343E-03  0.1525879E-03
  0.7619048E+00  0.7810592E-03 -0.1335144E-03  0.9936278E+04  0.2091359E+04  0.2042770E-02 -0.1945496E-03
  0.7928572E+00  0.1655097E-02 -0.1869202E-03  0.9860348E+04  0.2300682E+04 -0.7794353E-03  0.1144409E-04
  0.8238096E+00 -0.4630557E-03 -0.4272461E-03  0.9778922E+04  0.2516897E+04  0.2315279E-03  0.5722046E-04
  0.8547620E+00  0.3570301E-03 -0.1831055E-03  0.9692596E+04  0.2739024E+04 -0.1124645E-02  0.2098083E-03
  0.8857143E+00  0.5685129E-03 -0.3280640E-03  0.9598744E+04  0.2966518E+04 -0.2325735E-03  0.2937317E-03
  0.9166667E+00 -0.3995028E-03  0.3433228E-03  0.9496607E+04  0.3198482E+04 -0.8572665E-03 -0.3051758E-04
  0.9476191E+00  0.4830672E-04 -0.1373291E-03  0.9383593E+04  0.3434207E+04 -0.6440895E-03 -0.4577637E-04
  0.9785714E+00  0.1964708E-02  0.7629395E-03  0.9262782E+04  0.3672647E+04 -0.6393099E-03 -0.3204346E-03
  0.1009524E+01 -0.1178957E-02  0.2517700E-03  0.9138486E+04  0.3912424E+04 -0.3174116E-03  0.3623962E-03
  0.1040476E+01 -0.8505814E-03  0.3662109E-03  0.9011769E+04  0.4152708E+04 -0.2053128E-03  0.1373291E-03
  0.1071429E+01  0.8972168E-03  0.2136230E-03  0.8881332E+04  0.4392672E+04 -0.1139323E-03 -0.9155273E-04
  0.1102381E+01  0.1384167E-04 -0.4119873E-03  0.8746333E+04  0.4631977E+04  0.6643999E-03  0.1518250E-02
  0.1133333E+01 -0.2975464E-02  0.5950928E-03  0.8606291E+04  0.4869769E+04  0.3365910E-03 -0.1754761E-03
  0.1164286E+01 -0.5504397E-03  0.6408691E-03  0.8462290E+04  0.5105123E+04 -0.1061562E-02  0.4501343E-03
  0.1195238E+01 -0.1276632E-02  0.3356934E-03  0.8314673E+04  0.5337322E+04  0.2553263E-04  0.4119873E-03
  0.1226190E+01  0.6844234E-03  0.1373291E-03  0.8164723E+04  0.5565266E+04  0.5350946E-03 -0.3051758E-04
  0.1257143E+01 -0.1213767E-03 -0.2746582E-03  0.8012797E+04  0.5793397E+04 -0.9467385E-03 -0.5874634E-03
  0.1288095E+01 -0.7936826E-03 -0.2441406E-03  0.7861259E+04  0.6006138E+04 -0.1089833E-02 -0.4959106E-03
  0.1319048E+01 -0.1087395E-02 -0.4119873E-03  0.7710739E+04  0.6217256E+04  0.5899697E-03 -0.2212524E-03
  0.1350000E+01  0.7911965E-03  0.2258301E-02  0.7560084E+04  0.6421948E+04 -0.8703161E-03 -0.7629395E-03
  0.1380952E+01  0.3314840E-03 -0.5035400E-03  0.7411573E+04  0.6619049E+04  0.1005502E-02 -0.6484985E-03
  0.1411905E+01  0.7997355E-03  0.4119873E-03  0.7233747E+04  0.6794267E+04 -0.8645789E-04 -0.7629395E-03
  0.1442857E+01 -0.5076191E-03  0.8697510E-03  0.7085143E+04  0.6978261E+04 -0.4230159E-04 -0.3204346E-03
  0.1473810E+01  0.5797846E-03  0.1785278E-02  0.6935767E+04  0.7155449E+04 -0.8593237E-03 -0.2593994E-03
  0.1504762E+01 -0.1216840E-03  0.2700806E-02  0.6788229E+04  0.7324579E+04 -0.9633318E-03 -0.7019043E-03
  0.1535714E+01  0.1152571E-02  0.3356934E-03  0.6642707E+04  0.7484744E+04 -0.8445562E-03 -0.2441406E-03
  0.1566667E+01 -0.4480240E-03  0.2029419E-02  0.6498552E+04  0.7637147E+04  0.9739652E-05 -0.1434326E-02
  0.1597619E+01 -0.2674268E-03  0.1647949E-02  0.6358570E+04  0.7779455E+04 -0.1241624E-03 -0.2593994E-03
  0.1628572E+01 -0.1433523E-02 -0.1831055E-03  0.6221333E+04  0.7912423E+04 -0.1218026E-03  0.6103516E-04
  0.1659524E+01  0.5240967E-03 -0.8850098E-03  0.6087694E+04  0.8036476E+04 -0.2850351E-03  0.1678467E-03
  0.1690476E+01 -0.1038027E-02 -0.1922607E-02  0.5956748E+04  0.8152191E+04  0.1074133E-02 -0.4577637E-03
  0.1721429E+01 -0.1045955E-02 -0.3967285E-03  0.5828695E+04  0.8259741E+04  0.4343373E-03 -0.9307861E-03
  0.1752381E+01 -0.7662566E-03  0.1800537E-02  0.5705188E+04  0.8357782E+04 -0.3221761E-03 -0.8544922E-03
  0.1783333E+01 -0.3593659E-03  0.1678467E-02  0.5584067E+04  0.8448181E+04  0.2738026E-03 -0.1220703E-03
  0.1814286E+01 -0.4541592E-03  0.1159668E-02  0.5465587E+04  0.8531049E+04  0.7317010E-03 -0.1983643E-03
  0.1845238E+01  0.5457724E-03  0.3051758E-03  0.5351329E+04  0.8604937E+04 -0.2067320E-03 -0.7019043E-03
  0.1876190E+01 -0.5449014E-03  0.4272461E-03  0.5239808E+04  0.8670759E+04 -0.7888871E-03  0.5493164E-03
  0.1907143E+01 -0.9601036E-04  0.1129150E-02  0.5132050E+04  0.8728708E+04  0.2480268E-03  0.6866455E-03
  0.1938095E+01 -0.9447702E-04 -0.8544922E-03  0.5028157E+04  0.8779455E+04 -0.1369917E-02 -0.9155273E-04
  0.1969048E+01  0.8059298E-03  0.7019043E-03  0.4925941E+04  0.8823286E+04  0.4649595E-04 -0.2441406E-03
  0.2000000E+01  0.7171631E-03  0.1434326E-02  0.4828954E+04  0.8858775E+04  0.6332397E-03  0.2593994E-03
Zone t="Motion of body    1 in DoF   3",I=    64,F=POINT
  0.5000000E-01 -0.7802705E+04 -0.7835093E-04 -0.2434850E-03 -0.1528907E-05  0.1354908E+05  0.3861534E-04
  0.8095238E-01 -0.7856110E+04 -0.3135802E-03  0.1044063E-02  0.3495158E-05  0.1360924E+05  0.1906773E-03
  0.1119048E+00 -0.7902435E+04 -0.8980177E-03 -0.5832378E-04 -0.8083316E-07  0.1362942E+05  0.5029709E-03
  0.1428571E+00 -0.7918535E+04 -0.1994602E-02  0.6373227E-03  0.3117491E-05  0.1363266E+05  0.1132599E-02
  0.1738095E+00 -0.7924007E+04 -0.3923419E-02 -0.8720731E-03 -0.8080246E-05  0.1363212E+05  0.2170163E-02
  0.2047619E+00 -0.7926208E+04 -0.7274114E-02 -0.1052008E-02 -0.6823764E-05  0.1363218E+05  0.4008323E-02
  0.2357143E+00 -0.7927986E+04 -0.1283729E-01  0.8900960E-04  0.1142446E-04  0.1363349E+05  0.7124063E-02
  0.2666667E+00 -0.7929263E+04 -0.2189456E-01 -0.1445934E-02 -0.3029071E-04  0.1363265E+05  0.1216515E-01
  0.2976190E+00 -0.7931835E+04 -0.3670942E-01 -0.2709475E-02 -0.3245941E-04  0.1363312E+05  0.2034720E-01
  0.3285715E+00 -0.7934601E+04 -0.6065819E-01  0.2377499E-02  0.6154203E-04  0.1363386E+05  0.3354616E-01
  0.3595238E+00 -0.7936458E+04 -0.9948925E-01  0.6285014E-03  0.1347542E-04  0.1363385E+05  0.5482138E-01
  0.3904762E+00 -0.7932125E+04 -0.1620299E+00 -0.2566743E-02 -0.6637303E-04  0.1363625E+05  0.8880806E-01
  0.4214286E+00 -0.7945118E+04 -0.2602367E+00 -0.1467951E-02 -0.5350425E-04  0.1363516E+05  0.1423468E+00
  0.4523810E+00 -0.7951303E+04 -0.4146806E+00 -0.1428253E-03 -0.2365047E-04  0.1363799E+05  0.2261850E+00
  0.4833333E+00 -0.7953480E+04 -0.6444639E+00 -0.2952280E-02 -0.1917901E-03  0.1363799E+05  0.3496490E+00
  0.5142857E+00 -0.7952902E+04 -0.9851829E+00 -0.1311965E-03 -0.1548976E-04  0.1364037E+05  0.5313823E+00
  0.5452381E+00 -0.7961887E+04 -0.1467950E+01 -0.2481531E-03  0.4954077E-04  0.1364385E+05  0.7889160E+00
  0.5761905E+00 -0.7962075E+04 -0.2137749E+01 -0.8517749E-03 -0.7054396E-04  0.1365189E+05  0.1143037E+01
  0.6071429E+00 -0.7972531E+04 -0.3057997E+01 -0.1374413E-04 -0.6825104E-04  0.1365245E+05  0.1626065E+01
  0.6380953E+00 -0.7983424E+04 -0.4274490E+01 -0.3176322E-02 -0.4428960E-03  0.1365401E+05  0.2260056E+01
  0.6690477E+00 -0.7995452E+04 -0.5869532E+01 -0.1275751E-02 -0.4352629E-04  0.1365766E+05  0.3086675E+01
  0.7000000E+00 -0.8005702E+04 -0.7938902E+01 -0.1502548E-02 -0.2021715E-03  0.1366304E+05  0.4151287E+01
  0.7309524E+00 -0.8009922E+04 -0.1057361E+02 -0.2756181E-04 -0.6797910E-04  0.1366853E+05  0.5492014E+01
  0.7619048E+00 -0.8022608E+04 -0.1390303E+02 -0.1069654E-02 -0.2538711E-03  0.1367169E+05  0.7170804E+01
  0.7928572E+00 -0.8036190E+04 -0.1806179E+02 -0.2159310E-02 -0.4565716E-03  0.1367372E+05  0.9246196E+01
  0.8238096E+00 -0.8055612E+04 -0.2318404E+02 -0.2787812E-02 -0.7857680E-03  0.1367737E+05  0.1178835E+02
  0.8547620E+00 -0.8072238E+04 -0.2942938E+02  0.9853195E-04 -0.3576279E-04  0.1368377E+05  0.1486367E+02
  0.8857143E+00 -0.8081384E+04 -0.3700252E+02 -0.1887506E-02 -0.5944073E-03  0.1369251E+05  0.1854192E+02
  0.9166667E+00 -0.8092680E+04 -0.4612036E+02 -0.1711737E-02 -0.4835725E-03  0.1369777E+05  0.2290801E+02
  0.9476191E+00 -0.8111781E+04 -0.5698073E+02 -0.2643761E-02 -0.6420016E-03  0.1370276E+05  0.2806096E+02
  0.9785714E+00 -0.8127780E+04 -0.6981948E+02 -0.2953336E-02 -0.1048207E-02  0.1370697E+05  0.3407842E+02
  0.1009524E+01 -0.8148320E+04 -0.8489367E+02 -0.2261617E-02 -0.1040459E-02  0.1371133E+05  0.4106511E+02
  0.1040476E+01 -0.8165466E+04 -0.1024501E+03 -0.2357889E-03  0.5209446E-04  0.1371737E+05  0.4909999E+02
  0.1071429E+01 -0.8188449E+04 -0.1227377E+03 -0.1839606E-02 -0.7066727E-03  0.1372067E+05  0.5829501E+02
  0.1102381E+01 -0.8203593E+04 -0.1460771E+03 -0.5867569E-03 -0.2337694E-03  0.1372867E+05  0.6870415E+02
  0.1133333E+01 -0.8219059E+04 -0.1727958E+03  0.8007709E-03  0.3919601E-03  0.1373690E+05  0.8042956E+02
  0.1164286E+01 -0.8235636E+04 -0.2032164E+03 -0.3095609E-02 -0.1615047E-02  0.1374120E+05  0.9354844E+02
  0.1195238E+01 -0.8250107E+04 -0.2376412E+03 -0.1623317E-02 -0.9779930E-03  0.1374583E+05  0.1081372E+03
  0.1226190E+01 -0.8269274E+04 -0.2763176E+03  0.1875553E-02  0.1248598E-02  0.1374548E+05  0.1242876E+03
  0.1257143E+01 -0.8289302E+04 -0.3193668E+03 -0.7070194E-03 -0.5192757E-03  0.1374944E+05  0.1420691E+03
  0.1288095E+01 -0.8304520E+04 -0.3674264E+03 -0.5097486E-03 -0.6608963E-03  0.1374924E+05  0.1614941E+03
  0.1319048E+01 -0.8323958E+04 -0.4203324E+03 -0.9326728E-04  0.2655983E-03  0.1375183E+05  0.1826274E+03
  0.1350000E+01 -0.8336834E+04 -0.4784693E+03 -0.1260616E-02 -0.1016140E-02  0.1375328E+05  0.2053650E+03
  0.1380952E+01 -0.8344212E+04 -0.5422382E+03 -0.1620819E-02 -0.8392334E-03  0.1375746E+05  0.2296727E+03
  0.1411905E+01 -0.8418302E+04 -0.6186245E+03 -0.1624463E-03 -0.4177094E-03  0.1376010E+05  0.2592486E+03
  0.1442857E+01 -0.8426926E+04 -0.6947716E+03 -0.3833582E-03 -0.7190704E-03  0.1376052E+05  0.2871154E+03
  0.1473810E+01 -0.8428439E+04 -0.7767368E+03  0.1091626E-02  0.1353264E-02  0.1375472E+05  0.3162986E+03
  0.1504762E+01 -0.8430659E+04 -0.8646263E+03 -0.2211860E-03 -0.4997253E-03  0.1375037E+05  0.3469384E+03
  0.1535714E+01 -0.8434641E+04 -0.9581379E+03 -0.7650685E-03  0.4348755E-03  0.1374385E+05  0.3788226E+03
  0.1566667E+01 -0.8427937E+04 -0.1057228E+04  0.1558344E-03  0.2880096E-03  0.1373578E+05  0.4116288E+03
  0.1597619E+01 -0.8419872E+04 -0.1161600E+04  0.2948858E-03  0.7629395E-03  0.1372840E+05  0.4453034E+03
  0.1628572E+01 -0.8409749E+04 -0.1270177E+04  0.1622083E-03  0.1348495E-02  0.1371494E+05  0.4793581E+03
  0.1659524E+01 -0.8398489E+04 -0.1382817E+04  0.2384870E-03 -0.8583069E-04  0.1370392E+05  0.5138944E+03
  0.1690476E+01 -0.8379247E+04 -0.1499091E+04 -0.7773923E-03 -0.6122589E-03  0.1369126E+05  0.5481670E+03
  0.1721429E+01 -0.8351924E+04 -0.1618725E+04  0.1062021E-02  0.1552582E-02  0.1367795E+05  0.5818069E+03
  0.1752381E+01 -0.8324584E+04 -0.1740800E+04  0.3657134E-03  0.1470566E-02  0.1366589E+05  0.6146833E+03
  0.1783333E+01 -0.8291252E+04 -0.1864018E+04 -0.1532653E-02 -0.2254486E-02  0.1364921E+05  0.6459566E+03
  0.1814286E+01 -0.8249128E+04 -0.1988320E+04 -0.1652635E-02 -0.2649307E-02  0.1363173E+05  0.6755984E+03
  0.1845238E+01 -0.8205585E+04 -0.2112092E+04  0.8424329E-04  0.2956390E-03  0.1361349E+05  0.7034936E+03
  0.1876190E+01 -0.8159395E+04 -0.2233030E+04  0.4473071E-04 -0.2975464E-03  0.1358929E+05  0.7287437E+03
  0.1907143E+01 -0.8113089E+04 -0.2351326E+04  0.4475483E-03  0.7514954E-03  0.1356673E+05  0.7519088E+03
  0.1938095E+01 -0.8063479E+04 -0.2466435E+04 -0.9239804E-03 -0.1281738E-02  0.1354698E+05  0.7730174E+03
  0.1969048E+01 -0.8004225E+04 -0.2576490E+04 -0.7163282E-03 -0.2395630E-02  0.1352186E+05  0.7898228E+03
  0.2000000E+01 -0.7945303E+04 -0.2682145E+04 -0.2666116E-03 -0.8888245E-03  0.1350093E+05  0.8041649E+03
