VARIABLES="w (rad/s)"
"A   1   1" "B   1   1"
"A   1   2" "B   1   2"
"A   1   3" "B   1   3"
Zone t="Motion of body    1 in DoF   1",I=    64,F=POINT
  0.5000000E-01  0.6077094E+05  0.3890671E-02  0.2136230E-02  0.3969180E-06 -0.9352335E+05 -0.5465710E-02
  0.8095238E-01  0.6110611E+05  0.1712872E-01  0.1696418E-02  0.8314120E-05 -0.9400670E+05 -0.2409803E-01
  0.1119048E+00  0.6144545E+05  0.4825439E-01  0.1056752E-02  0.1930207E-04 -0.9455767E+05 -0.6790903E-01
  0.1428571E+00  0.6138100E+05  0.1084953E+00  0.2243042E-02  0.2223311E-04 -0.9449266E+05 -0.1526872E+00
  0.1738095E+00  0.6155473E+05  0.2161966E+00  0.3160450E-02  0.7067807E-05 -0.9468988E+05 -0.3042099E+00
  0.2047619E+00  0.6166857E+05  0.3992172E+00  0.1415874E-02  0.5466864E-05 -0.9485018E+05 -0.5616670E+00
  0.2357143E+00  0.6175709E+05  0.7034140E+00  0.5955551E-02  0.9305123E-04 -0.9494046E+05 -0.9895341E+00
  0.2666667E+00  0.6193618E+05  0.1201876E+01 -0.7209777E-02 -0.1393259E-03 -0.9517895E+05 -0.1690794E+01
  0.2976190E+00  0.6206111E+05  0.2017725E+01 -0.3588867E-03  0.2316944E-04 -0.9532830E+05 -0.2838267E+01
  0.3285715E+00  0.6225681E+05  0.3343567E+01 -0.1068115E-02 -0.3950670E-04 -0.9561909E+05 -0.4703814E+01
  0.3595238E+00  0.6249856E+05  0.5499831E+01  0.1527900E-02 -0.8156896E-04 -0.9583111E+05 -0.7732588E+01
  0.3904762E+00  0.6269920E+05  0.8978696E+01  0.1563095E-03 -0.9191036E-04 -0.9616134E+05 -0.1262636E+02
  0.4214286E+00  0.6286298E+05  0.1446425E+02  0.1194841E-02  0.7662177E-04 -0.9640559E+05 -0.2034177E+02
  0.4523810E+00  0.6330417E+05  0.2313770E+02 -0.2900776E-02 -0.2206862E-03 -0.9699414E+05 -0.3253390E+02
  0.4833333E+00  0.6357781E+05  0.3606354E+02  0.2178324E-02 -0.1747012E-03 -0.9730061E+05 -0.5068954E+02
  0.5142857E+00  0.6396705E+05  0.5532986E+02 -0.4331801E-02 -0.8056164E-03 -0.9783012E+05 -0.7776148E+02
  0.5452381E+00  0.6424352E+05  0.8281077E+02  0.5121356E-02  0.1167774E-02 -0.9825007E+05 -0.1163917E+03
  0.5761905E+00  0.6467979E+05  0.1211549E+03  0.3124899E-02  0.4981756E-03 -0.9872262E+05 -0.1701598E+03
  0.6071429E+00  0.6527736E+05  0.1741983E+03  0.2865062E-02  0.1022816E-03 -0.9954553E+05 -0.2446188E+03
  0.6380953E+00  0.6566572E+05  0.2446175E+03  0.4256519E-02  0.1325607E-03 -0.1000473E+06 -0.3433923E+03
  0.6690477E+00  0.6608072E+05  0.3376351E+03  0.6522725E-02  0.1396656E-02 -0.1006158E+06 -0.4738798E+03
  0.7000000E+00  0.6678287E+05  0.4598657E+03 -0.2920968E-02 -0.2398491E-03 -0.1016118E+06 -0.6453265E+03
  0.7309524E+00  0.6741684E+05  0.6164622E+03  0.3423535E-02  0.2222061E-03 -0.1023769E+06 -0.8643867E+03
  0.7619048E+00  0.6806609E+05  0.8156833E+03  0.2363205E-02 -0.1974106E-03 -0.1031791E+06 -0.1142890E+04
  0.7928572E+00  0.6885847E+05  0.1067234E+04  0.5619633E-02  0.2723694E-02 -0.1042197E+06 -0.1494501E+04
  0.8238096E+00  0.6954468E+05  0.1379698E+04  0.2222667E-03  0.5607605E-03 -0.1052418E+06 -0.1932055E+04
  0.8547620E+00  0.7021553E+05  0.1764174E+04  0.3927331E-02  0.3009796E-02 -0.1061507E+06 -0.2469200E+04
  0.8857143E+00  0.7106071E+05  0.2235657E+04  0.1895043E-02 -0.9346008E-03 -0.1071718E+06 -0.3125250E+04
  0.9166667E+00  0.7210352E+05  0.2810654E+04  0.2330433E-02  0.1811981E-02 -0.1085294E+06 -0.3925523E+04
  0.9476191E+00  0.7304299E+05  0.3501021E+04  0.4315400E-02  0.3982544E-02 -0.1097836E+06 -0.4886001E+04
  0.9785714E+00  0.7391179E+05  0.4323777E+04  0.4303647E-02  0.2521515E-02 -0.1108581E+06 -0.6027354E+04
  0.1009524E+01  0.7479998E+05  0.5299146E+04  0.6045936E-02  0.4165649E-02 -0.1120229E+06 -0.7380632E+04
  0.1040476E+01  0.7572811E+05  0.6447095E+04  0.9444388E-02  0.6523132E-02 -0.1131971E+06 -0.8969419E+04
  0.1071429E+01  0.7675020E+05  0.7790531E+04  0.3304037E-02  0.4035950E-02 -0.1146705E+06 -0.1083341E+05
  0.1102381E+01  0.7769284E+05  0.9340363E+04  0.2602233E-02  0.1823425E-02 -0.1158314E+06 -0.1296731E+05
  0.1133333E+01  0.7860741E+05  0.1112424E+05 -0.2854291E-02 -0.1556396E-02 -0.1169284E+06 -0.1541859E+05
  0.1164286E+01  0.7949710E+05  0.1316430E+05  0.2096913E-03 -0.1068115E-03 -0.1179988E+06 -0.1821686E+05
  0.1195238E+01  0.8034606E+05  0.1547937E+05 -0.5821441E-02 -0.9658813E-02 -0.1189045E+06 -0.2137361E+05
  0.1226190E+01  0.8121314E+05  0.1810005E+05  0.3086127E-02  0.8560181E-02 -0.1200363E+06 -0.2496223E+05
  0.1257143E+01  0.8171638E+05  0.2099815E+05  0.2621737E-02 -0.3814697E-03 -0.1206464E+06 -0.2891866E+05
  0.1288095E+01  0.8220248E+05  0.2422068E+05  0.1847978E-02 -0.3860474E-02 -0.1211409E+06 -0.3329507E+05
  0.1319048E+01  0.8242880E+05  0.2774020E+05 -0.7403542E-03 -0.3967285E-03 -0.1213764E+06 -0.3807883E+05
  0.1350000E+01  0.8251520E+05  0.3155026E+05  0.1989294E-02 -0.3479004E-02 -0.1213281E+06 -0.4321680E+05
  0.1380952E+01  0.8247598E+05  0.3564136E+05  0.1767915E-03 -0.3387451E-02 -0.1209674E+06 -0.4867034E+05
  0.1411905E+01  0.8216386E+05  0.4000832E+05  0.1945303E-02  0.1892090E-02 -0.1205375E+06 -0.5455555E+05
  0.1442857E+01  0.8164559E+05  0.4459914E+05  0.1142143E-02  0.3173828E-02 -0.1196865E+06 -0.6068134E+05
  0.1473810E+01  0.8082163E+05  0.4935764E+05 -0.3934253E-02 -0.2288818E-02 -0.1183446E+06 -0.6697377E+05
  0.1504762E+01  0.7970632E+05  0.5424683E+05  0.1095156E-02  0.1037598E-02 -0.1166248E+06 -0.7341035E+05
  0.1535714E+01  0.7832469E+05  0.5921256E+05 -0.1430777E-02 -0.1708984E-02 -0.1146021E+06 -0.7992963E+05
  0.1566667E+01  0.7671896E+05  0.6415867E+05  0.2103765E-02 -0.1831055E-02 -0.1121611E+06 -0.8629946E+05
  0.1597619E+01  0.7492836E+05  0.6905159E+05  0.1528153E-02 -0.1403809E-02 -0.1094534E+06 -0.9251938E+05
  0.1628572E+01  0.7301316E+05  0.7389658E+05  0.2548485E-02  0.8117676E-02 -0.1067606E+06 -0.9873980E+05
  0.1659524E+01  0.7079004E+05  0.7850448E+05 -0.4781233E-03  0.1586914E-02 -0.1036532E+06 -0.1045806E+06
  0.1690476E+01  0.6836045E+05  0.8283608E+05  0.1805265E-03 -0.7751465E-02 -0.1002314E+06 -0.1099598E+06
  0.1721429E+01  0.6573766E+05  0.8681688E+05  0.1630981E-02  0.5676270E-02 -0.9651603E+05 -0.1147764E+06
  0.1752381E+01  0.6306035E+05  0.9047120E+05  0.9404059E-03  0.3784180E-02 -0.9280528E+05 -0.1191437E+06
  0.1783333E+01  0.6034426E+05  0.9375634E+05  0.9240837E-03 -0.7324219E-02 -0.8907062E+05 -0.1229699E+06
  0.1814286E+01  0.5759066E+05  0.9661619E+05 -0.1009243E-02  0.3417969E-02 -0.8522384E+05 -0.1260797E+06
  0.1845238E+01  0.5487366E+05  0.9909884E+05  0.8103893E-03  0.6774902E-02 -0.8146969E+05 -0.1286707E+06
  0.1876190E+01  0.5223816E+05  0.1012705E+06  0.1154866E-02 -0.3356934E-02 -0.7797573E+05 -0.1309951E+06
  0.1907143E+01  0.4962092E+05  0.1029933E+06  0.4480483E-03  0.1892090E-02 -0.7454216E+05 -0.1326919E+06
  0.1938095E+01  0.4704001E+05  0.1042467E+06 -0.1338425E-02  0.4699707E-02 -0.7112788E+05 -0.1336464E+06
  0.1969048E+01  0.4453350E+05  0.1050681E+06 -0.1394878E-02  0.1708984E-02 -0.6778603E+05 -0.1339310E+06
  0.2000000E+01  0.4213711E+05  0.1055564E+06 -0.1846313E-02  0.3112793E-02 -0.6464171E+05 -0.1338306E+06
Zone t="Motion of body    1 in DoF   2",I=    64,F=POINT
  0.5000000E-01  0.2174377E-02 -0.5960464E-06  0.5253847E+05  0.7953465E+02  0.5798340E-02 -0.3337860E-04
  0.8095238E-01 -0.9400984E-02 -0.9536743E-06  0.5222900E+05  0.1317606E+03  0.1507927E-02 -0.2479553E-04
  0.1119048E+00  0.3204346E-02 -0.1287460E-04  0.5199980E+05  0.1884374E+03 -0.1636262E-02  0.1087189E-03
  0.1428571E+00 -0.2349854E-02  0.2622604E-04  0.5189647E+05  0.2516917E+03 -0.1495361E-02  0.1907349E-04
  0.1738095E+00 -0.2743447E-02  0.8201599E-04  0.5191511E+05  0.3239869E+03  0.4916256E-02 -0.5149841E-04
  0.2047619E+00  0.7079368E-03  0.3528595E-04  0.5183730E+05  0.4087356E+03  0.1490393E-02 -0.8201599E-04
  0.2357143E+00 -0.1294685E-03  0.8201599E-04  0.5188977E+05  0.5103626E+03 -0.3625118E-02 -0.7629395E-05
  0.2666667E+00  0.1945495E-02  0.1125336E-03  0.5196917E+05  0.6324694E+03  0.6866454E-03 -0.7629395E-05
  0.2976190E+00  0.3665772E-02 -0.4100800E-04  0.5203778E+05  0.7838576E+03 -0.2050781E-02 -0.6484985E-04
  0.3285715E+00  0.1393194E-03  0.6294250E-04  0.5215029E+05  0.9683724E+03 -0.1486073E-02  0.6103516E-04
  0.3595238E+00 -0.3331671E-02 -0.8773804E-04  0.5222996E+05  0.1196229E+04 -0.6790666E-03  0.3128052E-03
  0.3904762E+00  0.2403259E-02 -0.2479553E-04  0.5227823E+05  0.1474158E+04 -0.1469310E-01 -0.2136230E-03
  0.4214286E+00 -0.2027608E-02  0.1525879E-04  0.5234514E+05  0.1798067E+04  0.7241458E-02 -0.3356934E-03
  0.4523810E+00  0.3946404E-02 -0.1068115E-03  0.5221396E+05  0.2186118E+04  0.3777755E-02  0.6256104E-03
  0.4833333E+00  0.3062281E-02 -0.1182556E-03  0.5223339E+05  0.2599240E+04  0.2020474E-02 -0.7934570E-03
  0.5142857E+00  0.8900961E-04  0.1754761E-03  0.5185328E+05  0.3062574E+04 -0.2373589E-02  0.1785278E-02
  0.5452381E+00  0.8395666E-03 -0.8544922E-03  0.5159959E+05  0.3544485E+04 -0.6492648E-02 -0.8544922E-03
  0.5761905E+00  0.8050587E-02  0.3814697E-04  0.5128371E+05  0.4034407E+04  0.1228774E-01  0.3662109E-03
  0.6071429E+00 -0.3744686E-02 -0.3051758E-03  0.5078238E+05  0.4550110E+04  0.1286765E-01  0.1190186E-02
  0.6380953E+00 -0.2463042E-02 -0.1411438E-02  0.5043375E+05  0.5046181E+04  0.3060868E-02 -0.1251221E-02
  0.6690477E+00 -0.3899951E-02 -0.7629395E-04  0.4993387E+05  0.5542471E+04  0.1094723E-02  0.3662109E-02
  0.7000000E+00  0.3945487E-02  0.5798340E-03  0.4935346E+05  0.6043598E+04 -0.2441406E-02  0.3662109E-03
  0.7309524E+00  0.2630277E-02 -0.5493164E-03  0.4888399E+05  0.6519558E+04  0.8016082E-02  0.1037598E-02
  0.7619048E+00 -0.2142906E-02 -0.1739502E-02  0.4841123E+05  0.6977460E+04  0.3204345E-02 -0.3051758E-03
  0.7928572E+00 -0.1077738E-02  0.1388550E-02  0.4773574E+05  0.7421358E+04 -0.2463401E-02  0.3662109E-03
  0.8238096E+00  0.1129856E-02  0.1770020E-02  0.4715316E+05  0.7838031E+04  0.1481778E-02  0.1403809E-02
  0.8547620E+00  0.4034440E-02 -0.2441406E-02  0.4669593E+05  0.8216832E+04 -0.2284993E-02  0.2929688E-02
  0.8857143E+00  0.1033660E-03  0.3662109E-03  0.4610879E+05  0.8565380E+04 -0.3583354E-02 -0.6713867E-03
  0.9166667E+00 -0.5826083E-03  0.3341675E-02  0.4546709E+05  0.8882398E+04  0.2397017E-02  0.4394531E-02
  0.9476191E+00 -0.3623004E-02 -0.1342773E-02  0.4489798E+05  0.9160110E+04  0.5152716E-02 -0.5737305E-02
  0.9785714E+00 -0.2183009E-03  0.2746582E-03  0.4442849E+05  0.9389008E+04 -0.2993841E-02  0.6286621E-02
  0.1009524E+01 -0.6499381E-03 -0.4791260E-02  0.4398619E+05  0.9570397E+04  0.2176537E-02  0.2319336E-02
  0.1040476E+01  0.4223577E-02 -0.5187988E-03  0.4334702E+05  0.9709718E+04  0.2581075E-02 -0.1000977E-01
  0.1071429E+01  0.3417969E-02  0.4119873E-02  0.4282595E+05  0.9814871E+04  0.6835938E-03 -0.2746582E-02
  0.1102381E+01  0.1661000E-03  0.1708984E-02  0.4237493E+05  0.9872291E+04  0.5979599E-02 -0.4882812E-02
  0.1133333E+01  0.4981546E-03  0.1434326E-02  0.4203078E+05  0.9885284E+04 -0.9693819E-02  0.1019287E-01
  0.1164286E+01  0.1074668E-02 -0.5798340E-03  0.4171275E+05  0.9850813E+04  0.1048457E-02 -0.4577637E-02
  0.1195238E+01  0.8042780E-03 -0.4302979E-02  0.4119958E+05  0.9762321E+04  0.8374704E-02  0.3295898E-02
  0.1226190E+01 -0.1928829E-03 -0.6805420E-02  0.4081023E+05  0.9655394E+04  0.7964199E-03  0.8850098E-02
  0.1257143E+01 -0.2105886E-02  0.2746582E-03  0.4048050E+05  0.9514832E+04 -0.2136230E-02 -0.3479004E-02
  0.1288095E+01  0.2144128E-02 -0.2441406E-03  0.4023022E+05  0.9328643E+04 -0.3790723E-03  0.2441406E-03
  0.1319048E+01 -0.3267970E-03 -0.4882812E-03  0.4009736E+05  0.9131114E+04  0.6478099E-02  0.7873535E-02
  0.1350000E+01 -0.7177282E-03 -0.1220703E-02  0.3990143E+05  0.8882004E+04  0.1446759E-02 -0.2929688E-02
  0.1380952E+01 -0.9972145E-03 -0.4058838E-02  0.3958671E+05  0.8569517E+04  0.4066204E-02  0.1464844E-02
  0.1411905E+01  0.2836900E-03  0.7324219E-03  0.3937802E+05  0.8277177E+04  0.3112484E-02  0.1220703E-03
  0.1442857E+01  0.2908565E-02  0.1617432E-02  0.3922392E+05  0.7975287E+04 -0.4060953E-02  0.4699707E-02
  0.1473810E+01  0.2299726E-02 -0.1861572E-02  0.3912631E+05  0.7656891E+04 -0.1822180E-02  0.1214600E-01
  0.1504762E+01  0.1656677E-02 -0.2288818E-02  0.3911621E+05  0.7359871E+04 -0.3731643E-02  0.8300781E-02
  0.1535714E+01  0.6632250E-03  0.1220703E-03  0.3918633E+05  0.7081083E+04  0.1112827E-02  0.7324219E-03
  0.1566667E+01 -0.8765687E-03  0.3662109E-03  0.3908713E+05  0.6683075E+04 -0.7791722E-03 -0.1049805E-01
  0.1597619E+01  0.5109761E-03  0.4577637E-02  0.3896948E+05  0.6244363E+04 -0.7640765E-03  0.1342773E-02
  0.1628572E+01 -0.1358568E-03 -0.2716064E-02  0.3893329E+05  0.5882726E+04  0.2998218E-03  0.6195068E-02
  0.1659524E+01  0.3310085E-03  0.1800537E-02  0.3893179E+05  0.5536246E+04  0.4119216E-02 -0.1525879E-02
  0.1690476E+01 -0.9928958E-03 -0.1831055E-02  0.3896488E+05  0.5198220E+04  0.0000000E+00  0.6103516E-03
  0.1721429E+01  0.1772805E-03 -0.8544922E-03  0.3904395E+05  0.4895237E+04  0.2269191E-02  0.8514404E-02
  0.1752381E+01 -0.9316984E-03 -0.1708984E-02  0.3917057E+05  0.4662465E+04  0.3622304E-02  0.3906250E-02
  0.1783333E+01  0.9411963E-03  0.4486084E-02  0.3931093E+05  0.4440372E+04  0.1916618E-02 -0.3601074E-02
  0.1814286E+01 -0.5298525E-03 -0.2441406E-02  0.3931966E+05  0.4013487E+04 -0.2691314E-03 -0.8239746E-03
  0.1845238E+01  0.4465411E-03  0.1495361E-02  0.3934469E+05  0.3590712E+04 -0.5292339E-03 -0.3692627E-02
  0.1876190E+01  0.2033214E-03  0.1007080E-02  0.3941056E+05  0.3285395E+04 -0.1821760E-02  0.3051758E-03
  0.1907143E+01 -0.5840631E-03 -0.1495361E-02  0.3949023E+05  0.3020646E+04 -0.2560276E-03  0.7934570E-03
  0.1938095E+01  0.9290241E-03 -0.1525879E-02  0.3958350E+05  0.2775368E+04  0.2771326E-02  0.3799438E-02
  0.1969048E+01  0.9841643E-03 -0.1800537E-02  0.3969231E+05  0.2555974E+04 -0.2479784E-03 -0.7781982E-03
  0.2000000E+01 -0.7629395E-04 -0.5218506E-02  0.3981469E+05  0.2405464E+04  0.4638672E-02  0.3631592E-02
Zone t="Motion of body    1 in DoF   3",I=    64,F=POINT
  0.5000000E-01 -0.9353696E+05 -0.5463248E-02 -0.1449585E-01 -0.1197825E-04  0.2010140E+06  0.7659985E-02
  0.8095238E-01 -0.9404217E+05 -0.2402883E-01 -0.1366559E-02 -0.2436573E-06  0.2017761E+06  0.3378915E-01
  0.1119048E+00 -0.9465111E+05 -0.6771272E-01 -0.2965724E-02 -0.2424896E-04  0.2025865E+06  0.9532481E-01
  0.1428571E+00 -0.9456783E+05 -0.1522093E+00 -0.1126861E-01 -0.1035756E-03  0.2025465E+06  0.2141132E+00
  0.1738095E+00 -0.9474292E+05 -0.3033170E+00 -0.2207926E-01 -0.2013915E-03  0.2028831E+06  0.4268026E+00
  0.2047619E+00 -0.9493918E+05 -0.5599437E+00 -0.2757228E-02  0.4972983E-04  0.2030425E+06  0.7878315E+00
  0.2357143E+00 -0.9500933E+05 -0.9866341E+00 -0.2531109E-01 -0.3372570E-03  0.2030409E+06  0.1387653E+01
  0.2666667E+00 -0.9525186E+05 -0.1685883E+01 -0.2803802E-02 -0.8966774E-04  0.2034442E+06  0.2371660E+01
  0.2976190E+00 -0.9540063E+05 -0.2829870E+01  0.7639160E-02  0.2926774E-03  0.2035802E+06  0.3980690E+01
  0.3285715E+00 -0.9569630E+05 -0.4689259E+01  0.1114555E-01  0.4833043E-03  0.2040433E+06  0.6597377E+01
  0.3595238E+00 -0.9589422E+05 -0.7712687E+01 -0.6069158E-02 -0.2802163E-04  0.2041208E+06  0.1084382E+02
  0.3904762E+00 -0.9624720E+05 -0.1258968E+02 -0.4220357E-02 -0.1008362E-03  0.2046987E+06  0.1770454E+02
  0.4214286E+00 -0.9645545E+05 -0.2027909E+02 -0.2567097E-01 -0.1694411E-02  0.2051138E+06  0.2851888E+02
  0.4523810E+00 -0.9709142E+05 -0.3243319E+02  0.8533678E-02  0.4980266E-03  0.2058283E+06  0.4560253E+02
  0.4833333E+00 -0.9733042E+05 -0.5054506E+02 -0.1471158E-01 -0.7178187E-03  0.2064005E+06  0.7104405E+02
  0.5142857E+00 -0.9791830E+05 -0.7752914E+02 -0.2634684E-01 -0.2599955E-02  0.2068627E+06  0.1089613E+03
  0.5452381E+00 -0.9832302E+05 -0.1160076E+03 -0.1830255E-01 -0.2627373E-02  0.2075494E+06  0.1630495E+03
  0.5761905E+00 -0.9876618E+05 -0.1696824E+03  0.4449008E-02  0.5378723E-03  0.2080270E+06  0.2383170E+03
  0.6071429E+00 -0.9963848E+05 -0.2439030E+03 -0.2664005E-02  0.1339912E-03  0.2091375E+06  0.3425060E+03
  0.6380953E+00 -0.1000956E+06 -0.3423799E+03 -0.1152608E-01 -0.2010822E-02  0.2099220E+06  0.4806373E+03
  0.6690477E+00 -0.1006554E+06 -0.4723844E+03 -0.2677510E-01 -0.5669117E-02  0.2105666E+06  0.6630151E+03
  0.7000000E+00 -0.1016963E+06 -0.6430853E+03 -0.1220703E-02  0.1167297E-02  0.2119573E+06  0.9024318E+03
  0.7309524E+00 -0.1024324E+06 -0.8616792E+03 -0.2229473E-01 -0.5399704E-02  0.2129399E+06  0.1208230E+04
  0.7619048E+00 -0.1031989E+06 -0.1139625E+04 -0.1445961E-01 -0.1217842E-02  0.2140159E+06  0.1596794E+04
  0.7928572E+00 -0.1042807E+06 -0.1490158E+04 -0.2363325E-01 -0.7501602E-02  0.2152080E+06  0.2086765E+04
  0.8238096E+00 -0.1053083E+06 -0.1925207E+04 -0.1074289E-02 -0.2536774E-03  0.2167799E+06  0.2696028E+04
  0.8547620E+00 -0.1061670E+06 -0.2460038E+04 -0.4534283E-02 -0.5971909E-02  0.2181373E+06  0.3443215E+04
  0.8857143E+00 -0.1071792E+06 -0.3114773E+04 -0.2418764E-01 -0.9365082E-02  0.2192572E+06  0.4353984E+04
  0.9166667E+00 -0.1085789E+06 -0.3912447E+04 -0.1331676E-03  0.3574371E-02  0.2209057E+06  0.5464221E+04
  0.9476191E+00 -0.1098422E+06 -0.4869057E+04 -0.1806671E-01 -0.6931305E-02  0.2226571E+06  0.6795187E+04
  0.9785714E+00 -0.1108756E+06 -0.6007969E+04 -0.7453417E-02 -0.1136780E-02  0.2240740E+06  0.8375295E+04
  0.1009524E+01 -0.1119995E+06 -0.7356572E+04 -0.9613038E-02 -0.9696960E-02  0.2257369E+06  0.1024678E+05
  0.1040476E+01 -0.1131900E+06 -0.8939533E+04 -0.2014998E-01 -0.1731873E-01  0.2269330E+06  0.1243713E+05
  0.1071429E+01 -0.1146923E+06 -0.1078851E+05 -0.3873698E-02 -0.1000214E-01  0.2290862E+06  0.1500265E+05
  0.1102381E+01 -0.1158474E+06 -0.1291380E+05 -0.1190383E-01 -0.9460449E-02  0.2304858E+06  0.1792705E+05
  0.1133333E+01 -0.1169121E+06 -0.1535889E+05 -0.3419764E-02  0.6530762E-02  0.2319138E+06  0.2128759E+05
  0.1164286E+01 -0.1179548E+06 -0.1815050E+05 -0.6500431E-02 -0.9674072E-02  0.2333197E+06  0.2511777E+05
  0.1195238E+01 -0.1188841E+06 -0.2130463E+05  0.1506425E-02  0.1020813E-01  0.2339325E+06  0.2941424E+05
  0.1226190E+01 -0.1200446E+06 -0.2487156E+05 -0.2812358E-02 -0.3372192E-02  0.2354299E+06  0.3430009E+05
  0.1257143E+01 -0.1206465E+06 -0.2880288E+05 -0.1315724E-01 -0.1339722E-01  0.2362319E+06  0.3966866E+05
  0.1288095E+01 -0.1211138E+06 -0.3316360E+05 -0.8244823E-02 -0.9521484E-02  0.2367014E+06  0.4559207E+05
  0.1319048E+01 -0.1213056E+06 -0.3791720E+05  0.2452423E-02  0.7720947E-02  0.2371186E+06  0.5205984E+05
  0.1350000E+01 -0.1212412E+06 -0.4302909E+05 -0.7550275E-02  0.2685547E-02  0.2368341E+06  0.5894818E+05
  0.1380952E+01 -0.1209037E+06 -0.4846849E+05 -0.9369949E-02  0.1068115E-02  0.2356336E+06  0.6617161E+05
  0.1411905E+01 -0.1204701E+06 -0.5427073E+05 -0.1577857E-01 -0.1470947E-01  0.2349660E+06  0.7399233E+05
  0.1442857E+01 -0.1196348E+06 -0.6034923E+05 -0.2834207E-02 -0.3295898E-02  0.2337249E+06  0.8210825E+05
  0.1473810E+01 -0.1182839E+06 -0.6660534E+05  0.6087739E-02  0.1770020E-02  0.2316206E+06  0.9037523E+05
  0.1504762E+01 -0.1165418E+06 -0.7300758E+05 -0.3082662E-02  0.4028320E-02  0.2291627E+06  0.9881152E+05
  0.1535714E+01 -0.1144894E+06 -0.7948288E+05 -0.3974382E-03 -0.1953125E-01  0.2264858E+06  0.1073356E+06
  0.1566667E+01 -0.1120613E+06 -0.8582187E+05 -0.1172654E-01 -0.5004883E-02  0.2226952E+06  0.1154460E+06
  0.1597619E+01 -0.1093819E+06 -0.9201546E+05 -0.6380038E-02 -0.2746582E-02  0.2184099E+06  0.1232328E+06
  0.1628572E+01 -0.1067486E+06 -0.9816562E+05 -0.1150566E-01 -0.1831055E-02  0.2147112E+06  0.1311282E+06
  0.1659524E+01 -0.1036837E+06 -0.1039456E+06  0.3898544E-02 -0.1495361E-01  0.2105446E+06  0.1384624E+06
  0.1690476E+01 -0.1002788E+06 -0.1092750E+06  0.7004429E-02 -0.1220703E-03  0.2058160E+06  0.1450480E+06
  0.1721429E+01 -0.9654902E+05 -0.1140634E+06 -0.1021136E-01 -0.6530762E-02  0.2006506E+06  0.1508023E+06
  0.1752381E+01 -0.9283815E+05 -0.1184095E+06 -0.6965969E-03  0.8728027E-02  0.1957887E+06  0.1560116E+06
  0.1783333E+01 -0.8910538E+05 -0.1222277E+06 -0.4791545E-02  0.4028320E-02  0.1909264E+06  0.1604609E+06
  0.1814286E+01 -0.8528127E+05 -0.1253226E+06 -0.1211091E-02 -0.6225586E-02  0.1853532E+06  0.1635332E+06
  0.1845238E+01 -0.8155177E+05 -0.1278897E+06 -0.1038621E-01 -0.1489258E-01  0.1799492E+06  0.1658785E+06
  0.1876190E+01 -0.7813213E+05 -0.1301587E+06 -0.4944777E-02  0.5065918E-02  0.1754312E+06  0.1682275E+06
  0.1907143E+01 -0.7477306E+05 -0.1318257E+06  0.8960967E-03 -0.5371094E-02  0.1711570E+06  0.1698008E+06
  0.1938095E+01 -0.7139367E+05 -0.1327633E+06  0.7180254E-02 -0.3662109E-02  0.1667484E+06  0.1701587E+06
  0.1969048E+01 -0.6804570E+05 -0.1330347E+06  0.2293800E-02 -0.7568359E-02  0.1623223E+06  0.1694890E+06
  0.2000000E+01 -0.6489971E+05 -0.1329375E+06  0.1708984E-02  0.2014160E-02  0.1583969E+06  0.1685844E+06
