VARIABLES="w (rad/s)"
"abs(F   1   1)" "angle(F   1   1)"
"abs(F   1   2)" "angle(F   1   2)"
"abs(F   1   3)" "angle(F   1   3)"
Zone t="Diffraction force - beta =   0.000 deg",I=    64,F=POINT
  0.5000000E-01  0.1130487E+04 -0.1570794E+01  0.3103540E+03 -0.3085401E+01  0.2174074E+02 -0.1570794E+01
  0.8095238E-01  0.1848727E+04 -0.1570791E+01  0.8032047E+03 -0.3083317E+01  0.3528958E+02 -0.1570789E+01
  0.1119048E+00  0.2575100E+04 -0.1570785E+01  0.1523720E+04 -0.3080799E+01  0.4936833E+02 -0.1570782E+01
  0.1428571E+00  0.3340685E+04 -0.1570777E+01  0.2473526E+04 -0.3077667E+01  0.6473542E+02 -0.1570771E+01
  0.1738095E+00  0.4122253E+04 -0.1570764E+01  0.3657271E+04 -0.3073764E+01  0.8000917E+02 -0.1570755E+01
  0.2047619E+00  0.4961488E+04 -0.1570746E+01  0.5079907E+04 -0.3068889E+01  0.9706381E+02 -0.1570733E+01
  0.2357143E+00  0.5839968E+04 -0.1570720E+01  0.6748206E+04 -0.3062761E+01  0.1152323E+03 -0.1570698E+01
  0.2666667E+00  0.6785474E+04 -0.1570681E+01  0.8669957E+04 -0.3055346E+01  0.1342741E+03 -0.1570648E+01
  0.2976190E+00  0.7829771E+04 -0.1570624E+01  0.1084996E+05 -0.3046012E+01  0.1570311E+03 -0.1570577E+01
  0.3285715E+00  0.8945259E+04 -0.1570538E+01  0.1329632E+05 -0.3034880E+01  0.1821256E+03 -0.1570471E+01
  0.3595238E+00  0.1017729E+05 -0.1570410E+01  0.1600588E+05 -0.3021370E+01  0.2084025E+03 -0.1570306E+01
  0.3904762E+00  0.1156263E+05 -0.1570219E+01  0.1898538E+05 -0.3005404E+01  0.2420662E+03 -0.1570071E+01
  0.4214286E+00  0.1309584E+05 -0.1569940E+01  0.2218262E+05 -0.2987472E+01  0.2789084E+03 -0.1569726E+01
  0.4523810E+00  0.1471954E+05 -0.1569527E+01  0.2562474E+05 -0.2966766E+01  0.3131904E+03 -0.1569200E+01
  0.4833333E+00  0.1656172E+05 -0.1568959E+01  0.2923943E+05 -0.2945824E+01  0.3611169E+03 -0.1568510E+01
  0.5142857E+00  0.1858400E+05 -0.1568173E+01  0.3300965E+05 -0.2923016E+01  0.4134556E+03 -0.1567553E+01
  0.5452381E+00  0.2070632E+05 -0.1567121E+01  0.3692312E+05 -0.2900280E+01  0.4699593E+03 -0.1566279E+01
  0.5761905E+00  0.2290222E+05 -0.1565745E+01  0.4095452E+05 -0.2877985E+01  0.5207275E+03 -0.1564540E+01
  0.6071429E+00  0.2528679E+05 -0.1563982E+01  0.4506762E+05 -0.2854931E+01  0.5869434E+03 -0.1562409E+01
  0.6380953E+00  0.2784031E+05 -0.1561798E+01  0.4929382E+05 -0.2833363E+01  0.6665717E+03 -0.1559863E+01
  0.6690477E+00  0.3048677E+05 -0.1559090E+01  0.5357011E+05 -0.2811893E+01  0.7451794E+03 -0.1556645E+01
  0.7000000E+00  0.3312034E+05 -0.1555732E+01  0.5787293E+05 -0.2790190E+01  0.8155197E+03 -0.1552491E+01
  0.7309524E+00  0.3584000E+05 -0.1551691E+01  0.6224805E+05 -0.2769534E+01  0.9013450E+03 -0.1547692E+01
  0.7619048E+00  0.3873695E+05 -0.1546906E+01  0.6663448E+05 -0.2749212E+01  0.9961094E+03 -0.1542071E+01
  0.7928572E+00  0.4174918E+05 -0.1541271E+01  0.7099202E+05 -0.2728997E+01  0.1096654E+04 -0.1535451E+01
  0.8238096E+00  0.4480789E+05 -0.1534666E+01  0.7531692E+05 -0.2709086E+01  0.1211936E+04 -0.1527960E+01
  0.8547620E+00  0.4789104E+05 -0.1526988E+01  0.7962409E+05 -0.2689846E+01  0.1328371E+04 -0.1519175E+01
  0.8857143E+00  0.5091381E+05 -0.1518080E+01  0.8387564E+05 -0.2671097E+01  0.1427637E+04 -0.1508398E+01
  0.9166667E+00  0.5395997E+05 -0.1507932E+01  0.8806222E+05 -0.2652866E+01  0.1538137E+04 -0.1496385E+01
  0.9476191E+00  0.5706850E+05 -0.1496542E+01  0.9214166E+05 -0.2634908E+01  0.1672052E+04 -0.1483629E+01
  0.9785714E+00  0.6024673E+05 -0.1483878E+01  0.9612034E+05 -0.2617493E+01  0.1819504E+04 -0.1469703E+01
  0.1009524E+01  0.6339375E+05 -0.1469812E+01  0.9997451E+05 -0.2600519E+01  0.1963554E+04 -0.1453972E+01
  0.1040476E+01  0.6643911E+05 -0.1454224E+01  0.1036944E+06 -0.2584024E+01  0.2104731E+04 -0.1436357E+01
  0.1071429E+01  0.6931512E+05 -0.1436999E+01  0.1072641E+06 -0.2567948E+01  0.2246707E+04 -0.1416888E+01
  0.1102381E+01  0.7196012E+05 -0.1418043E+01  0.1106952E+06 -0.2552516E+01  0.2381994E+04 -0.1395173E+01
  0.1133333E+01  0.7440088E+05 -0.1397446E+01  0.1139753E+06 -0.2537743E+01  0.2521743E+04 -0.1372064E+01
  0.1164286E+01  0.7667566E+05 -0.1375485E+01  0.1170998E+06 -0.2523558E+01  0.2656121E+04 -0.1347323E+01
  0.1195238E+01  0.7869859E+05 -0.1352115E+01  0.1200384E+06 -0.2509755E+01  0.2781929E+04 -0.1320979E+01
  0.1226190E+01  0.8043633E+05 -0.1327396E+01  0.1227890E+06 -0.2496413E+01  0.2909346E+04 -0.1293266E+01
  0.1257143E+01  0.8175413E+05 -0.1300943E+01  0.1253740E+06 -0.2483263E+01  0.3030695E+04 -0.1263864E+01
  0.1288095E+01  0.8274296E+05 -0.1273710E+01  0.1277029E+06 -0.2471089E+01  0.3153088E+04 -0.1234401E+01
  0.1319048E+01  0.8327113E+05 -0.1245105E+01  0.1298664E+06 -0.2459286E+01  0.3256764E+04 -0.1203525E+01
  0.1350000E+01  0.8333488E+05 -0.1215624E+01  0.1318219E+06 -0.2447933E+01  0.3332737E+04 -0.1170704E+01
  0.1380952E+01  0.8289302E+05 -0.1185315E+01  0.1335641E+06 -0.2437148E+01  0.3379160E+04 -0.1136170E+01
  0.1411905E+01  0.8145256E+05 -0.1154446E+01  0.1349709E+06 -0.2426316E+01  0.3353822E+04 -0.1096804E+01
  0.1442857E+01  0.7994224E+05 -0.1122671E+01  0.1362777E+06 -0.2416216E+01  0.3373980E+04 -0.1061144E+01
  0.1473810E+01  0.7790948E+05 -0.1090567E+01  0.1373762E+06 -0.2406687E+01  0.3376901E+04 -0.1026496E+01
  0.1504762E+01  0.7535071E+05 -0.1058319E+01  0.1382578E+06 -0.2397700E+01  0.3353652E+04 -0.9916097E+00
  0.1535714E+01  0.7227175E+05 -0.1025974E+01  0.1389162E+06 -0.2389204E+01  0.3292282E+04 -0.9556224E+00
  0.1566667E+01  0.6866492E+05 -0.9933767E+00  0.1393531E+06 -0.2381112E+01  0.3197155E+04 -0.9180524E+00
  0.1597619E+01  0.6456118E+05 -0.9605967E+00  0.1395730E+06 -0.2373449E+01  0.3068455E+04 -0.8793652E+00
  0.1628572E+01  0.6000670E+05 -0.9278481E+00  0.1395720E+06 -0.2366194E+01  0.2915776E+04 -0.8413005E+00
  0.1659524E+01  0.5501216E+05 -0.8947455E+00  0.1393518E+06 -0.2359265E+01  0.2739536E+04 -0.8044435E+00
  0.1690476E+01  0.4962644E+05 -0.8610973E+00  0.1389239E+06 -0.2352874E+01  0.2533039E+04 -0.7666929E+00
  0.1721429E+01  0.4388765E+05 -0.8264425E+00  0.1382799E+06 -0.2346989E+01  0.2297386E+04 -0.7271097E+00
  0.1752381E+01  0.3785124E+05 -0.7900699E+00  0.1374171E+06 -0.2341694E+01  0.2029934E+04 -0.6837524E+00
  0.1783333E+01  0.3155203E+05 -0.7501259E+00  0.1363367E+06 -0.2336865E+01  0.1727785E+04 -0.6329604E+00
  0.1814286E+01  0.2502594E+05 -0.7025180E+00  0.1350541E+06 -0.2332452E+01  0.1391831E+04 -0.5676401E+00
  0.1845238E+01  0.1833093E+05 -0.6378751E+00  0.1335731E+06 -0.2328503E+01  0.1033073E+04 -0.4733280E+00
  0.1876190E+01  0.1155856E+05 -0.5243335E+00  0.1318903E+06 -0.2324999E+01  0.6635814E+03 -0.2991106E+00
  0.1907143E+01  0.5046072E+04 -0.1595644E+00  0.1300156E+06 -0.2321786E+01  0.3279850E+03  0.2210255E+00
  0.1938095E+01  0.4028726E+04  0.1645298E+01  0.1279499E+06 -0.2319236E+01  0.3365689E+03  0.1645773E+01
  0.1969048E+01  0.1041597E+05  0.2161104E+01  0.1256982E+06 -0.2317283E+01  0.7127077E+03  0.2162450E+01
  0.2000000E+01  0.1739714E+05  0.2289997E+01  0.1232582E+06 -0.2316073E+01  0.1163598E+04  0.2326316E+01
