VARIABLES="w (rad/s)"
"abs(F   1   1)" "angle(F   1   1)"
"abs(F   1   2)" "angle(F   1   2)"
"abs(F   1   3)" "angle(F   1   3)"
Zone t="Diffraction force - beta =   0.000 deg",I=    64,F=POINT
  0.5000000E-01  0.1818250E+04 -0.1570794E+01  0.2380263E+03 -0.3074503E+01  0.2751765E+04  0.1570798E+01
  0.8095238E-01  0.2978401E+04 -0.1570791E+01  0.6143037E+03 -0.3071816E+01  0.4500341E+04  0.1570801E+01
  0.1119048E+00  0.4156130E+04 -0.1570785E+01  0.1164360E+04 -0.3068732E+01  0.6270187E+04  0.1570806E+01
  0.1428571E+00  0.5379598E+04 -0.1570776E+01  0.1889184E+04 -0.3064930E+01  0.8082164E+04  0.1570814E+01
  0.1738095E+00  0.6634502E+04 -0.1570763E+01  0.2794949E+04 -0.3060292E+01  0.9962638E+04  0.1570825E+01
  0.2047619E+00  0.7966583E+04 -0.1570744E+01  0.3885191E+04 -0.3054501E+01  0.1191768E+05  0.1570841E+01
  0.2357143E+00  0.9376156E+04 -0.1570717E+01  0.5167287E+04 -0.3047252E+01  0.1398049E+05  0.1570864E+01
  0.2666667E+00  0.1086326E+05 -0.1570676E+01  0.6651667E+04 -0.3038556E+01  0.1616927E+05  0.1570897E+01
  0.2976190E+00  0.1249486E+05 -0.1570617E+01  0.8338811E+04 -0.3027562E+01  0.1850141E+05  0.1570947E+01
  0.3285715E+00  0.1427768E+05 -0.1570529E+01  0.1024564E+05 -0.3014570E+01  0.2101607E+05  0.1571021E+01
  0.3595238E+00  0.1618911E+05 -0.1570397E+01  0.1236948E+05 -0.2998831E+01  0.2375639E+05  0.1571131E+01
  0.3904762E+00  0.1832450E+05 -0.1570202E+01  0.1471986E+05 -0.2980304E+01  0.2670539E+05  0.1571294E+01
  0.4214286E+00  0.2068085E+05 -0.1569917E+01  0.1723932E+05 -0.2959349E+01  0.2994550E+05  0.1571532E+01
  0.4523810E+00  0.2323710E+05 -0.1569499E+01  0.1998604E+05 -0.2935456E+01  0.3345727E+05  0.1571879E+01
  0.4833333E+00  0.2599737E+05 -0.1568923E+01  0.2288132E+05 -0.2911250E+01  0.3721607E+05  0.1572356E+01
  0.5142857E+00  0.2902003E+05 -0.1568127E+01  0.2590933E+05 -0.2884846E+01  0.4119817E+05  0.1573015E+01
  0.5452381E+00  0.3227219E+05 -0.1567076E+01  0.2906769E+05 -0.2858601E+01  0.4541014E+05  0.1573885E+01
  0.5761905E+00  0.3560969E+05 -0.1565709E+01  0.3234133E+05 -0.2832935E+01  0.4979066E+05  0.1575005E+01
  0.6071429E+00  0.3910605E+05 -0.1563955E+01  0.3572064E+05 -0.2806723E+01  0.5423993E+05  0.1576442E+01
  0.6380953E+00  0.4281367E+05 -0.1561791E+01  0.3919723E+05 -0.2781967E+01  0.5879959E+05  0.1578212E+01
  0.6690477E+00  0.4662397E+05 -0.1559123E+01  0.4271423E+05 -0.2757143E+01  0.6338892E+05  0.1580387E+01
  0.7000000E+00  0.5053997E+05 -0.1555868E+01  0.4630088E+05 -0.2732411E+01  0.6800588E+05  0.1583030E+01
  0.7309524E+00  0.5449888E+05 -0.1551964E+01  0.4997801E+05 -0.2708966E+01  0.7267117E+05  0.1586171E+01
  0.7619048E+00  0.5847409E+05 -0.1547316E+01  0.5369194E+05 -0.2685919E+01  0.7719412E+05  0.1589893E+01
  0.7928572E+00  0.6259141E+05 -0.1541878E+01  0.5741008E+05 -0.2662977E+01  0.8165970E+05  0.1594243E+01
  0.8238096E+00  0.6680611E+05 -0.1535574E+01  0.6112930E+05 -0.2640383E+01  0.8601279E+05  0.1599277E+01
  0.8547620E+00  0.7102402E+05 -0.1528310E+01  0.6484675E+05 -0.2618375E+01  0.9034650E+05  0.1605022E+01
  0.8857143E+00  0.7515676E+05 -0.1519976E+01  0.6855805E+05 -0.2597067E+01  0.9444006E+05  0.1611555E+01
  0.9166667E+00  0.7922084E+05 -0.1510518E+01  0.7226509E+05 -0.2576627E+01  0.9839256E+05  0.1618882E+01
  0.9476191E+00  0.8322564E+05 -0.1499915E+01  0.7593748E+05 -0.2556790E+01  0.1020129E+06  0.1627048E+01
  0.9785714E+00  0.8717378E+05 -0.1488150E+01  0.7954499E+05 -0.2537321E+01  0.1054342E+06  0.1636036E+01
  0.1009524E+01  0.9097468E+05 -0.1475160E+01  0.8306905E+05 -0.2518096E+01  0.1084344E+06  0.1645896E+01
  0.1040476E+01  0.9467538E+05 -0.1460976E+01  0.8651765E+05 -0.2499473E+01  0.1112698E+06  0.1656522E+01
  0.1071429E+01  0.9811002E+05 -0.1445517E+01  0.8987420E+05 -0.2481354E+01  0.1135969E+06  0.1667961E+01
  0.1102381E+01  0.1013134E+06 -0.1428861E+01  0.9315767E+05 -0.2464284E+01  0.1155759E+06  0.1680060E+01
  0.1133333E+01  0.1041302E+06 -0.1410896E+01  0.9634568E+05 -0.2447919E+01  0.1172393E+06  0.1692737E+01
  0.1164286E+01  0.1064646E+06 -0.1391644E+01  0.9942962E+05 -0.2432187E+01  0.1182468E+06  0.1705974E+01
  0.1195238E+01  0.1084511E+06 -0.1371410E+01  0.1024156E+06 -0.2417285E+01  0.1188491E+06  0.1719533E+01
  0.1226190E+01  0.1099616E+06 -0.1350235E+01  0.1052737E+06 -0.2402783E+01  0.1188233E+06  0.1733344E+01
  0.1257143E+01  0.1110123E+06 -0.1328155E+01  0.1080384E+06 -0.2388714E+01  0.1182991E+06  0.1747280E+01
  0.1288095E+01  0.1116012E+06 -0.1305836E+01  0.1105859E+06 -0.2375533E+01  0.1173849E+06  0.1760678E+01
  0.1319048E+01  0.1115293E+06 -0.1282621E+01  0.1130234E+06 -0.2362540E+01  0.1159733E+06  0.1773778E+01
  0.1350000E+01  0.1108093E+06 -0.1258973E+01  0.1153063E+06 -0.2350076E+01  0.1139495E+06  0.1786201E+01
  0.1380952E+01  0.1095538E+06 -0.1235348E+01  0.1174466E+06 -0.2338732E+01  0.1116031E+06  0.1797562E+01
  0.1411905E+01  0.1067510E+06 -0.1213551E+01  0.1187116E+06 -0.2325501E+01  0.1085931E+06  0.1805361E+01
  0.1442857E+01  0.1042695E+06 -0.1190418E+01  0.1205258E+06 -0.2315039E+01  0.1053061E+06  0.1813851E+01
  0.1473810E+01  0.1011948E+06 -0.1167894E+01  0.1221668E+06 -0.2305173E+01  0.1017209E+06  0.1820316E+01
  0.1504762E+01  0.9750378E+05 -0.1145964E+01  0.1236519E+06 -0.2295772E+01  0.9792749E+05  0.1824662E+01
  0.1535714E+01  0.9319291E+05 -0.1124953E+01  0.1249588E+06 -0.2286632E+01  0.9381118E+05  0.1826446E+01
  0.1566667E+01  0.8834809E+05 -0.1105269E+01  0.1260943E+06 -0.2278117E+01  0.8955648E+05  0.1825427E+01
  0.1597619E+01  0.8304501E+05 -0.1087356E+01  0.1270641E+06 -0.2270259E+01  0.8531312E+05  0.1821271E+01
  0.1628572E+01  0.7724059E+05 -0.1071459E+01  0.1278468E+06 -0.2262684E+01  0.8092473E+05  0.1813595E+01
  0.1659524E+01  0.7104007E+05 -0.1058276E+01  0.1284487E+06 -0.2255801E+01  0.7659977E+05  0.1802318E+01
  0.1690476E+01  0.6448091E+05 -0.1048653E+01  0.1288558E+06 -0.2249467E+01  0.7233307E+05  0.1786994E+01
  0.1721429E+01  0.5762753E+05 -0.1043538E+01  0.1290855E+06 -0.2243725E+01  0.6826503E+05  0.1767906E+01
  0.1752381E+01  0.5050068E+05 -0.1044354E+01  0.1291352E+06 -0.2238403E+01  0.6437637E+05  0.1745094E+01
  0.1783333E+01  0.4314196E+05 -0.1054006E+01  0.1289732E+06 -0.2233386E+01  0.6060784E+05  0.1717936E+01
  0.1814286E+01  0.3567770E+05 -0.1077749E+01  0.1286328E+06 -0.2229135E+01  0.5716109E+05  0.1687696E+01
  0.1845238E+01  0.2818904E+05 -0.1126284E+01  0.1281200E+06 -0.2225468E+01  0.5399862E+05  0.1654383E+01
  0.1876190E+01  0.2079124E+05 -0.1224698E+01  0.1274086E+06 -0.2222118E+01  0.5106929E+05  0.1618261E+01
  0.1907143E+01  0.1390950E+05 -0.1445590E+01  0.1265046E+06 -0.2219349E+01  0.4843483E+05  0.1580587E+01
  0.1938095E+01  0.9032680E+04 -0.2003823E+01  0.1254066E+06 -0.2217158E+01  0.4605037E+05  0.1541836E+01
  0.1969048E+01  0.9884174E+04 -0.2857853E+01  0.1241037E+06 -0.2215681E+01  0.4387537E+05  0.1502691E+01
  0.2000000E+01  0.1549250E+05  0.2980880E+01  0.1226579E+06 -0.2214428E+01  0.4194898E+05  0.1465208E+01
