VARIABLES="w (rad/s)"
"A   1   1" "B   1   1"
"A   1   2" "B   1   2"
"A   1   3" "B   1   3"
Zone t="Motion of body    1 in DoF   1",I=    64,F=POINT
  0.5000000E-01  0.1157240E+06  0.1242021E-01 -0.1594543E-01 -0.4333364E-04 -0.1752029E+06 -0.1604195E-01
  0.8095238E-01  0.1164564E+06  0.5443404E-01 -0.1621022E-01 -0.3203080E-04 -0.1761337E+06 -0.6946407E-01
  0.1119048E+00  0.1166206E+06  0.1527836E+00  0.4976962E-02 -0.2963131E-04 -0.1762639E+06 -0.1943523E+00
  0.1428571E+00  0.1169797E+06  0.3435578E+00  0.6408691E-03  0.1503620E-05 -0.1762758E+06 -0.4357353E+00
  0.1738095E+00  0.1169689E+06  0.6824985E+00 -0.2984870E-02 -0.9377813E-04 -0.1764278E+06 -0.8639045E+00
  0.2047619E+00  0.1172449E+06  0.1256837E+01  0.2444245E-01  0.3249496E-03 -0.1764832E+06 -0.1585345E+01
  0.2357143E+00  0.1174971E+06  0.2208623E+01 -0.1942028E-02 -0.1746863E-03 -0.1766439E+06 -0.2774346E+01
  0.2666667E+00  0.1175443E+06  0.3756204E+01  0.1132965E-01  0.3223605E-03 -0.1768122E+06 -0.4700973E+01
  0.2976190E+00  0.1179026E+06  0.6284428E+01  0.1056152E-01  0.1895502E-03 -0.1768998E+06 -0.7821828E+01
  0.3285715E+00  0.1183370E+06  0.1036752E+02  0.1068115E-01  0.5834848E-03 -0.1770218E+06 -0.1281819E+02
  0.3595238E+00  0.1184886E+06  0.1695269E+02  0.7130199E-02  0.4448593E-03 -0.1772704E+06 -0.2084618E+02
  0.3904762E+00  0.1189216E+06  0.2753638E+02 -0.7268393E-02 -0.3822744E-03 -0.1773283E+06 -0.3360542E+02
  0.4214286E+00  0.1194391E+06  0.4412363E+02 -0.1882779E-02 -0.1257062E-03 -0.1776246E+06 -0.5342572E+02
  0.4523810E+00  0.1198649E+06  0.7005255E+02  0.1079358E-01  0.9171963E-03 -0.1779665E+06 -0.8417319E+02
  0.4833333E+00  0.1202582E+06  0.1083967E+03  0.8839574E-02  0.1756549E-02 -0.1782835E+06 -0.1291552E+03
  0.5142857E+00  0.1209265E+06  0.1650970E+03 -0.4272461E-02 -0.4136562E-03 -0.1785978E+06 -0.1948429E+03
  0.5452381E+00  0.1217571E+06  0.2454991E+03  0.4141862E-02  0.2770424E-03 -0.1790768E+06 -0.2867658E+03
  0.5761905E+00  0.1223106E+06  0.3560294E+03 -0.8474302E-03  0.4577637E-04 -0.1796221E+06 -0.4118636E+03
  0.6071429E+00  0.1229583E+06  0.5067498E+03 -0.4825367E-02 -0.9880066E-03 -0.1800485E+06 -0.5799641E+03
  0.6380953E+00  0.1238999E+06  0.7056898E+03 -0.9182602E-02  0.1897812E-03 -0.1806026E+06 -0.7981229E+03
  0.6690477E+00  0.1248438E+06  0.9654913E+03  0.1012619E-01  0.1830101E-02 -0.1811378E+06 -0.1078465E+04
  0.7000000E+00  0.1258472E+06  0.1300922E+04  0.1569475E-02  0.3365517E-02 -0.1817349E+06 -0.1434507E+04
  0.7309524E+00  0.1268054E+06  0.1724709E+04 -0.3006031E-02  0.2195358E-02 -0.1824842E+06 -0.1877594E+04
  0.7619048E+00  0.1276996E+06  0.2254609E+04 -0.4806518E-02 -0.1470566E-02 -0.1830263E+06 -0.2420779E+04
  0.7928572E+00  0.1288315E+06  0.2911826E+04  0.1231700E-02  0.5195618E-02 -0.1836052E+06 -0.3080259E+04
  0.8238096E+00  0.1301109E+06  0.3717477E+04 -0.1066880E-01 -0.2666473E-02 -0.1841489E+06 -0.3870435E+04
  0.8547620E+00  0.1313914E+06  0.4692863E+04 -0.1513808E-01 -0.6408691E-02 -0.1848725E+06 -0.4809334E+04
  0.8857143E+00  0.1325440E+06  0.5860663E+04 -0.1529817E-01 -0.8804321E-02 -0.1854135E+06 -0.5907236E+04
  0.9166667E+00  0.1336504E+06  0.7245563E+04  0.1198509E-02  0.4089355E-02 -0.1859890E+06 -0.7180294E+04
  0.9476191E+00  0.1347481E+06  0.8870503E+04 -0.1687515E-01 -0.2441406E-02 -0.1863383E+06 -0.8631635E+04
  0.9785714E+00  0.1358796E+06  0.1075979E+05  0.8233064E-02 -0.4028320E-02 -0.1866957E+06 -0.1027704E+05
  0.1009524E+01  0.1369260E+06  0.1293356E+05 -0.5320423E-02 -0.2182007E-02 -0.1867612E+06 -0.1211196E+05
  0.1040476E+01  0.1380028E+06  0.1541704E+05  0.1912342E-01  0.1205444E-01 -0.1869442E+06 -0.1415405E+05
  0.1071429E+01  0.1388898E+06  0.1821909E+05  0.5810547E-02  0.3585815E-02 -0.1867902E+06 -0.1637664E+05
  0.1102381E+01  0.1396813E+06  0.2135371E+05 -0.9523066E-02 -0.6347656E-02 -0.1865390E+06 -0.1877720E+05
  0.1133333E+01  0.1402152E+06  0.2482432E+05  0.1863367E-01  0.6835938E-02 -0.1862680E+06 -0.2135243E+05
  0.1164286E+01  0.1403880E+06  0.2861547E+05 -0.2411450E-02 -0.1220703E-03 -0.1855456E+06 -0.2403745E+05
  0.1195238E+01  0.1404238E+06  0.3272333E+05  0.3574569E-02  0.4028320E-02 -0.1847391E+06 -0.2683125E+05
  0.1226190E+01  0.1401827E+06  0.3711316E+05  0.1991050E-02  0.1745605E-01 -0.1835645E+06 -0.2966613E+05
  0.1257143E+01  0.1397207E+06  0.4178630E+05  0.1204057E-01  0.3723145E-02 -0.1821975E+06 -0.3253768E+05
  0.1288095E+01  0.1390915E+06  0.4663417E+05  0.1099310E-01  0.9155273E-03 -0.1807600E+06 -0.3535020E+05
  0.1319048E+01  0.1380635E+06  0.5167943E+05 -0.3886860E-02 -0.1837158E-01 -0.1791577E+06 -0.3811454E+05
  0.1350000E+01  0.1366807E+06  0.5682851E+05  0.2170139E-02  0.7263184E-02 -0.1772349E+06 -0.4071007E+05
  0.1380952E+01  0.1351246E+06  0.6204087E+05 -0.1007712E-01 -0.2136230E-01 -0.1753415E+06 -0.4315705E+05
  0.1411905E+01  0.1324307E+06  0.6645452E+05  0.1141244E-01  0.8178711E-02 -0.1731331E+06 -0.4491979E+05
  0.1442857E+01  0.1303756E+06  0.7152376E+05 -0.6768255E-03 -0.2551270E-01 -0.1708891E+06 -0.4681131E+05
  0.1473810E+01  0.1281266E+06  0.7645494E+05 -0.3810013E-02  0.2038574E-01 -0.1686157E+06 -0.4838429E+05
  0.1504762E+01  0.1256621E+06  0.8121609E+05  0.3407152E-02 -0.8544922E-03 -0.1664229E+06 -0.4968253E+05
  0.1535714E+01  0.1229679E+06  0.8571413E+05 -0.8902616E-02  0.2441406E-02 -0.1641012E+06 -0.5057410E+05
  0.1566667E+01  0.1201567E+06  0.8993091E+05  0.1558344E-02  0.1135254E-01 -0.1618466E+06 -0.5112850E+05
  0.1597619E+01  0.1173216E+06  0.9385231E+05  0.1833784E-02  0.9765625E-03 -0.1597986E+06 -0.5138361E+05
  0.1628572E+01  0.1143670E+06  0.9739690E+05  0.6745991E-03  0.2319336E-02 -0.1576889E+06 -0.5120647E+05
  0.1659524E+01  0.1114218E+06  0.1005853E+06  0.5149020E-02 -0.5126953E-02 -0.1557438E+06 -0.5072809E+05
  0.1690476E+01  0.1085025E+06  0.1033773E+06 -0.5776848E-02  0.2807617E-02 -0.1538843E+06 -0.4987061E+05
  0.1721429E+01  0.1056562E+06  0.1058203E+06  0.2623752E-02 -0.1586914E-01 -0.1522769E+06 -0.4880000E+05
  0.1752381E+01  0.1028376E+06  0.1079101E+06 -0.1114555E-02 -0.8666992E-02 -0.1508310E+06 -0.4752347E+05
  0.1783333E+01  0.1000292E+06  0.1095868E+06  0.2601124E-02 -0.1062012E-01 -0.1493290E+06 -0.4581155E+05
  0.1814286E+01  0.9737102E+05  0.1109699E+06  0.1345657E-02 -0.5126953E-02 -0.1481265E+06 -0.4406798E+05
  0.1845238E+01  0.9486182E+05  0.1120646E+06 -0.1455393E-02 -0.2441406E-03 -0.1471625E+06 -0.4220815E+05
  0.1876190E+01  0.9240923E+05  0.1128043E+06  0.4879714E-02  0.7324219E-02 -0.1462122E+06 -0.4008079E+05
  0.1907143E+01  0.9008365E+05  0.1132668E+06  0.6848739E-02  0.1025391E-01 -0.1454200E+06 -0.3787607E+05
  0.1938095E+01  0.8790450E+05  0.1134604E+06  0.4031020E-02 -0.8300781E-02 -0.1447738E+06 -0.3555458E+05
  0.1969048E+01  0.8589370E+05  0.1134102E+06 -0.2789757E-02 -0.1147461E-01 -0.1442887E+06 -0.3311737E+05
  0.2000000E+01  0.8397655E+05  0.1132172E+06  0.6103516E-04  0.7812500E-02 -0.1439738E+06 -0.3081353E+05
Zone t="Motion of body    1 in DoF   2",I=    64,F=POINT
  0.5000000E-01 -0.1159668E-01  0.1859665E-04  0.9484882E+05  0.3191333E+03  0.2136230E-02  0.4005432E-04
  0.8095238E-01 -0.2016853E-01 -0.1373291E-03  0.9336035E+05  0.5290450E+03 -0.7351146E-02  0.1411438E-03
  0.1119048E+00  0.3954299E-02  0.1907349E-04  0.9257688E+05  0.7573734E+03  0.1309009E-01  0.7057190E-04
  0.1428571E+00 -0.1495361E-01 -0.1621246E-03  0.9213780E+05  0.1012687E+04 -0.7263183E-02  0.4138947E-03
  0.1738095E+00  0.1264180E-01 -0.9918213E-04  0.9204390E+05  0.1305685E+04 -0.1738248E-01  0.9536743E-04
  0.2047619E+00  0.3427905E-02  0.1525879E-04  0.9213812E+05  0.1649984E+04  0.7153888E-02  0.5073547E-03
  0.2357143E+00 -0.5437677E-02  0.1869202E-03  0.9240215E+05  0.2064344E+04  0.2925988E-01  0.1487732E-03
  0.2666667E+00  0.8697510E-02  0.2593994E-03  0.9284385E+05  0.2564406E+04  0.1396179E-01  0.3433228E-03
  0.2976190E+00  0.9228515E-02 -0.1525879E-04  0.9331753E+05  0.3186113E+04  0.1394531E-01  0.4653931E-03
  0.3285715E+00 -0.1597529E-01  0.3890991E-03  0.9390591E+05  0.3947123E+04  0.1746136E-01 -0.1373291E-02
  0.3595238E+00 -0.2546500E-02 -0.7629395E-05  0.9446509E+05  0.4890141E+04  0.1341157E-01  0.3311157E-02
  0.3904762E+00 -0.9378572E-03 -0.1525879E-03  0.9500256E+05  0.6045896E+04 -0.8440714E-02  0.1373291E-03
  0.4214286E+00  0.3475900E-02 -0.1007080E-02  0.9514587E+05  0.7401443E+04  0.5793167E-02  0.2914429E-02
  0.4523810E+00  0.1888877E-02 -0.8697510E-03  0.9523870E+05  0.9023806E+04 -0.1888877E-02  0.1129150E-02
  0.4833333E+00 -0.4546067E-02  0.1525879E-03  0.9495985E+05  0.1077989E+05 -0.9849811E-02 -0.1037598E-02
  0.5142857E+00  0.3228082E-01 -0.1464844E-02  0.9430616E+05  0.1275139E+05 -0.8070204E-02  0.1770020E-02
  0.5452381E+00  0.8507608E-02  0.1434326E-02  0.9340105E+05  0.1482648E+05  0.3604539E-01  0.4425049E-02
  0.5761905E+00 -0.8686160E-02 -0.1159668E-02  0.9227127E+05  0.1696749E+05  0.2182133E-01 -0.2685547E-02
  0.6071429E+00 -0.1688878E-01 -0.6713867E-03  0.9092275E+05  0.1922188E+05  0.1105813E-01 -0.4638672E-02
  0.6380953E+00 -0.2104346E-02 -0.3356934E-02  0.8946545E+05  0.2146612E+05 -0.1951303E-01  0.4211426E-02
  0.6690477E+00 -0.1277177E-02  0.1037598E-02  0.8777611E+05  0.2374522E+05  0.1240686E-01 -0.3295898E-02
  0.7000000E+00  0.3487723E-02  0.2136230E-02  0.8596688E+05  0.2606045E+05  0.5057198E-02 -0.6225586E-02
  0.7309524E+00  0.2672028E-02  0.7934570E-03  0.8415639E+05  0.2834367E+05  0.4609247E-01  0.1690674E-01
  0.7619048E+00 -0.3044128E-02 -0.2929688E-02  0.8225459E+05  0.3061053E+05 -0.2098846E-01  0.3662109E-02
  0.7928572E+00 -0.3695101E-02  0.2014160E-02  0.8024555E+05  0.3285495E+05 -0.1231700E-01  0.9887695E-02
  0.8238096E+00 -0.8446136E-02 -0.1647949E-02  0.7817247E+05  0.3505592E+05  0.2519023E-02  0.1147461E-01
  0.8547620E+00  0.1171059E-01  0.1708984E-02  0.7607584E+05  0.3719138E+05  0.1185340E-01  0.4028320E-02
  0.8857143E+00 -0.1323085E-01  0.7080078E-02  0.7396790E+05  0.3925034E+05  0.6201959E-02  0.1000977E-01
  0.9166667E+00 -0.8922230E-02  0.2441406E-02  0.7188191E+05  0.4121803E+05  0.2357067E-01  0.5249023E-02
  0.9476191E+00 -0.8630800E-02  0.1000977E-01  0.6979880E+05  0.4309278E+05  0.1056307E-01  0.6347656E-02
  0.9785714E+00 -0.1484446E-01  0.1220703E-02  0.6771595E+05  0.4486934E+05 -0.1397126E-01  0.1196289E-01
  0.1009524E+01  0.1064085E-01 -0.4638672E-02  0.6562800E+05  0.4654920E+05  0.3458275E-01 -0.9765625E-03
  0.1040476E+01  0.9737691E-02 -0.2807617E-02  0.6358085E+05  0.4811124E+05  0.2475485E-01 -0.5615234E-02
  0.1071429E+01  0.1811524E-01  0.3784180E-02  0.6156362E+05  0.4955969E+05 -0.2472331E-01  0.2038574E-01
  0.1102381E+01 -0.6422533E-02  0.1586914E-02  0.5962083E+05  0.5087111E+05 -0.7308399E-02  0.5004883E-02
  0.1133333E+01  0.3015855E-02  0.3173828E-02  0.5774241E+05  0.5205645E+05  0.2380371E-01 -0.5126953E-02
  0.1164286E+01  0.3145370E-02  0.2441406E-02  0.5591866E+05  0.5312462E+05  0.2516296E-02 -0.1098633E-02
  0.1195238E+01  0.1858776E-01 -0.1586914E-02  0.5418095E+05  0.5406335E+05 -0.3268177E-02 -0.7568359E-02
  0.1226190E+01  0.4977624E-02  0.8056641E-02  0.5250059E+05  0.5489422E+05  0.3484337E-02  0.1831055E-01
  0.1257143E+01 -0.2330433E-02 -0.9033203E-02  0.5089799E+05  0.5563520E+05 -0.1427390E-01  0.8300781E-02
  0.1288095E+01 -0.9287272E-02 -0.5737305E-02  0.4934628E+05  0.5620278E+05  0.1288846E-01 -0.1171875E-01
  0.1319048E+01 -0.3331594E-02 -0.1586914E-02  0.4787078E+05  0.5670124E+05  0.1129040E-01  0.1684570E-01
  0.1350000E+01 -0.7233796E-02  0.1708984E-02  0.4645663E+05  0.5709682E+05 -0.5787037E-02 -0.9765625E-03
  0.1380952E+01  0.1034230E-01 -0.6835938E-02  0.4514349E+05  0.5736022E+05  0.9546741E-02  0.1171875E-01
  0.1411905E+01 -0.1556242E-02 -0.1586914E-01  0.4369078E+05  0.5757195E+05 -0.1011557E-01  0.2050781E-01
  0.1442857E+01 -0.4906985E-02 -0.3906250E-02  0.4251628E+05  0.5767219E+05 -0.9475557E-02  0.7568359E-02
  0.1473810E+01  0.1035330E-01 -0.6347656E-02  0.4140764E+05  0.5767525E+05  0.8282638E-04  0.1318359E-01
  0.1504762E+01  0.5597465E-02  0.7324219E-03  0.4037541E+05  0.5760756E+05  0.9247985E-02  0.5859375E-02
  0.1535714E+01  0.8346202E-02  0.1953125E-02  0.3939345E+05  0.5747533E+05 -0.1979242E-01  0.1098633E-01
  0.1566667E+01  0.1457052E-01 -0.5371094E-02  0.3848181E+05  0.5727320E+05 -0.1332384E-01  0.1025391E-01
  0.1597619E+01  0.3132713E-02  0.7080078E-02  0.3764507E+05  0.5699159E+05  0.1650405E-01  0.2246094E-01
  0.1628572E+01  0.6371214E-02  0.4882812E-02  0.3685398E+05  0.5666575E+05  0.2173708E-02  0.2880859E-01
  0.1659524E+01  0.1610908E-01  0.2441406E-02  0.3612793E+05  0.5627646E+05  0.2515664E-01 -0.9765625E-03
  0.1690476E+01 -0.2671792E-02  0.4882812E-03  0.3545357E+05  0.5582185E+05  0.4765900E-02  0.2246094E-01
  0.1721429E+01  0.4467470E-02  0.4394531E-02  0.3484225E+05  0.5531327E+05 -0.3191050E-02  0.1757812E-01
  0.1752381E+01  0.4179582E-02 -0.0000000E+00  0.3428162E+05  0.5478373E+05  0.7662566E-03  0.3906250E-02
  0.1783333E+01  0.4107038E-02 -0.7812500E-02  0.3374413E+05  0.5421130E+05  0.3901687E-02  0.1611328E-01
  0.1814286E+01 -0.1076526E-02 -0.1147461E-01  0.3326844E+05  0.5360323E+05  0.1883920E-02  0.1000977E-01
  0.1845238E+01  0.4101562E-02  0.7324219E-02  0.3284667E+05  0.5295243E+05  0.2004473E-01  0.9033203E-02
  0.1876190E+01 -0.2667577E-02 -0.3417969E-02  0.3244984E+05  0.5228821E+05 -0.7937669E-02  0.2148438E-01
  0.1907143E+01  0.4928532E-02  0.2929688E-02  0.3209129E+05  0.5159616E+05  0.5824629E-02  0.9765625E-02
  0.1938095E+01 -0.1417155E-02 -0.1074219E-01  0.3177221E+05  0.5087339E+05  0.1637602E-01  0.1416016E-01
  0.1969048E+01  0.6416441E-02  0.5126953E-02  0.3149313E+05  0.5009984E+05 -0.1109703E-01 -0.2441406E-03
  0.2000000E+01  0.8850098E-03 -0.8789062E-02  0.3124751E+05  0.4935111E+05 -0.1446533E-01  0.1391602E-01
Zone t="Motion of body    1 in DoF   3",I=    64,F=POINT
  0.5000000E-01 -0.1750220E+06 -0.1597825E-01  0.6536856E-01  0.1960113E-03  0.6495553E+06  0.2154151E-01
  0.8095238E-01 -0.1760724E+06 -0.6921611E-01  0.4455086E-01  0.1381749E-03  0.6500028E+06  0.8822405E-01
  0.1119048E+00 -0.1762162E+06 -0.1935271E+00  0.1622307E-01 -0.3131619E-04  0.6500799E+06  0.2459009E+00
  0.1428571E+00 -0.1762300E+06 -0.4343684E+00  0.5137258E-01  0.3560116E-03  0.6502733E+06  0.5503120E+00
  0.1738095E+00 -0.1763874E+06 -0.8603842E+00  0.2262178E-01  0.1558624E-03  0.6502368E+06  0.1087848E+01
  0.2047619E+00 -0.1764483E+06 -0.1579533E+01 -0.3291673E-02 -0.3865398E-03  0.6503049E+06  0.1993083E+01
  0.2357143E+00 -0.1766134E+06 -0.2764083E+01  0.3842989E-01  0.7023234E-03  0.6504471E+06  0.3471908E+01
  0.2666667E+00 -0.1767654E+06 -0.4680116E+01 -0.2010763E-01 -0.2595074E-03  0.6505262E+06  0.5859006E+01
  0.2976190E+00 -0.1768542E+06 -0.7791416E+01 -0.2712479E-01 -0.9640008E-03  0.6506527E+06  0.9697649E+01
  0.3285715E+00 -0.1769815E+06 -0.1277589E+02  0.2049156E-01  0.6384701E-03  0.6507756E+06  0.1579426E+02
  0.3595238E+00 -0.1772003E+06 -0.2075966E+02  0.9164747E-02 -0.1611561E-03  0.6510286E+06  0.2552413E+02
  0.3904762E+00 -0.1772454E+06 -0.3348603E+02  0.5162122E-01  0.3214896E-02  0.6512022E+06  0.4086810E+02
  0.4214286E+00 -0.1775630E+06 -0.5325267E+02  0.3148903E-01  0.3392696E-02  0.6513497E+06  0.6446920E+02
  0.4523810E+00 -0.1779023E+06 -0.8387283E+02  0.1711373E-01  0.1910686E-02  0.6515841E+06  0.1008195E+03
  0.4833333E+00 -0.1781881E+06 -0.1286415E+03  0.2561109E-02  0.2360344E-04  0.6519268E+06  0.1532722E+03
  0.5142857E+00 -0.1785090E+06 -0.1941928E+03 -0.1987881E-02 -0.1599073E-02  0.6522514E+06  0.2291502E+03
  0.5452381E+00 -0.1790229E+06 -0.2859433E+03 -0.8490117E-02 -0.1133919E-02  0.6524708E+06  0.3339964E+03
  0.5761905E+00 -0.1795600E+06 -0.4102725E+03  0.3184484E-02 -0.8001328E-03  0.6528442E+06  0.4745883E+03
  0.6071429E+00 -0.1799413E+06 -0.5776510E+03 -0.2078426E-01 -0.4170895E-02  0.6534617E+06  0.6613738E+03
  0.6380953E+00 -0.1805058E+06 -0.7952131E+03  0.1678694E-01  0.1827240E-02  0.6539079E+06  0.8993054E+03
  0.6690477E+00 -0.1810580E+06 -0.1074761E+04 -0.1106126E-01 -0.4959106E-02  0.6541994E+06  0.1200324E+04
  0.7000000E+00 -0.1816638E+06 -0.1429710E+04 -0.1282283E-01 -0.7005692E-02  0.6546312E+06  0.1576629E+04
  0.7309524E+00 -0.1824063E+06 -0.1869518E+04  0.2808760E-01  0.9357452E-02  0.6549600E+06  0.2035426E+04
  0.7619048E+00 -0.1829105E+06 -0.2409629E+04  0.2570486E-01  0.1203918E-01  0.6555039E+06  0.2587448E+04
  0.7928572E+00 -0.1834801E+06 -0.3066929E+04  0.2636608E-02 -0.2437592E-02  0.6559863E+06  0.3243852E+04
  0.8238096E+00 -0.1840438E+06 -0.3856198E+04 -0.3494218E-01 -0.2266312E-01  0.6562386E+06  0.4013476E+04
  0.8547620E+00 -0.1847787E+06 -0.4789740E+04 -0.1785151E-02 -0.9471893E-02  0.6565057E+06  0.4906708E+04
  0.8857143E+00 -0.1853232E+06 -0.5881251E+04  0.4749667E-01  0.1370239E-01  0.6566614E+06  0.5926912E+04
  0.9166667E+00 -0.1858762E+06 -0.7141778E+04 -0.1275080E-01 -0.9849548E-02  0.6567929E+06  0.7078729E+04
  0.9476191E+00 -0.1861995E+06 -0.8585707E+04 -0.1487847E-01 -0.4867554E-02  0.6569774E+06  0.8356692E+04
  0.9785714E+00 -0.1865387E+06 -0.1022013E+05  0.1314483E-01  0.6622314E-02  0.6569923E+06  0.9759730E+04
  0.1009524E+01 -0.1866184E+06 -0.1205024E+05  0.1180469E-01  0.1425171E-01  0.6566789E+06  0.1127556E+05
  0.1040476E+01 -0.1867992E+06 -0.1407520E+05  0.2613338E-01  0.2243042E-02  0.6563496E+06  0.1290503E+05
  0.1071429E+01 -0.1866607E+06 -0.1628926E+05 -0.5169678E-02 -0.8224487E-02  0.6558495E+06  0.1462180E+05
  0.1102381E+01 -0.1864167E+06 -0.1867382E+05  0.1965516E-01  0.3790283E-01  0.6550857E+06  0.1640385E+05
  0.1133333E+01 -0.1861212E+06 -0.2120544E+05  0.1161912E-01 -0.6286621E-02  0.6543799E+06  0.1823658E+05
  0.1164286E+01 -0.1853973E+06 -0.2385798E+05 -0.6749440E-02 -0.1864624E-01  0.6533033E+06  0.2005547E+05
  0.1195238E+01 -0.1845684E+06 -0.2661551E+05  0.2447303E-01  0.1644897E-01  0.6523779E+06  0.2184156E+05
  0.1226190E+01 -0.1833976E+06 -0.2943128E+05  0.2519922E-01  0.3411865E-01  0.6511611E+06  0.2353343E+05
  0.1257143E+01 -0.1820202E+06 -0.3226351E+05  0.2103459E-01  0.1037598E-01  0.6498172E+06  0.2511262E+05
  0.1288095E+01 -0.1805927E+06 -0.3503436E+05  0.2337218E-01  0.1077271E-01  0.6480720E+06  0.2651671E+05
  0.1319048E+01 -0.1789929E+06 -0.3772240E+05  0.1321070E-01  0.1098633E-02  0.6464974E+06  0.2777735E+05
  0.1350000E+01 -0.1771117E+06 -0.4027657E+05  0.1759282E-01  0.2758789E-01  0.6447462E+06  0.2879710E+05
  0.1380952E+01 -0.1752347E+06 -0.4265563E+05  0.3397712E-02  0.1525879E-01  0.6431363E+06  0.2957815E+05
  0.1411905E+01 -0.1745611E+06 -0.4569507E+05  0.6284408E-02 -0.1770020E-01  0.6416279E+06  0.3074696E+05
  0.1442857E+01 -0.1723119E+06 -0.4768331E+05  0.2655747E-01  0.3497314E-01  0.6400981E+06  0.3102854E+05
  0.1473810E+01 -0.1700120E+06 -0.4930473E+05  0.1580172E-01  0.1849365E-01  0.6383351E+06  0.3096041E+05
  0.1504762E+01 -0.1677828E+06 -0.5063019E+05  0.1034314E-01 -0.6164551E-02  0.6369503E+06  0.3068603E+05
  0.1535714E+01 -0.1654497E+06 -0.5158652E+05 -0.5564135E-03  0.9216309E-02  0.6354952E+06  0.3007833E+05
  0.1566667E+01 -0.1631851E+06 -0.5221892E+05  0.1159019E-02  0.1525879E-01  0.6342948E+06  0.2927634E+05
  0.1597619E+01 -0.1611054E+06 -0.5246568E+05  0.1140384E-01  0.1452637E-01  0.6331732E+06  0.2819424E+05
  0.1628572E+01 -0.1589887E+06 -0.5235314E+05  0.3380491E-01  0.2935791E-01  0.6321509E+06  0.2692307E+05
  0.1659524E+01 -0.1570261E+06 -0.5194557E+05  0.9452130E-02  0.6347656E-02  0.6314388E+06  0.2556534E+05
  0.1690476E+01 -0.1551496E+06 -0.5112539E+05  0.2269218E-01  0.2624512E-01  0.6305842E+06  0.2388773E+05
  0.1721429E+01 -0.1535166E+06 -0.5002570E+05  0.1005181E-01 -0.1812744E-01  0.6299232E+06  0.2207964E+05
  0.1752381E+01 -0.1520567E+06 -0.4876203E+05  0.7801886E-02 -0.1953125E-01  0.6297014E+06  0.2047834E+05
  0.1783333E+01 -0.1505632E+06 -0.4716738E+05  0.2344435E-01  0.3967285E-02  0.6292539E+06  0.1847732E+05
  0.1814286E+01 -0.1493470E+06 -0.4548344E+05  0.1275010E-01  0.2691650E-01  0.6292332E+06  0.1674834E+05
  0.1845238E+01 -0.1483578E+06 -0.4357990E+05 -0.1124622E-02  0.1110840E-01  0.6292298E+06  0.1484409E+05
  0.1876190E+01 -0.1473912E+06 -0.4151970E+05  0.3741114E-02  0.7141113E-02  0.6293205E+06  0.1302167E+05
  0.1907143E+01 -0.1465739E+06 -0.3939710E+05 -0.2720294E-02 -0.6164551E-02  0.6295996E+06  0.1135477E+05
  0.1938095E+01 -0.1459076E+06 -0.3710546E+05  0.1687990E-01 -0.3356934E-02  0.6298686E+06  0.9676657E+04
  0.1969048E+01 -0.1454076E+06 -0.3460856E+05 -0.6819406E-02  0.1495361E-01  0.6299758E+06  0.7619871E+04
  0.2000000E+01 -0.1450930E+06 -0.3227673E+05  0.9033203E-02  0.9948730E-02  0.6304099E+06  0.6129637E+04
