VARIABLES="w (rad/s)"
"A   1   1" "B   1   1"
"A   1   2" "B   1   2"
"A   1   3" "B   1   3"
Zone t="Motion of body    1 in DoF   1",I=    64,F=POINT
  0.5000000E-01  0.1014124E+06  0.1033006E-01  0.7095337E-02  0.3798087E-04 -0.1851978E+06 -0.1670098E-01
  0.8095238E-01  0.1021020E+06  0.4548929E-01  0.5159939E-02  0.3253348E-04 -0.1863010E+06 -0.7364257E-01
  0.1119048E+00  0.1024461E+06  0.1278374E+00  0.1465818E-02  0.2866320E-04 -0.1867307E+06 -0.2069791E+00
  0.1428571E+00  0.1027115E+06  0.2878437E+00 -0.4272461E-02  0.8928590E-05 -0.1870810E+06 -0.4658375E+00
  0.1738095E+00  0.1028569E+06  0.5730618E+00  0.9898355E-02  0.1369258E-03 -0.1873817E+06 -0.9275908E+00
  0.2047619E+00  0.1031954E+06  0.1058014E+01  0.3092566E-02 -0.4018191E-04 -0.1877897E+06 -0.1712353E+01
  0.2357143E+00  0.1033490E+06  0.1862804E+01 -0.2330433E-02 -0.6608479E-04 -0.1880320E+06 -0.3014878E+01
  0.2666667E+00  0.1035249E+06  0.3177663E+01  0.6008148E-02  0.2147090E-03 -0.1884417E+06 -0.5144825E+01
  0.2976190E+00  0.1039318E+06  0.5333226E+01 -0.5998535E-02 -0.2174303E-03 -0.1888998E+06 -0.8632357E+01
  0.3285715E+00  0.1043898E+06  0.8831247E+01 -0.3552644E-02 -0.2103969E-03 -0.1895485E+06 -0.1429444E+02
  0.3595238E+00  0.1046134E+06  0.1449636E+02  0.3480216E-02  0.2762377E-03 -0.1900153E+06 -0.2347358E+02
  0.3904762E+00  0.1050968E+06  0.2364336E+02  0.4767441E-02 -0.1761168E-03 -0.1907185E+06 -0.3828312E+02
  0.4214286E+00  0.1057163E+06  0.3807814E+02  0.5793167E-02  0.4953742E-03 -0.1916151E+06 -0.6164765E+02
  0.4523810E+00  0.1062835E+06  0.6077387E+02 -0.1922607E-02 -0.2712905E-03 -0.1923757E+06 -0.9837157E+02
  0.4833333E+00  0.1067103E+06  0.9452813E+02  0.8587015E-02  0.3567338E-03 -0.1931871E+06 -0.1530781E+03
  0.5142857E+00  0.1074756E+06  0.1448114E+03 -0.3382365E-02 -0.3539324E-03 -0.1942360E+06 -0.2344279E+03
  0.5452381E+00  0.1084408E+06  0.2167410E+03 -0.9515088E-03  0.1784563E-03 -0.1956934E+06 -0.3508263E+03
  0.5761905E+00  0.1091413E+06  0.3164000E+03  0.4104740E-02  0.8964539E-04 -0.1968629E+06 -0.5122469E+03
  0.6071429E+00  0.1099532E+06  0.4535056E+03  0.8117675E-02  0.1025438E-02 -0.1980998E+06 -0.7341814E+03
  0.6380953E+00  0.1109559E+06  0.6360002E+03 -0.2271737E-02  0.2479553E-03 -0.1996295E+06 -0.1029388E+04
  0.6690477E+00  0.1121217E+06  0.8772375E+03  0.4105211E-02  0.1353741E-02 -0.2014182E+06 -0.1419526E+04
  0.7000000E+00  0.1133208E+06  0.1191932E+04 -0.1220703E-02 -0.1657486E-02 -0.2030575E+06 -0.1927419E+04
  0.7309524E+00  0.1145312E+06  0.1594316E+04  0.2546776E-02  0.1089096E-02 -0.2050402E+06 -0.2578238E+04
  0.7619048E+00  0.1156847E+06  0.2103473E+04  0.3204345E-03  0.2250671E-03 -0.2069798E+06 -0.3402002E+04
  0.7928572E+00  0.1169900E+06  0.2742105E+04  0.1154719E-03  0.1220703E-02 -0.2089368E+06 -0.4432641E+04
  0.8238096E+00  0.1187190E+06  0.3539013E+04  0.4297157E-02  0.3530502E-02 -0.2114377E+06 -0.5715111E+04
  0.8547620E+00  0.1202616E+06  0.4515694E+04 -0.9639814E-03  0.1001358E-02 -0.2136735E+06 -0.7286373E+04
  0.8857143E+00  0.1218660E+06  0.5706682E+04  0.6891066E-04 -0.1583099E-02 -0.2162452E+06 -0.9205502E+04
  0.9166667E+00  0.1233917E+06  0.7140698E+04 -0.3795277E-02 -0.2941132E-02 -0.2184513E+06 -0.1150900E+05
  0.9476191E+00  0.1251011E+06  0.8859431E+04  0.4605240E-02  0.5756378E-02 -0.2211699E+06 -0.1427258E+05
  0.9785714E+00  0.1266503E+06  0.1088804E+05  0.5551081E-02  0.2273560E-02 -0.2235639E+06 -0.1752812E+05
  0.1009524E+01  0.1282868E+06  0.1326960E+05  0.2629982E-02  0.1548767E-02 -0.2259416E+06 -0.2133391E+05
  0.1040476E+01  0.1299625E+06  0.1604784E+05 -0.1466520E-03 -0.2822876E-02 -0.2283160E+06 -0.2576259E+05
  0.1071429E+01  0.1315715E+06  0.1926177E+05 -0.1281738E-02 -0.3364563E-02 -0.2304763E+06 -0.3087141E+05
  0.1102381E+01  0.1331052E+06  0.2295197E+05  0.3100533E-02  0.1739502E-02 -0.2327242E+06 -0.3674105E+05
  0.1133333E+01  0.1342763E+06  0.2712186E+05 -0.4039091E-02 -0.3341675E-02 -0.2342911E+06 -0.4335175E+05
  0.1164286E+01  0.1352145E+06  0.3180639E+05  0.2621142E-03  0.4302979E-02 -0.2356256E+06 -0.5077903E+05
  0.1195238E+01  0.1358984E+06  0.3701040E+05  0.3217112E-02  0.2532959E-02 -0.2366035E+06 -0.5901804E+05
  0.1226190E+01  0.1362511E+06  0.4271150E+05 -0.1543064E-02  0.1815796E-02 -0.2367918E+06 -0.6797527E+05
  0.1257143E+01  0.1363316E+06  0.4890562E+05 -0.7282604E-03 -0.5615234E-02 -0.2366159E+06 -0.7767095E+05
  0.1288095E+01  0.1362295E+06  0.5557007E+05  0.5164860E-02  0.4241943E-02 -0.2360361E+06 -0.8803367E+05
  0.1319048E+01  0.1354500E+06  0.6260395E+05  0.2452423E-02  0.2441406E-02 -0.2342680E+06 -0.9889794E+05
  0.1350000E+01  0.1342774E+06  0.7001368E+05  0.7233796E-03  0.1800537E-02 -0.2321553E+06 -0.1103742E+06
  0.1380952E+01  0.1326203E+06  0.7767618E+05  0.8397596E-03  0.1708984E-02 -0.2292089E+06 -0.1221585E+06
  0.1411905E+01  0.1302083E+06  0.8540826E+05 -0.1123953E-02  0.4882812E-03 -0.2250920E+06 -0.1339756E+06
  0.1442857E+01  0.1277135E+06  0.9324838E+05  0.4230159E-03  0.5828857E-02 -0.2207481E+06 -0.1458155E+06
  0.1473810E+01  0.1247863E+06  0.1009677E+06  0.8075572E-03 -0.2441406E-03 -0.2158289E+06 -0.1574018E+06
  0.1504762E+01  0.1213731E+06  0.1084390E+06 -0.1906383E-02 -0.4577637E-02 -0.2100325E+06 -0.1684313E+06
  0.1535714E+01  0.1175404E+06  0.1155717E+06  0.3974382E-03 -0.1342773E-02 -0.2035969E+06 -0.1788312E+06
  0.1566667E+01  0.1134702E+06  0.1223415E+06  0.8570894E-03  0.2410889E-02 -0.1970624E+06 -0.1887292E+06
  0.1597619E+01  0.1091131E+06  0.1285417E+06 -0.1509051E-02 -0.1129150E-02 -0.1899493E+06 -0.1975216E+06
  0.1628572E+01  0.1046635E+06  0.1341499E+06  0.1630281E-02  0.1159668E-02 -0.1826105E+06 -0.2051838E+06
  0.1659524E+01  0.1002601E+06  0.1392138E+06 -0.3089412E-02  0.5401611E-02 -0.1754738E+06 -0.2119082E+06
  0.1690476E+01  0.9581144E+05  0.1436746E+06  0.2473213E-02 -0.2563477E-02 -0.1684654E+06 -0.2177939E+06
  0.1721429E+01  0.9129699E+05  0.1473982E+06  0.3279690E-02  0.4882812E-03 -0.1613597E+06 -0.2224579E+06
  0.1752381E+01  0.8678140E+05  0.1503314E+06  0.5746924E-03  0.7324219E-03 -0.1541615E+06 -0.2256203E+06
  0.1783333E+01  0.8245220E+05  0.1527182E+06 -0.5818304E-03 -0.8544922E-03 -0.1474351E+06 -0.2280378E+06
  0.1814286E+01  0.7836223E+05  0.1545933E+06 -0.1766175E-03  0.2441406E-02 -0.1412442E+06 -0.2297935E+06
  0.1845238E+01  0.7438769E+05  0.1557430E+06  0.1686933E-02 -0.3723145E-02 -0.1350992E+06 -0.2301597E+06
  0.1876190E+01  0.7063283E+05  0.1563786E+06 -0.1854291E-02 -0.4211426E-02 -0.1292829E+06 -0.2296355E+06
  0.1907143E+01  0.6716078E+05  0.1566560E+06  0.1464158E-02 -0.1556396E-02 -0.1240237E+06 -0.2285647E+06
  0.1938095E+01  0.6398613E+05  0.1566570E+06  0.9841357E-03 -0.4974365E-02 -0.1193506E+06 -0.2271871E+06
  0.1969048E+01  0.6093056E+05  0.1561480E+06  0.2386792E-02 -0.6103516E-04 -0.1149020E+06 -0.2250996E+06
  0.2000000E+01  0.5808434E+05  0.1552224E+06 -0.7324219E-03 -0.3082275E-02 -0.1107455E+06 -0.2222338E+06
Zone t="Motion of body    1 in DoF   2",I=    64,F=POINT
  0.5000000E-01  0.6141663E-02 -0.1287460E-04  0.8080252E+05  0.1450992E+03 -0.9765625E-02  0.3576279E-04
  0.8095238E-01  0.7728128E-02 -0.3337860E-05  0.8005171E+05  0.2401939E+03 -0.7162655E-02  0.7247925E-04
  0.1119048E+00  0.1431729E-02 -0.2479553E-04  0.7970459E+05  0.3431053E+03  0.5454205E-02  0.5340576E-04
  0.1428571E+00 -0.3150940E-02  0.6675720E-04  0.7943779E+05  0.4575955E+03  0.6835937E-02 -0.1029968E-03
  0.1738095E+00 -0.8779029E-04 -0.6389618E-04  0.7919849E+05  0.5878797E+03 -0.1369529E-01 -0.2670288E-04
  0.2047619E+00 -0.3651464E-02  0.4577637E-04  0.7919451E+05  0.7399528E+03 -0.1102891E-01 -0.4577637E-04
  0.2357143E+00 -0.2362800E-02  0.5340576E-04  0.7928184E+05  0.9214564E+03 -0.2589370E-02  0.8773804E-04
  0.2666667E+00 -0.2632141E-02 -0.2174377E-03  0.7926977E+05  0.1138228E+04  0.1029968E-01  0.2861023E-03
  0.2976190E+00 -0.8100586E-02  0.3814697E-04  0.7948887E+05  0.1405678E+04  0.3486328E-02  0.4959106E-03
  0.3285715E+00  0.2693508E-02 -0.1411438E-03  0.7949410E+05  0.1729509E+04  0.2972146E-02  0.3662109E-03
  0.3595238E+00  0.2801150E-02  0.1716614E-03  0.7964918E+05  0.2126952E+04  0.1086507E-01  0.5874634E-03
  0.3904762E+00 -0.1680327E-02  0.8392334E-04  0.7965530E+05  0.2608046E+04  0.1875714E-02  0.6408691E-03
  0.4214286E+00  0.3874180E-02  0.2517700E-03  0.7956178E+05  0.3164311E+04  0.4924192E-02 -0.6103516E-03
  0.4523810E+00 -0.7420590E-03 -0.1525879E-03  0.7944570E+05  0.3824844E+04  0.2428557E-02 -0.1083374E-02
  0.4833333E+00 -0.3156991E-04 -0.8544922E-03  0.7900742E+05  0.4521028E+04 -0.4040948E-02  0.3051758E-03
  0.5142857E+00  0.3085666E-02 -0.6332397E-03  0.7877175E+05  0.5289375E+04 -0.6171333E-02  0.1525879E-02
  0.5452381E+00  0.3358266E-02 -0.3509521E-03  0.7796959E+05  0.6082813E+04 -0.2238844E-02  0.1525879E-03
  0.5761905E+00 -0.2595255E-02  0.3662109E-03  0.7731548E+05  0.6874646E+04 -0.6355727E-02 -0.2319336E-02
  0.6071429E+00  0.1055549E-02 -0.1464844E-02  0.7658377E+05  0.7691259E+04 -0.7238050E-02  0.4882812E-03
  0.6380953E+00  0.1578260E-02  0.2136230E-03  0.7562752E+05  0.8467062E+04  0.1606955E-01 -0.2288818E-02
  0.6690477E+00 -0.6842019E-03  0.1739502E-02  0.7484012E+05  0.9225354E+04 -0.1331913E-01 -0.3051758E-03
  0.7000000E+00  0.2310616E-02 -0.0000000E+00  0.7395792E+05  0.9966118E+04  0.4010881E-02  0.2258301E-02
  0.7309524E+00  0.2338024E-02 -0.7019043E-03  0.7287779E+05  0.1066178E+05 -0.6680069E-02  0.1342773E-02
  0.7619048E+00 -0.4085540E-02  0.3967285E-03  0.7194506E+05  0.1131126E+05  0.6088256E-02 -0.6103516E-04
  0.7928572E+00 -0.3117741E-02  0.1464844E-02  0.7122748E+05  0.1189991E+05  0.5234726E-02 -0.2441406E-02
  0.8238096E+00  0.7779336E-03 -0.2746582E-03  0.7004789E+05  0.1244886E+05 -0.1778134E-02 -0.1037598E-02
  0.8547620E+00 -0.4284362E-03  0.8239746E-03  0.6900592E+05  0.1292808E+05  0.1142496E-01 -0.5676270E-02
  0.8857143E+00 -0.2411873E-02 -0.2197266E-02  0.6813528E+05  0.1334332E+05  0.3032069E-02  0.3906250E-02
  0.9166667E+00 -0.5859375E-02  0.2410889E-02  0.6748088E+05  0.1366715E+05  0.1864346E-01 -0.4760742E-02
  0.9476191E+00  0.2367029E-02  0.6408691E-03  0.6639748E+05  0.1393208E+05  0.5152717E-03  0.4882812E-03
  0.9785714E+00 -0.3009434E-02 -0.2624512E-02  0.6546230E+05  0.1412014E+05 -0.2993841E-02  0.1055908E-01
  0.1009524E+01 -0.5713409E-02  0.6713867E-03  0.6468194E+05  0.1423903E+05  0.2176537E-02  0.1647949E-02
  0.1040476E+01  0.1407859E-02  0.6713867E-03  0.6410168E+05  0.1428266E+05  0.1032430E-01 -0.1464844E-02
  0.1071429E+01  0.2178955E-02 -0.7324219E-03  0.6345471E+05  0.1423466E+05 -0.7975261E-02  0.2563477E-02
  0.1102381E+01  0.5675083E-03 -0.2258301E-02  0.6265315E+05  0.1412714E+05 -0.4429333E-02  0.1025391E-01
  0.1133333E+01 -0.4039091E-04 -0.2319336E-02  0.6197565E+05  0.1394731E+05 -0.9478400E-02 -0.1043701E-01
  0.1164286E+01  0.9042938E-03  0.5065918E-02  0.6146226E+05  0.1372612E+05  0.5032592E-02  0.1831055E-02
  0.1195238E+01 -0.2885188E-02 -0.8544922E-03  0.6113057E+05  0.1346230E+05  0.4289483E-02  0.9765625E-02
  0.1226190E+01  0.1455955E-02 -0.1953125E-02  0.6088902E+05  0.1312980E+05  0.2190155E-02  0.2685547E-02
  0.1257143E+01 -0.1486865E-02 -0.2563477E-02  0.6031909E+05  0.1269194E+05  0.1009854E-01  0.1220703E-02
  0.1288095E+01 -0.2257405E-02  0.2685547E-02  0.5992341E+05  0.1224276E+05  0.3790723E-03  0.4882812E-02
  0.1319048E+01 -0.3172533E-02 -0.5615234E-02  0.5960357E+05  0.1175003E+05  0.1850885E-03  0.5798340E-02
  0.1350000E+01  0.2164487E-02  0.2441406E-02  0.5944072E+05  0.1129687E+05 -0.2350984E-02  0.2441406E-02
  0.1380952E+01  0.1629797E-02 -0.1403809E-02  0.5941682E+05  0.1085292E+05 -0.4773370E-02  0.5798340E-02
  0.1411905E+01  0.1507610E-02 -0.5371094E-02  0.5949036E+05  0.1040352E+05  0.6052053E-02  0.4882812E-03
  0.1442857E+01  0.1009951E-02  0.4455566E-02  0.5922485E+05  0.9729403E+04  0.2538096E-02 -0.5981445E-02
  0.1473810E+01  0.6004912E-03 -0.1342773E-02  0.5909445E+05  0.9133349E+04  0.3975666E-02 -0.4577637E-02
  0.1504762E+01  0.2028067E-02  0.7934570E-02  0.5903159E+05  0.8532589E+04  0.1460208E-02 -0.2645874E-01
  0.1535714E+01 -0.7650685E-03  0.1586914E-02  0.5903687E+05  0.7970546E+04 -0.4769258E-03  0.1098633E-02
  0.1566667E+01 -0.4090654E-03 -0.2197266E-02  0.5913943E+05  0.7520853E+04  0.1558344E-02  0.1770020E-02
  0.1597619E+01 -0.9550956E-04 -0.1037598E-02  0.5931737E+05  0.7123455E+04 -0.1986599E-02  0.5798340E-02
  0.1628572E+01 -0.9088349E-03 -0.2868652E-02  0.5956286E+05  0.6783840E+04 -0.4497327E-03  0.8728027E-02
  0.1659524E+01  0.6252382E-03 -0.3967285E-02  0.5956098E+05  0.6088640E+04 -0.2942297E-03  0.4028320E-02
  0.1690476E+01 -0.4513163E-03  0.1831055E-02  0.5961409E+05  0.5504363E+04  0.0000000E+00  0.4577637E-03
  0.1721429E+01 -0.1755077E-02 -0.7324219E-03  0.5972184E+05  0.4991146E+04  0.2411015E-02  0.3509521E-02
  0.1752381E+01 -0.3482985E-04 -0.6530762E-02  0.5985895E+05  0.4495609E+04  0.0000000E+00  0.1190186E-01
  0.1783333E+01 -0.1300562E-02  0.8544922E-03  0.6001574E+05  0.4126644E+04 -0.2738026E-03  0.2639771E-02
  0.1814286E+01  0.1160629E-02  0.1312256E-02  0.6020087E+05  0.3858203E+04 -0.1749354E-02 -0.1770020E-02
  0.1845238E+01  0.3969254E-03 -0.2899170E-02  0.6040891E+05  0.3639650E+04 -0.3969254E-03  0.2609253E-02
  0.1876190E+01  0.7156914E-03  0.2716064E-02  0.6063386E+05  0.3476238E+04 -0.3383269E-02 -0.1876831E-02
  0.1907143E+01 -0.3680397E-03 -0.2563477E-02  0.6078795E+05  0.3014657E+04 -0.2816304E-02  0.1052856E-02
  0.1938095E+01 -0.1086486E-02 -0.1586914E-02  0.6091834E+05  0.2576940E+04 -0.1511632E-02 -0.2166748E-02
  0.1969048E+01  0.3099730E-04 -0.8544922E-03  0.6107450E+05  0.2289540E+04 -0.4463611E-02  0.2227783E-02
  0.2000000E+01  0.7629395E-03  0.2136230E-03  0.6123768E+05  0.2024792E+04 -0.5615234E-02 -0.2784729E-02
Zone t="Motion of body    1 in DoF   3",I=    64,F=POINT
  0.5000000E-01 -0.1849685E+06 -0.1665454E-01 -0.5493164E-02 -0.2326326E-04  0.4810722E+06  0.2691199E-01
  0.8095238E-01 -0.1860435E+06 -0.7336427E-01 -0.1027276E-01 -0.7040903E-04  0.4836450E+06  0.1189157E+00
  0.1119048E+00 -0.1864510E+06 -0.2062114E+00 -0.4445177E-01 -0.2652847E-03  0.4840885E+06  0.3338799E+00
  0.1428571E+00 -0.1868409E+06 -0.4639393E+00  0.1922607E-02  0.2893852E-04  0.4845678E+06  0.7507406E+00
  0.1738095E+00 -0.1871682E+06 -0.9237037E+00 -0.3603791E-01 -0.2983809E-03  0.4849565E+06  0.1494475E+01
  0.2047619E+00 -0.1875942E+06 -0.1705757E+01 -0.5551715E-02  0.5625654E-04  0.4854598E+06  0.2761026E+01
  0.2357143E+00 -0.1878018E+06 -0.3003264E+01 -0.2071496E-01 -0.2166405E-03  0.4859853E+06  0.4860588E+01
  0.2666667E+00 -0.1882189E+06 -0.5122711E+01 -0.2660751E-02 -0.5303435E-03  0.4865555E+06  0.8295065E+01
  0.2976190E+00 -0.1886650E+06 -0.8598463E+01  0.1245850E-01 -0.7116795E-04  0.4873056E+06  0.1391899E+02
  0.3285715E+00 -0.1893569E+06 -0.1424048E+02 -0.1565021E-01 -0.8956194E-03  0.4880260E+06  0.2305130E+02
  0.3595238E+00 -0.1897812E+06 -0.2337646E+02  0.1909875E-01  0.1229495E-03  0.4891611E+06  0.3785348E+02
  0.3904762E+00 -0.1905149E+06 -0.3812758E+02 -0.1996854E-01 -0.9362400E-03  0.4899741E+06  0.6173304E+02
  0.4214286E+00 -0.1914273E+06 -0.6140796E+02  0.1383119E-01  0.7939339E-03  0.4914419E+06  0.9941525E+02
  0.4523810E+00 -0.1921403E+06 -0.9801348E+02 -0.1990067E-01 -0.1849771E-02  0.4922648E+06  0.1586465E+03
  0.4833333E+00 -0.1929642E+06 -0.1524435E+03 -0.9439402E-02 -0.1365662E-02  0.4936607E+06  0.2468667E+03
  0.5142857E+00 -0.1939512E+06 -0.2335428E+03 -0.2314250E-02 -0.8933544E-03  0.4954404E+06  0.3780664E+03
  0.5452381E+00 -0.1954987E+06 -0.3495307E+03  0.9878900E-02  0.4899502E-03  0.4973357E+06  0.5657688E+03
  0.5761905E+00 -0.1966494E+06 -0.5102052E+03 -0.2473437E-01 -0.2344131E-02  0.4995888E+06  0.8260203E+03
  0.6071429E+00 -0.1978053E+06 -0.7312563E+03 -0.9148092E-02 -0.2943993E-02  0.5012442E+06  0.1183857E+04
  0.6380953E+00 -0.1993930E+06 -0.1025251E+04  0.2078042E-01  0.4708767E-02  0.5034126E+06  0.1659392E+04
  0.6690477E+00 -0.2011871E+06 -0.1413869E+04  0.9943734E-02 -0.3459930E-02  0.5065378E+06  0.2287903E+04
  0.7000000E+00 -0.2027709E+06 -0.1920746E+04  0.9896414E-02  0.2037048E-02  0.5086031E+06  0.3105998E+04
  0.7309524E+00 -0.2047920E+06 -0.2568272E+04  0.1377764E-01  0.2426147E-02  0.5117146E+06  0.4153344E+04
  0.7619048E+00 -0.2067060E+06 -0.3387131E+04 -0.3965377E-02 -0.1523972E-02  0.5150996E+06  0.5478243E+04
  0.7928572E+00 -0.2085611E+06 -0.4413624E+04 -0.1978419E-01 -0.1006508E-01  0.5182258E+06  0.7134739E+04
  0.8238096E+00 -0.2111652E+06 -0.5692611E+04  0.1363236E-01  0.1129150E-02  0.5215341E+06  0.9192494E+04
  0.8547620E+00 -0.2134017E+06 -0.7259534E+04  0.7354821E-02  0.4890442E-02  0.5246184E+06  0.1171352E+05
  0.8857143E+00 -0.2159787E+06 -0.9168718E+04  0.1071561E-01 -0.7019043E-03  0.5291552E+06  0.1479056E+05
  0.9166667E+00 -0.2180580E+06 -0.1146562E+05  0.2233887E-01  0.1050568E-01  0.5324487E+06  0.1848082E+05
  0.9476191E+00 -0.2208138E+06 -0.1421243E+05 -0.8469778E-02 -0.9536743E-02  0.5364009E+06  0.2289654E+05
  0.9785714E+00 -0.2231990E+06 -0.1744874E+05 -0.8576108E-02  0.1831055E-02  0.5399462E+06  0.2808992E+05
  0.1009524E+01 -0.2256003E+06 -0.2123888E+05  0.3083427E-02  0.7141113E-02  0.5435179E+06  0.3414501E+05
  0.1040476E+01 -0.2279557E+06 -0.2565424E+05  0.4927506E-02  0.9399414E-02  0.5471895E+06  0.4118398E+05
  0.1071429E+01 -0.2300695E+06 -0.3075611E+05 -0.3873698E-02  0.1373291E-03  0.5499552E+06  0.4929343E+05
  0.1102381E+01 -0.2323842E+06 -0.3659800E+05  0.8886349E-02  0.4257202E-02  0.5530595E+06  0.5858332E+05
  0.1133333E+01 -0.2339327E+06 -0.4318383E+05 -0.6354837E-02 -0.6652832E-02  0.5549888E+06  0.6902499E+05
  0.1164286E+01 -0.2352425E+06 -0.5056586E+05 -0.3800655E-02 -0.2227783E-02  0.5570005E+06  0.8073432E+05
  0.1195238E+01 -0.2361608E+06 -0.5874324E+05 -0.1263865E-01 -0.1342773E-02  0.5586888E+06  0.9369062E+05
  0.1226190E+01 -0.2362533E+06 -0.6766270E+05  0.1493287E-01  0.2197266E-02  0.5584358E+06  0.1077031E+06
  0.1257143E+01 -0.2361332E+06 -0.7729214E+05  0.5898909E-02 -0.3906250E-02  0.5572455E+06  0.1227405E+06
  0.1288095E+01 -0.2356470E+06 -0.8762031E+05 -0.1919054E-01 -0.2429199E-01  0.5558767E+06  0.1387951E+06
  0.1319048E+01 -0.2338689E+06 -0.9845505E+05 -0.1730578E-01 -0.4882812E-02  0.5520986E+06  0.1555089E+06
  0.1350000E+01 -0.2317781E+06 -0.1098521E+06  0.1989294E-02 -0.6713867E-03  0.5487292E+06  0.1731859E+06
  0.1380952E+01 -0.2288098E+06 -0.1215596E+06 -0.8839575E-04 -0.8911133E-02  0.5439296E+06  0.1912149E+06
  0.1411905E+01 -0.2245348E+06 -0.1332429E+06  0.1815616E-01  0.1220703E-01  0.5368474E+06  0.2090681E+06
  0.1442857E+01 -0.2202455E+06 -0.1450039E+06  0.6852858E-02 -0.1312256E-01  0.5289462E+06  0.2267016E+06
  0.1473810E+01 -0.2154323E+06 -0.1565082E+06  0.4596864E-02 -0.1153564E-01  0.5209199E+06  0.2439467E+06
  0.1504762E+01 -0.2096777E+06 -0.1674783E+06  0.1857709E-01  0.1464844E-01  0.5111406E+06  0.2600722E+06
  0.1535714E+01 -0.2032637E+06 -0.1778284E+06 -0.2662836E-02 -0.6652832E-02  0.5004521E+06  0.2750848E+06
  0.1566667E+01 -0.1968063E+06 -0.1876312E+06 -0.2220641E-02 -0.1220703E-02  0.4906318E+06  0.2895123E+06
  0.1597619E+01 -0.1896871E+06 -0.1963562E+06  0.5921592E-02  0.2563477E-02  0.4794390E+06  0.3018842E+06
  0.1628572E+01 -0.1822797E+06 -0.2039893E+06 -0.1424154E-02 -0.7324219E-02  0.4675652E+06  0.3121973E+06
  0.1659524E+01 -0.1752184E+06 -0.2107076E+06  0.8459104E-02  0.1068115E-01  0.4557460E+06  0.3206489E+06
  0.1690476E+01 -0.1683415E+06 -0.2165364E+06  0.3393898E-02  0.3723145E-02  0.4448174E+06  0.3280976E+06
  0.1721429E+01 -0.1613176E+06 -0.2211298E+06 -0.1134595E-01 -0.6408691E-02  0.4338077E+06  0.3336376E+06
  0.1752381E+01 -0.1541025E+06 -0.2242518E+06 -0.5503116E-02 -0.3662109E-03  0.4222521E+06  0.3363098E+06
  0.1783333E+01 -0.1474476E+06 -0.2266640E+06 -0.1232112E-02 -0.4638672E-02  0.4121328E+06  0.3382655E+06
  0.1814286E+01 -0.1413690E+06 -0.2284398E+06 -0.2018486E-03 -0.1708984E-02  0.4035183E+06  0.3398092E+06
  0.1845238E+01 -0.1352131E+06 -0.2287841E+06 -0.1038621E-01 -0.3967285E-02  0.3943413E+06  0.3385292E+06
  0.1876190E+01 -0.1293166E+06 -0.2281948E+06  0.1294751E-01  0.8850098E-02  0.3854887E+06  0.3356110E+06
  0.1907143E+01 -0.1240729E+06 -0.2271395E+06 -0.7040760E-02 -0.3234863E-02  0.3774009E+06  0.3314851E+06
  0.1938095E+01 -0.1195204E+06 -0.2258008E+06  0.8188009E-03  0.1226807E-01  0.3703916E+06  0.3269758E+06
  0.1969048E+01 -0.1151714E+06 -0.2237905E+06  0.3161724E-02  0.1098633E-02  0.3642240E+06  0.3223372E+06
  0.2000000E+01 -0.1110584E+06 -0.2209238E+06 -0.3784180E-02  0.2746582E-02  0.3581889E+06  0.3158248E+06
