VARIABLES="w (rad/s)"
"abs(F   1   1)" "angle(F   1   1)"
"abs(F   1   2)" "angle(F   1   2)"
"abs(F   1   3)" "angle(F   1   3)"
Zone t="Diffraction force - beta =   0.000 deg",I=    64,F=POINT
  0.5000000E-01  0.2816405E+04 -0.1570807E+01  0.4572462E+06 -0.3142128E-04  0.4965274E+02 -0.1571272E+01
  0.8095238E-01  0.4595658E+04 -0.1570805E+01  0.4563511E+06 -0.8451306E-04  0.8078563E+02 -0.1571080E+01
  0.1119048E+00  0.6413177E+04 -0.1570792E+01  0.4550368E+06 -0.1677747E-03  0.1130968E+03 -0.1570993E+01
  0.1428571E+00  0.8302520E+04 -0.1570792E+01  0.4533029E+06 -0.2875689E-03  0.1472790E+03 -0.1570934E+01
  0.1738095E+00  0.1025531E+05 -0.1570788E+01  0.4511459E+06 -0.4534820E-03  0.1827274E+03 -0.1570913E+01
  0.2047619E+00  0.1232926E+05 -0.1570781E+01  0.4485619E+06 -0.6793410E-03  0.2208939E+03 -0.1570880E+01
  0.2357143E+00  0.1452899E+05 -0.1570773E+01  0.4455473E+06 -0.9856221E-03  0.2629375E+03 -0.1570854E+01
  0.2666667E+00  0.1688118E+05 -0.1570760E+01  0.4420964E+06 -0.1397054E-02  0.3072849E+03 -0.1570840E+01
  0.2976190E+00  0.1945447E+05 -0.1570742E+01  0.4382080E+06 -0.1955848E-02  0.3578587E+03 -0.1570806E+01
  0.3285715E+00  0.2225761E+05 -0.1570722E+01  0.4338799E+06 -0.2704408E-02  0.4144132E+03 -0.1570768E+01
  0.3595238E+00  0.2532618E+05 -0.1570679E+01  0.4291189E+06 -0.3710495E-02  0.4769599E+03 -0.1570723E+01
  0.3904762E+00  0.2873892E+05 -0.1570622E+01  0.4239267E+06 -0.5049518E-02  0.5482467E+03 -0.1570661E+01
  0.4214286E+00  0.3253334E+05 -0.1570537E+01  0.4183577E+06 -0.6768795E-02  0.6327848E+03 -0.1570564E+01
  0.4523810E+00  0.3665141E+05 -0.1570410E+01  0.4124019E+06 -0.8999815E-02  0.7185134E+03 -0.1570439E+01
  0.4833333E+00  0.4116341E+05 -0.1570236E+01  0.4061264E+06 -0.1167997E-01  0.8208673E+03 -0.1570261E+01
  0.5142857E+00  0.4610594E+05 -0.1569995E+01  0.3995574E+06 -0.1496360E-01  0.9349955E+03 -0.1570015E+01
  0.5452381E+00  0.5138872E+05 -0.1569672E+01  0.3927231E+06 -0.1879860E-01  0.1062938E+04 -0.1569691E+01
  0.5761905E+00  0.5692571E+05 -0.1569252E+01  0.3856440E+06 -0.2319221E-01  0.1193042E+04 -0.1569266E+01
  0.6071429E+00  0.6277338E+05 -0.1568707E+01  0.3783639E+06 -0.2827493E-01  0.1335950E+04 -0.1568724E+01
  0.6380953E+00  0.6894303E+05 -0.1568029E+01  0.3708669E+06 -0.3391671E-01  0.1499418E+04 -0.1568043E+01
  0.6690477E+00  0.7539289E+05 -0.1567186E+01  0.3632104E+06 -0.4024167E-01  0.1677079E+04 -0.1567197E+01
  0.7000000E+00  0.8201910E+05 -0.1566147E+01  0.3554355E+06 -0.4732188E-01  0.1856833E+04 -0.1566157E+01
  0.7309524E+00  0.8875632E+05 -0.1564892E+01  0.3475178E+06 -0.5509472E-01  0.2043735E+04 -0.1564900E+01
  0.7619048E+00  0.9575877E+05 -0.1563390E+01  0.3394928E+06 -0.6363304E-01  0.2252715E+04 -0.1563399E+01
  0.7928572E+00  0.1030035E+06 -0.1561611E+01  0.3314209E+06 -0.7297713E-01  0.2474787E+04 -0.1561623E+01
  0.8238096E+00  0.1104198E+06 -0.1559521E+01  0.3233233E+06 -0.8313987E-01  0.2713399E+04 -0.1559536E+01
  0.8547620E+00  0.1179710E+06 -0.1557091E+01  0.3151926E+06 -0.9412608E-01  0.2972285E+04 -0.1557104E+01
  0.8857143E+00  0.1255922E+06 -0.1554286E+01  0.3070527E+06 -0.1059454E+00  0.3231583E+04 -0.1554290E+01
  0.9166667E+00  0.1332185E+06 -0.1551076E+01  0.2989272E+06 -0.1186201E+00  0.3491800E+04 -0.1551073E+01
  0.9476191E+00  0.1409456E+06 -0.1547452E+01  0.2908567E+06 -0.1321725E+00  0.3775248E+04 -0.1547456E+01
  0.9785714E+00  0.1487778E+06 -0.1543397E+01  0.2828480E+06 -0.1466040E+00  0.4084000E+04 -0.1543433E+01
  0.1009524E+01  0.1566768E+06 -0.1538895E+01  0.2749098E+06 -0.1619146E+00  0.4410883E+04 -0.1538935E+01
  0.1040476E+01  0.1645454E+06 -0.1533931E+01  0.2670691E+06 -0.1781109E+00  0.4743843E+04 -0.1533981E+01
  0.1071429E+01  0.1723216E+06 -0.1528500E+01  0.2593308E+06 -0.1951880E+00  0.5086173E+04 -0.1528550E+01
  0.1102381E+01  0.1799089E+06 -0.1522602E+01  0.2517124E+06 -0.2131575E+00  0.5436144E+04 -0.1522620E+01
  0.1133333E+01  0.1872606E+06 -0.1516255E+01  0.2442039E+06 -0.2320079E+00  0.5789221E+04 -0.1516203E+01
  0.1164286E+01  0.1943736E+06 -0.1509509E+01  0.2367909E+06 -0.2517472E+00  0.6154216E+04 -0.1509440E+01
  0.1195238E+01  0.2012684E+06 -0.1502458E+01  0.2295155E+06 -0.2723967E+00  0.6522226E+04 -0.1502400E+01
  0.1226190E+01  0.2078533E+06 -0.1495158E+01  0.2223822E+06 -0.2939515E+00  0.6890327E+04 -0.1495196E+01
  0.1257143E+01  0.2140420E+06 -0.1487621E+01  0.2154135E+06 -0.3165962E+00  0.7263983E+04 -0.1487643E+01
  0.1288095E+01  0.2198352E+06 -0.1480098E+01  0.2086048E+06 -0.3397763E+00  0.7650429E+04 -0.1480059E+01
  0.1319048E+01  0.2251110E+06 -0.1472520E+01  0.2019407E+06 -0.3640293E+00  0.8033479E+04 -0.1472421E+01
  0.1350000E+01  0.2298597E+06 -0.1465105E+01  0.1954136E+06 -0.3891599E+00  0.8412553E+04 -0.1465036E+01
  0.1380952E+01  0.2340523E+06 -0.1458019E+01  0.1890371E+06 -0.4151390E+00  0.8773651E+04 -0.1457968E+01
  0.1411905E+01  0.2371750E+06 -0.1451944E+01  0.1829221E+06 -0.4415133E+00  0.9061018E+04 -0.1451995E+01
  0.1442857E+01  0.2401188E+06 -0.1445951E+01  0.1768819E+06 -0.4692748E+00  0.9391096E+04 -0.1445965E+01
  0.1473810E+01  0.2423899E+06 -0.1440689E+01  0.1710174E+06 -0.4979396E+00  0.9715356E+04 -0.1440567E+01
  0.1504762E+01  0.2440282E+06 -0.1436352E+01  0.1652945E+06 -0.5274908E+00  0.1002936E+05 -0.1436263E+01
  0.1535714E+01  0.2450418E+06 -0.1433119E+01  0.1597161E+06 -0.5579176E+00  0.1032765E+05 -0.1432976E+01
  0.1566667E+01  0.2454321E+06 -0.1431117E+01  0.1542865E+06 -0.5892235E+00  0.1059786E+05 -0.1431046E+01
  0.1597619E+01  0.2452086E+06 -0.1430464E+01  0.1490176E+06 -0.6214033E+00  0.1084378E+05 -0.1430420E+01
  0.1628572E+01  0.2443932E+06 -0.1431280E+01  0.1439025E+06 -0.6545036E+00  0.1106156E+05 -0.1431229E+01
  0.1659524E+01  0.2430500E+06 -0.1433700E+01  0.1389325E+06 -0.6885002E+00  0.1126377E+05 -0.1433693E+01
  0.1690476E+01  0.2412042E+06 -0.1437816E+01  0.1341356E+06 -0.7233727E+00  0.1145375E+05 -0.1437808E+01
  0.1721429E+01  0.2389077E+06 -0.1443693E+01  0.1294661E+06 -0.7591507E+00  0.1162396E+05 -0.1443702E+01
  0.1752381E+01  0.2362005E+06 -0.1451405E+01  0.1249320E+06 -0.7958344E+00  0.1177423E+05 -0.1451298E+01
  0.1783333E+01  0.2331492E+06 -0.1460996E+01  0.1205207E+06 -0.8334165E+00  0.1190358E+05 -0.1460789E+01
  0.1814286E+01  0.2297961E+06 -0.1472492E+01  0.1162398E+06 -0.8718721E+00  0.1200733E+05 -0.1472219E+01
  0.1845238E+01  0.2261722E+06 -0.1485904E+01  0.1120943E+06 -0.9112318E+00  0.1209208E+05 -0.1485724E+01
  0.1876190E+01  0.2223258E+06 -0.1501256E+01  0.1080810E+06 -0.9515629E+00  0.1215440E+05 -0.1501368E+01
  0.1907143E+01  0.2183008E+06 -0.1518543E+01  0.1041883E+06 -0.9928380E+00  0.1220561E+05 -0.1518893E+01
  0.1938095E+01  0.2141403E+06 -0.1537753E+01  0.1004378E+06 -0.1034976E+01  0.1224940E+05 -0.1538150E+01
  0.1969048E+01  0.2098674E+06 -0.1558857E+01  0.9679948E+05 -0.1078071E+01  0.1228377E+05 -0.1559292E+01
  0.2000000E+01  0.2055137E+06 -0.1581842E+01  0.9326671E+05 -0.1122197E+01  0.1231059E+05 -0.1582160E+01
