VARIABLES="w (rad/s)"
"A   1   1" "B   1   1"
"A   1   2" "B   1   2"
"A   1   3" "B   1   3"
Zone t="Motion of body    1 in DoF   1",I=    64,F=POINT
  0.5000000E-01  0.5492361E+04  0.3428359E-04  0.1764297E-03  0.3670620E-06 -0.2524000E+04 -0.1310705E-04
  0.8095238E-01  0.5514978E+04  0.1298755E-03 -0.4417756E-03 -0.8498788E-06 -0.2536172E+04 -0.4836417E-04
  0.1119048E+00  0.5535486E+04  0.3581582E-03 -0.2386215E-03  0.9527880E-06 -0.2547851E+04 -0.1300964E-03
  0.1428571E+00  0.5546258E+04  0.8136060E-03  0.1174927E-02  0.3991939E-05 -0.2555626E+04 -0.3046447E-03
  0.1738095E+00  0.5556166E+04  0.1611554E-02  0.1097379E-02  0.4292511E-05 -0.2560120E+04 -0.5971999E-03
  0.2047619E+00  0.5560588E+04  0.3003846E-02  0.3586259E-03  0.2500430E-05 -0.2560457E+04 -0.1111522E-02
  0.2357143E+00  0.5570436E+04  0.5303391E-02  0.9346008E-03  0.4806505E-05 -0.2560984E+04 -0.1949577E-02
  0.2666667E+00  0.5567735E+04  0.9068718E-02  0.3004074E-03  0.4621754E-05 -0.2562750E+04 -0.3335191E-02
  0.2976190E+00  0.5574715E+04  0.1525081E-01 -0.4486084E-04 -0.2797882E-05 -0.2561812E+04 -0.5600734E-02
  0.3285715E+00  0.5582558E+04  0.2531215E-01  0.7662565E-03  0.6114511E-05 -0.2562319E+04 -0.9275592E-02
  0.3595238E+00  0.5585862E+04  0.4168254E-01  0.4880791E-03  0.1250149E-04 -0.2563074E+04 -0.1523059E-01
  0.3904762E+00  0.5585026E+04  0.6815066E-01  0.1309092E-02  0.4034000E-04 -0.2563069E+04 -0.2484231E-01
  0.4214286E+00  0.5595590E+04  0.1100764E+00  0.3032361E-03  0.1161837E-04 -0.2563922E+04 -0.3997490E-01
  0.4523810E+00  0.5614437E+04  0.1763662E+00  0.4469219E-03  0.3565336E-05 -0.2562891E+04 -0.6374196E-01
  0.4833333E+00  0.5611296E+04  0.2753637E+00  0.6748068E-03  0.5162973E-04 -0.2565996E+04 -0.9929400E-01
  0.5142857E+00  0.5616696E+04  0.4232285E+00  0.6935332E-03  0.1865579E-04 -0.2566695E+04 -0.1520988E+00
  0.5452381E+00  0.5629601E+04  0.6355143E+00  0.3113393E-03  0.1122151E-04 -0.2567279E+04 -0.2273534E+00
  0.5761905E+00  0.5647391E+04  0.9322436E+00  0.4170945E-03  0.5543418E-04 -0.2566864E+04 -0.3316560E+00
  0.6071429E+00  0.5654069E+04  0.1341543E+01  0.7539636E-04  0.1567975E-04 -0.2570805E+04 -0.4754238E+00
  0.6380953E+00  0.5658984E+04  0.1888246E+01  0.1644021E-02  0.1613405E-03 -0.2571201E+04 -0.6660844E+00
  0.6690477E+00  0.5676975E+04  0.2615462E+01  0.7184120E-03  0.9385869E-04 -0.2570397E+04 -0.9170433E+00
  0.7000000E+00  0.5697196E+04  0.3569719E+01  0.3324236E-03 -0.3840774E-05 -0.2573519E+04 -0.1244635E+01
  0.7309524E+00  0.5708716E+04  0.4795134E+01  0.7723829E-03  0.9865686E-04 -0.2576362E+04 -0.1663029E+01
  0.7619048E+00  0.5716989E+04  0.6356732E+01  0.9162425E-03  0.5724281E-04 -0.2580203E+04 -0.2193352E+01
  0.7928572E+00  0.5731785E+04  0.8330743E+01  0.3849063E-04 -0.1001284E-03 -0.2581592E+04 -0.2856280E+01
  0.8238096E+00  0.5748557E+04  0.1079886E+02 -0.3982279E-03 -0.1398325E-03 -0.2583395E+04 -0.3678236E+01
  0.8547620E+00  0.5769901E+04  0.1385860E+02  0.9372041E-04  0.1019239E-04 -0.2586390E+04 -0.4688150E+01
  0.8857143E+00  0.5791825E+04  0.1761740E+02  0.6891066E-03  0.6431341E-04 -0.2588788E+04 -0.5916533E+01
  0.9166667E+00  0.5814648E+04  0.2219766E+02  0.1789440E-03 -0.2783537E-04 -0.2592743E+04 -0.7400919E+01
  0.9476191E+00  0.5829747E+04  0.2772165E+02  0.1231821E-02  0.3174245E-03 -0.2598353E+04 -0.9182293E+01
  0.9785714E+00  0.5845572E+04  0.3435032E+02 -0.1110996E-02 -0.3927350E-03 -0.2601865E+04 -0.1129493E+02
  0.1009524E+01  0.5866304E+04  0.4226160E+02  0.2758458E-03  0.1712441E-03 -0.2604516E+04 -0.1378471E+02
  0.1040476E+01  0.5894024E+04  0.5165678E+02  0.4619537E-03  0.1516342E-03 -0.2606233E+04 -0.1669838E+02
  0.1071429E+01  0.5924151E+04  0.6273588E+02  0.2207438E-03 -0.7677078E-04 -0.2610664E+04 -0.2010357E+02
  0.1102381E+01  0.5951429E+04  0.7570697E+02 -0.4913791E-03 -0.2598166E-03 -0.2614477E+04 -0.2404499E+02
  0.1133333E+01  0.5980208E+04  0.9083265E+02  0.9895774E-03  0.3858805E-03 -0.2619670E+04 -0.2859184E+02
  0.1164286E+01  0.6007157E+04  0.1083588E+03  0.2096913E-03  0.1466274E-04 -0.2624731E+04 -0.3379907E+02
  0.1195238E+01  0.6033421E+04  0.1285694E+03 -0.6383158E-04  0.7510185E-05 -0.2629228E+04 -0.3972462E+02
  0.1226190E+01  0.6062171E+04  0.1517786E+03 -0.6782013E-03 -0.8174181E-03 -0.2634037E+04 -0.4643880E+02
  0.1257143E+01  0.6086442E+04  0.1782239E+03  0.1140941E-02  0.9932518E-03 -0.2637973E+04 -0.5399447E+02
  0.1288095E+01  0.6120535E+04  0.2084682E+03  0.8647587E-03  0.4096031E-03 -0.2640521E+04 -0.6246107E+02
  0.1319048E+01  0.6156293E+04  0.2427378E+03 -0.5784017E-05 -0.4954338E-03 -0.2645159E+04 -0.7194149E+02
  0.1350000E+01  0.6191302E+04  0.2814136E+03  0.2825702E-03  0.2803802E-03 -0.2648102E+04 -0.8245229E+02
  0.1380952E+01  0.6229088E+04  0.3249537E+03 -0.2541378E-03 -0.1306534E-03 -0.2651279E+04 -0.9408445E+02
  0.1411905E+01  0.6215874E+04  0.3684109E+03 -0.1296868E-03  0.3194809E-04 -0.2655456E+04 -0.1058072E+03
  0.1442857E+01  0.6250721E+04  0.4220087E+03  0.1480556E-03 -0.1583099E-03 -0.2660867E+04 -0.1197906E+03
  0.1473810E+01  0.6280663E+04  0.4814772E+03  0.1081920E-02  0.7300377E-03 -0.2663495E+04 -0.1349873E+03
  0.1504762E+01  0.6311504E+04  0.5473588E+03  0.1267542E-03 -0.4329681E-03 -0.2667556E+04 -0.1515684E+03
  0.1535714E+01  0.6343694E+04  0.6200308E+03 -0.4222781E-03 -0.3051758E-03 -0.2670708E+04 -0.1694852E+03
  0.1566667E+01  0.6373286E+04  0.6997954E+03 -0.4090654E-03 -0.6589890E-03 -0.2670862E+04 -0.1886780E+03
  0.1597619E+01  0.6405741E+04  0.7871955E+03  0.0000000E+00 -0.4673004E-04 -0.2670793E+04 -0.2092556E+03
  0.1628572E+01  0.6440140E+04  0.8826004E+03 -0.2248664E-03 -0.3871918E-03 -0.2670652E+04 -0.2312498E+03
  0.1659524E+01  0.6472192E+04  0.9863448E+03  0.8872865E-03  0.7638931E-03 -0.2671276E+04 -0.2547568E+03
  0.1690476E+01  0.6501197E+04  0.1098643E+04 -0.1940660E-03  0.3776550E-03 -0.2669715E+04 -0.2795359E+03
  0.1721429E+01  0.6528991E+04  0.1219936E+04 -0.9307228E-04 -0.3261566E-03 -0.2667769E+04 -0.3056704E+03
  0.1752381E+01  0.6556390E+04  0.1350526E+04 -0.6095223E-03 -0.5817413E-03 -0.2666730E+04 -0.3332092E+03
  0.1783333E+01  0.6580293E+04  0.1490424E+04  0.2566899E-03 -0.4310608E-03 -0.2663923E+04 -0.3618434E+03
  0.1814286E+01  0.6599729E+04  0.1639745E+04  0.1934382E-03  0.4978180E-03 -0.2659485E+04 -0.3914699E+03
  0.1845238E+01  0.6616643E+04  0.1798634E+04 -0.4300025E-03 -0.4329681E-03 -0.2654703E+04 -0.4220680E+03
  0.1876190E+01  0.6629695E+04  0.1966860E+04  0.2358529E-03  0.5702972E-03 -0.2649488E+04 -0.4534936E+03
  0.1907143E+01  0.6637249E+04  0.2144390E+04 -0.8480916E-03 -0.1974106E-02 -0.2644074E+04 -0.4857361E+03
  0.1938095E+01  0.6640842E+04  0.2330723E+04 -0.3700350E-03  0.1144409E-03 -0.2636467E+04 -0.5182742E+03
  0.1969048E+01  0.6638072E+04  0.2525472E+04 -0.1782345E-03 -0.2784729E-03 -0.2626187E+04 -0.5508445E+03
  0.2000000E+01  0.6633596E+04  0.2728621E+04 -0.3280640E-03 -0.5874634E-03 -0.2616264E+04 -0.5837258E+03
Zone t="Motion of body    1 in DoF   2",I=    64,F=POINT
  0.5000000E-01  0.6771088E-03  0.4172325E-06  0.5080089E+04  0.6435257E+01 -0.3051758E-03  0.3054738E-06
  0.8095238E-01 -0.7657444E-03 -0.1147389E-05  0.5060473E+04  0.1069553E+02 -0.3121881E-03 -0.1639128E-06
  0.1119048E+00  0.9715303E-03  0.1192093E-05  0.5053846E+04  0.1536983E+02  0.5028095E-03 -0.4023314E-06
  0.1428571E+00 -0.1134872E-03 -0.4440546E-05  0.5055295E+04  0.2065592E+02  0.5440712E-03  0.1341105E-05
  0.1738095E+00  0.1646068E-03  0.5364418E-06  0.5063569E+04  0.2680826E+02 -0.3456743E-03 -0.4768372E-06
  0.2047619E+00  0.6986219E-03 -0.3874302E-05  0.5077119E+04  0.3413432E+02 -0.8383462E-04 -0.3486872E-05
  0.2357143E+00 -0.1019564E-02  0.1251698E-05  0.5092719E+04  0.4308877E+02 -0.2103863E-03  0.2145767E-05
  0.2666667E+00  0.2861023E-04 -0.3576279E-06  0.5117583E+04  0.5410399E+02 -0.4506111E-03  0.7212162E-05
  0.2976190E+00 -0.3460693E-03  0.7390976E-05  0.5144308E+04  0.6800488E+02  0.3973389E-03  0.4172325E-05
  0.3285715E+00 -0.4411780E-03  0.6318092E-05  0.5171835E+04  0.8540978E+02 -0.3308835E-03 -0.1049042E-04
  0.3595238E+00  0.1612783E-02  0.7629395E-05  0.5205421E+04  0.1073847E+03 -0.6578458E-03 -0.1549721E-05
  0.3904762E+00 -0.2149256E-03 -0.9536743E-05  0.5239043E+04  0.1349608E+03  0.1465402E-04 -0.8583069E-05
  0.4214286E+00 -0.2806065E-03 -0.2479553E-04  0.5266127E+04  0.1682239E+03  0.4209098E-03 -0.7152557E-05
  0.4523810E+00 -0.6661665E-03 -0.6198883E-05  0.5294917E+04  0.2090146E+03 -0.6324366E-04  0.1025200E-04
  0.4833333E+00  0.4577636E-03  0.1430511E-04  0.5317778E+04  0.2549052E+03 -0.5564196E-03 -0.2622604E-04
  0.5142857E+00  0.3412035E-03  0.2384186E-05  0.5332993E+04  0.3079819E+03  0.1594755E-03 -0.1192093E-05
  0.5452381E+00  0.6016894E-03  0.2670288E-04  0.5340347E+04  0.3663451E+03 -0.2028953E-03 -0.6055832E-04
  0.5761905E+00  0.5958494E-03 -0.1525879E-04  0.5345581E+04  0.4294093E+03  0.5296439E-04  0.2670288E-04
  0.6071429E+00 -0.6283030E-03 -0.3814697E-04  0.5348103E+04  0.4985816E+03  0.1947739E-03  0.1049042E-04
  0.6380953E+00  0.5260866E-03 -0.6866455E-04  0.5346483E+04  0.5713085E+03  0.2211955E-03  0.3099442E-04
  0.6690477E+00  0.3991178E-03 -0.5149841E-04  0.5338322E+04  0.6490525E+03  0.1140336E-04  0.2813339E-04
  0.7000000E+00  0.3051758E-03  0.2479553E-04  0.5324130E+04  0.7322031E+03  0.5013602E-03 -0.2861023E-04
  0.7309524E+00 -0.2296274E-03 -0.2670288E-04  0.5309566E+04  0.8194161E+03 -0.1461265E-03  0.2098083E-04
  0.7619048E+00  0.2703666E-03 -0.9727478E-04  0.5293696E+04  0.9112139E+03 -0.1351833E-03 -0.9059906E-04
  0.7928572E+00  0.2309438E-03 -0.1831055E-03  0.5273808E+04  0.1007583E+04 -0.3560384E-03  0.1525879E-03
  0.8238096E+00 -0.3797057E-03 -0.1354218E-03  0.5247753E+04  0.1108262E+04 -0.3241390E-03 -0.1773834E-03
  0.8547620E+00 -0.1088942E-02 -0.1144409E-03  0.5216958E+04  0.1212857E+04 -0.1695893E-03  0.5340576E-04
  0.8857143E+00 -0.1309303E-02 -0.2899170E-03  0.5183103E+04  0.1321090E+04  0.4048501E-03 -0.1602173E-03
  0.9166667E+00  0.5493164E-03  0.1525879E-04  0.5147918E+04  0.1432559E+04 -0.7074529E-04 -0.7629395E-04
  0.9476191E+00  0.4106071E-03 -0.2555847E-03  0.5109698E+04  0.1547034E+04 -0.4548882E-03  0.2422333E-03
  0.9785714E+00 -0.1013540E-02  0.3814697E-04  0.5068772E+04  0.1664179E+04 -0.7796461E-05 -0.1907349E-05
  0.1009524E+01  0.1889355E-03  0.4196167E-04  0.5023607E+04  0.1783741E+04  0.4156581E-03  0.7820129E-04
  0.1040476E+01  0.3519647E-03  0.1869202E-03  0.4975221E+04  0.1905279E+04  0.4766189E-04  0.8201599E-04
  0.1071429E+01 -0.1637777E-03  0.3242493E-03  0.4922791E+04  0.2028463E+04  0.3168742E-03  0.2479553E-04
  0.1102381E+01 -0.4775375E-03  0.7629395E-05  0.4867283E+04  0.2152911E+04  0.3944875E-03 -0.1583099E-03
  0.1133333E+01  0.9087955E-03 -0.2670288E-03  0.4810733E+04  0.2277974E+04  0.8785023E-03 -0.4577637E-04
  0.1164286E+01  0.3407484E-03 -0.3051758E-04  0.4752757E+04  0.2403414E+04  0.1441628E-03 -0.2098083E-04
  0.1195238E+01  0.1531958E-03  0.4959106E-04  0.4693800E+04  0.2528806E+04  0.7021474E-04 -0.1182556E-03
  0.1226190E+01 -0.6719793E-03 -0.2059937E-03  0.4633191E+04  0.2653916E+04  0.3670998E-03  0.1525879E-03
  0.1257143E+01  0.1189492E-02 -0.3280640E-03  0.4568787E+04  0.2781055E+04  0.1759962E-03 -0.7629395E-05
  0.1288095E+01 -0.5449165E-03 -0.2288818E-04  0.4504655E+04  0.2902724E+04  0.1006911E-03 -0.1335144E-03
  0.1319048E+01 -0.3354730E-03 -0.3204346E-03  0.4437952E+04  0.3025498E+04 -0.5957538E-03  0.3166199E-03
  0.1350000E+01 -0.5651403E-04 -0.1068115E-03  0.4369469E+04  0.3146887E+04 -0.4238552E-03  0.1029968E-03
  0.1380952E+01 -0.5745724E-03  0.1983643E-03  0.4301124E+04  0.3266022E+04  0.5303745E-03  0.2288818E-04
  0.1411905E+01 -0.7132776E-03  0.4577637E-04  0.4213848E+04  0.3372564E+04 -0.1080724E-03  0.2250671E-03
  0.1442857E+01  0.1903572E-03 -0.2899170E-03  0.4145128E+04  0.3487029E+04 -0.2643850E-04 -0.7629395E-05
  0.1473810E+01  0.5280182E-03 -0.8468628E-03  0.4075582E+04  0.3599154E+04 -0.2381258E-03 -0.3013611E-03
  0.1504762E+01  0.8112267E-03  0.7629395E-04  0.4006965E+04  0.3708135E+04  0.1521050E-04 -0.1144409E-03
  0.1535714E+01  0.1192315E-03  0.1373291E-03  0.3938371E+04  0.3814110E+04  0.2533669E-03 -0.4959106E-04
  0.1566667E+01 -0.8668291E-03 -0.6790161E-03  0.3869476E+04  0.3917352E+04 -0.6330774E-03  0.8773804E-04
  0.1597619E+01  0.1337134E-03 -0.2517700E-03  0.3801022E+04  0.4017260E+04 -0.1241624E-03 -0.3471375E-03
  0.1628572E+01 -0.1873886E-03 -0.9841919E-03  0.3732415E+04  0.4113828E+04  0.4684716E-04  0.3166199E-03
  0.1659524E+01  0.2390617E-03  0.4043579E-03  0.3664163E+04  0.4207091E+04 -0.4091632E-03 -0.4196167E-04
  0.1690476E+01 -0.3610530E-03 -0.7247925E-03  0.3595711E+04  0.4297198E+04 -0.3520267E-03  0.5416870E-03
  0.1721429E+01 -0.5318416E-04  0.3967285E-03  0.3528102E+04  0.4383501E+04 -0.8864027E-04  0.9155273E-04
  0.1752381E+01 -0.1567343E-03 -0.4577637E-04  0.3461699E+04  0.4465467E+04  0.1523806E-03 -0.2174377E-03
  0.1783333E+01 -0.3251405E-03 -0.0000000E+00  0.3396321E+04  0.4543437E+04 -0.3379750E-03  0.7629395E-04
  0.1814286E+01  0.9251392E-04  0.6713867E-03  0.3332076E+04  0.4617278E+04 -0.4205178E-05 -0.1525879E-04
  0.1845238E+01 -0.1819241E-03 -0.1083374E-02  0.3269484E+04  0.4686681E+04 -0.1777895E-03 -0.5111694E-03
  0.1876190E+01  0.9759429E-04 -0.1831055E-03  0.3207975E+04  0.4751863E+04  0.3253143E-04 -0.1983643E-03
  0.1907143E+01 -0.5840631E-03 -0.1983643E-03  0.3147919E+04  0.4813183E+04 -0.2000216E-04 -0.3204346E-03
  0.1938095E+01  0.3149234E-04  0.1678467E-03  0.3089139E+04  0.4870713E+04 -0.1928906E-03  0.2975464E-03
  0.1969048E+01 -0.2557277E-03  0.7781982E-03  0.3030991E+04  0.4925008E+04 -0.1549865E-04  0.2288818E-04
  0.2000000E+01  0.1525879E-03  0.3509521E-03  0.2974720E+04  0.4975228E+04 -0.2059937E-03 -0.1678467E-03
Zone t="Motion of body    1 in DoF   3",I=    64,F=POINT
  0.5000000E-01 -0.2523321E+04 -0.1316718E-04 -0.3910065E-03 -0.6788097E-06  0.3460100E+04  0.4034751E-05
  0.8095238E-01 -0.2536283E+04 -0.4826569E-04  0.1583029E-03 -0.6196126E-06  0.3468631E+04  0.1833819E-04
  0.1119048E+00 -0.2548604E+04 -0.1295349E-03  0.2383552E-03 -0.1177827E-06  0.3477870E+04  0.4647121E-04
  0.1428571E+00 -0.2556957E+04 -0.3042938E-03  0.2866387E-03  0.1243456E-05  0.3480872E+04  0.1144012E-03
  0.1738095E+00 -0.2561807E+04 -0.5940415E-03  0.1659785E-03 -0.1335495E-05  0.3481505E+04  0.2230437E-03
  0.2047619E+00 -0.2562364E+04 -0.1107517E-02 -0.4578884E-03 -0.4548605E-05  0.3481200E+04  0.4133304E-03
  0.2357143E+00 -0.2563196E+04 -0.1944846E-02 -0.1008185E-02 -0.1051719E-04  0.3481004E+04  0.7087159E-03
  0.2666667E+00 -0.2564706E+04 -0.3324043E-02 -0.4819035E-03 -0.5716753E-05  0.3481215E+04  0.1218641E-02
  0.2976190E+00 -0.2563981E+04 -0.5586996E-02  0.3953362E-03  0.5360955E-05  0.3480782E+04  0.2050587E-02
  0.3285715E+00 -0.2564706E+04 -0.9254200E-02  0.2848065E-03  0.1628498E-05  0.3480379E+04  0.3392048E-02
  0.3595238E+00 -0.2565269E+04 -0.1519305E-01 -0.1578299E-03 -0.2689936E-05  0.3480841E+04  0.5554800E-02
  0.3904762E+00 -0.2565017E+04 -0.2476516E-01 -0.9216767E-03 -0.2240008E-04  0.3480890E+04  0.9032159E-02
  0.4214286E+00 -0.2566263E+04 -0.3987467E-01  0.1216339E-02  0.3193505E-04  0.3480302E+04  0.1448880E-01
  0.4523810E+00 -0.2565291E+04 -0.6366014E-01  0.6392880E-03  0.2161885E-04  0.3481306E+04  0.2300884E-01
  0.4833333E+00 -0.2568143E+04 -0.9904797E-01 -0.2468865E-03 -0.1580652E-04  0.3481177E+04  0.3571228E-01
  0.5142857E+00 -0.2568845E+04 -0.1517201E+00 -0.1935495E-03 -0.2937298E-04  0.3480908E+04  0.5454636E-01
  0.5452381E+00 -0.2569748E+04 -0.2268944E+00  0.6552555E-03  0.1496822E-04  0.3480738E+04  0.8119129E-01
  0.5761905E+00 -0.2569176E+04 -0.3313553E+00  0.3930950E-03  0.2169237E-04  0.3482358E+04  0.1178771E+00
  0.6071429E+00 -0.2573027E+04 -0.4745771E+00 -0.5902121E-03 -0.7929560E-04  0.3482783E+04  0.1681547E+00
  0.6380953E+00 -0.2572719E+04 -0.6648244E+00 -0.3071329E-03 -0.6239116E-04  0.3484365E+04  0.2344857E+00
  0.6690477E+00 -0.2571842E+04 -0.9163008E+00  0.1247243E-03 -0.9331852E-06  0.3485464E+04  0.3212869E+00
  0.7000000E+00 -0.2575644E+04 -0.1243978E+01  0.3474099E-04  0.5099922E-05  0.3484889E+04  0.4338220E+00
  0.7309524E+00 -0.2578740E+04 -0.1661543E+01  0.1523238E-03  0.6977469E-05  0.3484591E+04  0.5763066E+00
  0.7619048E+00 -0.2582248E+04 -0.2189488E+01 -0.1699179E-03 -0.7148460E-04  0.3485392E+04  0.7555497E+00
  0.7928572E+00 -0.2583166E+04 -0.2851891E+01 -0.9364050E-03 -0.2341792E-03  0.3486974E+04  0.9779207E+00
  0.8238096E+00 -0.2584909E+04 -0.3673533E+01 -0.4080679E-04 -0.5015731E-04  0.3487978E+04  0.1251350E+01
  0.8547620E+00 -0.2588189E+04 -0.4683243E+01 -0.1071648E-02 -0.2924837E-03  0.3488459E+04  0.1584352E+01
  0.8857143E+00 -0.2590815E+04 -0.5912574E+01 -0.1483194E-03 -0.7401407E-04  0.3488968E+04  0.1985669E+01
  0.9166667E+00 -0.2595170E+04 -0.7395685E+01 -0.7714358E-03 -0.2867877E-03  0.3488632E+04  0.2465841E+01
  0.9476191E+00 -0.2600695E+04 -0.9165877E+01 -0.2151159E-03 -0.9963661E-04  0.3489251E+04  0.3036261E+01
  0.9785714E+00 -0.2603613E+04 -0.1127002E+02  0.3484044E-03  0.4230440E-04  0.3491325E+04  0.3706083E+01
  0.1009524E+01 -0.2605906E+04 -0.1375617E+02 -0.5313810E-04  0.1811981E-04  0.3492812E+04  0.4486993E+01
  0.1040476E+01 -0.2607640E+04 -0.1667815E+02  0.4857847E-04 -0.2939999E-04  0.3494261E+04  0.5390914E+01
  0.1071429E+01 -0.2612477E+04 -0.2008230E+02  0.8055369E-04 -0.9649992E-04  0.3494152E+04  0.6434372E+01
  0.1102381E+01 -0.2616557E+04 -0.2402110E+02 -0.2487174E-04 -0.1483858E-03  0.3494421E+04  0.7627924E+01
  0.1133333E+01 -0.2621973E+04 -0.2855646E+02 -0.8288552E-04 -0.1350641E-03  0.3495215E+04  0.8987826E+01
  0.1164286E+01 -0.2627084E+04 -0.3374093E+02  0.3110558E-03  0.1692474E-03  0.3495526E+04  0.1052469E+02
  0.1195238E+01 -0.2631299E+04 -0.3964193E+02  0.3869790E-03  0.1838803E-03  0.3496881E+04  0.1225073E+02
  0.1226190E+01 -0.2635831E+04 -0.4632715E+02 -0.2648252E-03 -0.2714396E-03  0.3497601E+04  0.1417750E+02
  0.1257143E+01 -0.2639488E+04 -0.5384438E+02 -0.1928752E-03 -0.1551509E-03  0.3499292E+04  0.1631398E+02
  0.1288095E+01 -0.2641942E+04 -0.6233140E+02 -0.2147089E-03 -0.1946688E-03  0.3500244E+04  0.1867283E+02
  0.1319048E+01 -0.2646729E+04 -0.7179218E+02  0.3416185E-04 -0.3242493E-04  0.3500821E+04  0.2126888E+02
  0.1350000E+01 -0.2649837E+04 -0.8231220E+02  0.3461484E-04  0.2241135E-04  0.3501161E+04  0.2410328E+02
  0.1380952E+01 -0.2653177E+04 -0.9396597E+02  0.5070670E-03  0.4178286E-03  0.3501843E+04  0.2718968E+02
  0.1411905E+01 -0.2686701E+04 -0.1086375E+03  0.4571123E-03  0.3399849E-03  0.3501110E+04  0.3118398E+02
  0.1442857E+01 -0.2692433E+04 -0.1229490E+03  0.6472474E-03  0.4240274E-03  0.3501705E+04  0.3489091E+02
  0.1473810E+01 -0.2695369E+04 -0.1385384E+03  0.1096802E-03 -0.1287460E-04  0.3500875E+04  0.3884587E+02
  0.1504762E+01 -0.2699436E+04 -0.1554945E+03  0.8752376E-03  0.7107258E-03  0.3501367E+04  0.4307839E+02
  0.1535714E+01 -0.2702464E+04 -0.1738647E+03  0.2511934E-03 -0.4839897E-04  0.3501627E+04  0.4754896E+02
  0.1566667E+01 -0.2702665E+04 -0.1937148E+03 -0.2436435E-03 -0.5848408E-03  0.3502202E+04  0.5224261E+02
  0.1597619E+01 -0.2702750E+04 -0.2150588E+03  0.1726634E-03 -0.6103516E-04  0.3502658E+04  0.5715541E+02
  0.1628572E+01 -0.2703044E+04 -0.2378463E+03 -0.1231202E-03 -0.6973743E-03  0.3501343E+04  0.6226212E+02
  0.1659524E+01 -0.2704010E+04 -0.2620887E+03 -0.1465402E-03 -0.3407001E-03  0.3500685E+04  0.6759512E+02
  0.1690476E+01 -0.2702922E+04 -0.2877565E+03  0.3115493E-03  0.3366470E-03  0.3499077E+04  0.7307455E+02
  0.1721429E+01 -0.2701443E+04 -0.3148462E+03 -0.4823970E-03 -0.1012802E-02  0.3497720E+04  0.7872164E+02
  0.1752381E+01 -0.2700692E+04 -0.3432186E+03  0.3161897E-03  0.4816055E-03  0.3496154E+04  0.8449767E+02
  0.1783333E+01 -0.2698208E+04 -0.3728186E+03  0.4363729E-03  0.4053116E-03  0.3494256E+04  0.9034753E+02
  0.1814286E+01 -0.2694095E+04 -0.4035783E+03 -0.1235271E-03 -0.7328987E-03  0.3492480E+04  0.9623644E+02
  0.1845238E+01 -0.2689455E+04 -0.4352689E+03  0.2494997E-03  0.1816750E-03  0.3490623E+04  0.1021298E+03
  0.1876190E+01 -0.2684230E+04 -0.4676044E+03 -0.4066429E-05  0.1192093E-04  0.3487488E+04  0.1079059E+03
  0.1907143E+01 -0.2678593E+04 -0.5007167E+03  0.5153056E-03  0.9727478E-04  0.3485376E+04  0.1136124E+03
  0.1938095E+01 -0.2670826E+04 -0.5344725E+03  0.4790280E-03  0.1206398E-03  0.3483375E+04  0.1190893E+03
  0.1969048E+01 -0.2660684E+04 -0.5686483E+03  0.7017982E-03  0.1522064E-02  0.3480683E+04  0.1242621E+03
  0.2000000E+01 -0.2650700E+04 -0.6030188E+03 -0.3886223E-04 -0.3662109E-03  0.3478451E+04  0.1291780E+03
