VARIABLES="w (rad/s)"
"abs(F   1   1)" "angle(F   1   1)"
"abs(F   1   2)" "angle(F   1   2)"
"abs(F   1   3)" "angle(F   1   3)"
Zone t="Diffraction force - beta =   0.000 deg",I=    64,F=POINT
  0.5000000E-01  0.9096429E+03 -0.1570795E+01  0.2787175E+03 -0.3085703E+01  0.4644730E+02 -0.1570787E+01
  0.8095238E-01  0.1488565E+04 -0.1570793E+01  0.7217756E+03 -0.3083628E+01  0.7120607E+02 -0.1570770E+01
  0.1119048E+00  0.2080394E+04 -0.1570789E+01  0.1370258E+04 -0.3081109E+01  0.1023065E+03 -0.1570747E+01
  0.1428571E+00  0.2690353E+04 -0.1570783E+01  0.2226609E+04 -0.3077982E+01  0.1425998E+03 -0.1570714E+01
  0.1738095E+00  0.3320330E+04 -0.1570774E+01  0.3295239E+04 -0.3074053E+01  0.1727505E+03 -0.1570662E+01
  0.2047619E+00  0.3982454E+04 -0.1570762E+01  0.4583465E+04 -0.3069171E+01  0.2160076E+03 -0.1570595E+01
  0.2357143E+00  0.4691085E+04 -0.1570744E+01  0.6093999E+04 -0.3062969E+01  0.2692389E+03 -0.1570504E+01
  0.2666667E+00  0.5436933E+04 -0.1570718E+01  0.7844285E+04 -0.3055518E+01  0.3111075E+03 -0.1570353E+01
  0.2976190E+00  0.6251171E+04 -0.1570679E+01  0.9834077E+04 -0.3046118E+01  0.3835238E+03 -0.1570171E+01
  0.3285715E+00  0.7144302E+04 -0.1570621E+01  0.1207207E+05 -0.3034844E+01  0.4690087E+03 -0.1569915E+01
  0.3595238E+00  0.8103591E+04 -0.1570533E+01  0.1456480E+05 -0.3021204E+01  0.5345593E+03 -0.1569474E+01
  0.3904762E+00  0.9157393E+04 -0.1570402E+01  0.1732699E+05 -0.3005112E+01  0.6288694E+03 -0.1568874E+01
  0.4214286E+00  0.1035046E+05 -0.1570213E+01  0.2029805E+05 -0.2986938E+01  0.7914441E+03 -0.1568193E+01
  0.4523810E+00  0.1163505E+05 -0.1569933E+01  0.2351551E+05 -0.2965978E+01  0.9217046E+03 -0.1567036E+01
  0.4833333E+00  0.1301505E+05 -0.1569545E+01  0.2693606E+05 -0.2944823E+01  0.1066044E+04 -0.1565454E+01
  0.5142857E+00  0.1451560E+05 -0.1569008E+01  0.3053133E+05 -0.2921813E+01  0.1268950E+04 -0.1563523E+01
  0.5452381E+00  0.1612379E+05 -0.1568294E+01  0.3426934E+05 -0.2898625E+01  0.1499178E+04 -0.1561066E+01
  0.5761905E+00  0.1781144E+05 -0.1567366E+01  0.3816329E+05 -0.2875902E+01  0.1736396E+04 -0.1557867E+01
  0.6071429E+00  0.1954631E+05 -0.1566165E+01  0.4220400E+05 -0.2852746E+01  0.1967288E+04 -0.1553626E+01
  0.6380953E+00  0.2134871E+05 -0.1564673E+01  0.4638538E+05 -0.2830868E+01  0.2258101E+04 -0.1548808E+01
  0.6690477E+00  0.2323270E+05 -0.1562831E+01  0.5064303E+05 -0.2808922E+01  0.2627873E+04 -0.1543523E+01
  0.7000000E+00  0.2516332E+05 -0.1560574E+01  0.5496946E+05 -0.2786727E+01  0.2986826E+04 -0.1536837E+01
  0.7309524E+00  0.2710778E+05 -0.1557854E+01  0.5942256E+05 -0.2765622E+01  0.3340313E+04 -0.1528640E+01
  0.7619048E+00  0.2906340E+05 -0.1554602E+01  0.6396775E+05 -0.2745098E+01  0.3729672E+04 -0.1519190E+01
  0.7928572E+00  0.3103953E+05 -0.1550763E+01  0.6854588E+05 -0.2724687E+01  0.4168847E+04 -0.1508611E+01
  0.8238096E+00  0.3303025E+05 -0.1546283E+01  0.7313864E+05 -0.2704436E+01  0.4660071E+04 -0.1496898E+01
  0.8547620E+00  0.3504735E+05 -0.1541119E+01  0.7774497E+05 -0.2684561E+01  0.5186518E+04 -0.1483773E+01
  0.8857143E+00  0.3704547E+05 -0.1535193E+01  0.8236433E+05 -0.2665274E+01  0.5737403E+04 -0.1468977E+01
  0.9166667E+00  0.3899223E+05 -0.1528434E+01  0.8699347E+05 -0.2646683E+01  0.6248708E+04 -0.1451362E+01
  0.9476191E+00  0.4085630E+05 -0.1520775E+01  0.9160460E+05 -0.2628645E+01  0.6760961E+04 -0.1431425E+01
  0.9785714E+00  0.4266772E+05 -0.1512227E+01  0.9618404E+05 -0.2611164E+01  0.7300361E+04 -0.1409690E+01
  0.1009524E+01  0.4440111E+05 -0.1502760E+01  0.1007044E+06 -0.2594069E+01  0.7893987E+04 -0.1386814E+01
  0.1040476E+01  0.4605910E+05 -0.1492389E+01  0.1051491E+06 -0.2577341E+01  0.8509838E+04 -0.1362319E+01
  0.1071429E+01  0.4759994E+05 -0.1481074E+01  0.1094999E+06 -0.2560945E+01  0.9076397E+04 -0.1334653E+01
  0.1102381E+01  0.4897500E+05 -0.1468775E+01  0.1137621E+06 -0.2545107E+01  0.9624232E+04 -0.1304402E+01
  0.1133333E+01  0.5019315E+05 -0.1455552E+01  0.1179367E+06 -0.2530062E+01  0.1010448E+05 -0.1270352E+01
  0.1164286E+01  0.5118227E+05 -0.1441336E+01  0.1220209E+06 -0.2515816E+01  0.1052704E+05 -0.1232563E+01
  0.1195238E+01  0.5194781E+05 -0.1426266E+01  0.1259982E+06 -0.2502324E+01  0.1089231E+05 -0.1191229E+01
  0.1226190E+01  0.5246095E+05 -0.1410404E+01  0.1298510E+06 -0.2489352E+01  0.1116522E+05 -0.1145274E+01
  0.1257143E+01  0.5268221E+05 -0.1393642E+01  0.1336113E+06 -0.2476545E+01  0.1135939E+05 -0.1094482E+01
  0.1288095E+01  0.5264997E+05 -0.1376739E+01  0.1371246E+06 -0.2464671E+01  0.1147695E+05 -0.1040222E+01
  0.1319048E+01  0.5230464E+05 -0.1359230E+01  0.1405301E+06 -0.2453029E+01  0.1148046E+05 -0.9788989E+00
  0.1350000E+01  0.5163387E+05 -0.1341442E+01  0.1437691E+06 -0.2441944E+01  0.1136779E+05 -0.9097540E+00
  0.1380952E+01  0.5062947E+05 -0.1323628E+01  0.1468298E+06 -0.2431562E+01  0.1113764E+05 -0.8311926E+00
  0.1411905E+01  0.4886919E+05 -0.1307485E+01  0.1481668E+06 -0.2418340E+01  0.1043694E+05 -0.7203698E+00
  0.1442857E+01  0.4721551E+05 -0.1290073E+01  0.1508437E+06 -0.2408634E+01  0.1003934E+05 -0.6114978E+00
  0.1473810E+01  0.4521004E+05 -0.1273276E+01  0.1533329E+06 -0.2399452E+01  0.9571688E+04 -0.4811776E+00
  0.1504762E+01  0.4286422E+05 -0.1257557E+01  0.1556262E+06 -0.2390863E+01  0.9081228E+04 -0.3226137E+00
  0.1535714E+01  0.4016283E+05 -0.1243172E+01  0.1577182E+06 -0.2382652E+01  0.8655027E+04 -0.1293646E+00
  0.1566667E+01  0.3712942E+05 -0.1230841E+01  0.1596011E+06 -0.2374999E+01  0.8414802E+04  0.1026754E+00
  0.1597619E+01  0.3377276E+05 -0.1221461E+01  0.1612680E+06 -0.2367773E+01  0.8513707E+04  0.3634444E+00
  0.1628572E+01  0.3011920E+05 -0.1216335E+01  0.1627260E+06 -0.2360918E+01  0.9089905E+04  0.6338257E+00
  0.1659524E+01  0.2618547E+05 -0.1217553E+01  0.1639665E+06 -0.2354457E+01  0.1021304E+05  0.8862213E+00
  0.1690476E+01  0.2199809E+05 -0.1229007E+01  0.1649821E+06 -0.2348349E+01  0.1186083E+05  0.1102738E+01
  0.1721429E+01  0.1761369E+05 -0.1259222E+01  0.1657688E+06 -0.2342787E+01  0.1397569E+05  0.1281357E+01
  0.1752381E+01  0.1308562E+05 -0.1327994E+01  0.1663100E+06 -0.2337722E+01  0.1647860E+05  0.1426353E+01
  0.1783333E+01  0.8583298E+04 -0.1497212E+01  0.1666064E+06 -0.2333102E+01  0.1933502E+05  0.1544941E+01
  0.1814286E+01  0.4862937E+04 -0.2024717E+01  0.1666415E+06 -0.2329140E+01  0.2250113E+05  0.1643123E+01
  0.1845238E+01  0.5134087E+04 -0.3110553E+01  0.1664341E+06 -0.2325565E+01  0.2590286E+05  0.1725932E+01
  0.1876190E+01  0.9271240E+04  0.2689718E+01  0.1659926E+06 -0.2322417E+01  0.2952960E+05  0.1796862E+01
  0.1907143E+01  0.1433528E+05  0.2529819E+01  0.1653135E+06 -0.2319678E+01  0.3336552E+05  0.1858488E+01
  0.1938095E+01  0.1967617E+05  0.2461248E+01  0.1644056E+06 -0.2317111E+01  0.3736562E+05  0.1912871E+01
  0.1969048E+01  0.2513670E+05  0.2427518E+01  0.1632477E+06 -0.2315060E+01  0.4151771E+05  0.1961380E+01
  0.2000000E+01  0.3065991E+05  0.2410018E+01  0.1618283E+06 -0.2313564E+01  0.4578279E+05  0.2005024E+01
