VARIABLES="w (rad/s)"
"abs(F   1   1)" "angle(F   1   1)"
"abs(F   1   2)" "angle(F   1   2)"
"abs(F   1   3)" "angle(F   1   3)"
Zone t="Diffraction force - beta =   0.000 deg",I=    64,F=POINT
  0.5000000E-01  0.2428273E+04 -0.1570773E+01  0.4797586E+06 -0.3245238E-04  0.7510515E+03 -0.1570885E+01
  0.8095238E-01  0.3962932E+04 -0.1570782E+01  0.4789271E+06 -0.8730694E-04  0.1221108E+04 -0.1570868E+01
  0.1119048E+00  0.5533274E+04 -0.1570798E+01  0.4777063E+06 -0.1733865E-03  0.1710780E+04 -0.1570830E+01
  0.1428571E+00  0.7154406E+04 -0.1570797E+01  0.4760948E+06 -0.2972937E-03  0.2228656E+04 -0.1570833E+01
  0.1738095E+00  0.8839301E+04 -0.1570794E+01  0.4740877E+06 -0.4690894E-03  0.2761836E+04 -0.1570809E+01
  0.2047619E+00  0.1061270E+05 -0.1570781E+01  0.4716795E+06 -0.7031309E-03  0.3340896E+04 -0.1570805E+01
  0.2357143E+00  0.1250357E+05 -0.1570780E+01  0.4688678E+06 -0.1020841E-02  0.3971186E+04 -0.1570787E+01
  0.2666667E+00  0.1451944E+05 -0.1570766E+01  0.4656374E+06 -0.1448250E-02  0.4641206E+04 -0.1570780E+01
  0.2976190E+00  0.1671073E+05 -0.1570751E+01  0.4619916E+06 -0.2029222E-02  0.5404229E+04 -0.1570766E+01
  0.3285715E+00  0.1910929E+05 -0.1570731E+01  0.4579243E+06 -0.2808834E-02  0.6255604E+04 -0.1570743E+01
  0.3595238E+00  0.2172499E+05 -0.1570697E+01  0.4534358E+06 -0.3857664E-02  0.7176304E+04 -0.1570706E+01
  0.3904762E+00  0.2460806E+05 -0.1570648E+01  0.4485189E+06 -0.5256141E-02  0.8229243E+04 -0.1570658E+01
  0.4214286E+00  0.2782159E+05 -0.1570578E+01  0.4432432E+06 -0.7054152E-02  0.9467045E+04 -0.1570588E+01
  0.4523810E+00  0.3132939E+05 -0.1570477E+01  0.4375869E+06 -0.9389070E-02  0.1079948E+05 -0.1570483E+01
  0.4833333E+00  0.3513789E+05 -0.1570333E+01  0.4315968E+06 -0.1220166E-01  0.1227928E+05 -0.1570340E+01
  0.5142857E+00  0.3926599E+05 -0.1570136E+01  0.4253233E+06 -0.1565059E-01  0.1395311E+05 -0.1570139E+01
  0.5452381E+00  0.4368772E+05 -0.1569873E+01  0.4188031E+06 -0.1968754E-01  0.1578855E+05 -0.1569877E+01
  0.5761905E+00  0.4835895E+05 -0.1569533E+01  0.4120297E+06 -0.2432287E-01  0.1776260E+05 -0.1569537E+01
  0.6071429E+00  0.5323136E+05 -0.1569096E+01  0.4050350E+06 -0.2968491E-01  0.1985903E+05 -0.1569099E+01
  0.6380953E+00  0.5831118E+05 -0.1568554E+01  0.3978152E+06 -0.3565794E-01  0.2214199E+05 -0.1568557E+01
  0.6690477E+00  0.6360032E+05 -0.1567886E+01  0.3904602E+06 -0.4236888E-01  0.2462930E+05 -0.1567889E+01
  0.7000000E+00  0.6905372E+05 -0.1567071E+01  0.3829958E+06 -0.4989054E-01  0.2723078E+05 -0.1567075E+01
  0.7309524E+00  0.7462973E+05 -0.1566095E+01  0.3753532E+06 -0.5816077E-01  0.2995189E+05 -0.1566099E+01
  0.7619048E+00  0.8031744E+05 -0.1564936E+01  0.3675849E+06 -0.6725560E-01  0.3283408E+05 -0.1564939E+01
  0.7928572E+00  0.8611840E+05 -0.1563576E+01  0.3597686E+06 -0.7722771E-01  0.3589145E+05 -0.1563580E+01
  0.8238096E+00  0.9201903E+05 -0.1561998E+01  0.3519321E+06 -0.8809787E-01  0.3912618E+05 -0.1562004E+01
  0.8547620E+00  0.9802295E+05 -0.1560187E+01  0.3440813E+06 -0.9987433E-01  0.4252055E+05 -0.1560196E+01
  0.8857143E+00  0.1040768E+06 -0.1558126E+01  0.3362177E+06 -0.1125603E+00  0.4606265E+05 -0.1558137E+01
  0.9166667E+00  0.1101395E+06 -0.1555803E+01  0.3283468E+06 -0.1261701E+00  0.4968609E+05 -0.1555812E+01
  0.9476191E+00  0.1161708E+06 -0.1553211E+01  0.3205054E+06 -0.1407261E+00  0.5342864E+05 -0.1553218E+01
  0.9785714E+00  0.1221920E+06 -0.1550355E+01  0.3127105E+06 -0.1562414E+00  0.5731323E+05 -0.1550364E+01
  0.1009524E+01  0.1281678E+06 -0.1547243E+01  0.3050001E+06 -0.1727403E+00  0.6136288E+05 -0.1547260E+01
  0.1040476E+01  0.1340912E+06 -0.1543889E+01  0.2973953E+06 -0.1902270E+00  0.6554020E+05 -0.1543920E+01
  0.1071429E+01  0.1399100E+06 -0.1540307E+01  0.2899180E+06 -0.2087008E+00  0.6976604E+05 -0.1540355E+01
  0.1102381E+01  0.1455653E+06 -0.1536525E+01  0.2825516E+06 -0.2281432E+00  0.7406373E+05 -0.1536582E+01
  0.1133333E+01  0.1510553E+06 -0.1532578E+01  0.2752770E+06 -0.2485208E+00  0.7837416E+05 -0.1532633E+01
  0.1164286E+01  0.1562968E+06 -0.1528508E+01  0.2680932E+06 -0.2698531E+00  0.8269670E+05 -0.1528545E+01
  0.1195238E+01  0.1612850E+06 -0.1524390E+01  0.2610132E+06 -0.2921370E+00  0.8702127E+05 -0.1524403E+01
  0.1226190E+01  0.1659804E+06 -0.1520298E+01  0.2540685E+06 -0.3154174E+00  0.9129885E+05 -0.1520293E+01
  0.1257143E+01  0.1703328E+06 -0.1516263E+01  0.2472832E+06 -0.3399369E+00  0.9552870E+05 -0.1516248E+01
  0.1288095E+01  0.1743752E+06 -0.1512538E+01  0.2406544E+06 -0.3649686E+00  0.9970677E+05 -0.1512516E+01
  0.1319048E+01  0.1780355E+06 -0.1509065E+01  0.2341838E+06 -0.3912140E+00  0.1037690E+06 -0.1509030E+01
  0.1350000E+01  0.1812959E+06 -0.1506001E+01  0.2278635E+06 -0.4183962E+00  0.1076975E+06 -0.1505948E+01
  0.1380952E+01  0.1841425E+06 -0.1503477E+01  0.2216750E+06 -0.4464515E+00  0.1114714E+06 -0.1503404E+01
  0.1411905E+01  0.1861707E+06 -0.1502420E+01  0.2166708E+06 -0.4696557E+00  0.1146640E+06 -0.1502335E+01
  0.1442857E+01  0.1881945E+06 -0.1501232E+01  0.2107996E+06 -0.4992571E+00  0.1180950E+06 -0.1501135E+01
  0.1473810E+01  0.1897755E+06 -0.1500902E+01  0.2050734E+06 -0.5297804E+00  0.1213091E+06 -0.1500796E+01
  0.1504762E+01  0.1909257E+06 -0.1501562E+01  0.1994806E+06 -0.5611991E+00  0.1242861E+06 -0.1501444E+01
  0.1535714E+01  0.1916292E+06 -0.1503301E+01  0.1940502E+06 -0.5935538E+00  0.1270164E+06 -0.1503174E+01
  0.1566667E+01  0.1919122E+06 -0.1506239E+01  0.1887526E+06 -0.6267936E+00  0.1294801E+06 -0.1506105E+01
  0.1597619E+01  0.1917864E+06 -0.1510487E+01  0.1836050E+06 -0.6609266E+00  0.1316935E+06 -0.1510335E+01
  0.1628572E+01  0.1912799E+06 -0.1516116E+01  0.1786120E+06 -0.6960163E+00  0.1336350E+06 -0.1515961E+01
  0.1659524E+01  0.1904095E+06 -0.1523203E+01  0.1737680E+06 -0.7320281E+00  0.1353118E+06 -0.1523051E+01
  0.1690476E+01  0.1891988E+06 -0.1531816E+01  0.1690775E+06 -0.7689362E+00  0.1367389E+06 -0.1531654E+01
  0.1721429E+01  0.1876936E+06 -0.1542024E+01  0.1645048E+06 -0.8067302E+00  0.1379132E+06 -0.1541869E+01
  0.1752381E+01  0.1859071E+06 -0.1553872E+01  0.1600533E+06 -0.8453372E+00  0.1388577E+06 -0.1553713E+01
  0.1783333E+01  0.1838670E+06 -0.1567364E+01  0.1557271E+06 -0.8847756E+00  0.1395578E+06 -0.1567214E+01
  0.1814286E+01  0.1816055E+06 -0.1582538E+01  0.1514842E+06 -0.9249918E+00  0.1400223E+06 -0.1582409E+01
  0.1845238E+01  0.1791535E+06 -0.1599444E+01  0.1473683E+06 -0.9660922E+00  0.1403016E+06 -0.1599326E+01
  0.1876190E+01  0.1765409E+06 -0.1618059E+01  0.1433728E+06 -0.1008151E+01  0.1403890E+06 -0.1617960E+01
  0.1907143E+01  0.1737925E+06 -0.1638372E+01  0.1394979E+06 -0.1051156E+01  0.1402874E+06 -0.1638331E+01
  0.1938095E+01  0.1709320E+06 -0.1660398E+01  0.1357828E+06 -0.1095075E+01  0.1400325E+06 -0.1660424E+01
  0.1969048E+01  0.1679847E+06 -0.1684119E+01  0.1321647E+06 -0.1139883E+01  0.1396283E+06 -0.1684246E+01
  0.2000000E+01  0.1649632E+06 -0.1709543E+01  0.1286311E+06 -0.1185537E+01  0.1391025E+06 -0.1709710E+01
