VARIABLES="w (rad/s)"
"A   1   1" "B   1   1"
"A   1   2" "B   1   2"
"A   1   3" "B   1   3"
Zone t="Motion of body    1 in DoF   1",I=    64,F=POINT
  0.5000000E-01  0.8281093E+05  0.9652676E-02  0.1340866E-01  0.1009268E-04  0.1656216E+04  0.2486424E-03
  0.8095238E-01  0.8309665E+05  0.4243407E-01 -0.1592748E-01 -0.6957353E-04  0.1664822E+04  0.1092001E-02
  0.1119048E+00  0.8300511E+05  0.1190229E+00  0.1140270E-01  0.6834726E-04  0.1660166E+04  0.3074734E-02
  0.1428571E+00  0.8327847E+05  0.2681473E+00 -0.4232407E-02 -0.9214028E-04  0.1682195E+04  0.6955504E-02
  0.1738095E+00  0.8338173E+05  0.5337787E+00 -0.1580225E-02  0.9688549E-05  0.1678769E+04  0.1390492E-01
  0.2047619E+00  0.8366349E+05  0.9850983E+00  0.3837763E-02  0.6623031E-04  0.1700991E+04  0.2582285E-01
  0.2357143E+00  0.8370754E+05  0.1733867E+01  0.1610265E-01  0.7095747E-04  0.1699542E+04  0.4568857E-01
  0.2666667E+00  0.8399845E+05  0.2959701E+01  0.7152557E-04 -0.1327042E-03  0.1711515E+04  0.7844873E-01
  0.2976190E+00  0.8435449E+05  0.4966575E+01  0.1625244E-01  0.1660883E-03  0.1736801E+04  0.1328480E+00
  0.3285715E+00  0.8448786E+05  0.8213569E+01 -0.4109921E-02  0.6696396E-04  0.1749171E+04  0.2217115E+00
  0.3595238E+00  0.8487058E+05  0.1349135E+02  0.4647362E-02  0.1788959E-03  0.1769300E+04  0.3674867E+00
  0.3904762E+00  0.8538395E+05  0.2201304E+02  0.2125810E-01  0.6250851E-03  0.1820582E+04  0.6082706E+00
  0.4214286E+00  0.8576075E+05  0.3541205E+02  0.1147771E-01  0.1018509E-02  0.1822074E+04  0.9863935E+00
  0.4523810E+00  0.8603143E+05  0.5644424E+02 -0.5734092E-02 -0.8791089E-03  0.1839250E+04  0.1589278E+01
  0.4833333E+00  0.8672455E+05  0.8787502E+02  0.1248590E-01  0.8970499E-03  0.1883660E+04  0.2509390E+01
  0.5142857E+00  0.8743388E+05  0.1345580E+03  0.5652110E-02  0.2789497E-03  0.1933843E+04  0.3899870E+01
  0.5452381E+00  0.8791195E+05  0.2009476E+03  0.1590979E-01  0.1605034E-02  0.1946200E+04  0.5889101E+01
  0.5761905E+00  0.8845549E+05  0.2930358E+03  0.2092093E-02 -0.3017187E-03  0.1966169E+04  0.8692275E+01
  0.6071429E+00  0.8929977E+05  0.4198092E+03  0.8167939E-02  0.2550006E-02  0.2025668E+04  0.1266131E+02
  0.6380953E+00  0.9031454E+05  0.5884026E+03  0.2446303E-01  0.3609180E-02  0.2097560E+04  0.1807169E+02
  0.6690477E+00  0.9118365E+05  0.8100399E+03  0.2394707E-02  0.1236916E-02  0.2131147E+04  0.2522257E+02
  0.7000000E+00  0.9184298E+05  0.1097373E+04 -0.1351493E-02 -0.1900434E-02  0.2159826E+04  0.3466657E+02
  0.7309524E+00  0.9282121E+05  0.1464406E+04  0.1204500E-01  0.2965689E-02  0.2220052E+04  0.4706397E+02
  0.7619048E+00  0.9401359E+05  0.1928903E+04  0.9733199E-02  0.2035618E-02  0.2287039E+04  0.6305796E+02
  0.7928572E+00  0.9524315E+05  0.2509535E+04  0.7063032E-02 -0.3412724E-02  0.2367702E+04  0.8361330E+02
  0.8238096E+00  0.9649823E+05  0.3227311E+04  0.7427413E-02 -0.9899139E-03  0.2459188E+04  0.1097679E+03
  0.8547620E+00  0.9761735E+05  0.4102740E+04 -0.6837127E-02 -0.4685402E-02  0.2510781E+04  0.1418672E+03
  0.8857143E+00  0.9867466E+05  0.5160320E+04  0.1045719E-01  0.4127502E-02  0.2559264E+04  0.1813142E+03
  0.9166667E+00  0.9985476E+05  0.6426374E+04  0.1155229E-01  0.7553101E-03  0.2638160E+04  0.2300782E+03
  0.9476191E+00  0.1011889E+06  0.7928611E+04 -0.1610224E-04 -0.2922058E-02  0.2742196E+04  0.2899017E+03
  0.9785714E+00  0.1025552E+06  0.9693758E+04  0.2791133E-02 -0.7543564E-02  0.2838990E+04  0.3616868E+03
  0.1009524E+01  0.1038441E+06  0.1174771E+05  0.8403851E-02  0.4076004E-02  0.2933652E+04  0.4471389E+03
  0.1040476E+01  0.1049944E+06  0.1411533E+05  0.5191480E-02 -0.4804611E-02  0.3022835E+04  0.5483040E+03
  0.1071429E+01  0.1059059E+06  0.1681429E+05  0.1247559E-01  0.6057739E-02  0.3096740E+04  0.6666486E+03
  0.1102381E+01  0.1066549E+06  0.1986321E+05  0.8830982E-02 -0.5340576E-03  0.3173329E+04  0.8043204E+03
  0.1133333E+01  0.1073083E+06  0.2326552E+05  0.2423455E-02  0.2193451E-02  0.3243864E+04  0.9611559E+03
  0.1164286E+01  0.1078045E+06  0.2702095E+05  0.1300086E-01  0.1401520E-01  0.3310270E+04  0.1137822E+04
  0.1195238E+01  0.1081221E+06  0.3112661E+05  0.6587420E-02  0.4840851E-02  0.3375016E+04  0.1337931E+04
  0.1226190E+01  0.1081474E+06  0.3556511E+05 -0.6918898E-02  0.3570557E-02  0.3436146E+04  0.1562852E+04
  0.1257143E+01  0.1078704E+06  0.4034009E+05  0.1624021E-01  0.1226807E-01  0.3485097E+04  0.1812949E+04
  0.1288095E+01  0.1073754E+06  0.4533210E+05 -0.3885491E-02 -0.7431030E-02  0.3531299E+04  0.2082887E+04
  0.1319048E+01  0.1065396E+06  0.5055301E+05  0.1179940E-01  0.1484680E-01  0.3548736E+04  0.2371869E+04
  0.1350000E+01  0.1053792E+06  0.5592095E+05  0.2124928E-02 -0.1068115E-02  0.3542109E+04  0.2675863E+04
  0.1380952E+01  0.1039335E+06  0.6138339E+05  0.4861766E-02  0.3204346E-02  0.3527200E+04  0.3000573E+04
  0.1411905E+01  0.1017394E+06  0.6655045E+05  0.5619763E-03 -0.5416870E-02  0.3443244E+04  0.3317507E+04
  0.1442857E+01  0.9971093E+05  0.7197402E+05  0.7846946E-02 -0.5813599E-02  0.3408334E+04  0.3670383E+04
  0.1473810E+01  0.9744466E+05  0.7727408E+05  0.7081655E-02  0.9773254E-02  0.3358383E+04  0.4031050E+04
  0.1504762E+01  0.9496890E+05  0.8239082E+05  0.1082988E-01  0.3288269E-02  0.3284761E+04  0.4391080E+04
  0.1535714E+01  0.9228172E+05  0.8726853E+05  0.2901299E-02 -0.9841919E-02  0.3193138E+04  0.4752533E+04
  0.1566667E+01  0.8944509E+05  0.9186263E+05 -0.2882937E-02  0.2349854E-02  0.3087907E+04  0.5111338E+04
  0.1597619E+01  0.8649675E+05  0.9613077E+05  0.8939695E-02  0.6973267E-02  0.2976127E+04  0.5467716E+04
  0.1628572E+01  0.8346596E+05  0.1000394E+06  0.8170145E-02  0.1814270E-01  0.2857498E+04  0.5818466E+04
  0.1659524E+01  0.8040348E+05  0.1035703E+06  0.5259356E-02  0.1799011E-01  0.2725886E+04  0.6159807E+04
  0.1690476E+01  0.7735162E+05  0.1067076E+06  0.1137317E-02  0.6896973E-02  0.2591167E+04  0.6492508E+04
  0.1721429E+01  0.7434488E+05  0.1094520E+06  0.1306558E-01 -0.7247925E-02  0.2445009E+04  0.6810303E+04
  0.1752381E+01  0.7139692E+05  0.1118049E+06  0.7174948E-02  0.1226807E-01  0.2295356E+04  0.7108179E+04
  0.1783333E+01  0.6850270E+05  0.1137855E+06  0.6348797E-02  0.1678467E-03  0.2138544E+04  0.7383415E+04
  0.1814286E+01  0.6571444E+05  0.1154130E+06  0.9049543E-02  0.2272034E-01  0.1985136E+04  0.7645685E+04
  0.1845238E+01  0.6301334E+05  0.1167024E+06  0.6896579E-02  0.5035400E-03  0.1829597E+04  0.7899709E+04
  0.1876190E+01  0.6042185E+05  0.1176724E+06  0.1512712E-02  0.2792358E-02  0.1677900E+04  0.8141404E+04
  0.1907143E+01  0.5796714E+05  0.1183452E+06  0.6816736E-02  0.8987427E-02  0.1528508E+04  0.8370483E+04
  0.1938095E+01  0.5565341E+05  0.1187444E+06  0.3259457E-02  0.4631042E-02  0.1385416E+04  0.8590171E+04
  0.1969048E+01  0.5347004E+05  0.1188942E+06  0.5920484E-02  0.7728577E-02  0.1242876E+04  0.8794106E+04
  0.2000000E+01  0.5142004E+05  0.1188095E+06  0.4806519E-02  0.7972717E-02  0.1097831E+04  0.8977336E+04
Zone t="Motion of body    1 in DoF   2",I=    64,F=POINT
  0.5000000E-01  0.1789093E-01  0.5602837E-05  0.1435270E+06  0.4194971E+03  0.1277924E-01  0.5328655E-04
  0.8095238E-01  0.1083823E-02 -0.2944469E-04  0.1415715E+06  0.6952614E+03  0.1239328E-01  0.8106232E-04
  0.1119048E+00  0.1493089E-01  0.9417534E-04  0.1404846E+06  0.9949957E+03  0.1066979E-01  0.1204014E-03
  0.1428571E+00  0.1849174E-01 -0.2968311E-03  0.1398844E+06  0.1329840E+04  0.1046753E-01  0.1525879E-03
  0.1738095E+00  0.7154908E-02 -0.6437302E-05  0.1396952E+06  0.1713705E+04  0.1281738E-01  0.2684593E-03
  0.2047619E+00 -0.1449408E-01  0.1065731E-03  0.1397746E+06  0.2164144E+04  0.1102891E-01  0.2183914E-03
  0.2357143E+00 -0.1121521E-01  0.2093315E-03  0.1400621E+06  0.2705497E+04  0.9127529E-02  0.3213882E-03
  0.2666667E+00  0.6194114E-02 -0.3666878E-03  0.1405578E+06  0.3357871E+04  0.1682281E-01  0.3747940E-03
  0.2976190E+00  0.1456055E-01  0.5869865E-03  0.1411204E+06  0.4167412E+04  0.9843750E-02  0.4825592E-03
  0.3285715E+00  0.5340576E-02  0.4272461E-03  0.1418158E+06  0.5156778E+04  0.1300314E-01  0.5702972E-03
  0.3595238E+00  0.7108978E-02 -0.4167557E-03  0.1424080E+06  0.6380210E+04  0.1001623E-01  0.7171631E-03
  0.3904762E+00  0.3184807E-02 -0.4291534E-03  0.1429965E+06  0.7876427E+04  0.1293461E-01  0.7419586E-03
  0.4214286E+00  0.1354153E-01  0.5874634E-03  0.1431406E+06  0.9625851E+04  0.1361394E-01  0.1213074E-02
  0.4523810E+00  0.1445328E-01 -0.7524490E-03  0.1431043E+06  0.1171745E+05  0.1406539E-01  0.1375198E-02
  0.4833333E+00  0.5098540E-02 -0.4539490E-03  0.1425858E+06  0.1396778E+05  0.9344692E-02  0.1831055E-02
  0.5142857E+00 -0.8129545E-02 -0.5092621E-03  0.1415980E+06  0.1648723E+05  0.1539866E-01  0.1949310E-02
  0.5452381E+00  0.5345241E-02  0.1928329E-02  0.1403303E+06  0.1912793E+05  0.1340508E-01  0.2513885E-02
  0.5761905E+00 -0.9162839E-02 -0.1785278E-02  0.1387182E+06  0.2183871E+05  0.9798411E-02  0.2559662E-02
  0.6071429E+00 -0.1068115E-02  0.3084183E-02  0.1367474E+06  0.2468892E+05  0.1578297E-01  0.3341675E-02
  0.6380953E+00  0.8895646E-02  0.1029968E-02  0.1347246E+06  0.2749252E+05  0.1152608E-01  0.2952576E-02
  0.6690477E+00 -0.1740154E-01 -0.5874634E-03  0.1324541E+06  0.3032340E+05  0.1199634E-01  0.4127502E-02
  0.7000000E+00 -0.3204345E-02  0.1483917E-02  0.1299631E+06  0.3319053E+05  0.1312256E-01  0.4325867E-02
  0.7309524E+00  0.1288001E-01 -0.2208710E-02  0.1274918E+06  0.3599092E+05  0.1252513E-01  0.5096436E-02
  0.7619048E+00  0.1676273E-01 -0.7591248E-02  0.1248901E+06  0.3874984E+05  0.1057434E-01  0.5134583E-02
  0.7928572E+00 -0.8506430E-02  0.1525879E-04  0.1221536E+06  0.4145743E+05  0.1093134E-01  0.5699158E-02
  0.8238096E+00  0.5871546E-02 -0.7129669E-02  0.1193908E+06  0.4408180E+05  0.8001603E-02  0.6813049E-02
  0.8547620E+00  0.1499527E-01 -0.9498596E-03  0.1166278E+06  0.4659735E+05  0.1121075E-01  0.5981445E-02
  0.8857143E+00  0.9199573E-02  0.1907349E-03  0.1138425E+06  0.4899486E+05  0.1092234E-01  0.8338928E-02
  0.9166667E+00 -0.7307573E-02  0.2876282E-02  0.1110533E+06  0.5126546E+05  0.1108620E-01  0.7049561E-02
  0.9476191E+00  0.6328180E-02  0.5748749E-02  0.1082840E+06  0.5339675E+05  0.8534187E-02  0.9117126E-02
  0.9785714E+00  0.6626992E-02 -0.8239746E-03  0.1055481E+06  0.5537216E+05  0.8513737E-02  0.1034546E-01
  0.1009524E+01 -0.1243951E-01  0.7431030E-02  0.1028431E+06  0.5718867E+05  0.8282932E-02  0.9658813E-02
  0.1040476E+01  0.1814085E-01  0.4463196E-03  0.1001805E+06  0.5884105E+05  0.8007198E-02  0.9780884E-02
  0.1071429E+01  0.1006877E-01 -0.5378723E-03  0.9758962E+05  0.6032247E+05  0.6864421E-02  0.1054382E-01
  0.1102381E+01  0.9550749E-03 -0.4669189E-02  0.9510202E+05  0.6162157E+05  0.8637199E-02  0.1004028E-01
  0.1133333E+01  0.1223845E-01  0.6103516E-02  0.9269655E+05  0.6274564E+05  0.7755055E-02  0.1087952E-01
  0.1164286E+01  0.2571340E-01 -0.7659912E-02  0.9039195E+05  0.6369793E+05  0.6212106E-02  0.1127625E-01
  0.1195238E+01  0.2144741E-02 -0.6301880E-02  0.8816524E+05  0.6448581E+05  0.6204430E-02  0.1091003E-01
  0.1226190E+01  0.9445042E-02  0.2403259E-02  0.8603695E+05  0.6510824E+05  0.6844234E-02  0.1292419E-01
  0.1257143E+01  0.1080253E-01  0.5512238E-02  0.8403171E+05  0.6560345E+05  0.5826083E-02  0.1142883E-01
  0.1288095E+01  0.1389537E-01  0.7114410E-02  0.8211716E+05  0.6585707E+05  0.4809480E-02  0.1155090E-01
  0.1319048E+01  0.2215279E-01  0.7186890E-02  0.8030987E+05  0.6600137E+05  0.6478099E-02  0.1286316E-01
  0.1350000E+01  0.3345631E-02 -0.4337311E-02  0.7861264E+05  0.6599663E+05  0.4340278E-02  0.1234436E-01
  0.1380952E+01 -0.4077254E-02  0.9868622E-02  0.7701362E+05  0.6584449E+05  0.5016459E-02  0.1266479E-01
  0.1411905E+01  0.3760918E-02  0.3429413E-02  0.7550545E+05  0.6567498E+05  0.3004412E-02  0.1306152E-01
  0.1442857E+01  0.1493246E-01  0.4096985E-02  0.7412053E+05  0.6528403E+05  0.3553334E-02  0.1313782E-01
  0.1473810E+01  0.9421500E-02  0.4940033E-02  0.7284916E+05  0.6476742E+05  0.4203439E-02  0.1351166E-01
  0.1504762E+01 -0.8142688E-02  0.1548004E-01  0.7166981E+05  0.6414309E+05  0.3833046E-02  0.1387787E-01
  0.1535714E+01  0.4441372E-02  0.8163452E-03  0.7058275E+05  0.6341516E+05  0.3278865E-02  0.1270294E-01
  0.1566667E+01 -0.2142724E-03  0.4573822E-02  0.6958778E+05  0.6259502E+05  0.3311482E-02  0.1154327E-01
  0.1597619E+01 -0.3132713E-02  0.7095337E-02  0.6866752E+05  0.6169479E+05  0.1585459E-02  0.1135254E-01
  0.1628572E+01  0.5321837E-02  0.5920410E-02  0.6783280E+05  0.6071172E+05  0.2529746E-02  0.1490021E-01
  0.1659524E+01  0.2133165E-02  0.5840302E-02  0.6709729E+05  0.5967328E+05  0.1324034E-02  0.1317596E-01
  0.1690476E+01  0.4323610E-02  0.1634216E-01  0.6644717E+05  0.5856566E+05  0.1606686E-02  0.1272583E-01
  0.1721429E+01  0.3129001E-02  0.6996155E-02  0.6586736E+05  0.5739655E+05  0.1063683E-02  0.1358032E-01
  0.1752381E+01  0.8306919E-02  0.1411438E-01  0.6534699E+05  0.5617694E+05  0.2020131E-02  0.1457214E-01
  0.1783333E+01  0.5869643E-02  0.8739471E-02  0.6490049E+05  0.5491543E+05  0.2156195E-02  0.1528168E-01
  0.1814286E+01  0.7047879E-02  0.1132965E-01  0.6451190E+05  0.5362091E+05  0.1782996E-02  0.1396942E-01
  0.1845238E+01 -0.3679829E-02  0.1183319E-01  0.6416809E+05  0.5230555E+05  0.2017704E-02  0.1428986E-01
  0.1876190E+01  0.1034499E-01  0.1564407E-01  0.6388469E+05  0.5095374E+05  0.8458172E-03  0.1379395E-01
  0.1907143E+01 -0.3088333E-02  0.5794525E-02  0.6365834E+05  0.4959636E+05  0.4160449E-03  0.1256561E-01
  0.1938095E+01 -0.1047120E-02  0.9056091E-02  0.6348158E+05  0.4821818E+05  0.9447702E-03  0.1340485E-01
  0.1969048E+01  0.5595013E-02  0.6231308E-02  0.6334625E+05  0.4680854E+05  0.2789757E-03  0.1273346E-01
  0.2000000E+01 -0.4379272E-02 -0.2460480E-03  0.6324198E+05  0.4538987E+05  0.3662109E-03  0.1146317E-01
Zone t="Motion of body    1 in DoF   3",I=    64,F=POINT
  0.5000000E-01  0.1690513E+04  0.2583096E-03  0.1331806E-01  0.5367246E-04  0.3592674E+04  0.5854483E-05
  0.8095238E-01  0.1701198E+04  0.1133023E-02  0.1384819E-01  0.8759725E-04  0.3597307E+04  0.2911224E-04
  0.1119048E+00  0.1695099E+04  0.3186317E-02  0.1231031E-01  0.1264807E-03  0.3560887E+04  0.9213166E-04
  0.1428571E+00  0.1720137E+04  0.7202287E-02  0.1285410E-01  0.1575897E-03  0.3582535E+04  0.1767034E-03
  0.1738095E+00  0.1713382E+04  0.1440484E-01  0.1240038E-01  0.2300584E-03  0.3567741E+04  0.3959412E-03
  0.2047619E+00  0.1736270E+04  0.2674110E-01  0.1140151E-01  0.2479678E-03  0.3561898E+04  0.7237249E-03
  0.2357143E+00  0.1736105E+04  0.4733850E-01  0.1629685E-01  0.4248501E-03  0.3573531E+04  0.1271352E-02
  0.2666667E+00  0.1744987E+04  0.8137894E-01  0.1761675E-01  0.5714630E-03  0.3557385E+04  0.2151654E-02
  0.2976190E+00  0.1772758E+04  0.1375830E+00  0.1047180E-01  0.4270725E-03  0.3570468E+04  0.3618266E-02
  0.3285715E+00  0.1786258E+04  0.2295879E+00  0.5932683E-02  0.3237205E-03  0.3566477E+04  0.6134470E-02
  0.3595238E+00  0.1807151E+04  0.3806133E+00  0.1314100E-01  0.8228228E-03  0.3576159E+04  0.1033725E-01
  0.3904762E+00  0.1861963E+04  0.6275386E+00  0.5837184E-02  0.5693289E-03  0.3575793E+04  0.1732218E-01
  0.4214286E+00  0.1861847E+04  0.1020746E+01  0.1580448E-01  0.1479281E-02  0.3581319E+04  0.2832663E-01
  0.4523810E+00  0.1879137E+04  0.1645076E+01  0.1821417E-01  0.1983433E-02  0.3577495E+04  0.4626208E-01
  0.4833333E+00  0.1923906E+04  0.2592984E+01  0.4167228E-02  0.8711866E-03  0.3576905E+04  0.7404196E-01
  0.5142857E+00  0.1977158E+04  0.4018991E+01  0.1993815E-01  0.3048774E-02  0.3594157E+04  0.1163857E+00
  0.5452381E+00  0.1986565E+04  0.6084351E+01  0.1527312E-01  0.2918726E-02  0.3577011E+04  0.1783207E+00
  0.5761905E+00  0.2008354E+04  0.9002365E+01  0.1018240E-01  0.2422377E-02  0.3591830E+04  0.2671680E+00
  0.6071429E+00  0.2068413E+04  0.1307162E+02  0.1408655E-01  0.3901578E-02  0.3591365E+04  0.3944576E+00
  0.6380953E+00  0.2141700E+04  0.1859625E+02  0.1236005E-01  0.3574934E-02  0.3589227E+04  0.5710844E+00
  0.6690477E+00  0.2176953E+04  0.2602465E+02  0.1045118E-01  0.3812730E-02  0.3604167E+04  0.8103890E+00
  0.7000000E+00  0.2205827E+04  0.3583751E+02  0.1148769E-01  0.4290089E-02  0.3602154E+04  0.1133604E+01
  0.7309524E+00  0.2265813E+04  0.4860389E+02  0.1291132E-01  0.6033033E-02  0.3595089E+04  0.1559374E+01
  0.7619048E+00  0.2335300E+04  0.6511537E+02  0.1574635E-01  0.7328823E-02  0.3609409E+04  0.2127635E+01
  0.7928572E+00  0.2417490E+04  0.8615345E+02  0.1226889E-01  0.6385922E-02  0.3622715E+04  0.2873894E+01
  0.8238096E+00  0.2510428E+04  0.1127518E+03  0.1024279E-01  0.6195009E-02  0.3619516E+04  0.3834475E+01
  0.8547620E+00  0.2562040E+04  0.1461527E+03  0.9974530E-02  0.6866992E-02  0.3615414E+04  0.5057886E+01
  0.8857143E+00  0.2614633E+04  0.1874923E+03  0.1114630E-01  0.7232547E-02  0.3631424E+04  0.6605183E+01
  0.9166667E+00  0.2695086E+04  0.2377492E+03  0.2030806E-02  0.3362358E-02  0.3640701E+04  0.8494250E+01
  0.9476191E+00  0.2799115E+04  0.2986269E+03  0.9987414E-02  0.9337544E-02  0.3636452E+04  0.1088405E+02
  0.9785714E+00  0.2894263E+04  0.3720813E+03  0.9036100E-02  0.9081841E-02  0.3636689E+04  0.1385569E+02
  0.1009524E+01  0.2994501E+04  0.4601454E+03 -0.4576018E-02 -0.8854866E-03  0.3656368E+04  0.1752254E+02
  0.1040476E+01  0.3085766E+04  0.5642630E+03  0.9814683E-02  0.1122701E-01  0.3670516E+04  0.2196254E+02
  0.1071429E+01  0.3159253E+04  0.6865425E+03  0.2994283E-02  0.1933575E-02  0.3674468E+04  0.2731709E+02
  0.1102381E+01  0.3236393E+04  0.8285396E+03  0.6069570E-02  0.1069057E-01  0.3667977E+04  0.3350385E+02
  0.1133333E+01  0.3308010E+04  0.9911404E+03  0.7512710E-02  0.1314878E-01  0.3667771E+04  0.4079066E+02
  0.1164286E+01  0.3382687E+04  0.1175808E+04  0.1155596E-01  0.1748347E-01  0.3685588E+04  0.4943806E+02
  0.1195238E+01  0.3448540E+04  0.1383279E+04  0.3073491E-02  0.6407976E-02  0.3700170E+04  0.5949272E+02
  0.1226190E+01  0.3507397E+04  0.1614028E+04  0.4585637E-02  0.9259701E-02  0.3710463E+04  0.7109793E+02
  0.1257143E+01  0.3557358E+04  0.1872391E+04  0.9000084E-02  0.1693296E-01  0.3707328E+04  0.8421895E+02
  0.1288095E+01  0.3601288E+04  0.2146972E+04  0.5449165E-02  0.1101160E-01  0.3707419E+04  0.9821651E+02
  0.1319048E+01  0.3621558E+04  0.2447623E+04  0.7970376E-02  0.1833057E-01  0.3713989E+04  0.1138618E+03
  0.1350000E+01  0.3618863E+04  0.2768080E+04  0.6866455E-02  0.1815891E-01  0.3730386E+04  0.1326898E+03
  0.1380952E+01  0.3600679E+04  0.3105889E+04  0.7082709E-02  0.1589251E-01  0.3739789E+04  0.1527768E+03
  0.1411905E+01  0.3371134E+04  0.3332140E+04  0.2377592E-02  0.1189661E-01  0.3720921E+04  0.1674428E+03
  0.1442857E+01  0.3333453E+04  0.3682427E+04  0.3458155E-02  0.4567146E-02  0.3715090E+04  0.1884675E+03
  0.1473810E+01  0.3279318E+04  0.4039314E+04  0.1392519E-02  0.1658535E-01  0.3704404E+04  0.2082945E+03
  0.1504762E+01  0.3205010E+04  0.4402971E+04 -0.1571752E-03  0.3261089E-02  0.3700338E+04  0.2312562E+03
  0.1535714E+01  0.3117051E+04  0.4774549E+04  0.1917639E-02  0.1295567E-01  0.3706600E+04  0.2574012E+03
  0.1566667E+01  0.3011409E+04  0.5140117E+04  0.4723731E-02  0.1791143E-01  0.3724353E+04  0.2873863E+03
  0.1597619E+01  0.2898334E+04  0.5498846E+04  0.1408766E-02  0.6798267E-02  0.3731200E+04  0.3170268E+03
  0.1628572E+01  0.2778619E+04  0.5844102E+04  0.2061275E-03  0.1044559E-01  0.3735987E+04  0.3452800E+03
  0.1659524E+01  0.2645435E+04  0.6182792E+04  0.8183264E-03  0.1132298E-01  0.3725067E+04  0.3706929E+03
  0.1690476E+01  0.2506918E+04  0.6509942E+04  0.2662766E-02  0.6364822E-02  0.3705932E+04  0.3907477E+03
  0.1721429E+01  0.2352848E+04  0.6824497E+04  0.1240964E-02  0.1142979E-01  0.3688652E+04  0.4134349E+03
  0.1752381E+01  0.2201459E+04  0.7128747E+04 -0.1933057E-02  0.1503944E-01  0.3682449E+04  0.4404781E+03
  0.1783333E+01  0.2045431E+04  0.7426374E+04  0.8470767E-03  0.1093197E-01  0.3687472E+04  0.4747803E+03
  0.1814286E+01  0.1887172E+04  0.7692008E+04 -0.8620616E-03  0.8558273E-02  0.3701233E+04  0.5167292E+03
  0.1845238E+01  0.1726200E+04  0.7945578E+04  0.1099814E-02  0.1536655E-01  0.3699656E+04  0.5520966E+03
  0.1876190E+01  0.1571500E+04  0.8175969E+04 -0.9271457E-03  0.9698868E-02  0.3698882E+04  0.5834763E+03
  0.1907143E+01  0.1420181E+04  0.8395481E+04 -0.1596172E-02  0.1753807E-01  0.3688048E+04  0.6067680E+03
  0.1938095E+01  0.1276577E+04  0.8606293E+04  0.5904814E-04  0.8943558E-02  0.3663212E+04  0.6135490E+03
  0.1969048E+01  0.1130953E+04  0.8796984E+04  0.1239892E-03  0.9455681E-02  0.3646047E+04  0.6226265E+03
  0.2000000E+01  0.9823395E+03  0.8982112E+04  0.3738403E-03  0.1203537E-01  0.3636428E+04  0.6402251E+03
