VARIABLES="w (rad/s)"
"abs(F   1   1)" "angle(F   1   1)"
"abs(F   1   2)" "angle(F   1   2)"
"abs(F   1   3)" "angle(F   1   3)"
Zone t="Diffraction force - beta =   0.000 deg",I=    64,F=POINT
  0.5000000E-01  0.6091055E+03 -0.1570795E+01  0.1659048E+03 -0.3095425E+01  0.9701729E+01 -0.1570795E+01
  0.8095238E-01  0.9942131E+03 -0.1570793E+01  0.4312006E+03 -0.3093881E+01  0.1563826E+02 -0.1570793E+01
  0.1119048E+00  0.1392471E+04 -0.1570790E+01  0.8195479E+03 -0.3091857E+01  0.2189243E+02 -0.1570789E+01
  0.1428571E+00  0.1798823E+04 -0.1570786E+01  0.1332221E+04 -0.3089291E+01  0.2813858E+02 -0.1570783E+01
  0.1738095E+00  0.2229351E+04 -0.1570779E+01  0.1971292E+04 -0.3086036E+01  0.3523110E+02 -0.1570775E+01
  0.2047619E+00  0.2673386E+04 -0.1570769E+01  0.2740259E+04 -0.3081960E+01  0.4229617E+02 -0.1570762E+01
  0.2357143E+00  0.3157320E+04 -0.1570755E+01  0.3640897E+04 -0.3076779E+01  0.5023163E+02 -0.1570744E+01
  0.2666667E+00  0.3672023E+04 -0.1570734E+01  0.4679226E+04 -0.3070487E+01  0.5912318E+02 -0.1570717E+01
  0.2976190E+00  0.4223155E+04 -0.1570702E+01  0.5857207E+04 -0.3062547E+01  0.6801772E+02 -0.1570678E+01
  0.3285715E+00  0.4841919E+04 -0.1570656E+01  0.7180748E+04 -0.3053030E+01  0.7880199E+02 -0.1570619E+01
  0.3595238E+00  0.5519013E+04 -0.1570586E+01  0.8644171E+04 -0.3041397E+01  0.9092654E+02 -0.1570531E+01
  0.3904762E+00  0.6249405E+04 -0.1570480E+01  0.1026053E+05 -0.3027641E+01  0.1038387E+03 -0.1570397E+01
  0.4214286E+00  0.7081761E+04 -0.1570327E+01  0.1199983E+05 -0.3012102E+01  0.1192002E+03 -0.1570204E+01
  0.4523810E+00  0.8008932E+04 -0.1570101E+01  0.1387599E+05 -0.2994090E+01  0.1388013E+03 -0.1569932E+01
  0.4833333E+00  0.8999508E+04 -0.1569785E+01  0.1585685E+05 -0.2975717E+01  0.1559103E+03 -0.1569533E+01
  0.5142857E+00  0.1005424E+05 -0.1569343E+01  0.1793875E+05 -0.2955712E+01  0.1756027E+03 -0.1568976E+01
  0.5452381E+00  0.1123576E+05 -0.1568756E+01  0.2011847E+05 -0.2935672E+01  0.2006383E+03 -0.1568265E+01
  0.5761905E+00  0.1249401E+05 -0.1567992E+01  0.2236816E+05 -0.2915725E+01  0.2273588E+03 -0.1567337E+01
  0.6071429E+00  0.1379404E+05 -0.1566996E+01  0.2468819E+05 -0.2895146E+01  0.2550544E+03 -0.1566126E+01
  0.6380953E+00  0.1512603E+05 -0.1565742E+01  0.2709470E+05 -0.2875723E+01  0.2800688E+03 -0.1564541E+01
  0.6690477E+00  0.1655459E+05 -0.1564187E+01  0.2954852E+05 -0.2856218E+01  0.3118240E+03 -0.1562652E+01
  0.7000000E+00  0.1807382E+05 -0.1562278E+01  0.3204357E+05 -0.2836456E+01  0.3502118E+03 -0.1560426E+01
  0.7309524E+00  0.1965228E+05 -0.1559970E+01  0.3459261E+05 -0.2817355E+01  0.3893300E+03 -0.1557710E+01
  0.7619048E+00  0.2124013E+05 -0.1557174E+01  0.3716912E+05 -0.2798394E+01  0.4243283E+03 -0.1554278E+01
  0.7928572E+00  0.2282137E+05 -0.1553812E+01  0.3976420E+05 -0.2779532E+01  0.4613144E+03 -0.1550178E+01
  0.8238096E+00  0.2450196E+05 -0.1549876E+01  0.4238300E+05 -0.2761015E+01  0.5059848E+03 -0.1545554E+01
  0.8547620E+00  0.2626019E+05 -0.1545304E+01  0.4500523E+05 -0.2742772E+01  0.5530980E+03 -0.1540184E+01
  0.8857143E+00  0.2806874E+05 -0.1540011E+01  0.4761322E+05 -0.2724725E+01  0.6037091E+03 -0.1534017E+01
  0.9166667E+00  0.2990341E+05 -0.1533915E+01  0.5020729E+05 -0.2707014E+01  0.6605657E+03 -0.1527122E+01
  0.9476191E+00  0.3174731E+05 -0.1526932E+01  0.5277883E+05 -0.2689678E+01  0.7168710E+03 -0.1519109E+01
  0.9785714E+00  0.3355608E+05 -0.1518945E+01  0.5531957E+05 -0.2672720E+01  0.7653255E+03 -0.1509456E+01
  0.1009524E+01  0.3537040E+05 -0.1509943E+01  0.5782383E+05 -0.2656156E+01  0.8176589E+03 -0.1498735E+01
  0.1040476E+01  0.3721909E+05 -0.1499933E+01  0.6027577E+05 -0.2639849E+01  0.8804620E+03 -0.1487395E+01
  0.1071429E+01  0.3911122E+05 -0.1488906E+01  0.6267674E+05 -0.2623974E+01  0.9508989E+03 -0.1475263E+01
  0.1102381E+01  0.4100477E+05 -0.1476774E+01  0.6501828E+05 -0.2608532E+01  0.1020579E+04 -0.1461686E+01
  0.1133333E+01  0.4286167E+05 -0.1463450E+01  0.6728399E+05 -0.2593399E+01  0.1090690E+04 -0.1446761E+01
  0.1164286E+01  0.4465950E+05 -0.1448870E+01  0.6947987E+05 -0.2578731E+01  0.1160518E+04 -0.1430345E+01
  0.1195238E+01  0.4633514E+05 -0.1432890E+01  0.7158899E+05 -0.2564335E+01  0.1228177E+04 -0.1412177E+01
  0.1226190E+01  0.4789558E+05 -0.1415519E+01  0.7362684E+05 -0.2550550E+01  0.1294211E+04 -0.1392299E+01
  0.1257143E+01  0.4931116E+05 -0.1396650E+01  0.7560736E+05 -0.2537055E+01  0.1359901E+04 -0.1371009E+01
  0.1288095E+01  0.5070806E+05 -0.1377038E+01  0.7745259E+05 -0.2524471E+01  0.1427521E+04 -0.1349041E+01
  0.1319048E+01  0.5193469E+05 -0.1356093E+01  0.7922185E+05 -0.2511945E+01  0.1489229E+04 -0.1325449E+01
  0.1350000E+01  0.5302015E+05 -0.1334078E+01  0.8088919E+05 -0.2499803E+01  0.1550781E+04 -0.1300689E+01
  0.1380952E+01  0.5390331E+05 -0.1310864E+01  0.8244910E+05 -0.2488041E+01  0.1612633E+04 -0.1274937E+01
  0.1411905E+01  0.5425754E+05 -0.1286668E+01  0.8384305E+05 -0.2476426E+01  0.1640327E+04 -0.1245290E+01
  0.1442857E+01  0.5470228E+05 -0.1261330E+01  0.8519581E+05 -0.2465559E+01  0.1695967E+04 -0.1217883E+01
  0.1473810E+01  0.5491416E+05 -0.1235230E+01  0.8644016E+05 -0.2455110E+01  0.1739936E+04 -0.1188912E+01
  0.1504762E+01  0.5485803E+05 -0.1208370E+01  0.8757009E+05 -0.2444990E+01  0.1772685E+04 -0.1158669E+01
  0.1535714E+01  0.5453225E+05 -0.1180874E+01  0.8858531E+05 -0.2435224E+01  0.1793887E+04 -0.1127094E+01
  0.1566667E+01  0.5392972E+05 -0.1152830E+01  0.8948309E+05 -0.2425782E+01  0.1809885E+04 -0.1094992E+01
  0.1597619E+01  0.5302607E+05 -0.1124157E+01  0.9026395E+05 -0.2416672E+01  0.1819563E+04 -0.1062775E+01
  0.1628572E+01  0.5184090E+05 -0.1095209E+01  0.9093296E+05 -0.2408029E+01  0.1822052E+04 -0.1031529E+01
  0.1659524E+01  0.5037284E+05 -0.1066146E+01  0.9148512E+05 -0.2399827E+01  0.1813986E+04 -0.1000200E+01
  0.1690476E+01  0.4862013E+05 -0.1036967E+01  0.9191784E+05 -0.2392039E+01  0.1789406E+04 -0.9680243E+00
  0.1721429E+01  0.4658838E+05 -0.1007686E+01  0.9222961E+05 -0.2384613E+01  0.1750274E+04 -0.9350225E+00
  0.1752381E+01  0.4427522E+05 -0.9781567E+00  0.9242477E+05 -0.2377504E+01  0.1693494E+04 -0.8998549E+00
  0.1783333E+01  0.4170595E+05 -0.9485738E+00  0.9250214E+05 -0.2370774E+01  0.1626448E+04 -0.8653814E+00
  0.1814286E+01  0.3889752E+05 -0.9189598E+00  0.9245881E+05 -0.2364267E+01  0.1548913E+04 -0.8314363E+00
  0.1845238E+01  0.3585937E+05 -0.8890389E+00  0.9229911E+05 -0.2358140E+01  0.1459651E+04 -0.7980769E+00
  0.1876190E+01  0.3261111E+05 -0.8585813E+00  0.9202807E+05 -0.2352415E+01  0.1357459E+04 -0.7638125E+00
  0.1907143E+01  0.2917528E+05 -0.8272927E+00  0.9163998E+05 -0.2347124E+01  0.1242452E+04 -0.7280927E+00
  0.1938095E+01  0.2557876E+05 -0.7946448E+00  0.9113359E+05 -0.2342310E+01  0.1113605E+04 -0.6894770E+00
  0.1969048E+01  0.2183821E+05 -0.7593797E+00  0.9050980E+05 -0.2337882E+01  0.9688087E+03 -0.6445881E+00
  0.2000000E+01  0.1796972E+05 -0.7188332E+00  0.8977402E+05 -0.2333807E+01  0.8101910E+03 -0.5909237E+00
