VARIABLES="w (rad/s)"
"abs(F   1   1)" "angle(F   1   1)"
"abs(F   1   2)" "angle(F   1   2)"
"abs(F   1   3)" "angle(F   1   3)"
Zone t="Diffraction force - beta =   0.000 deg",I=    64,F=POINT
  0.5000000E-01  0.2526752E+04 -0.1570794E+01  0.3596109E+03 -0.3080052E+01  0.2634871E+04  0.1570798E+01
  0.8095238E-01  0.4129197E+04 -0.1570789E+01  0.9289519E+03 -0.3077672E+01  0.4302406E+04  0.1570800E+01
  0.1119048E+00  0.5752629E+04 -0.1570782E+01  0.1761766E+04 -0.3074925E+01  0.6002130E+04  0.1570803E+01
  0.1428571E+00  0.7433005E+04 -0.1570771E+01  0.2859255E+04 -0.3071517E+01  0.7731175E+04  0.1570809E+01
  0.1738095E+00  0.9169234E+04 -0.1570756E+01  0.4227025E+04 -0.3067293E+01  0.9521577E+04  0.1570816E+01
  0.2047619E+00  0.1100028E+05 -0.1570733E+01  0.5872500E+04 -0.3062048E+01  0.1137252E+05  0.1570827E+01
  0.2357143E+00  0.1291822E+05 -0.1570700E+01  0.7804834E+04 -0.3055483E+01  0.1334609E+05  0.1570843E+01
  0.2666667E+00  0.1498169E+05 -0.1570652E+01  0.1002983E+05 -0.3047534E+01  0.1539138E+05  0.1570866E+01
  0.2976190E+00  0.1720705E+05 -0.1570581E+01  0.1255860E+05 -0.3037564E+01  0.1758925E+05  0.1570900E+01
  0.3285715E+00  0.1959735E+05 -0.1570475E+01  0.1540879E+05 -0.3025792E+01  0.1998679E+05  0.1570950E+01
  0.3595238E+00  0.2222308E+05 -0.1570318E+01  0.1855595E+05 -0.3011410E+01  0.2254183E+05  0.1571023E+01
  0.3904762E+00  0.2512515E+05 -0.1570083E+01  0.2203269E+05 -0.2994576E+01  0.2526895E+05  0.1571131E+01
  0.4214286E+00  0.2828020E+05 -0.1569741E+01  0.2577288E+05 -0.2975769E+01  0.2829942E+05  0.1571285E+01
  0.4523810E+00  0.3171027E+05 -0.1569242E+01  0.2981363E+05 -0.2954171E+01  0.3156431E+05  0.1571509E+01
  0.4833333E+00  0.3546893E+05 -0.1568555E+01  0.3403842E+05 -0.2932317E+01  0.3497729E+05  0.1571810E+01
  0.5142857E+00  0.3949991E+05 -0.1567606E+01  0.3846393E+05 -0.2908700E+01  0.3860045E+05  0.1572220E+01
  0.5452381E+00  0.4373301E+05 -0.1566349E+01  0.4309395E+05 -0.2885571E+01  0.4244745E+05  0.1572751E+01
  0.5761905E+00  0.4814559E+05 -0.1564726E+01  0.4784500E+05 -0.2862908E+01  0.4642454E+05  0.1573420E+01
  0.6071429E+00  0.5279378E+05 -0.1562653E+01  0.5269066E+05 -0.2839584E+01  0.5035145E+05  0.1574256E+01
  0.6380953E+00  0.5761276E+05 -0.1560097E+01  0.5768656E+05 -0.2818055E+01  0.5429916E+05  0.1575257E+01
  0.6690477E+00  0.6248454E+05 -0.1556949E+01  0.6276395E+05 -0.2796967E+01  0.5836779E+05  0.1576449E+01
  0.7000000E+00  0.6740045E+05 -0.1553116E+01  0.6791213E+05 -0.2776072E+01  0.6242755E+05  0.1577850E+01
  0.7309524E+00  0.7238709E+05 -0.1548560E+01  0.7312341E+05 -0.2756229E+01  0.6635050E+05  0.1579449E+01
  0.7619048E+00  0.7742486E+05 -0.1543186E+01  0.7832657E+05 -0.2736754E+01  0.7011023E+05  0.1581251E+01
  0.7928572E+00  0.8249630E+05 -0.1536921E+01  0.8353162E+05 -0.2717846E+01  0.7373310E+05  0.1583247E+01
  0.8238096E+00  0.8747235E+05 -0.1529667E+01  0.8873357E+05 -0.2699697E+01  0.7726961E+05  0.1585419E+01
  0.8547620E+00  0.9231655E+05 -0.1521362E+01  0.9393980E+05 -0.2682630E+01  0.8071768E+05  0.1587733E+01
  0.8857143E+00  0.9697032E+05 -0.1511943E+01  0.9908438E+05 -0.2666264E+01  0.8398784E+05  0.1590149E+01
  0.9166667E+00  0.1014745E+06 -0.1501419E+01  0.1041497E+06 -0.2650592E+01  0.8699207E+05  0.1592599E+01
  0.9476191E+00  0.1057404E+06 -0.1489765E+01  0.1090847E+06 -0.2635416E+01  0.8964534E+05  0.1594999E+01
  0.9785714E+00  0.1097326E+06 -0.1476997E+01  0.1139069E+06 -0.2621147E+01  0.9198730E+05  0.1597242E+01
  0.1009524E+01  0.1133345E+06 -0.1463084E+01  0.1186058E+06 -0.2607704E+01  0.9416848E+05  0.1599247E+01
  0.1040476E+01  0.1164777E+06 -0.1448066E+01  0.1231770E+06 -0.2595329E+01  0.9615029E+05  0.1600881E+01
  0.1071429E+01  0.1190687E+06 -0.1431994E+01  0.1276140E+06 -0.2584088E+01  0.9787486E+05  0.1601998E+01
  0.1102381E+01  0.1210654E+06 -0.1414999E+01  0.1319050E+06 -0.2573960E+01  0.9937042E+05  0.1602487E+01
  0.1133333E+01  0.1224085E+06 -0.1397259E+01  0.1360124E+06 -0.2564646E+01  0.1005690E+06  0.1602201E+01
  0.1164286E+01  0.1230452E+06 -0.1378929E+01  0.1399244E+06 -0.2556116E+01  0.1015577E+06  0.1601079E+01
  0.1195238E+01  0.1229326E+06 -0.1360246E+01  0.1436329E+06 -0.2548491E+01  0.1022984E+06  0.1599000E+01
  0.1226190E+01  0.1220434E+06 -0.1341497E+01  0.1471535E+06 -0.2542137E+01  0.1028323E+06  0.1595898E+01
  0.1257143E+01  0.1203101E+06 -0.1322674E+01  0.1504978E+06 -0.2536399E+01  0.1032615E+06  0.1591876E+01
  0.1288095E+01  0.1177287E+06 -0.1304752E+01  0.1536258E+06 -0.2532506E+01  0.1035732E+06  0.1586903E+01
  0.1319048E+01  0.1142997E+06 -0.1287518E+01  0.1565687E+06 -0.2529229E+01  0.1038798E+06  0.1581273E+01
  0.1350000E+01  0.1099921E+06 -0.1271523E+01  0.1593089E+06 -0.2526894E+01  0.1041619E+06  0.1575125E+01
  0.1380952E+01  0.1048739E+06 -0.1257383E+01  0.1618694E+06 -0.2525849E+01  0.1045109E+06  0.1568856E+01
  0.1411905E+01  0.9897077E+05 -0.1245719E+01  0.1638759E+06 -0.2527114E+01  0.1049041E+06  0.1562759E+01
  0.1442857E+01  0.9235537E+05 -0.1237012E+01  0.1660939E+06 -0.2528121E+01  0.1053602E+06  0.1557167E+01
  0.1473810E+01  0.8506952E+05 -0.1232676E+01  0.1682023E+06 -0.2530250E+01  0.1059643E+06  0.1552633E+01
  0.1504762E+01  0.7714452E+05 -0.1234239E+01  0.1701728E+06 -0.2533308E+01  0.1066302E+06  0.1549325E+01
  0.1535714E+01  0.6872212E+05 -0.1243967E+01  0.1720545E+06 -0.2537218E+01  0.1075438E+06  0.1548110E+01
  0.1566667E+01  0.5981938E+05 -0.1265526E+01  0.1738188E+06 -0.2541667E+01  0.1085042E+06  0.1548757E+01
  0.1597619E+01  0.5065911E+05 -0.1305762E+01  0.1755418E+06 -0.2546818E+01  0.1096632E+06  0.1552023E+01
  0.1628572E+01  0.4138729E+05 -0.1377236E+01  0.1772390E+06 -0.2552193E+01  0.1108870E+06  0.1557746E+01
  0.1659524E+01  0.3236211E+05 -0.1504894E+01  0.1788296E+06 -0.2557209E+01  0.1122784E+06  0.1566430E+01
  0.1690476E+01  0.2435167E+05 -0.1743258E+01  0.1803717E+06 -0.2562118E+01  0.1137934E+06  0.1577937E+01
  0.1721429E+01  0.1915174E+05 -0.2177217E+01  0.1818339E+06 -0.2566541E+01  0.1153826E+06  0.1592284E+01
  0.1752381E+01  0.1954511E+05 -0.2742324E+01  0.1831512E+06 -0.2569882E+01  0.1170432E+06  0.1609383E+01
  0.1783333E+01  0.2538667E+05  0.3126049E+01  0.1842325E+06 -0.2571680E+01  0.1188267E+06  0.1629267E+01
  0.1814286E+01  0.3398581E+05  0.2897301E+01  0.1849585E+06 -0.2571874E+01  0.1206926E+06  0.1651692E+01
  0.1845238E+01  0.4371242E+05  0.2770510E+01  0.1853410E+06 -0.2570781E+01  0.1226221E+06  0.1676343E+01
  0.1876190E+01  0.5390323E+05  0.2694690E+01  0.1852727E+06 -0.2568399E+01  0.1245729E+06  0.1702988E+01
  0.1907143E+01  0.6418903E+05  0.2646677E+01  0.1844959E+06 -0.2564306E+01  0.1267015E+06  0.1731665E+01
  0.1938095E+01  0.7444496E+05  0.2614475E+01  0.1830198E+06 -0.2559317E+01  0.1288531E+06  0.1761633E+01
  0.1969048E+01  0.8455063E+05  0.2592129E+01  0.1808227E+06 -0.2553716E+01  0.1311061E+06  0.1793194E+01
  0.2000000E+01  0.9446153E+05  0.2576039E+01  0.1778914E+06 -0.2547999E+01  0.1333152E+06  0.1825557E+01
