VARIABLES="w (rad/s)"
"abs(F   1   1)" "angle(F   1   1)"
"abs(F   1   2)" "angle(F   1   2)"
"abs(F   1   3)" "angle(F   1   3)"
Zone t="Diffraction force - beta =   0.000 deg",I=    64,F=POINT
  0.5000000E-01  0.4259771E+04 -0.1570775E+01  0.6564282E+06 -0.4560658E-04  0.8609315E+03 -0.1570806E+01
  0.8095238E-01  0.6953703E+04 -0.1570796E+01  0.6550866E+06 -0.1226637E-03  0.1388153E+04 -0.1570811E+01
  0.1119048E+00  0.9707332E+04 -0.1570783E+01  0.6531194E+06 -0.2435072E-03  0.1945023E+04 -0.1570792E+01
  0.1428571E+00  0.1254819E+05 -0.1570791E+01  0.6505225E+06 -0.4173106E-03  0.2527308E+04 -0.1570776E+01
  0.1738095E+00  0.1551235E+05 -0.1570781E+01  0.6472913E+06 -0.6580442E-03  0.3146319E+04 -0.1570783E+01
  0.2047619E+00  0.1862734E+05 -0.1570773E+01  0.6434121E+06 -0.9855741E-03  0.3808302E+04 -0.1570771E+01
  0.2357143E+00  0.2194347E+05 -0.1570759E+01  0.6388819E+06 -0.1429614E-02  0.4533127E+04 -0.1570759E+01
  0.2666667E+00  0.2549537E+05 -0.1570741E+01  0.6336842E+06 -0.2025977E-02  0.5313880E+04 -0.1570734E+01
  0.2976190E+00  0.2934967E+05 -0.1570716E+01  0.6278044E+06 -0.2835261E-02  0.6200910E+04 -0.1570722E+01
  0.3285715E+00  0.3355655E+05 -0.1570675E+01  0.6212488E+06 -0.3919059E-02  0.7186352E+04 -0.1570677E+01
  0.3595238E+00  0.3818898E+05 -0.1570618E+01  0.6140276E+06 -0.5374352E-02  0.8288853E+04 -0.1570612E+01
  0.3904762E+00  0.4327988E+05 -0.1570528E+01  0.6061168E+06 -0.7310153E-02  0.9533659E+04 -0.1570526E+01
  0.4214286E+00  0.4892466E+05 -0.1570397E+01  0.5976377E+06 -0.9792599E-02  0.1097411E+05 -0.1570397E+01
  0.4523810E+00  0.5513194E+05 -0.1570207E+01  0.5885704E+06 -0.1301016E-01  0.1260008E+05 -0.1570206E+01
  0.4833333E+00  0.6189522E+05 -0.1569943E+01  0.5790311E+06 -0.1687223E-01  0.1439470E+05 -0.1569939E+01
  0.5142857E+00  0.6919011E+05 -0.1569578E+01  0.5690573E+06 -0.2159687E-01  0.1637084E+05 -0.1569574E+01
  0.5452381E+00  0.7702188E+05 -0.1569092E+01  0.5586994E+06 -0.2710914E-01  0.1859321E+05 -0.1569089E+01
  0.5761905E+00  0.8534484E+05 -0.1568461E+01  0.5480186E+06 -0.3341990E-01  0.2105209E+05 -0.1568458E+01
  0.6071429E+00  0.9405095E+05 -0.1567649E+01  0.5370818E+06 -0.4070631E-01  0.2364329E+05 -0.1567647E+01
  0.6380953E+00  0.1031344E+06 -0.1566638E+01  0.5257956E+06 -0.4878589E-01  0.2646367E+05 -0.1566633E+01
  0.6690477E+00  0.1125700E+06 -0.1565387E+01  0.5143267E+06 -0.5783786E-01  0.2947859E+05 -0.1565381E+01
  0.7000000E+00  0.1223180E+06 -0.1563858E+01  0.5027452E+06 -0.6796683E-01  0.3277018E+05 -0.1563849E+01
  0.7309524E+00  0.1323922E+06 -0.1562024E+01  0.4909621E+06 -0.7907685E-01  0.3630649E+05 -0.1562010E+01
  0.7619048E+00  0.1427037E+06 -0.1559837E+01  0.4790764E+06 -0.9127028E-01  0.3998864E+05 -0.1559817E+01
  0.7928572E+00  0.1531808E+06 -0.1557260E+01  0.4671503E+06 -0.1046100E+00  0.4386171E+05 -0.1557231E+01
  0.8238096E+00  0.1638857E+06 -0.1554261E+01  0.4551907E+06 -0.1191208E+00  0.4795636E+05 -0.1554220E+01
  0.8547620E+00  0.1747266E+06 -0.1550808E+01  0.4432202E+06 -0.1348337E+00  0.5236716E+05 -0.1550756E+01
  0.8857143E+00  0.1857280E+06 -0.1546872E+01  0.4313112E+06 -0.1517747E+00  0.5700463E+05 -0.1546805E+01
  0.9166667E+00  0.1967670E+06 -0.1542426E+01  0.4194623E+06 -0.1699751E+00  0.6185347E+05 -0.1542334E+01
  0.9476191E+00  0.2078305E+06 -0.1537455E+01  0.4077177E+06 -0.1894619E+00  0.6682423E+05 -0.1537328E+01
  0.9785714E+00  0.2187895E+06 -0.1531948E+01  0.3960826E+06 -0.2102644E+00  0.7197080E+05 -0.1531776E+01
  0.1009524E+01  0.2296462E+06 -0.1525929E+01  0.3845526E+06 -0.2324349E+00  0.7733702E+05 -0.1525701E+01
  0.1040476E+01  0.2403029E+06 -0.1519412E+01  0.3731896E+06 -0.2560281E+00  0.8273360E+05 -0.1519127E+01
  0.1071429E+01  0.2506635E+06 -0.1512448E+01  0.3620263E+06 -0.2810919E+00  0.8836312E+05 -0.1512091E+01
  0.1102381E+01  0.2607446E+06 -0.1505093E+01  0.3510415E+06 -0.3076631E+00  0.9405057E+05 -0.1504652E+01
  0.1133333E+01  0.2703514E+06 -0.1497423E+01  0.3402498E+06 -0.3357823E+00  0.9985934E+05 -0.1496869E+01
  0.1164286E+01  0.2794623E+06 -0.1489539E+01  0.3296595E+06 -0.3655359E+00  0.1056402E+06 -0.1488861E+01
  0.1195238E+01  0.2879698E+06 -0.1481549E+01  0.3192785E+06 -0.3969678E+00  0.1112694E+06 -0.1480714E+01
  0.1226190E+01  0.2957231E+06 -0.1473579E+01  0.3091502E+06 -0.4301931E+00  0.1168437E+06 -0.1472575E+01
  0.1257143E+01  0.3027404E+06 -0.1465730E+01  0.2992499E+06 -0.4655331E+00  0.1222475E+06 -0.1464509E+01
  0.1288095E+01  0.3089553E+06 -0.1458456E+01  0.2896214E+06 -0.5024242E+00  0.1275300E+06 -0.1457021E+01
  0.1319048E+01  0.3142742E+06 -0.1451665E+01  0.2802974E+06 -0.5417349E+00  0.1325627E+06 -0.1449998E+01
  0.1350000E+01  0.3186978E+06 -0.1445677E+01  0.2713204E+06 -0.5832947E+00  0.1373654E+06 -0.1443756E+01
  0.1380952E+01  0.3222328E+06 -0.1440636E+01  0.2626943E+06 -0.6271631E+00  0.1418232E+06 -0.1438476E+01
  0.1411905E+01  0.3245406E+06 -0.1437085E+01  0.2547515E+06 -0.6695458E+00  0.1458216E+06 -0.1434683E+01
  0.1442857E+01  0.3263150E+06 -0.1434435E+01  0.2469254E+06 -0.7183909E+00  0.1497102E+06 -0.1431798E+01
  0.1473810E+01  0.3272185E+06 -0.1433308E+01  0.2395790E+06 -0.7699646E+00  0.1532591E+06 -0.1430396E+01
  0.1504762E+01  0.3272529E+06 -0.1433799E+01  0.2327712E+06 -0.8243611E+00  0.1564330E+06 -0.1430680E+01
  0.1535714E+01  0.3265190E+06 -0.1436134E+01  0.2265865E+06 -0.8813985E+00  0.1592579E+06 -0.1432794E+01
  0.1566667E+01  0.3250851E+06 -0.1440399E+01  0.2210700E+06 -0.9410710E+00  0.1616974E+06 -0.1436893E+01
  0.1597619E+01  0.3230137E+06 -0.1446646E+01  0.2162991E+06 -0.1003086E+01  0.1637306E+06 -0.1443086E+01
  0.1628572E+01  0.3203279E+06 -0.1455014E+01  0.2123743E+06 -0.1066948E+01  0.1655095E+06 -0.1451381E+01
  0.1659524E+01  0.3171934E+06 -0.1465526E+01  0.2092748E+06 -0.1132181E+01  0.1669190E+06 -0.1461995E+01
  0.1690476E+01  0.3136648E+06 -0.1478271E+01  0.2070180E+06 -0.1198095E+01  0.1680432E+06 -0.1474904E+01
  0.1721429E+01  0.3097523E+06 -0.1493178E+01  0.2056490E+06 -0.1263884E+01  0.1688996E+06 -0.1490146E+01
  0.1752381E+01  0.3055888E+06 -0.1510286E+01  0.2050340E+06 -0.1328780E+01  0.1694951E+06 -0.1507744E+01
  0.1783333E+01  0.3012139E+06 -0.1529649E+01  0.2051575E+06 -0.1392097E+01  0.1699559E+06 -0.1527653E+01
  0.1814286E+01  0.2967316E+06 -0.1551145E+01  0.2059166E+06 -0.1453230E+01  0.1702122E+06 -0.1549952E+01
  0.1845238E+01  0.2921738E+06 -0.1574671E+01  0.2071555E+06 -0.1511423E+01  0.1702859E+06 -0.1574578E+01
  0.1876190E+01  0.2875472E+06 -0.1600248E+01  0.2087624E+06 -0.1566348E+01  0.1703211E+06 -0.1601306E+01
  0.1907143E+01  0.2829531E+06 -0.1627724E+01  0.2105421E+06 -0.1618114E+01  0.1702236E+06 -0.1630243E+01
  0.1938095E+01  0.2784171E+06 -0.1657051E+01  0.2122647E+06 -0.1666978E+01  0.1700659E+06 -0.1661240E+01
  0.1969048E+01  0.2739386E+06 -0.1688096E+01  0.2138878E+06 -0.1713070E+01  0.1698569E+06 -0.1694183E+01
  0.2000000E+01  0.2695444E+06 -0.1720695E+01  0.2152668E+06 -0.1756715E+01  0.1695862E+06 -0.1729034E+01
