VARIABLES="w (rad/s)"
"A   1   1" "B   1   1"
"A   1   2" "B   1   2"
"A   1   3" "B   1   3"
Zone t="Motion of body    1 in DoF   1",I=    64,F=POINT
  0.5000000E-01  0.2903628E+06  0.8952164E-01  0.1296997E-01  0.1141052E-03 -0.7299826E+06 -0.2031558E+00
  0.8095238E-01  0.2916098E+06  0.3949865E+00  0.2299589E-01  0.2038265E-03 -0.7337478E+06 -0.8974618E+00
  0.1119048E+00  0.2925476E+06  0.1106482E+01  0.2399850E-01  0.3727973E-03 -0.7350416E+06 -0.2512667E+01
  0.1428571E+00  0.2930993E+06  0.2490590E+01 -0.5981445E-02  0.8720160E-04 -0.7366336E+06 -0.5656280E+01
  0.1738095E+00  0.2940897E+06  0.4954184E+01  0.7374384E-02  0.1995042E-03 -0.7384886E+06 -0.1125125E+02
  0.2047619E+00  0.2948964E+06  0.9130300E+01  0.2429341E-01  0.1189411E-02 -0.7405753E+06 -0.2074170E+02
  0.2357143E+00  0.2959679E+06  0.1605898E+02 -0.5178740E-03  0.2428889E-03 -0.7425136E+06 -0.3647592E+02
  0.2666667E+00  0.2973598E+06  0.2736022E+02  0.9155273E-02  0.8019805E-03 -0.7455048E+06 -0.6214524E+02
  0.2976190E+00  0.2981634E+06  0.4578239E+02  0.2666016E-02  0.2824068E-03 -0.7475251E+06 -0.1040182E+03
  0.3285715E+00  0.3004151E+06  0.7567969E+02 -0.2024775E-01 -0.6920099E-03 -0.7521416E+06 -0.1719187E+03
  0.3595238E+00  0.3020236E+06  0.1240181E+03 -0.4159283E-01 -0.3075480E-02 -0.7553371E+06 -0.2817012E+03
  0.3904762E+00  0.3038810E+06  0.2017356E+03 -0.1203583E-01 -0.1543522E-02 -0.7599258E+06 -0.4584232E+03
  0.4214286E+00  0.3062329E+06  0.3239050E+03 -0.3142793E-01 -0.1462936E-02 -0.7647355E+06 -0.7358935E+03
  0.4523810E+00  0.3093055E+06  0.5160490E+03 -0.9984066E-02  0.5817413E-04 -0.7704695E+06 -0.1171767E+04
  0.4833333E+00  0.3122158E+06  0.8012322E+03  0.3788389E-02  0.1327515E-02 -0.7771646E+06 -0.1819591E+04
  0.5142857E+00  0.3147765E+06  0.1222759E+04  0.9969076E-02  0.1779556E-02 -0.7831535E+06 -0.2777465E+04
  0.5452381E+00  0.3192463E+06  0.1825326E+04 -0.7612071E-02 -0.1823425E-02 -0.7929052E+06 -0.4145163E+04
  0.5761905E+00  0.3231939E+06  0.2658178E+04 -0.1588932E-01 -0.2071381E-02 -0.8009181E+06 -0.6033171E+04
  0.6071429E+00  0.3275064E+06  0.3800746E+04  0.2855009E-01  0.1334763E-01 -0.8093983E+06 -0.8619812E+04
  0.6380953E+00  0.3321008E+06  0.5313655E+04 -0.5930431E-02  0.1358032E-02 -0.8209891E+06 -0.1205841E+05
  0.6690477E+00  0.3368163E+06  0.7295806E+04  0.8757784E-02  0.1088715E-01 -0.8308799E+06 -0.1654412E+05
  0.7000000E+00  0.3425463E+06  0.9874844E+04  0.7324218E-02  0.5096436E-02 -0.8420168E+06 -0.2236225E+05
  0.7309524E+00  0.3488726E+06  0.1316370E+05  0.1670017E-02  0.1004028E-01 -0.8561992E+06 -0.2979856E+05
  0.7619048E+00  0.3544310E+06  0.1729111E+05 -0.1602173E-02 -0.1983643E-03 -0.8677492E+06 -0.3910550E+05
  0.7928572E+00  0.3599312E+06  0.2241927E+05 -0.1785965E-01 -0.5798340E-02 -0.8797001E+06 -0.5067071E+05
  0.8238096E+00  0.3662712E+06  0.2872792E+05  0.3259912E-02  0.7843018E-02 -0.8935343E+06 -0.6487209E+05
  0.8547620E+00  0.3724182E+06  0.3635513E+05 -0.4855610E-02  0.1605225E-01 -0.9064999E+06 -0.8198100E+05
  0.8857143E+00  0.3780799E+06  0.4548490E+05 -0.3500662E-01 -0.2813721E-01 -0.9176182E+06 -0.1023952E+06
  0.9166667E+00  0.3833580E+06  0.5629189E+05  0.6125710E-02  0.2539062E-01 -0.9276646E+06 -0.1264836E+06
  0.9476191E+00  0.3883625E+06  0.6895230E+05  0.5667988E-02  0.2941895E-01 -0.9373814E+06 -0.1546605E+06
  0.9785714E+00  0.3920219E+06  0.8352270E+05  0.1546818E-01  0.2447510E-01 -0.9451861E+06 -0.1871282E+06
  0.1009524E+01  0.3937988E+06  0.9996699E+05  0.2902049E-02  0.1562500E-01 -0.9480654E+06 -0.2235987E+06
  0.1040476E+01  0.3944266E+06  0.1182651E+06 -0.3754291E-02 -0.3784180E-02 -0.9483342E+06 -0.2639880E+06
  0.1071429E+01  0.3936678E+06  0.1382871E+06 -0.6152344E-02  0.2258301E-01 -0.9436355E+06 -0.3075807E+06
  0.1102381E+01  0.3918356E+06  0.1600842E+06 -0.1461680E-01 -0.9155273E-02 -0.9384467E+06 -0.3553053E+06
  0.1133333E+01  0.3870592E+06  0.1829981E+06  0.2585018E-02 -0.2441406E-03 -0.9264554E+06 -0.4051367E+06
  0.1164286E+01  0.3797263E+06  0.2066428E+06 -0.9645801E-02 -0.1953125E-02 -0.9081071E+06 -0.4560445E+06
  0.1195238E+01  0.3704456E+06  0.2306075E+06 -0.1613663E-01  0.7324219E-03 -0.8860509E+06 -0.5073921E+06
  0.1226190E+01  0.3593390E+06  0.2542484E+06 -0.5973150E-03  0.1342773E-01 -0.8588423E+06 -0.5569350E+06
  0.1257143E+01  0.3466935E+06  0.2773811E+06 -0.8933327E-02  0.1782227E-01 -0.8290170E+06 -0.6052181E+06
  0.1288095E+01  0.3327694E+06  0.2993120E+06 -0.6633766E-02 -0.8544922E-02 -0.7976001E+06 -0.6509960E+06
  0.1319048E+01  0.3168667E+06  0.3192303E+06  0.3886860E-02 -0.3906250E-02 -0.7612635E+06 -0.6913810E+06
  0.1350000E+01  0.3000790E+06  0.3368459E+06 -0.2893518E-02  0.1220703E-02 -0.7228204E+06 -0.7259266E+06
  0.1380952E+01  0.2829665E+06  0.3522184E+06 -0.2828664E-02  0.9765625E-02 -0.6845409E+06 -0.7555847E+06
  0.1411905E+01  0.2649824E+06  0.3647066E+06 -0.7262463E-02 -0.1123047E-01 -0.6445004E+06 -0.7781706E+06
  0.1442857E+01  0.2481082E+06  0.3749945E+06 -0.7698890E-02  0.3173828E-02 -0.6066882E+06 -0.7953659E+06
  0.1473810E+01  0.2321300E+06  0.3832697E+06 -0.1060178E-01  0.4150391E-02 -0.5724127E+06 -0.8092621E+06
  0.1504762E+01  0.2162458E+06  0.3885312E+06 -0.7950022E-02 -0.5859375E-02 -0.5381241E+06 -0.8156235E+06
  0.1535714E+01  0.2010930E+06  0.3912769E+06 -0.2464117E-02  0.1245117E-01 -0.5051952E+06 -0.8158071E+06
  0.1566667E+01  0.1869343E+06  0.3920874E+06 -0.3584192E-02 -0.1464844E-01 -0.4750345E+06 -0.8123237E+06
  0.1597619E+01  0.1739377E+06  0.3912417E+06 -0.3056306E-02  0.7324219E-03 -0.4478607E+06 -0.8055102E+06
  0.1628572E+01  0.1620095E+06  0.3885845E+06 -0.2848307E-02  0.4638672E-02 -0.4226280E+06 -0.7932842E+06
  0.1659524E+01  0.1513035E+06  0.3847006E+06 -0.9341794E-02 -0.6958008E-02 -0.4002558E+06 -0.7784493E+06
  0.1690476E+01  0.1419070E+06  0.3803459E+06 -0.3610530E-03 -0.9033203E-02 -0.3816641E+06 -0.7646442E+06
  0.1721429E+01  0.1332183E+06  0.3746531E+06 -0.1347332E-02 -0.4882812E-03 -0.3648193E+06 -0.7479513E+06
  0.1752381E+01  0.1253941E+06  0.3679336E+06  0.1880812E-02  0.4760742E-02 -0.3497789E+06 -0.7285799E+06
  0.1783333E+01  0.1182913E+06  0.3600938E+06 -0.2053519E-02 -0.5371094E-02 -0.3359938E+06 -0.7059626E+06
  0.1814286E+01  0.1120444E+06  0.3520736E+06 -0.2018486E-03 -0.3173828E-02 -0.3244420E+06 -0.6842343E+06
  0.1845238E+01  0.1065754E+06  0.3438756E+06 -0.4630797E-02 -0.1037598E-01 -0.3147201E+06 -0.6627865E+06
  0.1876190E+01  0.1018552E+06  0.3350708E+06 -0.4554400E-02  0.5004883E-02 -0.3065155E+06 -0.6383039E+06
  0.1907143E+01  0.9793246E+05  0.3262343E+06 -0.3328359E-02 -0.2746582E-02 -0.3000758E+06 -0.6135486E+06
  0.1938095E+01  0.9464430E+05  0.3178313E+06 -0.2645357E-02  0.5493164E-03 -0.2951838E+06 -0.5919081E+06
  0.1969048E+01  0.9189141E+05  0.3097158E+06 -0.4711589E-02 -0.3051758E-03 -0.2915675E+06 -0.5721967E+06
  0.2000000E+01  0.8934551E+05  0.3009448E+06 -0.4699707E-02 -0.7446289E-02 -0.2883726E+06 -0.5503431E+06
Zone t="Motion of body    1 in DoF   2",I=    64,F=POINT
  0.5000000E-01 -0.1663208E-01 -0.4291534E-04  0.2669407E+06  0.6757166E+03 -0.6347656E-01 -0.3890991E-03
  0.8095238E-01 -0.6502937E-02 -0.2479553E-04  0.2639373E+06  0.1116016E+04  0.3015855E-01  0.1220703E-03
  0.1119048E+00  0.1349916E-01 -0.7438660E-04  0.2615080E+06  0.1588872E+04 -0.4145196E-01 -0.8697510E-03
  0.1428571E+00 -0.6622314E-02  0.6790161E-03  0.2603120E+06  0.2109572E+04 -0.2050781E-01  0.2136230E-03
  0.1738095E+00 -0.2045514E-01  0.3471375E-03  0.2590901E+06  0.2694433E+04 -0.1011344E+00 -0.1159668E-02
  0.2047619E+00  0.9985635E-02  0.7171631E-03  0.2584778E+06  0.3368956E+04 -0.1430778E-01 -0.3051758E-03
  0.2357143E+00 -0.1165217E-01 -0.1907349E-03  0.2586252E+06  0.4161954E+04  0.0000000E+00  0.1770020E-02
  0.2666667E+00 -0.6065368E-02  0.1197815E-02  0.2579562E+06  0.5092556E+04  0.3845214E-01 -0.3417969E-02
  0.2976190E+00 -0.1763672E-01  0.7095337E-03  0.2583527E+06  0.6223202E+04 -0.1640625E-01 -0.3540039E-02
  0.3285715E+00  0.1077403E-01  0.3662109E-03  0.2577582E+06  0.7564459E+04  0.1188859E-01  0.2807617E-02
  0.3595238E+00 -0.2054176E-01  0.8850098E-03  0.2580545E+06  0.9178548E+04 -0.6790666E-01  0.2197266E-02
  0.3904762E+00 -0.9847500E-02 -0.2593994E-03  0.2569661E+06  0.1109179E+05 -0.7252762E-01  0.4516602E-02
  0.4214286E+00 -0.1448292E-03  0.3051758E-03  0.2561629E+06  0.1323501E+05 -0.6488347E-01  0.9765625E-02
  0.4523810E+00  0.2158717E-02 -0.1739502E-02  0.2544201E+06  0.1574125E+05 -0.4317434E-01 -0.6347656E-02
  0.4833333E+00 -0.1742659E-01 -0.1892090E-02  0.2521730E+06  0.1825509E+05  0.5051185E-01 -0.4150391E-02
  0.5142857E+00 -0.2504137E-01 -0.1586914E-02  0.2498255E+06  0.2095509E+05 -0.1139323E-01 -0.2197266E-01
  0.5452381E+00  0.1567191E-02  0.1586914E-02  0.2462841E+06  0.2361802E+05 -0.1432860E-01 -0.1025391E-01
  0.5761905E+00 -0.9533590E-02 -0.6286621E-02  0.2433728E+06  0.2611282E+05  0.2372804E-01  0.9765625E-03
  0.6071429E+00 -0.1668773E-01  0.2563477E-02  0.2392297E+06  0.2860833E+05  0.3860294E-01  0.6591797E-02
  0.6380953E+00  0.9852167E-02  0.6469727E-02  0.2354038E+06  0.3075818E+05 -0.2142607E-01  0.5126953E-02
  0.6690477E+00  0.2828035E-02  0.3173828E-02  0.2323420E+06  0.3268718E+05 -0.6422375E-01  0.2587891E-01
  0.7000000E+00  0.3662109E-02 -0.9948730E-02  0.2279431E+06  0.3447018E+05  0.4185268E-01  0.1953125E-01
  0.7309524E+00 -0.2655327E-01  0.1220703E-03  0.2240877E+06  0.3593378E+05  0.3740839E-01 -0.1074219E-01
  0.7619048E+00 -0.9613036E-03 -0.8178711E-02  0.2208905E+06  0.3708815E+05  0.0000000E+00 -0.4394531E-02
  0.7928572E+00 -0.1755173E-01  0.6103516E-03  0.2176507E+06  0.3794532E+05  0.2217061E-01 -0.1660156E-01
  0.8238096E+00 -0.2030036E-01 -0.2441406E-03  0.2138123E+06  0.3854901E+05  0.2607930E-01 -0.1513672E-01
  0.8547620E+00 -0.1063950E-01  0.6103516E-02  0.2107505E+06  0.3887454E+05  0.2970491E-01 -0.1513672E-01
  0.8857143E+00  0.2756426E-03  0.6835938E-02  0.2084333E+06  0.3889743E+05  0.6174395E-01 -0.4736328E-01
  0.9166667E+00 -0.8822354E-02  0.3662109E-03  0.2060443E+06  0.3859138E+05 -0.1491477E-01  0.9277344E-02
  0.9476191E+00 -0.6440896E-02  0.1635742E-01  0.2031480E+06  0.3802952E+05 -0.1030543E-01 -0.3027344E-01
  0.9785714E+00 -0.1733933E-01 -0.4150391E-02  0.2009598E+06  0.3728763E+05  0.0000000E+00  0.6640625E-01
  0.1009524E+01 -0.1227325E-01  0.8789062E-02  0.1994664E+06  0.3631230E+05  0.5804098E-02 -0.2001953E-01
  0.1040476E+01 -0.1847815E-02 -0.2612305E-01  0.1988159E+06  0.3522642E+05  0.0000000E+00  0.2392578E-01
  0.1071429E+01 -0.9890747E-02 -0.2343750E-01  0.1967358E+06  0.3367032E+05  0.2187500E-01  0.2929688E-02
  0.1102381E+01 -0.1171091E-01 -0.5004883E-02  0.1953987E+06  0.3216130E+05  0.3897813E-01 -0.1318359E-01
  0.1133333E+01 -0.1749263E-01 -0.2172852E-01  0.1945131E+06  0.3058855E+05  0.2068015E-01  0.1855469E-01
  0.1164286E+01 -0.1172306E-01 -0.1257324E-01  0.1942148E+06  0.2899080E+05  0.2348543E-01  0.3662109E-01
  0.1195238E+01 -0.1311101E-01 -0.2001953E-01  0.1945986E+06  0.2756396E+05  0.4575448E-01  0.6030273E-01
  0.1226190E+01 -0.1239428E-01 -0.1013184E-01  0.1939913E+06  0.2551989E+05 -0.3185680E-02  0.1782227E-01
  0.1257143E+01 -0.6602894E-02 -0.7690430E-02  0.1934774E+06  0.2344819E+05  0.4971591E-01  0.8178711E-01
  0.1288095E+01 -0.3553803E-02 -0.1257324E-01  0.1934398E+06  0.2167751E+05 -0.6065157E-02  0.5444336E-01
  0.1319048E+01 -0.1210016E-01 -0.2209473E-01  0.1936699E+06  0.1997369E+05  0.5922833E-02  0.2197266E-01
  0.1350000E+01 -0.1073767E-01  0.8422852E-02  0.1942756E+06  0.1856320E+05  0.2025463E-01  0.4394531E-02
  0.1380952E+01 -0.1546925E-01 -0.1672363E-01  0.1952338E+06  0.1749938E+05  0.9900323E-02 -0.4394531E-02
  0.1411905E+01  0.4755184E-03  0.4882812E-03  0.1954466E+06  0.1553043E+05 -0.1244994E-01 -0.1855469E-01
  0.1442857E+01 -0.1057540E-02 -0.1440430E-01  0.1956948E+06  0.1350576E+05  0.1759746E-01  0.6103516E-03
  0.1473810E+01  0.4638277E-02  0.4882812E-03  0.1961677E+06  0.1211039E+05  0.3975666E-02  0.4882812E-02
  0.1504762E+01 -0.6368130E-02 -0.1245117E-01  0.1967617E+06  0.1086509E+05  0.3244907E-01  0.8422852E-02
  0.1535714E+01 -0.6080804E-02 -0.1342773E-01  0.1974693E+06  0.9754405E+04  0.7630813E-02  0.1586914E-01
  0.1566667E+01 -0.1090841E-02 -0.5493164E-02  0.1982708E+06  0.9054337E+04  0.4986702E-01  0.5737305E-02
  0.1597619E+01 -0.6494650E-03 -0.1220703E-02  0.1991330E+06  0.8582083E+04 -0.1711531E-01 -0.7812500E-02
  0.1628572E+01  0.4234983E-02 -0.3845215E-02  0.1996785E+06  0.7220176E+04  0.0000000E+00 -0.1525879E-02
  0.1659524E+01  0.8238432E-02 -0.1538086E-01  0.2002390E+06  0.5888531E+04 -0.3766140E-01  0.1586914E-01
  0.1690476E+01  0.4585373E-02  0.2136230E-02  0.2008141E+06  0.5176448E+04 -0.2310739E-02  0.5981445E-02
  0.1721429E+01  0.5141136E-02 -0.1342773E-01  0.2013801E+06  0.4629118E+04 -0.6807573E-02  0.3784180E-02
  0.1752381E+01  0.2472919E-02 -0.1135254E-01  0.2019603E+06  0.4138296E+04  0.0000000E+00  0.1409912E-01
  0.1783333E+01  0.8556331E-03 -0.1275635E-01  0.2025439E+06  0.3743500E+04  0.4380841E-02  0.1959229E-01
  0.1814286E+01  0.1682071E-03 -0.9033203E-02  0.2031045E+06  0.3474268E+04  0.4090798E-01  0.1336670E-01
  0.1845238E+01 -0.1521547E-02 -0.7507324E-02  0.2036616E+06  0.3142204E+04  0.8467742E-02  0.7965088E-02
  0.1876190E+01  0.1691634E-02 -0.3845215E-02  0.2041225E+06  0.2567107E+04  0.2290213E-01  0.1446533E-01
  0.1907143E+01 -0.5088549E-02 -0.5859375E-02  0.2045382E+06  0.1971370E+04  0.8192885E-02  0.1507568E-01
  0.1938095E+01  0.1228201E-02  0.3875732E-02  0.2048932E+06  0.1923335E+04 -0.6651182E-01 -0.6195068E-02
  0.1969048E+01  0.5889487E-02 -0.1049805E-01  0.2051830E+06  0.1937266E+04 -0.3769271E-01  0.1358032E-01
  0.2000000E+01 -0.1159668E-02 -0.4913330E-02  0.2054861E+06  0.1926694E+04 -0.1171875E-01  0.1211548E-01
Zone t="Motion of body    1 in DoF   3",I=    64,F=POINT
  0.5000000E-01 -0.7311293E+06 -0.2028695E+00 -0.1245117E+00 -0.1007428E-02  0.2629840E+07  0.4602832E+00
  0.8095238E-01 -0.7349452E+06 -0.8969554E+00 -0.4976160E-01 -0.1781492E-02  0.2643769E+07  0.2037924E+01
  0.1119048E+00 -0.7363726E+06 -0.2510934E+01 -0.7908598E-01 -0.2186958E-02  0.2641990E+07  0.5702814E+01
  0.1428571E+00 -0.7379351E+06 -0.5651848E+01 -0.1038208E+00 -0.3622495E-02  0.2647598E+07  0.1283362E+02
  0.1738095E+00 -0.7399750E+06 -0.1124324E+02 -0.2911126E+00 -0.6157279E-02  0.2649873E+07  0.2553313E+02
  0.2047619E+00 -0.7421989E+06 -0.2072300E+02  0.2623092E-01 -0.3499180E-02  0.2654850E+07  0.4708396E+02
  0.2357143E+00 -0.7437810E+06 -0.3644807E+02 -0.6732362E-02 -0.3944874E-02  0.2660180E+07  0.8278736E+02
  0.2666667E+00 -0.7471189E+06 -0.6209721E+02 -0.7781982E-02 -0.3636956E-02  0.2664978E+07  0.1410479E+03
  0.2976190E+00 -0.7487808E+06 -0.1039099E+03  0.1763672E-01 -0.2598166E-02  0.2671578E+07  0.2360754E+03
  0.3285715E+00 -0.7537744E+06 -0.1717628E+03  0.2496603E+00  0.8646727E-02  0.2679082E+07  0.3901733E+03
  0.3595238E+00 -0.7565048E+06 -0.2814746E+03 -0.3293473E-01 -0.7024288E-02  0.2688228E+07  0.6393566E+03
  0.3904762E+00 -0.7615155E+06 -0.4578216E+03 -0.1894471E+00 -0.1609850E-01  0.2696628E+07  0.1040376E+04
  0.4214286E+00 -0.7660709E+06 -0.7350378E+03  0.1013804E+00  0.1247406E-02  0.2707646E+07  0.1669952E+04
  0.4523810E+00 -0.7718737E+06 -0.1171077E+04 -0.1079358E-01 -0.9904861E-02  0.2715956E+07  0.2659017E+04
  0.4833333E+00 -0.7786612E+06 -0.1817779E+04 -0.2050781E+00 -0.3766251E-01  0.2732370E+07  0.4128219E+04
  0.5142857E+00 -0.7843148E+06 -0.2773589E+04 -0.1523844E+00 -0.4040146E-01  0.2747450E+07  0.6300204E+04
  0.5452381E+00 -0.7945311E+06 -0.4139065E+04  0.9627030E-01 -0.1121521E-02  0.2767278E+07  0.9399372E+04
  0.5761905E+00 -0.8021373E+06 -0.6026057E+04 -0.2881263E-01 -0.2138519E-01  0.2785717E+07  0.1367730E+05
  0.6071429E+00 -0.8106462E+06 -0.8613384E+04 -0.1166130E-01 -0.2574158E-01  0.2799598E+07  0.1953509E+05
  0.6380953E+00 -0.8224951E+06 -0.1203490E+05 -0.9029559E-01 -0.5444336E-01  0.2829302E+07  0.2731209E+05
  0.6690477E+00 -0.8319129E+06 -0.1651352E+05  0.1240686E-01 -0.5062866E-01  0.2852184E+07  0.3744553E+05
  0.7000000E+00 -0.8431982E+06 -0.2233447E+05  0.2253069E+00  0.2828979E-01  0.2870059E+07  0.5057658E+05
  0.7309524E+00 -0.8576884E+06 -0.2974865E+05 -0.6813670E-01 -0.7733154E-01  0.2902876E+07  0.6734150E+05
  0.7619048E+00 -0.8688788E+06 -0.3904480E+05  0.6600951E-01 -0.3701782E-01  0.2928337E+07  0.8830716E+05
  0.7928572E+00 -0.8805149E+06 -0.5057947E+05 -0.6158502E-01 -0.1008301E+00  0.2954910E+07  0.1143241E+06
  0.8238096E+00 -0.8946824E+06 -0.6472191E+05 -0.7379256E-01 -0.7238770E-01  0.2982177E+07  0.1461492E+06
  0.8547620E+00 -0.9077478E+06 -0.8177116E+05  0.1382421E+00 -0.1550293E-01  0.3010115E+07  0.1843780E+06
  0.8857143E+00 -0.9185134E+06 -0.1021677E+06  0.1615266E+00 -0.7568359E-02  0.3033950E+07  0.2300052E+06
  0.9166667E+00 -0.9284398E+06 -0.1262455E+06 -0.1337003E+00 -0.1422119E+00  0.3052440E+07  0.2836627E+06
  0.9476191E+00 -0.9384001E+06 -0.1543609E+06 -0.2086850E-01 -0.1307373E+00  0.3068554E+07  0.3462191E+06
  0.9785714E+00 -0.9462329E+06 -0.1866427E+06  0.9480498E-02 -0.6713867E-01  0.3086388E+07  0.4181942E+06
  0.1009524E+01 -0.9487281E+06 -0.2229494E+06 -0.8053187E-01 -0.1867676E+00  0.3091022E+07  0.4987514E+06
  0.1040476E+01 -0.9486161E+06 -0.2631739E+06  0.4505149E-01 -0.1904297E-01  0.3092830E+07  0.5875851E+06
  0.1071429E+01 -0.9441321E+06 -0.3067130E+06  0.4557292E-02 -0.1359863E+00  0.3070471E+07  0.6820242E+06
  0.1102381E+01 -0.9392891E+06 -0.3541216E+06  0.1032035E+00 -0.1047363E+00  0.3056776E+07  0.7858791E+06
  0.1133333E+01 -0.9273391E+06 -0.4036436E+06  0.1421760E-01 -0.6103516E-02  0.3028492E+07  0.8936178E+06
  0.1164286E+01 -0.9086828E+06 -0.4543398E+06  0.5158406E-01 -0.2172852E-01  0.2984114E+07  0.1002779E+07
  0.1195238E+01 -0.8863370E+06 -0.5054537E+06  0.8374704E-01  0.1416016E-01  0.2936465E+07  0.1112596E+07
  0.1226190E+01 -0.8592616E+06 -0.5548687E+06  0.6530643E-01 -0.3076172E-01  0.2867600E+07  0.1215287E+07
  0.1257143E+01 -0.8296885E+06 -0.6028046E+06  0.2408114E-01 -0.1313477E+00  0.2795266E+07  0.1314719E+07
  0.1288095E+01 -0.7988408E+06 -0.6481428E+06  0.5458641E-01  0.4443359E-01  0.2727231E+07  0.1409623E+07
  0.1319048E+01 -0.7625714E+06 -0.6881559E+06  0.1776850E-01 -0.2539062E-01  0.2645272E+07  0.1490296E+07
  0.1350000E+01 -0.7240071E+06 -0.7225939E+06  0.9403935E-01 -0.3173828E-01  0.2559713E+07  0.1557512E+07
  0.1380952E+01 -0.6856349E+06 -0.7521906E+06 -0.1909348E-01 -0.6835938E-01  0.2479469E+07  0.1615272E+07
  0.1411905E+01 -0.6456084E+06 -0.7742520E+06  0.8853288E-01  0.2636719E-01  0.2387230E+07  0.1652149E+07
  0.1442857E+01 -0.6080326E+06 -0.7912099E+06  0.8798731E-01 -0.3173828E-01  0.2299198E+07  0.1676326E+07
  0.1473810E+01 -0.5746901E+06 -0.8047839E+06  0.1106560E+00  0.2001953E-01  0.2228565E+07  0.1698266E+07
  0.1504762E+01 -0.5407848E+06 -0.8110261E+06  0.5386546E-01 -0.7910156E-01  0.2157026E+07  0.1701958E+07
  0.1535714E+01 -0.5077729E+06 -0.8110020E+06 -0.8902616E-02 -0.6494141E-01  0.2085850E+07  0.1689864E+07
  0.1566667E+01 -0.4776142E+06 -0.8075664E+06  0.4986702E-01  0.2099609E-01  0.2025671E+07  0.1674631E+07
  0.1597619E+01 -0.4503627E+06 -0.8009911E+06 -0.8557657E-02 -0.4614258E-01  0.1974246E+07  0.1654874E+07
  0.1628572E+01 -0.4252362E+06 -0.7887461E+06 -0.2938254E-01 -0.4736328E-01  0.1918002E+07  0.1611272E+07
  0.1659524E+01 -0.4029948E+06 -0.7736728E+06  0.3001143E-01 -0.4052734E-01  0.1867392E+07  0.1560186E+07
  0.1690476E+01 -0.3852464E+06 -0.7600359E+06  0.4217099E-01  0.3466797E-01  0.1832699E+07  0.1523510E+07
  0.1721429E+01 -0.3689729E+06 -0.7437539E+06  0.5219139E-01 -0.5859375E-02  0.1803273E+07  0.1483051E+07
  0.1752381E+01 -0.3541659E+06 -0.7244948E+06  0.1560377E-01 -0.2441406E-01  0.1776170E+07  0.1433070E+07
  0.1783333E+01 -0.3401432E+06 -0.7017201E+06  0.3942757E-01  0.1953125E-02  0.1750003E+07  0.1373782E+07
  0.1814286E+01 -0.3284815E+06 -0.6804661E+06  0.2691314E-02  0.4150391E-02  0.1731829E+07  0.1326309E+07
  0.1845238E+01 -0.3185186E+06 -0.6595891E+06  0.1958165E-01  0.9399414E-02  0.1718039E+07  0.1283520E+07
  0.1876190E+01 -0.3103893E+06 -0.6349046E+06 -0.5725531E-02  0.7446289E-02  0.1703090E+07  0.1213778E+07
  0.1907143E+01 -0.3040970E+06 -0.6095032E+06  0.2662687E-01  0.1318359E-01  0.1691510E+07  0.1136938E+07
  0.1938095E+01 -0.2997200E+06 -0.5882562E+06  0.2569775E-01 -0.4516602E-02  0.1685978E+07  0.1085590E+07
  0.1969048E+01 -0.2967846E+06 -0.5697874E+06  0.5356333E-01 -0.9765625E-03  0.1683976E+07  0.1046865E+07
  0.2000000E+01 -0.2937197E+06 -0.5485699E+06  0.4785156E-01 -0.2929688E-02  0.1682370E+07  0.9995750E+06
