VARIABLES="w (rad/s)"
"abs(F   1   1)" "angle(F   1   1)"
"abs(F   1   2)" "angle(F   1   2)"
"abs(F   1   3)" "angle(F   1   3)"
Zone t="Diffraction force - beta =   0.000 deg",I=    64,F=POINT
  0.5000000E-01  0.9076244E+04 -0.1570795E+01  0.5340749E+06 -0.3589467E-04  0.2293848E+05  0.1570792E+01
  0.8095238E-01  0.1480363E+05 -0.1570787E+01  0.5320810E+06 -0.9638272E-04  0.3740645E+05  0.1570803E+01
  0.1119048E+00  0.2065095E+05 -0.1570788E+01  0.5291579E+06 -0.1908537E-03  0.5218629E+05  0.1570802E+01
  0.1428571E+00  0.2668082E+05 -0.1570778E+01  0.5253057E+06 -0.3261424E-03  0.6740275E+05  0.1570817E+01
  0.1738095E+00  0.3296642E+05 -0.1570765E+01  0.5205316E+06 -0.5120198E-03  0.8324866E+05  0.1570824E+01
  0.2047619E+00  0.3956758E+05 -0.1570749E+01  0.5148479E+06 -0.7635664E-03  0.9986371E+05  0.1570845E+01
  0.2357143E+00  0.4657034E+05 -0.1570725E+01  0.5082403E+06 -0.1101823E-02  0.1174901E+06  0.1570874E+01
  0.2666667E+00  0.5409357E+05 -0.1570686E+01  0.5007622E+06 -0.1551099E-02  0.1363669E+06  0.1570907E+01
  0.2976190E+00  0.6221428E+05 -0.1570631E+01  0.4923834E+06 -0.2156780E-02  0.1567204E+06  0.1570962E+01
  0.3285715E+00  0.7104488E+05 -0.1570552E+01  0.4831906E+06 -0.2957609E-02  0.1788967E+06  0.1571043E+01
  0.3595238E+00  0.8078691E+05 -0.1570431E+01  0.4731498E+06 -0.4024122E-02  0.2031917E+06  0.1571163E+01
  0.3904762E+00  0.9149885E+05 -0.1570251E+01  0.4624276E+06 -0.5425785E-02  0.2298938E+06  0.1571343E+01
  0.4214286E+00  0.1032565E+06 -0.1569985E+01  0.4509563E+06 -0.7198886E-02  0.2592785E+06  0.1571606E+01
  0.4523810E+00  0.1162816E+06 -0.1569601E+01  0.4390101E+06 -0.9492957E-02  0.2916623E+06  0.1571993E+01
  0.4833333E+00  0.1304271E+06 -0.1569067E+01  0.4265092E+06 -0.1218598E-01  0.3266834E+06  0.1572525E+01
  0.5142857E+00  0.1457388E+06 -0.1568328E+01  0.4136319E+06 -0.1546414E-01  0.3644454E+06  0.1573264E+01
  0.5452381E+00  0.1619319E+06 -0.1567344E+01  0.4004591E+06 -0.1923823E-01  0.4045557E+06  0.1574249E+01
  0.5761905E+00  0.1791869E+06 -0.1566071E+01  0.3868331E+06 -0.2348826E-01  0.4469190E+06  0.1575523E+01
  0.6071429E+00  0.1974918E+06 -0.1564427E+01  0.3733080E+06 -0.2839859E-01  0.4916500E+06  0.1577165E+01
  0.6380953E+00  0.2163468E+06 -0.1562383E+01  0.3594581E+06 -0.3372943E-01  0.5375467E+06  0.1579208E+01
  0.6690477E+00  0.2358357E+06 -0.1559853E+01  0.3453538E+06 -0.3964022E-01  0.5848683E+06  0.1581740E+01
  0.7000000E+00  0.2560672E+06 -0.1556751E+01  0.3315423E+06 -0.4623562E-01  0.6340604E+06  0.1584842E+01
  0.7309524E+00  0.2768272E+06 -0.1553026E+01  0.3175762E+06 -0.5337967E-01  0.6837404E+06  0.1588565E+01
  0.7619048E+00  0.2981582E+06 -0.1548576E+01  0.3034714E+06 -0.6117691E-01  0.7345401E+06  0.1593015E+01
  0.7928572E+00  0.3200453E+06 -0.1543314E+01  0.2897286E+06 -0.6962045E-01  0.7862368E+06  0.1598277E+01
  0.8238096E+00  0.3419979E+06 -0.1537152E+01  0.2761410E+06 -0.7876959E-01  0.8379609E+06  0.1604441E+01
  0.8547620E+00  0.3640660E+06 -0.1530012E+01  0.2626003E+06 -0.8865276E-01  0.8899866E+06  0.1611583E+01
  0.8857143E+00  0.3862600E+06 -0.1521850E+01  0.2490939E+06 -0.9928637E-01  0.9414037E+06  0.1619744E+01
  0.9166667E+00  0.4088888E+06 -0.1512606E+01  0.2362072E+06 -0.1105343E+00  0.9931186E+06  0.1628979E+01
  0.9476191E+00  0.4311565E+06 -0.1502203E+01  0.2235843E+06 -0.1225889E+00  0.1043465E+07  0.1639380E+01
  0.9785714E+00  0.4529488E+06 -0.1490597E+01  0.2111873E+06 -0.1355013E+00  0.1092079E+07  0.1650986E+01
  0.1009524E+01  0.4741562E+06 -0.1477771E+01  0.1989611E+06 -0.1493620E+00  0.1138877E+07  0.1663815E+01
  0.1040476E+01  0.4945803E+06 -0.1463757E+01  0.1872018E+06 -0.1638730E+00  0.1182948E+07  0.1677832E+01
  0.1071429E+01  0.5140537E+06 -0.1448580E+01  0.1760727E+06 -0.1790673E+00  0.1224992E+07  0.1693025E+01
  0.1102381E+01  0.5318522E+06 -0.1432428E+01  0.1652378E+06 -0.1952127E+00  0.1262035E+07  0.1709177E+01
  0.1133333E+01  0.5483185E+06 -0.1415484E+01  0.1547522E+06 -0.2125233E+00  0.1295186E+07  0.1726105E+01
  0.1164286E+01  0.5630159E+06 -0.1397866E+01  0.1445331E+06 -0.2310586E+00  0.1323416E+07  0.1743718E+01
  0.1195238E+01  0.5756840E+06 -0.1379785E+01  0.1347702E+06 -0.2503624E+00  0.1345855E+07  0.1761784E+01
  0.1226190E+01  0.5863966E+06 -0.1361403E+01  0.1257491E+06 -0.2697374E+00  0.1363884E+07  0.1780173E+01
  0.1257143E+01  0.5941451E+06 -0.1343017E+01  0.1170857E+06 -0.2904989E+00  0.1374637E+07  0.1798578E+01
  0.1288095E+01  0.5994916E+06 -0.1325364E+01  0.1087790E+06 -0.3122724E+00  0.1378416E+07  0.1816188E+01
  0.1319048E+01  0.6024816E+06 -0.1308313E+01  0.1008690E+06 -0.3356542E+00  0.1377334E+07  0.1833266E+01
  0.1350000E+01  0.6027368E+06 -0.1292452E+01  0.9326754E+05 -0.3607482E+00  0.1368966E+07  0.1849105E+01
  0.1380952E+01  0.6006725E+06 -0.1277946E+01  0.8611422E+05 -0.3863544E+00  0.1354903E+07  0.1863565E+01
  0.1411905E+01  0.5960006E+06 -0.1264862E+01  0.7961841E+05 -0.4112194E+00  0.1336058E+07  0.1876652E+01
  0.1442857E+01  0.5895221E+06 -0.1253958E+01  0.7342864E+05 -0.4376919E+00  0.1312344E+07  0.1887575E+01
  0.1473810E+01  0.5809084E+06 -0.1245417E+01  0.6757602E+05 -0.4656211E+00  0.1283147E+07  0.1895998E+01
  0.1504762E+01  0.5707548E+06 -0.1239061E+01  0.6210393E+05 -0.4948831E+00  0.1251127E+07  0.1902386E+01
  0.1535714E+01  0.5592078E+06 -0.1235110E+01  0.5694539E+05 -0.5261491E+00  0.1216442E+07  0.1906457E+01
  0.1566667E+01  0.5463641E+06 -0.1234008E+01  0.5207786E+05 -0.5599245E+00  0.1178404E+07  0.1907443E+01
  0.1597619E+01  0.5327961E+06 -0.1235479E+01  0.4757421E+05 -0.5931270E+00  0.1139116E+07  0.1905826E+01
  0.1628572E+01  0.5187282E+06 -0.1239404E+01  0.4347895E+05 -0.6244990E+00  0.1099484E+07  0.1901890E+01
  0.1659524E+01  0.5038875E+06 -0.1246076E+01  0.3964680E+05 -0.6583521E+00  0.1058588E+07  0.1895324E+01
  0.1690476E+01  0.4886761E+06 -0.1255574E+01  0.3607187E+05 -0.6942749E+00  0.1016898E+07  0.1885717E+01
  0.1721429E+01  0.4733150E+06 -0.1267656E+01  0.3277255E+05 -0.7312422E+00  0.9752655E+06  0.1873505E+01
  0.1752381E+01  0.4579788E+06 -0.1282033E+01  0.2972264E+05 -0.7696036E+00  0.9345114E+06  0.1859316E+01
  0.1783333E+01  0.4426856E+06 -0.1299004E+01  0.2690179E+05 -0.8108036E+00  0.8941168E+06  0.1842384E+01
  0.1814286E+01  0.4275758E+06 -0.1318459E+01  0.2429451E+05 -0.8547447E+00  0.8544156E+06  0.1822777E+01
  0.1845238E+01  0.4127870E+06 -0.1340044E+01  0.2188639E+05 -0.8976942E+00  0.8159566E+06  0.1801079E+01
  0.1876190E+01  0.3983659E+06 -0.1363655E+01  0.1969615E+05 -0.9382079E+00  0.7788846E+06  0.1777499E+01
  0.1907143E+01  0.3841624E+06 -0.1389461E+01  0.1768985E+05 -0.9823923E+00  0.7426990E+06  0.1751882E+01
  0.1938095E+01  0.3703372E+06 -0.1417365E+01  0.1584924E+05 -0.1028423E+01  0.7076935E+06  0.1724047E+01
  0.1969048E+01  0.3568680E+06 -0.1447413E+01  0.1417384E+05 -0.1078859E+01  0.6737665E+06  0.1693795E+01
  0.2000000E+01  0.3438504E+06 -0.1479078E+01  0.1265690E+05 -0.1131585E+01  0.6412922E+06  0.1662245E+01
