VARIABLES="w (rad/s)"
"A   1   1" "B   1   1"
"A   1   2" "B   1   2"
"A   1   3" "B   1   3"
Zone t="Motion of body    1 in DoF   1",I=    64,F=POINT
  0.5000000E-01  0.6547736E+05  0.3746565E-02  0.5264282E-02  0.1970356E-04 -0.1065947E+06 -0.5513761E-02
  0.8095238E-01  0.6595810E+05  0.1632193E-01 -0.7162655E-02 -0.1068784E-04 -0.1073448E+06 -0.2370306E-01
  0.1119048E+00  0.6601993E+05  0.4577835E-01 -0.9067616E-02 -0.8883115E-04 -0.1074063E+06 -0.6612793E-01
  0.1428571E+00  0.6608620E+05  0.1028959E+00  0.1281738E-02 -0.3084599E-04 -0.1075253E+06 -0.1485378E+00
  0.1738095E+00  0.6624837E+05  0.2047567E+00  0.8822924E-02  0.5539623E-04 -0.1075640E+06 -0.2950068E+00
  0.2047619E+00  0.6625350E+05  0.3773445E+00 -0.9165919E-02 -0.1224617E-03 -0.1076530E+06 -0.5431525E+00
  0.2357143E+00  0.6640495E+05  0.6636634E+00  0.5114006E-02 -0.1299847E-04 -0.1076604E+06 -0.9519515E+00
  0.2666667E+00  0.6649322E+05  0.1130200E+01 -0.3376007E-02 -0.3081374E-04 -0.1077576E+06 -0.1615825E+01
  0.2976190E+00  0.6655420E+05  0.1891811E+01 -0.4614258E-03 -0.1079906E-03 -0.1078873E+06 -0.2697697E+01
  0.3285715E+00  0.6666603E+05  0.3123675E+01 -0.3575864E-02 -0.1247376E-03 -0.1079089E+06 -0.4435449E+01
  0.3595238E+00  0.6692496E+05  0.5121990E+01 -0.6154041E-02 -0.1552142E-03 -0.1080613E+06 -0.7236521E+01
  0.3904762E+00  0.6703918E+05  0.8327156E+01 -0.3946816E-02 -0.1088232E-03 -0.1081709E+06 -0.1171063E+02
  0.4214286E+00  0.6719650E+05  0.1335993E+02 -0.1629328E-02 -0.2802759E-03 -0.1083171E+06 -0.1869486E+02
  0.4523810E+00  0.6740183E+05  0.2125028E+02  0.4722193E-02  0.4466325E-03 -0.1084539E+06 -0.2957162E+02
  0.4833333E+00  0.6770495E+05  0.3297680E+02 -0.1155459E-01 -0.1037359E-02 -0.1086372E+06 -0.4558734E+02
  0.5142857E+00  0.6790735E+05  0.5029781E+02 -0.8841621E-02 -0.4344285E-03 -0.1088661E+06 -0.6912959E+02
  0.5452381E+00  0.6809212E+05  0.7485917E+02  0.3246324E-02  0.6994605E-03 -0.1090737E+06 -0.1022490E+03
  0.5761905E+00  0.6847833E+05  0.1089035E+03 -0.4501973E-02 -0.2253056E-04 -0.1093495E+06 -0.1476245E+03
  0.6071429E+00  0.6882728E+05  0.1554643E+03  0.5126953E-02  0.2100468E-03 -0.1096384E+06 -0.2091684E+03
  0.6380953E+00  0.6918751E+05  0.2170162E+03 -0.6647822E-02 -0.1242876E-02 -0.1099385E+06 -0.2896886E+03
  0.6690477E+00  0.6952119E+05  0.2976014E+03 -0.1053671E-01 -0.2964497E-02 -0.1103243E+06 -0.3942357E+03
  0.7000000E+00  0.6985782E+05  0.4018878E+03 -0.3138951E-02 -0.1652718E-02 -0.1105951E+06 -0.5278760E+03
  0.7309524E+00  0.7034302E+05  0.5346908E+03 -0.7139323E-02 -0.2227306E-02 -0.1109483E+06 -0.6957628E+03
  0.7619048E+00  0.7091578E+05  0.7022297E+03 -0.1922607E-02 -0.3995895E-03 -0.1114018E+06 -0.9049208E+03
  0.7928572E+00  0.7138295E+05  0.9104222E+03 -0.3464157E-03 -0.1251221E-02 -0.1117898E+06 -0.1161884E+04
  0.8238096E+00  0.7185783E+05  0.1166830E+04  0.1289147E-01  0.6699562E-02 -0.1122731E+06 -0.1474898E+04
  0.8547620E+00  0.7232534E+05  0.1478949E+04  0.1285309E-02 -0.8964539E-04 -0.1126109E+06 -0.1849596E+04
  0.8857143E+00  0.7291379E+05  0.1856702E+04  0.3790086E-02  0.2216339E-02 -0.1130612E+06 -0.2296465E+04
  0.9166667E+00  0.7349741E+05  0.2308836E+04  0.9987570E-02  0.7711411E-02 -0.1134476E+06 -0.2822720E+04
  0.9476191E+00  0.7414062E+05  0.2846446E+04 -0.6440896E-04  0.3293991E-02 -0.1139424E+06 -0.3439644E+04
  0.9785714E+00  0.7474959E+05  0.3478951E+04 -0.5114479E-02 -0.2807617E-02 -0.1143142E+06 -0.4151976E+04
  0.1009524E+01  0.7539535E+05  0.4218375E+04  0.5622720E-02  0.3025055E-02 -0.1147312E+06 -0.4970673E+04
  0.1040476E+01  0.7593713E+05  0.5073258E+04 -0.3402326E-02 -0.5378723E-03 -0.1151321E+06 -0.5903547E+04
  0.1071429E+01  0.7642320E+05  0.6053852E+04  0.1936849E-02  0.1480103E-02 -0.1153752E+06 -0.6951039E+04
  0.1102381E+01  0.7697316E+05  0.7173975E+04 -0.2214666E-02  0.2441406E-02 -0.1156615E+06 -0.8125084E+04
  0.1133333E+01  0.7751066E+05  0.8441445E+04 -0.5816292E-02 -0.1861572E-02 -0.1158019E+06 -0.9421582E+04
  0.1164286E+01  0.7807291E+05  0.9867278E+04  0.9488532E-02  0.4631042E-02 -0.1159606E+06 -0.1085042E+05
  0.1195238E+01  0.7853768E+05  0.1145593E+05 -0.7149138E-03 -0.1052856E-02 -0.1160936E+06 -0.1241393E+05
  0.1226190E+01  0.7887801E+05  0.1320878E+05 -0.2339483E-02 -0.1327515E-02 -0.1160058E+06 -0.1409124E+05
  0.1257143E+01  0.7913552E+05  0.1513675E+05 -0.1262318E-02 -0.1480103E-02 -0.1159157E+06 -0.1589927E+05
  0.1288095E+01  0.7934001E+05  0.1722762E+05 -0.1705825E-02 -0.3143311E-02 -0.1156781E+06 -0.1779701E+05
  0.1319048E+01  0.7940088E+05  0.1948298E+05  0.5969106E-02  0.7171631E-02 -0.1153069E+06 -0.1978651E+05
  0.1350000E+01  0.7938222E+05  0.2189188E+05  0.2531829E-02  0.1983643E-02 -0.1148605E+06 -0.2184938E+05
  0.1380952E+01  0.7922473E+05  0.2444377E+05 -0.1856311E-02  0.4730225E-02 -0.1143010E+06 -0.2397279E+05
  0.1411905E+01  0.7841909E+05  0.2681504E+05  0.1227702E-01  0.1129150E-01 -0.1133321E+06 -0.2586839E+05
  0.1442857E+01  0.7804030E+05  0.2957441E+05  0.5922223E-02  0.8911133E-02 -0.1125492E+06 -0.2801195E+05
  0.1473810E+01  0.7752898E+05  0.3241902E+05  0.7454374E-03  0.6622314E-02 -0.1116562E+06 -0.3013304E+05
  0.1504762E+01  0.7685648E+05  0.3531777E+05 -0.5272974E-02 -0.4638672E-02 -0.1106008E+06 -0.3218797E+05
  0.1535714E+01  0.7608223E+05  0.3824764E+05 -0.1589753E-03 -0.3662109E-03 -0.1094774E+06 -0.3416219E+05
  0.1566667E+01  0.7520305E+05  0.4118203E+05  0.4051695E-02  0.2746582E-02 -0.1083255E+06 -0.3604628E+05
  0.1597619E+01  0.7417061E+05  0.4408371E+05 -0.5577758E-02 -0.4272461E-03 -0.1070756E+06 -0.3780062E+05
  0.1628572E+01  0.7298863E+05  0.4691000E+05 -0.3148129E-02 -0.2014160E-02 -0.1056591E+06 -0.3934966E+05
  0.1659524E+01  0.7175317E+05  0.4966855E+05  0.3015855E-02  0.1434326E-01 -0.1043043E+06 -0.4077465E+05
  0.1690476E+01  0.7046138E+05  0.5232621E+05  0.1444212E-02 -0.7934570E-03 -0.1029732E+06 -0.4202486E+05
  0.1721429E+01  0.6903668E+05  0.5481914E+05 -0.2481928E-02 -0.7446289E-02 -0.1014952E+06 -0.4300176E+05
  0.1752381E+01  0.6759248E+05  0.5716605E+05  0.1184215E-02  0.6958008E-02 -0.1000923E+06 -0.4380397E+05
  0.1783333E+01  0.6612641E+05  0.5933641E+05  0.7529571E-03  0.4394531E-02 -0.9872127E+05 -0.4437993E+05
  0.1814286E+01  0.6463632E+05  0.6133861E+05 -0.5382628E-03 -0.4638672E-02 -0.9743579E+05 -0.4479255E+05
  0.1845238E+01  0.6311341E+05  0.6314501E+05  0.1058468E-02  0.3051758E-03 -0.9618212E+05 -0.4500095E+05
  0.1876190E+01  0.6154838E+05  0.6472069E+05 -0.1366320E-02  0.4028320E-02 -0.9487966E+05 -0.4490889E+05
  0.1907143E+01  0.6003111E+05  0.6612306E+05 -0.6400691E-04  0.4028320E-02 -0.9371514E+05 -0.4470539E+05
  0.1938095E+01  0.5856854E+05  0.6735320E+05 -0.1259694E-03 -0.9155273E-03 -0.9267862E+05 -0.4437401E+05
  0.1969048E+01  0.5712117E+05  0.6836001E+05  0.1487870E-02 -0.2685547E-02 -0.9164807E+05 -0.4381003E+05
  0.2000000E+01  0.5570869E+05  0.6916898E+05 -0.2624512E-02 -0.4150391E-02 -0.9067098E+05 -0.4307427E+05
Zone t="Motion of body    1 in DoF   2",I=    64,F=POINT
  0.5000000E-01  0.1396179E-01 -0.3099442E-04  0.3924005E+05  0.1107224E+03 -0.1510620E-01  0.1621246E-04
  0.8095238E-01  0.7162655E-02  0.8106232E-05  0.3878385E+05  0.1836772E+03  0.2615312E-01  0.1149178E-03
  0.1119048E+00 -0.1568084E-02  0.1907349E-05  0.3853064E+05  0.2632219E+03 -0.9272149E-02 -0.4529953E-04
  0.1428571E+00 -0.3311157E-02 -0.1230240E-03  0.3842750E+05  0.3524283E+03  0.1276398E-01 -0.1873970E-03
  0.1738095E+00 -0.4126144E-02 -0.1087189E-03  0.3840372E+05  0.4551917E+03 -0.1110547E-01  0.3910065E-04
  0.2047619E+00  0.3725983E-02 -0.7247925E-04  0.3847861E+05  0.5763992E+03 -0.3353385E-02 -0.3623962E-04
  0.2357143E+00 -0.3754587E-02 -0.5722046E-05  0.3862694E+05  0.7229077E+03  0.4596132E-02 -0.4386902E-04
  0.2666667E+00  0.3890991E-02 -0.1525879E-03  0.3879460E+05  0.9006522E+03  0.1905441E-01  0.1716614E-03
  0.2976190E+00  0.5639649E-02  0.1754761E-03  0.3902962E+05  0.1122569E+04 -0.2973633E-02 -0.7629395E-04
  0.3285715E+00 -0.5758534E-02 -0.4158020E-03  0.3930652E+05  0.1395968E+04 -0.2888555E-01 -0.2803802E-03
  0.3595238E+00  0.7384849E-02  0.2250671E-03  0.3954747E+05  0.1736684E+04  0.2495570E-01 -0.7972717E-03
  0.3904762E+00  0.0000000E+00 -0.4692078E-03  0.3980034E+05  0.2157042E+04 -0.7815477E-03  0.4997253E-03
  0.4214286E+00  0.3403486E-02 -0.8392334E-04  0.3997198E+05  0.2653865E+04 -0.6589727E-02 -0.5035400E-03
  0.4523810E+00 -0.9039627E-02  0.2517700E-03  0.4007141E+05  0.3253227E+04 -0.9714226E-02  0.7667542E-03
  0.4833333E+00 -0.1262796E-03 -0.4425049E-03  0.4002672E+05  0.3909103E+04  0.5745723E-02 -0.1014709E-02
  0.5142857E+00 -0.6171333E-02 -0.2593994E-03  0.3989132E+05  0.4651229E+04  0.3975763E-02 -0.2059937E-03
  0.5452381E+00  0.1343307E-02 -0.1312256E-02  0.3968014E+05  0.5442239E+04 -0.1203379E-01 -0.1174927E-02
  0.5761905E+00 -0.8474302E-02  0.4730225E-03  0.3935248E+05  0.6269906E+04  0.2404583E-01 -0.2052307E-02
  0.6071429E+00  0.6031709E-02  0.1953125E-02  0.3891025E+05  0.7151804E+04 -0.5981445E-02 -0.1525879E-04
  0.6380953E+00  0.6791300E-02  0.1510620E-02  0.3845770E+05  0.8042579E+04 -0.1033043E-01  0.2899170E-03
  0.6690477E+00 -0.3466623E-02 -0.6408691E-03  0.3795232E+05  0.8958833E+04 -0.1674014E-01  0.4577637E-04
  0.7000000E+00  0.4446847E-02 -0.0000000E+00  0.3736327E+05  0.9905320E+04  0.4446847E-02  0.8087158E-03
  0.7309524E+00  0.2755528E-02 -0.8850098E-03  0.3674104E+05  0.1085690E+05  0.8433587E-02 -0.3845215E-02
  0.7619048E+00  0.9613036E-03  0.1831055E-03  0.3607454E+05  0.1181603E+05  0.6809234E-02  0.1388550E-02
  0.7928572E+00  0.5388689E-03  0.1770020E-02  0.3536517E+05  0.1278022E+05 -0.1070040E-01  0.3051758E-02
  0.8238096E+00 -0.1259512E-02  0.2136230E-02  0.3464469E+05  0.1373983E+05 -0.6297558E-02 -0.1953125E-02
  0.8547620E+00  0.1071090E-02  0.1007080E-02  0.3390268E+05  0.1469039E+05  0.1628057E-01 -0.2471924E-02
  0.8857143E+00 -0.1516034E-02  0.1831055E-03  0.3313598E+05  0.1562609E+05 -0.1233501E-01  0.3479004E-02
  0.9166667E+00 -0.2064098E-02 -0.1342773E-02  0.3233931E+05  0.1654399E+05 -0.1904297E-01  0.7446289E-02
  0.9476191E+00 -0.6762940E-02  0.1220703E-03  0.3152670E+05  0.1743623E+05 -0.8437573E-02  0.6103516E-03
  0.9785714E+00 -0.1933523E-02  0.1831055E-03  0.3070437E+05  0.1829895E+05 -0.1471972E-01 -0.2685547E-02
  0.1009524E+01  0.6408692E-02 -0.2441406E-03  0.2989058E+05  0.1912429E+05 -0.6952826E-02 -0.2838135E-02
  0.1040476E+01  0.5044828E-02 -0.2624512E-02  0.2908210E+05  0.1991264E+05 -0.8564475E-02 -0.0000000E+00
  0.1071429E+01  0.6835938E-02  0.2868652E-02  0.2827326E+05  0.2066361E+05  0.3133138E-02  0.2502441E-02
  0.1102381E+01 -0.3488100E-02  0.6103516E-04  0.2747729E+05  0.2137095E+05 -0.4373966E-02  0.8728027E-02
  0.1133333E+01 -0.3177418E-02 -0.3662109E-03  0.2668303E+05  0.2203700E+05  0.2962000E-02  0.4943848E-02
  0.1164286E+01 -0.8911881E-03  0.2929688E-02  0.2590306E+05  0.2265464E+05 -0.7863425E-03  0.1953125E-02
  0.1195238E+01  0.7455529E-02  0.9704590E-02  0.2513926E+05  0.2322674E+05 -0.3319243E-02  0.3601074E-02
  0.1226190E+01 -0.3235456E-02  0.1831055E-02  0.2438548E+05  0.2375239E+05  0.1334003E-01  0.1214600E-01
  0.1257143E+01  0.3204346E-02 -0.1708984E-02  0.2366852E+05  0.2423832E+05  0.2864491E-02 -0.4577637E-02
  0.1288095E+01 -0.4406716E-02 -0.8850098E-02  0.2296734E+05  0.2464579E+05  0.1288846E-01  0.5310059E-02
  0.1319048E+01  0.2683784E-02 -0.6591797E-02  0.2229740E+05  0.2501839E+05  0.4210765E-02  0.5187988E-02
  0.1350000E+01  0.4159433E-02  0.1770020E-02  0.2165357E+05  0.2534034E+05 -0.6193938E-02 -0.1403809E-02
  0.1380952E+01  0.1104947E-02  0.1586914E-02  0.2103993E+05  0.2561878E+05  0.6231900E-02 -0.2319336E-02
  0.1411905E+01  0.3112484E-02 -0.6958008E-02  0.2036600E+05  0.2584763E+05 -0.8127042E-02  0.2563477E-02
  0.1442857E+01  0.9306350E-03 -0.1220703E-03  0.1979866E+05  0.2604682E+05 -0.1167524E-01  0.8911133E-02
  0.1473810E+01  0.1905007E-02 -0.5493164E-02  0.1925322E+05  0.2620367E+05  0.4099906E-02 -0.4760742E-02
  0.1504762E+01 -0.2514803E-02 -0.1220703E-02  0.1873238E+05  0.2632122E+05  0.1338524E-01  0.7446289E-02
  0.1535714E+01 -0.2782068E-02 -0.6103516E-03  0.1824088E+05  0.2639437E+05  0.3616688E-02  0.8850098E-02
  0.1566667E+01 -0.1675220E-02 -0.1220703E-03  0.1777919E+05  0.2642490E+05 -0.2571268E-02 -0.4882812E-03
  0.1597619E+01  0.1833784E-02  0.2563477E-02  0.1734456E+05  0.2642865E+05  0.4565357E-02  0.1342773E-02
  0.1628572E+01 -0.3148129E-02 -0.0000000E+00  0.1692359E+05  0.2640302E+05  0.1274243E-02  0.9765625E-03
  0.1659524E+01  0.5627144E-02 -0.0000000E+00  0.1653729E+05  0.2634623E+05 -0.5627144E-02 -0.9155273E-03
  0.1690476E+01 -0.3502214E-02 -0.1220703E-03  0.1617593E+05  0.2625186E+05 -0.2870372E-02  0.2197266E-02
  0.1721429E+01 -0.1772805E-03  0.1220703E-02  0.1582841E+05  0.2613853E+05  0.8651290E-02 -0.3234863E-02
  0.1752381E+01  0.4040262E-02  0.3662109E-02  0.1551011E+05  0.2599649E+05 -0.6112638E-02  0.3112793E-02
  0.1783333E+01  0.9240837E-03 -0.2319336E-02  0.1521334E+05  0.2582305E+05  0.2412885E-02 -0.1708984E-02
  0.1814286E+01  0.1984844E-02  0.5615234E-02  0.1494115E+05  0.2563241E+05  0.5954532E-02  0.6103516E-03
  0.1845238E+01  0.1190776E-02  0.5981445E-02  0.1468846E+05  0.2543207E+05 -0.6400422E-02 -0.4272461E-03
  0.1876190E+01  0.6506286E-03 -0.4882812E-03  0.1444363E+05  0.2521304E+05  0.1049139E-01  0.5065918E-02
  0.1907143E+01  0.1792193E-02 -0.6469727E-02  0.1422551E+05  0.2498037E+05 -0.6816736E-02 -0.5371094E-02
  0.1938095E+01  0.9132779E-03 -0.4882812E-03  0.1402973E+05  0.2472667E+05  0.8975317E-03  0.4211426E-02
  0.1969048E+01  0.2076819E-02 -0.9033203E-02  0.1384447E+05  0.2445948E+05  0.1487870E-02  0.1159668E-02
  0.2000000E+01  0.3356934E-03  0.1464844E-02  0.1367330E+05  0.2417731E+05  0.2899170E-03 -0.1220703E-02
Zone t="Motion of body    1 in DoF   3",I=    64,F=POINT
  0.5000000E-01 -0.1063958E+06 -0.5464027E-02 -0.5702972E-02 -0.3542372E-04  0.3409492E+06  0.8295868E-02
  0.8095238E-01 -0.1072128E+06 -0.2357621E-01  0.6055271E-02 -0.1996961E-04  0.3416661E+06  0.3450245E-01
  0.1119048E+00 -0.1072722E+06 -0.6580470E-01  0.4704252E-02  0.2663082E-04  0.3417427E+06  0.9495008E-01
  0.1428571E+00 -0.1074022E+06 -0.1477707E+00  0.5100250E-02  0.7560721E-04  0.3417884E+06  0.2131826E+00
  0.1738095E+00 -0.1074445E+06 -0.2937284E+00  0.7264647E-02  0.9237789E-04  0.3418435E+06  0.4224758E+00
  0.2047619E+00 -0.1075336E+06 -0.5403562E+00  0.9240438E-02  0.2280031E-03  0.3419002E+06  0.7774903E+00
  0.2357143E+00 -0.1075313E+06 -0.9476756E+00  0.2040747E-01  0.2412312E-03  0.3419982E+06  0.1359452E+01
  0.2666667E+00 -0.1076336E+06 -0.1608061E+01  0.1723766E-01  0.5612625E-03  0.3420331E+06  0.2299120E+01
  0.2976190E+00 -0.1077659E+06 -0.2683304E+01  0.1393250E-01  0.4577134E-03  0.3420876E+06  0.3826948E+01
  0.3285715E+00 -0.1077690E+06 -0.4413066E+01 -0.1973691E-02  0.5234033E-04  0.3422197E+06  0.6266769E+01
  0.3595238E+00 -0.1079328E+06 -0.7203813E+01  0.1754963E-01  0.8174330E-03  0.3423272E+06  0.1017630E+02
  0.3904762E+00 -0.1080392E+06 -0.1165398E+02  0.1934331E-01  0.1002990E-02  0.3424227E+06  0.1638827E+02
  0.4214286E+00 -0.1081763E+06 -0.1860172E+02 -0.6100929E-02 -0.8319616E-03  0.3425758E+06  0.2602757E+02
  0.4523810E+00 -0.1083091E+06 -0.2943085E+02 -0.1286798E-01 -0.9984672E-03  0.3427401E+06  0.4096188E+02
  0.4833333E+00 -0.1085020E+06 -0.4539589E+02 -0.5840433E-03  0.1321137E-03  0.3428731E+06  0.6275387E+02
  0.5142857E+00 -0.1087291E+06 -0.6880994E+02  0.5488926E-03 -0.2873540E-03  0.3430625E+06  0.9456976E+02
  0.5452381E+00 -0.1089183E+06 -0.1017299E+03  0.9263218E-02  0.1758099E-02  0.3433495E+06  0.1389565E+03
  0.5761905E+00 -0.1092031E+06 -0.1469464E+03  0.3209642E-01  0.5168915E-02  0.3435916E+06  0.1991918E+03
  0.6071429E+00 -0.1094956E+06 -0.2082258E+03  0.4486084E-02  0.1649141E-02  0.3438591E+06  0.2802011E+03
  0.6380953E+00 -0.1097944E+06 -0.2883855E+03  0.2469020E-01  0.4623652E-02  0.3441562E+06  0.3849513E+03
  0.6690477E+00 -0.1101730E+06 -0.3921660E+03  0.7526221E-03 -0.1282692E-02  0.3444923E+06  0.5195146E+03
  0.7000000E+00 -0.1104300E+06 -0.5250732E+03  0.6277902E-02  0.1574993E-02  0.3448141E+06  0.6897311E+03
  0.7309524E+00 -0.1107869E+06 -0.6923376E+03 -0.6137313E-02 -0.3026962E-02  0.3451373E+06  0.9008552E+03
  0.7619048E+00 -0.1112522E+06 -0.9006901E+03  0.1712322E-01  0.7491112E-02  0.3454639E+06  0.1160572E+04
  0.7928572E+00 -0.1116370E+06 -0.1156220E+04 -0.9699640E-02 -0.2732277E-02  0.3458006E+06  0.1475483E+04
  0.8238096E+00 -0.1121078E+06 -0.1466442E+04 -0.6149380E-02 -0.2593040E-02  0.3462259E+06  0.1853656E+04
  0.8547620E+00 -0.1124321E+06 -0.1839013E+04  0.3909480E-02  0.1268387E-02  0.3465712E+06  0.2300018E+04
  0.8857143E+00 -0.1128804E+06 -0.2283327E+04  0.5512853E-02 -0.1012802E-02  0.3469034E+06  0.2824064E+04
  0.9166667E+00 -0.1132692E+06 -0.2807170E+04 -0.2996271E-03  0.1525879E-03  0.3471722E+06  0.3431472E+04
  0.9476191E+00 -0.1137634E+06 -0.3419873E+04 -0.1117495E-01 -0.6820679E-02  0.3475273E+06  0.4131591E+04
  0.9785714E+00 -0.1141366E+06 -0.4128884E+04  0.3082721E-01  0.1707840E-01  0.3477743E+06  0.4926481E+04
  0.1009524E+01 -0.1145532E+06 -0.4942347E+04 -0.1511484E-02  0.3227234E-02  0.3479472E+06  0.5822849E+04
  0.1040476E+01 -0.1149372E+06 -0.5864481E+04  0.5074158E-02  0.5744934E-02  0.3481643E+06  0.6824404E+04
  0.1071429E+01 -0.1151687E+06 -0.6903426E+04 -0.1164958E-01 -0.6996155E-02  0.3482538E+06  0.7927167E+04
  0.1102381E+01 -0.1154446E+06 -0.8067292E+04  0.4097133E-02 -0.2212524E-02  0.3483443E+06  0.9136047E+04
  0.1133333E+01 -0.1155905E+06 -0.9359600E+04 -0.5385455E-03 -0.2662659E-02  0.3482924E+06  0.1044271E+05
  0.1164286E+01 -0.1157550E+06 -0.1077985E+05  0.1171650E-01  0.7194519E-02  0.3480753E+06  0.1184635E+05
  0.1195238E+01 -0.1158812E+06 -0.1232676E+05  0.5157592E-02  0.2532959E-02  0.3479395E+06  0.1334721E+05
  0.1226190E+01 -0.1157975E+06 -0.1399190E+05  0.2936798E-02  0.9124756E-02  0.3475270E+06  0.1491441E+05
  0.1257143E+01 -0.1156919E+06 -0.1577126E+05  0.8132241E-02  0.3448486E-02  0.3471564E+06  0.1655411E+05
  0.1288095E+01 -0.1154591E+06 -0.1765518E+05  0.1227247E-01  0.4425049E-03  0.3466217E+06  0.1823141E+05
  0.1319048E+01 -0.1150860E+06 -0.1962417E+05  0.7750583E-02  0.4714966E-02  0.3459943E+06  0.1993041E+05
  0.1350000E+01 -0.1146318E+06 -0.2165961E+05 -0.1198097E-02 -0.7965088E-02  0.3452069E+06  0.2161820E+05
  0.1380952E+01 -0.1140661E+06 -0.2375336E+05 -0.1436431E-02 -0.1498413E-01  0.3444438E+06  0.2329536E+05
  0.1411905E+01 -0.1136389E+06 -0.2593754E+05  0.8429645E-03 -0.5401611E-02  0.3435341E+06  0.2500997E+05
  0.1442857E+01 -0.1128556E+06 -0.2808035E+05 -0.1311349E-02 -0.8178711E-02  0.3425455E+06  0.2657384E+05
  0.1473810E+01 -0.1119603E+06 -0.3019197E+05 -0.3996373E-02 -0.9887695E-02  0.3414099E+06  0.2802681E+05
  0.1504762E+01 -0.1109140E+06 -0.3225353E+05  0.5475780E-02  0.3051758E-02  0.3402142E+06  0.2935418E+05
  0.1535714E+01 -0.1097961E+06 -0.3422996E+05  0.2245526E-02  0.1080322E-01  0.3389445E+06  0.3052512E+05
  0.1566667E+01 -0.1086413E+06 -0.3610172E+05  0.1811575E-02  0.6500244E-02  0.3376649E+06  0.3152259E+05
  0.1597619E+01 -0.1073946E+06 -0.3785384E+05  0.7526153E-02  0.1318359E-01  0.3364636E+06  0.3237092E+05
  0.1628572E+01 -0.1059941E+06 -0.3942848E+05  0.5415531E-02  0.1000977E-01  0.3350908E+06  0.3295259E+05
  0.1659524E+01 -0.1046436E+06 -0.4085910E+05  0.2133165E-02  0.1708984E-01  0.3339032E+06  0.3340527E+05
  0.1690476E+01 -0.1033054E+06 -0.4208619E+05  0.7726534E-02  0.1611328E-01  0.3327044E+06  0.3362239E+05
  0.1721429E+01 -0.1018392E+06 -0.4310043E+05  0.2818761E-02  0.1184082E-01  0.3314889E+06  0.3360902E+05
  0.1752381E+01 -0.1004384E+06 -0.4392220E+05  0.3944480E-02 -0.1647949E-02  0.3304043E+06  0.3343520E+05
  0.1783333E+01 -0.9906562E+05 -0.4449292E+05  0.6323128E-02  0.1892090E-02  0.3292787E+06  0.3299713E+05
  0.1814286E+01 -0.9777695E+05 -0.4487799E+05  0.1108485E-01  0.1611328E-01  0.3283121E+06  0.3242643E+05
  0.1845238E+01 -0.9652670E+05 -0.4507050E+05 -0.6615424E-02  0.5493164E-03  0.3274889E+06  0.3176765E+05
  0.1876190E+01 -0.9524041E+05 -0.4500968E+05  0.2199938E-02 -0.5493164E-03  0.3265820E+06  0.3080826E+05
  0.1907143E+01 -0.9408574E+05 -0.4482037E+05  0.3804411E-02  0.1953125E-02  0.3259042E+06  0.2985922E+05
  0.1938095E+01 -0.9305401E+05 -0.4446550E+05 -0.2574745E-02  0.4760742E-02  0.3253231E+06  0.2877064E+05
  0.1969048E+01 -0.9203260E+05 -0.4392055E+05  0.4431645E-02 -0.2441406E-03  0.3247722E+06  0.2756013E+05
  0.2000000E+01 -0.9106430E+05 -0.4323395E+05 -0.5830765E-02  0.2624512E-02  0.3243114E+06  0.2628541E+05
