VARIABLES="w (rad/s)"
"A   1   1" "B   1   1"
"A   1   2" "B   1   2"
"A   1   3" "B   1   3"
Zone t="Motion of body    1 in DoF   1",I=    64,F=POINT
  0.5000000E-01  0.8206552E+05  0.6556091E-02 -0.3089905E-02 -0.1941050E-04 -0.8965841E+05 -0.5264406E-02
  0.8095238E-01  0.8237552E+05  0.2871897E-01 -0.2120523E-03 -0.1501691E-04 -0.8961226E+05 -0.2292538E-01
  0.1119048E+00  0.8272459E+05  0.8079869E-01 -0.1056752E-02 -0.3015599E-04 -0.8990134E+05 -0.6444615E-01
  0.1428571E+00  0.8301427E+05  0.1822311E+00  0.6755828E-02  0.5533826E-04 -0.9023968E+05 -0.1456495E+00
  0.1738095E+00  0.8314248E+05  0.3635136E+00 -0.4279776E-02 -0.1007575E-03 -0.9026719E+05 -0.2908126E+00
  0.2047619E+00  0.8322262E+05  0.6712757E+00 -0.3465164E-02  0.2400996E-04 -0.9044898E+05 -0.5381514E+00
  0.2357143E+00  0.8367845E+05  0.1186063E+01 -0.8415453E-03 -0.4106015E-04 -0.9079170E+05 -0.9517258E+00
  0.2666667E+00  0.8373139E+05  0.2026916E+01  0.4119873E-02  0.9473041E-04 -0.9086130E+05 -0.1628919E+01
  0.2976190E+00  0.8398016E+05  0.3408247E+01  0.9279786E-02  0.4130509E-03 -0.9112909E+05 -0.2744442E+01
  0.3285715E+00  0.8441850E+05  0.5661026E+01  0.8405602E-02  0.3659539E-03 -0.9149619E+05 -0.4567270E+01
  0.3595238E+00  0.8483363E+05  0.9330594E+01 -0.3140683E-02 -0.2689585E-03 -0.9184267E+05 -0.7542504E+01
  0.3904762E+00  0.8496819E+05  0.1524728E+02  0.9671653E-02  0.2429187E-03 -0.9202094E+05 -0.1235593E+02
  0.4214286E+00  0.8571402E+05  0.2467483E+02 -0.6046618E-02 -0.4842728E-03 -0.9262727E+05 -0.2004132E+02
  0.4523810E+00  0.8621039E+05  0.3953214E+02 -0.1416658E-02 -0.4273355E-03 -0.9308079E+05 -0.3219331E+02
  0.4833333E+00  0.8661673E+05  0.6175897E+02  0.2020474E-02  0.3242493E-03 -0.9336023E+05 -0.5040641E+02
  0.5142857E+00  0.8715191E+05  0.9496301E+02 -0.7120768E-03  0.5340576E-04 -0.9396795E+05 -0.7778717E+02
  0.5452381E+00  0.8796909E+05  0.1427902E+03 -0.1651148E-02  0.3530979E-03 -0.9470498E+05 -0.1173301E+03
  0.5761905E+00  0.8884906E+05  0.2097520E+03  0.8209480E-03 -0.1251698E-04 -0.9544904E+05 -0.1728545E+03
  0.6071429E+00  0.8947091E+05  0.3020954E+03  0.2965590E-02  0.9248257E-03 -0.9603576E+05 -0.2497963E+03
  0.6380953E+00  0.9012951E+05  0.4255606E+03  0.8489124E-02  0.1542330E-02 -0.9661320E+05 -0.3530063E+03
  0.6690477E+00  0.9126988E+05  0.5906777E+03 -0.2371900E-02 -0.2436638E-03 -0.9767902E+05 -0.4917646E+03
  0.7000000E+00  0.9236162E+05  0.8075681E+03 -0.1460484E-02  0.2665520E-03 -0.9864622E+05 -0.6746700E+03
  0.7309524E+00  0.9341091E+05  0.1086966E+04 -0.3298284E-02 -0.1317978E-02 -0.9958816E+05 -0.9113867E+03
  0.7619048E+00  0.9458915E+05  0.1444666E+04 -0.5046844E-02 -0.6103516E-04 -0.1006213E+06 -0.1215505E+04
  0.7928572E+00  0.9570259E+05  0.1896214E+04 -0.7197749E-02 -0.1868248E-02 -0.1017335E+06 -0.1602235E+04
  0.8238096E+00  0.9689452E+05  0.2461516E+04  0.5927113E-03 -0.1474380E-02 -0.1028499E+06 -0.2088048E+04
  0.8547620E+00  0.9846162E+05  0.3166976E+04  0.3070459E-02 -0.1674652E-02 -0.1041420E+06 -0.2694264E+04
  0.8857143E+00  0.1001728E+06  0.4038261E+04  0.2411873E-02  0.9536743E-05 -0.1057696E+06 -0.3450279E+04
  0.9166667E+00  0.1017001E+06  0.5097430E+04  0.8655895E-03 -0.2010345E-02 -0.1071878E+06 -0.4372495E+04
  0.9476191E+00  0.1031732E+06  0.6376454E+04 -0.2962812E-02 -0.3509521E-02 -0.1085877E+06 -0.5492675E+04
  0.9785714E+00  0.1046682E+06  0.7909827E+04 -0.5363965E-02 -0.5332947E-02 -0.1099768E+06 -0.6840335E+04
  0.1009524E+01  0.1063158E+06  0.9737631E+04  0.2025388E-02  0.1785278E-02 -0.1114384E+06 -0.8449344E+04
  0.1040476E+01  0.1080326E+06  0.1189959E+05  0.3138352E-02  0.3105164E-02 -0.1131740E+06 -0.1037073E+05
  0.1071429E+01  0.1098171E+06  0.1443792E+05 -0.5041504E-02 -0.3799438E-02 -0.1147810E+06 -0.1262286E+05
  0.1102381E+01  0.1115091E+06  0.1739536E+05  0.3405050E-02  0.8346558E-02 -0.1164752E+06 -0.1527734E+05
  0.1133333E+01  0.1130720E+06  0.2080583E+05 -0.3015855E-02 -0.5599976E-02 -0.1178798E+06 -0.1833357E+05
  0.1164286E+01  0.1145500E+06  0.2471155E+05 -0.3092947E-02 -0.2166748E-02 -0.1192167E+06 -0.2184613E+05
  0.1195238E+01  0.1158231E+06  0.2914026E+05  0.4595874E-03  0.1510620E-02 -0.1206421E+06 -0.2588378E+05
  0.1226190E+01  0.1167244E+06  0.3408397E+05  0.2090602E-02  0.1937866E-02 -0.1215953E+06 -0.3039244E+05
  0.1257143E+01  0.1171967E+06  0.3954295E+05  0.1310869E-02  0.2273560E-02 -0.1221834E+06 -0.3540142E+05
  0.1288095E+01  0.1176328E+06  0.4556695E+05 -0.2795658E-02  0.9674072E-02 -0.1227541E+06 -0.4095457E+05
  0.1319048E+01  0.1177084E+06  0.5208336E+05  0.2591240E-02  0.2441406E-02 -0.1227287E+06 -0.4689420E+05
  0.1350000E+01  0.1175693E+06  0.5912543E+05 -0.4295066E-02 -0.6286621E-02 -0.1226895E+06 -0.5338391E+05
  0.1380952E+01  0.1169318E+06  0.6660204E+05 -0.1856311E-02  0.8270264E-02 -0.1223448E+06 -0.6037526E+05
  0.1411905E+01  0.1154678E+06  0.7432614E+05 -0.1729158E-03 -0.8453369E-02 -0.1211803E+06 -0.6761719E+05
  0.1442857E+01  0.1136779E+06  0.8229897E+05  0.4653175E-03  0.1251221E-01 -0.1196075E+06 -0.7509834E+05
  0.1473810E+01  0.1114153E+06  0.9038866E+05  0.9525034E-03  0.6561279E-02 -0.1176876E+06 -0.8278056E+05
  0.1504762E+01  0.1086881E+06  0.9844615E+05  0.1419647E-03 -0.1586914E-02 -0.1151787E+06 -0.9037152E+05
  0.1535714E+01  0.1056552E+06  0.1063799E+06  0.1530137E-02  0.7751465E-02 -0.1122606E+06 -0.9776094E+05
  0.1566667E+01  0.1023230E+06  0.1141566E+06  0.8765687E-03 -0.6103516E-03 -0.1093056E+06 -0.1052128E+06
  0.1597619E+01  0.9850631E+05  0.1215056E+06 -0.4183318E-02 -0.2075195E-02 -0.1058578E+06 -0.1123107E+06
  0.1628572E+01  0.9436086E+05  0.1283270E+06  0.2098753E-02  0.3356934E-02 -0.1020081E+06 -0.1188879E+06
  0.1659524E+01  0.8997473E+05  0.1345577E+06 -0.1305644E-02  0.1220703E-03 -0.9789108E+05 -0.1249193E+06
  0.1690476E+01  0.8549061E+05  0.1402150E+06  0.1660844E-02  0.4333496E-02 -0.9375530E+05 -0.1305225E+06
  0.1721429E+01  0.8099409E+05  0.1452235E+06 -0.5318417E-03  0.2746582E-02 -0.8954271E+05 -0.1354542E+06
  0.1752381E+01  0.7648245E+05  0.1495244E+06 -0.9142835E-03  0.7446289E-02 -0.8515338E+05 -0.1394920E+06
  0.1783333E+01  0.7205120E+05  0.1531975E+06 -0.3123061E-02  0.1196289E-01 -0.8087935E+05 -0.1430383E+06
  0.1814286E+01  0.6777426E+05  0.1563611E+06 -0.2926804E-02 -0.1770020E-02 -0.7690288E+05 -0.1463443E+06
  0.1845238E+01  0.6352288E+05  0.1587549E+06  0.1323085E-02 -0.3234863E-02 -0.7287825E+05 -0.1488249E+06
  0.1876190E+01  0.5946064E+05  0.1605610E+06 -0.3903772E-03 -0.8056641E-02 -0.6898550E+05 -0.1506570E+06
  0.1907143E+01  0.5553880E+05  0.1617354E+06 -0.9321006E-03 -0.4821777E-02 -0.6515839E+05 -0.1518220E+06
  0.1938095E+01  0.5181221E+05  0.1624730E+06  0.1692713E-03  0.1281738E-02 -0.6156960E+05 -0.1527539E+06
  0.1969048E+01  0.4828186E+05  0.1627663E+06 -0.1683541E-02 -0.1464844E-02 -0.5815764E+05 -0.1532902E+06
  0.2000000E+01  0.4497200E+05  0.1626120E+06  0.2833366E-02 -0.3875732E-02 -0.5489060E+05 -0.1530844E+06
Zone t="Motion of body    1 in DoF   2",I=    64,F=POINT
  0.5000000E-01 -0.2288818E-03 -0.3576279E-05  0.1022188E+06  0.1921222E+03  0.6103516E-02  0.5722046E-05
  0.8095238E-01 -0.6125955E-03  0.6675720E-05  0.1013738E+06  0.3183296E+03  0.4712273E-02 -0.9536743E-06
  0.1119048E+00  0.1124930E-02  0.2527237E-04  0.1008803E+06  0.4553720E+03  0.1145383E-01  0.3814697E-05
  0.1428571E+00  0.4486084E-02 -0.1430511E-04  0.1005905E+06  0.6083475E+03 -0.1068115E-01  0.8201599E-04
  0.1738095E+00  0.3116555E-02 -0.8583069E-05  0.1004986E+06  0.7833901E+03 -0.2809289E-02 -0.3433228E-04
  0.2047619E+00 -0.9314959E-03 -0.2479553E-04  0.1006410E+06  0.9885914E+03 -0.2682708E-02  0.1640320E-03
  0.2357143E+00  0.2233332E-02  0.1144409E-04  0.1005906E+06  0.1234961E+04  0.2330433E-02 -0.2288818E-03
  0.2666667E+00 -0.9155273E-03 -0.0000000E+00  0.1009011E+06  0.1531127E+04  0.3662109E-02  0.2555847E-03
  0.2976190E+00  0.4716797E-02 -0.1430511E-03  0.1009950E+06  0.1898587E+04 -0.6357422E-02 -0.2212524E-03
  0.3285715E+00  0.7337486E-02 -0.1144409E-04  0.1014123E+06  0.2346503E+04 -0.1653256E-01 -0.2670288E-03
  0.3595238E+00  0.3437775E-02  0.1411438E-03  0.1014655E+06  0.2900377E+04 -0.1052553E-01 -0.2288818E-03
  0.3904762E+00 -0.1328631E-02  0.6866455E-04  0.1018650E+06  0.3575625E+04  0.5627143E-02 -0.6866455E-03
  0.4214286E+00 -0.5105228E-02 -0.1068115E-03  0.1016886E+06  0.4364918E+04  0.2317267E-02 -0.2136230E-03
  0.4523810E+00  0.3980134E-02 -0.7629395E-05  0.1016793E+06  0.5307044E+04 -0.5396792E-02  0.3051758E-03
  0.4833333E+00  0.1136517E-02  0.1678467E-03  0.1013228E+06  0.6315947E+04 -0.1464844E-01  0.4577637E-03
  0.5142857E+00 -0.3085666E-02  0.4119873E-03  0.1007575E+06  0.7444549E+04  0.5221897E-02 -0.1403809E-02
  0.5452381E+00  0.2406758E-02 -0.7629395E-03  0.1002883E+06  0.8619079E+04 -0.2462729E-02  0.2105713E-02
  0.5761905E+00 -0.5296438E-02 -0.1098633E-02  0.9926038E+05  0.9823521E+04  0.1101659E-01 -0.4272461E-03
  0.6071429E+00  0.9047563E-03 -0.1190186E-02  0.9833183E+05  0.1108200E+05 -0.6835937E-02  0.1495361E-02
  0.6380953E+00  0.2869563E-03  0.1205444E-02  0.9739620E+05  0.1230320E+05 -0.1913042E-03 -0.1953125E-02
  0.6690477E+00 -0.1642085E-02  0.1098633E-02  0.9613239E+05  0.1353712E+05 -0.6203431E-02 -0.2441406E-02
  0.7000000E+00 -0.6103515E-03  0.6408691E-03  0.9495749E+05  0.1477046E+05 -0.7498604E-02  0.3906250E-02
  0.7309524E+00  0.6805320E-02 -0.1861572E-02  0.9386075E+05  0.1595082E+05 -0.2154322E-01 -0.6103516E-04
  0.7619048E+00  0.6048202E-02  0.2441406E-03  0.9240128E+05  0.1711288E+05  0.2243042E-02  0.2441406E-03
  0.7928572E+00  0.2886798E-02  0.1159668E-02  0.9105020E+05  0.1823065E+05 -0.2771326E-02 -0.2502441E-02
  0.8238096E+00  0.7371847E-02  0.4272461E-03  0.8987219E+05  0.1927915E+05 -0.7260714E-02 -0.4028320E-02
  0.8547620E+00  0.1749448E-02  0.3051758E-03  0.8847405E+05  0.2027057E+05 -0.3141865E-02 -0.1647949E-02
  0.8857143E+00  0.3238801E-02  0.2441406E-02  0.8698534E+05  0.2120077E+05 -0.1185263E-01 -0.2441406E-02
  0.9166667E+00 -0.1764471E-02 -0.2960205E-02  0.8566243E+05  0.2203754E+05 -0.1598011E-02  0.5493164E-02
  0.9476191E+00  0.3735719E-02 -0.1617432E-02  0.8447420E+05  0.2277337E+05 -0.9532525E-02  0.2197266E-02
  0.9785714E+00  0.1777593E-02 -0.2746582E-03  0.8320108E+05  0.2342203E+05 -0.8732037E-02  0.2502441E-02
  0.1009524E+01  0.3143887E-02  0.2868652E-02  0.8176959E+05  0.2399234E+05 -0.4111236E-02  0.4577637E-02
  0.1040476E+01 -0.1466520E-03  0.6713867E-03  0.8050264E+05  0.2446915E+05 -0.4223577E-02 -0.1074219E-01
  0.1071429E+01  0.5725098E-02 -0.1770020E-02  0.7935400E+05  0.2483010E+05 -0.2506511E-02 -0.4882812E-02
  0.1102381E+01  0.4955316E-02 -0.3662109E-03  0.7840509E+05  0.2507590E+05 -0.1173773E-01 -0.4882812E-03
  0.1133333E+01  0.3379373E-02  0.5432129E-02  0.7727224E+05  0.2522913E+05 -0.4308364E-03 -0.4028320E-02
  0.1164286E+01 -0.1638213E-02  0.3906250E-02  0.7610184E+05  0.2529085E+05 -0.1048457E-02  0.7324219E-02
  0.1195238E+01  0.2387301E-02 -0.2380371E-02  0.7510200E+05  0.2527434E+05  0.2042611E-03 -0.3295898E-02
  0.1226190E+01  0.3758107E-02  0.1342773E-02  0.7422976E+05  0.2515012E+05 -0.7765094E-02  0.2563477E-02
  0.1257143E+01  0.6190213E-03  0.1708984E-02  0.7352995E+05  0.2495358E+05 -0.7573908E-02 -0.3784180E-02
  0.1288095E+01  0.2440278E-02 -0.5004883E-02  0.7294678E+05  0.2462906E+05 -0.3790723E-02  0.1721191E-01
  0.1319048E+01  0.1168372E-02 -0.4455566E-02  0.7206832E+05  0.2422970E+05 -0.5737745E-02  0.8056641E-02
  0.1350000E+01  0.1848009E-02  0.2380371E-02  0.7133698E+05  0.2378251E+05 -0.9765625E-02 -0.1104736E-01
  0.1380952E+01  0.3883888E-02  0.6713867E-03  0.7074475E+05  0.2328791E+05 -0.1113786E-01  0.7324219E-02
  0.1411905E+01  0.1634595E-02  0.1037598E-02  0.7025884E+05  0.2272172E+05 -0.5533305E-02 -0.4455566E-02
  0.1442857E+01  0.2730436E-02 -0.6652832E-02  0.6992544E+05  0.2211938E+05 -0.4230159E-02  0.2014160E-01
  0.1473810E+01  0.3305290E-02 -0.2929688E-02  0.6973883E+05  0.2149167E+05 -0.7123068E-02 -0.7812500E-02
  0.1504762E+01  0.4464282E-02  0.7690430E-02  0.6937814E+05  0.2074909E+05  0.4867360E-03 -0.2276611E-01
  0.1535714E+01  0.2931107E-02  0.4516602E-02  0.6896249E+05  0.1991779E+05 -0.9379542E-02 -0.1483154E-01
  0.1566667E+01  0.3842293E-02 -0.8056641E-02  0.6869482E+05  0.1915596E+05 -0.1246675E-02  0.5493164E-03
  0.1597619E+01  0.2979898E-02  0.6042480E-02  0.6851003E+05  0.1838760E+05 -0.5042905E-02 -0.1965332E-01
  0.1628572E+01  0.3232454E-02  0.1464844E-02  0.6841231E+05  0.1759447E+05 -0.5696614E-02  0.7507324E-02
  0.1659524E+01 -0.1471149E-03  0.7263184E-02  0.6841273E+05  0.1682738E+05 -0.4266331E-02 -0.2099609E-01
  0.1690476E+01  0.2744003E-02  0.9826660E-02  0.6850891E+05  0.1612098E+05 -0.8954114E-02 -0.1501465E-01
  0.1721429E+01  0.2863081E-02  0.4455566E-02  0.6859411E+05  0.1537085E+05 -0.3545611E-02 -0.1281738E-02
  0.1752381E+01 -0.2220403E-02 -0.8789062E-02  0.6851998E+05  0.1442491E+05 -0.8637802E-02  0.6347656E-02
  0.1783333E+01  0.2823589E-02  0.7934570E-02  0.6850762E+05  0.1349950E+05 -0.2053519E-02 -0.1269531E-01
  0.1814286E+01  0.9924221E-03  0.4272461E-03  0.6856119E+05  0.1272460E+05 -0.2422183E-02  0.8361816E-02
  0.1845238E+01  0.4465411E-02  0.1226807E-01  0.6866336E+05  0.1197925E+05 -0.1984627E-02 -0.1135254E-01
  0.1876190E+01 -0.1301257E-02  0.4272461E-03  0.6880765E+05  0.1126865E+05 -0.2602514E-03  0.4241943E-02
  0.1907143E+01  0.7040760E-03  0.1281738E-02  0.6899664E+05  0.1059858E+05 -0.1664180E-02  0.5493164E-03
  0.1938095E+01  0.4031020E-02 -0.7934570E-03  0.6921535E+05  0.1002359E+05 -0.7432193E-02  0.6378174E-02
  0.1969048E+01  0.2727762E-02 -0.3845215E-02  0.6945944E+05  0.9489744E+04 -0.7811320E-02 -0.3051758E-03
  0.2000000E+01  0.1373291E-02  0.5493164E-02  0.6963116E+05  0.8785791E+04 -0.5493164E-02 -0.1434326E-02
Zone t="Motion of body    1 in DoF   3",I=    64,F=POINT
  0.5000000E-01 -0.8966470E+05 -0.5268754E-02 -0.5340576E-02 -0.6021903E-05  0.2015046E+06  0.4272986E-02
  0.8095238E-01 -0.8970504E+05 -0.2289796E-01 -0.1790664E-02 -0.1871417E-04  0.2007193E+06  0.1829750E-01
  0.1119048E+00 -0.9002452E+05 -0.6446663E-01  0.8454018E-02  0.6438518E-04  0.2010696E+06  0.5147959E-01
  0.1428571E+00 -0.9038228E+05 -0.1454502E+00 -0.2686310E-01 -0.2273414E-03  0.2014058E+06  0.1160311E+00
  0.1738095E+00 -0.9038194E+05 -0.2907578E+00 -0.2304495E-01 -0.9008613E-04  0.2013435E+06  0.2328474E+00
  0.2047619E+00 -0.9050594E+05 -0.5374356E+00 -0.1389792E-01 -0.1905165E-03  0.2019050E+06  0.4309459E+00
  0.2357143E+00 -0.9094645E+05 -0.9505457E+00 -0.2162124E-01 -0.3054244E-03  0.2018821E+06  0.7628738E+00
  0.2666667E+00 -0.9092549E+05 -0.1626798E+01  0.3261566E-02  0.8065253E-04  0.2021796E+06  0.1306844E+01
  0.2976190E+00 -0.9126084E+05 -0.2739983E+01 -0.9382324E-02 -0.1947004E-03  0.2022219E+06  0.2205805E+01
  0.3285715E+00 -0.9156691E+05 -0.4560114E+01 -0.2712084E-01 -0.1021780E-02  0.2027998E+06  0.3679287E+01
  0.3595238E+00 -0.9199647E+05 -0.7531403E+01  0.2015979E-01  0.1236163E-02  0.2028265E+06  0.6090051E+01
  0.3904762E+00 -0.9206666E+05 -0.1233447E+02 -0.3763152E-01 -0.1934744E-02  0.2034066E+06  0.9998131E+01
  0.4214286E+00 -0.9279177E+05 -0.2000975E+02  0.4236253E-02  0.1018852E-02  0.2034729E+06  0.1625522E+02
  0.4523810E+00 -0.9320198E+05 -0.3213897E+02  0.8095189E-02  0.3767610E-03  0.2040629E+06  0.2617380E+02
  0.4833333E+00 -0.9346772E+05 -0.5034641E+02 -0.4141972E-01 -0.3327578E-02  0.2040413E+06  0.4108979E+02
  0.5142857E+00 -0.9410505E+05 -0.7761749E+02 -0.2777100E-01 -0.1871049E-02  0.2047440E+06  0.6357718E+02
  0.5452381E+00 -0.9476584E+05 -0.1170783E+03  0.1074645E-01  0.1028657E-02  0.2057660E+06  0.9619995E+02
  0.5761905E+00 -0.9562006E+05 -0.1724947E+03 -0.2235097E-01 -0.4112244E-02  0.2060013E+06  0.1421517E+03
  0.6071429E+00 -0.9614063E+05 -0.2492258E+03 -0.2623793E-01 -0.2749205E-02  0.2066761E+06  0.2060999E+03
  0.6380953E+00 -0.9665080E+05 -0.3521971E+03 -0.3161302E-01 -0.9157181E-02  0.2072775E+06  0.2921618E+03
  0.6690477E+00 -0.9782508E+05 -0.4904133E+03  0.4561346E-04  0.2290249E-02  0.2080571E+06  0.4082701E+03
  0.7000000E+00 -0.9876322E+05 -0.6728696E+03 -0.9983607E-02  0.1764297E-03  0.2089847E+06  0.5621318E+03
  0.7309524E+00 -0.9962577E+05 -0.9090271E+03  0.2450750E-01  0.9437561E-02  0.2100921E+06  0.7622028E+03
  0.7619048E+00 -0.1007224E+06 -0.1212259E+04 -0.2883911E-02  0.3433228E-02  0.2106114E+06  0.1020032E+04
  0.7928572E+00 -0.1018198E+06 -0.1596597E+04 -0.7929071E-02 -0.2573013E-02  0.2117639E+06  0.1349189E+04
  0.8238096E+00 -0.1028382E+06 -0.2080323E+04 -0.8927714E-02 -0.2874374E-02  0.2131164E+06  0.1764775E+04
  0.8547620E+00 -0.1041786E+06 -0.2686436E+04  0.6426543E-03 -0.1773834E-02  0.2139232E+06  0.2285109E+04
  0.8857143E+00 -0.1058730E+06 -0.3438212E+04  0.4582559E-02  0.2689362E-03  0.2153407E+06  0.2937525E+04
  0.9166667E+00 -0.1072780E+06 -0.4356345E+04 -0.3215998E-01 -0.1205826E-01  0.2166680E+06  0.3736842E+04
  0.9476191E+00 -0.1085744E+06 -0.5471365E+04 -0.5474761E-03  0.4905701E-02  0.2182757E+06  0.4713708E+04
  0.9785714E+00 -0.1099036E+06 -0.6813031E+04 -0.2201721E-01 -0.2937317E-02  0.2195727E+06  0.5892943E+04
  0.1009524E+01 -0.1114129E+06 -0.8415786E+04 -0.6499381E-02  0.7728577E-02  0.2204828E+06  0.7302810E+04
  0.1040476E+01 -0.1131635E+06 -0.1031903E+05 -0.6657999E-02  0.2738953E-02  0.2222625E+06  0.8993013E+04
  0.1071429E+01 -0.1147822E+06 -0.1256574E+05  0.2506511E-02  0.3799438E-02  0.2236955E+06  0.1098318E+05
  0.1102381E+01 -0.1163933E+06 -0.1520437E+05  0.1378630E-01  0.4386902E-02  0.2257973E+06  0.1335408E+05
  0.1133333E+01 -0.1178004E+06 -0.1825409E+05  0.1691033E-01  0.1224518E-01  0.2268670E+06  0.1608530E+05
  0.1164286E+01 -0.1191832E+06 -0.2175779E+05  0.2516296E-02  0.1170349E-01  0.2277342E+06  0.1923367E+05
  0.1195238E+01 -0.1205868E+06 -0.2574828E+05 -0.2042611E-03 -0.3555298E-02  0.2293432E+06  0.2287459E+05
  0.1226190E+01 -0.1214753E+06 -0.3022114E+05 -0.3832771E-02  0.4623413E-02  0.2303051E+06  0.2695526E+05
  0.1257143E+01 -0.1219613E+06 -0.3518791E+05 -0.1441955E-01 -0.1878357E-01  0.2311953E+06  0.3151795E+05
  0.1288095E+01 -0.1224406E+06 -0.4069982E+05  0.9950649E-03  0.5798340E-02  0.2321917E+06  0.3660136E+05
  0.1319048E+01 -0.1224870E+06 -0.4663253E+05 -0.1179940E-01 -0.5920410E-02  0.2315377E+06  0.4197897E+05
  0.1350000E+01 -0.1225305E+06 -0.5309037E+05 -0.8499711E-02 -0.8636475E-02  0.2314206E+06  0.4791173E+05
  0.1380952E+01 -0.1221968E+06 -0.5999122E+05 -0.3845215E-02  0.2624512E-02  0.2314156E+06  0.5437330E+05
  0.1411905E+01 -0.1209684E+06 -0.6716648E+05 -0.8645789E-02  0.7995605E-02  0.2304732E+06  0.6110164E+05
  0.1442857E+01 -0.1193441E+06 -0.7459955E+05 -0.3807143E-02 -0.2767944E-01  0.2292332E+06  0.6808464E+05
  0.1473810E+01 -0.1173556E+06 -0.8221005E+05 -0.9525034E-02 -0.2746582E-02  0.2280332E+06  0.7534378E+05
  0.1504762E+01 -0.1148431E+06 -0.8974754E+05  0.3366591E-02  0.1220703E-02  0.2255488E+06  0.8241817E+05
  0.1535714E+01 -0.1120056E+06 -0.9714176E+05 -0.8942359E-02  0.9307861E-02  0.2222480E+06  0.8920917E+05
  0.1566667E+01 -0.1091360E+06 -0.1044978E+06  0.2805020E-02  0.2404785E-01  0.2196982E+06  0.9625081E+05
  0.1597619E+01 -0.1057225E+06 -0.1114815E+06  0.2330433E-02  0.7263184E-02  0.2167053E+06  0.1030169E+06
  0.1628572E+01 -0.1018735E+06 -0.1179782E+06 -0.8994654E-03 -0.1586914E-02  0.2131589E+06  0.1092852E+06
  0.1659524E+01 -0.9772585E+05 -0.1239558E+06 -0.1066583E-01 -0.6774902E-02  0.2094113E+06  0.1150955E+06
  0.1690476E+01 -0.9357195E+05 -0.1294877E+06 -0.5993480E-02  0.1641846E-01  0.2060101E+06  0.1206743E+06
  0.1721429E+01 -0.8936284E+05 -0.1343942E+06 -0.6665749E-02 -0.1831055E-02  0.2023139E+06  0.1255576E+06
  0.1752381E+01 -0.8502360E+05 -0.1384303E+06 -0.1219045E-01 -0.5981445E-02  0.1975348E+06  0.1290997E+06
  0.1783333E+01 -0.8079734E+05 -0.1419400E+06 -0.6160558E-03 -0.5065918E-02  0.1930917E+06  0.1323416E+06
  0.1814286E+01 -0.7693689E+05 -0.1451120E+06 -0.3364143E-02 -0.4760742E-02  0.1895412E+06  0.1356898E+06
  0.1845238E+01 -0.7297458E+05 -0.1475048E+06  0.3506174E-02 -0.3051758E-02  0.1858712E+06  0.1382105E+06
  0.1876190E+01 -0.6912347E+05 -0.1493012E+06 -0.8067794E-02  0.6225586E-02  0.1822012E+06  0.1400104E+06
  0.1907143E+01 -0.6527609E+05 -0.1504526E+06  0.1024111E-02 -0.6103516E-02  0.1785083E+06  0.1411713E+06
  0.1938095E+01 -0.6168927E+05 -0.1513347E+06 -0.8313978E-02 -0.4882812E-03  0.1754337E+06  0.1425434E+06
  0.1969048E+01 -0.5826441E+05 -0.1518439E+06 -0.1053908E-01 -0.2044678E-02  0.1726110E+06  0.1437252E+06
  0.2000000E+01 -0.5500943E+05 -0.1516340E+06 -0.9826660E-02 -0.8178711E-02  0.1692223E+06  0.1432586E+06
