VARIABLES="w (rad/s)"
"abs(F   1   1)" "angle(F   1   1)"
"abs(F   1   2)" "angle(F   1   2)"
"abs(F   1   3)" "angle(F   1   3)"
Zone t="Diffraction force - beta =   0.000 deg",I=    64,F=POINT
  0.5000000E-01  0.9548267E+03 -0.1570795E+01  0.2621511E+03 -0.3088308E+01  0.1750750E+02 -0.1570794E+01
  0.8095238E-01  0.1562177E+04 -0.1570792E+01  0.6791113E+03 -0.3086373E+01  0.2833775E+02 -0.1570790E+01
  0.1119048E+00  0.2180507E+04 -0.1570787E+01  0.1289061E+04 -0.3084002E+01  0.3965538E+02 -0.1570784E+01
  0.1428571E+00  0.2829746E+04 -0.1570780E+01  0.2093340E+04 -0.3081031E+01  0.5184848E+02 -0.1570775E+01
  0.1738095E+00  0.3489449E+04 -0.1570769E+01  0.3095688E+04 -0.3077311E+01  0.6409437E+02 -0.1570761E+01
  0.2047619E+00  0.4200414E+04 -0.1570754E+01  0.4301104E+04 -0.3072667E+01  0.7735580E+02 -0.1570741E+01
  0.2357143E+00  0.4950508E+04 -0.1570731E+01  0.5713937E+04 -0.3066805E+01  0.9238952E+02 -0.1570713E+01
  0.2666667E+00  0.5745417E+04 -0.1570699E+01  0.7341877E+04 -0.3059705E+01  0.1072638E+03 -0.1570670E+01
  0.2976190E+00  0.6629136E+04 -0.1570650E+01  0.9189496E+04 -0.3050771E+01  0.1251645E+03 -0.1570609E+01
  0.3285715E+00  0.7586018E+04 -0.1570577E+01  0.1126164E+05 -0.3040079E+01  0.1450638E+03 -0.1570518E+01
  0.3595238E+00  0.8623854E+04 -0.1570468E+01  0.1355840E+05 -0.3027104E+01  0.1667398E+03 -0.1570380E+01
  0.3904762E+00  0.9791170E+04 -0.1570305E+01  0.1608618E+05 -0.3011754E+01  0.1915850E+03 -0.1570174E+01
  0.4214286E+00  0.1110603E+05 -0.1570068E+01  0.1879992E+05 -0.2994478E+01  0.2237650E+03 -0.1569890E+01
  0.4523810E+00  0.1250047E+05 -0.1569717E+01  0.2172496E+05 -0.2974524E+01  0.2506467E+03 -0.1569438E+01
  0.4833333E+00  0.1403042E+05 -0.1569230E+01  0.2479916E+05 -0.2954271E+01  0.2869059E+03 -0.1568839E+01
  0.5142857E+00  0.1574749E+05 -0.1568558E+01  0.2801899E+05 -0.2932270E+01  0.3281094E+03 -0.1568018E+01
  0.5452381E+00  0.1757870E+05 -0.1567661E+01  0.3135919E+05 -0.2910222E+01  0.3748944E+03 -0.1566939E+01
  0.5761905E+00  0.1945938E+05 -0.1566485E+01  0.3480798E+05 -0.2888559E+01  0.4172412E+03 -0.1565466E+01
  0.6071429E+00  0.2145727E+05 -0.1564966E+01  0.3834552E+05 -0.2866246E+01  0.4649898E+03 -0.1563585E+01
  0.6380953E+00  0.2360302E+05 -0.1563084E+01  0.4197525E+05 -0.2845178E+01  0.5248162E+03 -0.1561348E+01
  0.6690477E+00  0.2587557E+05 -0.1560757E+01  0.4566533E+05 -0.2824243E+01  0.5918702E+03 -0.1558634E+01
  0.7000000E+00  0.2818526E+05 -0.1557882E+01  0.4939039E+05 -0.2803083E+01  0.6537466E+03 -0.1555158E+01
  0.7309524E+00  0.3047861E+05 -0.1554381E+01  0.5316975E+05 -0.2782732E+01  0.7137831E+03 -0.1550852E+01
  0.7619048E+00  0.3290766E+05 -0.1550215E+01  0.5698546E+05 -0.2762812E+01  0.7887229E+03 -0.1545956E+01
  0.7928572E+00  0.3546509E+05 -0.1545313E+01  0.6079231E+05 -0.2743000E+01  0.8680911E+03 -0.1540192E+01
  0.8238096E+00  0.3810002E+05 -0.1539574E+01  0.6457795E+05 -0.2723407E+01  0.9543506E+03 -0.1533520E+01
  0.8547620E+00  0.4077573E+05 -0.1532896E+01  0.6834770E+05 -0.2704298E+01  0.1051511E+04 -0.1525984E+01
  0.8857143E+00  0.4345230E+05 -0.1525165E+01  0.7208816E+05 -0.2685723E+01  0.1142730E+04 -0.1516971E+01
  0.9166667E+00  0.4607348E+05 -0.1516247E+01  0.7578295E+05 -0.2667639E+01  0.1225216E+04 -0.1506199E+01
  0.9476191E+00  0.4873618E+05 -0.1506170E+01  0.7940316E+05 -0.2649865E+01  0.1320122E+04 -0.1494401E+01
  0.9785714E+00  0.5145429E+05 -0.1494912E+01  0.8294181E+05 -0.2632483E+01  0.1431688E+04 -0.1481821E+01
  0.1009524E+01  0.5422152E+05 -0.1482437E+01  0.8639348E+05 -0.2615602E+01  0.1553369E+04 -0.1468085E+01
  0.1040476E+01  0.5695431E+05 -0.1468621E+01  0.8973893E+05 -0.2599141E+01  0.1671882E+04 -0.1452622E+01
  0.1071429E+01  0.5959985E+05 -0.1453361E+01  0.9296823E+05 -0.2583125E+01  0.1788489E+04 -0.1435393E+01
  0.1102381E+01  0.6209450E+05 -0.1436540E+01  0.9607393E+05 -0.2567538E+01  0.1905010E+04 -0.1416362E+01
  0.1133333E+01  0.6439557E+05 -0.1418084E+01  0.9905341E+05 -0.2552484E+01  0.2016436E+04 -0.1395220E+01
  0.1164286E+01  0.6652203E+05 -0.1398072E+01  0.1019173E+06 -0.2538172E+01  0.2131564E+04 -0.1372767E+01
  0.1195238E+01  0.6850971E+05 -0.1376769E+01  0.1046413E+06 -0.2524333E+01  0.2242046E+04 -0.1348741E+01
  0.1226190E+01  0.7028727E+05 -0.1354134E+01  0.1072137E+06 -0.2510921E+01  0.2346386E+04 -0.1323253E+01
  0.1257143E+01  0.7179695E+05 -0.1329988E+01  0.1096534E+06 -0.2497665E+01  0.2447473E+04 -0.1295943E+01
  0.1288095E+01  0.7304455E+05 -0.1304926E+01  0.1118636E+06 -0.2485178E+01  0.2554385E+04 -0.1268416E+01
  0.1319048E+01  0.7393207E+05 -0.1278363E+01  0.1139435E+06 -0.2473030E+01  0.2653000E+04 -0.1239403E+01
  0.1350000E+01  0.7446095E+05 -0.1250713E+01  0.1158585E+06 -0.2461488E+01  0.2742538E+04 -0.1209722E+01
  0.1380952E+01  0.7461845E+05 -0.1222265E+01  0.1175988E+06 -0.2450509E+01  0.2810827E+04 -0.1178242E+01
  0.1411905E+01  0.7388906E+05 -0.1193053E+01  0.1190583E+06 -0.2439480E+01  0.2801921E+04 -0.1141061E+01
  0.1442857E+01  0.7318027E+05 -0.1163076E+01  0.1204361E+06 -0.2429212E+01  0.2832053E+04 -0.1106587E+01
  0.1473810E+01  0.7200309E+05 -0.1132359E+01  0.1216258E+06 -0.2419216E+01  0.2853514E+04 -0.1071974E+01
  0.1504762E+01  0.7037633E+05 -0.1101185E+01  0.1226404E+06 -0.2409785E+01  0.2859683E+04 -0.1037863E+01
  0.1535714E+01  0.6830914E+05 -0.1069881E+01  0.1234729E+06 -0.2400859E+01  0.2849814E+04 -0.1004192E+01
  0.1566667E+01  0.6579423E+05 -0.1038438E+01  0.1241185E+06 -0.2392425E+01  0.2811314E+04 -0.9696790E+00
  0.1597619E+01  0.6284071E+05 -0.1006873E+01  0.1245743E+06 -0.2384411E+01  0.2745163E+04 -0.9340729E+00
  0.1628572E+01  0.5944668E+05 -0.9750257E+00  0.1248475E+06 -0.2376773E+01  0.2647872E+04 -0.8961908E+00
  0.1659524E+01  0.5565585E+05 -0.9431516E+00  0.1249351E+06 -0.2369583E+01  0.2531471E+04 -0.8590312E+00
  0.1690476E+01  0.5148802E+05 -0.9111449E+00  0.1248333E+06 -0.2362615E+01  0.2396658E+04 -0.8227195E+00
  0.1721429E+01  0.4697179E+05 -0.8787599E+00  0.1245519E+06 -0.2356165E+01  0.2238942E+04 -0.7865940E+00
  0.1752381E+01  0.4213346E+05 -0.8456109E+00  0.1240929E+06 -0.2350136E+01  0.2057622E+04 -0.7489287E+00
  0.1783333E+01  0.3702193E+05 -0.8113538E+00  0.1234495E+06 -0.2344670E+01  0.1852497E+04 -0.7094758E+00
  0.1814286E+01  0.3167005E+05 -0.7748643E+00  0.1226204E+06 -0.2339719E+01  0.1619909E+04 -0.6643153E+00
  0.1845238E+01  0.2610664E+05 -0.7337739E+00  0.1216099E+06 -0.2335207E+01  0.1361755E+04 -0.6116482E+00
  0.1876190E+01  0.2036762E+05 -0.6832072E+00  0.1204332E+06 -0.2331064E+01  0.1075844E+04 -0.5394266E+00
  0.1907143E+01  0.1450515E+05 -0.6104336E+00  0.1190872E+06 -0.2327376E+01  0.7765494E+03 -0.4317847E+00
  0.1938095E+01  0.8619234E+04 -0.4678824E+00  0.1175712E+06 -0.2324013E+01  0.4742857E+03 -0.2137693E+00
  0.1969048E+01  0.3281265E+04  0.1265603E+00  0.1158933E+06 -0.2321060E+01  0.2307830E+03  0.5429424E+00
  0.2000000E+01  0.4778970E+04  0.1866500E+01  0.1140563E+06 -0.2318717E+01  0.3471102E+03  0.1839748E+01
