VARIABLES="w (rad/s)"
"abs(F   1   1)" "angle(F   1   1)"
"abs(F   1   2)" "angle(F   1   2)"
"abs(F   1   3)" "angle(F   1   3)"
Zone t="Diffraction force - beta =   0.000 deg",I=    64,F=POINT
  0.5000000E-01  0.1750372E+03 -0.1570796E+01  0.1206798E+03 -0.3110761E+01  0.2431252E+02 -0.1570787E+01
  0.8095238E-01  0.2853843E+03 -0.1570794E+01  0.3142810E+03 -0.3109780E+01  0.3791562E+02 -0.1570771E+01
  0.1119048E+00  0.3963813E+03 -0.1570792E+01  0.6001715E+03 -0.3108569E+01  0.5041629E+02 -0.1570741E+01
  0.1428571E+00  0.5147368E+03 -0.1570789E+01  0.9768204E+03 -0.3106880E+01  0.6226035E+02 -0.1570698E+01
  0.1738095E+00  0.6360986E+03 -0.1570785E+01  0.1446379E+04 -0.3104707E+01  0.6990134E+02 -0.1570619E+01
  0.2047619E+00  0.7677189E+03 -0.1570778E+01  0.2008068E+04 -0.3101903E+01  0.7662032E+02 -0.1570486E+01
  0.2357143E+00  0.9020311E+03 -0.1570769E+01  0.2665894E+04 -0.3098360E+01  0.8262752E+02 -0.1570285E+01
  0.2666667E+00  0.1055104E+04 -0.1570755E+01  0.3421173E+04 -0.3094013E+01  0.7618923E+02 -0.1569821E+01
  0.2976190E+00  0.1217533E+04 -0.1570735E+01  0.4274262E+04 -0.3088504E+01  0.7442841E+02 -0.1569082E+01
  0.3285715E+00  0.1392593E+04 -0.1570704E+01  0.5228440E+04 -0.3081854E+01  0.6441521E+02 -0.1567413E+01
  0.3595238E+00  0.1589196E+04 -0.1570658E+01  0.6281087E+04 -0.3073717E+01  0.4024836E+02 -0.1561623E+01
  0.3904762E+00  0.1809750E+04 -0.1570590E+01  0.7433494E+04 -0.3063977E+01  0.1022179E+02 -0.1509504E+01
  0.4214286E+00  0.2050995E+04 -0.1570489E+01  0.8680347E+04 -0.3053032E+01  0.2350726E+02  0.1526112E+01
  0.4523810E+00  0.2311760E+04 -0.1570341E+01  0.1000822E+05 -0.3040143E+01  0.7989991E+02  0.1548919E+01
  0.4833333E+00  0.2613123E+04 -0.1570137E+01  0.1143254E+05 -0.3027153E+01  0.1652572E+03  0.1553644E+01
  0.5142857E+00  0.2942303E+04 -0.1569855E+01  0.1290038E+05 -0.3012647E+01  0.2470823E+03  0.1552484E+01
  0.5452381E+00  0.3276209E+04 -0.1569473E+01  0.1445162E+05 -0.2998174E+01  0.3515383E+03  0.1550751E+01
  0.5761905E+00  0.3624875E+04 -0.1568971E+01  0.1606359E+05 -0.2983788E+01  0.4950400E+03  0.1549225E+01
  0.6071429E+00  0.4034154E+04 -0.1568342E+01  0.1770672E+05 -0.2968646E+01  0.6810671E+03  0.1547551E+01
  0.6380953E+00  0.4444849E+04 -0.1567547E+01  0.1943129E+05 -0.2954476E+01  0.8801038E+03  0.1544780E+01
  0.6690477E+00  0.4868073E+04 -0.1566555E+01  0.2118060E+05 -0.2940062E+01  0.1099825E+04  0.1541290E+01
  0.7000000E+00  0.5295487E+04 -0.1565323E+01  0.2294627E+05 -0.2925224E+01  0.1357154E+04  0.1537516E+01
  0.7309524E+00  0.5740515E+04 -0.1563840E+01  0.2477483E+05 -0.2911073E+01  0.1693891E+04  0.1534385E+01
  0.7619048E+00  0.6229687E+04 -0.1562101E+01  0.2662553E+05 -0.2896991E+01  0.2073669E+04  0.1530866E+01
  0.7928572E+00  0.6737823E+04 -0.1560046E+01  0.2845028E+05 -0.2882469E+01  0.2462691E+04  0.1526320E+01
  0.8238096E+00  0.7237533E+04 -0.1557602E+01  0.3030419E+05 -0.2868312E+01  0.2912105E+04  0.1521764E+01
  0.8547620E+00  0.7727623E+04 -0.1554718E+01  0.3217908E+05 -0.2854617E+01  0.3413528E+04  0.1516982E+01
  0.8857143E+00  0.8213849E+04 -0.1551356E+01  0.3402019E+05 -0.2840750E+01  0.3960722E+04  0.1511868E+01
  0.9166667E+00  0.8737950E+04 -0.1547605E+01  0.3583514E+05 -0.2826906E+01  0.4598542E+04  0.1507057E+01
  0.9476191E+00  0.9291141E+04 -0.1543461E+01  0.3763421E+05 -0.2813368E+01  0.5321887E+04  0.1502538E+01
  0.9785714E+00  0.9832605E+04 -0.1538751E+01  0.3942220E+05 -0.2800377E+01  0.6102581E+04  0.1497880E+01
  0.1009524E+01  0.1035953E+05 -0.1533440E+01  0.4117464E+05 -0.2787680E+01  0.6948392E+04  0.1493248E+01
  0.1040476E+01  0.1088792E+05 -0.1527556E+01  0.4282568E+05 -0.2774510E+01  0.7808014E+04  0.1488060E+01
  0.1071429E+01  0.1139648E+05 -0.1521009E+01  0.4443796E+05 -0.2761743E+01  0.8784889E+04  0.1483553E+01
  0.1102381E+01  0.1185594E+05 -0.1513659E+01  0.4601054E+05 -0.2749525E+01  0.9847348E+04  0.1479373E+01
  0.1133333E+01  0.1228138E+05 -0.1505561E+01  0.4753875E+05 -0.2737927E+01  0.1102697E+05  0.1475756E+01
  0.1164286E+01  0.1273771E+05 -0.1497427E+01  0.4899557E+05 -0.2726664E+01  0.1235711E+05  0.1472883E+01
  0.1195238E+01  0.1318186E+05 -0.1488848E+01  0.5031203E+05 -0.2714798E+01  0.1367911E+05  0.1469974E+01
  0.1226190E+01  0.1359189E+05 -0.1479708E+01  0.5156094E+05 -0.2703451E+01  0.1513600E+05  0.1468008E+01
  0.1257143E+01  0.1390490E+05 -0.1469615E+01  0.5274659E+05 -0.2692348E+01  0.1668628E+05  0.1466850E+01
  0.1288095E+01  0.1418227E+05 -0.1459097E+01  0.5382834E+05 -0.2682433E+01  0.1835811E+05  0.1466518E+01
  0.1319048E+01  0.1438074E+05 -0.1448013E+01  0.5483762E+05 -0.2672899E+01  0.2015804E+05  0.1467058E+01
  0.1350000E+01  0.1454622E+05 -0.1437656E+01  0.5571990E+05 -0.2663343E+01  0.2204389E+05  0.1467876E+01
  0.1380952E+01  0.1464536E+05 -0.1427124E+01  0.5645487E+05 -0.2653500E+01  0.2393171E+05  0.1469596E+01
  0.1411905E+01  0.1462893E+05 -0.1415878E+01  0.5707787E+05 -0.2644091E+01  0.2593870E+05  0.1472007E+01
  0.1442857E+01  0.1454338E+05 -0.1405088E+01  0.5762212E+05 -0.2635266E+01  0.2808614E+05  0.1476075E+01
  0.1473810E+01  0.1436290E+05 -0.1394806E+01  0.5805149E+05 -0.2627064E+01  0.3033851E+05  0.1480824E+01
  0.1504762E+01  0.1409358E+05 -0.1386304E+01  0.5837188E+05 -0.2619591E+01  0.3269269E+05  0.1486186E+01
  0.1535714E+01  0.1371105E+05 -0.1378563E+01  0.5859062E+05 -0.2612967E+01  0.3515745E+05  0.1492852E+01
  0.1566667E+01  0.1322610E+05 -0.1372841E+01  0.5862799E+05 -0.2605704E+01  0.3754904E+05  0.1499727E+01
  0.1597619E+01  0.1263497E+05 -0.1369496E+01  0.5852268E+05 -0.2598651E+01  0.3994066E+05  0.1507477E+01
  0.1628572E+01  0.1195156E+05 -0.1370538E+01  0.5830442E+05 -0.2592380E+01  0.4242293E+05  0.1515814E+01
  0.1659524E+01  0.1114969E+05 -0.1377108E+01  0.5798101E+05 -0.2586888E+01  0.4495259E+05  0.1524639E+01
  0.1690476E+01  0.1022864E+05 -0.1389742E+01  0.5754034E+05 -0.2582207E+01  0.4748786E+05  0.1534477E+01
  0.1721429E+01  0.9200599E+04 -0.1412309E+01  0.5699290E+05 -0.2578648E+01  0.5002779E+05  0.1544476E+01
  0.1752381E+01  0.8087443E+04 -0.1450419E+01  0.5635119E+05 -0.2576288E+01  0.5258159E+05  0.1554830E+01
  0.1783333E+01  0.6925337E+04 -0.1514966E+01  0.5560439E+05 -0.2574872E+01  0.5513875E+05  0.1565340E+01
  0.1814286E+01  0.5737843E+04 -0.1623930E+01  0.5467317E+05 -0.2572839E+01  0.5740528E+05  0.1575980E+01
  0.1845238E+01  0.4616368E+04 -0.1810171E+01  0.5363003E+05 -0.2571875E+01  0.5956360E+05  0.1586668E+01
  0.1876190E+01  0.3766004E+04 -0.2125378E+01  0.5250386E+05 -0.2572300E+01  0.6168195E+05  0.1597500E+01
  0.1907143E+01  0.3511449E+04 -0.2577706E+01  0.5132222E+05 -0.2574277E+01  0.6374178E+05  0.1608388E+01
  0.1938095E+01  0.4068230E+04 -0.3018927E+01  0.5007748E+05 -0.2577779E+01  0.6567509E+05  0.1619336E+01
  0.1969048E+01  0.5271892E+04  0.2966860E+01  0.4878000E+05 -0.2583171E+01  0.6748117E+05  0.1630005E+01
  0.2000000E+01  0.6836997E+04  0.2791075E+01  0.4744580E+05 -0.2590572E+01  0.6916938E+05  0.1640351E+01
