VARIABLES="w (rad/s)"
"abs(F   1   1)" "angle(F   1   1)"
"abs(F   1   2)" "angle(F   1   2)"
"abs(F   1   3)" "angle(F   1   3)"
Zone t="Diffraction force - beta =   0.000 deg",I=    64,F=POINT
  0.5000000E-01  0.5846282E+04 -0.1570803E+01  0.3891142E+06 -0.2625778E-04  0.1299666E+05  0.1570800E+01
  0.8095238E-01  0.9552232E+04 -0.1570798E+01  0.3878532E+06 -0.7053879E-04  0.2123691E+05  0.1570800E+01
  0.1119048E+00  0.1332514E+05 -0.1570790E+01  0.3860001E+06 -0.1397645E-03  0.2961759E+05  0.1570805E+01
  0.1428571E+00  0.1724016E+05 -0.1570786E+01  0.3835593E+06 -0.2390565E-03  0.3828662E+05  0.1570813E+01
  0.1738095E+00  0.2129125E+05 -0.1570778E+01  0.3805315E+06 -0.3757343E-03  0.4729450E+05  0.1570814E+01
  0.2047619E+00  0.2556246E+05 -0.1570766E+01  0.3769129E+06 -0.5610171E-03  0.5674064E+05  0.1570828E+01
  0.2357143E+00  0.3011794E+05 -0.1570749E+01  0.3727304E+06 -0.8108629E-03  0.6682008E+05  0.1570842E+01
  0.2666667E+00  0.3496649E+05 -0.1570724E+01  0.3679598E+06 -0.1143542E-02  0.7753592E+05  0.1570866E+01
  0.2976190E+00  0.4026500E+05 -0.1570688E+01  0.3626440E+06 -0.1593402E-02  0.8922780E+05  0.1570904E+01
  0.3285715E+00  0.4600119E+05 -0.1570636E+01  0.3567582E+06 -0.2190012E-02  0.1018509E+06  0.1570958E+01
  0.3595238E+00  0.5233289E+05 -0.1570554E+01  0.3503826E+06 -0.2987531E-02  0.1158493E+06  0.1571038E+01
  0.3904762E+00  0.5928093E+05 -0.1570433E+01  0.3434576E+06 -0.4038283E-02  0.1310816E+06  0.1571158E+01
  0.4214286E+00  0.6704347E+05 -0.1570259E+01  0.3361653E+06 -0.5375992E-02  0.1480905E+06  0.1571334E+01
  0.4523810E+00  0.7545041E+05 -0.1570000E+01  0.3283879E+06 -0.7106390E-02  0.1665208E+06  0.1571591E+01
  0.4833333E+00  0.8469424E+05 -0.1569644E+01  0.3203366E+06 -0.9152447E-02  0.1867244E+06  0.1571949E+01
  0.5142857E+00  0.9471195E+05 -0.1569146E+01  0.3119558E+06 -0.1165194E-01  0.2085438E+06  0.1572446E+01
  0.5452381E+00  0.1053758E+06 -0.1568484E+01  0.3032694E+06 -0.1453783E-01  0.2316743E+06  0.1573108E+01
  0.5761905E+00  0.1167677E+06 -0.1567621E+01  0.2944597E+06 -0.1781319E-01  0.2564825E+06  0.1573971E+01
  0.6071429E+00  0.1285792E+06 -0.1566507E+01  0.2853726E+06 -0.2159168E-01  0.2820868E+06  0.1575086E+01
  0.6380953E+00  0.1410512E+06 -0.1565114E+01  0.2761736E+06 -0.2571829E-01  0.3087821E+06  0.1576478E+01
  0.6690477E+00  0.1541224E+06 -0.1563383E+01  0.2668841E+06 -0.3033380E-01  0.3369266E+06  0.1578209E+01
  0.7000000E+00  0.1674190E+06 -0.1561249E+01  0.2574285E+06 -0.3547451E-01  0.3652999E+06  0.1580343E+01
  0.7309524E+00  0.1811289E+06 -0.1558672E+01  0.2479395E+06 -0.4105367E-01  0.3944891E+06  0.1582921E+01
  0.7619048E+00  0.1954304E+06 -0.1555579E+01  0.2385140E+06 -0.4717493E-01  0.4250101E+06  0.1586014E+01
  0.7928572E+00  0.2099221E+06 -0.1551905E+01  0.2290279E+06 -0.5384744E-01  0.4554409E+06  0.1589686E+01
  0.8238096E+00  0.2247410E+06 -0.1547577E+01  0.2194292E+06 -0.6108421E-01  0.4864078E+06  0.1594014E+01
  0.8547620E+00  0.2398895E+06 -0.1542531E+01  0.2101788E+06 -0.6884216E-01  0.5176850E+06  0.1599059E+01
  0.8857143E+00  0.2553845E+06 -0.1536687E+01  0.2009476E+06 -0.7724098E-01  0.5499937E+06  0.1604906E+01
  0.9166667E+00  0.2707033E+06 -0.1529982E+01  0.1917381E+06 -0.8623480E-01  0.5815020E+06  0.1611613E+01
  0.9476191E+00  0.2860503E+06 -0.1522360E+01  0.1825449E+06 -0.9590293E-01  0.6129724E+06  0.1619236E+01
  0.9785714E+00  0.3016121E+06 -0.1513802E+01  0.1737734E+06 -0.1060780E+00  0.6440822E+06  0.1627784E+01
  0.1009524E+01  0.3174710E+06 -0.1504229E+01  0.1651711E+06 -0.1169545E+00  0.6758939E+06  0.1637355E+01
  0.1040476E+01  0.3327776E+06 -0.1493601E+01  0.1567034E+06 -0.1285591E+00  0.7061879E+06  0.1647984E+01
  0.1071429E+01  0.3476449E+06 -0.1481910E+01  0.1483545E+06 -0.1409129E+00  0.7349562E+06  0.1659673E+01
  0.1102381E+01  0.3620526E+06 -0.1469133E+01  0.1401306E+06 -0.1540889E+00  0.7626742E+06  0.1672456E+01
  0.1133333E+01  0.3759820E+06 -0.1455326E+01  0.1324821E+06 -0.1674916E+00  0.7887334E+06  0.1686258E+01
  0.1164286E+01  0.3894323E+06 -0.1440502E+01  0.1249928E+06 -0.1818433E+00  0.8142553E+06  0.1701102E+01
  0.1195238E+01  0.4015653E+06 -0.1424834E+01  0.1177206E+06 -0.1970901E+00  0.8365620E+06  0.1716780E+01
  0.1226190E+01  0.4126118E+06 -0.1408553E+01  0.1106350E+06 -0.2132565E+00  0.8555941E+06  0.1733032E+01
  0.1257143E+01  0.4223385E+06 -0.1391633E+01  0.1037336E+06 -0.2306860E+00  0.8718189E+06  0.1749950E+01
  0.1288095E+01  0.4310891E+06 -0.1374372E+01  0.9722169E+05 -0.2482237E+00  0.8853965E+06  0.1767195E+01
  0.1319048E+01  0.4383405E+06 -0.1356877E+01  0.9111984E+05 -0.2660299E+00  0.8957022E+06  0.1784665E+01
  0.1350000E+01  0.4442844E+06 -0.1339311E+01  0.8523924E+05 -0.2850595E+00  0.9038352E+06  0.1802281E+01
  0.1380952E+01  0.4481204E+06 -0.1322159E+01  0.7959077E+05 -0.3051364E+00  0.9070222E+06  0.1819446E+01
  0.1411905E+01  0.4494230E+06 -0.1306145E+01  0.7416805E+05 -0.3262682E+00  0.9049379E+06  0.1835407E+01
  0.1442857E+01  0.4499416E+06 -0.1290618E+01  0.6895303E+05 -0.3491046E+00  0.9006743E+06  0.1850929E+01
  0.1473810E+01  0.4488827E+06 -0.1276187E+01  0.6399781E+05 -0.3728684E+00  0.8931221E+06  0.1865364E+01
  0.1504762E+01  0.4463320E+06 -0.1263142E+01  0.5947830E+05 -0.3953121E+00  0.8822082E+06  0.1878306E+01
  0.1535714E+01  0.4425351E+06 -0.1251553E+01  0.5516918E+05 -0.4190795E+00  0.8692168E+06  0.1889898E+01
  0.1566667E+01  0.4375506E+06 -0.1241695E+01  0.5111135E+05 -0.4438471E+00  0.8542164E+06  0.1899863E+01
  0.1597619E+01  0.4310380E+06 -0.1234014E+01  0.4726194E+05 -0.4699988E+00  0.8357518E+06  0.1907525E+01
  0.1628572E+01  0.4234013E+06 -0.1228558E+01  0.4360398E+05 -0.4979292E+00  0.8148581E+06  0.1912877E+01
  0.1659524E+01  0.4149294E+06 -0.1225201E+01  0.4015041E+05 -0.5275600E+00  0.7926679E+06  0.1916237E+01
  0.1690476E+01  0.4057492E+06 -0.1224045E+01  0.3688150E+05 -0.5594519E+00  0.7693465E+06  0.1917441E+01
  0.1721429E+01  0.3961031E+06 -0.1225282E+01  0.3391168E+05 -0.5881734E+00  0.7450487E+06  0.1916006E+01
  0.1752381E+01  0.3861442E+06 -0.1228779E+01  0.3113333E+05 -0.6174090E+00  0.7203334E+06  0.1912289E+01
  0.1783333E+01  0.3760074E+06 -0.1234237E+01  0.2852800E+05 -0.6482090E+00  0.6960144E+06  0.1907042E+01
  0.1814286E+01  0.3655202E+06 -0.1242052E+01  0.2610380E+05 -0.6800201E+00  0.6711428E+06  0.1899451E+01
  0.1845238E+01  0.3547817E+06 -0.1252332E+01  0.2383814E+05 -0.7137606E+00  0.6457474E+06  0.1889156E+01
  0.1876190E+01  0.3439738E+06 -0.1264973E+01  0.2172030E+05 -0.7498518E+00  0.6202958E+06  0.1876286E+01
  0.1907143E+01  0.3332367E+06 -0.1279634E+01  0.1974691E+05 -0.7877218E+00  0.5953384E+06  0.1861549E+01
  0.1938095E+01  0.3225642E+06 -0.1296299E+01  0.1791679E+05 -0.8277291E+00  0.5708391E+06  0.1844914E+01
  0.1969048E+01  0.3120939E+06 -0.1314917E+01  0.1622433E+05 -0.8672654E+00  0.5469761E+06  0.1826243E+01
  0.2000000E+01  0.3018673E+06 -0.1335471E+01  0.1466352E+05 -0.9048582E+00  0.5238016E+06  0.1805440E+01
