VARIABLES="w (rad/s)"
"abs(F   1   1)" "angle(F   1   1)"
"abs(F   1   2)" "angle(F   1   2)"
"abs(F   1   3)" "angle(F   1   3)"
Zone t="Diffraction force - beta =   0.000 deg",I=    64,F=POINT
  0.5000000E-01  0.3759738E+04 -0.1570799E+01  0.4903288E+06 -0.3283869E-04  0.7052576E+02  0.1570245E+01
  0.8095238E-01  0.6128937E+04 -0.1570791E+01  0.4890811E+06 -0.8827418E-04  0.1189852E+03  0.1571196E+01
  0.1119048E+00  0.8563287E+04 -0.1570789E+01  0.4872484E+06 -0.1750896E-03  0.1944531E+03  0.1570881E+01
  0.1428571E+00  0.1107260E+05 -0.1570788E+01  0.4848334E+06 -0.2998133E-03  0.2862725E+03  0.1570779E+01
  0.1738095E+00  0.1370292E+05 -0.1570783E+01  0.4818377E+06 -0.4721043E-03  0.4050554E+03  0.1570842E+01
  0.2047619E+00  0.1644741E+05 -0.1570775E+01  0.4782509E+06 -0.7061520E-03  0.5369341E+03  0.1570749E+01
  0.2357143E+00  0.1941079E+05 -0.1570767E+01  0.4740729E+06 -0.1022702E-02  0.7556328E+03  0.1570845E+01
  0.2666667E+00  0.2256662E+05 -0.1570751E+01  0.4693187E+06 -0.1446322E-02  0.9884150E+03  0.1570817E+01
  0.2976190E+00  0.2596922E+05 -0.1570729E+01  0.4639590E+06 -0.2020192E-02  0.1284473E+04  0.1570882E+01
  0.3285715E+00  0.2976734E+05 -0.1570693E+01  0.4580447E+06 -0.2785801E-02  0.1702909E+04  0.1570916E+01
  0.3595238E+00  0.3390075E+05 -0.1570642E+01  0.4515434E+06 -0.3811558E-02  0.2185839E+04  0.1570958E+01
  0.3904762E+00  0.3842927E+05 -0.1570566E+01  0.4445101E+06 -0.5170435E-02  0.2726423E+04  0.1571021E+01
  0.4214286E+00  0.4350404E+05 -0.1570455E+01  0.4369823E+06 -0.6907808E-02  0.3511317E+04  0.1571145E+01
  0.4523810E+00  0.4910457E+05 -0.1570292E+01  0.4289586E+06 -0.9156920E-02  0.4416427E+04  0.1571306E+01
  0.4833333E+00  0.5519371E+05 -0.1570065E+01  0.4205800E+06 -0.1183938E-01  0.5502214E+04  0.1571535E+01
  0.5142857E+00  0.6168418E+05 -0.1569749E+01  0.4117379E+06 -0.1511254E-01  0.6730385E+04  0.1571859E+01
  0.5452381E+00  0.6884275E+05 -0.1569329E+01  0.4027112E+06 -0.1891989E-01  0.8295121E+04  0.1572276E+01
  0.5761905E+00  0.7638302E+05 -0.1568782E+01  0.3933207E+06 -0.2325208E-01  0.1007174E+05  0.1572827E+01
  0.6071429E+00  0.8425025E+05 -0.1568076E+01  0.3836748E+06 -0.2824805E-01  0.1202308E+05  0.1573549E+01
  0.6380953E+00  0.9243537E+05 -0.1567194E+01  0.3738735E+06 -0.3374549E-01  0.1423081E+05  0.1574449E+01
  0.6690477E+00  0.1009768E+06 -0.1566103E+01  0.3637929E+06 -0.3987743E-01  0.1680731E+05  0.1575535E+01
  0.7000000E+00  0.1099234E+06 -0.1564764E+01  0.3535888E+06 -0.4671547E-01  0.1973421E+05  0.1576881E+01
  0.7309524E+00  0.1191803E+06 -0.1563152E+01  0.3433609E+06 -0.5417458E-01  0.2295536E+05  0.1578528E+01
  0.7619048E+00  0.1285133E+06 -0.1561221E+01  0.3329556E+06 -0.6231534E-01  0.2636895E+05  0.1580525E+01
  0.7928572E+00  0.1379609E+06 -0.1558931E+01  0.3223629E+06 -0.7114907E-01  0.3021600E+05  0.1582908E+01
  0.8238096E+00  0.1475865E+06 -0.1556261E+01  0.3120444E+06 -0.8072267E-01  0.3403052E+05  0.1585638E+01
  0.8547620E+00  0.1576516E+06 -0.1553205E+01  0.3016299E+06 -0.9103838E-01  0.3875867E+05  0.1588621E+01
  0.8857143E+00  0.1677207E+06 -0.1549694E+01  0.2911861E+06 -0.1020537E+00  0.4362705E+05  0.1592185E+01
  0.9166667E+00  0.1778011E+06 -0.1545695E+01  0.2806237E+06 -0.1137608E+00  0.4895612E+05  0.1596357E+01
  0.9476191E+00  0.1878268E+06 -0.1541191E+01  0.2705172E+06 -0.1261930E+00  0.5404566E+05  0.1601087E+01
  0.9785714E+00  0.1977869E+06 -0.1536153E+01  0.2604301E+06 -0.1393707E+00  0.5984088E+05  0.1606485E+01
  0.1009524E+01  0.2074140E+06 -0.1530591E+01  0.2503930E+06 -0.1532265E+00  0.6561347E+05  0.1612424E+01
  0.1040476E+01  0.2168295E+06 -0.1524556E+01  0.2403611E+06 -0.1677755E+00  0.7176759E+05  0.1618727E+01
  0.1071429E+01  0.2262136E+06 -0.1518194E+01  0.2305684E+06 -0.1829782E+00  0.7817920E+05  0.1624940E+01
  0.1102381E+01  0.2352293E+06 -0.1511377E+01  0.2211646E+06 -0.1987918E+00  0.8438245E+05  0.1632026E+01
  0.1133333E+01  0.2438112E+06 -0.1504165E+01  0.2118635E+06 -0.2153186E+00  0.9108465E+05  0.1639717E+01
  0.1164286E+01  0.2516539E+06 -0.1496641E+01  0.2026759E+06 -0.2324047E+00  0.9751751E+05  0.1647951E+01
  0.1195238E+01  0.2588222E+06 -0.1488958E+01  0.1935605E+06 -0.2500970E+00  0.1039956E+06  0.1656250E+01
  0.1226190E+01  0.2653722E+06 -0.1481427E+01  0.1846050E+06 -0.2682477E+00  0.1105729E+06  0.1663980E+01
  0.1257143E+01  0.2710410E+06 -0.1474016E+01  0.1762396E+06 -0.2866735E+00  0.1161332E+06  0.1671787E+01
  0.1288095E+01  0.2760439E+06 -0.1466913E+01  0.1679894E+06 -0.3053185E+00  0.1220001E+06  0.1679553E+01
  0.1319048E+01  0.2799351E+06 -0.1460212E+01  0.1598820E+06 -0.3246222E+00  0.1274704E+06  0.1687258E+01
  0.1350000E+01  0.2827811E+06 -0.1454277E+01  0.1519046E+06 -0.3442793E+00  0.1323282E+06  0.1693921E+01
  0.1380952E+01  0.2846921E+06 -0.1449355E+01  0.1440150E+06 -0.3643503E+00  0.1369889E+06  0.1699356E+01
  0.1411905E+01  0.2853460E+06 -0.1445372E+01  0.1362720E+06 -0.3845958E+00  0.1411271E+06  0.1704620E+01
  0.1442857E+01  0.2850895E+06 -0.1442904E+01  0.1290912E+06 -0.4039585E+00  0.1437481E+06  0.1707565E+01
  0.1473810E+01  0.2838935E+06 -0.1441970E+01  0.1220384E+06 -0.4233049E+00  0.1459563E+06  0.1709027E+01
  0.1504762E+01  0.2818576E+06 -0.1442861E+01  0.1150820E+06 -0.4429816E+00  0.1480455E+06  0.1708776E+01
  0.1535714E+01  0.2787177E+06 -0.1445661E+01  0.1082372E+06 -0.4627580E+00  0.1491482E+06  0.1706729E+01
  0.1566667E+01  0.2746395E+06 -0.1450578E+01  0.1014777E+06 -0.4827392E+00  0.1494632E+06  0.1702438E+01
  0.1597619E+01  0.2698127E+06 -0.1457733E+01  0.9477966E+05 -0.5034310E+00  0.1494653E+06  0.1696153E+01
  0.1628572E+01  0.2642646E+06 -0.1467347E+01  0.8813980E+05 -0.5245789E+00  0.1489297E+06  0.1687324E+01
  0.1659524E+01  0.2579959E+06 -0.1479916E+01  0.8191631E+05 -0.5434851E+00  0.1466479E+06  0.1673456E+01
  0.1690476E+01  0.2511502E+06 -0.1495307E+01  0.7576899E+05 -0.5629793E+00  0.1437404E+06  0.1656003E+01
  0.1721429E+01  0.2439194E+06 -0.1513518E+01  0.6970151E+05 -0.5846583E+00  0.1408010E+06  0.1636176E+01
  0.1752381E+01  0.2361565E+06 -0.1534985E+01  0.6378278E+05 -0.6089795E+00  0.1371798E+06  0.1612299E+01
  0.1783333E+01  0.2279637E+06 -0.1559943E+01  0.5800731E+05 -0.6362554E+00  0.1329409E+06  0.1583566E+01
  0.1814286E+01  0.2194387E+06 -0.1588600E+01  0.5239571E+05 -0.6683139E+00  0.1282731E+06  0.1549585E+01
  0.1845238E+01  0.2107180E+06 -0.1621099E+01  0.4703678E+05 -0.7070416E+00  0.1234619E+06  0.1511068E+01
  0.1876190E+01  0.2017963E+06 -0.1657974E+01  0.4202230E+05 -0.7533652E+00  0.1183720E+06  0.1466476E+01
  0.1907143E+01  0.1928079E+06 -0.1700288E+01  0.3744348E+05 -0.8046442E+00  0.1124275E+06  0.1408514E+01
  0.1938095E+01  0.1838155E+06 -0.1748453E+01  0.3323873E+05 -0.8650434E+00  0.1062689E+06  0.1337793E+01
  0.1969048E+01  0.1749678E+06 -0.1802652E+01  0.2948478E+05 -0.9368331E+00  0.1004805E+06  0.1257464E+01
  0.2000000E+01  0.1663846E+06 -0.1863961E+01  0.2621117E+05 -0.1018663E+01  0.9510041E+05  0.1163344E+01
