VARIABLES="w (rad/s)"
"abs(F   1   1)" "angle(F   1   1)"
"abs(F   1   2)" "angle(F   1   2)"
"abs(F   1   3)" "angle(F   1   3)"
Zone t="Diffraction force - beta =   0.000 deg",I=    64,F=POINT
  0.5000000E-01  0.5587231E+04 -0.1570790E+01  0.5777094E+06 -0.4095935E-04  0.4120740E+04  0.1570798E+01
  0.8095238E-01  0.9122074E+04 -0.1570789E+01  0.5764405E+06 -0.1101514E-03  0.6729762E+04  0.1570809E+01
  0.1119048E+00  0.1272678E+05 -0.1570792E+01  0.5745789E+06 -0.2186224E-03  0.9377022E+04  0.1570796E+01
  0.1428571E+00  0.1645030E+05 -0.1570786E+01  0.5721236E+06 -0.3746188E-03  0.1207794E+05  0.1570812E+01
  0.1738095E+00  0.2031945E+05 -0.1570777E+01  0.5690686E+06 -0.5905305E-03  0.1488181E+05  0.1570814E+01
  0.2047619E+00  0.2439159E+05 -0.1570767E+01  0.5654074E+06 -0.8842651E-03  0.1778335E+05  0.1570826E+01
  0.2357143E+00  0.2871417E+05 -0.1570750E+01  0.5611376E+06 -0.1282313E-02  0.2084407E+05  0.1570840E+01
  0.2666667E+00  0.3333737E+05 -0.1570724E+01  0.5562420E+06 -0.1816439E-02  0.2408292E+05  0.1570870E+01
  0.2976190E+00  0.3834556E+05 -0.1570690E+01  0.5507292E+06 -0.2541395E-02  0.2752444E+05  0.1570899E+01
  0.3285715E+00  0.4380596E+05 -0.1570636E+01  0.5445898E+06 -0.3511316E-02  0.3123569E+05  0.1570954E+01
  0.3595238E+00  0.4978040E+05 -0.1570558E+01  0.5378343E+06 -0.4813773E-02  0.3527739E+05  0.1571034E+01
  0.3904762E+00  0.5637011E+05 -0.1570440E+01  0.5304584E+06 -0.6544925E-02  0.3959794E+05  0.1571152E+01
  0.4214286E+00  0.6365015E+05 -0.1570270E+01  0.5225709E+06 -0.8765234E-02  0.4429538E+05  0.1571321E+01
  0.4523810E+00  0.7163134E+05 -0.1570018E+01  0.5141300E+06 -0.1164362E-01  0.4939554E+05  0.1571571E+01
  0.4833333E+00  0.8029421E+05 -0.1569674E+01  0.5052436E+06 -0.1509654E-01  0.5485722E+05  0.1571916E+01
  0.5142857E+00  0.8966173E+05 -0.1569194E+01  0.4959732E+06 -0.1932476E-01  0.6057409E+05  0.1572397E+01
  0.5452381E+00  0.9969167E+05 -0.1568559E+01  0.4863403E+06 -0.2425663E-01  0.6651349E+05  0.1573034E+01
  0.5761905E+00  0.1102438E+06 -0.1567738E+01  0.4763885E+06 -0.2990265E-01  0.7271799E+05  0.1573854E+01
  0.6071429E+00  0.1212882E+06 -0.1566681E+01  0.4661629E+06 -0.3642692E-01  0.7904304E+05  0.1574909E+01
  0.6380953E+00  0.1328167E+06 -0.1565372E+01  0.4556364E+06 -0.4367027E-01  0.8534028E+05  0.1576214E+01
  0.6690477E+00  0.1447355E+06 -0.1563758E+01  0.4449435E+06 -0.5179028E-01  0.9162063E+05  0.1577826E+01
  0.7000000E+00  0.1570253E+06 -0.1561787E+01  0.4340988E+06 -0.6087966E-01  0.9785791E+05  0.1579795E+01
  0.7309524E+00  0.1696056E+06 -0.1559430E+01  0.4230331E+06 -0.7086197E-01  0.1040608E+06  0.1582147E+01
  0.7619048E+00  0.1823847E+06 -0.1556630E+01  0.4118558E+06 -0.8183601E-01  0.1101185E+06  0.1584942E+01
  0.7928572E+00  0.1954382E+06 -0.1553344E+01  0.4006172E+06 -0.9386335E-01  0.1159085E+06  0.1588217E+01
  0.8238096E+00  0.2086594E+06 -0.1549530E+01  0.3893548E+06 -0.1069734E+00  0.1213780E+06  0.1592019E+01
  0.8547620E+00  0.2220284E+06 -0.1545152E+01  0.3780650E+06 -0.1211840E+00  0.1265759E+06  0.1596377E+01
  0.8857143E+00  0.2353872E+06 -0.1540170E+01  0.3667828E+06 -0.1365314E+00  0.1314283E+06  0.1601336E+01
  0.9166667E+00  0.2487413E+06 -0.1534564E+01  0.3554917E+06 -0.1530536E+00  0.1360052E+06  0.1606909E+01
  0.9476191E+00  0.2619258E+06 -0.1528320E+01  0.3442560E+06 -0.1707980E+00  0.1400862E+06  0.1613108E+01
  0.9785714E+00  0.2749481E+06 -0.1521454E+01  0.3330907E+06 -0.1898097E+00  0.1435648E+06  0.1619913E+01
  0.1009524E+01  0.2876523E+06 -0.1513972E+01  0.3220468E+06 -0.2101572E+00  0.1464910E+06  0.1627319E+01
  0.1040476E+01  0.3000098E+06 -0.1505917E+01  0.3111298E+06 -0.2318695E+00  0.1488230E+06  0.1635273E+01
  0.1071429E+01  0.3118598E+06 -0.1497341E+01  0.3003428E+06 -0.2550023E+00  0.1504545E+06  0.1643720E+01
  0.1102381E+01  0.3231097E+06 -0.1488320E+01  0.2896548E+06 -0.2796015E+00  0.1514562E+06  0.1652573E+01
  0.1133333E+01  0.3336191E+06 -0.1478964E+01  0.2790958E+06 -0.3057933E+00  0.1517988E+06  0.1661704E+01
  0.1164286E+01  0.3432081E+06 -0.1469378E+01  0.2686717E+06 -0.3336697E+00  0.1514831E+06  0.1670999E+01
  0.1195238E+01  0.3518560E+06 -0.1459741E+01  0.2583889E+06 -0.3633496E+00  0.1504466E+06  0.1680272E+01
  0.1226190E+01  0.3594492E+06 -0.1450263E+01  0.2482661E+06 -0.3949963E+00  0.1485530E+06  0.1689295E+01
  0.1257143E+01  0.3658993E+06 -0.1441028E+01  0.2383779E+06 -0.4289935E+00  0.1459347E+06  0.1698002E+01
  0.1288095E+01  0.3712262E+06 -0.1432569E+01  0.2286485E+06 -0.4649347E+00  0.1425051E+06  0.1705838E+01
  0.1319048E+01  0.3753447E+06 -0.1424767E+01  0.2191858E+06 -0.5036421E+00  0.1385589E+06  0.1712926E+01
  0.1350000E+01  0.3781520E+06 -0.1417951E+01  0.2099804E+06 -0.5451337E+00  0.1338839E+06  0.1718861E+01
  0.1380952E+01  0.3798120E+06 -0.1412342E+01  0.2009909E+06 -0.5896998E+00  0.1287997E+06  0.1723512E+01
  0.1411905E+01  0.3798758E+06 -0.1408731E+01  0.1922877E+06 -0.6353457E+00  0.1233018E+06  0.1726044E+01
  0.1442857E+01  0.3792070E+06 -0.1406118E+01  0.1839230E+06 -0.6872306E+00  0.1173016E+06  0.1727412E+01
  0.1473810E+01  0.3774624E+06 -0.1405335E+01  0.1759597E+06 -0.7434765E+00  0.1109871E+06  0.1726801E+01
  0.1504762E+01  0.3747262E+06 -0.1406553E+01  0.1684689E+06 -0.8043697E+00  0.1044157E+06  0.1723974E+01
  0.1535714E+01  0.3710982E+06 -0.1409840E+01  0.1615735E+06 -0.8703560E+00  0.9780405E+05  0.1719133E+01
  0.1566667E+01  0.3666050E+06 -0.1415379E+01  0.1553749E+06 -0.9414210E+00  0.9100445E+05  0.1711783E+01
  0.1597619E+01  0.3614961E+06 -0.1423245E+01  0.1499579E+06 -0.1017948E+01  0.8434177E+05  0.1702375E+01
  0.1628572E+01  0.3557731E+06 -0.1433571E+01  0.1454592E+06 -0.1099217E+01  0.7764866E+05  0.1690363E+01
  0.1659524E+01  0.3495497E+06 -0.1446335E+01  0.1420039E+06 -0.1184498E+01  0.7108987E+05  0.1676230E+01
  0.1690476E+01  0.3429687E+06 -0.1461613E+01  0.1396294E+06 -0.1272871E+01  0.6472810E+05  0.1660212E+01
  0.1721429E+01  0.3360864E+06 -0.1479486E+01  0.1384456E+06 -0.1362226E+01  0.5846175E+05  0.1641735E+01
  0.1752381E+01  0.3290429E+06 -0.1499803E+01  0.1384905E+06 -0.1450460E+01  0.5251249E+05  0.1622479E+01
  0.1783333E+01  0.3218657E+06 -0.1522636E+01  0.1396603E+06 -0.1535378E+01  0.4676739E+05  0.1602245E+01
  0.1814286E+01  0.3146439E+06 -0.1547910E+01  0.1418242E+06 -0.1615048E+01  0.4127704E+05  0.1582272E+01
  0.1845238E+01  0.3074832E+06 -0.1575588E+01  0.1447389E+06 -0.1688349E+01  0.3608863E+05  0.1563923E+01
  0.1876190E+01  0.3003765E+06 -0.1605698E+01  0.1481683E+06 -0.1754645E+01  0.3106130E+05  0.1547284E+01
  0.1907143E+01  0.2933972E+06 -0.1637974E+01  0.1518804E+06 -0.1813385E+01  0.2638150E+05  0.1538514E+01
  0.1938095E+01  0.2865980E+06 -0.1672423E+01  0.1555576E+06 -0.1865546E+01  0.2197888E+05  0.1541526E+01
  0.1969048E+01  0.2799848E+06 -0.1709057E+01  0.1589904E+06 -0.1911972E+01  0.1777401E+05  0.1562492E+01
  0.2000000E+01  0.2736088E+06 -0.1747730E+01  0.1620333E+06 -0.1953757E+01  0.1379393E+05  0.1615575E+01
