VARIABLES="w (rad/s)"
"A   1   1" "B   1   1"
"A   1   2" "B   1   2"
"A   1   3" "B   1   3"
Zone t="Motion of body    1 in DoF   1",I=    64,F=POINT
  0.5000000E-01  0.2015798E+05  0.5523682E-03  0.3147125E-03  0.3368909E-06 -0.1141086E+05 -0.8802938E-04
  0.8095238E-01  0.2020683E+05  0.2400110E-02 -0.1507927E-02 -0.7390940E-05 -0.1144258E+05 -0.4237323E-03
  0.1119048E+00  0.2019237E+05  0.6724630E-02  0.2727103E-03 -0.6772971E-06 -0.1137532E+05 -0.1142948E-02
  0.1428571E+00  0.2022472E+05  0.1515250E-01 -0.2363205E-02 -0.2445649E-04 -0.1137655E+05 -0.2593337E-02
  0.1738095E+00  0.2028192E+05  0.3024132E-01 -0.1415618E-02 -0.3991998E-05 -0.1139935E+05 -0.5194978E-02
  0.2047619E+00  0.2035654E+05  0.5604958E-01  0.9687557E-03  0.1991261E-04 -0.1143924E+05 -0.9769173E-02
  0.2357143E+00  0.2032099E+05  0.9882483E-01  0.1375603E-03  0.6269198E-05 -0.1142583E+05 -0.1733626E-01
  0.2666667E+00  0.2042785E+05  0.1693357E+00  0.4220009E-03  0.3290945E-04 -0.1147211E+05 -0.3000026E-01
  0.2976190E+00  0.2045404E+05  0.2848333E+00  0.2717285E-02  0.3796490E-04 -0.1149155E+05 -0.5086565E-01
  0.3285715E+00  0.2047071E+05  0.4728532E+00 -0.2890877E-02 -0.1027961E-03 -0.1147921E+05 -0.8504976E-01
  0.3595238E+00  0.2057771E+05  0.7804382E+00  0.1114094E-02  0.1898222E-04 -0.1153994E+05 -0.1421682E+00
  0.3904762E+00  0.2064180E+05  0.1278183E+01 -0.2207872E-02 -0.6414205E-04 -0.1155442E+05 -0.2351188E+00
  0.4214286E+00  0.2065873E+05  0.2065182E+01  0.7422495E-03  0.3900006E-04 -0.1155957E+05 -0.3843271E+00
  0.4523810E+00  0.2074575E+05  0.3311499E+01 -0.1492550E-02 -0.1184270E-04 -0.1157115E+05 -0.6230245E+00
  0.4833333E+00  0.2089860E+05  0.5188174E+01  0.4340862E-03 -0.2294034E-04 -0.1165692E+05 -0.9938916E+00
  0.5142857E+00  0.2098134E+05  0.7985737E+01  0.2447764E-02  0.1521409E-03 -0.1169034E+05 -0.1551613E+01
  0.5452381E+00  0.2104914E+05  0.1200068E+02  0.2805552E-02  0.2253503E-03 -0.1170443E+05 -0.2362578E+01
  0.5761905E+00  0.2112319E+05  0.1761579E+02 -0.8077069E-03  0.1718104E-04 -0.1174067E+05 -0.3522438E+01
  0.6071429E+00  0.2130142E+05  0.2543192E+02  0.1884909E-03  0.8046627E-06 -0.1179319E+05 -0.5162480E+01
  0.6380953E+00  0.2146116E+05  0.3590860E+02 -0.2176085E-02 -0.3626645E-03 -0.1187595E+05 -0.7425954E+01
  0.6690477E+00  0.2154760E+05  0.4978484E+02  0.5131514E-03  0.3370643E-03 -0.1190843E+05 -0.1046503E+02
  0.7000000E+00  0.2162523E+05  0.6798383E+02 -0.1569475E-02 -0.3353953E-03 -0.1190467E+05 -0.1447952E+02
  0.7309524E+00  0.2182750E+05  0.9160284E+02 -0.1346451E-02 -0.6439686E-03 -0.1200931E+05 -0.1989020E+02
  0.7619048E+00  0.2203226E+05  0.1218461E+03  0.1221657E-02  0.3353357E-03 -0.1209461E+05 -0.2695077E+02
  0.7928572E+00  0.2221970E+05  0.1601264E+03 -0.1183587E-02 -0.4448891E-03 -0.1217496E+05 -0.3609392E+02
  0.8238096E+00  0.2241360E+05  0.2081339E+03 -0.2407890E-02 -0.7927418E-03 -0.1222287E+05 -0.4766278E+02
  0.8547620E+00  0.2257925E+05  0.2676035E+03  0.1874408E-03  0.3321171E-03 -0.1229894E+05 -0.6243622E+02
  0.8857143E+00  0.2273203E+05  0.3406410E+03 -0.2773654E-02 -0.1019955E-02 -0.1235695E+05 -0.8087833E+02
  0.9166667E+00  0.2297002E+05  0.4301740E+03  0.2255526E-02  0.1363277E-02 -0.1245906E+05 -0.1040067E+03
  0.9476191E+00  0.2326806E+05  0.5391412E+03 -0.1151310E-02 -0.1148701E-02 -0.1255707E+05 -0.1325347E+03
  0.9785714E+00  0.2356024E+05  0.6704310E+03 -0.1075912E-02 -0.8282661E-03 -0.1269875E+05 -0.1682005E+03
  0.1009524E+01  0.2381616E+05  0.8270767E+03 -0.2962508E-02 -0.2252579E-02 -0.1279812E+05 -0.2113790E+03
  0.1040476E+01  0.2406647E+05  0.1013089E+04  0.3416991E-02  0.2373695E-02 -0.1291960E+05 -0.2642373E+03
  0.1071429E+01  0.2431229E+05  0.1232274E+04 -0.3560384E-03 -0.4262924E-03 -0.1299320E+05 -0.3266216E+03
  0.1102381E+01  0.2457963E+05  0.1489496E+04 -0.7612916E-03 -0.1213074E-02 -0.1310112E+05 -0.4017559E+03
  0.1133333E+01  0.2486128E+05  0.1788959E+04  0.6731819E-04 -0.7686615E-03 -0.1323809E+05 -0.4913502E+03
  0.1164286E+01  0.2520103E+05  0.2136291E+04  0.7994482E-03  0.7095337E-03 -0.1338422E+05 -0.5961983E+03
  0.1195238E+01  0.2553470E+05  0.2537193E+04  0.2655394E-02  0.3276825E-02 -0.1355578E+05 -0.7220786E+03
  0.1226190E+01  0.2586068E+05  0.2996870E+04 -0.1007969E-02 -0.5798340E-03 -0.1369840E+05 -0.8679066E+03
  0.1257143E+01  0.2615413E+05  0.3520369E+04 -0.1116666E-02 -0.2819061E-02 -0.1380901E+05 -0.1035896E+04
  0.1288095E+01  0.2650796E+05  0.4118342E+04  0.6633766E-03  0.2292633E-02 -0.1400444E+05 -0.1236515E+04
  0.1319048E+01  0.2677707E+05  0.4788094E+04  0.1885590E-02  0.3299713E-02 -0.1414648E+05 -0.1463701E+04
  0.1350000E+01  0.2701284E+05  0.5536778E+04  0.6555628E-03 -0.2174377E-03 -0.1426909E+05 -0.1721887E+04
  0.1380952E+01  0.2722986E+05  0.6370102E+04 -0.5745724E-03 -0.1701355E-02 -0.1441217E+05 -0.2018200E+04
  0.1411905E+01  0.2737970E+05  0.7283444E+04 -0.9618441E-03 -0.1602173E-02 -0.1450888E+05 -0.2344438E+04
  0.1442857E+01  0.2758979E+05  0.8289425E+04  0.5604961E-03  0.1670837E-02 -0.1459974E+05 -0.2700297E+04
  0.1473810E+01  0.2780791E+05  0.9391952E+04 -0.6626110E-03 -0.3219604E-02 -0.1475264E+05 -0.3105724E+04
  0.1504762E+01  0.2795218E+05  0.1058625E+05  0.3143504E-03  0.7705688E-03 -0.1488190E+05 -0.3559342E+04
  0.1535714E+01  0.2803371E+05  0.1187015E+05  0.8942359E-04 -0.2624512E-02 -0.1497286E+05 -0.4053263E+04
  0.1566667E+01  0.2805680E+05  0.1324304E+05 -0.1655741E-03 -0.3051758E-03 -0.1504737E+05 -0.4594835E+04
  0.1597619E+01  0.2802194E+05  0.1469976E+05 -0.1623663E-03 -0.1251221E-02 -0.1512009E+05 -0.5189351E+04
  0.1628572E+01  0.2792918E+05  0.1622839E+05  0.7495545E-04 -0.1434326E-02 -0.1514570E+05 -0.5814935E+04
  0.1659524E+01  0.2779242E+05  0.1781538E+05  0.4873180E-03  0.1449585E-02 -0.1512355E+05 -0.6456423E+04
  0.1690476E+01  0.2762309E+05  0.1945967E+05  0.7130797E-03 -0.1831055E-03 -0.1512627E+05 -0.7142105E+04
  0.1721429E+01  0.2738679E+05  0.2115482E+05 -0.1861446E-03 -0.2899170E-03 -0.1512589E+05 -0.7883525E+04
  0.1752381E+01  0.2705538E+05  0.2287084E+05  0.3831283E-03  0.1251221E-02 -0.1506500E+05 -0.8644843E+04
  0.1783333E+01  0.2665343E+05  0.2459512E+05  0.8556331E-05  0.6011963E-02 -0.1496023E+05 -0.9418500E+04
  0.1814286E+01  0.2619103E+05  0.2632457E+05  0.7905735E-03  0.1983643E-03 -0.1484228E+05 -0.1022526E+05
  0.1845238E+01  0.2566942E+05  0.2803554E+05  0.7442351E-03  0.1770020E-02 -0.1470396E+05 -0.1105069E+05
  0.1876190E+01  0.2511295E+05  0.2970323E+05 -0.4879714E-03 -0.9155273E-03 -0.1453080E+05 -0.1184919E+05
  0.1907143E+01  0.2451171E+05  0.3131736E+05  0.3360363E-03 -0.2731323E-02 -0.1430531E+05 -0.1260961E+05
  0.1938095E+01  0.2387472E+05  0.3288420E+05  0.2755580E-03 -0.1068115E-03 -0.1407394E+05 -0.1338455E+05
  0.1969048E+01  0.2321617E+05  0.3440320E+05  0.4572102E-03  0.4592896E-02 -0.1386429E+05 -0.1419094E+05
  0.2000000E+01  0.2250425E+05  0.3582558E+05 -0.3738403E-03  0.1800537E-02 -0.1361438E+05 -0.1496233E+05
Zone t="Motion of body    1 in DoF   2",I=    64,F=POINT
  0.5000000E-01 -0.5722046E-04  0.4649162E-05  0.3645203E+05  0.4855781E+02  0.5340576E-03 -0.1549721E-05
  0.8095238E-01  0.1908471E-02 -0.4053116E-05  0.3629793E+05  0.8057658E+02 -0.2827364E-03  0.1668930E-04
  0.1119048E+00  0.2096460E-02  0.7152557E-06  0.3617154E+05  0.1155198E+03 -0.1568084E-02 -0.0000000E+00
  0.1428571E+00  0.8945465E-03 -0.6437302E-05  0.3613214E+05  0.1547678E+03  0.1174927E-02  0.1907349E-05
  0.1738095E+00  0.7901126E-03 -0.6198883E-05  0.3608334E+05  0.2000624E+03  0.2282548E-02 -0.9059906E-05
  0.2047619E+00  0.8010864E-03 -0.1192093E-05  0.3611620E+05  0.2535669E+03  0.3502424E-02 -0.1144409E-04
  0.2357143E+00  0.9710138E-03  0.2193451E-04  0.3621931E+05  0.3183492E+03  0.1488888E-02 -0.1621246E-04
  0.2666667E+00  0.5149841E-03  0.2384186E-05  0.3626212E+05  0.3971693E+03  0.2574920E-02  0.5722046E-05
  0.2976190E+00  0.1320190E-02  0.3337860E-05  0.3642349E+05  0.4957028E+03  0.1025391E-03  0.4768372E-04
  0.3285715E+00 -0.1184215E-02  0.3433228E-04  0.3648853E+05  0.6175428E+03  0.0000000E+00 -0.1144409E-04
  0.3595238E+00 -0.3395333E-03  0.9536743E-06  0.3665191E+05  0.7696035E+03 -0.1273250E-02  0.4577637E-04
  0.3904762E+00 -0.5861607E-03  0.5054474E-04  0.3673026E+05  0.9579275E+03  0.2344643E-03  0.4959106E-04
  0.4214286E+00  0.9594932E-03  0.7629395E-04  0.3682317E+05  0.1181323E+04  0.2679340E-02 -0.1525879E-04
  0.4523810E+00  0.3204345E-03 -0.4768372E-04  0.3686857E+05  0.1451478E+04  0.2630936E-02  0.1564026E-03
  0.4833333E+00  0.8839574E-03 -0.3433228E-04  0.3684770E+05  0.1748308E+04 -0.3788389E-03  0.2250671E-03
  0.5142857E+00 -0.1186795E-03 -0.1525879E-03  0.3684498E+05  0.2085156E+04 -0.2966987E-03 -0.1296997E-03
  0.5452381E+00  0.2588664E-02  0.1945496E-03  0.3668982E+05  0.2446781E+04 -0.1007480E-02 -0.1525879E-04
  0.5761905E+00  0.2118575E-02 -0.1792908E-03  0.3658014E+05  0.2825979E+04 -0.1059288E-02  0.8392334E-04
  0.6071429E+00  0.7539636E-03  0.1525879E-04  0.3638444E+05  0.3232668E+04 -0.2111098E-02  0.2365112E-03
  0.6380953E+00  0.4782606E-04 -0.2975464E-03  0.3615403E+05  0.3645142E+04  0.1626086E-02  0.2670288E-03
  0.6690477E+00  0.3877144E-03 -0.5340576E-04  0.3596301E+05  0.4070823E+04  0.3557850E-02 -0.1525879E-04
  0.7000000E+00  0.2179827E-03 -0.7629395E-05  0.3567306E+05  0.4513091E+04  0.3487723E-03 -0.5340576E-03
  0.7309524E+00  0.5218803E-03  0.3585815E-03  0.3535852E+05  0.4959829E+04  0.3006031E-02 -0.4272461E-03
  0.7619048E+00  0.4606246E-03  0.7629395E-04  0.3507155E+05  0.5410932E+04  0.2403259E-02  0.7629395E-04
  0.7928572E+00  0.2116985E-03  0.1525879E-04  0.3478652E+05  0.5864655E+04 -0.1077738E-02  0.1678467E-03
  0.8238096E+00  0.4815779E-03  0.3890991E-03  0.3438309E+05  0.6322292E+04  0.8149780E-03 -0.4577637E-04
  0.8547620E+00  0.4641392E-03 -0.3433228E-03  0.3400981E+05  0.6775404E+04  0.1999369E-02  0.5340576E-03
  0.8857143E+00  0.5340576E-03 -0.8392334E-04  0.3365751E+05  0.7219005E+04  0.3169890E-02 -0.3051758E-04
  0.9166667E+00  0.4827326E-03  0.5798340E-03  0.3330994E+05  0.7651739E+04 -0.2463601E-02  0.1159668E-02
  0.9476191E+00  0.1771246E-03  0.2441406E-03  0.3286012E+05  0.8078175E+04  0.5152717E-03 -0.1525879E-03
  0.9785714E+00 -0.1263027E-02 -0.3509521E-03  0.3244262E+05  0.8489768E+04 -0.2058266E-02  0.1281738E-02
  0.1009524E+01  0.1723092E-02 -0.1205444E-02  0.3204546E+05  0.8880533E+04 -0.1995159E-02  0.1464844E-02
  0.1040476E+01 -0.6452687E-03  0.2746582E-03  0.3169080E+05  0.9246096E+04  0.1466520E-02  0.2502441E-02
  0.1071429E+01 -0.7120769E-04  0.2441406E-03  0.3124935E+05  0.9596438E+04 -0.4557292E-03  0.1098633E-02
  0.1102381E+01  0.1107333E-02 -0.1068115E-03  0.3080014E+05  0.9925369E+04 -0.1051967E-02  0.9155273E-04
  0.1133333E+01  0.7943546E-03 -0.4577637E-04  0.3038185E+05  0.1022821E+05 -0.8616728E-03 -0.6713867E-03
  0.1164286E+01  0.9305052E-03  0.1525879E-04  0.2999184E+05  0.1049996E+05 -0.2096913E-02  0.8239746E-03
  0.1195238E+01 -0.2297937E-03  0.1373291E-02  0.2964373E+05  0.1073853E+05 -0.1480893E-02  0.6713867E-03
  0.1226190E+01  0.2488812E-03 -0.5340576E-03  0.2925994E+05  0.1095186E+05 -0.3982100E-03  0.1556396E-02
  0.1257143E+01 -0.3519925E-03 -0.3814697E-03  0.2883706E+05  0.1115127E+05  0.1165217E-02 -0.2136230E-03
  0.1288095E+01 -0.5449165E-03 -0.2243042E-02  0.2845024E+05  0.1130563E+05  0.3316883E-03  0.3723145E-02
  0.1319048E+01 -0.2255767E-03 -0.1831055E-02  0.2809071E+05  0.1143418E+05  0.1897158E-02 -0.8850098E-03
  0.1350000E+01 -0.4295066E-03 -0.7629395E-03  0.2776566E+05  0.1152708E+05  0.2079716E-02  0.1068115E-02
  0.1380952E+01  0.2104924E-02  0.3662109E-03  0.2748318E+05  0.1158460E+05  0.5745724E-03  0.1586914E-02
  0.1411905E+01  0.6106088E-03  0.1342773E-02  0.2717009E+05  0.1161273E+05  0.1210410E-02 -0.2044678E-02
  0.1442857E+01 -0.1480556E-03 -0.6103516E-04  0.2682175E+05  0.1161836E+05  0.1269048E-02  0.2441406E-02
  0.1473810E+01 -0.6108445E-03  0.3051758E-03  0.2651828E+05  0.1160432E+05  0.8696770E-03 -0.1312256E-02
  0.1504762E+01  0.1774558E-03 -0.1312256E-02  0.2624106E+05  0.1156085E+05  0.7301040E-03  0.3143311E-02
  0.1535714E+01  0.7700365E-03 -0.6713867E-03  0.2599596E+05  0.1148650E+05  0.1112827E-02  0.5493164E-02
  0.1566667E+01  0.2434913E-05  0.4150391E-02  0.2578804E+05  0.1138743E+05  0.6622964E-03 -0.2136230E-03
  0.1597619E+01  0.8428718E-03  0.1129150E-02  0.2562012E+05  0.1126517E+05 -0.6112612E-03 -0.4852295E-02
  0.1628572E+01  0.6863109E-03 -0.2014160E-02  0.2542162E+05  0.1111525E+05  0.0000000E+00  0.3662109E-02
  0.1659524E+01  0.6896009E-04 -0.1068115E-02  0.2518680E+05  0.1093667E+05  0.8091318E-03 -0.9155273E-03
  0.1690476E+01  0.8631424E-03 -0.6103516E-04  0.2499286E+05  0.1075235E+05  0.1191475E-02  0.4486084E-02
  0.1721429E+01  0.1568933E-02  0.1525879E-02  0.2482592E+05  0.1055688E+05 -0.1205508E-02 -0.7629395E-03
  0.1752381E+01  0.4412574E-03  0.7629395E-03  0.2468278E+05  0.1034006E+05 -0.5224477E-03  0.3875732E-02
  0.1783333E+01  0.9123188E-03 -0.7019043E-03  0.2456873E+05  0.1010465E+05  0.1950843E-02  0.3509521E-02
  0.1814286E+01 -0.3679531E-04 -0.1220703E-03  0.2449107E+05  0.9870468E+04 -0.1682071E-02 -0.2410889E-02
  0.1845238E+01  0.5829842E-03  0.3509521E-02  0.2444272E+05  0.9628493E+04  0.8930822E-03 -0.8544922E-03
  0.1876190E+01 -0.8742822E-04 -0.1525879E-03  0.2436987E+05  0.9359088E+04 -0.3578457E-03  0.6408691E-03
  0.1907143E+01 -0.1172127E-02  0.1037598E-02  0.2425842E+05  0.9052200E+04  0.1600173E-03  0.3662109E-03
  0.1938095E+01 -0.4940361E-03 -0.4577637E-03  0.2417139E+05  0.8741736E+04  0.1007755E-02  0.2319336E-02
  0.1969048E+01  0.9686656E-04  0.9155273E-04  0.2411232E+05  0.8456531E+04  0.5579514E-03 -0.4119873E-02
  0.2000000E+01 -0.1220703E-03 -0.1312256E-02  0.2407095E+05  0.8168406E+04 -0.1098633E-02  0.1068115E-02
Zone t="Motion of body    1 in DoF   3",I=    64,F=POINT
  0.5000000E-01 -0.1149077E+05 -0.9542312E-04  0.2536774E-02  0.2925642E-05  0.3295839E+05  0.1064793E-04
  0.8095238E-01 -0.1149877E+05 -0.4328468E-03  0.7421830E-02  0.1915703E-04  0.3308440E+05  0.7932467E-04
  0.1119048E+00 -0.1144039E+05 -0.1178394E-02 -0.3306612E-02 -0.8547768E-06  0.3291133E+05  0.2041077E-03
  0.1428571E+00 -0.1142881E+05 -0.2659922E-02  0.7797241E-02  0.4825969E-04  0.3294117E+05  0.4594119E-03
  0.1738095E+00 -0.1147940E+05 -0.5315783E-02  0.1316854E-03 -0.6888658E-05  0.3288208E+05  0.8809057E-03
  0.2047619E+00 -0.1152676E+05 -0.1001527E-01 -0.3167086E-03 -0.7082650E-05  0.3289494E+05  0.1838472E-02
  0.2357143E+00 -0.1148609E+05 -0.1778341E-01  0.4353378E-02  0.4232793E-04  0.3296328E+05  0.3129979E-02
  0.2666667E+00 -0.1156563E+05 -0.3064649E-01 -0.1344681E-02 -0.5803682E-05  0.3291000E+05  0.5424833E-02
  0.2976190E+00 -0.1156003E+05 -0.5195728E-01  0.2819824E-03 -0.6416824E-04  0.3301092E+05  0.9371785E-02
  0.3285715E+00 -0.1156254E+05 -0.8700857E-01  0.4876178E-03  0.5616155E-04  0.3289961E+05  0.1569219E-01
  0.3595238E+00 -0.1161684E+05 -0.1449336E+00  0.1824991E-02  0.7419777E-04  0.3301298E+05  0.2624786E-01
  0.3904762E+00 -0.1165273E+05 -0.2398244E+00  0.5959301E-02  0.1416982E-03  0.3293222E+05  0.4381185E-01
  0.4214286E+00 -0.1163859E+05 -0.3919235E+00 -0.3729351E-02 -0.1734681E-03  0.3296593E+05  0.7272260E-01
  0.4523810E+00 -0.1165209E+05 -0.6361473E+00  0.3069426E-02  0.9639189E-05  0.3291802E+05  0.1196486E+00
  0.4833333E+00 -0.1176282E+05 -0.1010281E+01  0.5082755E-02  0.3362941E-03  0.3296852E+05  0.1935619E+00
  0.5142857E+00 -0.1177148E+05 -0.1576583E+01 -0.7105934E-02 -0.5114432E-03  0.3306914E+05  0.3068985E+00
  0.5452381E+00 -0.1180071E+05 -0.2401777E+01 -0.2630642E-02 -0.1512282E-03  0.3297846E+05  0.4733986E+00
  0.5761905E+00 -0.1181871E+05 -0.3577598E+01 -0.4157704E-02 -0.3640987E-03  0.3304471E+05  0.7152636E+00
  0.6071429E+00 -0.1188499E+05 -0.5243869E+01  0.2035702E-02 -0.3538281E-04  0.3301995E+05  0.1064902E+01
  0.6380953E+00 -0.1198770E+05 -0.7516838E+01  0.1817390E-02  0.4771352E-04  0.3305555E+05  0.1554607E+01
  0.6690477E+00 -0.1198932E+05 -0.1059388E+02 -0.1733311E-02 -0.1537055E-03  0.3313792E+05  0.2230296E+01
  0.7000000E+00 -0.1197525E+05 -0.1469796E+02  0.1133510E-02  0.3243238E-03  0.3306336E+05  0.3135870E+01
  0.7309524E+00 -0.1210469E+05 -0.2010843E+02 -0.2692903E-02 -0.5548149E-03  0.3309486E+05  0.4360188E+01
  0.7619048E+00 -0.1218868E+05 -0.2720486E+02 -0.1502037E-02 -0.1460314E-05  0.3316680E+05  0.6013448E+01
  0.7928572E+00 -0.1225327E+05 -0.3639808E+02 -0.9622659E-03  0.1869202E-03  0.3328241E+05  0.8210415E+01
  0.8238096E+00 -0.1231698E+05 -0.4812029E+02  0.3519224E-02  0.9679198E-03  0.3317981E+05  0.1103898E+02
  0.8547620E+00 -0.1239137E+05 -0.6292471E+02  0.3570301E-03 -0.2746582E-03  0.3321571E+05  0.1471098E+02
  0.8857143E+00 -0.1242310E+05 -0.8150820E+02  0.4530876E-02  0.2052367E-02  0.3328139E+05  0.1938105E+02
  0.9166667E+00 -0.1251607E+05 -0.1046859E+03 -0.5676270E-02 -0.2633452E-02  0.3337649E+05  0.2524444E+02
  0.9476191E+00 -0.1264236E+05 -0.1333952E+03  0.4605240E-02  0.8602142E-03  0.3330753E+05  0.3269473E+02
  0.9785714E+00 -0.1280008E+05 -0.1687636E+03  0.3149770E-02  0.2065420E-02  0.3338155E+05  0.4227360E+02
  0.1009524E+01 -0.1288965E+05 -0.2120927E+03  0.3990318E-02  0.1887083E-02  0.3343332E+05  0.5427388E+02
  0.1040476E+01 -0.1298173E+05 -0.2648716E+03 -0.1290537E-02  0.1494884E-03  0.3359864E+05  0.6931805E+02
  0.1071429E+01 -0.1305292E+05 -0.3279119E+03  0.1139323E-02 -0.5552769E-03  0.3354258E+05  0.8719212E+02
  0.1102381E+01 -0.1316569E+05 -0.4030707E+03  0.2214666E-03 -0.8821487E-04  0.3352916E+05  0.1090521E+03
  0.1133333E+01 -0.1330361E+05 -0.4917753E+03  0.1130946E-02 -0.6875992E-03  0.3359134E+05  0.1351345E+03
  0.1164286E+01 -0.1345413E+05 -0.5961802E+03 -0.1913433E-02 -0.2061844E-02  0.3365900E+05  0.1654360E+03
  0.1195238E+01 -0.1361166E+05 -0.7207261E+03 -0.6536354E-02 -0.6400585E-02  0.3384062E+05  0.2045333E+03
  0.1226190E+01 -0.1375507E+05 -0.8664003E+03  0.1617728E-02  0.9346008E-03  0.3389740E+05  0.2504081E+03
  0.1257143E+01 -0.1388084E+05 -0.1035339E+04 -0.2476085E-02 -0.2243042E-02  0.3384327E+05  0.3045464E+03
  0.1288095E+01 -0.1407908E+05 -0.1232648E+04 -0.1800594E-02 -0.1821518E-02  0.3394612E+05  0.3712173E+03
  0.1319048E+01 -0.1421209E+05 -0.1458314E+04  0.6709460E-03  0.1248360E-02  0.3401238E+05  0.4477864E+03
  0.1350000E+01 -0.1431429E+05 -0.1716339E+04  0.2599645E-02  0.1363754E-02  0.3408420E+05  0.5366549E+03
  0.1380952E+01 -0.1442728E+05 -0.2010414E+04 -0.9723532E-03  0.9250641E-03  0.3424536E+05  0.6418269E+03
  0.1411905E+01 -0.1450510E+05 -0.2339522E+04  0.6160125E-02  0.4440308E-02  0.3429136E+05  0.7573842E+03
  0.1442857E+01 -0.1461223E+05 -0.2697808E+04  0.5012739E-02  0.5092621E-02  0.3420748E+05  0.8780291E+03
  0.1473810E+01 -0.1478320E+05 -0.3098024E+04 -0.3105989E-03 -0.1972198E-02  0.3428319E+05  0.1019674E+04
  0.1504762E+01 -0.1491307E+05 -0.3544800E+04  0.8923494E-03  0.1792908E-03  0.3437263E+05  0.1189194E+04
  0.1535714E+01 -0.1499908E+05 -0.4036417E+04  0.2424373E-02  0.1064301E-02  0.3442998E+05  0.1376109E+04
  0.1566667E+01 -0.1505880E+05 -0.4575759E+04  0.1675220E-02  0.4562378E-02  0.3451903E+05  0.1587949E+04
  0.1597619E+01 -0.1510766E+05 -0.5164857E+04  0.5157516E-03 -0.1060486E-02  0.3467093E+05  0.1831135E+04
  0.1628572E+01 -0.1512237E+05 -0.5787823E+04  0.5434270E-03  0.8773804E-04  0.3470518E+05  0.2082467E+04
  0.1659524E+01 -0.1511046E+05 -0.6432455E+04  0.1783768E-02 -0.1411438E-03  0.3459820E+05  0.2329074E+04
  0.1690476E+01 -0.1512829E+05 -0.7112004E+04  0.1263686E-02 -0.4638672E-02  0.3460001E+05  0.2598430E+04
  0.1721429E+01 -0.1513388E+05 -0.7834473E+04  0.1808261E-02  0.6027222E-03  0.3465630E+05  0.2912351E+04
  0.1752381E+01 -0.1506865E+05 -0.8583070E+04  0.1201630E-02  0.2197266E-02  0.3466590E+05  0.3240477E+04
  0.1783333E+01 -0.1495561E+05 -0.9352600E+04  0.2053519E-02  0.9918213E-04  0.3464590E+05  0.3577503E+04
  0.1814286E+01 -0.1482395E+05 -0.1014927E+05 -0.1143808E-02 -0.3860474E-02  0.3467956E+05  0.3947971E+04
  0.1845238E+01 -0.1466867E+05 -0.1096400E+05  0.1471932E-02 -0.2174377E-02  0.3474479E+05  0.4345918E+04
  0.1876190E+01 -0.1449294E+05 -0.1175737E+05  0.5367686E-03  0.5950928E-03  0.3471470E+05  0.4710773E+04
  0.1907143E+01 -0.1427690E+05 -0.1251893E+05 -0.3520380E-03  0.3753662E-02  0.3453251E+05  0.5029738E+04
  0.1938095E+01 -0.1405360E+05 -0.1328905E+05  0.4723851E-03 -0.1693726E-02  0.3438947E+05  0.5382616E+04
  0.1969048E+01 -0.1385610E+05 -0.1406559E+05  0.7594338E-03 -0.2288818E-02  0.3434410E+05  0.5783012E+04
  0.2000000E+01 -0.1361090E+05 -0.1481257E+05 -0.2334595E-02 -0.3822327E-02  0.3427763E+05  0.6174643E+04
