VARIABLES="w (rad/s)"
"abs(F   1   1)" "angle(F   1   1)"
"abs(F   1   2)" "angle(F   1   2)"
"abs(F   1   3)" "angle(F   1   3)"
Zone t="Diffraction force - beta =   0.000 deg",I=    64,F=POINT
  0.5000000E-01  0.4447369E+04 -0.1570789E+01  0.6294314E+06 -0.4595758E-04  0.3788252E+04 -0.1570807E+01
  0.8095238E-01  0.7252991E+04 -0.1570785E+01  0.6280044E+06 -0.1235904E-03  0.6169676E+04 -0.1570799E+01
  0.1119048E+00  0.1011285E+05 -0.1570791E+01  0.6259107E+06 -0.2452818E-03  0.8613251E+04 -0.1570790E+01
  0.1428571E+00  0.1306579E+05 -0.1570786E+01  0.6231478E+06 -0.4202609E-03  0.1115376E+05 -0.1570784E+01
  0.1738095E+00  0.1613557E+05 -0.1570781E+01  0.6197137E+06 -0.6624265E-03  0.1381885E+05 -0.1570781E+01
  0.2047619E+00  0.1936372E+05 -0.1570769E+01  0.6155915E+06 -0.9917773E-03  0.1664735E+05 -0.1570771E+01
  0.2357143E+00  0.2277703E+05 -0.1570754E+01  0.6107811E+06 -0.1437991E-02  0.1965417E+05 -0.1570757E+01
  0.2666667E+00  0.2643777E+05 -0.1570736E+01  0.6052739E+06 -0.2036677E-02  0.2293421E+05 -0.1570738E+01
  0.2976190E+00  0.3039379E+05 -0.1570707E+01  0.5990484E+06 -0.2848760E-02  0.2651466E+05 -0.1570710E+01
  0.3285715E+00  0.3468342E+05 -0.1570667E+01  0.5921104E+06 -0.3934996E-02  0.3041923E+05 -0.1570667E+01
  0.3595238E+00  0.3940000E+05 -0.1570604E+01  0.5844884E+06 -0.5393129E-02  0.3479460E+05 -0.1570602E+01
  0.3904762E+00  0.4458483E+05 -0.1570509E+01  0.5761484E+06 -0.7330206E-02  0.3966938E+05 -0.1570509E+01
  0.4214286E+00  0.5027339E+05 -0.1570372E+01  0.5671941E+06 -0.9812344E-02  0.4505556E+05 -0.1570372E+01
  0.4523810E+00  0.5649760E+05 -0.1570171E+01  0.5576334E+06 -0.1302923E-01  0.5104132E+05 -0.1570174E+01
  0.4833333E+00  0.6328242E+05 -0.1569902E+01  0.5475851E+06 -0.1688507E-01  0.5770143E+05 -0.1569901E+01
  0.5142857E+00  0.7056521E+05 -0.1569527E+01  0.5370582E+06 -0.2160099E-01  0.6490930E+05 -0.1569527E+01
  0.5452381E+00  0.7828545E+05 -0.1569035E+01  0.5260902E+06 -0.2709598E-01  0.7262625E+05 -0.1569034E+01
  0.5761905E+00  0.8642154E+05 -0.1568406E+01  0.5147923E+06 -0.3338354E-01  0.8096550E+05 -0.1568404E+01
  0.6071429E+00  0.9492177E+05 -0.1567605E+01  0.5032189E+06 -0.4064430E-01  0.8984817E+05 -0.1567603E+01
  0.6380953E+00  0.1037186E+06 -0.1566626E+01  0.4912578E+06 -0.4868856E-01  0.9920476E+05 -0.1566622E+01
  0.6690477E+00  0.1127215E+06 -0.1565436E+01  0.4790385E+06 -0.5768827E-01  0.1088936E+06 -0.1565428E+01
  0.7000000E+00  0.1218999E+06 -0.1564003E+01  0.4666662E+06 -0.6775732E-01  0.1189945E+06 -0.1563994E+01
  0.7309524E+00  0.1312569E+06 -0.1562324E+01  0.4540991E+06 -0.7880744E-01  0.1295964E+06 -0.1562311E+01
  0.7619048E+00  0.1407403E+06 -0.1560371E+01  0.4414001E+06 -0.9093300E-01  0.1405942E+06 -0.1560353E+01
  0.7928572E+00  0.1502689E+06 -0.1558128E+01  0.4286083E+06 -0.1041938E+00  0.1518611E+06 -0.1558100E+01
  0.8238096E+00  0.1597875E+06 -0.1555585E+01  0.4157033E+06 -0.1186036E+00  0.1633313E+06 -0.1555546E+01
  0.8547620E+00  0.1692269E+06 -0.1552748E+01  0.4027375E+06 -0.1341959E+00  0.1749832E+06 -0.1552694E+01
  0.8857143E+00  0.1785542E+06 -0.1549630E+01  0.3897792E+06 -0.1510209E+00  0.1868485E+06 -0.1549559E+01
  0.9166667E+00  0.1877134E+06 -0.1546253E+01  0.3768758E+06 -0.1691213E+00  0.1988498E+06 -0.1546164E+01
  0.9476191E+00  0.1966557E+06 -0.1542656E+01  0.3640355E+06 -0.1885150E+00  0.2109051E+06 -0.1542544E+01
  0.9785714E+00  0.2052833E+06 -0.1538885E+01  0.3512343E+06 -0.2092228E+00  0.2229286E+06 -0.1538740E+01
  0.1009524E+01  0.2135231E+06 -0.1535006E+01  0.3384606E+06 -0.2312917E+00  0.2347743E+06 -0.1534816E+01
  0.1040476E+01  0.2212980E+06 -0.1531100E+01  0.3257388E+06 -0.2547629E+00  0.2462774E+06 -0.1530851E+01
  0.1071429E+01  0.2285007E+06 -0.1527269E+01  0.3131206E+06 -0.2797395E+00  0.2574245E+06 -0.1526950E+01
  0.1102381E+01  0.2351289E+06 -0.1523650E+01  0.3005815E+06 -0.3062918E+00  0.2681322E+06 -0.1523252E+01
  0.1133333E+01  0.2410862E+06 -0.1520374E+01  0.2882075E+06 -0.3345291E+00  0.2783167E+06 -0.1519892E+01
  0.1164286E+01  0.2463311E+06 -0.1517607E+01  0.2759148E+06 -0.3645456E+00  0.2878821E+06 -0.1517034E+01
  0.1195238E+01  0.2508345E+06 -0.1515511E+01  0.2637350E+06 -0.3964562E+00  0.2967042E+06 -0.1514845E+01
  0.1226190E+01  0.2545202E+06 -0.1514259E+01  0.2516742E+06 -0.4304996E+00  0.3047528E+06 -0.1513492E+01
  0.1257143E+01  0.2574158E+06 -0.1513990E+01  0.2397632E+06 -0.4672440E+00  0.3119099E+06 -0.1513130E+01
  0.1288095E+01  0.2594585E+06 -0.1515048E+01  0.2279072E+06 -0.5060531E+00  0.3181319E+06 -0.1514101E+01
  0.1319048E+01  0.2606876E+06 -0.1517455E+01  0.2162663E+06 -0.5481560E+00  0.3233587E+06 -0.1516449E+01
  0.1350000E+01  0.2610982E+06 -0.1521466E+01  0.2047800E+06 -0.5937116E+00  0.3276143E+06 -0.1520428E+01
  0.1380952E+01  0.2607464E+06 -0.1527238E+01  0.1934605E+06 -0.6432304E+00  0.3308259E+06 -0.1526224E+01
  0.1411905E+01  0.2600303E+06 -0.1534078E+01  0.1823094E+06 -0.6933099E+00  0.3338500E+06 -0.1533130E+01
  0.1442857E+01  0.2583004E+06 -0.1543633E+01  0.1714811E+06 -0.7532409E+00  0.3351952E+06 -0.1542856E+01
  0.1473810E+01  0.2559244E+06 -0.1555394E+01  0.1610111E+06 -0.8199069E+00  0.3356013E+06 -0.1554884E+01
  0.1504762E+01  0.2529713E+06 -0.1569447E+01  0.1510666E+06 -0.8945583E+00  0.3350761E+06 -0.1569364E+01
  0.1535714E+01  0.2495087E+06 -0.1585935E+01  0.1417286E+06 -0.9785850E+00  0.3337046E+06 -0.1586441E+01
  0.1566667E+01  0.2455875E+06 -0.1604962E+01  0.1332536E+06 -0.1072956E+01  0.3315869E+06 -0.1606253E+01
  0.1597619E+01  0.2413078E+06 -0.1626563E+01  0.1259477E+06 -0.1179036E+01  0.3287283E+06 -0.1628921E+01
  0.1628572E+01  0.2367037E+06 -0.1650808E+01  0.1200874E+06 -0.1295696E+01  0.3252453E+06 -0.1654546E+01
  0.1659524E+01  0.2318675E+06 -0.1677769E+01  0.1158899E+06 -0.1421985E+01  0.3212145E+06 -0.1683271E+01
  0.1690476E+01  0.2268353E+06 -0.1707510E+01  0.1135388E+06 -0.1554495E+01  0.3167512E+06 -0.1715177E+01
  0.1721429E+01  0.2216822E+06 -0.1739963E+01  0.1131839E+06 -0.1687770E+01  0.3118684E+06 -0.1750341E+01
  0.1752381E+01  0.2164518E+06 -0.1775181E+01  0.1147385E+06 -0.1816398E+01  0.3066908E+06 -0.1788832E+01
  0.1783333E+01  0.2111963E+06 -0.1813182E+01  0.1179355E+06 -0.1936006E+01  0.3013187E+06 -0.1830783E+01
  0.1814286E+01  0.2059541E+06 -0.1854006E+01  0.1224013E+06 -0.2043987E+01  0.2958790E+06 -0.1876120E+01
  0.1845238E+01  0.2008017E+06 -0.1897529E+01  0.1277410E+06 -0.2138644E+01  0.2904426E+06 -0.1924993E+01
  0.1876190E+01  0.1957545E+06 -0.1943642E+01  0.1334370E+06 -0.2220232E+01  0.2850348E+06 -0.1977406E+01
  0.1907143E+01  0.1908414E+06 -0.1992353E+01  0.1391497E+06 -0.2291012E+01  0.2797909E+06 -0.2033253E+01
  0.1938095E+01  0.1860753E+06 -0.2043668E+01  0.1445870E+06 -0.2353340E+01  0.2747913E+06 -0.2092345E+01
  0.1969048E+01  0.1814836E+06 -0.2097398E+01  0.1495250E+06 -0.2408834E+01  0.2700749E+06 -0.2154717E+01
  0.2000000E+01  0.1771041E+06 -0.2153210E+01  0.1536771E+06 -0.2459029E+01  0.2656840E+06 -0.2220272E+01
