VARIABLES="w (rad/s)"
"abs(F   1   1)" "angle(F   1   1)"
"abs(F   1   2)" "angle(F   1   2)"
"abs(F   1   3)" "angle(F   1   3)"
Zone t="Diffraction force - beta =   0.000 deg",I=    64,F=POINT
  0.5000000E-01  0.1946510E+04 -0.1570794E+01  0.2210508E+03 -0.3073030E+01  0.3454831E+04  0.1570798E+01
  0.8095238E-01  0.3187562E+04 -0.1570790E+01  0.5702481E+03 -0.3070260E+01  0.5643304E+04  0.1570801E+01
  0.1119048E+00  0.4451548E+04 -0.1570784E+01  0.1080701E+04 -0.3067106E+01  0.7865717E+04  0.1570807E+01
  0.1428571E+00  0.5757504E+04 -0.1570775E+01  0.1753020E+04 -0.3063212E+01  0.1013992E+05  0.1570815E+01
  0.1738095E+00  0.7102590E+04 -0.1570762E+01  0.2593326E+04 -0.3058482E+01  0.1250404E+05  0.1570826E+01
  0.2047619E+00  0.8533582E+04 -0.1570742E+01  0.3605644E+04 -0.3052601E+01  0.1495047E+05  0.1570843E+01
  0.2357143E+00  0.1003112E+05 -0.1570714E+01  0.4793637E+04 -0.3045180E+01  0.1754163E+05  0.1570868E+01
  0.2666667E+00  0.1162375E+05 -0.1570672E+01  0.6171052E+04 -0.3036332E+01  0.2028402E+05  0.1570904E+01
  0.2976190E+00  0.1337920E+05 -0.1570611E+01  0.7738886E+04 -0.3025177E+01  0.2320438E+05  0.1570957E+01
  0.3285715E+00  0.1527378E+05 -0.1570520E+01  0.9506252E+04 -0.3011928E+01  0.2637697E+05  0.1571036E+01
  0.3595238E+00  0.1732157E+05 -0.1570384E+01  0.1147816E+05 -0.2995930E+01  0.2980791E+05  0.1571153E+01
  0.3904762E+00  0.1960427E+05 -0.1570183E+01  0.1366040E+05 -0.2977108E+01  0.3353862E+05  0.1571327E+01
  0.4214286E+00  0.2212400E+05 -0.1569889E+01  0.1599935E+05 -0.2955821E+01  0.3760943E+05  0.1571580E+01
  0.4523810E+00  0.2486755E+05 -0.1569459E+01  0.1854956E+05 -0.2931559E+01  0.4203246E+05  0.1571949E+01
  0.4833333E+00  0.2780665E+05 -0.1568866E+01  0.2123570E+05 -0.2906969E+01  0.4675361E+05  0.1572458E+01
  0.5142857E+00  0.3104934E+05 -0.1568048E+01  0.2404754E+05 -0.2880185E+01  0.5175555E+05  0.1573160E+01
  0.5452381E+00  0.3450080E+05 -0.1566965E+01  0.2697252E+05 -0.2853490E+01  0.5706541E+05  0.1574087E+01
  0.5761905E+00  0.3808369E+05 -0.1565563E+01  0.3000859E+05 -0.2827462E+01  0.6258188E+05  0.1575281E+01
  0.6071429E+00  0.4184638E+05 -0.1563764E+01  0.3314367E+05 -0.2800909E+01  0.6822509E+05  0.1576810E+01
  0.6380953E+00  0.4576133E+05 -0.1561539E+01  0.3635826E+05 -0.2775700E+01  0.7392899E+05  0.1578700E+01
  0.6690477E+00  0.4985619E+05 -0.1558805E+01  0.3962046E+05 -0.2750593E+01  0.7976702E+05  0.1581017E+01
  0.7000000E+00  0.5408395E+05 -0.1555476E+01  0.4294390E+05 -0.2725555E+01  0.8565331E+05  0.1583833E+01
  0.7309524E+00  0.5826891E+05 -0.1551468E+01  0.4633885E+05 -0.2701658E+01  0.9150561E+05  0.1587192E+01
  0.7619048E+00  0.6255832E+05 -0.1546716E+01  0.4978112E+05 -0.2678380E+01  0.9732530E+05  0.1591161E+01
  0.7928572E+00  0.6697584E+05 -0.1541156E+01  0.5322282E+05 -0.2655152E+01  0.1029521E+06  0.1595818E+01
  0.8238096E+00  0.7150045E+05 -0.1534710E+01  0.5666172E+05 -0.2632261E+01  0.1086415E+06  0.1601190E+01
  0.8547620E+00  0.7596796E+05 -0.1527261E+01  0.6008885E+05 -0.2609803E+01  0.1140589E+06  0.1607367E+01
  0.8857143E+00  0.8044901E+05 -0.1518760E+01  0.6352074E+05 -0.2588262E+01  0.1193764E+06  0.1614370E+01
  0.9166667E+00  0.8484694E+05 -0.1509112E+01  0.6694731E+05 -0.2567582E+01  0.1244017E+06  0.1622260E+01
  0.9476191E+00  0.8916838E+05 -0.1498283E+01  0.7033345E+05 -0.2547420E+01  0.1292185E+06  0.1631039E+01
  0.9785714E+00  0.9335293E+05 -0.1486220E+01  0.7365398E+05 -0.2527512E+01  0.1335217E+06  0.1640787E+01
  0.1009524E+01  0.9753885E+05 -0.1472989E+01  0.7691416E+05 -0.2508202E+01  0.1376449E+06  0.1651424E+01
  0.1040476E+01  0.1015076E+06 -0.1458472E+01  0.8008959E+05 -0.2489219E+01  0.1411900E+06  0.1663029E+01
  0.1071429E+01  0.1053269E+06 -0.1442750E+01  0.8318582E+05 -0.2470961E+01  0.1444008E+06  0.1675469E+01
  0.1102381E+01  0.1087954E+06 -0.1425682E+01  0.8620552E+05 -0.2453506E+01  0.1471782E+06  0.1688741E+01
  0.1133333E+01  0.1118274E+06 -0.1407262E+01  0.8912693E+05 -0.2436630E+01  0.1492112E+06  0.1702830E+01
  0.1164286E+01  0.1145141E+06 -0.1387652E+01  0.9197474E+05 -0.2420864E+01  0.1508660E+06  0.1717492E+01
  0.1195238E+01  0.1167011E+06 -0.1366910E+01  0.9471334E+05 -0.2405567E+01  0.1516005E+06  0.1732772E+01
  0.1226190E+01  0.1185006E+06 -0.1345325E+01  0.9734507E+05 -0.2390997E+01  0.1517545E+06  0.1748381E+01
  0.1257143E+01  0.1197792E+06 -0.1322720E+01  0.9988287E+05 -0.2376635E+01  0.1513751E+06  0.1764279E+01
  0.1288095E+01  0.1204929E+06 -0.1299685E+01  0.1022173E+06 -0.2362996E+01  0.1502349E+06  0.1779988E+01
  0.1319048E+01  0.1205742E+06 -0.1275821E+01  0.1044516E+06 -0.2349673E+01  0.1484716E+06  0.1795599E+01
  0.1350000E+01  0.1200781E+06 -0.1251624E+01  0.1065530E+06 -0.2337176E+01  0.1461916E+06  0.1810625E+01
  0.1380952E+01  0.1188822E+06 -0.1227234E+01  0.1085054E+06 -0.2325424E+01  0.1430293E+06  0.1824994E+01
  0.1411905E+01  0.1161542E+06 -0.1204733E+01  0.1097143E+06 -0.2312300E+01  0.1391075E+06  0.1835907E+01
  0.1442857E+01  0.1137612E+06 -0.1180872E+01  0.1113769E+06 -0.2301642E+01  0.1350203E+06  0.1847683E+01
  0.1473810E+01  0.1106782E+06 -0.1157303E+01  0.1128896E+06 -0.2291349E+01  0.1304074E+06  0.1857918E+01
  0.1504762E+01  0.1069179E+06 -0.1134295E+01  0.1142347E+06 -0.2281424E+01  0.1252210E+06  0.1866182E+01
  0.1535714E+01  0.1026190E+06 -0.1112270E+01  0.1154422E+06 -0.2272285E+01  0.1198959E+06  0.1872163E+01
  0.1566667E+01  0.9774769E+05 -0.1091465E+01  0.1164837E+06 -0.2263616E+01  0.1142668E+06  0.1875409E+01
  0.1597619E+01  0.9232859E+05 -0.1072166E+01  0.1173579E+06 -0.2255460E+01  0.1083522E+06  0.1875645E+01
  0.1628572E+01  0.8646024E+05 -0.1054854E+01  0.1180683E+06 -0.2247961E+01  0.1023860E+06  0.1872374E+01
  0.1659524E+01  0.8018349E+05 -0.1039883E+01  0.1186180E+06 -0.2240984E+01  0.9647524E+05  0.1865279E+01
  0.1690476E+01  0.7349657E+05 -0.1027454E+01  0.1190200E+06 -0.2234251E+01  0.9061140E+05  0.1854336E+01
  0.1721429E+01  0.6644475E+05 -0.1018614E+01  0.1192246E+06 -0.2227877E+01  0.8469989E+05  0.1838467E+01
  0.1752381E+01  0.5914586E+05 -0.1014458E+01  0.1192660E+06 -0.2222231E+01  0.7904267E+05  0.1818019E+01
  0.1783333E+01  0.5166574E+05 -0.1016780E+01  0.1191470E+06 -0.2217285E+01  0.7370201E+05  0.1792660E+01
  0.1814286E+01  0.4400328E+05 -0.1028459E+01  0.1188357E+06 -0.2212821E+01  0.6856916E+05  0.1761656E+01
  0.1845238E+01  0.3624806E+05 -0.1054889E+01  0.1183506E+06 -0.2208909E+01  0.6376056E+05  0.1725193E+01
  0.1876190E+01  0.2851030E+05 -0.1107545E+01  0.1176909E+06 -0.2205668E+01  0.5932141E+05  0.1683217E+01
  0.1907143E+01  0.2096031E+05 -0.1213545E+01  0.1168617E+06 -0.2203045E+01  0.5526153E+05  0.1635747E+01
  0.1938095E+01  0.1403404E+05 -0.1448251E+01  0.1159123E+06 -0.2200353E+01  0.5162441E+05  0.1584070E+01
  0.1969048E+01  0.9334750E+04 -0.2022936E+01  0.1147752E+06 -0.2198213E+01  0.4835421E+05  0.1528013E+01
  0.2000000E+01  0.1045106E+05 -0.2845801E+01  0.1134567E+06 -0.2196444E+01  0.4546125E+05  0.1468799E+01
