VARIABLES="w (rad/s)"
"abs(F   1   1)" "angle(F   1   1)"
"abs(F   1   2)" "angle(F   1   2)"
"abs(F   1   3)" "angle(F   1   3)"
Zone t="Diffraction force - beta =   0.000 deg",I=    64,F=POINT
  0.5000000E-01  0.8916789E+04 -0.1570802E+01  0.4022247E+06 -0.2691836E-04  0.3048486E+05  0.1570803E+01
  0.8095238E-01  0.1455464E+05 -0.1570794E+01  0.4005814E+06 -0.7225990E-04  0.4971920E+05  0.1570800E+01
  0.1119048E+00  0.2028958E+05 -0.1570788E+01  0.3981670E+06 -0.1430153E-03  0.6929623E+05  0.1570808E+01
  0.1428571E+00  0.2621500E+05 -0.1570781E+01  0.3949906E+06 -0.2442624E-03  0.8942819E+05  0.1570814E+01
  0.1738095E+00  0.3235009E+05 -0.1570766E+01  0.3910566E+06 -0.3831441E-03  0.1102928E+06  0.1570828E+01
  0.2047619E+00  0.3880018E+05 -0.1570748E+01  0.3863663E+06 -0.5709155E-03  0.1321147E+06  0.1570842E+01
  0.2357143E+00  0.4564596E+05 -0.1570724E+01  0.3809370E+06 -0.8231066E-03  0.1552037E+06  0.1570867E+01
  0.2666667E+00  0.5293060E+05 -0.1570686E+01  0.3747845E+06 -0.1157229E-02  0.1797598E+06  0.1570907E+01
  0.2976190E+00  0.6082459E+05 -0.1570634E+01  0.3679198E+06 -0.1607427E-02  0.2061658E+06  0.1570957E+01
  0.3285715E+00  0.6936372E+05 -0.1570554E+01  0.3603882E+06 -0.2201108E-02  0.2347032E+06  0.1571037E+01
  0.3595238E+00  0.7873882E+05 -0.1570436E+01  0.3522165E+06 -0.2991349E-02  0.2659223E+06  0.1571158E+01
  0.3904762E+00  0.8900092E+05 -0.1570261E+01  0.3434532E+06 -0.4027338E-02  0.2998721E+06  0.1571332E+01
  0.4214286E+00  0.1003260E+06 -0.1570004E+01  0.3341952E+06 -0.5336718E-02  0.3371542E+06  0.1571588E+01
  0.4523810E+00  0.1126955E+06 -0.1569630E+01  0.3244434E+06 -0.7029807E-02  0.3778040E+06  0.1571962E+01
  0.4833333E+00  0.1261178E+06 -0.1569115E+01  0.3143870E+06 -0.9014081E-02  0.4216898E+06  0.1572477E+01
  0.5142857E+00  0.1406703E+06 -0.1568403E+01  0.3039414E+06 -0.1143305E-01  0.4687736E+06  0.1573189E+01
  0.5452381E+00  0.1560365E+06 -0.1567460E+01  0.2933485E+06 -0.1421369E-01  0.5182854E+06  0.1574132E+01
  0.5761905E+00  0.1722498E+06 -0.1566244E+01  0.2825309E+06 -0.1734962E-01  0.5702408E+06  0.1575348E+01
  0.6071429E+00  0.1892392E+06 -0.1564683E+01  0.2715201E+06 -0.2097225E-01  0.6243191E+06  0.1576910E+01
  0.6380953E+00  0.2068676E+06 -0.1562748E+01  0.2605233E+06 -0.2490895E-01  0.6797489E+06  0.1578844E+01
  0.6690477E+00  0.2250530E+06 -0.1560362E+01  0.2493945E+06 -0.2929649E-01  0.7362111E+06  0.1581230E+01
  0.7000000E+00  0.2437242E+06 -0.1557448E+01  0.2382138E+06 -0.3419840E-01  0.7939270E+06  0.1584145E+01
  0.7309524E+00  0.2627047E+06 -0.1553956E+01  0.2272074E+06 -0.3950363E-01  0.8522018E+06  0.1587636E+01
  0.7619048E+00  0.2820933E+06 -0.1549807E+01  0.2162076E+06 -0.4532429E-01  0.9106813E+06  0.1591785E+01
  0.7928572E+00  0.3019731E+06 -0.1544923E+01  0.2052228E+06 -0.5172051E-01  0.9697783E+06  0.1596668E+01
  0.8238096E+00  0.3217984E+06 -0.1539228E+01  0.1945295E+06 -0.5858171E-01  0.1027664E+07  0.1602362E+01
  0.8547620E+00  0.3418605E+06 -0.1532646E+01  0.1840391E+06 -0.6602352E-01  0.1085825E+07  0.1608944E+01
  0.8857143E+00  0.3618972E+06 -0.1525112E+01  0.1737000E+06 -0.7409996E-01  0.1142623E+07  0.1616479E+01
  0.9166667E+00  0.3819652E+06 -0.1516555E+01  0.1634808E+06 -0.8290666E-01  0.1199112E+07  0.1625036E+01
  0.9476191E+00  0.4014948E+06 -0.1506959E+01  0.1537135E+06 -0.9212314E-01  0.1252580E+07  0.1634628E+01
  0.9785714E+00  0.4209931E+06 -0.1496279E+01  0.1442774E+06 -0.1020332E+00  0.1304877E+07  0.1645306E+01
  0.1009524E+01  0.4398453E+06 -0.1484503E+01  0.1350994E+06 -0.1126889E+00  0.1353300E+07  0.1657077E+01
  0.1040476E+01  0.4583485E+06 -0.1471599E+01  0.1261820E+06 -0.1242508E+00  0.1399824E+07  0.1669976E+01
  0.1071429E+01  0.4756932E+06 -0.1457581E+01  0.1175470E+06 -0.1367495E+00  0.1442090E+07  0.1683992E+01
  0.1102381E+01  0.4917413E+06 -0.1442522E+01  0.1094842E+06 -0.1492357E+00  0.1478898E+07  0.1699041E+01
  0.1133333E+01  0.5068776E+06 -0.1426414E+01  0.1017657E+06 -0.1627239E+00  0.1512898E+07  0.1715158E+01
  0.1164286E+01  0.5201865E+06 -0.1409501E+01  0.9435009E+05 -0.1772207E+00  0.1539787E+07  0.1732066E+01
  0.1195238E+01  0.5322676E+06 -0.1391947E+01  0.8726858E+05 -0.1928780E+00  0.1562090E+07  0.1749604E+01
  0.1226190E+01  0.5424488E+06 -0.1373928E+01  0.8049498E+05 -0.2099262E+00  0.1577976E+07  0.1767612E+01
  0.1257143E+01  0.5501928E+06 -0.1355682E+01  0.7420882E+05 -0.2267136E+00  0.1585398E+07  0.1785808E+01
  0.1288095E+01  0.5563722E+06 -0.1337327E+01  0.6832202E+05 -0.2440282E+00  0.1587889E+07  0.1804164E+01
  0.1319048E+01  0.5602531E+06 -0.1319108E+01  0.6278273E+05 -0.2624549E+00  0.1583576E+07  0.1822373E+01
  0.1350000E+01  0.5618138E+06 -0.1301410E+01  0.5753747E+05 -0.2823260E+00  0.1571684E+07  0.1840047E+01
  0.1380952E+01  0.5616370E+06 -0.1284477E+01  0.5262429E+05 -0.3034187E+00  0.1554744E+07  0.1856933E+01
  0.1411905E+01  0.5583695E+06 -0.1269051E+01  0.4801958E+05 -0.3260056E+00  0.1530322E+07  0.1872349E+01
  0.1442857E+01  0.5537292E+06 -0.1254601E+01  0.4373812E+05 -0.3488437E+00  0.1500422E+07  0.1886701E+01
  0.1473810E+01  0.5472217E+06 -0.1241623E+01  0.3980986E+05 -0.3713582E+00  0.1465516E+07  0.1899599E+01
  0.1504762E+01  0.5392682E+06 -0.1230061E+01  0.3618804E+05 -0.3946078E+00  0.1427895E+07  0.1911235E+01
  0.1535714E+01  0.5296317E+06 -0.1220693E+01  0.3281039E+05 -0.4196006E+00  0.1385099E+07  0.1920476E+01
  0.1566667E+01  0.5189637E+06 -0.1213369E+01  0.2967479E+05 -0.4462874E+00  0.1339996E+07  0.1927684E+01
  0.1597619E+01  0.5074563E+06 -0.1207996E+01  0.2679746E+05 -0.4739974E+00  0.1293745E+07  0.1932987E+01
  0.1628572E+01  0.4948279E+06 -0.1204882E+01  0.2414633E+05 -0.5035477E+00  0.1245447E+07  0.1936129E+01
  0.1659524E+01  0.4814084E+06 -0.1204192E+01  0.2169957E+05 -0.5345057E+00  0.1195551E+07  0.1936683E+01
  0.1690476E+01  0.4674225E+06 -0.1205979E+01  0.1946686E+05 -0.5651416E+00  0.1144662E+07  0.1934607E+01
  0.1721429E+01  0.4533062E+06 -0.1209735E+01  0.1745196E+05 -0.5938455E+00  0.1094950E+07  0.1930929E+01
  0.1752381E+01  0.4390680E+06 -0.1215756E+01  0.1561153E+05 -0.6242482E+00  0.1045760E+07  0.1924975E+01
  0.1783333E+01  0.4246494E+06 -0.1224354E+01  0.1391705E+05 -0.6590254E+00  0.9964056E+06  0.1916066E+01
  0.1814286E+01  0.4104209E+06 -0.1234953E+01  0.1237982E+05 -0.6954993E+00  0.9486725E+06  0.1905298E+01
  0.1845238E+01  0.3964482E+06 -0.1247454E+01  0.1099144E+05 -0.7321159E+00  0.9027753E+06  0.1892823E+01
  0.1876190E+01  0.3824853E+06 -0.1262167E+01  0.9736326E+04 -0.7705007E+00  0.8578163E+06  0.1878234E+01
  0.1907143E+01  0.3687571E+06 -0.1279025E+01  0.8602791E+04 -0.8128765E+00  0.8142144E+06  0.1861348E+01
  0.1938095E+01  0.3552806E+06 -0.1298131E+01  0.7579124E+04 -0.8588428E+00  0.7718479E+06  0.1841799E+01
  0.1969048E+01  0.3422337E+06 -0.1318861E+01  0.6656196E+04 -0.9010397E+00  0.7315746E+06  0.1821068E+01
  0.2000000E+01  0.3295663E+06 -0.1341209E+01  0.5828658E+04 -0.9411018E+00  0.6931664E+06  0.1799064E+01
