VARIABLES="w (rad/s)"
"abs(F   1   1)" "angle(F   1   1)"
"abs(F   1   2)" "angle(F   1   2)"
"abs(F   1   3)" "angle(F   1   3)"
Zone t="Diffraction force - beta =   0.000 deg",I=    64,F=POINT
  0.5000000E-01  0.2033843E+03 -0.1570709E+01  0.7930112E+05 -0.5448910E-05  0.1488228E+01 -0.1571129E+01
  0.8095238E-01  0.3317472E+03 -0.1570784E+01  0.7923667E+05 -0.1467190E-04  0.2424796E+01 -0.1570938E+01
  0.1119048E+00  0.4628014E+03 -0.1570795E+01  0.7914174E+05 -0.2917408E-04  0.3398031E+01 -0.1570967E+01
  0.1428571E+00  0.5994907E+03 -0.1570787E+01  0.7901620E+05 -0.5011811E-04  0.4412515E+01 -0.1570915E+01
  0.1738095E+00  0.7413604E+03 -0.1570786E+01  0.7885992E+05 -0.7926779E-04  0.5454711E+01 -0.1570850E+01
  0.2047619E+00  0.8926050E+03 -0.1570788E+01  0.7867274E+05 -0.1191370E-03  0.6581566E+01 -0.1570880E+01
  0.2357143E+00  0.1052437E+04 -0.1570791E+01  0.7845434E+05 -0.1735217E-03  0.7794165E+01 -0.1570855E+01
  0.2666667E+00  0.1225143E+04 -0.1570796E+01  0.7820437E+05 -0.2471420E-03  0.9070902E+01 -0.1570864E+01
  0.2976190E+00  0.1414512E+04 -0.1570790E+01  0.7792255E+05 -0.3477325E-03  0.1053909E+02 -0.1570838E+01
  0.3285715E+00  0.1619936E+04 -0.1570791E+01  0.7760862E+05 -0.4837526E-03  0.1214038E+02 -0.1570824E+01
  0.3595238E+00  0.1847136E+04 -0.1570788E+01  0.7726226E+05 -0.6679840E-03  0.1387144E+02 -0.1570820E+01
  0.3904762E+00  0.2100935E+04 -0.1570783E+01  0.7688390E+05 -0.9155218E-03  0.1584187E+02 -0.1570810E+01
  0.4214286E+00  0.2382182E+04 -0.1570774E+01  0.7647389E+05 -0.1237050E-02  0.1813105E+02 -0.1570797E+01
  0.4523810E+00  0.2690131E+04 -0.1570771E+01  0.7603212E+05 -0.1657897E-02  0.2055763E+02 -0.1570790E+01
  0.4833333E+00  0.3029533E+04 -0.1570755E+01  0.7556084E+05 -0.2171427E-02  0.2327905E+02 -0.1570772E+01
  0.5142857E+00  0.3402072E+04 -0.1570733E+01  0.7506001E+05 -0.2807063E-02  0.2635855E+02 -0.1570753E+01
  0.5452381E+00  0.3800827E+04 -0.1570706E+01  0.7453091E+05 -0.3560780E-02  0.2972968E+02 -0.1570726E+01
  0.5761905E+00  0.4222411E+04 -0.1570673E+01  0.7397329E+05 -0.4438398E-02  0.3327971E+02 -0.1570690E+01
  0.6071429E+00  0.4672981E+04 -0.1570631E+01  0.7338877E+05 -0.5466897E-02  0.3711305E+02 -0.1570643E+01
  0.6380953E+00  0.5149438E+04 -0.1570574E+01  0.7277757E+05 -0.6629785E-02  0.4138590E+02 -0.1570583E+01
  0.6690477E+00  0.5649448E+04 -0.1570502E+01  0.7214020E+05 -0.7955399E-02  0.4602177E+02 -0.1570514E+01
  0.7000000E+00  0.6164367E+04 -0.1570413E+01  0.7147859E+05 -0.9462586E-02  0.5040794E+02 -0.1570423E+01
  0.7309524E+00  0.6696422E+04 -0.1570304E+01  0.7079213E+05 -0.1114809E-01  0.5514510E+02 -0.1570310E+01
  0.7619048E+00  0.7256732E+04 -0.1570169E+01  0.7008172E+05 -0.1303285E-01  0.6053445E+02 -0.1570177E+01
  0.7928572E+00  0.7840350E+04 -0.1570009E+01  0.6935042E+05 -0.1513080E-01  0.6611009E+02 -0.1570016E+01
  0.8238096E+00  0.8443248E+04 -0.1569815E+01  0.6859938E+05 -0.1745249E-01  0.7206601E+02 -0.1569822E+01
  0.8547620E+00  0.9061542E+04 -0.1569581E+01  0.6782871E+05 -0.2000744E-01  0.7830627E+02 -0.1569590E+01
  0.8857143E+00  0.9692991E+04 -0.1569310E+01  0.6703820E+05 -0.2280699E-01  0.8443422E+02 -0.1569315E+01
  0.9166667E+00  0.1034101E+05 -0.1568988E+01  0.6623041E+05 -0.2586261E-01  0.9084095E+02 -0.1568993E+01
  0.9476191E+00  0.1101276E+05 -0.1568615E+01  0.6540820E+05 -0.2918495E-01  0.9786285E+02 -0.1568619E+01
  0.9785714E+00  0.1170530E+05 -0.1568181E+01  0.6457227E+05 -0.3278350E-01  0.1054577E+03 -0.1568186E+01
  0.1009524E+01  0.1241805E+05 -0.1567682E+01  0.6372295E+05 -0.3666605E-01  0.1136063E+03 -0.1567685E+01
  0.1040476E+01  0.1314741E+05 -0.1567110E+01  0.6286205E+05 -0.4084129E-01  0.1219557E+03 -0.1567113E+01
  0.1071429E+01  0.1388815E+05 -0.1566457E+01  0.6199119E+05 -0.4531712E-01  0.1303366E+03 -0.1566460E+01
  0.1102381E+01  0.1463594E+05 -0.1565715E+01  0.6111160E+05 -0.5010194E-01  0.1387421E+03 -0.1565716E+01
  0.1133333E+01  0.1539300E+05 -0.1564878E+01  0.6022369E+05 -0.5520256E-01  0.1475895E+03 -0.1564879E+01
  0.1164286E+01  0.1617089E+05 -0.1563936E+01  0.5932741E+05 -0.6062537E-01  0.1572574E+03 -0.1563938E+01
  0.1195238E+01  0.1696827E+05 -0.1562885E+01  0.5842615E+05 -0.6637729E-01  0.1672733E+03 -0.1562892E+01
  0.1226190E+01  0.1778120E+05 -0.1561715E+01  0.5752107E+05 -0.7246394E-01  0.1776543E+03 -0.1561723E+01
  0.1257143E+01  0.1860103E+05 -0.1560418E+01  0.5661663E+05 -0.7895670E-01  0.1883487E+03 -0.1560426E+01
  0.1288095E+01  0.1944227E+05 -0.1558981E+01  0.5570738E+05 -0.8566210E-01  0.2000228E+03 -0.1558991E+01
  0.1319048E+01  0.2028758E+05 -0.1557400E+01  0.5479830E+05 -0.9278034E-01  0.2121309E+03 -0.1557409E+01
  0.1350000E+01  0.2113943E+05 -0.1555664E+01  0.5388825E+05 -0.1002425E+00  0.2244458E+03 -0.1555670E+01
  0.1380952E+01  0.2199281E+05 -0.1553766E+01  0.5297767E+05 -0.1080526E+00  0.2363675E+03 -0.1553764E+01
  0.1411905E+01  0.2280029E+05 -0.1551776E+01  0.5207792E+05 -0.1161385E+00  0.2461913E+03 -0.1551767E+01
  0.1442857E+01  0.2365795E+05 -0.1549544E+01  0.5117261E+05 -0.1246657E+00  0.2588940E+03 -0.1549540E+01
  0.1473810E+01  0.2452337E+05 -0.1547138E+01  0.5027262E+05 -0.1335625E+00  0.2723788E+03 -0.1547142E+01
  0.1504762E+01  0.2539605E+05 -0.1544553E+01  0.4937641E+05 -0.1428240E+00  0.2865719E+03 -0.1544580E+01
  0.1535714E+01  0.2627651E+05 -0.1541785E+01  0.4848482E+05 -0.1524511E+00  0.3015048E+03 -0.1541823E+01
  0.1566667E+01  0.2715758E+05 -0.1538829E+01  0.4759911E+05 -0.1624416E+00  0.3166385E+03 -0.1538868E+01
  0.1597619E+01  0.2803708E+05 -0.1535683E+01  0.4672079E+05 -0.1728015E+00  0.3320058E+03 -0.1535728E+01
  0.1628572E+01  0.2891012E+05 -0.1532342E+01  0.4584980E+05 -0.1835279E+00  0.3475694E+03 -0.1532392E+01
  0.1659524E+01  0.2977593E+05 -0.1528807E+01  0.4498617E+05 -0.1946203E+00  0.3635555E+03 -0.1528855E+01
  0.1690476E+01  0.3062862E+05 -0.1525079E+01  0.4413209E+05 -0.2060848E+00  0.3797654E+03 -0.1525112E+01
  0.1721429E+01  0.3146284E+05 -0.1521160E+01  0.4328580E+05 -0.2179146E+00  0.3959983E+03 -0.1521161E+01
  0.1752381E+01  0.3228089E+05 -0.1517058E+01  0.4244675E+05 -0.2301135E+00  0.4123782E+03 -0.1517012E+01
  0.1783333E+01  0.3308135E+05 -0.1512785E+01  0.4161512E+05 -0.2426793E+00  0.4292045E+03 -0.1512706E+01
  0.1814286E+01  0.3386611E+05 -0.1508373E+01  0.4079166E+05 -0.2556194E+00  0.4461261E+03 -0.1508300E+01
  0.1845238E+01  0.3463520E+05 -0.1503839E+01  0.3997858E+05 -0.2689387E+00  0.4631926E+03 -0.1503769E+01
  0.1876190E+01  0.3538216E+05 -0.1499198E+01  0.3917634E+05 -0.2826354E+00  0.4802523E+03 -0.1499184E+01
  0.1907143E+01  0.3610629E+05 -0.1494469E+01  0.3838454E+05 -0.2967051E+00  0.4974847E+03 -0.1494512E+01
  0.1938095E+01  0.3680419E+05 -0.1489671E+01  0.3760435E+05 -0.3111509E+00  0.5149714E+03 -0.1489705E+01
  0.1969048E+01  0.3746703E+05 -0.1484819E+01  0.3683707E+05 -0.3259766E+00  0.5327190E+03 -0.1484808E+01
  0.2000000E+01  0.3809729E+05 -0.1479944E+01  0.3607951E+05 -0.3411667E+00  0.5505076E+03 -0.1479901E+01
