VARIABLES="w (rad/s)"
"abs(F   1   1)" "angle(F   1   1)"
"abs(F   1   2)" "angle(F   1   2)"
"abs(F   1   3)" "angle(F   1   3)"
Zone t="Diffraction force - beta =   0.000 deg",I=    64,F=POINT
  0.5000000E-01  0.9453235E+03 -0.1570799E+01  0.2211866E+06 -0.1513818E-04  0.1536616E+02 -0.1570562E+01
  0.8095238E-01  0.1541142E+04 -0.1570801E+01  0.2208863E+06 -0.4074251E-04  0.2513227E+02 -0.1570635E+01
  0.1119048E+00  0.2149953E+04 -0.1570800E+01  0.2204449E+06 -0.8095304E-04  0.3508665E+02 -0.1570700E+01
  0.1428571E+00  0.2783050E+04 -0.1570784E+01  0.2198619E+06 -0.1389135E-03  0.4557444E+02 -0.1570720E+01
  0.1738095E+00  0.3441753E+04 -0.1570796E+01  0.2191362E+06 -0.2193967E-03  0.5635423E+02 -0.1570736E+01
  0.2047619E+00  0.4140154E+04 -0.1570790E+01  0.2182666E+06 -0.3292330E-03  0.6812245E+02 -0.1570738E+01
  0.2357143E+00  0.4877361E+04 -0.1570788E+01  0.2172518E+06 -0.4786342E-03  0.8052141E+02 -0.1570738E+01
  0.2666667E+00  0.5678204E+04 -0.1570786E+01  0.2160897E+06 -0.6801423E-03  0.9400085E+02 -0.1570748E+01
  0.2976190E+00  0.6546561E+04 -0.1570776E+01  0.2147799E+06 -0.9546853E-03  0.1091549E+03 -0.1570755E+01
  0.3285715E+00  0.7491800E+04 -0.1570769E+01  0.2133193E+06 -0.1324277E-02  0.1254320E+03 -0.1570742E+01
  0.3595238E+00  0.8537269E+04 -0.1570758E+01  0.2117112E+06 -0.1823077E-02  0.1437116E+03 -0.1570729E+01
  0.3904762E+00  0.9700817E+04 -0.1570737E+01  0.2099532E+06 -0.2490333E-02  0.1644528E+03 -0.1570714E+01
  0.4214286E+00  0.1098149E+05 -0.1570704E+01  0.2080582E+06 -0.3352175E-02  0.1876869E+03 -0.1570688E+01
  0.4523810E+00  0.1238986E+05 -0.1570665E+01  0.2060202E+06 -0.4475464E-02  0.2132572E+03 -0.1570647E+01
  0.4833333E+00  0.1394629E+05 -0.1570605E+01  0.2038602E+06 -0.5836162E-02  0.2422984E+03 -0.1570591E+01
  0.5142857E+00  0.1564144E+05 -0.1570520E+01  0.2015797E+06 -0.7511728E-02  0.2751925E+03 -0.1570508E+01
  0.5452381E+00  0.1743812E+05 -0.1570406E+01  0.1991840E+06 -0.9483853E-02  0.3079510E+03 -0.1570394E+01
  0.5761905E+00  0.1934743E+05 -0.1570258E+01  0.1966830E+06 -0.1176286E-01  0.3450887E+03 -0.1570246E+01
  0.6071429E+00  0.2139264E+05 -0.1570063E+01  0.1940828E+06 -0.1441592E-01  0.3859701E+03 -0.1570054E+01
  0.6380953E+00  0.2353942E+05 -0.1569819E+01  0.1913831E+06 -0.1738788E-01  0.4295490E+03 -0.1569813E+01
  0.6690477E+00  0.2576363E+05 -0.1569512E+01  0.1885973E+06 -0.2074804E-01  0.4754475E+03 -0.1569506E+01
  0.7000000E+00  0.2805539E+05 -0.1569133E+01  0.1857306E+06 -0.2453806E-01  0.5218474E+03 -0.1569128E+01
  0.7309524E+00  0.3044896E+05 -0.1568671E+01  0.1827825E+06 -0.2873722E-01  0.5720195E+03 -0.1568664E+01
  0.7619048E+00  0.3294123E+05 -0.1568110E+01  0.1797712E+06 -0.3339140E-01  0.6274562E+03 -0.1568106E+01
  0.7928572E+00  0.3552474E+05 -0.1567438E+01  0.1767011E+06 -0.3852414E-01  0.6865634E+03 -0.1567434E+01
  0.8238096E+00  0.3817297E+05 -0.1566639E+01  0.1735812E+06 -0.4415113E-01  0.7470429E+03 -0.1566636E+01
  0.8547620E+00  0.4085785E+05 -0.1565696E+01  0.1704171E+06 -0.5028660E-01  0.8075263E+03 -0.1565693E+01
  0.8857143E+00  0.4359664E+05 -0.1564594E+01  0.1672121E+06 -0.5694742E-01  0.8723248E+03 -0.1564591E+01
  0.9166667E+00  0.4643045E+05 -0.1563316E+01  0.1639723E+06 -0.6414810E-01  0.9420425E+03 -0.1563315E+01
  0.9476191E+00  0.4934182E+05 -0.1561846E+01  0.1607177E+06 -0.7190390E-01  0.1015082E+04 -0.1561848E+01
  0.9785714E+00  0.5231414E+05 -0.1560164E+01  0.1574537E+06 -0.8022464E-01  0.1091497E+04 -0.1560166E+01
  0.1009524E+01  0.5532955E+05 -0.1558252E+01  0.1541842E+06 -0.8911913E-01  0.1172970E+04 -0.1558255E+01
  0.1040476E+01  0.5838500E+05 -0.1556089E+01  0.1509078E+06 -0.9859153E-01  0.1257753E+04 -0.1556091E+01
  0.1071429E+01  0.6144899E+05 -0.1553661E+01  0.1476336E+06 -0.1086502E+00  0.1340513E+04 -0.1553655E+01
  0.1102381E+01  0.6451709E+05 -0.1550948E+01  0.1443661E+06 -0.1193050E+00  0.1424727E+04 -0.1550941E+01
  0.1133333E+01  0.6762614E+05 -0.1547949E+01  0.1411156E+06 -0.1305681E+00  0.1514942E+04 -0.1547947E+01
  0.1164286E+01  0.7076655E+05 -0.1544653E+01  0.1378840E+06 -0.1424442E+00  0.1611435E+04 -0.1544674E+01
  0.1195238E+01  0.7393990E+05 -0.1541052E+01  0.1346750E+06 -0.1549289E+00  0.1713225E+04 -0.1541081E+01
  0.1226190E+01  0.7711241E+05 -0.1537137E+01  0.1314926E+06 -0.1680231E+00  0.1815389E+04 -0.1537169E+01
  0.1257143E+01  0.8023818E+05 -0.1532887E+01  0.1283470E+06 -0.1818818E+00  0.1918731E+04 -0.1532924E+01
  0.1288095E+01  0.8338398E+05 -0.1528339E+01  0.1252366E+06 -0.1960528E+00  0.2026574E+04 -0.1528376E+01
  0.1319048E+01  0.8643173E+05 -0.1523455E+01  0.1221703E+06 -0.2109998E+00  0.2134045E+04 -0.1523470E+01
  0.1350000E+01  0.8940370E+05 -0.1518260E+01  0.1191372E+06 -0.2265522E+00  0.2242003E+04 -0.1518231E+01
  0.1380952E+01  0.9230038E+05 -0.1512773E+01  0.1161332E+06 -0.2426951E+00  0.2352815E+04 -0.1512708E+01
  0.1411905E+01  0.9493472E+05 -0.1507324E+01  0.1132010E+06 -0.2593039E+00  0.2447787E+04 -0.1507257E+01
  0.1442857E+01  0.9766715E+05 -0.1501438E+01  0.1102894E+06 -0.2767079E+00  0.2559774E+04 -0.1501409E+01
  0.1473810E+01  0.1002913E+06 -0.1495392E+01  0.1074289E+06 -0.2947403E+00  0.2670762E+04 -0.1495427E+01
  0.1504762E+01  0.1027942E+06 -0.1489228E+01  0.1046215E+06 -0.3133959E+00  0.2783419E+04 -0.1489248E+01
  0.1535714E+01  0.1051407E+06 -0.1482986E+01  0.1018691E+06 -0.3326758E+00  0.2896531E+04 -0.1482961E+01
  0.1566667E+01  0.1073307E+06 -0.1476727E+01  0.9916330E+05 -0.3525714E+00  0.3009558E+04 -0.1476662E+01
  0.1597619E+01  0.1093502E+06 -0.1470523E+01  0.9650366E+05 -0.3730742E+00  0.3121965E+04 -0.1470446E+01
  0.1628572E+01  0.1111910E+06 -0.1464486E+01  0.9389474E+05 -0.3941978E+00  0.3229776E+04 -0.1464423E+01
  0.1659524E+01  0.1128359E+06 -0.1458698E+01  0.9134155E+05 -0.4159421E+00  0.3333344E+04 -0.1458659E+01
  0.1690476E+01  0.1142729E+06 -0.1453234E+01  0.8884326E+05 -0.4383114E+00  0.3430668E+04 -0.1453278E+01
  0.1721429E+01  0.1155065E+06 -0.1448181E+01  0.8639712E+05 -0.4612887E+00  0.3525721E+04 -0.1448213E+01
  0.1752381E+01  0.1165178E+06 -0.1443612E+01  0.8401512E+05 -0.4848911E+00  0.3618717E+04 -0.1443560E+01
  0.1783333E+01  0.1173097E+06 -0.1439615E+01  0.8167982E+05 -0.5091087E+00  0.3708170E+04 -0.1439512E+01
  0.1814286E+01  0.1178921E+06 -0.1436322E+01  0.7939476E+05 -0.5339543E+00  0.3794657E+04 -0.1436229E+01
  0.1845238E+01  0.1182635E+06 -0.1433815E+01  0.7715844E+05 -0.5594070E+00  0.3876054E+04 -0.1433697E+01
  0.1876190E+01  0.1184266E+06 -0.1432168E+01  0.7497248E+05 -0.5854605E+00  0.3949959E+04 -0.1432099E+01
  0.1907143E+01  0.1183856E+06 -0.1431450E+01  0.7283863E+05 -0.6121187E+00  0.4017571E+04 -0.1431410E+01
  0.1938095E+01  0.1181404E+06 -0.1431724E+01  0.7075899E+05 -0.6394155E+00  0.4076806E+04 -0.1431666E+01
  0.1969048E+01  0.1177093E+06 -0.1433074E+01  0.6872907E+05 -0.6673368E+00  0.4131733E+04 -0.1433044E+01
  0.2000000E+01  0.1171091E+06 -0.1435570E+01  0.6675173E+05 -0.6958684E+00  0.4182245E+04 -0.1435554E+01
