VARIABLES="w (rad/s)"
"A   1   1" "B   1   1"
"A   1   2" "B   1   2"
"A   1   3" "B   1   3"
Zone t="Motion of body    1 in DoF   1",I=    64,F=POINT
  0.5000000E-01  0.1427777E+06  0.2585848E-01 -0.6103516E-02 -0.9396451E-04 -0.1979111E+06 -0.2481960E-01
  0.8095238E-01  0.1430893E+06  0.1139298E+00 -0.8199355E-02 -0.1148088E-03 -0.1979823E+06 -0.1094786E+00
  0.1119048E+00  0.1434510E+06  0.3196619E+00  0.5863271E-02 -0.1325272E-05 -0.1985334E+06 -0.3075499E+00
  0.1428571E+00  0.1434272E+06  0.7198714E+00 -0.1506042E-01 -0.2897894E-03 -0.1985061E+06 -0.6936509E+00
  0.1738095E+00  0.1440487E+06  0.1434791E+01 -0.2642488E-01 -0.5929191E-03 -0.1990170E+06 -0.1383961E+01
  0.2047619E+00  0.1441863E+06  0.2647599E+01  0.1043275E-02 -0.3084280E-03 -0.1993469E+06 -0.2560828E+01
  0.2357143E+00  0.1447876E+06  0.4668355E+01  0.2589370E-03 -0.1357347E-03 -0.2000769E+06 -0.4525442E+01
  0.2666667E+00  0.1454497E+06  0.7975722E+01 -0.1155853E-01 -0.6866157E-03 -0.2007872E+06 -0.7753560E+01
  0.2976190E+00  0.1458608E+06  0.1338572E+02  0.1743164E-02 -0.3807247E-03 -0.2012178E+06 -0.1305130E+02
  0.3285715E+00  0.1465603E+06  0.2217871E+02 -0.2154806E-01 -0.1579225E-02 -0.2021477E+06 -0.2170809E+02
  0.3595238E+00  0.1477738E+06  0.3651309E+02 -0.2478593E-01 -0.1347959E-02 -0.2034145E+06 -0.3586604E+02
  0.3904762E+00  0.1483912E+06  0.5959248E+02  0.1547464E-01  0.1015663E-02 -0.2041500E+06 -0.5877637E+02
  0.4214286E+00  0.1492399E+06  0.9601266E+02  0.4344875E-02 -0.4584789E-03 -0.2050212E+06 -0.9507689E+02
  0.4523810E+00  0.1506584E+06  0.1535661E+03 -0.3696803E-01 -0.5445480E-02 -0.2067458E+06 -0.1527984E+03
  0.4833333E+00  0.1520645E+06  0.2395484E+03 -0.1464844E-01 -0.2892017E-02 -0.2080097E+06 -0.2393342E+03
  0.5142857E+00  0.1533378E+06  0.3674084E+03 -0.1673381E-01 -0.4609585E-02 -0.2097589E+06 -0.3691725E+03
  0.5452381E+00  0.1545241E+06  0.5498652E+03  0.1723910E-01  0.1422882E-02 -0.2112821E+06 -0.5555082E+03
  0.5761905E+00  0.1567328E+06  0.8054640E+03 -0.1663082E-01 -0.4437447E-02 -0.2135992E+06 -0.8176931E+03
  0.6071429E+00  0.1587221E+06  0.1157603E+04 -0.2563476E-01 -0.8861542E-02 -0.2158528E+06 -0.1181628E+04
  0.6380953E+00  0.1605247E+06  0.1626152E+04  0.2104346E-01  0.3263474E-02 -0.2178881E+06 -0.1669248E+04
  0.6690477E+00  0.1624456E+06  0.2245021E+04 -0.1824538E-03 -0.7781982E-03 -0.2201767E+06 -0.2317981E+04
  0.7000000E+00  0.1648234E+06  0.3054281E+04 -0.1098633E-01 -0.8861542E-02 -0.2229085E+06 -0.3170548E+04
  0.7309524E+00  0.1675640E+06  0.4093789E+04  0.1720118E-01  0.5447388E-02 -0.2262013E+06 -0.4276019E+04
  0.7619048E+00  0.1705218E+06  0.5416624E+04 -0.6408691E-03 -0.1579285E-02 -0.2292733E+06 -0.5686788E+04
  0.7928572E+00  0.1733812E+06  0.7077990E+04  0.4618876E-02 -0.5393982E-02 -0.2328262E+06 -0.7480486E+04
  0.8238096E+00  0.1758349E+06  0.9132478E+04  0.1333600E-02  0.8087158E-03 -0.2358498E+06 -0.9715396E+04
  0.8547620E+00  0.1785444E+06  0.1164981E+05 -0.1428121E-02 -0.4455566E-02 -0.2389686E+06 -0.1245977E+05
  0.8857143E+00  0.1819568E+06  0.1472041E+05 -0.8269279E-02 -0.1576233E-01 -0.2429586E+06 -0.1582729E+05
  0.9166667E+00  0.1852714E+06  0.1841387E+05  0.3595525E-02 -0.8087158E-02 -0.2470746E+06 -0.1991873E+05
  0.9476191E+00  0.1883066E+06  0.2280738E+05 -0.4379809E-02 -0.1522827E-01 -0.2507650E+06 -0.2482273E+05
  0.9785714E+00  0.1911343E+06  0.2798749E+05 -0.7359860E-02 -0.2108765E-01 -0.2542503E+06 -0.3065099E+05
  0.1009524E+01  0.1936706E+06  0.3402157E+05  0.2176537E-02 -0.1260376E-01 -0.2570417E+06 -0.3744862E+05
  0.1040476E+01  0.1957988E+06  0.4097753E+05 -0.3167683E-02 -0.8178711E-02 -0.2602974E+06 -0.4543300E+05
  0.1071429E+01  0.1973406E+06  0.4883289E+05  0.5126953E-02  0.9155273E-03 -0.2623708E+06 -0.5442338E+05
  0.1102381E+01  0.1985728E+06  0.5764106E+05 -0.5979599E-02 -0.1196289E-01 -0.2642796E+06 -0.6458343E+05
  0.1133333E+01  0.1992331E+06  0.6740010E+05  0.2154182E-02 -0.8422852E-02 -0.2653206E+06 -0.7589923E+05
  0.1164286E+01  0.1991815E+06  0.7805981E+05 -0.4403518E-02 -0.1196289E-01 -0.2651627E+06 -0.8823882E+05
  0.1195238E+01  0.1983671E+06  0.8959449E+05  0.6127832E-02 -0.8300781E-02 -0.2650019E+06 -0.1019188E+06
  0.1226190E+01  0.1963462E+06  0.1017223E+06  0.4181204E-02  0.1110840E-01 -0.2630339E+06 -0.1162962E+06
  0.1257143E+01  0.1933455E+06  0.1142972E+06  0.1126376E-01 -0.2929688E-02 -0.2597915E+06 -0.1312067E+06
  0.1288095E+01  0.1896598E+06  0.1271295E+06 -0.7581447E-03 -0.1123047E-01 -0.2560810E+06 -0.1467410E+06
  0.1319048E+01  0.1848849E+06  0.1399806E+06  0.9439516E-02  0.8544922E-02 -0.2503633E+06 -0.1620733E+06
  0.1350000E+01  0.1793209E+06  0.1527033E+06  0.7866753E-02  0.1257324E-01 -0.2438318E+06 -0.1774176E+06
  0.1380952E+01  0.1731484E+06  0.1650631E+06  0.3535830E-02 -0.8422852E-02 -0.2370926E+06 -0.1926855E+06
  0.1411905E+01  0.1657880E+06  0.1764441E+06  0.5619763E-02  0.2050781E-01 -0.2286887E+06 -0.2067346E+06
  0.1442857E+01  0.1581580E+06  0.1871024E+06  0.1184445E-02 -0.1342773E-02 -0.2196361E+06 -0.2199605E+06
  0.1473810E+01  0.1501482E+06  0.1968216E+06 -0.1656528E-03 -0.1403809E-01 -0.2103364E+06 -0.2324132E+06
  0.1504762E+01  0.1419445E+06  0.2053809E+06  0.2758171E-02  0.3417969E-02 -0.2004839E+06 -0.2432042E+06
  0.1535714E+01  0.1337420E+06  0.2126788E+06  0.2941043E-02 -0.1000977E-01 -0.1901676E+06 -0.2518982E+06
  0.1566667E+01  0.1257187E+06  0.2189771E+06  0.3116689E-02 -0.9521484E-02 -0.1805152E+06 -0.2600379E+06
  0.1597619E+01  0.1177956E+06  0.2240993E+06  0.3514752E-02 -0.8178711E-02 -0.1711051E+06 -0.2670111E+06
  0.1628572E+01  0.1100487E+06  0.2279504E+06  0.8020233E-02 -0.2233887E-01 -0.1616723E+06 -0.2721608E+06
  0.1659524E+01  0.1025706E+06  0.2306254E+06  0.7907424E-02  0.1293945E-01 -0.1523761E+06 -0.2756843E+06
  0.1690476E+01  0.9547372E+05  0.2323793E+06  0.2599582E-02  0.9033203E-02 -0.1436752E+06 -0.2784998E+06
  0.1721429E+01  0.8878987E+05  0.2332120E+06 -0.5389329E-02 -0.7080078E-02 -0.1354101E+06 -0.2802246E+06
  0.1752381E+01  0.8260203E+05  0.2331207E+06 -0.6965969E-03 -0.9765625E-03 -0.1274602E+06 -0.2797241E+06
  0.1783333E+01  0.7693420E+05  0.2323480E+06 -0.2019294E-02  0.2563477E-02 -0.1201534E+06 -0.2782804E+06
  0.1814286E+01  0.7175284E+05  0.2311536E+06  0.1312016E-02  0.3173828E-02 -0.1137188E+06 -0.2771744E+06
  0.1845238E+01  0.6694409E+05  0.2293921E+06  0.7343120E-02  0.1196289E-01 -0.1077769E+06 -0.2754015E+06
  0.1876190E+01  0.6249203E+05  0.2270234E+06  0.3643520E-02  0.6469727E-02 -0.1021649E+06 -0.2724961E+06
  0.1907143E+01  0.5838440E+05  0.2240941E+06  0.2400259E-02  0.1342773E-02 -0.9683284E+05 -0.2685893E+06
  0.1938095E+01  0.5463573E+05  0.2209280E+06 -0.2109987E-02  0.5493164E-02 -0.9201621E+05 -0.2648127E+06
  0.1969048E+01  0.5125162E+05  0.2175309E+06  0.2045822E-02 -0.6103516E-03 -0.8766376E+05 -0.2608052E+06
  0.2000000E+01  0.4822846E+05  0.2138491E+06 -0.4730225E-03 -0.3417969E-02 -0.8374091E+05 -0.2559952E+06
Zone t="Motion of body    1 in DoF   2",I=    64,F=POINT
  0.5000000E-01 -0.1831055E-02 -0.1001358E-04  0.2175459E+06  0.5036172E+03  0.3540039E-01 -0.5340576E-04
  0.8095238E-01 -0.7351146E-02 -0.4673004E-04  0.2149162E+06  0.8332882E+03  0.1507927E-01  0.6866455E-04
  0.1119048E+00 -0.2045327E-03  0.5245209E-04  0.2135040E+06  0.1189575E+04  0.4254280E-01  0.1144409E-03
  0.1428571E+00  0.9613037E-03 -0.1926422E-03  0.2126071E+06  0.1584835E+04 -0.3417969E-02 -0.1831055E-03
  0.1738095E+00  0.9130190E-02  0.3051758E-04  0.2121966E+06  0.2033563E+04  0.5618579E-02  0.1373291E-03
  0.2047619E+00  0.8495242E-02 -0.3051758E-04  0.2122178E+06  0.2555759E+04 -0.5842342E-01  0.2441406E-03
  0.2357143E+00 -0.1812559E-02  0.4959106E-04  0.2119566E+06  0.3177319E+04 -0.9321732E-01  0.9155273E-03
  0.2666667E+00  0.1682281E-01 -0.1220703E-03  0.2124533E+06  0.3916311E+04 -0.2746582E-01  0.6408691E-03
  0.2976190E+00  0.1599609E-01  0.6103516E-03  0.2123609E+06  0.4825555E+04 -0.2953125E-01 -0.1556396E-02
  0.3285715E+00 -0.1105267E-01 -0.2593994E-03  0.2130542E+06  0.5919518E+04 -0.1634680E-01 -0.9155273E-03
  0.3595238E+00 -0.4498816E-02  0.1365662E-02  0.2128009E+06  0.7258923E+04 -0.5568346E-01 -0.4882812E-03
  0.3904762E+00  0.3048036E-02  0.7171631E-03  0.2132286E+06  0.8868924E+04 -0.3126191E-01 -0.3234863E-02
  0.4214286E+00 -0.6444898E-02 -0.3356934E-03  0.2124505E+06  0.1071894E+05 -0.7531117E-01  0.2319336E-02
  0.4523810E+00 -0.8297568E-02  0.7629395E-03  0.2118568E+06  0.1290401E+05 -0.3669819E-01  0.6103516E-03
  0.4833333E+00 -0.1136517E-01 -0.3509521E-03  0.2105711E+06  0.1518207E+05  0.2424569E-01  0.2441406E-02
  0.5142857E+00 -0.7714166E-02  0.9155273E-04  0.2086433E+06  0.1769144E+05  0.1898872E-02  0.1220703E-03
  0.5452381E+00  0.2798555E-02 -0.1464844E-02  0.2070591E+06  0.2022750E+05 -0.5373226E-02  0.5615234E-02
  0.5761905E+00  0.1302924E-01 -0.1251221E-02  0.2041261E+06  0.2276097E+05 -0.2033832E-01 -0.1953125E-02
  0.6071429E+00  0.9047563E-03  0.6591797E-02  0.2013924E+06  0.2534934E+05 -0.6755514E-01 -0.1953125E-02
  0.6380953E+00  0.1721738E-02  0.4272461E-03  0.1988897E+06  0.2773640E+05  0.9182602E-02 -0.1220703E-02
  0.6690477E+00 -0.3649077E-03 -0.5493164E-02  0.1955035E+06  0.3007427E+05  0.2043483E-01  0.1538086E-01
  0.7000000E+00  0.2615792E-02  0.2441406E-03  0.1924084E+06  0.3233483E+05  0.0000000E+00  0.1293945E-01
  0.7309524E+00 -0.4342045E-02  0.2441406E-03  0.1897486E+06  0.3436686E+05  0.1469615E-01 -0.5615234E-02
  0.7619048E+00  0.7049560E-02 -0.1220703E-02  0.1861735E+06  0.3628268E+05  0.1025391E-01  0.2929688E-02
  0.7928572E+00 -0.8467940E-03 -0.2197266E-02  0.1829400E+06  0.3801736E+05  0.1354870E-01 -0.1049805E-01
  0.8238096E+00  0.8594314E-02  0.1220703E-03  0.1801461E+06  0.3950811E+05  0.7112536E-02 -0.2441406E-02
  0.8547620E+00  0.3713113E-02  0.4028320E-02  0.1771825E+06  0.4078319E+05 -0.1142496E-01  0.7812500E-02
  0.8857143E+00 -0.1171481E-02  0.4089355E-02  0.1739013E+06  0.4188890E+05 -0.3638483E-01 -0.9765625E-03
  0.9166667E+00  0.3628817E-02  0.5859375E-02  0.1711304E+06  0.4274515E+05  0.3196023E-02  0.1123047E-01
  0.9476191E+00  0.1317163E-01  0.4272461E-03  0.1687201E+06  0.4333707E+05 -0.2061087E-01 -0.2441406E-02
  0.9785714E+00 -0.2806726E-02 -0.4699707E-02  0.1663874E+06  0.4367485E+05 -0.1496921E-01  0.5371094E-02
  0.1009524E+01  0.1070131E-01 -0.5432129E-02  0.1635770E+06  0.4380254E+05  0.2902049E-02  0.1171875E-01
  0.1040476E+01 -0.1437189E-02  0.4333496E-02  0.1612271E+06  0.4373885E+05 -0.1877145E-02 -0.1562500E-01
  0.1071429E+01 -0.1367188E-02 -0.1049805E-01  0.1592361E+06  0.4342284E+05  0.2187500E-01  0.1513672E-01
  0.1102381E+01  0.6450216E-02  0.2014160E-01  0.1577987E+06  0.4292924E+05 -0.8858666E-03 -0.4003906E-01
  0.1133333E+01  0.5237355E-02 -0.8178711E-02  0.1561834E+06  0.4221077E+05 -0.8616728E-02  0.4736328E-01
  0.1164286E+01  0.1035351E-02  0.9399414E-02  0.1542943E+06  0.4128777E+05 -0.2516296E-01  0.1513672E-01
  0.1195238E+01  0.5017163E-02  0.8911133E-02  0.1528432E+06  0.4029734E+05 -0.1715793E-01 -0.1806641E-01
  0.1226190E+01  0.7124225E-02  0.1611328E-01  0.1517012E+06  0.3912910E+05 -0.3583890E-01 -0.5224609E-01
  0.1257143E+01  0.1850995E-03  0.8544922E-02  0.1509799E+06  0.3793064E+05  0.7768110E-03 -0.2124023E-01
  0.1288095E+01 -0.1879814E-02 -0.9033203E-02  0.1506716E+06  0.3660534E+05 -0.7581447E-03  0.2587891E-01
  0.1319048E+01 -0.1182831E-02  0.1953125E-01  0.1496557E+06  0.3498807E+05 -0.6663188E-02 -0.1123047E-01
  0.1350000E+01  0.8872703E-03 -0.2929688E-02  0.1488508E+06  0.3329838E+05  0.4340278E-02  0.2148438E-01
  0.1380952E+01  0.3359038E-02  0.5615234E-02  0.1483807E+06  0.3174273E+05  0.1272899E-01 -0.1147461E-01
  0.1411905E+01  0.4560654E-02  0.5004883E-02  0.1481195E+06  0.3013123E+05 -0.2074989E-02 -0.9033203E-02
  0.1442857E+01  0.6112580E-02  0.1123047E-01  0.1481286E+06  0.2855334E+05  0.6768255E-02  0.8789062E-02
  0.1473810E+01  0.6098092E-02  0.5615234E-02  0.1484197E+06  0.2712243E+05  0.5300888E-02 -0.8544922E-02
  0.1504762E+01  0.2393119E-02  0.1257324E-01  0.1485694E+06  0.2551035E+05  0.6489814E-02 -0.1684570E-01
  0.1535714E+01  0.2404501E-02  0.1953125E-02  0.1484227E+06  0.2354849E+05  0.0000000E+00 -0.9765625E-02
  0.1566667E+01  0.3038771E-02  0.8544922E-02  0.1485124E+06  0.2185331E+05  0.3740026E-01 -0.4467773E-01
  0.1597619E+01  0.4240625E-02 -0.7568359E-02  0.1487362E+06  0.2034044E+05  0.0000000E+00  0.2026367E-01
  0.1628572E+01  0.5621659E-03 -0.9521484E-02  0.1490804E+06  0.1889215E+05  0.0000000E+00  0.2197266E-02
  0.1659524E+01  0.5976541E-02 -0.9643555E-02  0.1495446E+06  0.1756474E+05 -0.1647686E-01 -0.1855469E-01
  0.1690476E+01  0.1281738E-02  0.1483154E-01  0.1500962E+06  0.1645052E+05  0.1964128E-01 -0.1806641E-01
  0.1721429E+01  0.5265232E-02  0.1422119E-01  0.1507102E+06  0.1539903E+05  0.6807573E-02 -0.1196289E-01
  0.1752381E+01  0.5886244E-02  0.2947998E-01  0.1510608E+06  0.1385562E+05  0.1114555E-01 -0.3833008E-01
  0.1783333E+01  0.2703800E-02  0.6652832E-02  0.1514689E+06  0.1240211E+05 -0.6571262E-02 -0.2807617E-01
  0.1814286E+01 -0.2792238E-02 -0.8544922E-03  0.1519348E+06  0.1132085E+05 -0.4306103E-02 -0.3662109E-02
  0.1845238E+01  0.3373866E-02  0.3601074E-02  0.1524081E+06  0.1037855E+05 -0.3810484E-01  0.3662109E-02
  0.1876190E+01  0.9434114E-03  0.4272461E-02  0.1529082E+06  0.9503050E+04 -0.1561509E-01  0.2929688E-02
  0.1907143E+01 -0.1280138E-02  0.3112793E-02  0.1534426E+06  0.8693801E+04  0.0000000E+00 -0.1483154E-01
  0.1938095E+01  0.3149234E-04 -0.2563477E-02  0.1539538E+06  0.7987030E+04 -0.4031020E-02  0.5004883E-02
  0.1969048E+01  0.1084905E-02  0.2142334E-01  0.1544558E+06  0.7257663E+04  0.7935309E-02 -0.1672363E-01
  0.2000000E+01  0.1678467E-02  0.1733398E-01  0.1549278E+06  0.6474786E+04 -0.9765625E-03 -0.2185059E-01
Zone t="Motion of body    1 in DoF   3",I=    64,F=POINT
  0.5000000E-01 -0.2013041E+06 -0.2553488E-01  0.6103516E-02  0.7152793E-04  0.6947601E+06  0.2466718E-01
  0.8095238E-01 -0.2014367E+06 -0.1125649E+00 -0.6597182E-01 -0.2923568E-03  0.6954224E+06  0.1082433E+00
  0.1119048E+00 -0.2020654E+06 -0.3162224E+00  0.2072598E-01  0.2992759E-03  0.6962060E+06  0.3052226E+00
  0.1428571E+00 -0.2019526E+06 -0.7133717E+00 -0.8074951E-01 -0.2819393E-03  0.6962057E+06  0.6873299E+00
  0.1738095E+00 -0.2024478E+06 -0.1423525E+01  0.1580225E-01  0.7046014E-03  0.6964095E+06  0.1373353E+01
  0.2047619E+00 -0.2026003E+06 -0.2632562E+01 -0.2980787E-02  0.5663224E-03  0.6981584E+06  0.2547333E+01
  0.2357143E+00 -0.2035938E+06 -0.4650457E+01 -0.8285984E-02 -0.1271069E-04  0.6980214E+06  0.4507689E+01
  0.2666667E+00 -0.2041042E+06 -0.7965747E+01 -0.1144409E-01  0.2478361E-03  0.6999228E+06  0.7745328E+01
  0.2976190E+00 -0.2046908E+06 -0.1340512E+02 -0.5291016E-01 -0.8732677E-03  0.6992892E+06  0.1307469E+02
  0.3285715E+00 -0.2054360E+06 -0.2228355E+02 -0.7430366E-03  0.1615196E-02  0.7018031E+06  0.2181795E+02
  0.3595238E+00 -0.2070503E+06 -0.3680546E+02 -0.2987893E-01 -0.7938147E-03  0.7017783E+06  0.3616166E+02
  0.3904762E+00 -0.2074901E+06 -0.6029572E+02 -0.3970262E-01 -0.2453804E-02  0.7038981E+06  0.5947716E+02
  0.4214286E+00 -0.2085435E+06 -0.9751958E+02 -0.5445577E-01 -0.3401399E-02  0.7033071E+06  0.9656308E+02
  0.4523810E+00 -0.2103203E+06 -0.1566013E+03 -0.3831723E-01 -0.3807545E-02  0.7059508E+06  0.1558052E+03
  0.4833333E+00 -0.2115604E+06 -0.2453936E+03  0.4546067E-02 -0.6852150E-03  0.7064795E+06  0.2451760E+03
  0.5142857E+00 -0.2134174E+06 -0.3779896E+03 -0.1803928E-01  0.5802155E-02  0.7090366E+06  0.3798419E+03
  0.5452381E+00 -0.2145994E+06 -0.5683845E+03 -0.1173154E+00 -0.1118946E-01  0.7127402E+06  0.5741484E+03
  0.5761905E+00 -0.2173842E+06 -0.8364453E+03  0.2118575E-01  0.5657196E-02  0.7131935E+06  0.8490407E+03
  0.6071429E+00 -0.2196061E+06 -0.1208287E+04  0.3860294E-01  0.9952545E-02  0.7161366E+06  0.1233493E+04
  0.6380953E+00 -0.2213575E+06 -0.1706361E+04 -0.4629562E-01 -0.2260208E-02  0.7194827E+06  0.1751912E+04
  0.6690477E+00 -0.2238656E+06 -0.2367112E+04  0.3430132E-01  0.1375580E-01  0.7209688E+06  0.2444492E+04
  0.7000000E+00 -0.2266488E+06 -0.3235894E+04  0.6312779E-01  0.3347778E-01  0.7241649E+06  0.3358371E+04
  0.7309524E+00 -0.2297845E+06 -0.4361423E+04 -0.8016083E-01 -0.2931213E-01  0.7298702E+06  0.4554723E+04
  0.7619048E+00 -0.2331485E+06 -0.5801585E+04 -0.8299255E-01 -0.2873230E-01  0.7311111E+06  0.6091074E+04
  0.7928572E+00 -0.2367597E+06 -0.7622633E+04 -0.5265519E-01 -0.1316833E-01  0.7358093E+06  0.8058466E+04
  0.8238096E+00 -0.2394438E+06 -0.9893596E+04 -0.2074490E-02 -0.1571655E-01  0.7405844E+06  0.1053157E+05
  0.8547620E+00 -0.2425167E+06 -0.1268288E+05 -0.3027616E-01 -0.3417969E-02  0.7439135E+06  0.1356300E+05
  0.8857143E+00 -0.2468736E+06 -0.1609761E+05 -0.9371850E-01 -0.4508972E-01  0.7474749E+06  0.1729873E+05
  0.9166667E+00 -0.2511356E+06 -0.2023831E+05 -0.5859375E-02 -0.2502441E-02  0.7527852E+06  0.2188164E+05
  0.9476191E+00 -0.2546621E+06 -0.2521471E+05  0.4019119E-01  0.4177856E-01  0.7581865E+06  0.2744284E+05
  0.9785714E+00 -0.2579645E+06 -0.3113059E+05 -0.7684193E-01 -0.2410889E-01  0.7632984E+06  0.3410974E+05
  0.1009524E+01 -0.2608655E+06 -0.3804594E+05 -0.5272056E-01 -0.1831055E-01  0.7643424E+06  0.4189595E+05
  0.1040476E+01 -0.2640992E+06 -0.4607000E+05 -0.2346432E-01  0.1538086E-01  0.7693162E+06  0.5112348E+05
  0.1071429E+01 -0.2660539E+06 -0.5515021E+05 -0.8066407E-01 -0.6787109E-01  0.7718102E+06  0.6148251E+05
  0.1102381E+01 -0.2677910E+06 -0.6540386E+05 -0.3632053E-01 -0.4351807E-01  0.7759610E+06  0.7328306E+05
  0.1133333E+01 -0.2687616E+06 -0.7684681E+05 -0.1378676E-01 -0.3466797E-01  0.7775245E+06  0.8654359E+05
  0.1164286E+01 -0.2687538E+06 -0.8937331E+05 -0.2180790E-01  0.1452637E-01  0.7751675E+06  0.1009622E+06
  0.1195238E+01 -0.2686149E+06 -0.1030702E+06 -0.5719310E-02  0.8911133E-02  0.7762588E+06  0.1172547E+06
  0.1226190E+01 -0.2664668E+06 -0.1175235E+06 -0.2349439E-01  0.9765625E-03  0.7742932E+06  0.1343878E+06
  0.1257143E+01 -0.2629961E+06 -0.1325429E+06 -0.7379705E-01 -0.4272461E-02  0.7712552E+06  0.1521303E+06
  0.1288095E+01 -0.2590254E+06 -0.1481688E+06 -0.5344920E-01 -0.2954102E-01  0.7696522E+06  0.1711882E+06
  0.1319048E+01 -0.2532725E+06 -0.1636451E+06 -0.5922833E-01 -0.3320312E-01  0.7607699E+06  0.1894551E+06
  0.1350000E+01 -0.2467491E+06 -0.1791094E+06 -0.2278646E-01 -0.4638672E-01  0.7516281E+06  0.2079356E+06
  0.1380952E+01 -0.2400811E+06 -0.1942568E+06  0.8485992E-02  0.1147461E-01  0.7447412E+06  0.2266716E+06
  0.1411905E+01 -0.2315546E+06 -0.2084232E+06 -0.5187473E-01 -0.4223633E-01  0.7350623E+06  0.2440486E+06
  0.1442857E+01 -0.2222336E+06 -0.2216803E+06 -0.1962794E-01  0.3515625E-01  0.7245152E+06  0.2605966E+06
  0.1473810E+01 -0.2126485E+06 -0.2340853E+06 -0.1789050E-01  0.1733398E-01  0.7153841E+06  0.2769336E+06
  0.1504762E+01 -0.2026191E+06 -0.2449071E+06 -0.1168166E-01  0.3881836E-01  0.7036422E+06  0.2905139E+06
  0.1535714E+01 -0.1922708E+06 -0.2537290E+06 -0.5055414E-01 -0.5639648E-01  0.6878721E+06  0.2998708E+06
  0.1566667E+01 -0.1826969E+06 -0.2617588E+06 -0.1122008E-01 -0.1879883E-01  0.6759910E+06  0.3101681E+06
  0.1597619E+01 -0.1734158E+06 -0.2684613E+06 -0.1405901E-01 -0.7568359E-02  0.6653779E+06  0.3195660E+06
  0.1628572E+01 -0.1639660E+06 -0.2734471E+06 -0.1978824E-01  0.2978516E-01  0.6539372E+06  0.3261632E+06
  0.1659524E+01 -0.1544956E+06 -0.2769140E+06 -0.4001524E-01 -0.3955078E-01  0.6424228E+06  0.3306964E+06
  0.1690476E+01 -0.1456587E+06 -0.2795910E+06 -0.5776848E-03 -0.3662109E-02  0.6332933E+06  0.3359914E+06
  0.1721429E+01 -0.1371983E+06 -0.2812397E+06 -0.1588434E-01 -0.2197266E-02  0.6249444E+06  0.3405558E+06
  0.1752381E+01 -0.1292067E+06 -0.2806740E+06 -0.1671833E-02 -0.1147461E-01  0.6126481E+06  0.3373605E+06
  0.1783333E+01 -0.1218991E+06 -0.2792175E+06 -0.8214077E-02  0.2636719E-01  0.6011140E+06  0.3324798E+06
  0.1814286E+01 -0.1157426E+06 -0.2779750E+06 -0.2476009E-01 -0.2075195E-02  0.5934503E+06  0.3316937E+06
  0.1845238E+01 -0.1100527E+06 -0.2760961E+06 -0.6350806E-01 -0.1635742E-01  0.5867949E+06  0.3306442E+06
  0.1876190E+01 -0.1044891E+06 -0.2730730E+06 -0.5829632E-01 -0.1025391E-01  0.5799032E+06  0.3269608E+06
  0.1907143E+01 -0.9900633E+05 -0.2689365E+06 -0.1740988E-01  0.8666992E-02  0.5728209E+06  0.3212246E+06
  0.1938095E+01 -0.9411802E+05 -0.2650764E+06 -0.2166673E-01 -0.1721191E-01  0.5676108E+06  0.3186496E+06
  0.1969048E+01 -0.8964038E+05 -0.2611220E+06 -0.1983827E-02  0.1464844E-01  0.5632465E+06  0.3169121E+06
  0.2000000E+01 -0.8560676E+05 -0.2562659E+06 -0.1757812E-01  0.4028320E-02  0.5584144E+06  0.3112717E+06
