VARIABLES="w (rad/s)"
"abs(F   1   1)" "angle(F   1   1)"
"abs(F   1   2)" "angle(F   1   2)"
"abs(F   1   3)" "angle(F   1   3)"
Zone t="Diffraction force - beta =   0.000 deg",I=    64,F=POINT
  0.5000000E-01  0.6933270E+03 -0.1570795E+01  0.3197894E+03 -0.3094273E+01  0.8977393E+03 -0.1570795E+01
  0.8095238E-01  0.1131093E+04 -0.1570793E+01  0.8298971E+03 -0.3092622E+01  0.1458192E+04 -0.1570792E+01
  0.1119048E+00  0.1578313E+04 -0.1570790E+01  0.1577149E+04 -0.3090545E+01  0.2032166E+04 -0.1570787E+01
  0.1428571E+00  0.2038817E+04 -0.1570785E+01  0.2563449E+04 -0.3087923E+01  0.2628088E+04 -0.1570780E+01
  0.1738095E+00  0.2515147E+04 -0.1570778E+01  0.3793967E+04 -0.3084613E+01  0.3238794E+04 -0.1570770E+01
  0.2047619E+00  0.3015630E+04 -0.1570767E+01  0.5274247E+04 -0.3080463E+01  0.3887811E+04 -0.1570755E+01
  0.2357143E+00  0.3545124E+04 -0.1570752E+01  0.7010001E+04 -0.3075211E+01  0.4571601E+04 -0.1570732E+01
  0.2666667E+00  0.4107250E+04 -0.1570729E+01  0.9011871E+04 -0.3068831E+01  0.5292016E+04 -0.1570700E+01
  0.2976190E+00  0.4716400E+04 -0.1570696E+01  0.1128408E+05 -0.3060798E+01  0.6086923E+04 -0.1570652E+01
  0.3285715E+00  0.5377004E+04 -0.1570646E+01  0.1383744E+05 -0.3051176E+01  0.6944158E+04 -0.1570581E+01
  0.3595238E+00  0.6093376E+04 -0.1570572E+01  0.1666900E+05 -0.3039487E+01  0.7861474E+04 -0.1570473E+01
  0.3904762E+00  0.6878844E+04 -0.1570461E+01  0.1979203E+05 -0.3025639E+01  0.8880841E+04 -0.1570311E+01
  0.4214286E+00  0.7746689E+04 -0.1570299E+01  0.2315623E+05 -0.3010083E+01  0.1001809E+05 -0.1570076E+01
  0.4523810E+00  0.8687451E+04 -0.1570061E+01  0.2679696E+05 -0.2992168E+01  0.1123547E+05 -0.1569730E+01
  0.4833333E+00  0.9696859E+04 -0.1569731E+01  0.3064268E+05 -0.2973968E+01  0.1253004E+05 -0.1569247E+01
  0.5142857E+00  0.1078426E+05 -0.1569275E+01  0.3468648E+05 -0.2954243E+01  0.1395216E+05 -0.1568579E+01
  0.5452381E+00  0.1193913E+05 -0.1568667E+01  0.3892125E+05 -0.2934600E+01  0.1546810E+05 -0.1567691E+01
  0.5761905E+00  0.1313819E+05 -0.1567878E+01  0.4332139E+05 -0.2915336E+01  0.1701921E+05 -0.1566529E+01
  0.6071429E+00  0.1437278E+05 -0.1566861E+01  0.4786058E+05 -0.2895592E+01  0.1860461E+05 -0.1565023E+01
  0.6380953E+00  0.1563985E+05 -0.1565599E+01  0.5255113E+05 -0.2877006E+01  0.2024151E+05 -0.1563147E+01
  0.6690477E+00  0.1693294E+05 -0.1564039E+01  0.5734618E+05 -0.2858556E+01  0.2192136E+05 -0.1560823E+01
  0.7000000E+00  0.1824301E+05 -0.1562131E+01  0.6224391E+05 -0.2840145E+01  0.2362277E+05 -0.1557971E+01
  0.7309524E+00  0.1954818E+05 -0.1559842E+01  0.6726324E+05 -0.2822649E+01  0.2528788E+05 -0.1554516E+01
  0.7619048E+00  0.2083976E+05 -0.1557115E+01  0.7234148E+05 -0.2805473E+01  0.2690526E+05 -0.1550358E+01
  0.7928572E+00  0.2212070E+05 -0.1553908E+01  0.7745348E+05 -0.2788524E+01  0.2851590E+05 -0.1545444E+01
  0.8238096E+00  0.2338060E+05 -0.1550180E+01  0.8260008E+05 -0.2772005E+01  0.3010025E+05 -0.1539696E+01
  0.8547620E+00  0.2460764E+05 -0.1545892E+01  0.8777562E+05 -0.2756073E+01  0.3161605E+05 -0.1533014E+01
  0.8857143E+00  0.2578116E+05 -0.1540999E+01  0.9295637E+05 -0.2740745E+01  0.3303465E+05 -0.1525294E+01
  0.9166667E+00  0.2688797E+05 -0.1535467E+01  0.9813067E+05 -0.2726091E+01  0.3431962E+05 -0.1516428E+01
  0.9476191E+00  0.2791300E+05 -0.1529277E+01  0.1032522E+06 -0.2711902E+01  0.3543906E+05 -0.1506311E+01
  0.9785714E+00  0.2884316E+05 -0.1522419E+01  0.1083105E+06 -0.2698238E+01  0.3639235E+05 -0.1494887E+01
  0.1009524E+01  0.2966176E+05 -0.1514897E+01  0.1132870E+06 -0.2685071E+01  0.3715213E+05 -0.1482068E+01
  0.1040476E+01  0.3036176E+05 -0.1506746E+01  0.1181892E+06 -0.2672600E+01  0.3769140E+05 -0.1467777E+01
  0.1071429E+01  0.3091738E+05 -0.1497990E+01  0.1229931E+06 -0.2660812E+01  0.3797525E+05 -0.1451897E+01
  0.1102381E+01  0.3131057E+05 -0.1488680E+01  0.1276945E+06 -0.2649820E+01  0.3795295E+05 -0.1434256E+01
  0.1133333E+01  0.3152148E+05 -0.1478893E+01  0.1322699E+06 -0.2639613E+01  0.3758148E+05 -0.1414648E+01
  0.1164286E+01  0.3152144E+05 -0.1468697E+01  0.1367028E+06 -0.2630089E+01  0.3680953E+05 -0.1392740E+01
  0.1195238E+01  0.3130888E+05 -0.1458294E+01  0.1409804E+06 -0.2621293E+01  0.3562182E+05 -0.1368291E+01
  0.1226190E+01  0.3085718E+05 -0.1447842E+01  0.1450962E+06 -0.2613244E+01  0.3398677E+05 -0.1340779E+01
  0.1257143E+01  0.3015705E+05 -0.1437455E+01  0.1490817E+06 -0.2605580E+01  0.3186862E+05 -0.1309074E+01
  0.1288095E+01  0.2918985E+05 -0.1427924E+01  0.1527827E+06 -0.2599306E+01  0.2925690E+05 -0.1272886E+01
  0.1319048E+01  0.2795646E+05 -0.1419263E+01  0.1563552E+06 -0.2593515E+01  0.2612403E+05 -0.1228867E+01
  0.1350000E+01  0.2643669E+05 -0.1412187E+01  0.1597237E+06 -0.2588499E+01  0.2247315E+05 -0.1172874E+01
  0.1380952E+01  0.2463687E+05 -0.1407638E+01  0.1628857E+06 -0.2584418E+01  0.1830662E+05 -0.1094963E+01
  0.1411905E+01  0.2279697E+05 -0.1404469E+01  0.1650024E+06 -0.2582199E+01  0.1431342E+05 -0.9818630E+00
  0.1442857E+01  0.2046907E+05 -0.1408348E+01  0.1677223E+06 -0.2579739E+01  0.9539404E+04 -0.7456126E+00
  0.1473810E+01  0.1786981E+05 -0.1421084E+01  0.1702248E+06 -0.2578107E+01  0.5696034E+04 -0.9466187E-01
  0.1504762E+01  0.1502032E+05 -0.1449032E+01  0.1725148E+06 -0.2577296E+01  0.7056242E+04  0.9849594E+00
  0.1535714E+01  0.1195150E+05 -0.1505670E+01  0.1745905E+06 -0.2577311E+01  0.1287257E+05  0.1440468E+01
  0.1566667E+01  0.8758010E+04 -0.1626003E+01  0.1764563E+06 -0.2578163E+01  0.2010348E+05  0.1622593E+01
  0.1597619E+01  0.5725160E+04 -0.1920895E+01  0.1781095E+06 -0.2579945E+01  0.2811044E+05  0.1722883E+01
  0.1628572E+01  0.4105271E+04 -0.2673649E+01  0.1795580E+06 -0.2582619E+01  0.3672075E+05  0.1790067E+01
  0.1659524E+01  0.5869771E+04  0.2827411E+01  0.1808092E+06 -0.2586214E+01  0.4585826E+05  0.1840781E+01
  0.1690476E+01  0.9530853E+04  0.2514350E+01  0.1819100E+06 -0.2590571E+01  0.5544522E+05  0.1882259E+01
  0.1721429E+01  0.1381517E+05  0.2386116E+01  0.1828223E+06 -0.2595715E+01  0.6545386E+05  0.1917711E+01
  0.1752381E+01  0.1840110E+05  0.2324323E+01  0.1835675E+06 -0.2601551E+01  0.7584266E+05  0.1948890E+01
  0.1783333E+01  0.2319010E+05  0.2291432E+01  0.1841479E+06 -0.2607913E+01  0.8655889E+05  0.1976940E+01
  0.1814286E+01  0.2812645E+05  0.2273581E+01  0.1845688E+06 -0.2614859E+01  0.9756405E+05  0.2002514E+01
  0.1845238E+01  0.3317812E+05  0.2264230E+01  0.1848386E+06 -0.2622028E+01  0.1087937E+06  0.2026249E+01
  0.1876190E+01  0.3830903E+05  0.2259977E+01  0.1849356E+06 -0.2629358E+01  0.1202072E+06  0.2048290E+01
  0.1907143E+01  0.4349625E+05  0.2258862E+01  0.1848330E+06 -0.2636746E+01  0.1317480E+06  0.2068849E+01
  0.1938095E+01  0.4871334E+05  0.2259842E+01  0.1845327E+06 -0.2644151E+01  0.1433674E+06  0.2088198E+01
  0.1969048E+01  0.5393888E+05  0.2262077E+01  0.1839849E+06 -0.2651315E+01  0.1550092E+06  0.2106398E+01
  0.2000000E+01  0.5914561E+05  0.2265233E+01  0.1831326E+06 -0.2657959E+01  0.1666128E+06  0.2123609E+01
