VARIABLES="w (rad/s)"
"A   1   1" "B   1   1"
"A   1   2" "B   1   2"
"A   1   3" "B   1   3"
Zone t="Motion of body    1 in DoF   1",I=    64,F=POINT
  0.5000000E-01  0.3652514E+05  0.1232247E-02  0.6704330E-02  0.1975031E-04 -0.1739575E+05 -0.2551912E-03
  0.8095238E-01  0.3659529E+05  0.5423406E-02  0.3769818E-03  0.4167967E-05 -0.1743811E+05 -0.1225577E-02
  0.1119048E+00  0.3663855E+05  0.1519647E-01  0.2488481E-02  0.1005846E-04 -0.1748923E+05 -0.3411745E-02
  0.1428571E+00  0.3677267E+05  0.3430764E-01  0.3458023E-02  0.4949700E-04 -0.1752711E+05 -0.7727054E-02
  0.1738095E+00  0.3677652E+05  0.6844065E-01 -0.2864158E-02 -0.5842204E-04 -0.1751075E+05 -0.1541871E-01
  0.2047619E+00  0.3688554E+05  0.1268022E+00  0.6492526E-02  0.9716302E-04 -0.1756775E+05 -0.2878272E-01
  0.2357143E+00  0.3700704E+05  0.2242267E+00 -0.1294685E-03  0.2732454E-04 -0.1761689E+05 -0.5114205E-01
  0.2666667E+00  0.3696973E+05  0.3836434E+00 -0.3547668E-02 -0.5746051E-04 -0.1760758E+05 -0.8777653E-01
  0.2976190E+00  0.3722843E+05  0.6474199E+00  0.6600952E-02  0.1378735E-03 -0.1771330E+05 -0.1488859E+00
  0.3285715E+00  0.3735240E+05  0.1077216E+01  0.5236086E-02  0.1334297E-03 -0.1774847E+05 -0.2490965E+00
  0.3595238E+00  0.3737642E+05  0.1776567E+01  0.2196356E-02  0.8599088E-04 -0.1776060E+05 -0.4126013E+00
  0.3904762E+00  0.3749140E+05  0.2913779E+01  0.1367708E-03  0.4543178E-04 -0.1780608E+05 -0.6809515E+00
  0.4214286E+00  0.3783235E+05  0.4730728E+01  0.1629328E-03  0.1347251E-03 -0.1791694E+05 -0.1113109E+01
  0.4523810E+00  0.3795805E+05  0.7595382E+01 -0.3558510E-02 -0.2659485E-03 -0.1797030E+05 -0.1799563E+01
  0.4833333E+00  0.3803698E+05  0.1189517E+02  0.5366884E-02  0.4174635E-03 -0.1797957E+05 -0.2835447E+01
  0.5142857E+00  0.3839124E+05  0.1838489E+02  0.3515880E-02  0.3364086E-03 -0.1814821E+05 -0.4427326E+01
  0.5452381E+00  0.3864770E+05  0.2772301E+02  0.1371292E-02 -0.1132786E-03 -0.1823539E+05 -0.6730099E+01
  0.5761905E+00  0.3888614E+05  0.4082611E+02  0.4727072E-02  0.6964803E-03 -0.1828750E+05 -0.9977866E+01
  0.6071429E+00  0.3904944E+05  0.5898018E+02  0.2249325E-02  0.3123283E-03 -0.1837860E+05 -0.1455293E+02
  0.6380953E+00  0.3935932E+05  0.8349925E+02  0.1853260E-02  0.5304813E-05 -0.1848468E+05 -0.2078762E+02
  0.6690477E+00  0.3981429E+05  0.1164265E+03  0.4561346E-04  0.5073547E-03 -0.1865318E+05 -0.2927710E+02
  0.7000000E+00  0.4017365E+05  0.1597912E+03  0.2692086E-02  0.1949072E-03 -0.1879624E+05 -0.4059764E+02
  0.7309524E+00  0.4043845E+05  0.2157566E+03  0.5020489E-02  0.2441645E-02 -0.1887115E+05 -0.5528556E+02
  0.7619048E+00  0.4078466E+05  0.2878218E+03  0.7950782E-02  0.2813101E-02 -0.1897073E+05 -0.7438032E+02
  0.7928572E+00  0.4123641E+05  0.3798953E+03 -0.2886798E-03  0.1995564E-03 -0.1918484E+05 -0.9939904E+02
  0.8238096E+00  0.4176691E+05  0.4964174E+03  0.1018723E-02 -0.4353523E-03 -0.1937563E+05 -0.1312816E+03
  0.8547620E+00  0.4227421E+05  0.6418779E+03 -0.2177884E-02 -0.7705688E-03 -0.1955998E+05 -0.1716127E+03
  0.8857143E+00  0.4286376E+05  0.8228268E+03  0.8372645E-02  0.3757954E-02 -0.1975132E+05 -0.2221738E+03
  0.9166667E+00  0.4335909E+05  0.1044402E+04  0.2197266E-02  0.2007484E-02 -0.1996347E+05 -0.2853752E+03
  0.9476191E+00  0.4385587E+05  0.1314349E+04  0.4025560E-03  0.1291275E-02 -0.2014626E+05 -0.3630262E+03
  0.9785714E+00  0.4438218E+05  0.1641467E+04 -0.4677877E-04  0.1501083E-02 -0.2034198E+05 -0.4583701E+03
  0.1009524E+01  0.4513399E+05  0.2039509E+04 -0.2871819E-03 -0.3242493E-04 -0.2060750E+05 -0.5754472E+03
  0.1040476E+01  0.4592707E+05  0.2517642E+04 -0.2654401E-02 -0.2620697E-02 -0.2094575E+05 -0.7196306E+03
  0.1071429E+01  0.4665070E+05  0.3085273E+04 -0.3617350E-02 -0.1512527E-02 -0.2124570E+05 -0.8929835E+03
  0.1102381E+01  0.4738300E+05  0.3757198E+04 -0.4429333E-03  0.8335114E-03 -0.2151360E+05 -0.1099663E+04
  0.1133333E+01  0.4810049E+05  0.4546921E+04  0.2288818E-03  0.2101898E-02 -0.2179112E+05 -0.1345794E+04
  0.1164286E+01  0.4883126E+05  0.5470200E+04  0.1782376E-02  0.1499176E-02 -0.2205960E+05 -0.1635969E+04
  0.1195238E+01  0.4959118E+05  0.6544862E+04 -0.1021305E-03 -0.4310608E-03 -0.2240597E+05 -0.1982476E+04
  0.1226190E+01  0.5028773E+05  0.7782264E+04 -0.8710843E-03  0.2498627E-02 -0.2271949E+05 -0.2385631E+04
  0.1257143E+01  0.5097890E+05  0.9201073E+04 -0.3058694E-02 -0.1502991E-02 -0.2301385E+05 -0.2851317E+04
  0.1288095E+01  0.5184157E+05  0.1084840E+05 -0.2748274E-02 -0.3173828E-02 -0.2338144E+05 -0.3401572E+04
  0.1319048E+01  0.5259041E+05  0.1270761E+05  0.5089935E-03 -0.1136780E-02 -0.2371570E+05 -0.4030301E+04
  0.1350000E+01  0.5329094E+05  0.1480754E+05 -0.4069010E-03  0.2288818E-04 -0.2402464E+05 -0.4747766E+04
  0.1380952E+01  0.5395391E+05  0.1716548E+05 -0.3933611E-02 -0.1678467E-03 -0.2438649E+05 -0.5575934E+04
  0.1411905E+01  0.5431911E+05  0.1975934E+05 -0.6484342E-03 -0.2319336E-02 -0.2460469E+05 -0.6490058E+04
  0.1442857E+01  0.5463671E+05  0.2261351E+05 -0.2115080E-03  0.5477905E-02 -0.2480664E+05 -0.7512208E+04
  0.1473810E+01  0.5482282E+05  0.2572203E+05 -0.1242396E-03 -0.7324219E-02 -0.2496757E+05 -0.8642504E+04
  0.1504762E+01  0.5485579E+05  0.2907501E+05 -0.4664554E-03  0.3540039E-02 -0.2509511E+05 -0.9882898E+04
  0.1535714E+01  0.5474797E+05  0.3266081E+05  0.3875023E-02  0.4989624E-02 -0.2514419E+05 -0.1121615E+05
  0.1566667E+01  0.5452034E+05  0.3647063E+05  0.2921896E-03 -0.1373291E-03 -0.2514536E+05 -0.1264037E+05
  0.1597619E+01  0.5418502E+05  0.4050382E+05  0.1757376E-02 -0.7934570E-03 -0.2517591E+05 -0.1420004E+05
  0.1628572E+01  0.5358241E+05  0.4465805E+05  0.1180548E-02  0.2136230E-02 -0.2507864E+05 -0.1582148E+05
  0.1659524E+01  0.5273448E+05  0.4890832E+05 -0.2022829E-03  0.4394531E-02 -0.2488527E+05 -0.1752067E+05
  0.1690476E+01  0.5168081E+05  0.5319549E+05 -0.1299791E-02 -0.1068115E-02 -0.2460219E+05 -0.1926721E+05
  0.1721429E+01  0.5040276E+05  0.5746030E+05  0.1187780E-02  0.8911133E-02 -0.2423443E+05 -0.2104191E+05
  0.1752381E+01  0.4895414E+05  0.6165627E+05  0.2089791E-03 -0.2929688E-02 -0.2377278E+05 -0.2279867E+05
  0.1783333E+01  0.4735180E+05  0.6572318E+05 -0.5390488E-03  0.8239746E-03 -0.2322928E+05 -0.2451069E+05
  0.1814286E+01  0.4561045E+05  0.6962055E+05 -0.1816637E-02 -0.1251221E-02 -0.2263210E+05 -0.2619659E+05
  0.1845238E+01  0.4378717E+05  0.7334448E+05 -0.1901934E-02  0.5096436E-02 -0.2205713E+05 -0.2789211E+05
  0.1876190E+01  0.4179798E+05  0.7675405E+05  0.1146733E-02 -0.4211426E-02 -0.2137152E+05 -0.2949200E+05
  0.1907143E+01  0.3972972E+05  0.7986955E+05 -0.1792193E-02 -0.8331299E-02 -0.2063754E+05 -0.3100451E+05
  0.1938095E+01  0.3760489E+05  0.8264208E+05  0.1440775E-02 -0.9948730E-02 -0.1984551E+05 -0.3238016E+05
  0.1969048E+01  0.3544013E+05  0.8507469E+05  0.3370956E-02  0.2563477E-02 -0.1901683E+05 -0.3365945E+05
  0.2000000E+01  0.3329306E+05  0.8716652E+05  0.5531311E-03 -0.1434326E-02 -0.1818930E+05 -0.3481463E+05
Zone t="Motion of body    1 in DoF   2",I=    64,F=POINT
  0.5000000E-01  0.1106262E-02 -0.5722046E-05  0.6861324E+05  0.1133232E+03 -0.4882812E-02 -0.5006790E-05
  0.8095238E-01 -0.2756680E-02  0.1907349E-05  0.6813509E+05  0.1880258E+03  0.1602173E-02 -0.4291534E-05
  0.1119048E+00 -0.2454392E-02 -0.1502037E-04  0.6803602E+05  0.2695218E+03 -0.2386215E-02 -0.1668930E-04
  0.1428571E+00 -0.2937317E-03  0.1287460E-04  0.6792748E+05  0.3609596E+03 -0.1708984E-02 -0.2193451E-04
  0.1738095E+00 -0.4126144E-02 -0.1716614E-04  0.6792395E+05  0.4664185E+03  0.4565095E-02 -0.1621246E-04
  0.2047619E+00 -0.1192315E-02  0.5245209E-04  0.6801820E+05  0.5908754E+03 -0.1117795E-02 -0.5340576E-04
  0.2357143E+00  0.8415453E-03 -0.5912781E-04  0.6811751E+05  0.7414448E+03 -0.1294685E-03  0.1907349E-04
  0.2666667E+00 -0.5722046E-04 -0.3719330E-04  0.6837949E+05  0.9243528E+03  0.1258850E-02 -0.0000000E+00
  0.2976190E+00 -0.1307373E-02  0.4863739E-04  0.6855399E+05  0.1152846E+04  0.7177735E-03 -0.1335144E-04
  0.3285715E+00 -0.2391649E-02 -0.8392334E-04  0.6888948E+05  0.1434728E+04 -0.2786387E-03 -0.4959106E-04
  0.3595238E+00 -0.3883412E-02  0.4005432E-04  0.6908394E+05  0.1786291E+04  0.3395333E-02 -0.6484985E-04
  0.3904762E+00 -0.2344643E-03  0.1659393E-03  0.6939896E+05  0.2220682E+04  0.3048036E-02 -0.7629395E-04
  0.4214286E+00 -0.1050011E-02 -0.0000000E+00  0.6951700E+05  0.2734692E+04 -0.1955194E-02  0.5722046E-04
  0.4523810E+00 -0.1686498E-02  0.8773804E-04  0.6962750E+05  0.3355033E+04 -0.1079359E-02  0.9155273E-04
  0.4833333E+00 -0.2620302E-02 -0.2174377E-03  0.6962000E+05  0.4034084E+04 -0.2651872E-02  0.3585815E-03
  0.5142857E+00  0.2877977E-02 -0.9536743E-04  0.6942673E+05  0.4804158E+04  0.2610948E-02 -0.5645752E-03
  0.5452381E+00 -0.4197833E-03  0.1144409E-03  0.6926452E+05  0.5624715E+04  0.8955377E-03 -0.6256104E-03
  0.5761905E+00  0.2515808E-02 -0.6637573E-03  0.6883568E+05  0.6486257E+04  0.3177863E-03 -0.3356934E-03
  0.6071429E+00 -0.2764533E-03 -0.3051758E-04  0.6838346E+05  0.7405288E+04 -0.1005285E-03  0.2441406E-03
  0.6380953E+00 -0.1315216E-02  0.4959106E-03  0.6796630E+05  0.8329602E+04 -0.2295651E-02 -0.8697510E-03
  0.6690477E+00 -0.1049110E-02  0.8392334E-03  0.6733509E+05  0.9287343E+04 -0.3740304E-02 -0.9460449E-03
  0.7000000E+00  0.2790178E-02  0.4119873E-03  0.6669055E+05  0.1027543E+05 -0.9416852E-02  0.1266479E-02
  0.7309524E+00  0.3527911E-02 -0.1586914E-02  0.6610856E+05  0.1126104E+05 -0.2755528E-02  0.9765625E-03
  0.7619048E+00 -0.2042770E-02 -0.4425049E-03  0.6532220E+05  0.1226325E+05 -0.3845214E-02  0.4882812E-03
  0.7928572E+00 -0.3849063E-04  0.2090454E-02  0.6454754E+05  0.1326942E+05 -0.6158501E-03  0.2136230E-03
  0.8238096E+00  0.9261114E-03 -0.4425049E-03  0.6378399E+05  0.1426737E+05 -0.3704446E-03 -0.1007080E-02
  0.8547620E+00 -0.2106478E-02 -0.6103516E-04  0.6299647E+05  0.1525173E+05 -0.8568724E-03  0.1831055E-02
  0.8857143E+00 -0.2859792E-02 -0.1556396E-02  0.6207380E+05  0.1622759E+05  0.1791677E-02 -0.9765625E-03
  0.9166667E+00 -0.7657137E-03 -0.7171631E-03  0.6121102E+05  0.1717553E+05 -0.5593040E-02  0.1068115E-02
  0.9476191E+00  0.3220448E-04 -0.3967285E-03  0.6034846E+05  0.1808823E+05 -0.5152717E-03  0.2197266E-02
  0.9785714E+00  0.2120638E-02 -0.6103516E-04  0.5950854E+05  0.1895993E+05  0.1434549E-02  0.1281738E-02
  0.1009524E+01  0.1027809E-02 -0.7629395E-03  0.5854816E+05  0.1981027E+05 -0.2841590E-02 -0.2441406E-03
  0.1040476E+01 -0.4692863E-03  0.5828857E-02  0.5761634E+05  0.2061550E+05  0.3402326E-02 -0.1861572E-02
  0.1071429E+01  0.2378337E-02 -0.1068115E-02  0.5671964E+05  0.2136667E+05  0.1708984E-02  0.3662109E-03
  0.1102381E+01 -0.3017483E-02  0.7629395E-03  0.5585489E+05  0.2205609E+05  0.2602233E-02  0.1953125E-02
  0.1133333E+01 -0.4039091E-03  0.3356934E-03  0.5500950E+05  0.2269059E+05  0.3662109E-02  0.2685547E-02
  0.1164286E+01 -0.2490084E-02  0.1037598E-02  0.5408310E+05  0.2328742E+05 -0.2096913E-03  0.2075195E-02
  0.1195238E+01 -0.8936422E-03 -0.1708984E-02  0.5319995E+05  0.2382460E+05  0.1021305E-03  0.2197266E-02
  0.1226190E+01 -0.1443511E-02  0.1586914E-02  0.5236944E+05  0.2429708E+05  0.3484337E-03 -0.1892090E-02
  0.1257143E+01  0.2646013E-02 -0.6408691E-03  0.5159163E+05  0.2472613E+05  0.1893477E-02 -0.1647949E-02
  0.1288095E+01  0.1599211E-02 -0.7629395E-03  0.5084386E+05  0.2503650E+05 -0.1705825E-02 -0.2319336E-02
  0.1319048E+01  0.1226212E-02 -0.7934570E-03  0.5007743E+05  0.2532772E+05  0.1434436E-02 -0.1831055E-03
  0.1350000E+01  0.3255208E-02  0.3265381E-02  0.4929319E+05  0.2556914E+05 -0.1401548E-02 -0.3967285E-02
  0.1380952E+01 -0.3701572E-02 -0.2441406E-03  0.4856496E+05  0.2574826E+05 -0.2209894E-03  0.6103516E-04
  0.1411905E+01  0.7132776E-03  0.1647949E-02  0.4787289E+05  0.2583847E+05 -0.2161447E-02 -0.7934570E-03
  0.1442857E+01 -0.7402779E-03 -0.1007080E-02  0.4724973E+05  0.2588545E+05 -0.3384127E-03  0.3723145E-02
  0.1473810E+01 -0.2381258E-03  0.2258301E-02  0.4667000E+05  0.2586393E+05 -0.3354468E-02  0.1708984E-02
  0.1504762E+01 -0.5171570E-03 -0.5279541E-02  0.4613839E+05  0.2579249E+05 -0.3123223E-02  0.4150391E-02
  0.1535714E+01  0.4918298E-03  0.2532959E-02  0.4554433E+05  0.2569060E+05 -0.3934638E-02 -0.3234863E-02
  0.1566667E+01 -0.3554973E-03 -0.6408691E-03  0.4498385E+05  0.2553759E+05 -0.3506275E-03  0.6103516E-04
  0.1597619E+01 -0.2817532E-03  0.1647949E-02  0.4449002E+05  0.2535723E+05 -0.7640765E-03 -0.2014160E-02
  0.1628572E+01 -0.1756768E-03  0.2319336E-02  0.4403847E+05  0.2512685E+05 -0.2698396E-02 -0.4577637E-02
  0.1659524E+01  0.2567614E-02 -0.1831055E-03  0.4363692E+05  0.2483992E+05 -0.2353838E-02  0.2380371E-02
  0.1690476E+01 -0.2936377E-03  0.1159668E-02  0.4327848E+05  0.2449381E+05  0.1696949E-02 -0.4150391E-02
  0.1721429E+01 -0.1062575E-02  0.2807617E-02  0.4297162E+05  0.2411361E+05 -0.2836489E-02  0.2014160E-02
  0.1752381E+01 -0.1014419E-02 -0.7141113E-02  0.4263440E+05  0.2370985E+05 -0.2194280E-02  0.2441406E-03
  0.1783333E+01  0.4278165E-03 -0.1220703E-03  0.4228948E+05  0.2326980E+05 -0.2361547E-02 -0.3662109E-02
  0.1814286E+01 -0.3069780E-03 -0.5493164E-03  0.4197773E+05  0.2279095E+05 -0.2354900E-03  0.2258301E-02
  0.1845238E+01  0.8682743E-04 -0.2075195E-02  0.4171955E+05  0.2232319E+05  0.3969254E-03 -0.2746582E-02
  0.1876190E+01  0.9230793E-03  0.1098633E-02  0.4149572E+05  0.2181114E+05  0.0000000E+00  0.3906250E-02
  0.1907143E+01 -0.4280462E-03 -0.4760742E-02  0.4131135E+05  0.2127108E+05 -0.8320898E-03  0.1770020E-02
  0.1938095E+01  0.2495768E-02  0.7720947E-02  0.4116641E+05  0.2069455E+05 -0.2361926E-02 -0.1800537E-02
  0.1969048E+01  0.6974392E-04 -0.2807617E-02  0.4105527E+05  0.2008274E+05 -0.1456873E-02  0.3051758E-02
  0.2000000E+01  0.1525879E-02  0.2807617E-02  0.4098059E+05  0.1948551E+05 -0.1007080E-02 -0.6591797E-02
Zone t="Motion of body    1 in DoF   3",I=    64,F=POINT
  0.5000000E-01 -0.1772220E+05 -0.2755463E-03 -0.8277893E-02 -0.1993956E-04  0.3449571E+05  0.5605696E-04
  0.8095238E-01 -0.1772869E+05 -0.1288413E-02 -0.3062977E-03 -0.9491332E-05  0.3462802E+05  0.2788639E-03
  0.1119048E+00 -0.1770570E+05 -0.3543290E-02  0.2812325E-02  0.3992307E-05  0.3486959E+05  0.8052614E-03
  0.1428571E+00 -0.1775686E+05 -0.8030528E-02 -0.4432678E-02 -0.4848514E-04  0.3489147E+05  0.1812975E-02
  0.1738095E+00 -0.1772204E+05 -0.1601425E-01 -0.5399103E-02 -0.1360760E-04  0.3487465E+05  0.3565632E-02
  0.2047619E+00 -0.1778259E+05 -0.2980061E-01 -0.1177411E-01 -0.1308958E-03  0.3495023E+05  0.6832698E-02
  0.2357143E+00 -0.1785665E+05 -0.5291738E-01  0.1229951E-02  0.2613809E-04  0.3492380E+05  0.1208479E-01
  0.2666667E+00 -0.1779789E+05 -0.9092962E-01 -0.1945495E-02 -0.5476433E-04  0.3499074E+05  0.2083613E-01
  0.2976190E+00 -0.1796251E+05 -0.1539370E+00 -0.1158691E-01 -0.2530986E-03  0.3496539E+05  0.3533676E-01
  0.3285715E+00 -0.1796269E+05 -0.2575378E+00 -0.1880811E-01 -0.4541685E-03  0.3504549E+05  0.5982669E-01
  0.3595238E+00 -0.1799710E+05 -0.4265234E+00  0.1591562E-02  0.3869180E-04  0.3497092E+05  0.9887718E-01
  0.3904762E+00 -0.1802380E+05 -0.7034054E+00 -0.5392679E-02 -0.1844694E-03  0.3504159E+05  0.1640232E+00
  0.4214286E+00 -0.1817560E+05 -0.1148826E+01 -0.2371578E-02 -0.3427267E-04  0.3501370E+05  0.2702164E+00
  0.4523810E+00 -0.1821226E+05 -0.1855698E+01  0.1585308E-02  0.3092028E-03  0.3507802E+05  0.4395036E+00
  0.4833333E+00 -0.1819544E+05 -0.2926664E+01 -0.5556304E-02 -0.5330797E-03  0.3506794E+05  0.6977042E+00
  0.5142857E+00 -0.1841366E+05 -0.4554851E+01  0.5103217E-02  0.5098209E-03  0.3512305E+05  0.1097037E+01
  0.5452381E+00 -0.1845466E+05 -0.6922090E+01  0.1958989E-02  0.3546849E-03  0.3525202E+05  0.1680786E+01
  0.5761905E+00 -0.1854732E+05 -0.1026917E+02  0.7944658E-04  0.6392598E-05  0.3512720E+05  0.2510233E+01
  0.6071429E+00 -0.1861324E+05 -0.1495138E+02 -0.4498649E-02 -0.2188832E-03  0.3522873E+05  0.3690704E+01
  0.6380953E+00 -0.1869602E+05 -0.2135202E+02 -0.3204346E-02  0.1008809E-03  0.3531127E+05  0.5316010E+01
  0.6690477E+00 -0.1892377E+05 -0.3002055E+02 -0.1806293E-01 -0.3074288E-02  0.3528278E+05  0.7548590E+01
  0.7000000E+00 -0.1905488E+05 -0.4156904E+02 -0.1168387E-01 -0.1859963E-02  0.3538443E+05  0.1056507E+02
  0.7309524E+00 -0.1907235E+05 -0.5666604E+02 -0.3820164E-02 -0.5999207E-03  0.3547892E+05  0.1452534E+02
  0.7619048E+00 -0.1920343E+05 -0.7623507E+02 -0.9693145E-02 -0.2524793E-02  0.3537657E+05  0.1970558E+02
  0.7928572E+00 -0.1943104E+05 -0.1015430E+03  0.8352468E-02  0.2368629E-02  0.3549827E+05  0.2656220E+02
  0.8238096E+00 -0.1961395E+05 -0.1340781E+03  0.3815579E-02  0.1533508E-02  0.3561743E+05  0.3544938E+02
  0.8547620E+00 -0.1977859E+05 -0.1751543E+03 -0.2338547E-02 -0.2675056E-03  0.3571583E+05  0.4683967E+02
  0.8857143E+00 -0.2000991E+05 -0.2266726E+03 -0.1011264E-01 -0.4783511E-02  0.3566952E+05  0.6121185E+02
  0.9166667E+00 -0.2021054E+05 -0.2905547E+03 -0.6392045E-02 -0.1637697E-02  0.3579182E+05  0.7943208E+02
  0.9476191E+00 -0.2035879E+05 -0.3694944E+03 -0.4395911E-02 -0.1867533E-02  0.3590167E+05  0.1020911E+03
  0.9785714E+00 -0.2051555E+05 -0.4664085E+03  0.8622887E-02  0.3033876E-02  0.3601916E+05  0.1303021E+03
  0.1009524E+01 -0.2083286E+05 -0.5852023E+03  0.5894787E-03  0.2038479E-02  0.3600702E+05  0.1650002E+03
  0.1040476E+01 -0.2120027E+05 -0.7299173E+03  0.4604872E-02  0.4268646E-02  0.3614618E+05  0.2084702E+03
  0.1071429E+01 -0.2148603E+05 -0.9043239E+03 -0.2121989E-02 -0.1854420E-02  0.3631232E+05  0.2618133E+03
  0.1102381E+01 -0.2172846E+05 -0.1114270E+04  0.6920833E-03  0.1003265E-02  0.3644623E+05  0.3263534E+03
  0.1133333E+01 -0.2198190E+05 -0.1363446E+04  0.3527473E-02  0.4586220E-02  0.3657391E+05  0.4036063E+03
  0.1164286E+01 -0.2226180E+05 -0.1656514E+04 -0.4508364E-02 -0.4496574E-02  0.3658055E+05  0.4957060E+03
  0.1195238E+01 -0.2261062E+05 -0.2001973E+04 -0.2119209E-02  0.1110077E-02  0.3671494E+05  0.6066243E+03
  0.1226190E+01 -0.2290279E+05 -0.2405212E+04  0.7466437E-04  0.1403809E-02  0.3687180E+05  0.7379396E+03
  0.1257143E+01 -0.2319209E+05 -0.2874798E+04  0.1376412E-01  0.1678467E-01  0.3701677E+05  0.8902984E+03
  0.1288095E+01 -0.2354782E+05 -0.3431328E+04  0.4027643E-02  0.6992340E-02  0.3721738E+05  0.1075301E+04
  0.1319048E+01 -0.2388397E+05 -0.4062742E+04 -0.9717149E-03 -0.1710892E-02  0.3734413E+05  0.1287706E+04
  0.1350000E+01 -0.2421002E+05 -0.4782445E+04  0.1198097E-02  0.2681732E-02  0.3739373E+05  0.1533250E+04
  0.1380952E+01 -0.2457369E+05 -0.5602977E+04 -0.4154600E-02 -0.5119324E-02  0.3756931E+05  0.1820663E+04
  0.1411905E+01 -0.2477871E+05 -0.6541189E+04 -0.2161447E-03 -0.2513885E-02  0.3768573E+05  0.2149631E+04
  0.1442857E+01 -0.2495081E+05 -0.7569348E+04 -0.6345239E-03 -0.2365112E-03  0.3781313E+05  0.2516818E+04
  0.1473810E+01 -0.2507297E+05 -0.8708394E+04  0.1242396E-03  0.1127625E-01  0.3794517E+05  0.2931283E+04
  0.1504762E+01 -0.2515475E+05 -0.9947997E+04  0.3853327E-03  0.4539490E-02  0.3806673E+05  0.3386150E+04
  0.1535714E+01 -0.2519762E+05 -0.1127721E+05 -0.4610283E-02 -0.2990723E-02  0.3803746E+05  0.3877859E+04
  0.1566667E+01 -0.2521853E+05 -0.1270340E+05 -0.2259599E-02 -0.1831055E-03  0.3796959E+05  0.4400797E+04
  0.1597619E+01 -0.2526882E+05 -0.1425085E+05 -0.1165217E-02  0.1014709E-02  0.3805718E+05  0.4990591E+04
  0.1628572E+01 -0.2517171E+05 -0.1587031E+05 -0.2942001E-02 -0.4074097E-02  0.3809337E+05  0.5614767E+04
  0.1659524E+01 -0.2495682E+05 -0.1756430E+05 -0.4045659E-03 -0.6164551E-02  0.3810218E+05  0.6291344E+04
  0.1690476E+01 -0.2464527E+05 -0.1931192E+05  0.2094107E-02 -0.5416870E-03  0.3807787E+05  0.7000415E+04
  0.1721429E+01 -0.2424081E+05 -0.2108238E+05 -0.3758348E-02 -0.1194763E-01  0.3803119E+05  0.7730917E+04
  0.1752381E+01 -0.2376711E+05 -0.2283020E+05 -0.1915642E-03 -0.4043579E-02  0.3786116E+05  0.8450019E+04
  0.1783333E+01 -0.2323201E+05 -0.2453430E+05 -0.2584012E-02 -0.4425049E-02  0.3759911E+05  0.9146332E+04
  0.1814286E+01 -0.2264939E+05 -0.2620754E+05  0.2607211E-02  0.6637573E-02  0.3732596E+05  0.9846068E+04
  0.1845238E+01 -0.2208853E+05 -0.2785706E+05  0.3473097E-03  0.4852295E-02  0.3719402E+05  0.1057166E+05
  0.1876190E+01 -0.2139483E+05 -0.2942007E+05 -0.1968151E-02 -0.1724243E-02  0.3699749E+05  0.1129590E+05
  0.1907143E+01 -0.2064876E+05 -0.3089863E+05  0.6400691E-03  0.5310059E-02  0.3678546E+05  0.1199959E+05
  0.1938095E+01 -0.1983668E+05 -0.3226083E+05 -0.1732079E-02 -0.2777100E-02  0.3651662E+05  0.1264949E+05
  0.1969048E+01 -0.1898071E+05 -0.3352913E+05 -0.2045822E-02  0.2334595E-02  0.3624156E+05  0.1329938E+05
  0.2000000E+01 -0.1812477E+05 -0.3465973E+05  0.4119873E-02  0.5981445E-02  0.3596949E+05  0.1388636E+05
