VARIABLES="w (rad/s)"
"A   1   1" "B   1   1"
"A   1   2" "B   1   2"
"A   1   3" "B   1   3"
Zone t="Motion of body    1 in DoF   1",I=    64,F=POINT
  0.5000000E-01  0.1226452E+05  0.1564771E-03 -0.5531311E-03 -0.2795380E-05 -0.7481294E+04 -0.7657908E-04
  0.8095238E-01  0.1231869E+05  0.6270528E-03 -0.3534205E-03 -0.2933895E-05 -0.7535264E+04 -0.3158245E-03
  0.1119048E+00  0.1233925E+05  0.1793408E-02  0.1201630E-02  0.4122176E-06 -0.7576382E+04 -0.9012941E-03
  0.1428571E+00  0.1235686E+05  0.4011590E-02  0.5741119E-03  0.3615583E-05 -0.7591184E+04 -0.2001739E-02
  0.1738095E+00  0.1238456E+05  0.7980630E-02 -0.3182398E-03 -0.4538291E-05 -0.7595251E+04 -0.3939194E-02
  0.2047619E+00  0.1239712E+05  0.1479452E-01  0.1816417E-02  0.8160714E-05 -0.7597014E+04 -0.7287232E-02
  0.2357143E+00  0.1240002E+05  0.2609580E-01 -0.8658206E-03 -0.1919555E-04 -0.7596844E+04 -0.1286686E-01
  0.2666667E+00  0.1241993E+05  0.4458151E-01  0.2002716E-03 -0.3799505E-05 -0.7598231E+04 -0.2193372E-01
  0.2976190E+00  0.1243167E+05  0.7490174E-01 -0.6408691E-04  0.2931221E-05 -0.7600834E+04 -0.3676135E-01
  0.3285715E+00  0.1243350E+05  0.1241161E+00 -0.1822762E-02 -0.1876173E-04 -0.7601964E+04 -0.6073912E-01
  0.3595238E+00  0.1245600E+05  0.2042346E+00  0.2291850E-02  0.3675837E-04 -0.7604517E+04 -0.9956577E-01
  0.3904762E+00  0.1249122E+05  0.3337966E+00  0.1064859E-02  0.2700835E-04 -0.7599083E+04 -0.1618825E+00
  0.4214286E+00  0.1248519E+05  0.5379409E+00  0.1330618E-02  0.3521051E-04 -0.7610565E+04 -0.2602436E+00
  0.4523810E+00  0.1250684E+05  0.8601877E+00  0.5987067E-03 -0.6977469E-05 -0.7615393E+04 -0.4145010E+00
  0.4833333E+00  0.1254367E+05  0.1342432E+01  0.7655703E-03  0.9439327E-04 -0.7617672E+04 -0.6433550E+00
  0.5142857E+00  0.1258002E+05  0.2060641E+01  0.3308190E-02  0.2175905E-03 -0.7615731E+04 -0.9816713E+00
  0.5452381E+00  0.1258560E+05  0.3085178E+01  0.1035466E-02  0.1621991E-03 -0.7623873E+04 -0.1463337E+01
  0.5761905E+00  0.1261935E+05  0.4515352E+01  0.2740907E-02  0.2473332E-03 -0.7624412E+04 -0.2128622E+01
  0.6071429E+00  0.1267285E+05  0.6491865E+01  0.1545625E-02  0.2883300E-03 -0.7630981E+04 -0.3040354E+01
  0.6380953E+00  0.1270548E+05  0.9123048E+01  0.3060868E-02  0.3547072E-03 -0.7641112E+04 -0.4247069E+01
  0.6690477E+00  0.1272783E+05  0.1259856E+02 -0.1083320E-02 -0.3010929E-03 -0.7653534E+04 -0.5831042E+01
  0.7000000E+00  0.1276556E+05  0.1714655E+02 -0.4577636E-03 -0.1057833E-03 -0.7660383E+04 -0.7880823E+01
  0.7309524E+00  0.1280964E+05  0.2298342E+02  0.1565641E-02  0.9939075E-04 -0.7664569E+04 -0.1048314E+02
  0.7619048E+00  0.1286691E+05  0.3042071E+02 -0.1982689E-02 -0.7498264E-03 -0.7676361E+04 -0.1376767E+02
  0.7928572E+00  0.1292551E+05  0.3978676E+02  0.6254728E-03  0.7477403E-04 -0.7686138E+04 -0.1785783E+02
  0.8238096E+00  0.1297133E+05  0.5143805E+02  0.9724170E-03  0.2341270E-03 -0.7706679E+04 -0.2291783E+02
  0.8547620E+00  0.1300849E+05  0.6578819E+02  0.9015011E-03 -0.1977682E-03 -0.7719028E+04 -0.2907720E+02
  0.8857143E+00  0.1306100E+05  0.8336259E+02  0.1231778E-02  0.3337860E-04 -0.7727621E+04 -0.3651212E+02
  0.9166667E+00  0.1313404E+05  0.1047393E+03  0.1198509E-02  0.5013943E-03 -0.7735307E+04 -0.4541581E+02
  0.9476191E+00  0.1320948E+05  0.1304951E+03 -0.3864537E-03 -0.8594990E-04 -0.7753275E+04 -0.5604275E+02
  0.9785714E+00  0.1327780E+05  0.1612679E+03  0.1216248E-02  0.5128384E-03 -0.7765011E+04 -0.6855825E+02
  0.1009524E+01  0.1335128E+05  0.1978382E+03  0.2524178E-02  0.5552769E-03 -0.7785073E+04 -0.8326725E+02
  0.1040476E+01  0.1341722E+05  0.2409348E+03  0.2595740E-02  0.8671284E-03 -0.7800191E+04 -0.1003454E+03
  0.1071429E+01  0.1348911E+05  0.2914627E+03 -0.9826660E-03 -0.8220673E-03 -0.7817358E+04 -0.1200830E+03
  0.1102381E+01  0.1355974E+05  0.3503054E+03 -0.8443416E-03 -0.1114368E-02 -0.7831587E+04 -0.1427089E+03
  0.1133333E+01  0.1363863E+05  0.4185400E+03  0.1481000E-03 -0.2417564E-03 -0.7841407E+04 -0.1684537E+03
  0.1164286E+01  0.1373031E+05  0.4973245E+03  0.1205725E-02  0.7200241E-03 -0.7856874E+04 -0.1977151E+03
  0.1195238E+01  0.1382166E+05  0.5876706E+03  0.1953247E-02  0.1304150E-02 -0.7867384E+04 -0.2306131E+03
  0.1226190E+01  0.1391829E+05  0.6908070E+03  0.2115490E-03 -0.4081726E-03 -0.7879706E+04 -0.2674931E+03
  0.1257143E+01  0.1399901E+05  0.8076119E+03 -0.5583329E-03 -0.1296997E-03 -0.7896813E+04 -0.3087397E+03
  0.1288095E+01  0.1408890E+05  0.9398481E+03 -0.3316883E-03  0.5540848E-03 -0.7909039E+04 -0.3543213E+03
  0.1319048E+01  0.1416856E+05  0.1088242E+04 -0.4048812E-03  0.2975464E-03 -0.7924214E+04 -0.4046658E+03
  0.1350000E+01  0.1424847E+05  0.1254112E+04 -0.1107675E-02 -0.1811981E-02 -0.7932729E+04 -0.4595834E+03
  0.1380952E+01  0.1432947E+05  0.1438721E+04 -0.6629681E-03 -0.1737595E-02 -0.7935430E+04 -0.5191933E+03
  0.1411905E+01  0.1429632E+05  0.1619706E+04 -0.1350905E-02 -0.1567841E-02 -0.7933088E+04 -0.5773770E+03
  0.1442857E+01  0.1438033E+05  0.1842013E+04  0.2041052E-02  0.2059937E-03 -0.7935730E+04 -0.6462561E+03
  0.1473810E+01  0.1445669E+05  0.2085852E+04  0.1232042E-02  0.1535416E-02 -0.7933217E+04 -0.7198542E+03
  0.1504762E+01  0.1452794E+05  0.2352293E+04  0.1470348E-02  0.1285553E-02 -0.7927763E+04 -0.7981558E+03
  0.1535714E+01  0.1459844E+05  0.2642322E+04  0.7948764E-03 -0.3623962E-03 -0.7925157E+04 -0.8813467E+03
  0.1566667E+01  0.1465626E+05  0.2955902E+04 -0.9739652E-03 -0.7324219E-03 -0.7913989E+04 -0.9682662E+03
  0.1597619E+01  0.1470627E+05  0.3293774E+04 -0.7831784E-03 -0.4806519E-03 -0.7900655E+04 -0.1059006E+04
  0.1628572E+01  0.1474465E+05  0.3655589E+04 -0.1686498E-03  0.6752014E-03 -0.7883859E+04 -0.1152866E+04
  0.1659524E+01  0.1477122E+05  0.4041349E+04 -0.3310085E-03 -0.1766205E-02 -0.7867474E+04 -0.1249966E+04
  0.1690476E+01  0.1478346E+05  0.4449931E+04 -0.1390054E-02 -0.2815247E-02 -0.7844655E+04 -0.1348863E+04
  0.1721429E+01  0.1477846E+05  0.4880188E+04 -0.2659208E-03  0.1449585E-03 -0.7811117E+04 -0.1448134E+04
  0.1752381E+01  0.1476831E+05  0.5331959E+04 -0.1741492E-04 -0.9384155E-03 -0.7779048E+04 -0.1548834E+04
  0.1783333E+01  0.1475127E+05  0.5803549E+04  0.4962672E-03  0.1602173E-02 -0.7744318E+04 -0.1649386E+04
  0.1814286E+01  0.1471269E+05  0.6292314E+04  0.9756014E-03  0.1457214E-02 -0.7698805E+04 -0.1747491E+04
  0.1845238E+01  0.1466653E+05  0.6797704E+04  0.1984627E-03  0.6637573E-03 -0.7654046E+04 -0.1844197E+04
  0.1876190E+01  0.1460578E+05  0.7316312E+04 -0.3090486E-03 -0.2960205E-02 -0.7605681E+04 -0.1937318E+04
  0.1907143E+01  0.1453311E+05  0.7846430E+04  0.1104119E-02  0.2960205E-02 -0.7558713E+04 -0.2027273E+04
  0.1938095E+01  0.1444175E+05  0.8384900E+04  0.9132779E-03  0.1693726E-02 -0.7510078E+04 -0.2112979E+04
  0.1969048E+01  0.1433193E+05  0.8926514E+04  0.4959568E-03  0.3005981E-02 -0.7451072E+04 -0.2190019E+04
  0.2000000E+01  0.1420989E+05  0.9470359E+04  0.7324219E-03 -0.4577637E-04 -0.7391554E+04 -0.2261000E+04
Zone t="Motion of body    1 in DoF   2",I=    64,F=POINT
  0.5000000E-01  0.1125336E-02  0.2563000E-05  0.1118732E+05  0.1840063E+02  0.7057190E-03  0.3129244E-05
  0.8095238E-01 -0.7068409E-03  0.5185604E-05  0.1113385E+05  0.3056872E+02 -0.2591750E-03 -0.5900860E-05
  0.1119048E+00  0.6988200E-03 -0.6973743E-05  0.1110785E+05  0.4390045E+02 -0.1806705E-02  0.2205372E-05
  0.1428571E+00 -0.2109528E-02 -0.4768372E-05  0.1110672E+05  0.5894387E+02 -0.7343292E-03  0.1192093E-05
  0.1738095E+00 -0.8120602E-03  0.1215935E-04  0.1111550E+05  0.7641224E+02  0.1283933E-02 -0.2384186E-06
  0.2047619E+00  0.1378614E-02 -0.1740456E-04  0.1114640E+05  0.9716541E+02  0.1676693E-02 -0.8344650E-06
  0.2357143E+00  0.3074877E-03 -0.2074242E-04  0.1119026E+05  0.1224638E+03  0.2589370E-03  0.4649162E-05
  0.2666667E+00 -0.1459122E-02  0.9536743E-05  0.1123828E+05  0.1534867E+03 -0.5578995E-03 -0.1573563E-04
  0.2976190E+00  0.4101563E-03  0.9059906E-05  0.1130587E+05  0.1925286E+03  0.6536865E-03 -0.1907349E-04
  0.3285715E+00 -0.5108376E-03  0.3576279E-04  0.1138166E+05  0.2412297E+03 -0.1462853E-02 -0.5006790E-05
  0.3595238E+00  0.9337165E-03 -0.0000000E+00  0.1145001E+05  0.3025334E+03 -0.9231062E-03  0.4768372E-06
  0.3904762E+00 -0.3907738E-03 -0.1239777E-04  0.1152998E+05  0.3791611E+03  0.6838542E-03  0.5865097E-04
  0.4214286E+00  0.4887984E-03 -0.5912781E-04  0.1159851E+05  0.4711036E+03 -0.2443992E-02 -0.3623962E-04
  0.4523810E+00  0.2361097E-03  0.1440048E-03  0.1165678E+05  0.5834418E+03 -0.1011899E-02 -0.1430511E-04
  0.4833333E+00  0.1341721E-02  0.7438660E-04  0.1168808E+05  0.7089964E+03  0.1420646E-03  0.1201630E-03
  0.5142857E+00 -0.1335144E-02 -0.5722046E-05  0.1171350E+05  0.8533680E+03 -0.5192227E-03 -0.3814697E-05
  0.5452381E+00  0.7276244E-03  0.9536743E-05  0.1172448E+05  0.1010929E+04 -0.1385285E-02 -0.5626678E-04
  0.5761905E+00 -0.6620548E-03 -0.2822876E-03  0.1171338E+05  0.1179965E+04 -0.3045452E-03  0.1373291E-03
  0.6071429E+00 -0.1055549E-02 -0.3700256E-03  0.1168173E+05  0.1364080E+04 -0.1181210E-02  0.2002716E-03
  0.6380953E+00 -0.6934778E-03 -0.5722046E-04  0.1164680E+05  0.1555717E+04  0.4065215E-03 -0.4768372E-04
  0.6690477E+00 -0.2394707E-02 -0.3433228E-04  0.1160516E+05  0.1758588E+04 -0.7640254E-03 -0.1621246E-03
  0.7000000E+00 -0.1264300E-02 -0.2861023E-03  0.1154895E+05  0.1973706E+04 -0.1188006E-02  0.9727478E-04
  0.7309524E+00 -0.4383795E-03  0.6408691E-03  0.1147993E+05  0.2197235E+04 -0.6471316E-03  0.1449585E-03
  0.7619048E+00 -0.6008147E-04 -0.1983643E-03  0.1139865E+05  0.2430187E+04  0.3204345E-03 -0.1564026E-03
  0.7928572E+00 -0.5003783E-03 -0.3929138E-03  0.1130998E+05  0.2671973E+04 -0.2116985E-02  0.6484985E-04
  0.8238096E+00 -0.9261115E-04  0.3509521E-03  0.1121544E+05  0.2921438E+04 -0.3704446E-04  0.2403259E-03
  0.8547620E+00  0.3391786E-03 -0.6103516E-04  0.1111338E+05  0.3177605E+04  0.7140603E-04 -0.1487732E-03
  0.8857143E+00 -0.6891066E-04 -0.1754761E-03  0.1100095E+05  0.3439737E+04  0.6374236E-03 -0.1907349E-04
  0.9166667E+00  0.5826083E-03  0.6256104E-03  0.1087919E+05  0.3706710E+04  0.1481490E-02 -0.3662109E-03
  0.9476191E+00 -0.2415336E-03 -0.3814697E-03  0.1074577E+05  0.3977616E+04 -0.1755144E-02  0.2250671E-03
  0.9785714E+00 -0.3430443E-03 -0.2517700E-03  0.1060435E+05  0.4251260E+04 -0.1418956E-02 -0.1525879E-03
  0.1009524E+01  0.1163843E-02  0.9841919E-03  0.1046048E+05  0.4525972E+04 -0.1828896E-02 -0.5035400E-03
  0.1040476E+01  0.4546211E-03  0.1220703E-03  0.1031311E+05  0.4801055E+04 -0.2786388E-03 -0.1373291E-02
  0.1071429E+01 -0.1025391E-02  0.5187988E-03  0.1016130E+05  0.5075537E+04  0.8544922E-04  0.9918213E-04
  0.1102381E+01  0.9412332E-03  0.4577637E-03  0.1000337E+05  0.5349076E+04  0.0000000E+00 -0.1449585E-03
  0.1133333E+01  0.4308364E-03 -0.1525879E-03  0.9839111E+04  0.5620637E+04  0.5250819E-03  0.1220703E-03
  0.1164286E+01  0.1310571E-03  0.4882812E-03  0.9671006E+04  0.5888938E+04  0.1664425E-02 -0.1037598E-02
  0.1195238E+01  0.3319242E-03 -0.1129150E-02  0.9498988E+04  0.6153339E+04 -0.5744843E-03 -0.4272461E-03
  0.1226190E+01  0.4479862E-03  0.1068115E-02  0.9325636E+04  0.6412288E+04 -0.6222031E-04  0.8239746E-03
  0.1257143E+01  0.2670288E-03  0.8392334E-03  0.9151202E+04  0.6671070E+04  0.5826083E-03 -0.1602173E-03
  0.1288095E+01 -0.2369202E-04  0.1373291E-03  0.8976915E+04  0.6911734E+04 -0.5686085E-03 -0.6179810E-03
  0.1319048E+01 -0.1619525E-03  0.1556396E-02  0.8803783E+04  0.7150678E+04  0.1399732E-02 -0.1403809E-02
  0.1350000E+01 -0.4521123E-03 -0.5798340E-03  0.8630593E+04  0.7382059E+04  0.2147533E-03 -0.6408691E-03
  0.1380952E+01 -0.1038650E-02 -0.7019043E-03  0.8458772E+04  0.7605051E+04 -0.7182154E-03 -0.2746582E-03
  0.1411905E+01  0.6484342E-04 -0.1831055E-03  0.8251951E+04  0.7802021E+04 -0.4539039E-03 -0.1831055E-03
  0.1442857E+01 -0.3807143E-03  0.5187988E-03  0.8080597E+04  0.8009579E+04 -0.9623612E-03  0.6713867E-03
  0.1473810E+01 -0.6419044E-03 -0.9613037E-03  0.7909152E+04  0.8209097E+04 -0.4451918E-03 -0.1068115E-03
  0.1504762E+01 -0.8315074E-03  0.9765625E-03  0.7739452E+04  0.8399446E+04 -0.5678587E-03  0.2136230E-03
  0.1535714E+01 -0.7948764E-03 -0.2044678E-02  0.7572954E+04  0.8579098E+04  0.3775663E-03 -0.3509521E-03
  0.1566667E+01 -0.1363551E-03  0.4119873E-03  0.7409156E+04  0.8748977E+04  0.6817756E-04  0.3509521E-03
  0.1597619E+01  0.2674268E-03  0.2960205E-02  0.7249735E+04  0.8907748E+04  0.2387739E-03  0.4577637E-04
  0.1628572E+01 -0.5059493E-03 -0.1586914E-02  0.7093665E+04  0.9056029E+04 -0.1686498E-03 -0.4272461E-03
  0.1659524E+01 -0.2390617E-03  0.1831055E-03  0.6941584E+04  0.9193876E+04  0.7539637E-03 -0.4425049E-03
  0.1690476E+01 -0.9928958E-03  0.7324219E-03  0.6793452E+04  0.9322284E+04  0.4693689E-03  0.3662109E-03
  0.1721429E+01 -0.3722891E-03  0.1129150E-02  0.6647402E+04  0.9442115E+04  0.1577797E-02 -0.1251221E-02
  0.1752381E+01 -0.4005432E-03  0.6103516E-04  0.6506481E+04  0.9551902E+04  0.4614955E-03 -0.1327515E-02
  0.1783333E+01 -0.1112323E-02 -0.1129150E-02  0.6369017E+04  0.9651378E+04  0.9668653E-03 -0.1983643E-03
  0.1814286E+01  0.6223664E-03  0.2380371E-02  0.6234222E+04  0.9743573E+04 -0.3364143E-04  0.9765625E-03
  0.1845238E+01  0.3969254E-03  0.7934570E-03  0.6104249E+04  0.9825348E+04  0.7028888E-03  0.1068115E-03
  0.1876190E+01 -0.5855658E-03  0.1525879E-03  0.5977701E+04  0.9897848E+04  0.1951886E-03  0.8697510E-03
  0.1907143E+01  0.4240458E-03  0.1434326E-02  0.5855499E+04  0.9960441E+04 -0.8640933E-03 -0.1525879E-03
  0.1938095E+01  0.3385427E-03  0.7019043E-03  0.5738195E+04  0.1001511E+05  0.4408928E-03 -0.5035400E-03
  0.1969048E+01  0.5734501E-03  0.2563477E-02  0.5623100E+04  0.1006171E+05  0.1069407E-02  0.1678467E-03
  0.2000000E+01 -0.9689331E-03  0.8544922E-03  0.5513109E+04  0.1009987E+05 -0.4882812E-03 -0.1266479E-02
Zone t="Motion of body    1 in DoF   3",I=    64,F=POINT
  0.5000000E-01 -0.7480418E+04 -0.7826384E-04  0.7104874E-03  0.1466389E-05  0.1334738E+05  0.3368115E-04
  0.8095238E-01 -0.7535314E+04 -0.3134302E-03 -0.8798697E-03 -0.1089241E-05  0.1341065E+05  0.1709550E-03
  0.1119048E+00 -0.7579275E+04 -0.9001992E-03 -0.7297130E-03 -0.2955335E-05  0.1342733E+05  0.4477957E-03
  0.1428571E+00 -0.7594566E+04 -0.1992042E-02  0.1072288E-02  0.2264876E-05  0.1343202E+05  0.1008489E-02
  0.1738095E+00 -0.7600652E+04 -0.3924703E-02  0.9622639E-03  0.9211410E-05  0.1342877E+05  0.1919659E-02
  0.2047619E+00 -0.7602374E+04 -0.7267719E-02  0.9699200E-03  0.1007788E-04  0.1342941E+05  0.3543946E-02
  0.2357143E+00 -0.7601697E+04 -0.1283008E-01  0.2011819E-02  0.2954496E-04  0.1343112E+05  0.6309022E-02
  0.2666667E+00 -0.7604064E+04 -0.2187027E-01 -0.5596876E-03 -0.1733511E-05  0.1342816E+05  0.1076165E-01
  0.2976190E+00 -0.7606263E+04 -0.3666062E-01 -0.3396606E-03  0.5284324E-05  0.1343022E+05  0.1799657E-01
  0.3285715E+00 -0.7606566E+04 -0.6055166E-01  0.1680540E-02  0.4075671E-04  0.1343085E+05  0.2965639E-01
  0.3595238E+00 -0.7610174E+04 -0.9927727E-01  0.9827898E-03  0.3136450E-04  0.1342924E+05  0.4843524E-01
  0.3904762E+00 -0.7604435E+04 -0.1616098E+00  0.1914792E-02  0.3753288E-04  0.1343252E+05  0.7836713E-01
  0.4214286E+00 -0.7615246E+04 -0.2594663E+00 -0.7456439E-03 -0.1043454E-04  0.1343201E+05  0.1254964E+00
  0.4523810E+00 -0.7620805E+04 -0.4132712E+00 -0.5913283E-03  0.4603062E-05  0.1343151E+05  0.1992077E+00
  0.4833333E+00 -0.7624037E+04 -0.6418645E+00 -0.1869530E-02 -0.1320019E-03  0.1343075E+05  0.3075973E+00
  0.5142857E+00 -0.7621472E+04 -0.9803412E+00 -0.7602904E-03 -0.7691234E-04  0.1343454E+05  0.4669016E+00
  0.5452381E+00 -0.7627835E+04 -0.1460042E+01 -0.1536582E-02 -0.1216605E-03  0.1343904E+05  0.6923626E+00
  0.5761905E+00 -0.7627519E+04 -0.2125172E+01 -0.2865042E-02 -0.1919176E-03  0.1344515E+05  0.1001864E+01
  0.6071429E+00 -0.7635725E+04 -0.3037754E+01  0.1481224E-02  0.5462766E-04  0.1344452E+05  0.1423138E+01
  0.6380953E+00 -0.7646852E+04 -0.4242204E+01 -0.1872689E-02 -0.3100298E-03  0.1344438E+05  0.1975055E+01
  0.6690477E+00 -0.7658178E+04 -0.5819165E+01 -0.2083965E-02 -0.3847703E-03  0.1344871E+05  0.2693552E+01
  0.7000000E+00 -0.7663777E+04 -0.7865751E+01 -0.1680510E-02 -0.2254769E-03  0.1345476E+05  0.3615809E+01
  0.7309524E+00 -0.7668014E+04 -0.1046826E+02 -0.2158628E-02 -0.4373640E-03  0.1345808E+05  0.4775069E+01
  0.7619048E+00 -0.7680803E+04 -0.1375134E+02 -0.3886521E-03 -0.6711483E-04  0.1346008E+05  0.6223692E+01
  0.7928572E+00 -0.7691586E+04 -0.1784339E+02 -0.5112037E-03 -0.1154840E-03  0.1346157E+05  0.8008937E+01
  0.8238096E+00 -0.7712596E+04 -0.2287430E+02 -0.2042076E-02 -0.6018281E-03  0.1346312E+05  0.1019209E+02
  0.8547620E+00 -0.7723137E+04 -0.2900411E+02  0.1411385E-03  0.1394451E-03  0.1347065E+05  0.1282039E+02
  0.8857143E+00 -0.7730437E+04 -0.3642839E+02 -0.1015894E-02 -0.1444817E-03  0.1347775E+05  0.1595564E+02
  0.9166667E+00 -0.7738641E+04 -0.4535173E+02 -0.2557234E-02 -0.7475019E-03  0.1348162E+05  0.1966313E+02
  0.9476191E+00 -0.7757626E+04 -0.5595988E+02  0.1477380E-02  0.3767610E-03  0.1348496E+05  0.2402905E+02
  0.9785714E+00 -0.7770206E+04 -0.6846775E+02  0.7962136E-03  0.4304647E-03  0.1348566E+05  0.2910270E+02
  0.1009524E+01 -0.7790757E+04 -0.8311176E+02 -0.3731476E-04 -0.9787083E-04  0.1348824E+05  0.3497881E+02
  0.1040476E+01 -0.7805215E+04 -0.1001198E+03 -0.1141136E-02 -0.9067059E-03  0.1349351E+05  0.4170426E+02
  0.1071429E+01 -0.7821515E+04 -0.1197589E+03 -0.9466172E-03 -0.1332760E-03  0.1349668E+05  0.4935085E+02
  0.1102381E+01 -0.7834663E+04 -0.1423006E+03  0.1476733E-02  0.7587671E-03  0.1350392E+05  0.5797536E+02
  0.1133333E+01 -0.7844315E+04 -0.1680482E+03  0.5961867E-03  0.1704693E-03  0.1350902E+05  0.6762374E+02
  0.1164286E+01 -0.7860308E+04 -0.1972513E+03  0.2066606E-02  0.1106262E-02  0.1351082E+05  0.7838446E+02
  0.1195238E+01 -0.7871292E+04 -0.2301917E+03 -0.3355148E-03  0.3106594E-03  0.1351434E+05  0.9028062E+02
  0.1226190E+01 -0.7884637E+04 -0.2670627E+03 -0.2257042E-02 -0.1648188E-02  0.1351211E+05  0.1033542E+03
  0.1257143E+01 -0.7901912E+04 -0.3079230E+03 -0.4445423E-03 -0.1850128E-03  0.1351315E+05  0.1176754E+03
  0.1288095E+01 -0.7914329E+04 -0.3533219E+03 -0.1700273E-02 -0.1546383E-02  0.1351094E+05  0.1332096E+03
  0.1319048E+01 -0.7928598E+04 -0.4031268E+03 -0.6749225E-03 -0.1072884E-02  0.1351293E+05  0.1499724E+03
  0.1350000E+01 -0.7935937E+04 -0.4577124E+03  0.6308379E-03  0.7886887E-03  0.1351445E+05  0.1678136E+03
  0.1380952E+01 -0.7937871E+04 -0.5173154E+03  0.8335442E-03  0.9469986E-03  0.1351807E+05  0.1867095E+03
  0.1411905E+01 -0.8023626E+04 -0.5925281E+03  0.2978744E-03 -0.7181168E-03  0.1351692E+05  0.2111201E+03
  0.1442857E+01 -0.8027441E+04 -0.6634832E+03 -0.1006976E-02 -0.1999855E-02  0.1351292E+05  0.2325055E+03
  0.1473810E+01 -0.8026339E+04 -0.7394631E+03  0.1368900E-02  0.1265526E-02  0.1350735E+05  0.2547632E+03
  0.1504762E+01 -0.8022400E+04 -0.8204131E+03  0.1688999E-03  0.7791519E-03  0.1350143E+05  0.2778301E+03
  0.1535714E+01 -0.8020670E+04 -0.9058912E+03  0.8569761E-03  0.1206398E-02  0.1349407E+05  0.3015353E+03
  0.1566667E+01 -0.8010748E+04 -0.9957611E+03  0.3579322E-03 -0.7476807E-03  0.1348576E+05  0.3256364E+03
  0.1597619E+01 -0.7998148E+04 -0.1089605E+04 -0.2910057E-03 -0.1039505E-03  0.1347889E+05  0.3500131E+03
  0.1628572E+01 -0.7981777E+04 -0.1186264E+04 -0.2652720E-03 -0.2689362E-03  0.1346651E+05  0.3742159E+03
  0.1659524E+01 -0.7964811E+04 -0.1285611E+04  0.1022046E-02  0.1955032E-02  0.1345485E+05  0.3981010E+03
  0.1690476E+01 -0.7941371E+04 -0.1387593E+04  0.2482240E-03 -0.7133484E-03  0.1344637E+05  0.4213667E+03
  0.1721429E+01 -0.7908209E+04 -0.1491297E+04  0.2812944E-02  0.4529953E-02  0.1343410E+05  0.4433036E+03
  0.1752381E+01 -0.7875796E+04 -0.1595939E+04  0.9477528E-03  0.1091003E-02  0.1342395E+05  0.4641678E+03
  0.1783333E+01 -0.7840208E+04 -0.1699841E+04  0.1213395E-02  0.2664566E-02  0.1340893E+05  0.4830981E+03
  0.1814286E+01 -0.7795458E+04 -0.1803128E+04  0.3206448E-04 -0.4062653E-03  0.1339337E+05  0.5003494E+03
  0.1845238E+01 -0.7750531E+04 -0.1904288E+04 -0.2196527E-03 -0.1272202E-02  0.1337887E+05  0.5159116E+03
  0.1876190E+01 -0.7702021E+04 -0.2001203E+04  0.2582182E-03  0.1220703E-02  0.1335946E+05  0.5290430E+03
  0.1907143E+01 -0.7654008E+04 -0.2093236E+04 -0.8115876E-03 -0.2250671E-02  0.1333918E+05  0.5394752E+03
  0.1938095E+01 -0.7604864E+04 -0.2181746E+04 -0.3597016E-03 -0.1865387E-02  0.1332499E+05  0.5484710E+03
  0.1969048E+01 -0.7546403E+04 -0.2263916E+04  0.2043884E-03  0.1361847E-02  0.1330545E+05  0.5532582E+03
  0.2000000E+01 -0.7487250E+04 -0.2340425E+04 -0.5331039E-03 -0.2216339E-02  0.1328957E+05  0.5558777E+03
