VARIABLES="w (rad/s)"
"A   1   1" "B   1   1"
"A   1   2" "B   1   2"
"A   1   3" "B   1   3"
Zone t="Motion of body    1 in DoF   1",I=    64,F=POINT
  0.5000000E-01  0.1686738E+06  0.2235435E-01 -0.9498596E-02 -0.1263127E-04 -0.6772381E+06 -0.9163333E-01
  0.8095238E-01  0.1697451E+06  0.9751664E-01  0.4712273E-03  0.4591397E-04 -0.6802899E+06 -0.3977815E+00
  0.1119048E+00  0.1702394E+06  0.2729092E+00 -0.3408878E-03  0.2155313E-04 -0.6815809E+06 -0.1111786E+01
  0.1428571E+00  0.1704823E+06  0.6129189E+00  0.1708984E-02  0.7322105E-04 -0.6823241E+06 -0.2495196E+01
  0.1738095E+00  0.1708358E+06  0.1214911E+01  0.1404645E-02  0.1537548E-03 -0.6830394E+06 -0.4938095E+01
  0.2047619E+00  0.1709227E+06  0.2230952E+01 -0.1788472E-02  0.1173532E-03 -0.6835048E+06 -0.9057718E+01
  0.2357143E+00  0.1711892E+06  0.3907067E+01 -0.7120768E-03  0.1144931E-03 -0.6844246E+06 -0.1583750E+02
  0.2666667E+00  0.1716282E+06  0.6624541E+01  0.3948212E-02  0.3847554E-03 -0.6853461E+06 -0.2678691E+02
  0.2976190E+00  0.1719098E+06  0.1103148E+02 -0.3588867E-02  0.1323521E-03 -0.6863419E+06 -0.4451305E+02
  0.3285715E+00  0.1723737E+06  0.1810669E+02 -0.7476806E-02 -0.1405701E-03 -0.6877527E+06 -0.7287333E+02
  0.3595238E+00  0.1727830E+06  0.2947750E+02 -0.7215083E-02 -0.3503561E-03 -0.6888550E+06 -0.1183039E+03
  0.3904762E+00  0.1732492E+06  0.4759325E+02 -0.2930804E-02  0.5173832E-03 -0.6902532E+06 -0.1904273E+03
  0.4214286E+00  0.1739139E+06  0.7580988E+02 -0.2389681E-02  0.7620454E-03 -0.6924098E+06 -0.3023044E+03
  0.4523810E+00  0.1745446E+06  0.1196622E+03 -0.6408691E-02 -0.2692342E-03 -0.6943752E+06 -0.4755469E+03
  0.4833333E+00  0.1754524E+06  0.1841529E+03  0.8587015E-02  0.1546085E-02 -0.6969397E+06 -0.7287429E+03
  0.5142857E+00  0.1762208E+06  0.2785989E+03  0.1780192E-02  0.1406670E-03 -0.6993717E+06 -0.1098108E+04
  0.5452381E+00  0.1771815E+06  0.4112706E+03 -0.5597111E-03  0.1646399E-02 -0.7023671E+06 -0.1613926E+04
  0.5761905E+00  0.1781176E+06  0.5923132E+03  0.9003946E-03  0.2187490E-02 -0.7051939E+06 -0.2313432E+04
  0.6071429E+00  0.1792078E+06  0.8374999E+03 -0.4021139E-02 -0.7734299E-03 -0.7084574E+06 -0.3254959E+04
  0.6380953E+00  0.1805500E+06  0.1158124E+04  0.1817390E-02  0.2021790E-02 -0.7123274E+06 -0.4476218E+04
  0.6690477E+00  0.1816887E+06  0.1571984E+04 -0.1687698E-02  0.2486706E-02 -0.7159113E+06 -0.6043297E+04
  0.7000000E+00  0.1830285E+06  0.2101853E+04  0.2659389E-02  0.2671242E-02 -0.7202652E+06 -0.8035968E+04
  0.7309524E+00  0.1845893E+06  0.2766849E+04 -0.2755528E-02  0.1652718E-02 -0.7245029E+06 -0.1050951E+05
  0.7619048E+00  0.1860560E+06  0.3591260E+04 -0.9292602E-02 -0.1928329E-02 -0.7286772E+06 -0.1355213E+05
  0.7928572E+00  0.1875870E+06  0.4603824E+04 -0.6543408E-02  0.2735138E-02 -0.7331399E+06 -0.1725761E+05
  0.8238096E+00  0.1891519E+06  0.5832965E+04 -0.3222868E-02  0.2765656E-03 -0.7374697E+06 -0.2171016E+05
  0.8547620E+00  0.1909316E+06  0.7312177E+04  0.1963666E-02  0.5071640E-02 -0.7424648E+06 -0.2701569E+05
  0.8857143E+00  0.1924543E+06  0.9063959E+04 -0.2480784E-02 -0.8773804E-03 -0.7465277E+06 -0.3323352E+05
  0.9166667E+00  0.1941258E+06  0.1113096E+05  0.0000000E+00  0.2563477E-02 -0.7508806E+06 -0.4048621E+05
  0.9476191E+00  0.1956539E+06  0.1353825E+05 -0.6923963E-02 -0.2086639E-02 -0.7542906E+06 -0.4881827E+05
  0.9785714E+00  0.1973526E+06  0.1633298E+05 -0.6237169E-04  0.1892090E-02 -0.7580075E+06 -0.5836398E+05
  0.1009524E+01  0.1987862E+06  0.1953042E+05 -0.8192243E-02  0.2136230E-03 -0.7611104E+06 -0.6916337E+05
  0.1040476E+01  0.1999623E+06  0.2315585E+05 -0.2727727E-02 -0.1380920E-02 -0.7631482E+06 -0.8123689E+05
  0.1071429E+01  0.2011604E+06  0.2725637E+05 -0.3759766E-02  0.1396179E-02 -0.7653216E+06 -0.9472167E+05
  0.1102381E+01  0.2020800E+06  0.3182118E+05 -0.5038366E-02 -0.1182556E-02 -0.7661399E+06 -0.1094693E+06
  0.1133333E+01  0.2029442E+06  0.3687575E+05 -0.1184800E-02  0.3463745E-02 -0.7662992E+06 -0.1254905E+06
  0.1164286E+01  0.2033632E+06  0.4239763E+05 -0.6448008E-02 -0.5416870E-03 -0.7651345E+06 -0.1427102E+06
  0.1195238E+01  0.2032758E+06  0.4835906E+05 -0.6893811E-02 -0.2578735E-02 -0.7620432E+06 -0.1609106E+06
  0.1226190E+01  0.2031371E+06  0.5483744E+05 -0.3832771E-02 -0.6561279E-03 -0.7590749E+06 -0.1803969E+06
  0.1257143E+01  0.2021749E+06  0.6162546E+05 -0.3981157E-02  0.5187988E-03 -0.7532543E+06 -0.2002870E+06
  0.1288095E+01  0.2013170E+06  0.6892177E+05 -0.7060222E-02 -0.3051758E-04 -0.7474734E+06 -0.2211662E+06
  0.1319048E+01  0.1999324E+06  0.7651570E+05 -0.3609227E-02  0.9765625E-03 -0.7404074E+06 -0.2424298E+06
  0.1350000E+01  0.1978964E+06  0.8428955E+05 -0.2622251E-02 -0.7781982E-03 -0.7315189E+06 -0.2636101E+06
  0.1380952E+01  0.1953244E+06  0.9216167E+05 -0.1060749E-02 -0.1525879E-04 -0.7210356E+06 -0.2843774E+06
  0.1411905E+01  0.1921949E+06  0.9994518E+05 -0.6268197E-02 -0.2120972E-02 -0.7098135E+06 -0.3045112E+06
  0.1442857E+01  0.1887465E+06  0.1076917E+06  0.1015238E-02  0.2349854E-02 -0.6968986E+06 -0.3233814E+06
  0.1473810E+01  0.1850392E+06  0.1153162E+06 -0.6294805E-02 -0.2334595E-02 -0.6834601E+06 -0.3411514E+06
  0.1504762E+01  0.1811087E+06  0.1227283E+06 -0.7463286E-02 -0.3707886E-02 -0.6696125E+06 -0.3575236E+06
  0.1535714E+01  0.1767309E+06  0.1297335E+06 -0.2384629E-02 -0.1678467E-03 -0.6552821E+06 -0.3723200E+06
  0.1566667E+01  0.1719136E+06  0.1360554E+06 -0.6194419E-02 -0.1464844E-02 -0.6397504E+06 -0.3841501E+06
  0.1597619E+01  0.1669488E+06  0.1418455E+06 -0.1107911E-02 -0.1358032E-02 -0.6243855E+06 -0.3940893E+06
  0.1628572E+01  0.1620612E+06  0.1471715E+06 -0.8395011E-02 -0.2929688E-02 -0.6098269E+06 -0.4024162E+06
  0.1659524E+01  0.1569376E+06  0.1515528E+06 -0.3162970E-02 -0.8392334E-03 -0.5947987E+06 -0.4073033E+06
  0.1690476E+01  0.1518926E+06  0.1552819E+06 -0.8051482E-02 -0.2319336E-02 -0.5805001E+06 -0.4100914E+06
  0.1721429E+01  0.1469560E+06  0.1582840E+06 -0.4361101E-02 -0.2487183E-02 -0.5668486E+06 -0.4104741E+06
  0.1752381E+01  0.1421840E+06  0.1606855E+06 -0.2542579E-02 -0.5645752E-03 -0.5543089E+06 -0.4093449E+06
  0.1783333E+01  0.1374689E+06  0.1622492E+06 -0.1574365E-02 -0.9765625E-03 -0.5425089E+06 -0.4061442E+06
  0.1814286E+01  0.1328105E+06  0.1626682E+06 -0.8073942E-03 -0.7629395E-03 -0.5308705E+06 -0.3989317E+06
  0.1845238E+01  0.1284893E+06  0.1626849E+06 -0.2050781E-02 -0.1190186E-02 -0.5207050E+06 -0.3914255E+06
  0.1876190E+01  0.1245143E+06  0.1623443E+06 -0.4619463E-02 -0.1403809E-02 -0.5119160E+06 -0.3835062E+06
  0.1907143E+01  0.1207558E+06  0.1612233E+06 -0.4608497E-02 -0.9155273E-03 -0.5038536E+06 -0.3734366E+06
  0.1938095E+01  0.1172504E+06  0.1594666E+06 -0.5920560E-02 -0.1487732E-02 -0.4966822E+06 -0.3617178E+06
  0.1969048E+01  0.1141163E+06  0.1574637E+06 -0.1549865E-02 -0.1480103E-02 -0.4906914E+06 -0.3499792E+06
  0.2000000E+01  0.1113543E+06  0.1551930E+06 -0.4821777E-02 -0.2593994E-03 -0.4857678E+06 -0.3376471E+06
Zone t="Motion of body    1 in DoF   2",I=    64,F=POINT
  0.5000000E-01 -0.3089905E-02  0.3862381E-04  0.4260274E+05  0.6290060E+02  0.1953125E-01 -0.1182556E-03
  0.8095238E-01  0.2827364E-02  0.1716614E-04  0.4229548E+05  0.1038240E+03  0.1055549E-01 -0.1959801E-03
  0.1119048E+00  0.2283948E-02  0.5245209E-05  0.4208096E+05  0.1476702E+03 -0.1445364E-01  0.2422333E-03
  0.1428571E+00  0.1708984E-02 -0.5054474E-04  0.4195650E+05  0.1958367E+03 -0.1708984E-02  0.2908707E-03
  0.1738095E+00  0.8779029E-03  0.4100800E-04  0.4190373E+05  0.2496750E+03  0.2756615E-01 -0.5474091E-03
  0.2047619E+00  0.2906267E-02  0.1792908E-03  0.4180662E+05  0.3116459E+03 -0.5067337E-02 -0.2040863E-03
  0.2357143E+00 -0.7735743E-02  0.3242493E-04  0.4177575E+05  0.3842130E+03  0.3366181E-02  0.1239777E-03
  0.2666667E+00  0.5722046E-04 -0.1010895E-03  0.4175552E+05  0.4688255E+03  0.1007080E-01  0.3547668E-03
  0.2976190E+00 -0.6485596E-02 -0.1239777E-03  0.4172562E+05  0.5715157E+03  0.3875976E-01 -0.1602173E-03
  0.3285715E+00 -0.4342120E-02  0.1983643E-03  0.4171030E+05  0.6923745E+03  0.2656356E-01 -0.1201630E-02
  0.3595238E+00 -0.3183125E-02 -0.0000000E+00  0.4166730E+05  0.8373934E+03  0.1697667E-01 -0.1033783E-02
  0.3904762E+00 -0.5353602E-02  0.1678467E-03  0.4159501E+05  0.1008460E+04 -0.1563095E-02 -0.1663208E-02
  0.4214286E+00 -0.8327677E-03 -0.5111694E-03  0.4150838E+05  0.1198396E+04 -0.1824847E-01  0.2601624E-02
  0.4523810E+00 -0.6745990E-02  0.3280640E-03  0.4131177E+05  0.1420312E+04  0.1646022E-01 -0.9078979E-03
  0.4833333E+00 -0.3693679E-02  0.8392334E-04  0.4119287E+05  0.1639055E+04  0.6819100E-02  0.1487732E-02
  0.5142857E+00 -0.2877977E-02  0.8697510E-03  0.4083584E+05  0.1873516E+04 -0.4747179E-03  0.2548218E-02
  0.5452381E+00 -0.1399278E-03 -0.1617432E-02  0.4056312E+05  0.2099487E+04 -0.1186587E-01  0.6576538E-02
  0.5761905E+00 -0.2065611E-02 -0.8544922E-03  0.4025977E+05  0.2307724E+04  0.5508296E-02  0.5920410E-02
  0.6071429E+00 -0.2689137E-02  0.5340576E-03  0.3985475E+05  0.2512792E+04  0.1749196E-01  0.8697510E-02
  0.6380953E+00  0.5380431E-02 -0.7324219E-03  0.3957029E+05  0.2682720E+04 -0.2486955E-01  0.5050659E-02
  0.6690477E+00 -0.1824538E-03  0.4577637E-04  0.3921637E+05  0.2830033E+04  0.1021742E-01 -0.2487183E-02
  0.7000000E+00  0.2811977E-02 -0.7629395E-03  0.3881562E+05  0.2959342E+04 -0.5057198E-02 -0.5737305E-02
  0.7309524E+00 -0.2066646E-02 -0.1953125E-02  0.3852955E+05  0.3056748E+04  0.1252513E-01  0.1240540E-01
  0.7619048E+00  0.1281738E-02  0.1068115E-02  0.3825504E+05  0.3125943E+04 -0.6729126E-02 -0.1022339E-02
  0.7928572E+00 -0.7313220E-03  0.2136230E-02  0.3788411E+05  0.3162644E+04  0.2617363E-02  0.7995605E-02
  0.8238096E+00 -0.1240989E-02  0.5187988E-03  0.3759938E+05  0.3177078E+04 -0.1778134E-02  0.2426147E-02
  0.8547620E+00  0.7497633E-03 -0.1770020E-02  0.3742460E+05  0.3171514E+04  0.1142496E-01  0.5706787E-02
  0.8857143E+00  0.1119798E-03  0.3265381E-02  0.3717683E+05  0.3125127E+04  0.1378213E-01 -0.7308960E-02
  0.9166667E+00  0.7157759E-03 -0.1647949E-02  0.3692696E+05  0.3049397E+04 -0.2663352E-02  0.4882812E-02
  0.9476191E+00 -0.3059426E-03 -0.1831055E-03  0.3674215E+05  0.2961708E+04  0.0000000E+00  0.1327515E-01
  0.9785714E+00 -0.6432081E-03 -0.2014160E-02  0.3664807E+05  0.2870544E+04  0.4740249E-02  0.1217651E-01
  0.1009524E+01  0.1947925E-02 -0.2777100E-02  0.3659104E+05  0.2765806E+04  0.1088268E-01  0.1449585E-02
  0.1040476E+01  0.2893627E-02  0.2807617E-02  0.3640965E+05  0.2593040E+04 -0.7273938E-02 -0.3005981E-02
  0.1071429E+01 -0.6889343E-03 -0.1892090E-02  0.3629799E+05  0.2429346E+04  0.1412760E-01  0.1358032E-02
  0.1102381E+01  0.8962479E-03 -0.1861572E-02  0.3625210E+05  0.2279348E+04  0.2436133E-02  0.1390076E-01
  0.1133333E+01  0.1332900E-02 -0.2655029E-02  0.3627565E+05  0.2153646E+04 -0.6677964E-02 -0.1144409E-02
  0.1164286E+01 -0.1435075E-02 -0.9155273E-03  0.3632471E+05  0.2030267E+04  0.1614623E-01 -0.2822876E-02
  0.1195238E+01  0.9510907E-03 -0.1129150E-02  0.3625654E+05  0.1800393E+04 -0.1429828E-02  0.2212524E-02
  0.1226190E+01  0.5910929E-03  0.1037598E-02  0.3623711E+05  0.1606000E+04  0.9955249E-03  0.2059937E-03
  0.1257143E+01  0.4430251E-02  0.1007080E-02  0.3625597E+05  0.1441940E+04 -0.2000288E-01 -0.6637573E-02
  0.1288095E+01  0.1208293E-02 -0.2166748E-02  0.3631816E+05  0.1321213E+04 -0.5496548E-02  0.1022339E-02
  0.1319048E+01 -0.1607957E-02 -0.1281738E-02  0.3641556E+05  0.1254537E+04  0.1739832E-01  0.4676819E-02
  0.1350000E+01  0.1265914E-02  0.4882812E-03  0.3648395E+05  0.1130260E+04 -0.1356337E-01  0.5638123E-02
  0.1380952E+01  0.1005502E-02 -0.1831055E-02  0.3651037E+05  0.9241676E+03  0.3182247E-02  0.2487183E-02
  0.1411905E+01  0.1188796E-03  0.4577637E-03  0.3654689E+05  0.7603676E+03  0.1175827E-01 -0.6332397E-03
  0.1442857E+01  0.2115080E-02  0.1831055E-03  0.3660545E+05  0.6396842E+03 -0.8967938E-02  0.2593994E-02
  0.1473810E+01  0.1873947E-02  0.5645752E-03  0.3667446E+05  0.5619427E+03 -0.1159569E-02 -0.2922058E-02
  0.1504762E+01 -0.3954730E-03 -0.1083374E-02  0.3675470E+05  0.5325788E+03  0.7301041E-02  0.6443024E-02
  0.1535714E+01 -0.3875023E-03  0.2136230E-03  0.3684047E+05  0.5680355E+03  0.1621548E-01  0.2803802E-02
  0.1566667E+01  0.6915153E-03 -0.1190186E-02  0.3689927E+05  0.4228512E+03  0.1714179E-02  0.1735687E-02
  0.1597619E+01  0.8404841E-03 -0.9460449E-03  0.3695997E+05  0.3081938E+03 -0.1222522E-02 -0.2531052E-02
  0.1628572E+01  0.6652296E-03 -0.2334595E-02  0.3701284E+05  0.2092903E+03 -0.6745991E-02  0.2815247E-02
  0.1659524E+01  0.1222892E-02 -0.1785278E-02  0.3706796E+05  0.1518221E+03  0.4560561E-02  0.3322601E-02
  0.1690476E+01  0.3700793E-03 -0.3051758E-03  0.3711852E+05  0.1191187E+03  0.3321688E-02  0.1611710E-03
  0.1721429E+01  0.4343373E-03 -0.6256104E-03  0.3716745E+05  0.1231885E+03  0.1035318E-01 -0.2861023E-03
  0.1752381E+01 -0.3482985E-03 -0.1388550E-02  0.3720824E+05  0.1542855E+03  0.8637802E-02  0.9403229E-03
  0.1783333E+01 -0.6160558E-03  0.4577637E-04  0.3724398E+05  0.2129819E+03  0.1040450E-01  0.1270294E-02
  0.1814286E+01  0.1295195E-02  0.2288818E-03  0.3730291E+05  0.1030246E+03  0.8073942E-03  0.8106232E-04
  0.1845238E+01  0.1529817E-02  0.2899170E-03  0.3734984E+05  0.6330638E+02  0.3969254E-02 -0.5774498E-03
  0.1876190E+01  0.2098277E-02  0.6866455E-04  0.3738857E+05  0.1874030E+02  0.1405358E-01 -0.1218557E-02
  0.1907143E+01  0.2800302E-03  0.4196167E-03  0.3742167E+05  0.6544792E+01  0.1587371E-01 -0.1011193E-02
  0.1938095E+01 -0.7873086E-03 -0.1831055E-03  0.3745062E+05 -0.4823394E+01  0.1612408E-01  0.8505583E-04
  0.1969048E+01  0.1084905E-02  0.7286072E-03  0.3747408E+05  0.8479864E+01 -0.1487870E-02 -0.1867950E-02
  0.2000000E+01  0.3738403E-03 -0.2708435E-03  0.3749377E+05  0.2459762E+02  0.2441406E-02  0.3226995E-03
Zone t="Motion of body    1 in DoF   3",I=    64,F=POINT
  0.5000000E-01 -0.6771781E+06 -0.9133465E-01  0.6637573E-01  0.8063903E-04  0.3348979E+07  0.3743659E+00
  0.8095238E-01 -0.6802936E+06 -0.3974243E+00 -0.1470229E-01 -0.2625478E-03  0.3356534E+07  0.1620450E+01
  0.1119048E+00 -0.6816564E+06 -0.1111045E+01  0.3558869E-01 -0.2721744E-04  0.3359893E+07  0.4526322E+01
  0.1428571E+00 -0.6823939E+06 -0.2493800E+01  0.1089477E-01 -0.6743064E-03  0.3362199E+07  0.1015389E+02
  0.1738095E+00 -0.6831577E+06 -0.4937199E+01  0.1281738E-01 -0.4571825E-03  0.3364065E+07  0.2006758E+02
  0.2047619E+00 -0.6835981E+06 -0.9052474E+01  0.8942360E-02 -0.4433468E-03  0.3365937E+07  0.3675509E+02
  0.2357143E+00 -0.6844818E+06 -0.1582757E+02  0.5955551E-01 -0.1009032E-03  0.3368713E+07  0.6415974E+02
  0.2666667E+00 -0.6854608E+06 -0.2677843E+02 -0.1602173E-02 -0.1423344E-02  0.3371211E+07  0.1082733E+03
  0.2976190E+00 -0.6864336E+06 -0.4449286E+02  0.5455078E-01  0.1779497E-03  0.3374709E+07  0.1795230E+03
  0.3285715E+00 -0.6878480E+06 -0.7284125E+02  0.1022604E+00  0.3693461E-02  0.3378942E+07  0.2931567E+03
  0.3595238E+00 -0.6889411E+06 -0.1182525E+03  0.7979032E-01  0.2875388E-02  0.3382459E+07  0.4745818E+03
  0.3904762E+00 -0.6903713E+06 -0.1903448E+03  0.3829584E-01  0.7413030E-03  0.3387208E+07  0.7615948E+03
  0.4214286E+00 -0.6924841E+06 -0.3021443E+03  0.3113827E-01 -0.1374722E-02  0.3393707E+07  0.1204820E+04
  0.4523810E+00 -0.6944638E+06 -0.4752777E+03  0.5707108E-01  0.2409697E-02  0.3400180E+07  0.1888940E+04
  0.4833333E+00 -0.6970621E+06 -0.7284911E+03  0.1073377E-01 -0.3111839E-02  0.3408179E+07  0.2882808E+04
  0.5142857E+00 -0.6994758E+06 -0.1097603E+04  0.2599080E-01  0.2981186E-02  0.3415936E+07  0.4326148E+04
  0.5452381E+00 -0.7024675E+06 -0.1613191E+04  0.3470208E-01 -0.1474380E-02  0.3425475E+07  0.6330540E+04
  0.5761905E+00 -0.7052582E+06 -0.2312310E+04  0.4131222E-01  0.1201630E-03  0.3434298E+07  0.9031181E+04
  0.6071429E+00 -0.7085581E+06 -0.3253458E+04 -0.3005802E-01 -0.6113052E-02  0.3444762E+07  0.1264532E+05
  0.6380953E+00 -0.7124489E+06 -0.4475115E+04 -0.1205217E-01 -0.8790970E-02  0.3456409E+07  0.1729645E+05
  0.6690477E+00 -0.7159738E+06 -0.6040627E+04  0.2207691E-01 -0.1516151E-01  0.3467906E+07  0.2322216E+05
  0.7000000E+00 -0.7203194E+06 -0.8030276E+04  0.1220703E-02 -0.7308960E-02  0.3481468E+07  0.3070247E+05
  0.7309524E+00 -0.7245891E+06 -0.1050548E+05  0.2321324E-01 -0.8735657E-02  0.3493655E+07  0.3990329E+05
  0.7619048E+00 -0.7287561E+06 -0.1354686E+05  0.3701019E-01 -0.2906799E-02  0.3505886E+07  0.5111998E+05
  0.7928572E+00 -0.7332053E+06 -0.1724866E+05  0.4865216E-01 -0.3181458E-02  0.3518972E+07  0.6465585E+05
  0.8238096E+00 -0.7375562E+06 -0.2169928E+05 -0.1140969E-01 -0.1209259E-01  0.3531515E+07  0.8076283E+05
  0.8547620E+00 -0.7425257E+06 -0.2700185E+05 -0.8140287E-02  0.2052307E-02  0.3544694E+07  0.9975860E+05
  0.8857143E+00 -0.7465353E+06 -0.3321190E+05  0.1447124E-01  0.2334595E-02  0.3555159E+07  0.1217683E+06
  0.9166667E+00 -0.7508904E+06 -0.4045562E+05  0.1558061E-01 -0.2929688E-02  0.3566056E+07  0.1471409E+06
  0.9476191E+00 -0.7543384E+06 -0.4878841E+05  0.5474761E-01  0.1765442E-01  0.3573594E+07  0.1759212E+06
  0.9785714E+00 -0.7580649E+06 -0.5834085E+05 -0.5738196E-02 -0.5249023E-02  0.3580519E+07  0.2084624E+06
  0.1009524E+01 -0.7611422E+06 -0.6912589E+05  0.7097928E-01  0.1049805E-01  0.3586005E+07  0.2447746E+06
  0.1040476E+01 -0.7631370E+06 -0.8118491E+05  0.5103489E-01 -0.7293701E-02  0.3587587E+07  0.2847938E+06
  0.1071429E+01 -0.7652882E+06 -0.9463627E+05  0.5013021E-02 -0.1922607E-02  0.3588899E+07  0.3288528E+06
  0.1102381E+01 -0.7661344E+06 -0.1093740E+06  0.6123553E-01  0.1843262E-01  0.3585662E+07  0.3762261E+06
  0.1133333E+01 -0.7662701E+06 -0.1253908E+06  0.1034007E-01 -0.1370239E-01  0.3578392E+07  0.4266452E+06
  0.1164286E+01 -0.7651039E+06 -0.1425908E+06  0.8073116E-02 -0.9399414E-02  0.3567938E+07  0.4798593E+06
  0.1195238E+01 -0.7619771E+06 -0.1607825E+06  0.1388975E-01  0.4241943E-02  0.3550903E+07  0.5348821E+06
  0.1226190E+01 -0.7590143E+06 -0.1802123E+06  0.4400220E-01  0.2612305E-01  0.3534006E+07  0.5926624E+06
  0.1257143E+01 -0.7531875E+06 -0.2000676E+06  0.1670144E-01 -0.1129150E-02  0.3508846E+07  0.6500466E+06
  0.1288095E+01 -0.7474425E+06 -0.2209753E+06  0.4965847E-01  0.8331299E-02  0.3483296E+07  0.7089204E+06
  0.1319048E+01 -0.7403448E+06 -0.2421823E+06  0.4506906E-01  0.1327515E-01  0.3453595E+07  0.7669771E+06
  0.1350000E+01 -0.7314388E+06 -0.2632978E+06  0.3752532E-01  0.6530762E-02  0.3419596E+07  0.8229766E+06
  0.1380952E+01 -0.7209278E+06 -0.2840128E+06  0.5109274E-01  0.9033203E-02  0.3381404E+07  0.8758777E+06
  0.1411905E+01 -0.7096983E+06 -0.3038881E+06  0.3890605E-01  0.2136230E-02  0.3342122E+07  0.9251463E+06
  0.1442857E+01 -0.6968141E+06 -0.3227159E+06 -0.2453492E-02 -0.1098633E-01  0.3298224E+07  0.9683068E+06
  0.1473810E+01 -0.6834228E+06 -0.3404935E+06  0.3279925E-01  0.4272461E-03  0.3254130E+07  0.1006588E+07
  0.1504762E+01 -0.6695472E+06 -0.3567808E+06  0.3463938E-01  0.1104736E-01  0.3208453E+07  0.1038242E+07
  0.1535714E+01 -0.6552661E+06 -0.3714828E+06  0.6756450E-02 -0.3906250E-02  0.3164412E+07  0.1064759E+07
  0.1566667E+01 -0.6397252E+06 -0.3832161E+06  0.2127140E-01  0.8148193E-02  0.3117125E+07  0.1080119E+07
  0.1597619E+01 -0.6243833E+06 -0.3931030E+06 -0.3973198E-02 -0.6408691E-03  0.3072637E+07  0.1090302E+07
  0.1628572E+01 -0.6099184E+06 -0.4013415E+06  0.2825820E-01  0.5523682E-02  0.3031276E+07  0.1094814E+07
  0.1659524E+01 -0.5949394E+06 -0.4062206E+06  0.2721625E-02  0.2838135E-02  0.2990162E+07  0.1089061E+07
  0.1690476E+01 -0.5806996E+06 -0.4090920E+06  0.3870488E-01  0.5310059E-02  0.2952987E+07  0.1077753E+07
  0.1721429E+01 -0.5670556E+06 -0.4094013E+06  0.3134320E-01  0.6927490E-02  0.2917666E+07  0.1058739E+07
  0.1752381E+01 -0.5545563E+06 -0.4081161E+06  0.3378495E-01  0.3204346E-02  0.2886504E+07  0.1035375E+07
  0.1783333E+01 -0.5428286E+06 -0.4049068E+06 -0.3504673E-01 -0.2777100E-02  0.2860074E+07  0.1009515E+07
  0.1814286E+01 -0.5311734E+06 -0.3975758E+06 -0.4911648E-02  0.5187988E-02  0.2833276E+07  0.9694366E+06
  0.1845238E+01 -0.5210342E+06 -0.3900940E+06  0.3770791E-02  0.5371094E-02  0.2812218E+07  0.9330852E+06
  0.1876190E+01 -0.5123488E+06 -0.3821728E+06  0.6896663E-02  0.2548218E-02  0.2795088E+07  0.8959148E+06
  0.1907143E+01 -0.5043412E+06 -0.3721048E+06  0.2701092E-01  0.1617432E-02  0.2780350E+07  0.8546402E+06
  0.1938095E+01 -0.4971927E+06 -0.3605059E+06  0.2469000E-01  0.4440308E-02  0.2768776E+07  0.8100588E+06
  0.1969048E+01 -0.4912308E+06 -0.3488213E+06  0.1487870E-02  0.1922607E-02  0.2760418E+07  0.7682389E+06
  0.2000000E+01 -0.4863585E+06 -0.3363118E+06  0.4003906E-01  0.1602173E-02  0.2754311E+07  0.7226728E+06
