VARIABLES="w (rad/s)"
"abs(F   1   1)" "angle(F   1   1)"
"abs(F   1   2)" "angle(F   1   2)"
"abs(F   1   3)" "angle(F   1   3)"
Zone t="Diffraction force - beta =   0.000 deg",I=    64,F=POINT
  0.5000000E-01  0.8348630E+03 -0.1570795E+01  0.1021355E+03 -0.3095927E+01  0.8727709E+03  0.1570797E+01
  0.8095238E-01  0.1366522E+04 -0.1570794E+01  0.2651852E+03 -0.3094349E+01  0.1429606E+04  0.1570798E+01
  0.1119048E+00  0.1909175E+04 -0.1570791E+01  0.5041045E+03 -0.3092354E+01  0.1989914E+04  0.1570799E+01
  0.1428571E+00  0.2465079E+04 -0.1570787E+01  0.8200035E+03 -0.3089840E+01  0.2567956E+04  0.1570802E+01
  0.1738095E+00  0.3046251E+04 -0.1570780E+01  0.1213544E+04 -0.3086622E+01  0.3164007E+04  0.1570805E+01
  0.2047619E+00  0.3650687E+04 -0.1570771E+01  0.1687920E+04 -0.3082615E+01  0.3791145E+04  0.1570810E+01
  0.2357143E+00  0.4296640E+04 -0.1570758E+01  0.2243063E+04 -0.3077487E+01  0.4444795E+04  0.1570818E+01
  0.2666667E+00  0.4984191E+04 -0.1570739E+01  0.2884452E+04 -0.3071289E+01  0.5145085E+04  0.1570828E+01
  0.2976190E+00  0.5722618E+04 -0.1570710E+01  0.3613607E+04 -0.3063476E+01  0.5895762E+04  0.1570844E+01
  0.3285715E+00  0.6532155E+04 -0.1570668E+01  0.4431049E+04 -0.3054054E+01  0.6699544E+04  0.1570866E+01
  0.3595238E+00  0.7419837E+04 -0.1570604E+01  0.5339948E+04 -0.3042613E+01  0.7574985E+04  0.1570901E+01
  0.3904762E+00  0.8379137E+04 -0.1570509E+01  0.6345070E+04 -0.3029088E+01  0.8542253E+04  0.1570952E+01
  0.4214286E+00  0.9445964E+04 -0.1570369E+01  0.7428761E+04 -0.3013787E+01  0.9578773E+04  0.1571025E+01
  0.4523810E+00  0.1061856E+05 -0.1570165E+01  0.8598870E+04 -0.2996027E+01  0.1070164E+05  0.1571133E+01
  0.4833333E+00  0.1188303E+05 -0.1569882E+01  0.9844982E+04 -0.2978059E+01  0.1192086E+05  0.1571281E+01
  0.5142857E+00  0.1323001E+05 -0.1569488E+01  0.1116127E+05 -0.2958546E+01  0.1322394E+05  0.1571484E+01
  0.5452381E+00  0.1467991E+05 -0.1568965E+01  0.1253696E+05 -0.2938897E+01  0.1456798E+05  0.1571751E+01
  0.5761905E+00  0.1621276E+05 -0.1568286E+01  0.1396508E+05 -0.2919432E+01  0.1596860E+05  0.1572095E+01
  0.6071429E+00  0.1779380E+05 -0.1567409E+01  0.1544972E+05 -0.2899506E+01  0.1743440E+05  0.1572533E+01
  0.6380953E+00  0.1941762E+05 -0.1566315E+01  0.1699881E+05 -0.2880766E+01  0.1893138E+05  0.1573071E+01
  0.6690477E+00  0.2110241E+05 -0.1564961E+01  0.1858438E+05 -0.2861999E+01  0.2042375E+05  0.1573727E+01
  0.7000000E+00  0.2283314E+05 -0.1563302E+01  0.2019536E+05 -0.2842883E+01  0.2191038E+05  0.1574521E+01
  0.7309524E+00  0.2459980E+05 -0.1561306E+01  0.2185018E+05 -0.2824473E+01  0.2340754E+05  0.1575458E+01
  0.7619048E+00  0.2637833E+05 -0.1558917E+01  0.2354389E+05 -0.2806517E+01  0.2491719E+05  0.1576556E+01
  0.7928572E+00  0.2815277E+05 -0.1556084E+01  0.2526162E+05 -0.2788804E+01  0.2642706E+05  0.1577828E+01
  0.8238096E+00  0.2994670E+05 -0.1552771E+01  0.2699529E+05 -0.2771364E+01  0.2789337E+05  0.1579284E+01
  0.8547620E+00  0.3175254E+05 -0.1548936E+01  0.2873397E+05 -0.2754145E+01  0.2929729E+05  0.1580931E+01
  0.8857143E+00  0.3356349E+05 -0.1544534E+01  0.3047683E+05 -0.2737310E+01  0.3066032E+05  0.1582771E+01
  0.9166667E+00  0.3534617E+05 -0.1539509E+01  0.3221643E+05 -0.2720870E+01  0.3199705E+05  0.1584804E+01
  0.9476191E+00  0.3709671E+05 -0.1533822E+01  0.3395721E+05 -0.2705062E+01  0.3330124E+05  0.1587022E+01
  0.9785714E+00  0.3878427E+05 -0.1527421E+01  0.3569145E+05 -0.2689873E+01  0.3455286E+05  0.1589413E+01
  0.1009524E+01  0.4041230E+05 -0.1520294E+01  0.3741073E+05 -0.2675236E+01  0.3572623E+05  0.1591961E+01
  0.1040476E+01  0.4198073E+05 -0.1512432E+01  0.3909878E+05 -0.2660970E+01  0.3681500E+05  0.1594639E+01
  0.1071429E+01  0.4347125E+05 -0.1503821E+01  0.4075004E+05 -0.2647027E+01  0.3780145E+05  0.1597414E+01
  0.1102381E+01  0.4487930E+05 -0.1494467E+01  0.4236842E+05 -0.2633695E+01  0.3869761E+05  0.1600237E+01
  0.1133333E+01  0.4617041E+05 -0.1484352E+01  0.4394155E+05 -0.2620883E+01  0.3950675E+05  0.1603055E+01
  0.1164286E+01  0.4732430E+05 -0.1473485E+01  0.4548083E+05 -0.2608917E+01  0.4023470E+05  0.1605802E+01
  0.1195238E+01  0.4832416E+05 -0.1461884E+01  0.4697733E+05 -0.2597762E+01  0.4090255E+05  0.1608410E+01
  0.1226190E+01  0.4912774E+05 -0.1449553E+01  0.4842697E+05 -0.2587391E+01  0.4146554E+05  0.1610793E+01
  0.1257143E+01  0.4973739E+05 -0.1436531E+01  0.4982876E+05 -0.2577495E+01  0.4194076E+05  0.1612899E+01
  0.1288095E+01  0.5017145E+05 -0.1423164E+01  0.5116111E+05 -0.2568853E+01  0.4229408E+05  0.1614576E+01
  0.1319048E+01  0.5038339E+05 -0.1409302E+01  0.5243371E+05 -0.2560545E+01  0.4255028E+05  0.1615806E+01
  0.1350000E+01  0.5036497E+05 -0.1395143E+01  0.5364350E+05 -0.2552945E+01  0.4269876E+05  0.1616464E+01
  0.1380952E+01  0.5011732E+05 -0.1380817E+01  0.5478616E+05 -0.2546210E+01  0.4279251E+05  0.1616524E+01
  0.1411905E+01  0.4949374E+05 -0.1366730E+01  0.5579829E+05 -0.2540098E+01  0.4284915E+05  0.1615790E+01
  0.1442857E+01  0.4873844E+05 -0.1352500E+01  0.5679746E+05 -0.2534928E+01  0.4279614E+05  0.1614443E+01
  0.1473810E+01  0.4771378E+05 -0.1338603E+01  0.5772918E+05 -0.2530638E+01  0.4268701E+05  0.1612362E+01
  0.1504762E+01  0.4642014E+05 -0.1325295E+01  0.5858685E+05 -0.2527188E+01  0.4252560E+05  0.1609534E+01
  0.1535714E+01  0.4486096E+05 -0.1312873E+01  0.5937800E+05 -0.2524747E+01  0.4233481E+05  0.1606034E+01
  0.1566667E+01  0.4303791E+05 -0.1301672E+01  0.6009646E+05 -0.2523244E+01  0.4211544E+05  0.1601897E+01
  0.1597619E+01  0.4096530E+05 -0.1292089E+01  0.6074465E+05 -0.2522662E+01  0.4190632E+05  0.1597346E+01
  0.1628572E+01  0.3863349E+05 -0.1284565E+01  0.6131566E+05 -0.2522840E+01  0.4168335E+05  0.1592424E+01
  0.1659524E+01  0.3608299E+05 -0.1279939E+01  0.6183856E+05 -0.2524106E+01  0.4148196E+05  0.1587415E+01
  0.1690476E+01  0.3331185E+05 -0.1279041E+01  0.6231261E+05 -0.2526355E+01  0.4129521E+05  0.1582488E+01
  0.1721429E+01  0.3034131E+05 -0.1283128E+01  0.6272314E+05 -0.2529360E+01  0.4113814E+05  0.1577925E+01
  0.1752381E+01  0.2720469E+05 -0.1294277E+01  0.6309711E+05 -0.2533539E+01  0.4101636E+05  0.1573974E+01
  0.1783333E+01  0.2392335E+05 -0.1315533E+01  0.6343291E+05 -0.2538655E+01  0.4092980E+05  0.1570903E+01
  0.1814286E+01  0.2054036E+05 -0.1352135E+01  0.6373165E+05 -0.2544546E+01  0.4087350E+05  0.1568894E+01
  0.1845238E+01  0.1711636E+05 -0.1413335E+01  0.6400094E+05 -0.2551131E+01  0.4087083E+05  0.1568364E+01
  0.1876190E+01  0.1373703E+05 -0.1517195E+01  0.6423025E+05 -0.2558066E+01  0.4090281E+05  0.1569373E+01
  0.1907143E+01  0.1061068E+05 -0.1700760E+01  0.6445502E+05 -0.2565580E+01  0.4097966E+05  0.1572174E+01
  0.1938095E+01  0.8174627E+04 -0.2031761E+01  0.6466954E+05 -0.2573326E+01  0.4108814E+05  0.1576814E+01
  0.1969048E+01  0.7312364E+04 -0.2539351E+01  0.6485385E+05 -0.2580841E+01  0.4124311E+05  0.1583588E+01
  0.2000000E+01  0.8587403E+04 -0.3025812E+01  0.6501227E+05 -0.2588217E+01  0.4142746E+05  0.1592364E+01
