VARIABLES="w (rad/s)"
"abs(F   1   1)" "angle(F   1   1)"
"abs(F   1   2)" "angle(F   1   2)"
"abs(F   1   3)" "angle(F   1   3)"
Zone t="Diffraction force - beta =   0.000 deg",I=    64,F=POINT
  0.5000000E-01  0.2495751E+03 -0.1570796E+01  0.6719444E+02 -0.3107157E+01  0.2078285E+01 -0.1570796E+01
  0.8095238E-01  0.4077534E+03 -0.1570795E+01  0.1749227E+03 -0.3106032E+01  0.3377733E+01 -0.1570796E+01
  0.1119048E+00  0.5692656E+03 -0.1570794E+01  0.3332914E+03 -0.3104570E+01  0.4713181E+01 -0.1570794E+01
  0.1428571E+00  0.7393808E+03 -0.1570792E+01  0.5424561E+03 -0.3102643E+01  0.6153306E+01 -0.1570792E+01
  0.1738095E+00  0.9125388E+03 -0.1570789E+01  0.8034281E+03 -0.3100169E+01  0.7561496E+01 -0.1570789E+01
  0.2047619E+00  0.1099976E+04 -0.1570785E+01  0.1117133E+04 -0.3097032E+01  0.9134953E+01 -0.1570783E+01
  0.2357143E+00  0.1295993E+04 -0.1570779E+01  0.1484639E+04 -0.3093030E+01  0.1093678E+02 -0.1570777E+01
  0.2666667E+00  0.1506409E+04 -0.1570771E+01  0.1908342E+04 -0.3088137E+01  0.1270685E+02 -0.1570765E+01
  0.2976190E+00  0.1739803E+04 -0.1570758E+01  0.2388268E+04 -0.3081930E+01  0.1477463E+02 -0.1570748E+01
  0.3285715E+00  0.1993380E+04 -0.1570738E+01  0.2927462E+04 -0.3074440E+01  0.1724363E+02 -0.1570722E+01
  0.3595238E+00  0.2267096E+04 -0.1570709E+01  0.3524921E+04 -0.3065275E+01  0.1958747E+02 -0.1570685E+01
  0.3904762E+00  0.2576730E+04 -0.1570666E+01  0.4183650E+04 -0.3054329E+01  0.2243227E+02 -0.1570626E+01
  0.4214286E+00  0.2925350E+04 -0.1570602E+01  0.4895706E+04 -0.3041917E+01  0.2603619E+02 -0.1570543E+01
  0.4523810E+00  0.3297045E+04 -0.1570507E+01  0.5665883E+04 -0.3027475E+01  0.2993504E+02 -0.1570419E+01
  0.4833333E+00  0.3707622E+04 -0.1570374E+01  0.6485677E+04 -0.3012633E+01  0.3377137E+02 -0.1570241E+01
  0.5142857E+00  0.4164877E+04 -0.1570189E+01  0.7350396E+04 -0.2996377E+01  0.3895933E+02 -0.1570008E+01
  0.5452381E+00  0.4658813E+04 -0.1569941E+01  0.8261979E+04 -0.2979946E+01  0.4505095E+02 -0.1569703E+01
  0.5761905E+00  0.5160330E+04 -0.1569613E+01  0.9213408E+04 -0.2963511E+01  0.4926313E+02 -0.1569257E+01
  0.6071429E+00  0.5697492E+04 -0.1569185E+01  0.1020364E+05 -0.2946485E+01  0.5554392E+02 -0.1568714E+01
  0.6380953E+00  0.6282262E+04 -0.1568651E+01  0.1123653E+05 -0.2930136E+01  0.6262756E+02 -0.1568045E+01
  0.6690477E+00  0.6893987E+04 -0.1567980E+01  0.1229903E+05 -0.2913585E+01  0.7041191E+02 -0.1567218E+01
  0.7000000E+00  0.7518956E+04 -0.1567144E+01  0.1339135E+05 -0.2896746E+01  0.7849895E+02 -0.1566187E+01
  0.7309524E+00  0.8149934E+04 -0.1566116E+01  0.1452078E+05 -0.2880320E+01  0.8531906E+02 -0.1564848E+01
  0.7619048E+00  0.8815917E+04 -0.1564875E+01  0.1567631E+05 -0.2863889E+01  0.9320306E+02 -0.1563255E+01
  0.7928572E+00  0.9518608E+04 -0.1563391E+01  0.1684945E+05 -0.2847323E+01  0.1034170E+03 -0.1561464E+01
  0.8238096E+00  0.1025596E+05 -0.1561633E+01  0.1804390E+05 -0.2830855E+01  0.1151180E+03 -0.1559408E+01
  0.8547620E+00  0.1101185E+05 -0.1559558E+01  0.1925510E+05 -0.2814511E+01  0.1266285E+03 -0.1556933E+01
  0.8857143E+00  0.1176871E+05 -0.1557111E+01  0.2047814E+05 -0.2798275E+01  0.1366342E+03 -0.1553856E+01
  0.9166667E+00  0.1251881E+05 -0.1554242E+01  0.2171151E+05 -0.2782199E+01  0.1470331E+03 -0.1550259E+01
  0.9476191E+00  0.1330817E+05 -0.1550951E+01  0.2295312E+05 -0.2766337E+01  0.1602031E+03 -0.1546357E+01
  0.9785714E+00  0.1413507E+05 -0.1547203E+01  0.2419627E+05 -0.2750635E+01  0.1739084E+03 -0.1541903E+01
  0.1009524E+01  0.1498806E+05 -0.1542947E+01  0.2543569E+05 -0.2735073E+01  0.1882698E+03 -0.1536834E+01
  0.1040476E+01  0.1585280E+05 -0.1538124E+01  0.2666630E+05 -0.2719624E+01  0.2045199E+03 -0.1531279E+01
  0.1071429E+01  0.1673147E+05 -0.1532693E+01  0.2789180E+05 -0.2704472E+01  0.2226269E+03 -0.1525205E+01
  0.1102381E+01  0.1760950E+05 -0.1526588E+01  0.2911000E+05 -0.2689667E+01  0.2397647E+03 -0.1518153E+01
  0.1133333E+01  0.1847203E+05 -0.1519735E+01  0.3031419E+05 -0.2675108E+01  0.2544167E+03 -0.1509761E+01
  0.1164286E+01  0.1932983E+05 -0.1512116E+01  0.3150516E+05 -0.2660875E+01  0.2699961E+03 -0.1500556E+01
  0.1195238E+01  0.2020487E+05 -0.1503760E+01  0.3267519E+05 -0.2646832E+01  0.2883273E+03 -0.1490870E+01
  0.1226190E+01  0.2109600E+05 -0.1494651E+01  0.3382568E+05 -0.2633103E+01  0.3091522E+03 -0.1480737E+01
  0.1257143E+01  0.2197892E+05 -0.1484690E+01  0.3496170E+05 -0.2619324E+01  0.3312394E+03 -0.1469767E+01
  0.1288095E+01  0.2289935E+05 -0.1474039E+01  0.3605214E+05 -0.2606505E+01  0.3541210E+03 -0.1457982E+01
  0.1319048E+01  0.2377963E+05 -0.1462412E+01  0.3712139E+05 -0.2593588E+01  0.3763645E+03 -0.1444981E+01
  0.1350000E+01  0.2463671E+05 -0.1449858E+01  0.3816086E+05 -0.2581016E+01  0.3991314E+03 -0.1430974E+01
  0.1380952E+01  0.2544814E+05 -0.1436282E+01  0.3916680E+05 -0.2568754E+01  0.4215854E+03 -0.1415713E+01
  0.1411905E+01  0.2605506E+05 -0.1421756E+01  0.4010782E+05 -0.2556684E+01  0.4321417E+03 -0.1396751E+01
  0.1442857E+01  0.2676052E+05 -0.1406116E+01  0.4104952E+05 -0.2545150E+01  0.4537574E+03 -0.1378898E+01
  0.1473810E+01  0.2742522E+05 -0.1389584E+01  0.4195771E+05 -0.2534003E+01  0.4752249E+03 -0.1360221E+01
  0.1504762E+01  0.2805268E+05 -0.1372256E+01  0.4282721E+05 -0.2523120E+01  0.4966921E+03 -0.1340732E+01
  0.1535714E+01  0.2862183E+05 -0.1354072E+01  0.4365673E+05 -0.2512505E+01  0.5166584E+03 -0.1320130E+01
  0.1566667E+01  0.2913363E+05 -0.1335102E+01  0.4444501E+05 -0.2502178E+01  0.5370719E+03 -0.1298734E+01
  0.1597619E+01  0.2955881E+05 -0.1315216E+01  0.4518784E+05 -0.2491982E+01  0.5581930E+03 -0.1276738E+01
  0.1628572E+01  0.2990169E+05 -0.1294509E+01  0.4588970E+05 -0.2482166E+01  0.5786982E+03 -0.1254118E+01
  0.1659524E+01  0.3015701E+05 -0.1273025E+01  0.4654950E+05 -0.2472720E+01  0.5988250E+03 -0.1230994E+01
  0.1690476E+01  0.3031678E+05 -0.1250874E+01  0.4716642E+05 -0.2463655E+01  0.6176125E+03 -0.1207592E+01
  0.1721429E+01  0.3038029E+05 -0.1228218E+01  0.4773721E+05 -0.2454851E+01  0.6327856E+03 -0.1182763E+01
  0.1752381E+01  0.3032893E+05 -0.1204981E+01  0.4826176E+05 -0.2446321E+01  0.6442086E+03 -0.1156792E+01
  0.1783333E+01  0.3016745E+05 -0.1181288E+01  0.4873920E+05 -0.2438051E+01  0.6528977E+03 -0.1130015E+01
  0.1814286E+01  0.2989328E+05 -0.1157193E+01  0.4916912E+05 -0.2430027E+01  0.6600956E+03 -0.1102751E+01
  0.1845238E+01  0.2949318E+05 -0.1132590E+01  0.4955077E+05 -0.2422188E+01  0.6663243E+03 -0.1075693E+01
  0.1876190E+01  0.2897722E+05 -0.1107706E+01  0.4988633E+05 -0.2414719E+01  0.6702306E+03 -0.1049086E+01
  0.1907143E+01  0.2834846E+05 -0.1082753E+01  0.5017435E+05 -0.2407573E+01  0.6719745E+03 -0.1023014E+01
  0.1938095E+01  0.2760332E+05 -0.1057725E+01  0.5041504E+05 -0.2400790E+01  0.6703492E+03 -0.9968789E+00
  0.1969048E+01  0.2674330E+05 -0.1032634E+01  0.5060650E+05 -0.2394284E+01  0.6636663E+03 -0.9700404E+00
  0.2000000E+01  0.2576779E+05 -0.1007439E+01  0.5074830E+05 -0.2388028E+01  0.6532155E+03 -0.9428220E+00
