VARIABLES="w (rad/s)"
"A   1   1" "B   1   1"
"A   1   2" "B   1   2"
"A   1   3" "B   1   3"
Zone t="Motion of body    1 in DoF   1",I=    64,F=POINT
  0.5000000E-01  0.1587640E+05  0.3657886E-03  0.1001358E-02  0.1936662E-05  0.1321293E+03  0.3853703E-05
  0.8095238E-01  0.1592219E+05  0.1553728E-02  0.1104439E-02  0.5654697E-05  0.1316908E+03  0.1782755E-04
  0.1119048E+00  0.1593322E+05  0.4384470E-02  0.3813683E-02  0.1781099E-04  0.1315183E+03  0.4937695E-04
  0.1428571E+00  0.1601174E+05  0.9884928E-02  0.2343178E-02  0.2173281E-04  0.1326086E+03  0.1106595E-03
  0.1738095E+00  0.1599039E+05  0.1969919E-01  0.3838082E-02  0.2676914E-04  0.1315374E+03  0.2215831E-03
  0.2047619E+00  0.1605135E+05  0.3645641E-01  0.9314958E-04 -0.1104605E-04  0.1319686E+03  0.4096434E-03
  0.2357143E+00  0.1605844E+05  0.6428587E-01  0.2569141E-02  0.3737073E-04  0.1337424E+03  0.7283197E-03
  0.2666667E+00  0.1606538E+05  0.1098900E+00 -0.1523495E-02 -0.1261334E-04  0.1332407E+03  0.1249439E-02
  0.2976190E+00  0.1612250E+05  0.1848820E+00  0.1441956E-02  0.2887525E-04  0.1340963E+03  0.2115619E-02
  0.3285715E+00  0.1616050E+05  0.3067993E+00  0.5685972E-02  0.1250682E-03  0.1363343E+03  0.3542147E-02
  0.3595238E+00  0.1615837E+05  0.5049034E+00  0.4005432E-03  0.2643373E-04  0.1354798E+03  0.5861423E-02
  0.3904762E+00  0.1620586E+05  0.8260888E+00  0.3790506E-02  0.1384616E-03  0.1362001E+03  0.9655704E-02
  0.4214286E+00  0.1628699E+05  0.1335040E+01  0.7965604E-03  0.2247118E-04  0.1392840E+03  0.1577362E-01
  0.4523810E+00  0.1630275E+05  0.2135676E+01  0.3406725E-02  0.2390351E-03  0.1414021E+03  0.2552127E-01
  0.4833333E+00  0.1634009E+05  0.3334928E+01  0.1756076E-02  0.1216698E-03  0.1413236E+03  0.4014621E-01
  0.5142857E+00  0.1642737E+05  0.5127594E+01  0.2217823E-02  0.1709769E-03  0.1450856E+03  0.6259033E-01
  0.5452381E+00  0.1652264E+05  0.7700230E+01  0.2119906E-02  0.9432994E-04  0.1500455E+03  0.9551276E-01
  0.5761905E+00  0.1654020E+05  0.1127565E+02  0.7560666E-02  0.8340012E-03  0.1472458E+03  0.1404725E+00
  0.6071429E+00  0.1658785E+05  0.1621904E+02  0.1429389E-02  0.4346110E-03  0.1497289E+03  0.2047589E+00
  0.6380953E+00  0.1669662E+05  0.2284704E+02  0.5505974E-02  0.8130968E-03  0.1531991E+03  0.2924549E+00
  0.6690477E+00  0.1680724E+05  0.3164125E+02 -0.1154591E-02 -0.1086071E-03  0.1571134E+03  0.4111088E+00
  0.7000000E+00  0.1689331E+05  0.4315016E+02  0.1811981E-02  0.1080707E-03  0.1603338E+03  0.5688774E+00
  0.7309524E+00  0.1694918E+05  0.5790927E+02  0.5521494E-02  0.1163840E-02  0.1600791E+03  0.7710404E+00
  0.7619048E+00  0.1703716E+05  0.7675127E+02  0.5106925E-03 -0.4413724E-04  0.1613893E+03  0.1033987E+01
  0.7928572E+00  0.1715711E+05  0.1005701E+03  0.3401610E-02  0.8438528E-03  0.1659390E+03  0.1377703E+01
  0.8238096E+00  0.1730285E+05  0.1303803E+03 -0.1991140E-03  0.9831786E-04  0.1718748E+03  0.1819508E+01
  0.8547620E+00  0.1744708E+05  0.1672655E+03  0.2151106E-02  0.4433393E-03  0.1766342E+03  0.2373211E+01
  0.8857143E+00  0.1756772E+05  0.2124347E+03 -0.7149481E-03  0.5365014E-03  0.1784486E+03  0.3053325E+01
  0.9166667E+00  0.1766035E+05  0.2672319E+03  0.4086581E-02  0.2324104E-02  0.1800920E+03  0.3894199E+01
  0.9476191E+00  0.1778909E+05  0.3334779E+03 -0.2294569E-03  0.4070997E-03  0.1846830E+03  0.4944169E+01
  0.9785714E+00  0.1794995E+05  0.4129963E+03  0.5625147E-02  0.2207458E-02  0.1894290E+03  0.6223274E+01
  0.1009524E+01  0.1812771E+05  0.5077408E+03  0.3298814E-02  0.2193213E-02  0.1944129E+03  0.7778234E+01
  0.1040476E+01  0.1830569E+05  0.6197884E+03  0.4846848E-02  0.2839327E-02  0.2006306E+03  0.9671340E+01
  0.1071429E+01  0.1848944E+05  0.7515333E+03 -0.8509319E-03  0.4215240E-03  0.2079389E+03  0.1196432E+02
  0.1102381E+01  0.1866589E+05  0.9053109E+03  0.3228568E-02  0.1684189E-02  0.2137138E+03  0.1467689E+02
  0.1133333E+01  0.1882389E+05  0.1083525E+04  0.7606955E-03  0.8609295E-03  0.2169192E+03  0.1783447E+02
  0.1164286E+01  0.1897671E+05  0.1288938E+04  0.3869460E-02  0.2527714E-02  0.2206561E+03  0.2154539E+02
  0.1195238E+01  0.1914421E+05  0.1524556E+04  0.1139394E-02  0.1095772E-02  0.2262661E+03  0.2593311E+02
  0.1226190E+01  0.1932868E+05  0.1793375E+04  0.1063967E-02  0.1240015E-02  0.2333707E+03  0.3107675E+02
  0.1257143E+01  0.1950898E+05  0.2098315E+04  0.3183105E-02  0.2534866E-02  0.2410903E+03  0.3709097E+02
  0.1288095E+01  0.1972646E+05  0.2442906E+04 -0.2043437E-03 -0.8816719E-03  0.2492650E+03  0.4402479E+02
  0.1319048E+01  0.1991660E+05  0.2829292E+04  0.1243564E-02  0.2660275E-02  0.2568224E+03  0.5194933E+02
  0.1350000E+01  0.2009731E+05  0.3260683E+04  0.9211787E-03  0.2240181E-02  0.2643983E+03  0.6102341E+02
  0.1380952E+01  0.2025319E+05  0.3739266E+04  0.3497157E-02  0.3166199E-02  0.2712769E+03  0.7134181E+02
  0.1411905E+01  0.2028627E+05  0.4242102E+04 -0.5781872E-03  0.2283096E-02  0.2701173E+03  0.8203379E+02
  0.1442857E+01  0.2039686E+05  0.4817473E+04  0.1491131E-02  0.1725197E-02  0.2760963E+03  0.9500611E+02
  0.1473810E+01  0.2049360E+05  0.5443910E+04  0.3266465E-02  0.4135132E-02  0.2818830E+03  0.1093940E+03
  0.1504762E+01  0.2058122E+05  0.6121863E+04  0.8619284E-03  0.3105164E-02  0.2878349E+03  0.1253192E+03
  0.1535714E+01  0.2064890E+05  0.6850943E+04  0.1753696E-02  0.5277634E-02  0.2929818E+03  0.1426970E+03
  0.1566667E+01  0.2069949E+05  0.7630970E+04  0.8327403E-03  0.1111031E-02  0.2983084E+03  0.1619207E+03
  0.1597619E+01  0.2071488E+05  0.8459775E+04 -0.1910191E-04 -0.1440048E-03  0.3037666E+03  0.1831634E+03
  0.1628572E+01  0.2070230E+05  0.9335438E+04  0.1316405E-02 -0.7057190E-03  0.3086920E+03  0.2062410E+03
  0.1659524E+01  0.2065995E+05  0.1025513E+05  0.1682626E-02  0.2416611E-02  0.3135399E+03  0.2313027E+03
  0.1690476E+01  0.2058470E+05  0.1121248E+05  0.2753029E-02  0.4304886E-02  0.3178221E+03  0.2580350E+03
  0.1721429E+01  0.2047873E+05  0.1220115E+05  0.1320740E-02  0.2111435E-02  0.3204382E+03  0.2862556E+03
  0.1752381E+01  0.2033388E+05  0.1321398E+05  0.1428024E-02  0.4800797E-02  0.3216508E+03  0.3157365E+03
  0.1783333E+01  0.2015630E+05  0.1424588E+05  0.6802283E-03  0.1131058E-02  0.3216735E+03  0.3465580E+03
  0.1814286E+01  0.1994526E+05  0.1529045E+05 -0.9629858E-03  0.1899719E-02  0.3212131E+03  0.3791021E+03
  0.1845238E+01  0.1969422E+05  0.1634020E+05  0.1600106E-02  0.4280090E-02  0.3203631E+03  0.4133715E+03
  0.1876190E+01  0.1941373E+05  0.1738727E+05  0.1585907E-02  0.7133484E-03  0.3187247E+03  0.4486956E+03
  0.1907143E+01  0.1910795E+05  0.1842286E+05  0.7040760E-03  0.3204346E-03  0.3165254E+03  0.4850800E+03
  0.1938095E+01  0.1877586E+05  0.1943862E+05  0.1153407E-02 -0.2199173E-02  0.3135657E+03  0.5221622E+03
  0.1969048E+01  0.1842054E+05  0.2042828E+05  0.7206872E-03  0.8602142E-03  0.3088645E+03  0.5592086E+03
  0.2000000E+01  0.1804247E+05  0.2138499E+05  0.1483917E-02  0.2971649E-02  0.3033542E+03  0.5965966E+03
Zone t="Motion of body    1 in DoF   2",I=    64,F=POINT
  0.5000000E-01  0.4272461E-02  0.9130687E-05  0.2695337E+05  0.4626752E+02  0.7152557E-04  0.1370907E-05
  0.8095238E-01 -0.2956951E-02  0.7420778E-05  0.2676882E+05  0.7682307E+02  0.4771176E-03  0.1929700E-05
  0.1119048E+00 -0.1789661E-03 -0.1981854E-05  0.2669216E+05  0.1102398E+03  0.6050759E-03  0.5319715E-05
  0.1428571E+00 -0.2139568E-02 -0.2123415E-04  0.2665832E+05  0.1478587E+03  0.5974770E-03  0.2861023E-05
  0.1738095E+00  0.1481461E-02 -0.1913309E-04  0.2667350E+05  0.1914159E+03  0.4828466E-03  0.4053116E-05
  0.2047619E+00  0.2761885E-02  0.2110004E-04  0.2672374E+05  0.2430214E+03  0.6660195E-03  0.6139278E-05
  0.2357143E+00 -0.5138281E-03  0.4023314E-04  0.2680029E+05  0.3057263E+03  0.3439007E-03  0.4529953E-05
  0.2666667E+00  0.1870394E-02 -0.2554059E-04  0.2691520E+05  0.3823205E+03  0.3290176E-03  0.1490116E-05
  0.2976190E+00 -0.8843994E-03  0.3457069E-05  0.2704030E+05  0.4784183E+03  0.3781128E-03  0.1633167E-04
  0.3285715E+00  0.1108750E-02 -0.2336502E-04  0.2719087E+05  0.5977480E+03  0.5863023E-03  0.1615286E-04
  0.3595238E+00 -0.3220261E-02 -0.7599592E-04  0.2733808E+05  0.7473427E+03  0.6419301E-03  0.1716614E-04
  0.3904762E+00  0.3702582E-02 -0.9202957E-04  0.2749579E+05  0.9334844E+03  0.6056994E-03  0.2098083E-04
  0.4214286E+00 -0.2729125E-02  0.3576279E-04  0.2760699E+05  0.1155543E+04  0.4752207E-03  0.3898144E-04
  0.4523810E+00  0.1391361E-03 -0.1163483E-03  0.2770306E+05  0.1425452E+04  0.7378427E-03  0.5888939E-04
  0.4833333E+00 -0.1511409E-02 -0.9202957E-04  0.2775121E+05  0.1724553E+04  0.8800112E-03  0.4243851E-04
  0.5142857E+00 -0.3033744E-02  0.1075268E-03  0.2774234E+05  0.2066515E+04  0.5859799E-03  0.4529953E-04
  0.5452381E+00 -0.3323284E-03 -0.1888275E-03  0.2770094E+05  0.2436300E+04  0.6541623E-03  0.6771088E-04
  0.5761905E+00  0.2979247E-04  0.2527237E-04  0.2761322E+05  0.2828993E+04  0.6554343E-03  0.9202957E-04
  0.6071429E+00 -0.7005578E-03 -0.2503395E-03  0.2748649E+05  0.3253268E+04  0.8010863E-03  0.1330376E-03
  0.6380953E+00 -0.1557336E-02 -0.1854897E-03  0.2734732E+05  0.3689111E+04  0.3646737E-03  0.9155273E-04
  0.6690477E+00 -0.1653488E-02 -0.7667542E-03  0.2716555E+05  0.4145976E+04  0.5416598E-03  0.4482269E-04
  0.7000000E+00 -0.1534053E-02 -0.4386902E-04  0.2695151E+05  0.4625149E+04  0.4741123E-03  0.1368523E-03
  0.7309524E+00  0.1244685E-02  0.4577637E-04  0.2673024E+05  0.5115521E+04  0.8193522E-03  0.1974106E-03
  0.7619048E+00 -0.1777410E-03 -0.5650520E-03  0.2648446E+05  0.5620084E+04  0.7209777E-03  0.2069473E-03
  0.7928572E+00 -0.1246134E-02  0.4744530E-03  0.2620742E+05  0.6137677E+04  0.6350955E-03  0.1230240E-03
  0.8238096E+00 -0.6992141E-03  0.2002716E-04  0.2591493E+05  0.6664229E+04  0.5001002E-03  0.1964569E-03
  0.8547620E+00 -0.3922869E-02  0.9536743E-06  0.2560447E+05  0.7196666E+04  0.5578596E-03  0.1182556E-03
  0.8857143E+00 -0.1296382E-02 -0.2365112E-03  0.2527471E+05  0.7732625E+04  0.5555922E-03  0.2355576E-03
  0.9166667E+00  0.3474842E-02 -0.1029968E-02  0.2492997E+05  0.8269538E+04  0.7865212E-03  0.2250671E-03
  0.9476191E+00  0.1626326E-02 -0.1249313E-02  0.2457525E+05  0.8804398E+04  0.7568052E-03  0.1173019E-03
  0.9785714E+00 -0.2030978E-02 -0.8497238E-03  0.2420797E+05  0.9335025E+04  0.2105045E-03  0.2260208E-03
  0.1009524E+01 -0.4912323E-03 -0.9689331E-03  0.2382787E+05  0.9859131E+04  0.3174116E-03  0.2651215E-03
  0.1040476E+01  0.1891810E-02 -0.9603500E-03  0.2343450E+05  0.1037474E+05  0.3372995E-03  0.3852844E-03
  0.1071429E+01  0.1997376E-02 -0.1534462E-02  0.2303758E+05  0.1087842E+05  0.3524780E-03  0.3871918E-03
  0.1102381E+01 -0.3270094E-02 -0.1846313E-02  0.2263944E+05  0.1136738E+05  0.4706166E-03  0.3356934E-03
  0.1133333E+01 -0.2766778E-02  0.1907349E-03  0.2223589E+05  0.1184116E+05  0.3096637E-03  0.2613068E-03
  0.1164286E+01 -0.2011726E-02 -0.2470016E-03  0.2183143E+05  0.1229747E+05  0.4521469E-03  0.4329681E-03
  0.1195238E+01  0.2020270E-02  0.1451492E-02  0.2142438E+05  0.1273594E+05  0.5138443E-03  0.4081726E-03
  0.1226190E+01 -0.3580779E-02  0.1099586E-02  0.2102139E+05  0.1315419E+05  0.4759853E-03  0.2651215E-03
  0.1257143E+01  0.3975088E-02 -0.4615784E-03  0.2062370E+05  0.1356198E+05  0.3823367E-03  0.3337860E-03
  0.1288095E+01 -0.5330705E-03  0.2193451E-03  0.2022645E+05  0.1392515E+05  0.3198423E-03  0.3929138E-03
  0.1319048E+01  0.8994146E-03 -0.1119614E-02  0.1983341E+05  0.1427650E+05  0.3990972E-03  0.3166199E-03
  0.1350000E+01 -0.1251786E-02 -0.2386093E-02  0.1944580E+05  0.1460307E+05  0.2119276E-03  0.4367828E-03
  0.1380952E+01  0.6381068E-03 -0.3356934E-03  0.1906336E+05  0.1490479E+05  0.3425335E-03  0.4081726E-03
  0.1411905E+01  0.3134099E-03 -0.2637863E-02  0.1868847E+05  0.1518962E+05  0.3944641E-03  0.3089905E-03
  0.1442857E+01 -0.3569197E-03 -0.3255844E-02  0.1832590E+05  0.1544197E+05  0.2590973E-03  0.2002716E-03
  0.1473810E+01 -0.3209522E-03 -0.1682281E-02  0.1797433E+05  0.1566774E+05  0.1345929E-03  0.3204346E-03
  0.1504762E+01 -0.9151652E-03 -0.4379272E-02  0.1763144E+05  0.1586907E+05  0.2028067E-03  0.4653931E-03
  0.1535714E+01  0.7700365E-03 -0.8029938E-03  0.1729895E+05  0.1604567E+05  0.1962351E-03  0.5626678E-03
  0.1566667E+01 -0.9617907E-03 -0.2349854E-02  0.1697598E+05  0.1619788E+05  0.2605357E-03  0.4482269E-03
  0.1597619E+01 -0.2853348E-02 -0.1747131E-02  0.1666069E+05  0.1632819E+05  0.3175693E-03  0.3089905E-03
  0.1628572E+01 -0.2311907E-02 -0.1049042E-02  0.1635893E+05  0.1643344E+05  0.2225240E-03  0.4215240E-03
  0.1659524E+01  0.1861922E-02 -0.1182556E-02  0.1606967E+05  0.1651467E+05  0.2206723E-03  0.5016327E-03
  0.1690476E+01  0.5889678E-03 -0.4956245E-02  0.1579323E+05  0.1657059E+05  0.1647304E-03  0.4463196E-03
  0.1721429E+01 -0.2481928E-03  0.8096695E-03  0.1552744E+05  0.1660553E+05  0.4210413E-04  0.4577637E-03
  0.1752381E+01 -0.6095223E-03 -0.9050369E-03  0.1527371E+05  0.1661829E+05  0.4136044E-04  0.8010864E-04
  0.1783333E+01 -0.2524118E-03 -0.3284454E-02  0.1503091E+05  0.1661024E+05  0.3550877E-03  0.4920959E-03
  0.1814286E+01  0.5971353E-03  0.8211136E-03  0.1479865E+05  0.1658300E+05  0.1534890E-03  0.2479553E-03
  0.1845238E+01  0.6098594E-03 -0.1270294E-02  0.1457589E+05  0.1653764E+05  0.2501457E-03  0.4787445E-03
  0.1876190E+01 -0.9983082E-03 -0.3053665E-02  0.1436686E+05  0.1647244E+05  0.2216204E-03  0.3376007E-03
  0.1907143E+01  0.2490269E-02 -0.4274368E-02  0.1416999E+05  0.1639004E+05  0.4440479E-03  0.5321503E-03
  0.1938095E+01  0.7577845E-03  0.2479553E-04  0.1398598E+05  0.1628914E+05  0.2853994E-03  0.2555847E-03
  0.1969048E+01 -0.1358069E-02  0.1291275E-02  0.1381224E+05  0.1617246E+05 -0.5037061E-04  0.3757477E-03
  0.2000000E+01  0.8983612E-03 -0.3213882E-03  0.1364754E+05  0.1604060E+05  0.2784729E-03  0.4367828E-03
Zone t="Motion of body    1 in DoF   3",I=    64,F=POINT
  0.5000000E-01  0.1289304E+03  0.3864154E-05  0.1215935E-02  0.1096643E-05  0.2147982E+03  0.7902753E-07
  0.8095238E-01  0.1285011E+03  0.1783588E-04  0.1774833E-02  0.3659604E-05  0.2163211E+03  0.1745275E-06
  0.1119048E+00  0.1285536E+03  0.4916883E-04  0.1937202E-02  0.5910548E-05  0.2165006E+03  0.2774051E-06
  0.1428571E+00  0.1297410E+03  0.1106399E-03  0.9508728E-03  0.2583549E-05  0.2192708E+03  0.1204173E-05
  0.1738095E+00  0.1285232E+03  0.2226877E-03  0.1367608E-02  0.7010350E-05  0.2177600E+03  0.3077375E-05
  0.2047619E+00  0.1284612E+03  0.4122874E-03  0.1915388E-02  0.1449138E-04  0.2169630E+03  0.5031399E-05
  0.2357143E+00  0.1308797E+03  0.7296832E-03  0.1425165E-02  0.1117515E-04  0.2188178E+03  0.7789452E-05
  0.2666667E+00  0.1300646E+03  0.1254942E-02  0.1250803E-02  0.9483473E-05  0.2177904E+03  0.1508449E-04
  0.2976190E+00  0.1307432E+03  0.2128813E-02  0.1697502E-02  0.2372736E-04  0.2177201E+03  0.2660300E-04
  0.3285715E+00  0.1331381E+03  0.3557798E-02  0.1446164E-02  0.2136904E-04  0.2173246E+03  0.4181220E-04
  0.3595238E+00  0.1323138E+03  0.5900662E-02  0.2505384E-02  0.6224407E-04  0.2180112E+03  0.7045483E-04
  0.3904762E+00  0.1325835E+03  0.9731689E-02  0.1758482E-02  0.4202055E-04  0.2167209E+03  0.1129272E-03
  0.4214286E+00  0.1359388E+03  0.1585926E-01  0.1970469E-02  0.6116566E-04  0.2177135E+03  0.1811347E-03
  0.4523810E+00  0.1384578E+03  0.2560931E-01  0.2206677E-02  0.1049221E-03  0.2178648E+03  0.2983775E-03
  0.4833333E+00  0.1381686E+03  0.4041246E-01  0.2417071E-04 -0.4167172E-04  0.2179312E+03  0.4844683E-03
  0.5142857E+00  0.1420786E+03  0.6277957E-01  0.1316600E-02  0.6274834E-04  0.2184207E+03  0.7671099E-03
  0.5452381E+00  0.1472929E+03  0.9532157E-01  0.1319256E-02  0.6713215E-04  0.2180510E+03  0.1178569E-02
  0.5761905E+00  0.1441751E+03  0.1413579E+00  0.2025888E-02  0.1737888E-03  0.2185758E+03  0.1755856E-02
  0.6071429E+00  0.1467280E+03  0.2056976E+00  0.1721550E-02  0.1582968E-03  0.2181508E+03  0.2593226E-02
  0.6380953E+00  0.1501149E+03  0.2934448E+00  0.1800950E-02  0.1899996E-03  0.2179816E+03  0.3756194E-02
  0.6690477E+00  0.1543022E+03  0.4117398E+00  0.1947481E-02  0.2308462E-03  0.2191427E+03  0.5341140E-02
  0.7000000E+00  0.1575358E+03  0.5690705E+00  0.1041549E-02  0.1017730E-03  0.2186747E+03  0.7494457E-02
  0.7309524E+00  0.1570418E+03  0.7750995E+00  0.2419242E-02  0.4370986E-03  0.2182179E+03  0.1032401E-01
  0.7619048E+00  0.1583630E+03  0.1042609E+01  0.8411407E-03  0.8017803E-04  0.2190539E+03  0.1404750E-01
  0.7928572E+00  0.1629803E+03  0.1385717E+01  0.2128412E-02  0.4126127E-03  0.2192031E+03  0.1900341E-01
  0.8238096E+00  0.1688844E+03  0.1822805E+01  0.1107861E-02  0.1762579E-03  0.2187227E+03  0.2548043E-01
  0.8547620E+00  0.1739003E+03  0.2376121E+01  0.1506779E-02  0.2357224E-03  0.2193042E+03  0.3371409E-01
  0.8857143E+00  0.1756136E+03  0.3068447E+01  0.1408900E-02  0.3249994E-03  0.2197271E+03  0.4411306E-01
  0.9166667E+00  0.1772152E+03  0.3925438E+01  0.1021125E-02  0.1516789E-03  0.2198252E+03  0.5719542E-01
  0.9476191E+00  0.1817083E+03  0.4978000E+01  0.2279976E-02  0.6838869E-03  0.2191332E+03  0.7363407E-01
  0.9785714E+00  0.1865315E+03  0.6268315E+01  0.7859808E-03  0.1087533E-03  0.2192054E+03  0.9438307E-01
  0.1009524E+01  0.1915661E+03  0.7837995E+01  0.1421740E-03 -0.2873447E-03  0.2201346E+03  0.1198689E+00
  0.1040476E+01  0.1978414E+03  0.9730121E+01  0.1285038E-02  0.4319847E-03  0.2207122E+03  0.1521525E+00
  0.1071429E+01  0.2052452E+03  0.1200232E+02  0.1835378E-02  0.7042419E-03  0.2207569E+03  0.1911741E+00
  0.1102381E+01  0.2108125E+03  0.1471858E+02  0.1446454E-02  0.6667413E-03  0.2202445E+03  0.2385587E+00
  0.1133333E+01  0.2141079E+03  0.1797104E+02  0.1268527E-02  0.5366430E-03  0.2203052E+03  0.2962672E+00
  0.1164286E+01  0.2181456E+03  0.2178920E+02  0.1509614E-02  0.5364865E-03  0.2211941E+03  0.3654343E+00
  0.1195238E+01  0.2237471E+03  0.2623688E+02  0.1195246E-02  0.3868304E-03  0.2215119E+03  0.4453654E+00
  0.1226190E+01  0.2308848E+03  0.3139529E+02  0.3025462E-02  0.2321340E-02  0.2216656E+03  0.5443366E+00
  0.1257143E+01  0.2384392E+03  0.3740095E+02  0.1279766E-02  0.6925687E-03  0.2212548E+03  0.6588824E+00
  0.1288095E+01  0.2463270E+03  0.4433073E+02  0.1294177E-02  0.6901771E-03  0.2213241E+03  0.7963257E+00
  0.1319048E+01  0.2543533E+03  0.5235142E+02  0.1180663E-02  0.5115941E-03  0.2221518E+03  0.9613129E+00
  0.1350000E+01  0.2621192E+03  0.6148984E+02  0.7858982E-03 -0.3054738E-05  0.2232673E+03  0.1153400E+01
  0.1380952E+01  0.2689372E+03  0.7190630E+02  0.2102507E-02  0.2034292E-02  0.2235349E+03  0.1376558E+01
  0.1411905E+01  0.2520317E+03  0.7928030E+02  0.1574142E-02  0.9593964E-03  0.2220759E+03  0.1541150E+01
  0.1442857E+01  0.2578955E+03  0.9199382E+02  0.1825578E-02  0.1091689E-02  0.2216499E+03  0.1813909E+01
  0.1473810E+01  0.2634487E+03  0.1060719E+03  0.1371165E-02  0.3197342E-03  0.2214461E+03  0.2134210E+01
  0.1504762E+01  0.2696107E+03  0.1217613E+03  0.1132865E-02  0.2781600E-03  0.2217904E+03  0.2476551E+01
  0.1535714E+01  0.2752625E+03  0.1390930E+03  0.1619561E-02  0.1106322E-02  0.2226310E+03  0.2889732E+01
  0.1566667E+01  0.2806319E+03  0.1581044E+03  0.1989933E-02  0.1634091E-02  0.2235020E+03  0.3361445E+01
  0.1597619E+01  0.2857802E+03  0.1788625E+03  0.1241624E-02  0.3646314E-03  0.2237903E+03  0.3878307E+01
  0.1628572E+01  0.2906042E+03  0.2014431E+03  0.9990156E-03  0.2099276E-03  0.2241991E+03  0.4474567E+01
  0.1659524E+01  0.2955236E+03  0.2259677E+03  0.1155656E-02  0.2472401E-03  0.2239924E+03  0.5094235E+01
  0.1690476E+01  0.2997244E+03  0.2519170E+03  0.1288508E-02  0.9302795E-03  0.2239452E+03  0.5761659E+01
  0.1721429E+01  0.3024693E+03  0.2798458E+03  0.1157864E-02 -0.2194345E-03  0.2241177E+03  0.6510311E+01
  0.1752381E+01  0.3042437E+03  0.3095089E+03  0.9072087E-03  0.4070997E-03  0.2246276E+03  0.7330423E+01
  0.1783333E+01  0.3045621E+03  0.3405769E+03  0.1488802E-02  0.8068681E-03  0.2255042E+03  0.8323336E+01
  0.1814286E+01  0.3041075E+03  0.3731835E+03  0.9230367E-03  0.3677011E-03  0.2259748E+03  0.9326590E+01
  0.1845238E+01  0.3029993E+03  0.4068648E+03  0.1670911E-02  0.1957536E-02  0.2262813E+03  0.1039571E+02
  0.1876190E+01  0.3011693E+03  0.4414100E+03  0.9139298E-03  0.1243949E-03  0.2264944E+03  0.1148972E+02
  0.1907143E+01  0.2988398E+03  0.4769883E+03  0.1365147E-02  0.1369715E-02  0.2259391E+03  0.1259568E+02
  0.1938095E+01  0.2956978E+03  0.5130405E+03  0.1352694E-02  0.3031492E-03  0.2255195E+03  0.1358645E+02
  0.1969048E+01  0.2909885E+03  0.5498248E+03  0.1325619E-02  0.8047223E-03  0.2253024E+03  0.1473463E+02
  0.2000000E+01  0.2858313E+03  0.5873260E+03  0.1236439E-02  0.1626611E-03  0.2253663E+03  0.1614738E+02
