VARIABLES="w (rad/s)"
"A   1   1" "B   1   1"
"A   1   2" "B   1   2"
"A   1   3" "B   1   3"
Zone t="Motion of body    1 in DoF   1",I=    64,F=POINT
  0.5000000E-01  0.7365498E+05  0.7657747E-02 -0.1640320E-02 -0.2664574E-05  0.1424509E+04  0.1929071E-03
  0.8095238E-01  0.7396800E+05  0.3365944E-01 -0.2022743E-01 -0.8304255E-04  0.1420768E+04  0.8343560E-03
  0.1119048E+00  0.7389007E+05  0.9445243E-01  0.3834988E-02  0.4852156E-04  0.1422848E+04  0.2344196E-02
  0.1428571E+00  0.7422909E+05  0.2128598E+00  0.2403259E-02  0.5122751E-04  0.1441236E+04  0.5318469E-02
  0.1738095E+00  0.7422022E+05  0.4236393E+00  0.2326443E-02  0.1774577E-04  0.1439750E+04  0.1062103E-01
  0.2047619E+00  0.7450215E+05  0.7820809E+00 -0.1378614E-02 -0.5305256E-04  0.1454418E+04  0.1971978E-01
  0.2357143E+00  0.7458024E+05  0.1377063E+01 -0.9742505E-02 -0.1355314E-03  0.1460994E+04  0.3489950E-01
  0.2666667E+00  0.7474767E+05  0.2350190E+01 -0.1130104E-02  0.1867069E-04  0.1464260E+04  0.5989360E-01
  0.2976190E+00  0.7511444E+05  0.3945637E+01  0.1627808E-02  0.1283074E-03  0.1485355E+04  0.1013896E+00
  0.3285715E+00  0.7524848E+05  0.6527722E+01  0.1741492E-02  0.1055729E-03  0.1503085E+04  0.1694146E+00
  0.3595238E+00  0.7549766E+05  0.1072125E+02 -0.2185746E-02  0.1466740E-03  0.1509858E+04  0.2802995E+00
  0.3904762E+00  0.7592770E+05  0.1749682E+02 -0.1355985E-01 -0.7083230E-03  0.1546330E+04  0.4633159E+00
  0.4214286E+00  0.7636248E+05  0.2817021E+02 -0.2045712E-01 -0.1299098E-02  0.1569187E+04  0.7541676E+00
  0.4523810E+00  0.7651645E+05  0.4490241E+02  0.6577341E-03  0.4961267E-03  0.1564165E+04  0.1211352E+01
  0.4833333E+00  0.7705958E+05  0.6991502E+02 -0.5082755E-02 -0.4453957E-03  0.1604843E+04  0.1913893E+01
  0.5142857E+00  0.7770766E+05  0.1071093E+03 -0.4762014E-02 -0.2609193E-03  0.1642979E+04  0.2971909E+01
  0.5452381E+00  0.7820206E+05  0.1600825E+03 -0.2420750E-02  0.7010996E-03  0.1672947E+04  0.4502482E+01
  0.5761905E+00  0.7857332E+05  0.2334689E+03 -0.5958493E-02 -0.1100004E-02  0.1673991E+04  0.6631057E+01
  0.6071429E+00  0.7923645E+05  0.3345422E+03 -0.1005285E-02 -0.8742809E-03  0.1715446E+04  0.9644598E+01
  0.6380953E+00  0.8009580E+05  0.4690815E+03 -0.1434782E-02 -0.1316667E-02  0.1776136E+04  0.1376982E+02
  0.6690477E+00  0.8093341E+05  0.6463330E+03 -0.7343767E-02 -0.1193762E-02  0.1820523E+04  0.1926823E+02
  0.7000000E+00  0.8154295E+05  0.8762906E+03  0.4185268E-02  0.3619194E-02  0.1835430E+04  0.2644928E+02
  0.7309524E+00  0.8226300E+05  0.1169719E+04 -0.3799289E-02  0.7112026E-03  0.1880754E+04  0.3590770E+02
  0.7619048E+00  0.8323441E+05  0.1541541E+04 -0.1560116E-01 -0.6066322E-02  0.1934357E+04  0.4810873E+02
  0.7928572E+00  0.8431216E+05  0.2007099E+04 -0.1531927E-01 -0.6356239E-02  0.1993285E+04  0.6372160E+02
  0.8238096E+00  0.8539357E+05  0.2583078E+04 -0.1685523E-01 -0.8602619E-02  0.2067674E+04  0.8364674E+02
  0.8547620E+00  0.8644283E+05  0.3287620E+04 -0.1087157E-01 -0.6344318E-02  0.2129729E+04  0.1084446E+03
  0.8857143E+00  0.8736887E+05  0.4139791E+04  0.4996023E-02  0.4266739E-02  0.2165885E+04  0.1386668E+03
  0.9166667E+00  0.8834397E+05  0.5161555E+04 -0.1448198E-02  0.4246712E-02  0.2218562E+04  0.1758541E+03
  0.9476191E+00  0.8942816E+05  0.6375462E+04 -0.4508627E-03 -0.3068924E-02  0.2294956E+04  0.2214458E+03
  0.9785714E+00  0.9062532E+05  0.7806151E+04 -0.7812055E-02  0.1213074E-02  0.2384172E+04  0.2769036E+03
  0.1009524E+01  0.9180198E+05  0.9475325E+04  0.1333129E-01  0.1615906E-01  0.2465978E+04  0.3428122E+03
  0.1040476E+01  0.9289752E+05  0.1140555E+05 -0.7567242E-02 -0.3747940E-02  0.2543419E+04  0.4207398E+03
  0.1071429E+01  0.9382048E+05  0.1361553E+05 -0.8416749E-02 -0.2553940E-02  0.2613377E+04  0.5124247E+03
  0.1102381E+01  0.9457042E+05  0.1612152E+05 -0.7903591E-02 -0.6767273E-02  0.2674544E+04  0.6191763E+03
  0.1133333E+01  0.9519370E+05  0.1893519E+05  0.6731819E-03 -0.3833771E-02  0.2738842E+04  0.7422692E+03
  0.1164286E+01  0.9573430E+05  0.2205812E+05 -0.4193826E-03  0.5290985E-02  0.2798857E+04  0.8817836E+03
  0.1195238E+01  0.9612843E+05  0.2548898E+05  0.1174501E-02  0.1983643E-02  0.2851244E+04  0.1037999E+04
  0.1226190E+01  0.9634254E+05  0.2922320E+05 -0.1468399E-02  0.2803802E-02  0.2906496E+04  0.1215151E+04
  0.1257143E+01  0.9627373E+05  0.3326289E+05 -0.8763400E-02 -0.3219604E-02  0.2951126E+04  0.1413081E+04
  0.1288095E+01  0.9604753E+05  0.3753239E+05 -0.1942746E-02  0.7453918E-02  0.3000746E+04  0.1630932E+04
  0.1319048E+01  0.9553393E+05  0.4204116E+05 -0.3308458E-02 -0.6759644E-02  0.3030124E+04  0.1866024E+04
  0.1350000E+01  0.9475065E+05  0.4671759E+05 -0.4769784E-02 -0.7476807E-03  0.3041389E+04  0.2115924E+04
  0.1380952E+01  0.9370985E+05  0.5151739E+05 -0.4773370E-02 -0.1270294E-01  0.3035191E+04  0.2379207E+04
  0.1411905E+01  0.9202074E+05  0.5611261E+05 -0.3004412E-02 -0.1010132E-01  0.2970713E+04  0.2638844E+04
  0.1442857E+01  0.9044091E+05  0.6098396E+05 -0.3807143E-03  0.2366638E-01  0.2948691E+04  0.2932383E+04
  0.1473810E+01  0.8864826E+05  0.6580735E+05 -0.1414260E-01 -0.3845215E-02  0.2918041E+04  0.3235898E+04
  0.1504762E+01  0.8665192E+05  0.7051711E+05 -0.7868899E-02 -0.1115417E-01  0.2874658E+04  0.3545097E+04
  0.1535714E+01  0.8447724E+05  0.7506340E+05 -0.1192315E-01 -0.1006317E-01  0.2811902E+04  0.3853731E+04
  0.1566667E+01  0.8212147E+05  0.7939843E+05 -0.6174940E-02 -0.4226685E-02  0.2733928E+04  0.4163460E+04
  0.1597619E+01  0.7964040E+05  0.8348427E+05 -0.5329433E-02 -0.1227570E-01  0.2645444E+04  0.4470965E+04
  0.1628572E+01  0.7706353E+05  0.8728484E+05 -0.5003276E-02 -0.1526642E-01  0.2551326E+04  0.4776413E+04
  0.1659524E+01  0.7441571E+05  0.9077123E+05  0.3126191E-03  0.2990723E-02  0.2451636E+04  0.5077112E+04
  0.1690476E+01  0.7174028E+05  0.9392791E+05  0.5433848E-02  0.9704590E-02  0.2341332E+04  0.5369909E+04
  0.1721429E+01  0.6907219E+05  0.9674105E+05 -0.4662478E-02  0.7690430E-02  0.2228319E+04  0.5655666E+04
  0.1752381E+01  0.6644125E+05  0.9921038E+05  0.2403260E-02 -0.7843018E-02  0.2106163E+04  0.5929408E+04
  0.1783333E+01  0.6386198E+05  0.1013376E+06 -0.2139083E-02 -0.8941650E-02  0.1980087E+04  0.6186032E+04
  0.1814286E+01  0.6132414E+05  0.1031374E+06  0.2977266E-02 -0.1852417E-01  0.1848873E+04  0.6424140E+04
  0.1845238E+01  0.5887593E+05  0.1046268E+06 -0.2034243E-02 -0.4684448E-02  0.1718976E+04  0.6649732E+04
  0.1876190E+01  0.5650684E+05  0.1058183E+06 -0.6294832E-02  0.1808167E-02  0.1588488E+04  0.6868285E+04
  0.1907143E+01  0.5422152E+05  0.1067286E+06 -0.1568169E-02  0.5393982E-02  0.1461144E+04  0.7078153E+04
  0.1938095E+01  0.5205414E+05  0.1073746E+06  0.9762626E-03 -0.4577637E-03  0.1335450E+04  0.7276694E+04
  0.1969048E+01  0.5000805E+05  0.1077793E+06 -0.5300538E-02 -0.3082275E-02  0.1213641E+04  0.7466090E+04
  0.2000000E+01  0.4807357E+05  0.1079606E+06  0.4989624E-02 -0.7934570E-02  0.1094086E+04  0.7643960E+04
Zone t="Motion of body    1 in DoF   2",I=    64,F=POINT
  0.5000000E-01 -0.5817413E-02 -0.3182888E-04  0.1276284E+06  0.3595984E+03 -0.9498596E-02 -0.2366304E-04
  0.8095238E-01 -0.6208420E-02  0.4917383E-04  0.1259951E+06  0.5960851E+03 -0.8717705E-02 -0.4148483E-04
  0.1119048E+00  0.9834615E-02 -0.5543232E-04  0.1250682E+06  0.8532709E+03 -0.6340514E-02 -0.6914139E-04
  0.1428571E+00  0.8518219E-02  0.8261204E-04  0.1245750E+06  0.1140775E+04 -0.1086807E-01 -0.8487701E-04
  0.1738095E+00 -0.3103387E-01  0.1311302E-03  0.1244203E+06  0.1470668E+04 -0.5047942E-02 -0.9059906E-04
  0.2047619E+00 -0.1658063E-02 -0.2408028E-03  0.1245073E+06  0.1858115E+04 -0.5663495E-02 -0.1101494E-03
  0.2357143E+00  0.2589370E-03 -0.8964539E-04  0.1247884E+06  0.2324209E+04 -0.6732362E-02 -0.1068115E-03
  0.2666667E+00  0.6151199E-03  0.1192093E-04  0.1252357E+06  0.2886597E+04 -0.6980896E-02 -0.1964569E-03
  0.2976190E+00 -0.1118958E-01  0.7343292E-04  0.1257698E+06  0.3585143E+04 -0.8280030E-02 -0.2794266E-03
  0.3285715E+00 -0.1039090E-01  0.1988411E-03  0.1263820E+06  0.4440166E+04 -0.6965968E-02 -0.2651215E-03
  0.3595238E+00 -0.1816503E-01  0.1358986E-03  0.1269513E+06  0.5498667E+04 -0.1128948E-01 -0.3223419E-03
  0.3904762E+00 -0.8753334E-02 -0.2178192E-02  0.1274937E+06  0.6795442E+04 -0.1000381E-01 -0.4882812E-03
  0.4214286E+00 -0.1708984E-01  0.9679794E-03  0.1276713E+06  0.8314264E+04 -0.6662142E-02 -0.6408691E-03
  0.4523810E+00 -0.9511846E-02 -0.8506775E-03  0.1276844E+06  0.1013281E+05 -0.6543611E-02 -0.7400513E-03
  0.4833333E+00  0.1909979E-02  0.5626678E-03  0.1272950E+06  0.1209472E+05 -0.7071659E-02 -0.9174347E-03
  0.5142857E+00  0.3515880E-02 -0.1068115E-03  0.1265087E+06  0.1429521E+05 -0.8159214E-02 -0.1049042E-02
  0.5452381E+00 -0.4477688E-03 -0.4367828E-03  0.1254451E+06  0.1660869E+05 -0.8479622E-02 -0.1220703E-02
  0.5761905E+00  0.6011458E-02 -0.5245209E-03  0.1241054E+06  0.1899018E+05 -0.9321732E-02 -0.1415253E-02
  0.6071429E+00 -0.9851791E-02 -0.1642227E-02  0.1224533E+06  0.2149986E+05 -0.6207634E-02 -0.1995087E-02
  0.6380953E+00 -0.1733694E-02 -0.2851486E-02  0.1207468E+06  0.2397928E+05 -0.8823907E-02 -0.2262115E-02
  0.6690477E+00  0.3991178E-03  0.1220703E-02  0.1188234E+06  0.2649089E+05 -0.7822708E-02 -0.2311707E-02
  0.7000000E+00  0.4272460E-02  0.5279541E-02  0.1166938E+06  0.2904252E+05 -0.4316057E-02 -0.2304077E-02
  0.7309524E+00 -0.1347495E-01  0.2693176E-02  0.1145675E+06  0.3154608E+05 -0.4717798E-02 -0.2433777E-02
  0.7619048E+00  0.2142906E-02  0.2796173E-02  0.1123450E+06  0.3402103E+05 -0.5887985E-02 -0.2693176E-02
  0.7928572E+00 -0.1481889E-02  0.5947113E-02  0.1099985E+06  0.3645966E+05 -0.6004539E-02 -0.2922058E-02
  0.8238096E+00  0.5778935E-02 -0.2502441E-02  0.1075920E+06  0.3883755E+05 -0.5223269E-02 -0.2830505E-02
  0.8547620E+00 -0.2625957E-01  0.8506775E-03  0.1051945E+06  0.4112652E+05 -0.8640129E-02 -0.2639771E-02
  0.8857143E+00 -0.9078979E-02 -0.5531311E-02  0.1027690E+06  0.4331987E+05 -0.5926317E-02 -0.3372192E-02
  0.9166667E+00 -0.1747825E-02 -0.3032684E-02  0.1003337E+06  0.4540566E+05 -0.6325461E-02 -0.3334045E-02
  0.9476191E+00 -0.9741855E-02 -0.1407623E-02  0.9789227E+05  0.4737927E+05 -0.5571375E-02 -0.3837585E-02
  0.9785714E+00  0.5145665E-02 -0.1518250E-02  0.9548591E+05  0.4922015E+05 -0.3929417E-02 -0.3662109E-02
  0.1009524E+01 -0.1466139E-02  0.1670837E-02  0.9310394E+05  0.5092749E+05 -0.4322844E-02 -0.3829956E-02
  0.1040476E+01 -0.1910875E-01  0.6790161E-02  0.9075764E+05  0.5249054E+05 -0.5074158E-02 -0.4371643E-02
  0.1071429E+01  0.1466878E-02  0.2079010E-02  0.8844354E+05  0.5391200E+05 -0.6551107E-02 -0.3471375E-02
  0.1102381E+01 -0.5315199E-02 -0.3089905E-03  0.8621365E+05  0.5517894E+05 -0.4318600E-02 -0.4119873E-02
  0.1133333E+01 -0.1751619E-01 -0.1056671E-01  0.8405874E+05  0.5628538E+05 -0.4389146E-02 -0.4539490E-02
  0.1164286E+01 -0.7981376E-02 -0.1620102E-01  0.8198827E+05  0.5724160E+05 -0.5661666E-02 -0.4547119E-02
  0.1195238E+01  0.3383074E-02  0.1251221E-02  0.7999141E+05  0.5804985E+05 -0.4212885E-02 -0.6042480E-02
  0.1226190E+01 -0.6819346E-02 -0.8525848E-02  0.7806780E+05  0.5871439E+05 -0.4106540E-02 -0.4333496E-02
  0.1257143E+01 -0.5716844E-02 -0.1027679E-01  0.7623898E+05  0.5926962E+05 -0.4005432E-02 -0.5546570E-02
  0.1288095E+01  0.4288256E-02  0.7762909E-02  0.7448677E+05  0.5961287E+05 -0.4169796E-02 -0.6973267E-02
  0.1319048E+01  0.4083516E-02 -0.1240540E-01  0.7283866E+05  0.5984623E+05 -0.4650350E-02 -0.6767273E-02
  0.1350000E+01 -0.2938730E-03 -0.6004333E-02  0.7127975E+05  0.5994861E+05 -0.4114222E-02 -0.4768372E-02
  0.1380952E+01 -0.6961165E-02 -0.2578735E-02  0.6981548E+05  0.5991300E+05 -0.3867314E-02 -0.7614136E-02
  0.1411905E+01 -0.5068594E-02  0.8544922E-03  0.6842296E+05  0.5986191E+05 -0.3912220E-02 -0.7835388E-02
  0.1442857E+01  0.7392203E-02 -0.1594543E-02  0.6712071E+05  0.5960791E+05 -0.2157381E-02 -0.5645752E-02
  0.1473810E+01 -0.2878217E-02 -0.1065063E-01  0.6592027E+05  0.5924911E+05 -0.2712564E-02 -0.6355286E-02
  0.1504762E+01  0.1054595E-02  0.1056290E-01  0.6481627E+05  0.5877976E+05 -0.3346310E-02 -0.4508972E-02
  0.1535714E+01 -0.9618005E-02 -0.3597260E-02  0.6379025E+05  0.5821807E+05 -0.2722452E-02 -0.4341125E-02
  0.1566667E+01 -0.1383031E-02 -0.1968384E-02  0.6284435E+05  0.5756593E+05 -0.1499906E-02 -0.6858826E-02
  0.1597619E+01 -0.8930144E-02 -0.1227188E-01  0.6197705E+05  0.5683363E+05 -0.2464147E-02 -0.4096985E-02
  0.1628572E+01 -0.3560384E-02  0.3318787E-03  0.6117307E+05  0.5603136E+05 -0.2998218E-02 -0.5058289E-02
  0.1659524E+01  0.1940077E-02 -0.1182556E-01  0.6044234E+05  0.5515628E+05 -0.1930883E-02 -0.4745483E-02
  0.1690476E+01 -0.5199163E-02  0.3967285E-03  0.5979717E+05  0.5423299E+05 -0.2202423E-02 -0.5653381E-02
  0.1721429E+01 -0.3687435E-02 -0.1128006E-01  0.5922558E+05  0.5324949E+05 -0.1666437E-02 -0.5729675E-02
  0.1752381E+01  0.2002716E-03 -0.5210876E-02  0.5871549E+05  0.5221055E+05 -0.2159450E-02 -0.4371643E-02
  0.1783333E+01 -0.3696335E-02 -0.5809784E-02  0.5825537E+05  0.5112902E+05 -0.2429998E-02 -0.5271912E-02
  0.1814286E+01 -0.7821632E-03 -0.1059341E-01  0.5785812E+05  0.5000896E+05 -0.2287617E-02 -0.4493713E-02
  0.1845238E+01 -0.1323085E-02 -0.1736832E-01  0.5751202E+05  0.4885967E+05 -0.1075006E-02 -0.5264282E-02
  0.1876190E+01  0.2114543E-03 -0.1831055E-02  0.5720651E+05  0.4768973E+05 -0.1577774E-02 -0.6042480E-02
  0.1907143E+01 -0.5832630E-02 -0.8209229E-02  0.5694929E+05  0.4649232E+05 -0.1296140E-02 -0.5500793E-02
  0.1938095E+01  0.3353934E-02 -0.1489639E-02  0.5674357E+05  0.4528109E+05 -0.1590363E-02 -0.6271362E-02
  0.1969048E+01  0.3959905E-02 -0.2689362E-02  0.5658015E+05  0.4405948E+05 -0.1518868E-02 -0.4764557E-02
  0.2000000E+01  0.3555298E-02 -0.8159637E-02  0.5645454E+05  0.4281112E+05 -0.7629395E-03 -0.5607605E-02
Zone t="Motion of body    1 in DoF   3",I=    64,F=POINT
  0.5000000E-01  0.1453706E+04  0.1997260E-03  0.1382828E-03 -0.1553865E-04  0.2932003E+04  0.5342354E-05
  0.8095238E-01  0.1450219E+04  0.8647876E-03  0.1083823E-02 -0.2189313E-04  0.2953332E+04  0.2155648E-04
  0.1119048E+00  0.1453644E+04  0.2435220E-02  0.2556659E-04 -0.3414198E-04  0.2940192E+04  0.6838549E-04
  0.1428571E+00  0.1472675E+04  0.5504875E-02  0.3130913E-02 -0.1254361E-04  0.2951019E+04  0.1290361E-03
  0.1738095E+00  0.1470128E+04  0.1099416E-01 -0.3613119E-02 -0.1012543E-03  0.2943209E+04  0.2840293E-03
  0.2047619E+00  0.1484345E+04  0.2042102E-01 -0.5104597E-02 -0.1646765E-03  0.2939505E+04  0.5380380E-03
  0.2357143E+00  0.1493228E+04  0.3614477E-01 -0.5162557E-02 -0.1882523E-03  0.2948398E+04  0.9272223E-03
  0.2666667E+00  0.1493665E+04  0.6210227E-01  0.9083747E-03 -0.7739950E-04  0.2935085E+04  0.1588471E-02
  0.2976190E+00  0.1515650E+04  0.1050226E+00 -0.4370728E-02 -0.2963151E-03  0.2943613E+04  0.2662616E-02
  0.3285715E+00  0.1536267E+04  0.1752239E+00 -0.2411966E-02 -0.2798338E-03  0.2945641E+04  0.4507455E-02
  0.3595238E+00  0.1542257E+04  0.2904052E+00 -0.2931127E-02 -0.3734636E-03  0.2948440E+04  0.7559514E-02
  0.3904762E+00  0.1580843E+04  0.4787529E+00  0.1787790E-02 -0.1170655E-03  0.2950100E+04  0.1266480E-01
  0.4214286E+00  0.1603892E+04  0.7789257E+00 -0.4408238E-02 -0.6286837E-03  0.2949823E+04  0.2077392E-01
  0.4523810E+00  0.1597883E+04  0.1255231E+01 -0.5679280E-02 -0.9991138E-03  0.2954130E+04  0.3376976E-01
  0.4833333E+00  0.1638829E+04  0.1977627E+01  0.5883841E-02  0.1423708E-03  0.2945024E+04  0.5414224E-01
  0.5142857E+00  0.1679033E+04  0.3065963E+01 -0.9498067E-02 -0.1870868E-02  0.2961294E+04  0.8501855E-01
  0.5452381E+00  0.1709299E+04  0.4641026E+01 -0.1986974E-02 -0.9357436E-03  0.2954662E+04  0.1304555E+00
  0.5761905E+00  0.1709257E+04  0.6867097E+01 -0.2608496E-02 -0.1109555E-02  0.2954687E+04  0.1952025E+00
  0.6071429E+00  0.1752435E+04  0.9969851E+01  0.1080681E-02 -0.5138144E-03  0.2965566E+04  0.2875710E+00
  0.6380953E+00  0.1813123E+04  0.1417812E+02  0.9894015E-03 -0.5175546E-03  0.2958260E+04  0.4164732E+00
  0.6690477E+00  0.1860100E+04  0.1984332E+02 -0.7258242E-02 -0.3176697E-02  0.2969849E+04  0.5914581E+00
  0.7000000E+00  0.1874371E+04  0.2734255E+02  0.1010895E-02 -0.1311101E-02  0.2972620E+04  0.8264781E+00
  0.7309524E+00  0.1920111E+04  0.3708046E+02 -0.2771185E-02 -0.2390295E-02  0.2966003E+04  0.1136626E+01
  0.7619048E+00  0.1975241E+04  0.4967330E+02 -0.2653599E-02 -0.3064752E-02  0.2968892E+04  0.1548890E+01
  0.7928572E+00  0.2035148E+04  0.6575742E+02 -0.1683965E-02 -0.2103493E-02  0.2982294E+04  0.2088144E+01
  0.8238096E+00  0.2111107E+04  0.8605360E+02 -0.2463456E-02 -0.3038049E-02  0.2988354E+04  0.2788478E+01
  0.8547620E+00  0.2172677E+04  0.1115022E+03 -0.3547987E-02 -0.4018128E-02  0.2981275E+04  0.3676298E+01
  0.8857143E+00  0.2211942E+04  0.1432607E+03 -0.1851974E-03 -0.2314836E-02  0.2986190E+04  0.4800721E+01
  0.9166667E+00  0.2266318E+04  0.1819243E+03 -0.2696644E-02 -0.4825175E-02  0.2997241E+04  0.6197762E+01
  0.9476191E+00  0.2344170E+04  0.2286169E+03 -0.4472397E-02 -0.5228758E-02  0.3002620E+04  0.7939904E+01
  0.9785714E+00  0.2431354E+04  0.2849588E+03 -0.1450142E-02 -0.3342807E-02  0.2996196E+04  0.1008192E+02
  0.1009524E+01  0.2514870E+04  0.3525796E+03  0.1825117E-02 -0.3154576E-02  0.3004108E+04  0.1275290E+02
  0.1040476E+01  0.2596473E+04  0.4329101E+03 -0.3167683E-02 -0.6187081E-02  0.3022539E+04  0.1599396E+02
  0.1071429E+01  0.2667195E+04  0.5273948E+03 -0.1904806E-02 -0.4064560E-02  0.3029093E+04  0.1988903E+02
  0.1102381E+01  0.2728229E+04  0.6378966E+03  0.2263112E-02 -0.3011107E-02  0.3027423E+04  0.2457941E+02
  0.1133333E+01  0.2792464E+04  0.7646583E+03  0.2975464E-02 -0.3762245E-03  0.3022751E+04  0.2999388E+02
  0.1164286E+01  0.2855770E+04  0.9095622E+03 -0.2424556E-02 -0.7381797E-02  0.3028823E+04  0.3619439E+02
  0.1195238E+01  0.2913988E+04  0.1072995E+04  0.2617095E-03 -0.2719641E-02  0.3044646E+04  0.4374746E+02
  0.1226190E+01  0.2968756E+04  0.1255956E+04 -0.1527508E-02 -0.7808447E-02  0.3052910E+04  0.5232930E+02
  0.1257143E+01  0.3013201E+04  0.1460386E+04 -0.6523999E-03 -0.6707907E-02  0.3060556E+04  0.6225046E+02
  0.1288095E+01  0.3061710E+04  0.1682322E+04 -0.1448175E-02 -0.6738186E-02  0.3058526E+04  0.7295255E+02
  0.1319048E+01  0.3090167E+04  0.1923852E+04 -0.8676026E-05 -0.4121065E-02  0.3058517E+04  0.8500237E+02
  0.1350000E+01  0.3104833E+04  0.2184691E+04  0.1189620E-02 -0.5878687E-02  0.3064718E+04  0.9818523E+02
  0.1380952E+01  0.3100660E+04  0.2461470E+04  0.2428121E-02  0.1331806E-02  0.3079002E+04  0.1141113E+03
  0.1411905E+01  0.2912186E+04  0.2652250E+04  0.2404610E-03 -0.1117849E-01  0.3064008E+04  0.1256497E+03
  0.1442857E+01  0.2886495E+04  0.2944734E+04  0.3360333E-02  0.2609730E-02  0.3069141E+04  0.1426207E+03
  0.1473810E+01  0.2853434E+04  0.3246167E+04  0.2875628E-02 -0.9821415E-02  0.3062652E+04  0.1600284E+03
  0.1504762E+01  0.2806582E+04  0.3552182E+04  0.2710004E-02 -0.2601147E-02  0.3054318E+04  0.1763848E+03
  0.1535714E+01  0.2743610E+04  0.3864312E+04  0.3981834E-02 -0.3555775E-02  0.3051542E+04  0.1955581E+03
  0.1566667E+01  0.2668868E+04  0.4183178E+04  0.2668665E-02 -0.2022266E-02  0.3057191E+04  0.2171710E+03
  0.1597619E+01  0.2579836E+04  0.4496112E+04  0.3452671E-02 -0.3775120E-02  0.3071726E+04  0.2420176E+03
  0.1628572E+01  0.2484633E+04  0.4803613E+04  0.2951371E-02 -0.3365040E-02  0.3077187E+04  0.2664491E+03
  0.1659524E+01  0.2384031E+04  0.5099664E+04  0.3962907E-02 -0.9516716E-02  0.3081162E+04  0.2897945E+03
  0.1690476E+01  0.2272470E+04  0.5390063E+04  0.2382950E-02 -0.8300304E-02  0.3072936E+04  0.3108916E+03
  0.1721429E+01  0.2156493E+04  0.5671278E+04  0.1892470E-02 -0.1117229E-02  0.3057259E+04  0.3273188E+03
  0.1752381E+01  0.2027493E+04  0.5941349E+04  0.2368430E-02 -0.3398895E-02  0.3042532E+04  0.3459337E+03
  0.1783333E+01  0.1899482E+04  0.6203254E+04  0.2438554E-02 -0.5684853E-02  0.3036292E+04  0.3674529E+03
  0.1814286E+01  0.1769031E+04  0.6459127E+04  0.4217794E-02 -0.4908562E-02  0.3040387E+04  0.3954916E+03
  0.1845238E+01  0.1635769E+04  0.6689989E+04  0.2087993E-02 -0.4041672E-02  0.3051603E+04  0.4296256E+03
  0.1876190E+01  0.1500417E+04  0.6909713E+04  0.2029148E-02 -0.5987644E-02  0.3051576E+04  0.4603239E+03
  0.1907143E+01  0.1370258E+04  0.7110005E+04  0.2544275E-02 -0.2320766E-02  0.3050517E+04  0.4854656E+03
  0.1938095E+01  0.1242769E+04  0.7299151E+04  0.4893123E-02 -0.8288383E-02  0.3044204E+04  0.5070851E+03
  0.1969048E+01  0.1120366E+04  0.7482333E+04  0.2766509E-02 -0.8344650E-02  0.3024789E+04  0.5147385E+03
  0.2000000E+01  0.9991078E+03  0.7648767E+04  0.2853394E-02 -0.2822876E-02  0.3010964E+04  0.5225407E+03
