VARIABLES="w (rad/s)"
"A   1   1" "B   1   1"
"A   1   2" "B   1   2"
"A   1   3" "B   1   3"
Zone t="Motion of body    1 in DoF   1",I=    64,F=POINT
  0.5000000E-01  0.1468505E+06  0.8556058E-02 -0.8277893E-02  0.1144116E-04 -0.1818850E+06 -0.9096622E-02
  0.8095238E-01  0.1476462E+06  0.3734639E-01 -0.8270039E-02  0.2515307E-04 -0.1830272E+06 -0.3995095E-01
  0.1119048E+00  0.1482216E+06  0.1054198E+00 -0.1857839E-01 -0.3775617E-04 -0.1834749E+06 -0.1123749E+00
  0.1428571E+00  0.1484335E+06  0.2374167E+00  0.2168274E-01  0.7128896E-04 -0.1836997E+06 -0.2531587E+00
  0.1738095E+00  0.1487978E+06  0.4731118E+00  0.9415508E-02  0.1041468E-03 -0.1839161E+06 -0.5033823E+00
  0.2047619E+00  0.1489075E+06  0.8736833E+00 -0.1918881E-01 -0.3362540E-04 -0.1840157E+06 -0.9283560E+00
  0.2357143E+00  0.1492200E+06  0.1540823E+01  0.2650868E-01  0.3550616E-03 -0.1842464E+06 -0.1635697E+01
  0.2666667E+00  0.1494696E+06  0.2632364E+01 -0.4978179E-02  0.2774475E-03 -0.1844955E+06 -0.2790682E+01
  0.2976190E+00  0.1498599E+06  0.4423919E+01 -0.1112549E-01 -0.4845625E-03 -0.1846973E+06 -0.4680040E+01
  0.3285715E+00  0.1501853E+06  0.7334503E+01 -0.2972146E-02 -0.2497956E-03 -0.1850178E+06 -0.7747079E+01
  0.3595238E+00  0.1506977E+06  0.1207315E+02 -0.1636126E-01 -0.3668070E-03 -0.1854365E+06 -0.1272296E+02
  0.3904762E+00  0.1510253E+06  0.1971664E+02  0.1758482E-02  0.2581254E-03 -0.1857115E+06 -0.2073524E+02
  0.4214286E+00  0.1517242E+06  0.3184171E+02 -0.1940711E-01 -0.1298979E-02 -0.1862064E+06 -0.3338837E+02
  0.4523810E+00  0.1523861E+06  0.5095321E+02  0.1369436E-01  0.1338094E-02 -0.1866851E+06 -0.5326829E+02
  0.4833333E+00  0.1531015E+06  0.7955373E+02  0.2370900E-01  0.2140582E-02 -0.1872179E+06 -0.8290108E+02
  0.5142857E+00  0.1537211E+06  0.1221411E+03  0.2091726E-01  0.4872382E-03 -0.1877806E+06 -0.1269373E+03
  0.5452381E+00  0.1545702E+06  0.1832636E+03  0.2356384E-01  0.1697958E-02 -0.1884892E+06 -0.1898456E+03
  0.5761905E+00  0.1556218E+06  0.2687262E+03 -0.1339999E-01 -0.2038658E-02 -0.1892712E+06 -0.2772820E+03
  0.6071429E+00  0.1565761E+06  0.3867574E+03  0.1362161E-01  0.2878070E-02 -0.1901116E+06 -0.3977290E+03
  0.6380953E+00  0.1575581E+06  0.5444464E+03  0.1869999E-01  0.3148913E-02 -0.1909505E+06 -0.5578578E+03
  0.6690477E+00  0.1587767E+06  0.7540574E+03 -0.2225937E-01 -0.4000664E-03 -0.1919992E+06 -0.7696147E+03
  0.7000000E+00  0.1599993E+06  0.1028789E+04 -0.1116071E-01 -0.4822016E-02 -0.1929726E+06 -0.1045486E+04
  0.7309524E+00  0.1614455E+06  0.1383367E+04  0.4216793E-02 -0.9093285E-03 -0.1940579E+06 -0.1398919E+04
  0.7619048E+00  0.1630170E+06  0.1836931E+04 -0.7890700E-02  0.4708767E-02 -0.1953740E+06 -0.1849130E+04
  0.7928572E+00  0.1644327E+06  0.2408654E+04  0.4080007E-02  0.4124641E-02 -0.1966200E+06 -0.2414189E+04
  0.8238096E+00  0.1660823E+06  0.3125634E+04  0.7149580E-02  0.4208565E-02 -0.1979942E+06 -0.3117578E+04
  0.8547620E+00  0.1678111E+06  0.4013716E+04  0.1642339E-01  0.9953499E-02 -0.1993455E+06 -0.3981988E+04
  0.8857143E+00  0.1697802E+06  0.5108423E+04  0.4444737E-02  0.9155273E-04 -0.2008867E+06 -0.5039551E+04
  0.9166667E+00  0.1717195E+06  0.6441452E+04 -0.1005415E-01  0.4657745E-02 -0.2023395E+06 -0.6317082E+04
  0.9476191E+00  0.1738141E+06  0.8058080E+04  0.4862876E-02 -0.7629395E-05 -0.2040445E+06 -0.7858509E+04
  0.9785714E+00  0.1758101E+06  0.9993276E+04  0.1156995E-01  0.1574707E-01 -0.2055785E+06 -0.9687499E+04
  0.1009524E+01  0.1779457E+06  0.1230216E+05  0.8494539E-02  0.1322174E-01 -0.2072244E+06 -0.1185330E+05
  0.1040476E+01  0.1799978E+06  0.1502617E+05 -0.1237743E-01 -0.6694794E-02 -0.2087538E+06 -0.1438592E+05
  0.1071429E+01  0.1820203E+06  0.1821811E+05  0.1290283E-01  0.1784515E-01 -0.2102430E+06 -0.1733018E+05
  0.1102381E+01  0.1841207E+06  0.2193798E+05  0.5481299E-02 -0.4348755E-02 -0.2116774E+06 -0.2072238E+05
  0.1133333E+01  0.1860701E+06  0.2622943E+05 -0.1669491E-01 -0.9544373E-02 -0.2128747E+06 -0.2459257E+05
  0.1164286E+01  0.1879827E+06  0.3114594E+05  0.1373478E-01  0.1602173E-02 -0.2140215E+06 -0.2898163E+05
  0.1195238E+01  0.1895915E+06  0.3672071E+05  0.1118329E-01  0.6439209E-02 -0.2149801E+06 -0.3392298E+05
  0.1226190E+01  0.1908033E+06  0.4295878E+05 -0.2444014E-01 -0.1034546E-01 -0.2155289E+06 -0.3938711E+05
  0.1257143E+01  0.1915794E+06  0.4986080E+05  0.3835505E-02 -0.1037598E-02 -0.2158003E+06 -0.4539469E+05
  0.1288095E+01  0.1922652E+06  0.5751557E+05 -0.8007903E-02  0.2452087E-01 -0.2156461E+06 -0.5190731E+05
  0.1319048E+01  0.1923702E+06  0.6578335E+05 -0.6339283E-02 -0.8087158E-03 -0.2150563E+06 -0.5887052E+05
  0.1350000E+01  0.1920396E+06  0.7466004E+05  0.2043547E-01  0.8880615E-02 -0.2141364E+06 -0.6626095E+05
  0.1380952E+01  0.1910857E+06  0.8405123E+05  0.2740268E-02 -0.1452637E-01 -0.2125867E+06 -0.7393442E+05
  0.1411905E+01  0.1881760E+06  0.9250298E+05  0.1621085E-01  0.2478027E-01 -0.2098077E+06 -0.8080510E+05
  0.1442857E+01  0.1860915E+06  0.1024991E+06  0.1015238E-02  0.3448486E-02 -0.2073464E+06 -0.8872641E+05
  0.1473810E+01  0.1833507E+06  0.1125863E+06 -0.5383715E-02  0.8239746E-02 -0.2043009E+06 -0.9653643E+05
  0.1504762E+01  0.1799909E+06  0.1226504E+06  0.1744137E-02  0.1660156E-01 -0.2007590E+06 -0.1041244E+06
  0.1535714E+01  0.1761158E+06  0.1325483E+06  0.1315520E-01  0.1104736E-01 -0.1968785E+06 -0.1114362E+06
  0.1566667E+01  0.1717281E+06  0.1420942E+06  0.6934633E-02  0.4089355E-02 -0.1927034E+06 -0.1183134E+06
  0.1597619E+01  0.1668379E+06  0.1510995E+06 -0.1184319E-02  0.6164551E-02 -0.1881110E+06 -0.1245198E+06
  0.1628572E+01  0.1615414E+06  0.1594050E+06  0.1461631E-02  0.1159668E-01 -0.1832280E+06 -0.1299564E+06
  0.1659524E+01  0.1561195E+06  0.1670570E+06 -0.3530757E-02 -0.1263428E-01 -0.1784146E+06 -0.1347822E+06
  0.1690476E+01  0.1505650E+06  0.1738907E+06 -0.5921269E-02 -0.1068115E-01 -0.1735770E+06 -0.1387999E+06
  0.1721429E+01  0.1448614E+06  0.1797543E+06  0.1272874E-01 -0.1690674E-01 -0.1685990E+06 -0.1418126E+06
  0.1752381E+01  0.1392303E+06  0.1847975E+06 -0.2368430E-02 -0.6103516E-02 -0.1638081E+06 -0.1441000E+06
  0.1783333E+01  0.1337447E+06  0.1889990E+06 -0.7563796E-02  0.1068115E-01 -0.1592253E+06 -0.1456292E+06
  0.1814286E+01  0.1283588E+06  0.1924149E+06 -0.1278374E-02  0.1507568E-01 -0.1548875E+06 -0.1465480E+06
  0.1845238E+01  0.1231442E+06  0.1949644E+06 -0.1008852E-02  0.1434326E-01 -0.1507428E+06 -0.1466958E+06
  0.1876190E+01  0.1180826E+06  0.1966905E+06 -0.8702157E-02 -0.2014160E-02 -0.1467726E+06 -0.1461167E+06
  0.1907143E+01  0.1133481E+06  0.1978308E+06  0.7840846E-03 -0.5920410E-02 -0.1431949E+06 -0.1451567E+06
  0.1938095E+01  0.1089392E+06  0.1984122E+06  0.2235956E-02  0.2502441E-02 -0.1399752E+06 -0.1438152E+06
  0.1969048E+01  0.1047220E+06  0.1982438E+06 -0.2076819E-02 -0.2441406E-02 -0.1368840E+06 -0.1417656E+06
  0.2000000E+01  0.1008170E+06  0.1976250E+06 -0.1373291E-03 -0.1385498E-01 -0.1341022E+06 -0.1394244E+06
Zone t="Motion of body    1 in DoF   2",I=    64,F=POINT
  0.5000000E-01  0.1060486E-01 -0.1096725E-04  0.6934489E+05  0.1834938E+03 -0.1392365E-01 -0.8237362E-04
  0.8095238E-01  0.4759395E-02 -0.1549721E-04  0.6859924E+05  0.3044717E+03  0.1057905E-01  0.3957748E-04
  0.1119048E+00  0.9544860E-02  0.5054474E-04  0.6819483E+05  0.4364919E+03 -0.2181682E-02  0.2100468E-03
  0.1428571E+00 -0.1436615E-01 -0.8726120E-04  0.6801848E+05  0.5846641E+03 -0.2688980E-01 -0.5745888E-04
  0.1738095E+00 -0.1088600E-01  0.5912781E-04  0.6801097E+05  0.7556276E+03 -0.2155252E-01  0.2288818E-03
  0.2047619E+00 -0.1862992E-01  0.1335144E-03  0.6815973E+05  0.9574349E+03  0.1751212E-02 -0.2493858E-03
  0.2357143E+00 -0.2557003E-01  0.1640320E-03  0.6839572E+05  0.1201660E+04 -0.1310869E-01  0.2632141E-03
  0.2666667E+00  0.1733780E-01 -0.5722046E-05  0.6873672E+05  0.1498497E+04 -0.4434586E-02 -0.5846024E-03
  0.2976190E+00 -0.1948242E-02 -0.4196167E-03  0.6916742E+05  0.1869286E+04  0.1881592E-01  0.7934570E-03
  0.3285715E+00 -0.3808063E-02 -0.1564026E-03  0.6962823E+05  0.2327055E+04 -0.6130052E-02 -0.8392334E-04
  0.3595238E+00 -0.2037200E-02  0.5912781E-03  0.7007875E+05  0.2897790E+04  0.1476970E-01  0.7457733E-03
  0.3904762E+00  0.5627143E-02  0.2746582E-03  0.7055816E+05  0.3603354E+04  0.3868661E-02  0.5054474E-03
  0.4214286E+00 -0.6010410E-02  0.2059937E-03  0.7086755E+05  0.4438363E+04  0.6553520E-02  0.1245499E-02
  0.4523810E+00  0.1699990E-01  0.1525879E-02  0.7108252E+05  0.5446641E+04 -0.4111681E-01 -0.1255035E-02
  0.4833333E+00 -0.1351192E-01 -0.4348755E-03  0.7108770E+05  0.6551913E+04 -0.2399313E-02 -0.1632690E-02
  0.5142857E+00  0.1958211E-01  0.6713867E-03  0.7091352E+05  0.7804588E+04 -0.5340577E-03  0.1842499E-02
  0.5452381E+00  0.6212793E-02 -0.1754761E-03  0.7059123E+05  0.9143604E+04 -0.1348904E-01  0.6332397E-03
  0.5761905E+00  0.6514620E-02 -0.9155273E-04  0.7009976E+05  0.1054784E+05 -0.2280117E-01  0.3280640E-03
  0.6071429E+00 -0.3196806E-01 -0.2853394E-02  0.6944607E+05  0.1204753E+05 -0.6986729E-02 -0.3135681E-02
  0.6380953E+00  0.1865216E-02  0.1464844E-02  0.6875237E+05  0.1356585E+05 -0.2989128E-01  0.1502991E-02
  0.6690477E+00  0.1687698E-02 -0.1525879E-04  0.6795363E+05  0.1513426E+05 -0.1774364E-01 -0.2861023E-02
  0.7000000E+00  0.1787458E-01  0.4547119E-02  0.6701455E+05  0.1675930E+05  0.1002720E-02 -0.4898071E-02
  0.7309524E+00 -0.1444565E-01  0.2090454E-02  0.6604763E+05  0.1839665E+05 -0.1356889E-01 -0.3494263E-02
  0.7619048E+00 -0.8371352E-02 -0.1495361E-02  0.6501597E+05  0.2005435E+05 -0.3072166E-01 -0.3570557E-02
  0.7928572E+00  0.1316380E-01  0.6103516E-04  0.6390262E+05  0.2172953E+05  0.1924532E-01 -0.2822876E-02
  0.8238096E+00  0.4260113E-02 -0.1708984E-02  0.6275239E+05  0.2340725E+05 -0.1752203E-01  0.2655029E-02
  0.8547620E+00 -0.7283415E-02  0.4577637E-03  0.6156615E+05  0.2507916E+05 -0.1749448E-02 -0.4638672E-02
  0.8857143E+00 -0.3721176E-02  0.1220703E-02  0.6033840E+05  0.2673495E+05  0.1467797E-01  0.1235962E-02
  0.9166667E+00 -0.9454900E-02 -0.3051758E-02  0.5907812E+05  0.2836831E+05  0.3985041E-01 -0.6027222E-02
  0.9476191E+00 -0.6698532E-02 -0.3356934E-02  0.5779412E+05  0.2997004E+05 -0.1198007E-01 -0.5615234E-02
  0.9785714E+00  0.9355754E-03 -0.2441406E-03  0.5649617E+05  0.3153557E+05  0.1777593E-01 -0.8544922E-02
  0.1009524E+01 -0.3688021E-02  0.1083374E-01  0.5519305E+05  0.3305552E+05 -0.8554999E-02 -0.1397705E-01
  0.1040476E+01  0.9385726E-03  0.1312256E-02  0.5389110E+05  0.3452931E+05  0.1173216E-03 -0.1220703E-03
  0.1071429E+01  0.9399414E-02 -0.3326416E-02  0.5258896E+05  0.3595252E+05 -0.1743164E-01  0.2258301E-02
  0.1102381E+01  0.2823700E-02 -0.3173828E-02  0.5129469E+05  0.3731720E+05  0.1746818E-01 -0.2563477E-02
  0.1133333E+01 -0.2154182E-03  0.6408691E-02  0.5001531E+05  0.3862532E+05 -0.1279046E-01 -0.1449585E-01
  0.1164286E+01 -0.2647353E-02 -0.2502441E-02  0.4875830E+05  0.3986642E+05  0.1383963E-01  0.6866455E-02
  0.1195238E+01  0.6025702E-02 -0.1403809E-02  0.4752631E+05  0.4104710E+05 -0.4468211E-02  0.3662109E-03
  0.1226190E+01  0.2409170E-01  0.9887695E-02  0.4631393E+05  0.4216584E+05  0.5226505E-03 -0.7873535E-02
  0.1257143E+01  0.6335865E-02 -0.1416016E-01  0.4514346E+05  0.4324259E+05 -0.8083690E-02 -0.1049805E-01
  0.1288095E+01  0.1563673E-02 -0.2441406E-02  0.4398657E+05  0.4420572E+05 -0.7557754E-02  0.1184082E-01
  0.1319048E+01  0.9254427E-03 -0.2502441E-02  0.4287555E+05  0.4513670E+05  0.2197927E-02 -0.4486084E-02
  0.1350000E+01  0.5221897E-02 -0.4089355E-02  0.4179566E+05  0.4600237E+05 -0.7233796E-03 -0.7324219E-03
  0.1380952E+01  0.1104947E-02  0.2258301E-02  0.4074826E+05  0.4681082E+05 -0.2696070E-02 -0.6988525E-02
  0.1411905E+01 -0.2917954E-02 -0.2624512E-02  0.3968887E+05  0.4764533E+05  0.4949714E-02  0.5187988E-02
  0.1442857E+01 -0.7910398E-02 -0.8178711E-02  0.3870800E+05  0.4835668E+05 -0.9835120E-03 -0.9979248E-02
  0.1473810E+01 -0.8406878E-02  0.7263184E-02  0.3775364E+05  0.4901488E+05 -0.1387342E-01 -0.3997803E-02
  0.1504762E+01  0.1020118E-01  0.4211426E-02  0.3684310E+05  0.4962852E+05 -0.1314187E-01 -0.1626587E-01
  0.1535714E+01 -0.8226971E-02  0.3845215E-02  0.3596024E+05  0.5019070E+05 -0.2480014E-01 -0.1251221E-02
  0.1566667E+01  0.1527177E-01  0.4272461E-03  0.3510793E+05  0.5070529E+05 -0.7606668E-02 -0.1507568E-01
  0.1597619E+01 -0.2177618E-02 -0.1831055E-03  0.3428180E+05  0.5118888E+05  0.1071617E-01 -0.8361816E-02
  0.1628572E+01  0.2567224E-02  0.4821777E-02  0.3347595E+05  0.5163540E+05 -0.1049376E-02  0.3509521E-02
  0.1659524E+01 -0.9470520E-02  0.7324219E-03  0.3270759E+05  0.5204193E+05  0.1346101E-01 -0.2441406E-03
  0.1690476E+01  0.6318428E-02  0.6103516E-04  0.3195269E+05  0.5240615E+05  0.1549820E-01  0.3051758E-03
  0.1721429E+01 -0.1648709E-02 -0.4943848E-02  0.3121404E+05  0.5274832E+05  0.3536747E-02  0.3417969E-02
  0.1752381E+01 -0.4841349E-02  0.9643555E-02  0.3049748E+05  0.5304953E+05 -0.1758907E-02  0.1324463E-01
  0.1783333E+01 -0.4021475E-02 -0.1220703E-01  0.2979222E+05  0.5329402E+05 -0.1150826E-01 -0.1217651E-01
  0.1814286E+01 -0.2153051E-02  0.6103516E-02  0.2910478E+05  0.5350164E+05  0.2649262E-02  0.1177979E-01
  0.1845238E+01  0.1114699E-01  0.6530762E-02  0.2842654E+05  0.5367055E+05 -0.8170048E-02 -0.1095581E-01
  0.1876190E+01 -0.2976626E-02  0.9033203E-02  0.2775008E+05  0.5378470E+05 -0.7270774E-02 -0.1058960E-01
  0.1907143E+01  0.1408152E-02  0.5371094E-02  0.2710095E+05  0.5383709E+05 -0.6704723E-02 -0.8514404E-02
  0.1938095E+01  0.4200291E-02 -0.4821777E-02  0.2646404E+05  0.5381325E+05 -0.4381372E-02 -0.5157471E-02
  0.1969048E+01  0.2925370E-02  0.3723145E-02  0.2583404E+05  0.5372668E+05 -0.7013139E-03 -0.4608154E-02
  0.2000000E+01 -0.4196167E-02 -0.7812500E-02  0.2523267E+05  0.5357738E+05  0.1680374E-02  0.1162720E-01
Zone t="Motion of body    1 in DoF   3",I=    64,F=POINT
  0.5000000E-01 -0.1809879E+06 -0.8847022E-02 -0.7221222E-01 -0.1843675E-03  0.3448819E+06  0.9248729E-02
  0.8095238E-01 -0.1821980E+06 -0.3924096E-01  0.2033346E-01 -0.4779375E-04  0.3466746E+06  0.4231301E-01
  0.1119048E+00 -0.1828010E+06 -0.1101543E+00 -0.9493726E-02 -0.1643502E-04  0.3469761E+06  0.1177704E+00
  0.1428571E+00 -0.1830093E+06 -0.2479437E+00 -0.1683617E-01 -0.1736403E-03  0.3472127E+06  0.2646486E+00
  0.1738095E+00 -0.1832929E+06 -0.4938409E+00 -0.1215896E-01 -0.1655399E-03  0.3473004E+06  0.5255951E+00
  0.2047619E+00 -0.1833475E+06 -0.9114410E+00  0.1729788E-01 -0.1089233E-03  0.3474597E+06  0.9691159E+00
  0.2357143E+00 -0.1835952E+06 -0.1604935E+01  0.3863017E-01  0.7996121E-03  0.3476075E+06  0.1703516E+01
  0.2666667E+00 -0.1838247E+06 -0.2737253E+01 -0.2546310E-01 -0.2949266E-03  0.3477968E+06  0.2902499E+01
  0.2976190E+00 -0.1840337E+06 -0.4593090E+01  0.9664306E-02 -0.3974689E-03  0.3479916E+06  0.4858442E+01
  0.3285715E+00 -0.1843250E+06 -0.7598334E+01  0.9822015E-02  0.2284795E-03  0.3482522E+06  0.8025463E+01
  0.3595238E+00 -0.1847675E+06 -0.1248270E+02  0.2379916E-01  0.8372404E-03  0.3485145E+06  0.1315600E+02
  0.3904762E+00 -0.1850016E+06 -0.2033646E+02 -0.4122664E-01 -0.1043096E-02  0.3487980E+06  0.2138457E+02
  0.4214286E+00 -0.1855017E+06 -0.3275924E+02  0.8653542E-01  0.4400603E-02  0.3492391E+06  0.3434924E+02
  0.4523810E+00 -0.1859914E+06 -0.5228112E+02 -0.9882876E-02 -0.1391008E-02  0.3496264E+06  0.5465231E+02
  0.4833333E+00 -0.1865268E+06 -0.8138397E+02  0.6462360E-01  0.5212665E-02  0.3500299E+06  0.8481046E+02
  0.5142857E+00 -0.1870385E+06 -0.1245647E+03 -0.1980464E-01 -0.2495080E-02  0.3504777E+06  0.1294525E+03
  0.5452381E+00 -0.1877171E+06 -0.1862917E+03 -0.4935252E-01 -0.5351841E-02  0.3511592E+06  0.1929805E+03
  0.5761905E+00 -0.1885454E+06 -0.2722013E+03  0.3671756E-01  0.5509675E-02  0.3517735E+06  0.2808635E+03
  0.6071429E+00 -0.1893493E+06 -0.3903139E+03  0.5038990E-02  0.2023458E-02  0.3524527E+06  0.4014127E+03
  0.6380953E+00 -0.1901356E+06 -0.5473036E+03  0.8740211E-02  0.1504779E-02  0.3531771E+06  0.5607963E+03
  0.6690477E+00 -0.1911714E+06 -0.7548949E+03 -0.2862245E-02  0.2768040E-03  0.3540569E+06  0.7704611E+03
  0.7000000E+00 -0.1921155E+06 -0.1025599E+04 -0.8108956E-02  0.4907846E-02  0.3548762E+06  0.1042268E+04
  0.7309524E+00 -0.1932114E+06 -0.1372910E+04 -0.3953766E-01 -0.1356125E-01  0.3557862E+06  0.1388353E+04
  0.7619048E+00 -0.1945237E+06 -0.1814260E+04  0.3104210E-02  0.2979279E-02  0.3567874E+06  0.1826326E+04
  0.7928572E+00 -0.1956814E+06 -0.2367175E+04 -0.4008800E-01 -0.1110649E-01  0.3578118E+06  0.2372610E+04
  0.8238096E+00 -0.1970193E+06 -0.3056130E+04  0.5223269E-02 -0.1661301E-02  0.3589384E+06  0.3048204E+04
  0.8547620E+00 -0.1983353E+06 -0.3904104E+04 -0.2906225E-01 -0.1416492E-01  0.3600874E+06  0.3873242E+04
  0.8857143E+00 -0.1998781E+06 -0.4941424E+04 -0.2651338E-01 -0.8972168E-02  0.3612816E+06  0.4874647E+04
  0.9166667E+00 -0.2013167E+06 -0.6195337E+04  0.1511452E-01  0.9262085E-02  0.3623919E+06  0.6075689E+04
  0.9476191E+00 -0.2029795E+06 -0.7703747E+04  0.2637547E-01  0.1915932E-01  0.3637232E+06  0.7512687E+04
  0.9785714E+00 -0.2044528E+06 -0.9495187E+04  0.4381612E-01  0.2227402E-01  0.3649121E+06  0.9204412E+04
  0.1009524E+01 -0.2060554E+06 -0.1161347E+05 -0.7542305E-02 -0.2457809E-01  0.3660638E+06  0.1119016E+05
  0.1040476E+01 -0.2075349E+06 -0.1409220E+05  0.9268405E-02  0.1029968E-03  0.3671458E+06  0.1349094E+05
  0.1071429E+01 -0.2089635E+06 -0.1697266E+05 -0.1079508E-01 -0.2700806E-01  0.3682523E+06  0.1614530E+05
  0.1102381E+01 -0.2103823E+06 -0.2029634E+05  0.3418892E-01  0.3014374E-01  0.3692060E+06  0.1917094E+05
  0.1133333E+01 -0.2115833E+06 -0.2409597E+05  0.4254509E-02 -0.6050110E-02  0.3699374E+06  0.2259092E+05
  0.1164286E+01 -0.2127246E+06 -0.2839577E+05 -0.1155923E-01 -0.1542664E-01  0.3704817E+06  0.2642176E+05
  0.1195238E+01 -0.2136299E+06 -0.3321998E+05 -0.3344775E-02 -0.2537537E-01  0.3708983E+06  0.3068707E+05
  0.1226190E+01 -0.2141227E+06 -0.3855509E+05  0.9930361E-02 -0.1097107E-01  0.3709305E+06  0.3534715E+05
  0.1257143E+01 -0.2143132E+06 -0.4438688E+05  0.2711556E-01  0.4144287E-01  0.3707652E+06  0.4041133E+05
  0.1288095E+01 -0.2141846E+06 -0.5078203E+05 -0.1307799E-01 -0.1721191E-01  0.3701267E+06  0.4582758E+05
  0.1319048E+01 -0.2136136E+06 -0.5759498E+05 -0.6940821E-03  0.2781677E-01  0.3691353E+06  0.5153725E+05
  0.1350000E+01 -0.2126876E+06 -0.6479710E+05  0.1923738E-01  0.1950073E-01  0.3678603E+06  0.5750471E+05
  0.1380952E+01 -0.2111708E+06 -0.7230187E+05 -0.1854101E-01 -0.4455566E-02  0.3660669E+06  0.6359405E+05
  0.1411905E+01 -0.2096115E+06 -0.7980668E+05 -0.7867668E-02  0.5279541E-02  0.3640820E+06  0.6970452E+05
  0.1442857E+01 -0.2071771E+06 -0.8761629E+05  0.3430659E-01  0.7000732E-01  0.3615450E+06  0.7583027E+05
  0.1473810E+01 -0.2041707E+06 -0.9532212E+05 -0.5404421E-02 -0.1831055E-02  0.3585044E+06  0.8173025E+05
  0.1504762E+01 -0.2006824E+06 -0.1028358E+06 -0.9288547E-02 -0.3723145E-02  0.3551140E+06  0.8727969E+05
  0.1535714E+01 -0.1968330E+06 -0.1099982E+06  0.1915652E-01  0.2429199E-01  0.3513904E+06  0.9245324E+05
  0.1566667E+01 -0.1926676E+06 -0.1167036E+06  0.9291628E-02  0.3674316E-01  0.3475935E+06  0.9717221E+05
  0.1597619E+01 -0.1881276E+06 -0.1228109E+06  0.2120312E-02 -0.2603149E-01  0.3435009E+06  0.1011890E+06
  0.1628572E+01 -0.1833267E+06 -0.1282000E+06  0.1465379E-01  0.2441406E-02  0.3392212E+06  0.1044840E+06
  0.1659524E+01 -0.1785778E+06 -0.1329389E+06 -0.5103047E-02 -0.2069092E-01  0.3351934E+06  0.1072242E+06
  0.1690476E+01 -0.1738004E+06 -0.1368692E+06 -0.2714216E-01 -0.7690430E-02  0.3311753E+06  0.1092120E+06
  0.1721429E+01 -0.1689194E+06 -0.1399283E+06  0.1622117E-02  0.2062988E-01  0.3271272E+06  0.1103384E+06
  0.1752381E+01 -0.1642075E+06 -0.1422167E+06 -0.1000487E-01 -0.1776123E-01  0.3233007E+06  0.1108544E+06
  0.1783333E+01 -0.1596937E+06 -0.1436976E+06  0.1526877E-01  0.3723145E-01  0.3195975E+06  0.1106358E+06
  0.1814286E+01 -0.1554159E+06 -0.1445497E+06  0.1083254E-01  0.3149414E-01  0.3162839E+06  0.1099980E+06
  0.1845238E+01 -0.1513348E+06 -0.1446668E+06  0.1615610E-01  0.2099609E-01  0.3131810E+06  0.1087498E+06
  0.1876190E+01 -0.1474322E+06 -0.1441408E+06 -0.4556433E-02  0.1654053E-01  0.3102484E+06  0.1069548E+06
  0.1907143E+01 -0.1439155E+06 -0.1431881E+06  0.8797199E-02  0.6958008E-02  0.3077454E+06  0.1049278E+06
  0.1938095E+01 -0.1407448E+06 -0.1417881E+06 -0.1838070E-01 -0.7446289E-02  0.3055394E+06  0.1025895E+06
  0.1969048E+01 -0.1377056E+06 -0.1398441E+06  0.1319323E-02  0.2441406E-02  0.3034682E+06  0.9978413E+05
  0.2000000E+01 -0.1349676E+06 -0.1376328E+06 -0.1659393E-02  0.8422852E-02  0.3017353E+06  0.9688020E+05
