VARIABLES="w (rad/s)"
"abs(F   1   1)" "angle(F   1   1)"
"abs(F   1   2)" "angle(F   1   2)"
"abs(F   1   3)" "angle(F   1   3)"
Zone t="Diffraction force - beta =   0.000 deg",I=    64,F=POINT
  0.5000000E-01  0.9811547E+03 -0.1570795E+01  0.1379265E+03 -0.3107614E+01  0.1755434E+04  0.1570798E+01
  0.8095238E-01  0.1611184E+04 -0.1570792E+01  0.3581484E+03 -0.3106510E+01  0.2881403E+04  0.1570800E+01
  0.1119048E+00  0.2251869E+04 -0.1570787E+01  0.6814518E+03 -0.3105166E+01  0.4029941E+04  0.1570804E+01
  0.1428571E+00  0.2922214E+04 -0.1570779E+01  0.1106006E+04 -0.3103354E+01  0.5222314E+04  0.1570810E+01
  0.1738095E+00  0.3607660E+04 -0.1570769E+01  0.1631278E+04 -0.3101035E+01  0.6452757E+04  0.1570819E+01
  0.2047619E+00  0.4344530E+04 -0.1570753E+01  0.2261575E+04 -0.3098169E+01  0.7764364E+04  0.1570832E+01
  0.2357143E+00  0.5121292E+04 -0.1570731E+01  0.2995633E+04 -0.3094538E+01  0.9158905E+04  0.1570850E+01
  0.2666667E+00  0.5957461E+04 -0.1570697E+01  0.3827620E+04 -0.3090050E+01  0.1065696E+05  0.1570878E+01
  0.2976190E+00  0.6872136E+04 -0.1570648E+01  0.4770120E+04 -0.3084485E+01  0.1229563E+05  0.1570918E+01
  0.3285715E+00  0.7863845E+04 -0.1570575E+01  0.5801184E+04 -0.3077674E+01  0.1407660E+05  0.1570979E+01
  0.3595238E+00  0.8960735E+04 -0.1570466E+01  0.6937817E+04 -0.3069493E+01  0.1605169E+05  0.1571069E+01
  0.3904762E+00  0.1018525E+05 -0.1570304E+01  0.8158708E+04 -0.3059705E+01  0.1823268E+05  0.1571203E+01
  0.4214286E+00  0.1154725E+05 -0.1570066E+01  0.9453755E+04 -0.3048733E+01  0.2066774E+05  0.1571399E+01
  0.4523810E+00  0.1301639E+05 -0.1569717E+01  0.1083176E+05 -0.3036035E+01  0.2332064E+05  0.1571687E+01
  0.4833333E+00  0.1465396E+05 -0.1569236E+01  0.1223383E+05 -0.3023021E+01  0.2626437E+05  0.1572085E+01
  0.5142857E+00  0.1646734E+05 -0.1568572E+01  0.1372943E+05 -0.3009393E+01  0.2950610E+05  0.1572636E+01
  0.5452381E+00  0.1837979E+05 -0.1567686E+01  0.1517713E+05 -0.2994976E+01  0.3292871E+05  0.1573371E+01
  0.5761905E+00  0.2039191E+05 -0.1566534E+01  0.1668232E+05 -0.2981280E+01  0.3656111E+05  0.1574327E+01
  0.6071429E+00  0.2254117E+05 -0.1565053E+01  0.1820583E+05 -0.2967227E+01  0.4041968E+05  0.1575556E+01
  0.6380953E+00  0.2484980E+05 -0.1563224E+01  0.1968672E+05 -0.2953561E+01  0.4451729E+05  0.1577081E+01
  0.6690477E+00  0.2726223E+05 -0.1560960E+01  0.2120354E+05 -0.2940482E+01  0.4880523E+05  0.1578971E+01
  0.7000000E+00  0.2971033E+05 -0.1558169E+01  0.2270179E+05 -0.2927342E+01  0.5319458E+05  0.1581299E+01
  0.7309524E+00  0.3224231E+05 -0.1554813E+01  0.2411875E+05 -0.2914048E+01  0.5777407E+05  0.1584097E+01
  0.7619048E+00  0.3489851E+05 -0.1550828E+01  0.2554070E+05 -0.2901402E+01  0.6249744E+05  0.1587431E+01
  0.7928572E+00  0.3771908E+05 -0.1546162E+01  0.2698609E+05 -0.2889690E+01  0.6748328E+05  0.1591349E+01
  0.8238096E+00  0.4055641E+05 -0.1540671E+01  0.2824836E+05 -0.2876784E+01  0.7242323E+05  0.1595978E+01
  0.8547620E+00  0.4346195E+05 -0.1534301E+01  0.2947826E+05 -0.2864384E+01  0.7756614E+05  0.1601344E+01
  0.8857143E+00  0.4641569E+05 -0.1526961E+01  0.3068488E+05 -0.2852736E+01  0.8278852E+05  0.1607536E+01
  0.9166667E+00  0.4939438E+05 -0.1518569E+01  0.3190183E+05 -0.2842324E+01  0.8814356E+05  0.1614600E+01
  0.9476191E+00  0.5236497E+05 -0.1509067E+01  0.3287003E+05 -0.2830414E+01  0.9333051E+05  0.1622633E+01
  0.9785714E+00  0.5551522E+05 -0.1498619E+01  0.3378016E+05 -0.2818965E+01  0.9875263E+05  0.1631486E+01
  0.1009524E+01  0.5864009E+05 -0.1486912E+01  0.3464473E+05 -0.2808295E+01  0.1041125E+06  0.1641451E+01
  0.1040476E+01  0.6178925E+05 -0.1473962E+01  0.3547183E+05 -0.2798507E+01  0.1095591E+06  0.1652470E+01
  0.1071429E+01  0.6479758E+05 -0.1459573E+01  0.3618205E+05 -0.2788963E+01  0.1147474E+06  0.1664726E+01
  0.1102381E+01  0.6771181E+05 -0.1443757E+01  0.3668921E+05 -0.2778577E+01  0.1197325E+06  0.1678218E+01
  0.1133333E+01  0.7053463E+05 -0.1426515E+01  0.3711968E+05 -0.2768629E+01  0.1246152E+06  0.1692898E+01
  0.1164286E+01  0.7321066E+05 -0.1407834E+01  0.3749795E+05 -0.2759509E+01  0.1292287E+06  0.1708799E+01
  0.1195238E+01  0.7580081E+05 -0.1388018E+01  0.3781584E+05 -0.2751122E+01  0.1336798E+06  0.1725616E+01
  0.1226190E+01  0.7821398E+05 -0.1367247E+01  0.3807294E+05 -0.2743656E+01  0.1377025E+06  0.1743202E+01
  0.1257143E+01  0.8025459E+05 -0.1344824E+01  0.3804087E+05 -0.2734826E+01  0.1409380E+06  0.1762272E+01
  0.1288095E+01  0.8221911E+05 -0.1321455E+01  0.3795118E+05 -0.2726618E+01  0.1441827E+06  0.1782091E+01
  0.1319048E+01  0.8376377E+05 -0.1296609E+01  0.3778059E+05 -0.2718808E+01  0.1466706E+06  0.1803084E+01
  0.1350000E+01  0.8498791E+05 -0.1270702E+01  0.3755740E+05 -0.2711752E+01  0.1486466E+06  0.1824897E+01
  0.1380952E+01  0.8589881E+05 -0.1244152E+01  0.3728145E+05 -0.2705463E+01  0.1501079E+06  0.1847053E+01
  0.1411905E+01  0.8625624E+05 -0.1216752E+01  0.3695784E+05 -0.2699898E+01  0.1507533E+06  0.1869458E+01
  0.1442857E+01  0.8621630E+05 -0.1188856E+01  0.3635668E+05 -0.2693983E+01  0.1503414E+06  0.1892407E+01
  0.1473810E+01  0.8580227E+05 -0.1160379E+01  0.3571382E+05 -0.2688337E+01  0.1495260E+06  0.1915575E+01
  0.1504762E+01  0.8493537E+05 -0.1131574E+01  0.3499957E+05 -0.2683295E+01  0.1479390E+06  0.1938654E+01
  0.1535714E+01  0.8355420E+05 -0.1102518E+01  0.3424588E+05 -0.2679013E+01  0.1454560E+06  0.1961609E+01
  0.1566667E+01  0.8178349E+05 -0.1074161E+01  0.3345298E+05 -0.2675595E+01  0.1423636E+06  0.1983427E+01
  0.1597619E+01  0.7959934E+05 -0.1045990E+01  0.3263273E+05 -0.2672779E+01  0.1386751E+06  0.2004527E+01
  0.1628572E+01  0.7690081E+05 -0.1017626E+01  0.3180640E+05 -0.2670668E+01  0.1342289E+06  0.2025122E+01
  0.1659524E+01  0.7371629E+05 -0.9895872E+00  0.3078190E+05 -0.2669607E+01  0.1287647E+06  0.2044563E+01
  0.1690476E+01  0.7018416E+05 -0.9623092E+00  0.2971568E+05 -0.2669118E+01  0.1228753E+06  0.2062467E+01
  0.1721429E+01  0.6634859E+05 -0.9363132E+00  0.2862998E+05 -0.2669636E+01  0.1166263E+06  0.2078115E+01
  0.1752381E+01  0.6211898E+05 -0.9108499E+00  0.2753821E+05 -0.2671286E+01  0.1097149E+06  0.2091986E+01
  0.1783333E+01  0.5760098E+05 -0.8861396E+00  0.2646306E+05 -0.2673950E+01  0.1024444E+06  0.2103773E+01
  0.1814286E+01  0.5283670E+05 -0.8626204E+00  0.2538583E+05 -0.2677644E+01  0.9487487E+05  0.2112361E+01
  0.1845238E+01  0.4787725E+05 -0.8405214E+00  0.2432722E+05 -0.2682547E+01  0.8711955E+05  0.2117173E+01
  0.1876190E+01  0.4267442E+05 -0.8190342E+00  0.2329970E+05 -0.2688282E+01  0.7909932E+05  0.2118062E+01
  0.1907143E+01  0.3725977E+05 -0.7984785E+00  0.2222772E+05 -0.2696326E+01  0.7070096E+05  0.2113192E+01
  0.1938095E+01  0.3170729E+05 -0.7789614E+00  0.2115741E+05 -0.2705881E+01  0.6218445E+05  0.2100954E+01
  0.1969048E+01  0.2611986E+05 -0.7608506E+00  0.2011522E+05 -0.2716264E+01  0.5388280E+05  0.2079231E+01
  0.2000000E+01  0.2045790E+05 -0.7441962E+00  0.1911488E+05 -0.2727628E+01  0.4563104E+05  0.2042514E+01
