VARIABLES="w (rad/s)"
"abs(F   1   1)" "angle(F   1   1)"
"abs(F   1   2)" "angle(F   1   2)"
"abs(F   1   3)" "angle(F   1   3)"
Zone t="Diffraction force - beta =   0.000 deg",I=    64,F=POINT
  0.5000000E-01  0.9035234E+04 -0.1570773E+01  0.3877331E+06 -0.2629525E-04  0.3318755E+05  0.1570787E+01
  0.8095238E-01  0.1474878E+05 -0.1570800E+01  0.3860877E+06 -0.7057719E-04  0.5411999E+05  0.1570808E+01
  0.1119048E+00  0.2056543E+05 -0.1570793E+01  0.3836745E+06 -0.1396578E-03  0.7541839E+05  0.1570819E+01
  0.1428571E+00  0.2656410E+05 -0.1570769E+01  0.3804947E+06 -0.2384576E-03  0.9730200E+05  0.1570820E+01
  0.1738095E+00  0.3278966E+05 -0.1570766E+01  0.3765592E+06 -0.3738853E-03  0.1200014E+06  0.1570825E+01
  0.2047619E+00  0.3931909E+05 -0.1570747E+01  0.3718731E+06 -0.5568956E-03  0.1437003E+06  0.1570839E+01
  0.2357143E+00  0.4621013E+05 -0.1570722E+01  0.3664397E+06 -0.8024314E-03  0.1686516E+06  0.1570868E+01
  0.2666667E+00  0.5358973E+05 -0.1570690E+01  0.3602995E+06 -0.1127456E-02  0.1952852E+06  0.1570907E+01
  0.2976190E+00  0.6152027E+05 -0.1570636E+01  0.3534390E+06 -0.1564912E-02  0.2237322E+06  0.1570958E+01
  0.3285715E+00  0.7016248E+05 -0.1570556E+01  0.3459327E+06 -0.2141188E-02  0.2546215E+06  0.1571037E+01
  0.3595238E+00  0.7956113E+05 -0.1570437E+01  0.3377640E+06 -0.2907086E-02  0.2881685E+06  0.1571156E+01
  0.3904762E+00  0.8992377E+05 -0.1570267E+01  0.3290651E+06 -0.3910296E-02  0.3248076E+06  0.1571328E+01
  0.4214286E+00  0.1012781E+06 -0.1570012E+01  0.3198238E+06 -0.5175218E-02  0.3647762E+06  0.1571581E+01
  0.4523810E+00  0.1136886E+06 -0.1569644E+01  0.3101762E+06 -0.6810350E-02  0.4082628E+06  0.1571948E+01
  0.4833333E+00  0.1271253E+06 -0.1569139E+01  0.3001646E+06 -0.8720741E-02  0.4551793E+06  0.1572454E+01
  0.5142857E+00  0.1416053E+06 -0.1568439E+01  0.2898481E+06 -0.1104656E-01  0.5051707E+06  0.1573153E+01
  0.5452381E+00  0.1570622E+06 -0.1567516E+01  0.2793536E+06 -0.1371824E-01  0.5581866E+06  0.1574077E+01
  0.5761905E+00  0.1731809E+06 -0.1566325E+01  0.2686055E+06 -0.1672329E-01  0.6132715E+06  0.1575268E+01
  0.6071429E+00  0.1900323E+06 -0.1564800E+01  0.2578375E+06 -0.2018823E-01  0.6702308E+06  0.1576793E+01
  0.6380953E+00  0.2075673E+06 -0.1562913E+01  0.2469573E+06 -0.2395164E-01  0.7287508E+06  0.1578678E+01
  0.6690477E+00  0.2255739E+06 -0.1560593E+01  0.2359428E+06 -0.2814405E-01  0.7882519E+06  0.1580999E+01
  0.7000000E+00  0.2439612E+06 -0.1557764E+01  0.2250967E+06 -0.3279899E-01  0.8482041E+06  0.1583829E+01
  0.7309524E+00  0.2628180E+06 -0.1554380E+01  0.2142581E+06 -0.3786249E-01  0.9093832E+06  0.1587213E+01
  0.7619048E+00  0.2818100E+06 -0.1550367E+01  0.2034252E+06 -0.4342184E-01  0.9701191E+06  0.1591225E+01
  0.7928572E+00  0.3011222E+06 -0.1545655E+01  0.1927761E+06 -0.4945558E-01  0.1030474E+07  0.1595936E+01
  0.8238096E+00  0.3208075E+06 -0.1540171E+01  0.1823736E+06 -0.5598785E-01  0.1090981E+07  0.1601419E+01
  0.8547620E+00  0.3402635E+06 -0.1533850E+01  0.1721072E+06 -0.6308950E-01  0.1149864E+07  0.1607739E+01
  0.8857143E+00  0.3597492E+06 -0.1526620E+01  0.1619904E+06 -0.7084482E-01  0.1208002E+07  0.1614970E+01
  0.9166667E+00  0.3789875E+06 -0.1518434E+01  0.1522071E+06 -0.7904945E-01  0.1264100E+07  0.1623155E+01
  0.9476191E+00  0.3982256E+06 -0.1509250E+01  0.1427868E+06 -0.8781850E-01  0.1319119E+07  0.1632337E+01
  0.9785714E+00  0.4169462E+06 -0.1499066E+01  0.1336343E+06 -0.9731208E-01  0.1370963E+07  0.1642518E+01
  0.1009524E+01  0.4350389E+06 -0.1487843E+01  0.1247339E+06 -0.1076207E+00  0.1419179E+07  0.1653736E+01
  0.1040476E+01  0.4525414E+06 -0.1475565E+01  0.1161187E+06 -0.1187891E+00  0.1464238E+07  0.1666007E+01
  0.1071429E+01  0.4691664E+06 -0.1462252E+01  0.1080548E+06 -0.1300038E+00  0.1504979E+07  0.1679314E+01
  0.1102381E+01  0.4849842E+06 -0.1447918E+01  0.1003172E+06 -0.1420982E+00  0.1542314E+07  0.1693643E+01
  0.1133333E+01  0.4992279E+06 -0.1432653E+01  0.9291263E+05 -0.1551692E+00  0.1573623E+07  0.1708906E+01
  0.1164286E+01  0.5119780E+06 -0.1416556E+01  0.8581944E+05 -0.1693745E+00  0.1599295E+07  0.1725000E+01
  0.1195238E+01  0.5233284E+06 -0.1399803E+01  0.7904643E+05 -0.1849532E+00  0.1619680E+07  0.1741743E+01
  0.1226190E+01  0.5328790E+06 -0.1382678E+01  0.7279242E+05 -0.1998343E+00  0.1632508E+07  0.1758836E+01
  0.1257143E+01  0.5407657E+06 -0.1365202E+01  0.6690945E+05 -0.2157810E+00  0.1639601E+07  0.1776280E+01
  0.1288095E+01  0.5468883E+06 -0.1347600E+01  0.6136854E+05 -0.2325339E+00  0.1640732E+07  0.1793887E+01
  0.1319048E+01  0.5504552E+06 -0.1330189E+01  0.5614396E+05 -0.2507953E+00  0.1633155E+07  0.1811247E+01
  0.1350000E+01  0.5520911E+06 -0.1313022E+01  0.5124757E+05 -0.2703997E+00  0.1619895E+07  0.1828413E+01
  0.1380952E+01  0.5517822E+06 -0.1296521E+01  0.4664564E+05 -0.2918742E+00  0.1600462E+07  0.1844873E+01
  0.1411905E+01  0.5489446E+06 -0.1280939E+01  0.4244909E+05 -0.3117955E+00  0.1573593E+07  0.1860364E+01
  0.1442857E+01  0.5449424E+06 -0.1266545E+01  0.3855256E+05 -0.3326830E+00  0.1542770E+07  0.1874692E+01
  0.1473810E+01  0.5391957E+06 -0.1253383E+01  0.3495604E+05 -0.3543227E+00  0.1507573E+07  0.1887848E+01
  0.1504762E+01  0.5315471E+06 -0.1241843E+01  0.3162189E+05 -0.3774578E+00  0.1466961E+07  0.1899340E+01
  0.1535714E+01  0.5222509E+06 -0.1232185E+01  0.2852615E+05 -0.4029288E+00  0.1421780E+07  0.1908849E+01
  0.1566667E+01  0.5120140E+06 -0.1224207E+01  0.2570334E+05 -0.4287198E+00  0.1375201E+07  0.1916836E+01
  0.1597619E+01  0.5006906E+06 -0.1218344E+01  0.2309623E+05 -0.4572090E+00  0.1325997E+07  0.1922589E+01
  0.1628572E+01  0.4884190E+06 -0.1214665E+01  0.2070762E+05 -0.4840168E+00  0.1274569E+07  0.1926050E+01
  0.1659524E+01  0.4756348E+06 -0.1212947E+01  0.1854074E+05 -0.5116247E+00  0.1223079E+07  0.1927661E+01
  0.1690476E+01  0.4624742E+06 -0.1213242E+01  0.1657838E+05 -0.5392603E+00  0.1171940E+07  0.1927404E+01
  0.1721429E+01  0.4487005E+06 -0.1215911E+01  0.1478849E+05 -0.5679821E+00  0.1119887E+07  0.1924738E+01
  0.1752381E+01  0.4346199E+06 -0.1221048E+01  0.1315677E+05 -0.6004997E+00  0.1067646E+07  0.1919281E+01
  0.1783333E+01  0.4204824E+06 -0.1228277E+01  0.1167916E+05 -0.6349249E+00  0.1016455E+07  0.1911868E+01
  0.1814286E+01  0.4064559E+06 -0.1237389E+01  0.1035256E+05 -0.6685535E+00  0.9670294E+06  0.1902883E+01
  0.1845238E+01  0.3925332E+06 -0.1248790E+01  0.9153687E+04 -0.7065183E+00  0.9186181E+06  0.1891338E+01
  0.1876190E+01  0.3787718E+06 -0.1262370E+01  0.8061866E+04 -0.7461331E+00  0.8714362E+06  0.1877385E+01
  0.1907143E+01  0.3653332E+06 -0.1277732E+01  0.7089047E+04 -0.7861640E+00  0.8263371E+06  0.1861924E+01
  0.1938095E+01  0.3522655E+06 -0.1294814E+01  0.6223673E+04 -0.8243597E+00  0.7833632E+06  0.1845000E+01
  0.1969048E+01  0.3393883E+06 -0.1313891E+01  0.5446847E+04 -0.8628492E+00  0.7417897E+06  0.1826163E+01
  0.2000000E+01  0.3268630E+06 -0.1334896E+01  0.4756994E+04 -0.9098921E+00  0.7018806E+06  0.1805182E+01
