VARIABLES="w (rad/s)"
"abs(F   1   1)" "angle(F   1   1)"
"abs(F   1   2)" "angle(F   1   2)"
"abs(F   1   3)" "angle(F   1   3)"
Zone t="Diffraction force - beta =   0.000 deg",I=    64,F=POINT
  0.5000000E-01  0.2717966E+04 -0.1570794E+01  0.2831406E+03 -0.3100375E+01  0.4791203E+04  0.1570799E+01
  0.8095238E-01  0.4452940E+04 -0.1570790E+01  0.7321320E+03 -0.3098871E+01  0.7854166E+04  0.1570802E+01
  0.1119048E+00  0.6227126E+04 -0.1570783E+01  0.1391538E+04 -0.3097209E+01  0.1097586E+05  0.1570809E+01
  0.1428571E+00  0.8068781E+04 -0.1570773E+01  0.2257046E+04 -0.3095006E+01  0.1422273E+05  0.1570818E+01
  0.1738095E+00  0.9995866E+04 -0.1570759E+01  0.3330630E+04 -0.3092248E+01  0.1759769E+05  0.1570832E+01
  0.2047619E+00  0.1202152E+05 -0.1570738E+01  0.4620093E+04 -0.3088848E+01  0.2117061E+05  0.1570852E+01
  0.2357143E+00  0.1420447E+05 -0.1570707E+01  0.6113249E+04 -0.3084448E+01  0.2498793E+05  0.1570881E+01
  0.2666667E+00  0.1654138E+05 -0.1570661E+01  0.7822840E+04 -0.3079187E+01  0.2909789E+05  0.1570924E+01
  0.2976190E+00  0.1908670E+05 -0.1570594E+01  0.9740141E+04 -0.3072500E+01  0.3358532E+05  0.1570987E+01
  0.3285715E+00  0.2192975E+05 -0.1570494E+01  0.1186978E+05 -0.3064576E+01  0.3850708E+05  0.1571081E+01
  0.3595238E+00  0.2503996E+05 -0.1570343E+01  0.1418573E+05 -0.3054840E+01  0.4394704E+05  0.1571223E+01
  0.3904762E+00  0.2849220E+05 -0.1570119E+01  0.1671696E+05 -0.3043517E+01  0.4997054E+05  0.1571435E+01
  0.4214286E+00  0.3234906E+05 -0.1569789E+01  0.1935989E+05 -0.3030608E+01  0.5671689E+05  0.1571746E+01
  0.4523810E+00  0.3666037E+05 -0.1569306E+01  0.2222891E+05 -0.3016071E+01  0.6415141E+05  0.1572202E+01
  0.4833333E+00  0.4141715E+05 -0.1568635E+01  0.2508843E+05 -0.3000908E+01  0.7242202E+05  0.1572836E+01
  0.5142857E+00  0.4656337E+05 -0.1567701E+01  0.2811045E+05 -0.2984951E+01  0.8141646E+05  0.1573718E+01
  0.5452381E+00  0.5223663E+05 -0.1566456E+01  0.3114995E+05 -0.2968911E+01  0.9120150E+05  0.1574895E+01
  0.5761905E+00  0.5829302E+05 -0.1564833E+01  0.3419928E+05 -0.2953139E+01  0.1015577E+06  0.1576433E+01
  0.6071429E+00  0.6476357E+05 -0.1562731E+01  0.3738255E+05 -0.2937691E+01  0.1126859E+06  0.1578423E+01
  0.6380953E+00  0.7169505E+05 -0.1560110E+01  0.4040226E+05 -0.2922345E+01  0.1246459E+06  0.1580905E+01
  0.6690477E+00  0.7890202E+05 -0.1556837E+01  0.4345882E+05 -0.2907564E+01  0.1370554E+06  0.1584004E+01
  0.7000000E+00  0.8665276E+05 -0.1552813E+01  0.4659595E+05 -0.2893573E+01  0.1501190E+06  0.1587830E+01
  0.7309524E+00  0.9492746E+05 -0.1547957E+01  0.4950730E+05 -0.2879102E+01  0.1641062E+06  0.1592449E+01
  0.7619048E+00  0.1034613E+06 -0.1542100E+01  0.5238380E+05 -0.2865185E+01  0.1784862E+06  0.1598023E+01
  0.7928572E+00  0.1124324E+06 -0.1535127E+01  0.5527953E+05 -0.2852224E+01  0.1937546E+06  0.1604651E+01
  0.8238096E+00  0.1218336E+06 -0.1526906E+01  0.5805581E+05 -0.2839614E+01  0.2095031E+06  0.1612487E+01
  0.8547620E+00  0.1317560E+06 -0.1517316E+01  0.6059131E+05 -0.2826429E+01  0.2262197E+06  0.1621623E+01
  0.8857143E+00  0.1421026E+06 -0.1506182E+01  0.6305413E+05 -0.2813986E+01  0.2430930E+06  0.1632287E+01
  0.9166667E+00  0.1529119E+06 -0.1493363E+01  0.6552499E+05 -0.2802870E+01  0.2610012E+06  0.1644544E+01
  0.9476191E+00  0.1641109E+06 -0.1478726E+01  0.6780640E+05 -0.2792035E+01  0.2792106E+06  0.1658583E+01
  0.9785714E+00  0.1757601E+06 -0.1462131E+01  0.6975970E+05 -0.2780240E+01  0.2983712E+06  0.1674477E+01
  0.1009524E+01  0.1874775E+06 -0.1443377E+01  0.7160773E+05 -0.2769260E+01  0.3174370E+06  0.1692464E+01
  0.1040476E+01  0.1995307E+06 -0.1422402E+01  0.7338502E+05 -0.2759154E+01  0.3371956E+06  0.1712555E+01
  0.1071429E+01  0.2117351E+06 -0.1399102E+01  0.7508712E+05 -0.2750233E+01  0.3567623E+06  0.1734939E+01
  0.1102381E+01  0.2244172E+06 -0.1373509E+01  0.7644263E+05 -0.2740688E+01  0.3764782E+06  0.1759636E+01
  0.1133333E+01  0.2371123E+06 -0.1345406E+01  0.7756618E+05 -0.2730792E+01  0.3964043E+06  0.1786712E+01
  0.1164286E+01  0.2493468E+06 -0.1314681E+01  0.7855893E+05 -0.2721661E+01  0.4153391E+06  0.1816351E+01
  0.1195238E+01  0.2613354E+06 -0.1281472E+01  0.7944740E+05 -0.2713119E+01  0.4339578E+06  0.1848342E+01
  0.1226190E+01  0.2727033E+06 -0.1245780E+01  0.8025046E+05 -0.2705559E+01  0.4513672E+06  0.1882735E+01
  0.1257143E+01  0.2829728E+06 -0.1207775E+01  0.8086272E+05 -0.2698214E+01  0.4666273E+06  0.1919374E+01
  0.1288095E+01  0.2933038E+06 -0.1167976E+01  0.8105471E+05 -0.2689784E+01  0.4819838E+06  0.1957724E+01
  0.1319048E+01  0.3018620E+06 -0.1126080E+01  0.8115355E+05 -0.2681569E+01  0.4945496E+06  0.1997973E+01
  0.1350000E+01  0.3089539E+06 -0.1082724E+01  0.8109984E+05 -0.2673851E+01  0.5040184E+06  0.2039737E+01
  0.1380952E+01  0.3150808E+06 -0.1038242E+01  0.8094449E+05 -0.2666616E+01  0.5118291E+06  0.2082552E+01
  0.1411905E+01  0.3189691E+06 -0.9924439E+00  0.8069804E+05 -0.2659998E+01  0.5162246E+06  0.2126415E+01
  0.1442857E+01  0.3216116E+06 -0.9465206E+00  0.8037723E+05 -0.2654087E+01  0.5179095E+06  0.2170582E+01
  0.1473810E+01  0.3227391E+06 -0.9005970E+00  0.7958738E+05 -0.2646434E+01  0.5173621E+06  0.2214553E+01
  0.1504762E+01  0.3219858E+06 -0.8548247E+00  0.7869789E+05 -0.2638860E+01  0.5140702E+06  0.2258171E+01
  0.1535714E+01  0.3193105E+06 -0.8097485E+00  0.7770417E+05 -0.2631488E+01  0.5074598E+06  0.2301027E+01
  0.1566667E+01  0.3148225E+06 -0.7655384E+00  0.7660161E+05 -0.2624098E+01  0.4977074E+06  0.2342999E+01
  0.1597619E+01  0.3092661E+06 -0.7226994E+00  0.7539460E+05 -0.2616756E+01  0.4866972E+06  0.2383364E+01
  0.1628572E+01  0.3022008E+06 -0.6812901E+00  0.7410855E+05 -0.2609769E+01  0.4731634E+06  0.2422263E+01
  0.1659524E+01  0.2938334E+06 -0.6415679E+00  0.7275763E+05 -0.2603223E+01  0.4574018E+06  0.2459445E+01
  0.1690476E+01  0.2845220E+06 -0.6034347E+00  0.7107691E+05 -0.2595468E+01  0.4403673E+06  0.2494790E+01
  0.1721429E+01  0.2744146E+06 -0.5670191E+00  0.6921985E+05 -0.2586922E+01  0.4225145E+06  0.2528150E+01
  0.1752381E+01  0.2632690E+06 -0.5323864E+00  0.6728829E+05 -0.2578784E+01  0.4031593E+06  0.2559549E+01
  0.1783333E+01  0.2513891E+06 -0.4997082E+00  0.6526878E+05 -0.2571047E+01  0.3825194E+06  0.2588881E+01
  0.1814286E+01  0.2390526E+06 -0.4685828E+00  0.6314757E+05 -0.2563245E+01  0.3614314E+06  0.2616381E+01
  0.1845238E+01  0.2264762E+06 -0.4385056E+00  0.6095479E+05 -0.2555676E+01  0.3406445E+06  0.2642326E+01
  0.1876190E+01  0.2135628E+06 -0.4101269E+00  0.5870698E+05 -0.2548961E+01  0.3194107E+06  0.2666258E+01
  0.1907143E+01  0.2003363E+06 -0.3835201E+00  0.5641486E+05 -0.2543466E+01  0.2976704E+06  0.2688045E+01
  0.1938095E+01  0.1870496E+06 -0.3583455E+00  0.5398803E+05 -0.2539077E+01  0.2760771E+06  0.2707851E+01
  0.1969048E+01  0.1738259E+06 -0.3344515E+00  0.5143639E+05 -0.2535218E+01  0.2549180E+06  0.2725578E+01
  0.2000000E+01  0.1604928E+06 -0.3112754E+00  0.4893201E+05 -0.2532850E+01  0.2340133E+06  0.2741941E+01
