VARIABLES="w (rad/s)"
"A   1   1" "B   1   1"
"A   1   2" "B   1   2"
"A   1   3" "B   1   3"
Zone t="Motion of body    1 in DoF   1",I=    64,F=POINT
  0.5000000E-01  0.1309048E+05  0.2530739E-03 -0.1709461E-02 -0.3169345E-05  0.1439663E+03  0.3301364E-05
  0.8095238E-01  0.1312234E+05  0.1064715E-02  0.1045536E-02 -0.1214057E-05  0.1439448E+03  0.1526650E-04
  0.1119048E+00  0.1316018E+05  0.3009308E-02 -0.2548137E-02 -0.1051603E-04  0.1446560E+03  0.4231514E-04
  0.1428571E+00  0.1321066E+05  0.6782181E-02  0.1565456E-02  0.9523646E-06  0.1429766E+03  0.9457838E-04
  0.1738095E+00  0.1320204E+05  0.1352089E-01  0.1766780E-02  0.9546438E-05  0.1446185E+03  0.1910526E-03
  0.2047619E+00  0.1322843E+05  0.2502504E-01  0.7056081E-03 -0.1203955E-04  0.1437055E+03  0.3520318E-03
  0.2357143E+00  0.1326211E+05  0.4416326E-01  0.3260988E-02  0.1827895E-04  0.1454318E+03  0.6238279E-03
  0.2666667E+00  0.1324749E+05  0.7547337E-01  0.2789497E-03 -0.1796464E-04  0.1451973E+03  0.1068714E-02
  0.2976190E+00  0.1329344E+05  0.1269895E+00  0.2118072E-02 -0.9814976E-06  0.1453045E+03  0.1805451E-02
  0.3285715E+00  0.1333002E+05  0.2108245E+00  0.1085530E-02  0.1699006E-04  0.1474040E+03  0.3017858E-02
  0.3595238E+00  0.1333840E+05  0.3471207E+00 -0.1230808E-02 -0.8694403E-04  0.1478219E+03  0.4989507E-02
  0.3904762E+00  0.1334982E+05  0.5676971E+00 -0.8426061E-03 -0.7096760E-04  0.1472995E+03  0.8189614E-02
  0.4214286E+00  0.1341722E+05  0.9177992E+00  0.2265219E-02  0.7523131E-04  0.1492985E+03  0.1333092E-01
  0.4523810E+00  0.1345255E+05  0.1469626E+01 -0.1197413E-02 -0.1325046E-03  0.1508768E+03  0.2150311E-01
  0.4833333E+00  0.1346508E+05  0.2294783E+01  0.6511293E-03  0.4824484E-04  0.1517357E+03  0.3381605E-01
  0.5142857E+00  0.1352202E+05  0.3528436E+01 -0.1212756E-02 -0.1198957E-03  0.1533761E+03  0.5237760E-01
  0.5452381E+00  0.1359991E+05  0.5300892E+01  0.2948978E-02  0.3272444E-03  0.1580498E+03  0.7971303E-01
  0.5761905E+00  0.1364730E+05  0.7772358E+01  0.5164028E-03 -0.7111765E-04  0.1583173E+03  0.1175999E+00
  0.6071429E+00  0.1365793E+05  0.1117782E+02  0.4178215E-03 -0.5029514E-04  0.1572442E+03  0.1699253E+00
  0.6380953E+00  0.1372311E+05  0.1574460E+02 -0.1560325E-02 -0.3838204E-03  0.1605009E+03  0.2420818E+00
  0.6690477E+00  0.1381462E+05  0.2181629E+02 -0.6499918E-03 -0.1507625E-04  0.1632352E+03  0.3387317E+00
  0.7000000E+00  0.1389755E+05  0.2977695E+02 -0.4904611E-04 -0.1765192E-03  0.1666297E+03  0.4676197E+00
  0.7309524E+00  0.1395654E+05  0.3999981E+02  0.1385592E-02  0.1554936E-03  0.1681100E+03  0.6339856E+00
  0.7619048E+00  0.1400323E+05  0.5301983E+02  0.1557112E-02  0.2159178E-03  0.1680387E+03  0.8463315E+00
  0.7928572E+00  0.1408263E+05  0.6949099E+02  0.2708778E-02  0.8288473E-03  0.1701646E+03  0.1120227E+01
  0.8238096E+00  0.1418495E+05  0.9011497E+02  0.3623411E-02  0.6023198E-03  0.1741606E+03  0.1471343E+01
  0.8547620E+00  0.1430301E+05  0.1156877E+03  0.6917459E-03  0.1532435E-03  0.1788470E+03  0.1914616E+01
  0.8857143E+00  0.1441614E+05  0.1470836E+03  0.4005432E-03 -0.1165867E-03  0.1824083E+03  0.2463209E+01
  0.9166667E+00  0.1450711E+05  0.1852350E+03  0.3537265E-03  0.4400611E-03  0.1837694E+03  0.3131288E+01
  0.9476191E+00  0.1458331E+05  0.2312356E+03 -0.7809586E-03 -0.3678799E-03  0.1854793E+03  0.3950623E+01
  0.9785714E+00  0.1469060E+05  0.2865228E+03  0.2572832E-03 -0.8749962E-03  0.1894357E+03  0.4960044E+01
  0.1009524E+01  0.1481942E+05  0.3524793E+03  0.6839465E-03 -0.1382232E-03  0.1934356E+03  0.6177233E+01
  0.1040476E+01  0.1496222E+05  0.4306492E+03 -0.9129085E-03 -0.6698370E-03  0.1976308E+03  0.7642023E+01
  0.1071429E+01  0.1510503E+05  0.5226362E+03  0.1117961E-02  0.5555153E-03  0.2027032E+03  0.9405017E+01
  0.1102381E+01  0.1525138E+05  0.6302877E+03  0.2962116E-02  0.1519561E-02  0.2084440E+03  0.1151426E+02
  0.1133333E+01  0.1539295E+05  0.7554345E+03 -0.1474268E-02 -0.1690865E-02  0.2132890E+03  0.1399613E+02
  0.1164286E+01  0.1552117E+05  0.8999258E+03 -0.9763752E-03 -0.1164913E-02  0.2162661E+03  0.1687101E+02
  0.1195238E+01  0.1564259E+05  0.1065870E+04  0.3724573E-02  0.2546310E-02  0.2190938E+03  0.2021370E+02
  0.1226190E+01  0.1577673E+05  0.1255628E+04  0.2488812E-04 -0.2026796E-02  0.2235386E+03  0.2413084E+02
  0.1257143E+01  0.1590520E+05  0.1471123E+04  0.2627806E-02  0.9732246E-03  0.2286542E+03  0.2867288E+02
  0.1288095E+01  0.1608033E+05  0.1715815E+04  0.3938798E-03 -0.2441406E-03  0.2360972E+03  0.3398838E+02
  0.1319048E+01  0.1623993E+05  0.1990919E+04  0.7779503E-03 -0.6647110E-03  0.2421193E+03  0.4002760E+02
  0.1350000E+01  0.1639562E+05  0.2299059E+04  0.1268740E-02  0.8854866E-03  0.2483962E+03  0.4691774E+02
  0.1380952E+01  0.1654402E+05  0.2642588E+04  0.2069013E-02  0.7848740E-03  0.2542088E+03  0.5471664E+02
  0.1411905E+01  0.1660002E+05  0.3007108E+04  0.1429257E-02  0.1550674E-02  0.2543250E+03  0.6290770E+02
  0.1442857E+01  0.1670971E+05  0.3424019E+04  0.1538720E-02  0.5278587E-03  0.2591673E+03  0.7272427E+02
  0.1473810E+01  0.1680558E+05  0.3881307E+04 -0.4969583E-03 -0.2315521E-02  0.2637016E+03  0.8372098E+02
  0.1504762E+01  0.1688840E+05  0.4379605E+04  0.5298324E-03  0.3747940E-03  0.2686173E+03  0.9594623E+02
  0.1535714E+01  0.1696459E+05  0.4919068E+04  0.2583348E-03 -0.8440018E-03  0.2729570E+03  0.1093654E+03
  0.1566667E+01  0.1702784E+05  0.5499679E+04  0.5843791E-04  0.2470016E-03  0.2773978E+03  0.1240473E+03
  0.1597619E+01  0.1707706E+05  0.6121256E+04  0.4536704E-03  0.2651215E-03  0.2814619E+03  0.1400589E+03
  0.1628572E+01  0.1710707E+05  0.6783205E+04  0.8619877E-03  0.5283356E-03  0.2856080E+03  0.1576629E+03
  0.1659524E+01  0.1711132E+05  0.7483634E+04 -0.1126348E-02 -0.1588821E-02  0.2894331E+03  0.1768026E+03
  0.1690476E+01  0.1709350E+05  0.8221085E+04 -0.1232093E-02  0.1209259E-02  0.2929864E+03  0.1974861E+03
  0.1721429E+01  0.1705129E+05  0.8992649E+04  0.3722891E-03  0.1152039E-02  0.2964288E+03  0.2197076E+03
  0.1752381E+01  0.1698428E+05  0.9792604E+04  0.1845982E-02 -0.4367828E-03  0.2986925E+03  0.2431019E+03
  0.1783333E+01  0.1689204E+05  0.1061630E+05  0.3764785E-03 -0.1462936E-02  0.3000478E+03  0.2677106E+03
  0.1814286E+01  0.1676895E+05  0.1145847E+05  0.4247230E-03  0.9574890E-03  0.3000119E+03  0.2931935E+03
  0.1845238E+01  0.1662236E+05  0.1231504E+05  0.2580015E-02  0.3805161E-02  0.2995104E+03  0.3198705E+03
  0.1876190E+01  0.1644877E+05  0.1318088E+05  0.3985100E-03  0.4920959E-03  0.2984654E+03  0.3478557E+03
  0.1907143E+01  0.1624553E+05  0.1405016E+05  0.7080764E-03 -0.8621216E-03  0.2969964E+03  0.3770677E+03
  0.1938095E+01  0.1601963E+05  0.1491662E+05 -0.1531315E-02  0.3051758E-02  0.2949890E+03  0.4069712E+03
  0.1969048E+01  0.1577339E+05  0.1577329E+05 -0.6044473E-03 -0.2864838E-02  0.2925649E+03  0.4377153E+03
  0.2000000E+01  0.1550613E+05  0.1661385E+05  0.3089905E-03  0.3643036E-02  0.2893373E+03  0.4687709E+03
Zone t="Motion of body    1 in DoF   2",I=    64,F=POINT
  0.5000000E-01 -0.4506111E-03 -0.1229346E-05  0.2233124E+05  0.3614238E+02  0.1144409E-03 -0.3688037E-06
  0.8095238E-01 -0.7451281E-03 -0.1341105E-05  0.2218181E+05  0.6002015E+02  0.1943813E-03  0.3948808E-06
  0.1119048E+00  0.3317265E-02 -0.9231269E-05  0.2212609E+05  0.8614663E+02  0.2854936E-03 -0.1072884E-05
  0.1428571E+00  0.4088879E-02  0.4932284E-05  0.2210762E+05  0.1155786E+03  0.1635551E-03  0.2712011E-05
  0.1738095E+00 -0.1245525E-02 -0.1126528E-04  0.2211834E+05  0.1496839E+03 -0.5212548E-04  0.1624227E-05
  0.2047619E+00  0.1630118E-03 -0.1609325E-04  0.2216167E+05  0.1901221E+03  0.2328740E-04 -0.5662441E-06
  0.2357143E+00 -0.3390457E-02 -0.2980232E-06  0.2222882E+05  0.2393015E+03  0.1982486E-03 -0.4768372E-06
  0.2666667E+00  0.1963377E-02 -0.3814697E-05  0.2231970E+05  0.2994412E+03  0.3540516E-03  0.1519918E-05
  0.2976190E+00  0.5831909E-03  0.3746152E-04  0.2242827E+05  0.3749588E+03 -0.1666260E-03 -0.6675720E-05
  0.3285715E+00 -0.2612238E-04  0.2384186E-04  0.2254818E+05  0.4688595E+03 -0.1799542E-03  0.1490116E-05
  0.3595238E+00  0.2090252E-02  0.2890825E-04  0.2267266E+05  0.5866978E+03 -0.5305208E-04  0.7152557E-05
  0.3904762E+00  0.5031213E-03  0.1152158E-03  0.2280087E+05  0.7335275E+03  0.2051563E-03 -0.0000000E+00
  0.4214286E+00  0.1414347E-02  0.5304813E-04  0.2290104E+05  0.9089736E+03 -0.4073320E-04  0.2384186E-06
  0.4523810E+00  0.1132061E-02 -0.3337860E-05  0.2298195E+05  0.1122541E+04  0.5481117E-04 -0.2741814E-05
  0.4833333E+00 -0.7300541E-03  0.9369850E-04  0.2302928E+05  0.1359742E+04 -0.1617958E-03 -0.7867813E-05
  0.5142857E+00 -0.1424154E-02 -0.3204346E-03  0.2303630E+05  0.1631391E+04  0.3708734E-05 -0.2145767E-05
  0.5452381E+00  0.7206280E-03 -0.1716614E-04  0.2301168E+05  0.1925956E+04 -0.2133898E-03 -0.7152557E-05
  0.5761905E+00 -0.2552221E-02 -0.3149509E-03  0.2295546E+05  0.2239562E+04  0.8606713E-04  0.4291534E-05
  0.6071429E+00  0.4586612E-03  0.8084774E-03  0.2286317E+05  0.2579217E+04 -0.1130945E-03  0.7867813E-05
  0.6380953E+00 -0.1745651E-02 -0.1144409E-04  0.2276576E+05  0.2929318E+04 -0.1434782E-03 -0.5245209E-05
  0.6690477E+00  0.3620568E-02  0.6489754E-03  0.2263791E+05  0.3297372E+04  0.1339895E-03 -0.2098083E-04
  0.7000000E+00 -0.1258850E-02 -0.3485680E-03  0.2247696E+05  0.3684692E+04 -0.6539481E-04  0.4720688E-04
  0.7309524E+00 -0.7802111E-03  0.1220703E-03  0.2231105E+05  0.4082556E+04 -0.6523504E-04 -0.2670288E-04
  0.7619048E+00 -0.5807876E-03  0.3337860E-05  0.2212774E+05  0.4493234E+04 -0.2503395E-04 -0.1478195E-04
  0.7928572E+00 -0.2886798E-03 -0.8993149E-03  0.2192137E+05  0.4915879E+04 -0.1250946E-03  0.2098083E-04
  0.8238096E+00  0.1991139E-02 -0.5211830E-03  0.2169671E+05  0.5347944E+04  0.3033015E-03 -0.1287460E-04
  0.8547620E+00  0.5846369E-03 -0.6814003E-03  0.2146128E+05  0.5786362E+04  0.6248028E-04 -0.5626678E-04
  0.8857143E+00 -0.3230187E-03  0.4825592E-03  0.2120972E+05  0.6229534E+04 -0.1550490E-03 -0.2479553E-04
  0.9166667E+00 -0.2559315E-03 -0.6828308E-03  0.2094297E+05  0.6675471E+04 -0.5826083E-04  0.4100800E-04
  0.9476191E+00 -0.1509585E-02  0.7295609E-03  0.2066281E+05  0.7122148E+04  0.9258788E-04  0.5626678E-04
  0.9785714E+00 -0.1072013E-03  0.7848740E-03  0.2037713E+05  0.7566801E+04  0.1988098E-03 -0.2002716E-04
  0.1009524E+01  0.8747713E-03  0.1621246E-04  0.2008091E+05  0.8008235E+04 -0.7935290E-04 -0.1907349E-04
  0.1040476E+01  0.2859714E-03 -0.8010864E-04  0.1977526E+05  0.8444301E+04 -0.1466520E-04 -0.1621246E-04
  0.1071429E+01  0.9808858E-03 -0.9536743E-05  0.1945878E+05  0.8873617E+04  0.2385457E-03  0.7247925E-04
  0.1102381E+01  0.2699125E-03  0.6513596E-03  0.1913966E+05  0.9293459E+04  0.5190625E-04  0.2574921E-04
  0.1133333E+01  0.1820957E-02  0.9202957E-03  0.1881853E+05  0.9701666E+04 -0.6731819E-04 -0.2288818E-04
  0.1164286E+01 -0.1978962E-02  0.5531311E-03  0.1849468E+05  0.1009775E+05  0.1310571E-03  0.7534027E-04
  0.1195238E+01  0.2272404E-02  0.1566887E-02  0.1816853E+05  0.1048000E+05  0.1180884E-03 -0.6580353E-04
  0.1226190E+01  0.6657573E-03  0.9355545E-03  0.1784140E+05  0.1084783E+05 -0.2799914E-04  0.1907349E-04
  0.1257143E+01  0.7828799E-03  0.7343292E-04  0.1751599E+05  0.1120947E+05  0.6068836E-05  0.5340576E-04
  0.1288095E+01  0.1679172E-02  0.8544922E-03  0.1719277E+05  0.1153521E+05  0.2073052E-04 -0.0000000E+00
  0.1319048E+01  0.5118855E-03 -0.2070427E-02  0.1687321E+05  0.1185230E+05 -0.8386825E-04  0.6008148E-04
  0.1350000E+01 -0.3842954E-03  0.2160072E-02  0.1655581E+05  0.1215076E+05 -0.6781684E-04  0.2231598E-03
  0.1380952E+01  0.1969568E-02 -0.2163887E-02  0.1624324E+05  0.1242858E+05 -0.1767915E-03 -0.1153946E-03
  0.1411905E+01 -0.2728827E-02  0.1210213E-02  0.1593397E+05  0.1269728E+05  0.1134760E-03 -0.4386902E-04
  0.1442857E+01 -0.1216171E-03  0.6303787E-03  0.1562975E+05  0.1293802E+05  0.1374802E-03 -0.8583069E-05
  0.1473810E+01  0.2699622E-02 -0.4491806E-03  0.1533376E+05  0.1315830E+05  0.6211978E-04 -0.4959106E-04
  0.1504762E+01 -0.2433680E-03  0.1441002E-02  0.1504621E+05  0.1335646E+05 -0.3802625E-04  0.4005432E-04
  0.1535714E+01 -0.5017658E-03  0.1118660E-02  0.1476643E+05  0.1353487E+05  0.4967977E-05 -0.5531311E-04
  0.1566667E+01 -0.9739652E-05  0.2222061E-02  0.1449431E+05  0.1369315E+05  0.6817756E-04 -0.1583099E-03
  0.1597619E+01 -0.8380964E-03  0.3484726E-02  0.1422938E+05  0.1383191E+05 -0.8118313E-04  0.4005432E-04
  0.1628572E+01 -0.2478215E-02 -0.1317024E-02  0.1397126E+05  0.1395194E+05  0.1873886E-04  0.8010864E-04
  0.1659524E+01  0.9217666E-03  0.3891945E-02  0.1372138E+05  0.1405264E+05  0.1838936E-04 -0.4768372E-04
  0.1690476E+01 -0.4174676E-03  0.1471519E-02  0.1348187E+05  0.1413410E+05 -0.6769744E-05 -0.3051758E-04
  0.1721429E+01  0.2792169E-03  0.1178741E-02  0.1325214E+05  0.1419546E+05 -0.3988812E-04  0.2136230E-03
  0.1752381E+01  0.1741492E-04 -0.6275177E-03  0.1303215E+05  0.1423744E+05 -0.3700671E-04 -0.7629395E-04
  0.1783333E+01 -0.1497358E-03  0.1468658E-03  0.1282033E+05  0.1426243E+05  0.6203340E-04  0.4043579E-03
  0.1814286E+01  0.4352359E-03 -0.1684189E-02  0.1261809E+05  0.1427007E+05  0.1324631E-03  0.1449585E-03
  0.1845238E+01  0.1883328E-02 -0.1789093E-02  0.1242424E+05  0.1426123E+05  0.8682743E-04 -0.8583069E-05
  0.1876190E+01  0.8722490E-03  0.1280785E-02  0.1223777E+05  0.1423718E+05  0.6709607E-04  0.8296967E-04
  0.1907143E+01  0.1468158E-02  0.2518654E-02  0.1205953E+05  0.1419764E+05 -0.5000540E-04 -0.7247925E-04
  0.1938095E+01  0.6790536E-03  0.6227493E-03  0.1189227E+05  0.1414286E+05  0.1200645E-03  0.1449585E-03
  0.1969048E+01 -0.6393193E-04  0.1755714E-02  0.1173484E+05  0.1407414E+05  0.3487196E-04 -0.1678467E-03
  0.2000000E+01 -0.1831055E-03 -0.9870529E-03  0.1158699E+05  0.1399079E+05  0.1907349E-05  0.4768372E-05
Zone t="Motion of body    1 in DoF   3",I=    64,F=POINT
  0.5000000E-01  0.1471237E+03  0.3486965E-05 -0.5483627E-03 -0.1206204E-05  0.1639460E+03  0.6614026E-07
  0.8095238E-01  0.1470507E+03  0.1578194E-04  0.7031595E-04 -0.5687798E-06  0.1645208E+03  0.2894168E-06
  0.1119048E+00  0.1481639E+03  0.4353534E-04 -0.1198434E-04 -0.8434377E-06  0.1661557E+03  0.4662956E-06
  0.1428571E+00  0.1459707E+03  0.9821292E-04 -0.1164079E-03 -0.1169748E-05  0.1673215E+03  0.1265668E-05
  0.1738095E+00  0.1478978E+03  0.1973248E-03  0.4492394E-04 -0.1090731E-05  0.1659705E+03  0.3048459E-05
  0.2047619E+00  0.1465456E+03  0.3648268E-03 -0.5021345E-03 -0.5895377E-05  0.1655167E+03  0.5544200E-05
  0.2357143E+00  0.1486128E+03  0.6457485E-03 -0.4834839E-03 -0.7681685E-05  0.1667274E+03  0.8609753E-05
  0.2666667E+00  0.1484244E+03  0.1107132E-02  0.3464520E-03  0.1837671E-05  0.1666545E+03  0.1517771E-04
  0.2976190E+00  0.1482155E+03  0.1872798E-02 -0.5879974E-03 -0.1511148E-04  0.1662119E+03  0.2832290E-04
  0.3285715E+00  0.1504366E+03  0.3126223E-02 -0.8224922E-03 -0.2081854E-04  0.1659931E+03  0.4567408E-04
  0.3595238E+00  0.1511116E+03  0.5170809E-02  0.1143935E-03 -0.4523563E-06  0.1666628E+03  0.7486947E-04
  0.3904762E+00  0.1502616E+03  0.8502170E-02 -0.8914528E-04 -0.1056665E-04  0.1659758E+03  0.1242941E-03
  0.4214286E+00  0.1521788E+03  0.1382586E-01 -0.6505998E-05 -0.6046557E-05  0.1658424E+03  0.1986792E-03
  0.4523810E+00  0.1540056E+03  0.2227798E-01 -0.3517929E-03 -0.2625287E-04  0.1664443E+03  0.3202926E-03
  0.4833333E+00  0.1549102E+03  0.3503106E-01 -0.3783456E-03 -0.3547844E-04  0.1660934E+03  0.5112807E-03
  0.5142857E+00  0.1566099E+03  0.5423881E-01 -0.4227957E-03 -0.4210727E-04  0.1666627E+03  0.8023727E-03
  0.5452381E+00  0.1616102E+03  0.8210009E-01  0.3244575E-03  0.2895453E-04  0.1667183E+03  0.1233291E-02
  0.5761905E+00  0.1617796E+03  0.1214009E+00  0.3844056E-03  0.1744647E-04  0.1667570E+03  0.1829251E-02
  0.6071429E+00  0.1605876E+03  0.1760465E+00 -0.3188638E-03 -0.6450556E-04  0.1669557E+03  0.2670478E-02
  0.6380953E+00  0.1639009E+03  0.2500965E+00 -0.4091369E-03 -0.7712503E-04  0.1664428E+03  0.3845352E-02
  0.6690477E+00  0.1667195E+03  0.3497014E+00  0.1910064E-03 -0.3784546E-05  0.1669910E+03  0.5428135E-02
  0.7000000E+00  0.1703441E+03  0.4816998E+00  0.4015650E-03  0.5783164E-04  0.1675455E+03  0.7558182E-02
  0.7309524E+00  0.1717286E+03  0.6535271E+00  0.4736064E-03  0.8829799E-04  0.1669109E+03  0.1035720E-01
  0.7619048E+00  0.1715607E+03  0.8756341E+00  0.9950995E-04 -0.5928567E-05  0.1668389E+03  0.1399435E-01
  0.7928572E+00  0.1738027E+03  0.1159615E+01 -0.1147502E-02 -0.3216292E-03  0.1674497E+03  0.1871314E-01
  0.8238096E+00  0.1778360E+03  0.1519204E+01 -0.2723346E-03 -0.1186901E-03  0.1674324E+03  0.2482520E-01
  0.8547620E+00  0.1825573E+03  0.1971032E+01 -0.7787720E-03 -0.2896795E-03  0.1672317E+03  0.3264774E-01
  0.8857143E+00  0.1863667E+03  0.2535577E+01 -0.5615142E-03 -0.2636169E-03  0.1676839E+03  0.4245761E-01
  0.9166667E+00  0.1876960E+03  0.3232261E+01 -0.3927404E-04 -0.4824717E-04  0.1679780E+03  0.5465368E-01
  0.9476191E+00  0.1894318E+03  0.4084548E+01 -0.3929953E-03 -0.1928592E-03  0.1680026E+03  0.6979110E-01
  0.9785714E+00  0.1933740E+03  0.5120950E+01 -0.2782362E-03 -0.1438465E-03  0.1675642E+03  0.8850912E-01
  0.1009524E+01  0.1974997E+03  0.6377387E+01  0.4562792E-03  0.1159841E-03  0.1676825E+03  0.1117036E+00
  0.1040476E+01  0.2017981E+03  0.7889693E+01 -0.1466520E-03 -0.1814812E-03  0.1683479E+03  0.1399068E+00
  0.1071429E+01  0.2069545E+03  0.9694612E+01 -0.1335144E-04 -0.3888085E-04  0.1687640E+03  0.1746526E+00
  0.1102381E+01  0.2128188E+03  0.1184130E+02 -0.6341213E-03 -0.4789867E-03  0.1688391E+03  0.2163992E+00
  0.1133333E+01  0.2176180E+03  0.1438247E+02 -0.3765611E-03 -0.3430732E-03  0.1685137E+03  0.2663081E+00
  0.1164286E+01  0.2207001E+03  0.1738818E+02  0.2428651E-03  0.1073629E-04  0.1685480E+03  0.3263187E+00
  0.1195238E+01  0.2238255E+03  0.2089892E+02  0.2676937E-03  0.1083165E-03  0.1691667E+03  0.3968116E+00
  0.1226190E+01  0.2283582E+03  0.2495785E+02 -0.3418228E-03 -0.4499070E-03  0.1694738E+03  0.4790489E+00
  0.1257143E+01  0.2336254E+03  0.2962986E+02  0.6334348E-04  0.5712360E-04  0.1697036E+03  0.5771446E+00
  0.1288095E+01  0.2409917E+03  0.3500950E+02 -0.5034554E-04 -0.1163930E-03  0.1694988E+03  0.6912743E+00
  0.1319048E+01  0.2468254E+03  0.4118869E+02  0.2747408E-03  0.1267940E-03  0.1694194E+03  0.8253478E+00
  0.1350000E+01  0.2533597E+03  0.4826173E+02  0.9077566E-04  0.4018843E-04  0.1698819E+03  0.9851437E+00
  0.1380952E+01  0.2594974E+03  0.5630615E+02 -0.2465413E-03 -0.5027875E-03  0.1707047E+03  0.1167324E+01
  0.1411905E+01  0.2481077E+03  0.6254620E+02  0.6788295E-04  0.2013147E-04  0.1699369E+03  0.1311188E+01
  0.1442857E+01  0.2528177E+03  0.7235269E+02 -0.1464032E-03 -0.3760010E-03  0.1701518E+03  0.1541610E+01
  0.1473810E+01  0.2572661E+03  0.8340784E+02  0.1093567E-03  0.2238303E-03  0.1698826E+03  0.1804426E+01
  0.1504762E+01  0.2620978E+03  0.9559406E+02 -0.4030783E-03 -0.5609244E-03  0.1697452E+03  0.2093233E+01
  0.1535714E+01  0.2664023E+03  0.1091178E+03  0.1248204E-03  0.1281798E-03  0.1697663E+03  0.2420779E+01
  0.1566667E+01  0.2712812E+03  0.1239861E+03  0.2495786E-04 -0.2886206E-03  0.1702775E+03  0.2782498E+01
  0.1597619E+01  0.2755613E+03  0.1401826E+03  0.1190885E-03  0.5519390E-04  0.1710011E+03  0.3213503E+01
  0.1628572E+01  0.2796209E+03  0.1578614E+03 -0.8871681E-04 -0.7254183E-03  0.1713336E+03  0.3673889E+01
  0.1659524E+01  0.2832709E+03  0.1769654E+03 -0.5545541E-04 -0.2133846E-04  0.1717000E+03  0.4189287E+01
  0.1690476E+01  0.2867468E+03  0.1975969E+03 -0.4341098E-03 -0.1278400E-02  0.1717991E+03  0.4763091E+01
  0.1721429E+01  0.2902087E+03  0.2196691E+03 -0.2047036E-03 -0.8879006E-03  0.1717042E+03  0.5344593E+01
  0.1752381E+01  0.2923755E+03  0.2430320E+03 -0.5605428E-04 -0.3639162E-03  0.1716412E+03  0.6005625E+01
  0.1783333E+01  0.2938981E+03  0.2678906E+03  0.1219277E-03  0.1812279E-03  0.1717990E+03  0.6691776E+01
  0.1814286E+01  0.2943247E+03  0.2941467E+03  0.3040869E-03  0.7644892E-03  0.1722391E+03  0.7479845E+01
  0.1845238E+01  0.2938307E+03  0.3212809E+03  0.1491054E-03  0.4105568E-03  0.1729085E+03  0.8388521E+01
  0.1876190E+01  0.2926514E+03  0.3496626E+03 -0.5591340E-04 -0.4833341E-03  0.1731370E+03  0.9287987E+01
  0.1907143E+01  0.2908754E+03  0.3788339E+03  0.2800302E-03  0.3457069E-03  0.1733536E+03  0.1025857E+02
  0.1938095E+01  0.2886846E+03  0.4085601E+03  0.1771444E-03  0.2366900E-03  0.1734433E+03  0.1121804E+02
  0.1969048E+01  0.2860434E+03  0.4390565E+03  0.2673517E-03  0.6681681E-03  0.1730040E+03  0.1219522E+02
  0.2000000E+01  0.2825596E+03  0.4697578E+03 -0.3910065E-04 -0.6776452E-03  0.1726983E+03  0.1310913E+02
