VARIABLES="w (rad/s)"
"abs(F   1   1)" "angle(F   1   1)"
"abs(F   1   2)" "angle(F   1   2)"
"abs(F   1   3)" "angle(F   1   3)"
Zone t="Diffraction force - beta =   0.000 deg",I=    64,F=POINT
  0.5000000E-01  0.2956162E+04 -0.1570796E+01  0.3311641E+06 -0.2217269E-04  0.2837771E+04  0.1570787E+01
  0.8095238E-01  0.4825077E+04 -0.1570793E+01  0.3303730E+06 -0.5961205E-04  0.4629275E+04  0.1570794E+01
  0.1119048E+00  0.6743568E+04 -0.1570793E+01  0.3292125E+06 -0.1182647E-03  0.6477200E+04  0.1570796E+01
  0.1428571E+00  0.8729737E+04 -0.1570791E+01  0.3276801E+06 -0.2025781E-03  0.8391613E+04  0.1570805E+01
  0.1738095E+00  0.1078778E+05 -0.1570786E+01  0.3257789E+06 -0.3191128E-03  0.1038260E+05  0.1570807E+01
  0.2047619E+00  0.1297330E+05 -0.1570780E+01  0.3235086E+06 -0.4775526E-03  0.1249628E+05  0.1570811E+01
  0.2357143E+00  0.1528863E+05 -0.1570773E+01  0.3208600E+06 -0.6920064E-03  0.1474781E+05  0.1570819E+01
  0.2666667E+00  0.1777628E+05 -0.1570760E+01  0.3178546E+06 -0.9793268E-03  0.1717202E+05  0.1570833E+01
  0.2976190E+00  0.2049276E+05 -0.1570741E+01  0.3144666E+06 -0.1368982E-02  0.1983011E+05  0.1570850E+01
  0.3285715E+00  0.2345524E+05 -0.1570716E+01  0.3107347E+06 -0.1889541E-02  0.2273739E+05  0.1570878E+01
  0.3595238E+00  0.2670673E+05 -0.1570673E+01  0.3066220E+06 -0.2587816E-02  0.2594452E+05  0.1570918E+01
  0.3904762E+00  0.3032785E+05 -0.1570613E+01  0.3022033E+06 -0.3514704E-02  0.2951958E+05  0.1570979E+01
  0.4214286E+00  0.3434283E+05 -0.1570523E+01  0.2974305E+06 -0.4701548E-02  0.3351212E+05  0.1571069E+01
  0.4523810E+00  0.3874492E+05 -0.1570391E+01  0.2923975E+06 -0.6242003E-02  0.3790207E+05  0.1571202E+01
  0.4833333E+00  0.4352619E+05 -0.1570207E+01  0.2870796E+06 -0.8082597E-02  0.4270981E+05  0.1571386E+01
  0.5142857E+00  0.4881220E+05 -0.1569950E+01  0.2815161E+06 -0.1033539E-01  0.4799299E+05  0.1571644E+01
  0.5452381E+00  0.5444208E+05 -0.1569605E+01  0.2757673E+06 -0.1296072E-01  0.5366550E+05  0.1571987E+01
  0.5761905E+00  0.6037731E+05 -0.1569155E+01  0.2697405E+06 -0.1595533E-01  0.5971711E+05  0.1572438E+01
  0.6071429E+00  0.6664841E+05 -0.1568569E+01  0.2636474E+06 -0.1942588E-01  0.6612712E+05  0.1573024E+01
  0.6380953E+00  0.7328609E+05 -0.1567835E+01  0.2573495E+06 -0.2325348E-01  0.7290813E+05  0.1573758E+01
  0.6690477E+00  0.8021796E+05 -0.1566917E+01  0.2508206E+06 -0.2753153E-01  0.8005424E+05  0.1574677E+01
  0.7000000E+00  0.8740596E+05 -0.1565778E+01  0.2443388E+06 -0.3233365E-01  0.8750106E+05  0.1575817E+01
  0.7309524E+00  0.9475322E+05 -0.1564395E+01  0.2376998E+06 -0.3758167E-01  0.9514083E+05  0.1577202E+01
  0.7619048E+00  0.1023239E+06 -0.1562725E+01  0.2308937E+06 -0.4333575E-01  0.1031470E+06  0.1578874E+01
  0.7928572E+00  0.1102623E+06 -0.1560733E+01  0.2241133E+06 -0.4961714E-01  0.1114549E+06  0.1580866E+01
  0.8238096E+00  0.1184326E+06 -0.1558371E+01  0.2173356E+06 -0.5645415E-01  0.1200910E+06  0.1583230E+01
  0.8547620E+00  0.1267275E+06 -0.1555596E+01  0.2104770E+06 -0.6383158E-01  0.1289205E+06  0.1586009E+01
  0.8857143E+00  0.1351581E+06 -0.1552359E+01  0.2035292E+06 -0.7176013E-01  0.1379847E+06  0.1589255E+01
  0.9166667E+00  0.1437541E+06 -0.1548620E+01  0.1967165E+06 -0.8025125E-01  0.1471954E+06  0.1593006E+01
  0.9476191E+00  0.1524113E+06 -0.1544337E+01  0.1899642E+06 -0.8934649E-01  0.1566201E+06  0.1597302E+01
  0.9785714E+00  0.1611449E+06 -0.1539478E+01  0.1832171E+06 -0.9901737E-01  0.1661088E+06  0.1602170E+01
  0.1009524E+01  0.1701548E+06 -0.1534022E+01  0.1764469E+06 -0.1092795E+00  0.1759622E+06  0.1607620E+01
  0.1040476E+01  0.1791545E+06 -0.1527894E+01  0.1697414E+06 -0.1200837E+00  0.1857686E+06  0.1613765E+01
  0.1071429E+01  0.1881776E+06 -0.1521069E+01  0.1632969E+06 -0.1314961E+00  0.1956988E+06  0.1620613E+01
  0.1102381E+01  0.1970082E+06 -0.1513515E+01  0.1568963E+06 -0.1435264E+00  0.2054664E+06  0.1628211E+01
  0.1133333E+01  0.2056630E+06 -0.1505221E+01  0.1505516E+06 -0.1562033E+00  0.2151346E+06  0.1636564E+01
  0.1164286E+01  0.2141228E+06 -0.1496199E+01  0.1442385E+06 -0.1695275E+00  0.2247294E+06  0.1645655E+01
  0.1195238E+01  0.2222759E+06 -0.1486480E+01  0.1379981E+06 -0.1834337E+00  0.2339163E+06  0.1655447E+01
  0.1226190E+01  0.2302245E+06 -0.1476148E+01  0.1321373E+06 -0.1977745E+00  0.2428583E+06  0.1665834E+01
  0.1257143E+01  0.2377581E+06 -0.1465296E+01  0.1263707E+06 -0.2128519E+00  0.2513734E+06  0.1676694E+01
  0.1288095E+01  0.2449237E+06 -0.1453945E+01  0.1207026E+06 -0.2282746E+00  0.2593591E+06  0.1688097E+01
  0.1319048E+01  0.2514836E+06 -0.1442081E+01  0.1151192E+06 -0.2445896E+00  0.2669877E+06  0.1700082E+01
  0.1350000E+01  0.2573733E+06 -0.1429892E+01  0.1096089E+06 -0.2615874E+00  0.2738676E+06  0.1712402E+01
  0.1380952E+01  0.2625559E+06 -0.1417510E+01  0.1042169E+06 -0.2792020E+00  0.2798961E+06  0.1724940E+01
  0.1411905E+01  0.2668990E+06 -0.1405103E+01  0.9924438E+05 -0.2968455E+00  0.2849967E+06  0.1737473E+01
  0.1442857E+01  0.2705932E+06 -0.1393045E+01  0.9436818E+05 -0.3151501E+00  0.2894031E+06  0.1749637E+01
  0.1473810E+01  0.2733952E+06 -0.1381408E+01  0.8961871E+05 -0.3338896E+00  0.2926457E+06  0.1761351E+01
  0.1504762E+01  0.2753172E+06 -0.1370246E+01  0.8497909E+05 -0.3534744E+00  0.2950357E+06  0.1772734E+01
  0.1535714E+01  0.2764035E+06 -0.1359789E+01  0.8044310E+05 -0.3739202E+00  0.2966647E+06  0.1783497E+01
  0.1566667E+01  0.2764862E+06 -0.1350377E+01  0.7601350E+05 -0.3950358E+00  0.2969729E+06  0.1793163E+01
  0.1597619E+01  0.2757567E+06 -0.1342183E+01  0.7174859E+05 -0.4165514E+00  0.2962758E+06  0.1801557E+01
  0.1628572E+01  0.2743312E+06 -0.1335449E+01  0.6781121E+05 -0.4369861E+00  0.2946538E+06  0.1808349E+01
  0.1659524E+01  0.2720485E+06 -0.1330172E+01  0.6397385E+05 -0.4583784E+00  0.2922525E+06  0.1813913E+01
  0.1690476E+01  0.2689721E+06 -0.1326624E+01  0.6024920E+05 -0.4802842E+00  0.2888474E+06  0.1817732E+01
  0.1721429E+01  0.2651443E+06 -0.1324991E+01  0.5663975E+05 -0.5028058E+00  0.2844716E+06  0.1819559E+01
  0.1752381E+01  0.2608153E+06 -0.1325224E+01  0.5314795E+05 -0.5263685E+00  0.2797324E+06  0.1819715E+01
  0.1783333E+01  0.2559798E+06 -0.1327560E+01  0.4975151E+05 -0.5510955E+00  0.2743923E+06  0.1817765E+01
  0.1814286E+01  0.2505737E+06 -0.1332166E+01  0.4646010E+05 -0.5771002E+00  0.2682565E+06  0.1813476E+01
  0.1845238E+01  0.2447940E+06 -0.1339027E+01  0.4330661E+05 -0.6032700E+00  0.2616112E+06  0.1806840E+01
  0.1876190E+01  0.2387353E+06 -0.1348260E+01  0.4036026E+05 -0.6277528E+00  0.2544916E+06  0.1797521E+01
  0.1907143E+01  0.2324198E+06 -0.1359815E+01  0.3750662E+05 -0.6541454E+00  0.2471950E+06  0.1786078E+01
  0.1938095E+01  0.2258428E+06 -0.1373880E+01  0.3476109E+05 -0.6826469E+00  0.2395524E+06  0.1772072E+01
  0.1969048E+01  0.2190211E+06 -0.1390637E+01  0.3214276E+05 -0.7134554E+00  0.2315184E+06  0.1755146E+01
  0.2000000E+01  0.2121214E+06 -0.1409970E+01  0.2966628E+05 -0.7464846E+00  0.2234358E+06  0.1735697E+01
