VARIABLES="w (rad/s)"
"abs(F   1   1)" "angle(F   1   1)"
"abs(F   1   2)" "angle(F   1   2)"
"abs(F   1   3)" "angle(F   1   3)"
Zone t="Diffraction force - beta =   0.000 deg",I=    64,F=POINT
  0.5000000E-01  0.2605111E+04 -0.1570792E+01  0.9230045E+05 -0.6505374E-05  0.1132361E+05  0.1570800E+01
  0.8095238E-01  0.4252715E+04 -0.1570802E+01  0.9192659E+05 -0.1746306E-04  0.1845629E+05  0.1570808E+01
  0.1119048E+00  0.5930231E+04 -0.1570789E+01  0.9137717E+05 -0.3456365E-04  0.2570288E+05  0.1570806E+01
  0.1428571E+00  0.7655448E+04 -0.1570792E+01  0.9065327E+05 -0.5903414E-04  0.3313805E+05  0.1570812E+01
  0.1738095E+00  0.9441058E+04 -0.1570786E+01  0.8975648E+05 -0.9259526E-04  0.4080631E+05  0.1570802E+01
  0.2047619E+00  0.1130829E+05 -0.1570785E+01  0.8868910E+05 -0.1379923E-03  0.4879931E+05  0.1570816E+01
  0.2357143E+00  0.1327843E+05 -0.1570771E+01  0.8745434E+05 -0.1989602E-03  0.5719435E+05  0.1570818E+01
  0.2666667E+00  0.1537159E+05 -0.1570764E+01  0.8605538E+05 -0.2797346E-03  0.6606438E+05  0.1570824E+01
  0.2976190E+00  0.1762870E+05 -0.1570749E+01  0.8449950E+05 -0.3886167E-03  0.7556717E+05  0.1570844E+01
  0.3285715E+00  0.2005816E+05 -0.1570726E+01  0.8279142E+05 -0.5322095E-03  0.8575780E+05  0.1570866E+01
  0.3595238E+00  0.2271718E+05 -0.1570693E+01  0.8094359E+05 -0.7231975E-03  0.9680908E+05  0.1570902E+01
  0.3904762E+00  0.2560607E+05 -0.1570644E+01  0.7896427E+05 -0.9741799E-03  0.1087750E+06  0.1570949E+01
  0.4214286E+00  0.2878156E+05 -0.1570571E+01  0.7687034E+05 -0.1291030E-02  0.1217953E+06  0.1571021E+01
  0.4523810E+00  0.3221471E+05 -0.1570467E+01  0.7467507E+05 -0.1701374E-02  0.1358014E+06  0.1571126E+01
  0.4833333E+00  0.3592989E+05 -0.1570322E+01  0.7239323E+05 -0.2182324E-02  0.1508061E+06  0.1571268E+01
  0.5142857E+00  0.3990608E+05 -0.1570125E+01  0.7004394E+05 -0.2769059E-02  0.1667250E+06  0.1571470E+01
  0.5452381E+00  0.4408843E+05 -0.1569866E+01  0.6763188E+05 -0.3445246E-02  0.1833444E+06  0.1571728E+01
  0.5761905E+00  0.4848839E+05 -0.1569532E+01  0.6517897E+05 -0.4207143E-02  0.2005442E+06  0.1572062E+01
  0.6071429E+00  0.5300681E+05 -0.1569104E+01  0.6269035E+05 -0.5089784E-02  0.2180550E+06  0.1572488E+01
  0.6380953E+00  0.5765504E+05 -0.1568580E+01  0.6016853E+05 -0.6055994E-02  0.2358336E+06  0.1573013E+01
  0.6690477E+00  0.6244259E+05 -0.1567937E+01  0.5764257E+05 -0.7127317E-02  0.2538278E+06  0.1573655E+01
  0.7000000E+00  0.6725218E+05 -0.1567156E+01  0.5510792E+05 -0.8332184E-02  0.2716628E+06  0.1574436E+01
  0.7309524E+00  0.7212358E+05 -0.1566226E+01  0.5256990E+05 -0.9654811E-02  0.2894033E+06  0.1575366E+01
  0.7619048E+00  0.7709015E+05 -0.1565126E+01  0.5005378E+05 -0.1109347E-01  0.3070369E+06  0.1576466E+01
  0.7928572E+00  0.8202412E+05 -0.1563836E+01  0.4756074E+05 -0.1267738E-01  0.3243207E+06  0.1577757E+01
  0.8238096E+00  0.8695809E+05 -0.1562335E+01  0.4509438E+05 -0.1442234E-01  0.3412364E+06  0.1579256E+01
  0.8547620E+00  0.9188784E+05 -0.1560608E+01  0.4266194E+05 -0.1633763E-01  0.3576999E+06  0.1580983E+01
  0.8857143E+00  0.9685636E+05 -0.1558635E+01  0.4028930E+05 -0.1836390E-01  0.3737748E+06  0.1582957E+01
  0.9166667E+00  0.1017163E+06 -0.1556394E+01  0.3796581E+05 -0.2058660E-01  0.3891081E+06  0.1585196E+01
  0.9476191E+00  0.1065205E+06 -0.1553867E+01  0.3569921E+05 -0.2302311E-01  0.4038031E+06  0.1587723E+01
  0.9785714E+00  0.1112634E+06 -0.1551034E+01  0.3349180E+05 -0.2571218E-01  0.4177872E+06  0.1590554E+01
  0.1009524E+01  0.1159966E+06 -0.1547876E+01  0.3136607E+05 -0.2848686E-01  0.4311720E+06  0.1593710E+01
  0.1040476E+01  0.1206236E+06 -0.1544373E+01  0.2931429E+05 -0.3149348E-01  0.4438550E+06  0.1597213E+01
  0.1071429E+01  0.1250638E+06 -0.1540517E+01  0.2733743E+05 -0.3477510E-01  0.4553759E+06  0.1601065E+01
  0.1102381E+01  0.1294315E+06 -0.1536286E+01  0.2543732E+05 -0.3836772E-01  0.4662009E+06  0.1605293E+01
  0.1133333E+01  0.1336411E+06 -0.1531674E+01  0.2361489E+05 -0.4234650E-01  0.4758772E+06  0.1609898E+01
  0.1164286E+01  0.1378008E+06 -0.1526657E+01  0.2188762E+05 -0.4626584E-01  0.4848053E+06  0.1614909E+01
  0.1195238E+01  0.1418003E+06 -0.1521217E+01  0.2024427E+05 -0.5051212E-01  0.4928531E+06  0.1620343E+01
  0.1226190E+01  0.1455510E+06 -0.1515364E+01  0.1868401E+05 -0.5511611E-01  0.4995855E+06  0.1626186E+01
  0.1257143E+01  0.1490720E+06 -0.1509087E+01  0.1720840E+05 -0.6011862E-01  0.5052533E+06  0.1632454E+01
  0.1288095E+01  0.1525624E+06 -0.1502316E+01  0.1581103E+05 -0.6557999E-01  0.5102289E+06  0.1639211E+01
  0.1319048E+01  0.1557954E+06 -0.1495128E+01  0.1449915E+05 -0.7137437E-01  0.5139385E+06  0.1646382E+01
  0.1350000E+01  0.1589130E+06 -0.1487490E+01  0.1327062E+05 -0.7710034E-01  0.5168242E+06  0.1653994E+01
  0.1380952E+01  0.1617632E+06 -0.1479412E+01  0.1212384E+05 -0.8314693E-01  0.5186372E+06  0.1662057E+01
  0.1411905E+01  0.1641084E+06 -0.1470879E+01  0.1105368E+05 -0.8968040E-01  0.5189015E+06  0.1670554E+01
  0.1442857E+01  0.1664111E+06 -0.1461988E+01  0.1005695E+05 -0.9656498E-01  0.5181993E+06  0.1679413E+01
  0.1473810E+01  0.1685434E+06 -0.1452623E+01  0.9129054E+04 -0.1040962E+00  0.5168402E+06  0.1688748E+01
  0.1504762E+01  0.1703323E+06 -0.1442946E+01  0.8268709E+04 -0.1122778E+00  0.5139509E+06  0.1698361E+01
  0.1535714E+01  0.1719697E+06 -0.1432835E+01  0.7475414E+04 -0.1201530E+00  0.5103912E+06  0.1708418E+01
  0.1566667E+01  0.1734446E+06 -0.1422326E+01  0.6740901E+04 -0.1287316E+00  0.5061779E+06  0.1718849E+01
  0.1597619E+01  0.1745121E+06 -0.1411466E+01  0.6073273E+04 -0.1368089E+00  0.5008806E+06  0.1729689E+01
  0.1628572E+01  0.1752454E+06 -0.1400427E+01  0.5459243E+04 -0.1456238E+00  0.4943312E+06  0.1740613E+01
  0.1659524E+01  0.1756860E+06 -0.1389144E+01  0.4897429E+04 -0.1547164E+00  0.4868806E+06  0.1751787E+01
  0.1690476E+01  0.1758892E+06 -0.1377529E+01  0.4383978E+04 -0.1645810E+00  0.4790011E+06  0.1763339E+01
  0.1721429E+01  0.1757924E+06 -0.1365937E+01  0.3913947E+04 -0.1756089E+00  0.4701010E+06  0.1774796E+01
  0.1752381E+01  0.1754324E+06 -0.1354343E+01  0.3488660E+04 -0.1864570E+00  0.4603886E+06  0.1786231E+01
  0.1783333E+01  0.1748789E+06 -0.1342648E+01  0.3100107E+04 -0.1975159E+00  0.4502864E+06  0.1797740E+01
  0.1814286E+01  0.1741388E+06 -0.1330897E+01  0.2747879E+04 -0.2101693E+00  0.4399253E+06  0.1809341E+01
  0.1845238E+01  0.1729761E+06 -0.1319309E+01  0.2435874E+04 -0.2192489E+00  0.4287701E+06  0.1820909E+01
  0.1876190E+01  0.1715233E+06 -0.1308093E+01  0.2153500E+04 -0.2297458E+00  0.4168839E+06  0.1831842E+01
  0.1907143E+01  0.1697822E+06 -0.1297239E+01  0.1898899E+04 -0.2409474E+00  0.4044287E+06  0.1842335E+01
  0.1938095E+01  0.1678559E+06 -0.1286453E+01  0.1671218E+04 -0.2518188E+00  0.3920329E+06  0.1853013E+01
  0.1969048E+01  0.1657772E+06 -0.1275960E+01  0.1466714E+04 -0.2657117E+00  0.3796685E+06  0.1863453E+01
  0.2000000E+01  0.1633962E+06 -0.1266467E+01  0.1282931E+04 -0.2806287E+00  0.3664645E+06  0.1872376E+01
