VARIABLES="w (rad/s)"
"abs(F   1   1)" "angle(F   1   1)"
"abs(F   1   2)" "angle(F   1   2)"
"abs(F   1   3)" "angle(F   1   3)"
Zone t="Diffraction force - beta =   0.000 deg",I=    64,F=POINT
  0.5000000E-01  0.4770683E+04 -0.1570784E+01  0.4444096E+06 -0.3123807E-04  0.5901201E+04  0.1570808E+01
  0.8095238E-01  0.7796762E+04 -0.1570774E+01  0.4435269E+06 -0.8402693E-04  0.9645414E+04  0.1570798E+01
  0.1119048E+00  0.1088161E+05 -0.1570791E+01  0.4422326E+06 -0.1668254E-03  0.1345079E+05  0.1570794E+01
  0.1428571E+00  0.1406220E+05 -0.1570789E+01  0.4405232E+06 -0.2859655E-03  0.1736422E+05  0.1570816E+01
  0.1738095E+00  0.1738397E+05 -0.1570780E+01  0.4383981E+06 -0.4510083E-03  0.2141820E+05  0.1570813E+01
  0.2047619E+00  0.2086816E+05 -0.1570773E+01  0.4358506E+06 -0.6757295E-03  0.2566458E+05  0.1570821E+01
  0.2357143E+00  0.2456933E+05 -0.1570759E+01  0.4328802E+06 -0.9805728E-03  0.3014850E+05  0.1570846E+01
  0.2666667E+00  0.2855000E+05 -0.1570737E+01  0.4294808E+06 -0.1390195E-02  0.3492293E+05  0.1570855E+01
  0.2976190E+00  0.3284491E+05 -0.1570699E+01  0.4256465E+06 -0.1946769E-02  0.4006623E+05  0.1570887E+01
  0.3285715E+00  0.3752737E+05 -0.1570653E+01  0.4213801E+06 -0.2692636E-02  0.4563297E+05  0.1570930E+01
  0.3595238E+00  0.4269055E+05 -0.1570595E+01  0.4166931E+06 -0.3695878E-02  0.5170238E+05  0.1571003E+01
  0.3904762E+00  0.4837326E+05 -0.1570492E+01  0.4115704E+06 -0.5031546E-02  0.5832997E+05  0.1571101E+01
  0.4214286E+00  0.5462770E+05 -0.1570345E+01  0.4060752E+06 -0.6748074E-02  0.6561417E+05  0.1571250E+01
  0.4523810E+00  0.6152733E+05 -0.1570129E+01  0.4002037E+06 -0.8977749E-02  0.7351555E+05  0.1571466E+01
  0.4833333E+00  0.6907512E+05 -0.1569828E+01  0.3940133E+06 -0.1165987E-01  0.8208864E+05  0.1571762E+01
  0.5142857E+00  0.7718782E+05 -0.1569413E+01  0.3875236E+06 -0.1494943E-01  0.9125846E+05  0.1572181E+01
  0.5452381E+00  0.8584710E+05 -0.1568859E+01  0.3807551E+06 -0.1879718E-01  0.1009383E+06  0.1572732E+01
  0.5761905E+00  0.9505394E+05 -0.1568139E+01  0.3737653E+06 -0.2321636E-01  0.1110467E+06  0.1573453E+01
  0.6071429E+00  0.1047604E+06 -0.1567208E+01  0.3665690E+06 -0.2833422E-01  0.1215688E+06  0.1574383E+01
  0.6380953E+00  0.1148780E+06 -0.1566049E+01  0.3591245E+06 -0.3403088E-01  0.1323872E+06  0.1575544E+01
  0.6690477E+00  0.1252946E+06 -0.1564608E+01  0.3515176E+06 -0.4043306E-01  0.1434751E+06  0.1576982E+01
  0.7000000E+00  0.1361105E+06 -0.1562838E+01  0.3437893E+06 -0.4762176E-01  0.1547092E+06  0.1578751E+01
  0.7309524E+00  0.1473253E+06 -0.1560707E+01  0.3359074E+06 -0.5554343E-01  0.1660290E+06  0.1580882E+01
  0.7619048E+00  0.1588114E+06 -0.1558153E+01  0.3279303E+06 -0.6427388E-01  0.1774990E+06  0.1583434E+01
  0.7928572E+00  0.1705630E+06 -0.1555124E+01  0.3198695E+06 -0.7385714E-01  0.1890182E+06  0.1586461E+01
  0.8238096E+00  0.1824885E+06 -0.1551568E+01  0.3117350E+06 -0.8432191E-01  0.2005044E+06  0.1590012E+01
  0.8547620E+00  0.1946253E+06 -0.1547440E+01  0.3035559E+06 -0.9569680E-01  0.2119073E+06  0.1594134E+01
  0.8857143E+00  0.2069046E+06 -0.1542685E+01  0.2953828E+06 -0.1080198E+00  0.2231035E+06  0.1598882E+01
  0.9166667E+00  0.2194230E+06 -0.1537260E+01  0.2872073E+06 -0.1213154E+00  0.2341604E+06  0.1604298E+01
  0.9476191E+00  0.2319585E+06 -0.1531119E+01  0.2790639E+06 -0.1356148E+00  0.2449004E+06  0.1610429E+01
  0.9785714E+00  0.2445145E+06 -0.1524226E+01  0.2709418E+06 -0.1509385E+00  0.2553229E+06  0.1617306E+01
  0.1009524E+01  0.2569619E+06 -0.1516554E+01  0.2628594E+06 -0.1673272E+00  0.2653701E+06  0.1624958E+01
  0.1040476E+01  0.2692087E+06 -0.1508084E+01  0.2548367E+06 -0.1848284E+00  0.2749503E+06  0.1633400E+01
  0.1071429E+01  0.2812511E+06 -0.1498841E+01  0.2468895E+06 -0.2034914E+00  0.2838955E+06  0.1642606E+01
  0.1102381E+01  0.2929830E+06 -0.1488839E+01  0.2390302E+06 -0.2233731E+00  0.2920821E+06  0.1652563E+01
  0.1133333E+01  0.3043918E+06 -0.1478136E+01  0.2312879E+06 -0.2445032E+00  0.2994769E+06  0.1663212E+01
  0.1164286E+01  0.3152539E+06 -0.1466761E+01  0.2236407E+06 -0.2669750E+00  0.3060632E+06  0.1674523E+01
  0.1195238E+01  0.3254568E+06 -0.1454793E+01  0.2161228E+06 -0.2908102E+00  0.3116847E+06  0.1686409E+01
  0.1226190E+01  0.3350000E+06 -0.1442352E+01  0.2086918E+06 -0.3160820E+00  0.3164146E+06  0.1698748E+01
  0.1257143E+01  0.3434973E+06 -0.1429512E+01  0.2014075E+06 -0.3430753E+00  0.3198506E+06  0.1711451E+01
  0.1288095E+01  0.3512801E+06 -0.1416627E+01  0.1941909E+06 -0.3713975E+00  0.3222808E+06  0.1724173E+01
  0.1319048E+01  0.3579434E+06 -0.1403700E+01  0.1871455E+06 -0.4017169E+00  0.3235681E+06  0.1736908E+01
  0.1350000E+01  0.3634478E+06 -0.1391017E+01  0.1802725E+06 -0.4340324E+00  0.3235239E+06  0.1749363E+01
  0.1380952E+01  0.3678369E+06 -0.1378776E+01  0.1735651E+06 -0.4684530E+00  0.3222570E+06  0.1761351E+01
  0.1411905E+01  0.3702727E+06 -0.1368392E+01  0.1671212E+06 -0.5039984E+00  0.3196272E+06  0.1771472E+01
  0.1442857E+01  0.3723549E+06 -0.1357765E+01  0.1608248E+06 -0.5430759E+00  0.3159525E+06  0.1781766E+01
  0.1473810E+01  0.3733575E+06 -0.1348223E+01  0.1547217E+06 -0.5849033E+00  0.3113363E+06  0.1790953E+01
  0.1504762E+01  0.3732494E+06 -0.1340005E+01  0.1488644E+06 -0.6296855E+00  0.3057180E+06  0.1798747E+01
  0.1535714E+01  0.3720853E+06 -0.1333206E+01  0.1432974E+06 -0.6776595E+00  0.2993809E+06  0.1805137E+01
  0.1566667E+01  0.3698035E+06 -0.1328134E+01  0.1380801E+06 -0.7289343E+00  0.2919981E+06  0.1809680E+01
  0.1597619E+01  0.3666851E+06 -0.1324854E+01  0.1332057E+06 -0.7839065E+00  0.2841215E+06  0.1812463E+01
  0.1628572E+01  0.3628112E+06 -0.1323563E+01  0.1287490E+06 -0.8426235E+00  0.2757680E+06  0.1813215E+01
  0.1659524E+01  0.3581184E+06 -0.1324350E+01  0.1247939E+06 -0.9048615E+00  0.2668608E+06  0.1811842E+01
  0.1690476E+01  0.3528601E+06 -0.1327280E+01  0.1213541E+06 -0.9706206E+00  0.2577469E+06  0.1808354E+01
  0.1721429E+01  0.3470652E+06 -0.1332492E+01  0.1185098E+06 -0.1039391E+01  0.2483337E+06  0.1802509E+01
  0.1752381E+01  0.3408833E+06 -0.1339934E+01  0.1163171E+06 -0.1110460E+01  0.2389014E+06  0.1794497E+01
  0.1783333E+01  0.3343751E+06 -0.1349598E+01  0.1148218E+06 -0.1182748E+01  0.2295258E+06  0.1784428E+01
  0.1814286E+01  0.3275378E+06 -0.1361633E+01  0.1140542E+06 -0.1254821E+01  0.2200023E+06  0.1771810E+01
  0.1845238E+01  0.3206075E+06 -0.1375862E+01  0.1139536E+06 -0.1326047E+01  0.2107624E+06  0.1757313E+01
  0.1876190E+01  0.3136172E+06 -0.1392368E+01  0.1144728E+06 -0.1394788E+01  0.2016954E+06  0.1740613E+01
  0.1907143E+01  0.3065510E+06 -0.1411103E+01  0.1155590E+06 -0.1459709E+01  0.1927978E+06  0.1721821E+01
  0.1938095E+01  0.2995231E+06 -0.1431961E+01  0.1171068E+06 -0.1520111E+01  0.1841971E+06  0.1701191E+01
  0.1969048E+01  0.2925777E+06 -0.1454953E+01  0.1189731E+06 -0.1575504E+01  0.1758584E+06  0.1678711E+01
  0.2000000E+01  0.2857454E+06 -0.1480087E+01  0.1209757E+06 -0.1625733E+01  0.1677450E+06  0.1654139E+01
