VARIABLES="w (rad/s)"
"abs(F   1   1)" "angle(F   1   1)"
"abs(F   1   2)" "angle(F   1   2)"
"abs(F   1   3)" "angle(F   1   3)"
Zone t="Diffraction force - beta =   0.000 deg",I=    64,F=POINT
  0.5000000E-01  0.5612380E+04 -0.1570802E+01  0.1984180E+06 -0.1369101E-04  0.2464905E+05  0.1570792E+01
  0.8095238E-01  0.9164356E+04 -0.1570799E+01  0.1975509E+06 -0.3674203E-04  0.4018255E+05  0.1570799E+01
  0.1119048E+00  0.1277737E+05 -0.1570796E+01  0.1962772E+06 -0.7269177E-04  0.5596600E+05  0.1570800E+01
  0.1428571E+00  0.1649269E+05 -0.1570785E+01  0.1945996E+06 -0.1240937E-03  0.7215147E+05  0.1570806E+01
  0.1738095E+00  0.2034753E+05 -0.1570780E+01  0.1925218E+06 -0.1944967E-03  0.8887517E+05  0.1570822E+01
  0.2047619E+00  0.2437300E+05 -0.1570766E+01  0.1900483E+06 -0.2896332E-03  0.1062949E+06  0.1570827E+01
  0.2357143E+00  0.2861795E+05 -0.1570755E+01  0.1871899E+06 -0.4172120E-03  0.1245883E+06  0.1570841E+01
  0.2666667E+00  0.3315094E+05 -0.1570728E+01  0.1839493E+06 -0.5859213E-03  0.1439767E+06  0.1570864E+01
  0.2976190E+00  0.3799973E+05 -0.1570697E+01  0.1803502E+06 -0.8130500E-03  0.1646462E+06  0.1570896E+01
  0.3285715E+00  0.4327425E+05 -0.1570646E+01  0.1763956E+06 -0.1111888E-02  0.1869901E+06  0.1570944E+01
  0.3595238E+00  0.4899269E+05 -0.1570573E+01  0.1721290E+06 -0.1508626E-02  0.2110663E+06  0.1571018E+01
  0.3904762E+00  0.5526436E+05 -0.1570469E+01  0.1675544E+06 -0.2029315E-02  0.2372582E+06  0.1571125E+01
  0.4214286E+00  0.6210853E+05 -0.1570312E+01  0.1627339E+06 -0.2684766E-02  0.2657151E+06  0.1571281E+01
  0.4523810E+00  0.6957885E+05 -0.1570086E+01  0.1576813E+06 -0.3533262E-02  0.2964804E+06  0.1571506E+01
  0.4833333E+00  0.7762036E+05 -0.1569778E+01  0.1524487E+06 -0.4523875E-02  0.3293393E+06  0.1571815E+01
  0.5142857E+00  0.8623219E+05 -0.1569353E+01  0.1470774E+06 -0.5732515E-02  0.3642383E+06  0.1572241E+01
  0.5452381E+00  0.9538961E+05 -0.1568794E+01  0.1415659E+06 -0.7122145E-02  0.4009761E+06  0.1572800E+01
  0.5761905E+00  0.1048942E+06 -0.1568075E+01  0.1360055E+06 -0.8683891E-02  0.4387825E+06  0.1573518E+01
  0.6071429E+00  0.1147858E+06 -0.1567158E+01  0.1303690E+06 -0.1049463E-01  0.4774264E+06  0.1574433E+01
  0.6380953E+00  0.1249737E+06 -0.1566031E+01  0.1246792E+06 -0.1246501E-01  0.5167969E+06  0.1575562E+01
  0.6690477E+00  0.1353713E+06 -0.1564649E+01  0.1190049E+06 -0.1465525E-01  0.5565284E+06  0.1576943E+01
  0.7000000E+00  0.1459514E+06 -0.1562970E+01  0.1133276E+06 -0.1711781E-01  0.5962439E+06  0.1578622E+01
  0.7309524E+00  0.1567327E+06 -0.1560973E+01  0.1076550E+06 -0.1981181E-01  0.6359868E+06  0.1580620E+01
  0.7619048E+00  0.1675122E+06 -0.1558612E+01  0.1020838E+06 -0.2273050E-01  0.6749499E+06  0.1582980E+01
  0.7928572E+00  0.1783944E+06 -0.1555843E+01  0.9657248E+05 -0.2595522E-01  0.7134582E+06  0.1585750E+01
  0.8238096E+00  0.1894241E+06 -0.1552626E+01  0.9113063E+05 -0.2951027E-01  0.7515848E+06  0.1588965E+01
  0.8547620E+00  0.2002718E+06 -0.1548927E+01  0.8581250E+05 -0.3334116E-01  0.7883708E+06  0.1592663E+01
  0.8857143E+00  0.2111143E+06 -0.1544701E+01  0.8064584E+05 -0.3746249E-01  0.8243789E+06  0.1596889E+01
  0.9166667E+00  0.2218443E+06 -0.1539921E+01  0.7560366E+05 -0.4196975E-01  0.8586422E+06  0.1601667E+01
  0.9476191E+00  0.2326086E+06 -0.1534549E+01  0.7070023E+05 -0.4691803E-01  0.8918063E+06  0.1607037E+01
  0.9785714E+00  0.2430547E+06 -0.1528544E+01  0.6596474E+05 -0.5226456E-01  0.9230421E+06  0.1613039E+01
  0.1009524E+01  0.2531970E+06 -0.1521880E+01  0.6144267E+05 -0.5780351E-01  0.9521161E+06  0.1619700E+01
  0.1040476E+01  0.2631563E+06 -0.1514523E+01  0.5709559E+05 -0.6384134E-01  0.9795901E+06  0.1627055E+01
  0.1071429E+01  0.2728187E+06 -0.1506460E+01  0.5292816E+05 -0.7043055E-01  0.1004720E+07  0.1635111E+01
  0.1102381E+01  0.2822380E+06 -0.1497670E+01  0.4893386E+05 -0.7768731E-01  0.1028143E+07  0.1643893E+01
  0.1133333E+01  0.2910209E+06 -0.1488187E+01  0.4515258E+05 -0.8528177E-01  0.1048260E+07  0.1653364E+01
  0.1164286E+01  0.2992927E+06 -0.1478013E+01  0.4158798E+05 -0.9305282E-01  0.1065389E+07  0.1663528E+01
  0.1195238E+01  0.3071745E+06 -0.1467121E+01  0.3822053E+05 -0.1014227E+00  0.1080268E+07  0.1674409E+01
  0.1226190E+01  0.3143984E+06 -0.1455569E+01  0.3504429E+05 -0.1104480E+00  0.1091545E+07  0.1685942E+01
  0.1257143E+01  0.3210398E+06 -0.1443387E+01  0.3204884E+05 -0.1203953E+00  0.1100108E+07  0.1698094E+01
  0.1288095E+01  0.3271525E+06 -0.1430488E+01  0.2923873E+05 -0.1310947E+00  0.1106191E+07  0.1710978E+01
  0.1319048E+01  0.3321852E+06 -0.1417135E+01  0.2662965E+05 -0.1416184E+00  0.1107748E+07  0.1724277E+01
  0.1350000E+01  0.3365342E+06 -0.1403207E+01  0.2420876E+05 -0.1525566E+00  0.1106756E+07  0.1738188E+01
  0.1380952E+01  0.3401401E+06 -0.1388836E+01  0.2195920E+05 -0.1642106E+00  0.1102918E+07  0.1752529E+01
  0.1411905E+01  0.3422941E+06 -0.1374330E+01  0.1988117E+05 -0.1764535E+00  0.1094409E+07  0.1766971E+01
  0.1442857E+01  0.3442430E+06 -0.1359631E+01  0.1794983E+05 -0.1898106E+00  0.1083767E+07  0.1781587E+01
  0.1473810E+01  0.3453149E+06 -0.1344798E+01  0.1617048E+05 -0.2041779E+00  0.1070452E+07  0.1796361E+01
  0.1504762E+01  0.3453289E+06 -0.1330111E+01  0.1453598E+05 -0.2188769E+00  0.1053461E+07  0.1810965E+01
  0.1535714E+01  0.3442787E+06 -0.1315725E+01  0.1302872E+05 -0.2341361E+00  0.1032913E+07  0.1825196E+01
  0.1566667E+01  0.3425523E+06 -0.1301404E+01  0.1167364E+05 -0.2484716E+00  0.1011080E+07  0.1839494E+01
  0.1597619E+01  0.3399760E+06 -0.1287576E+01  0.1043218E+05 -0.2640883E+00  0.9867456E+06  0.1853237E+01
  0.1628572E+01  0.3365401E+06 -0.1274502E+01  0.9304711E+04 -0.2798274E+00  0.9596740E+06  0.1866111E+01
  0.1659524E+01  0.3325752E+06 -0.1262111E+01  0.8274699E+04 -0.2971755E+00  0.9314999E+06  0.1878299E+01
  0.1690476E+01  0.3280483E+06 -0.1250415E+01  0.7341001E+04 -0.3163183E+00  0.9025848E+06  0.1889888E+01
  0.1721429E+01  0.3226293E+06 -0.1239828E+01  0.6501767E+04 -0.3348713E+00  0.8716854E+06  0.1900401E+01
  0.1752381E+01  0.3165380E+06 -0.1230615E+01  0.5734118E+04 -0.3558035E+00  0.8391311E+06  0.1909187E+01
  0.1783333E+01  0.3099942E+06 -0.1222457E+01  0.5044784E+04 -0.3777232E+00  0.8062554E+06  0.1917076E+01
  0.1814286E+01  0.3031393E+06 -0.1215229E+01  0.4439965E+04 -0.3949470E+00  0.7739250E+06  0.1924377E+01
  0.1845238E+01  0.2959401E+06 -0.1209569E+01  0.3894860E+04 -0.4148649E+00  0.7411286E+06  0.1929858E+01
  0.1876190E+01  0.2884606E+06 -0.1205547E+01  0.3404233E+04 -0.4344633E+00  0.7080151E+06  0.1933356E+01
  0.1907143E+01  0.2808955E+06 -0.1202721E+01  0.2965938E+04 -0.4572704E+00  0.6757900E+06  0.1935784E+01
  0.1938095E+01  0.2733388E+06 -0.1201070E+01  0.2577778E+04 -0.4861067E+00  0.6447490E+06  0.1937242E+01
  0.1969048E+01  0.2654512E+06 -0.1201121E+01  0.2234589E+04 -0.5090052E+00  0.6138885E+06  0.1937191E+01
  0.2000000E+01  0.2575372E+06 -0.1202801E+01  0.1928962E+04 -0.5377953E+00  0.5836834E+06  0.1935280E+01
