VARIABLES="w (rad/s)"
"abs(F   1   1)" "angle(F   1   1)"
"abs(F   1   2)" "angle(F   1   2)"
"abs(F   1   3)" "angle(F   1   3)"
Zone t="Diffraction force - beta =   0.000 deg",I=    64,F=POINT
  0.5000000E-01  0.3918656E+04 -0.1570800E+01  0.5704769E+06 -0.3904662E-04  0.1023924E+03 -0.1570870E+01
  0.8095238E-01  0.6389870E+04 -0.1570778E+01  0.5692316E+06 -0.1049991E-03  0.1674003E+03 -0.1570817E+01
  0.1119048E+00  0.8910439E+04 -0.1570795E+01  0.5674048E+06 -0.2083752E-03  0.2335704E+03 -0.1570821E+01
  0.1428571E+00  0.1152394E+05 -0.1570794E+01  0.5649955E+06 -0.3570093E-03  0.3038771E+03 -0.1570812E+01
  0.1738095E+00  0.1424598E+05 -0.1570785E+01  0.5619982E+06 -0.5626571E-03  0.3765828E+03 -0.1570805E+01
  0.2047619E+00  0.1711828E+05 -0.1570776E+01  0.5584092E+06 -0.8423435E-03  0.4557097E+03 -0.1570790E+01
  0.2357143E+00  0.2015345E+05 -0.1570762E+01  0.5542234E+06 -0.1221196E-02  0.5390984E+03 -0.1570777E+01
  0.2666667E+00  0.2343450E+05 -0.1570749E+01  0.5494326E+06 -0.1729309E-02  0.6312953E+03 -0.1570757E+01
  0.2976190E+00  0.2698838E+05 -0.1570723E+01  0.5440393E+06 -0.2418608E-02  0.7334550E+03 -0.1570736E+01
  0.3285715E+00  0.3084578E+05 -0.1570687E+01  0.5380319E+06 -0.3340216E-02  0.8456753E+03 -0.1570696E+01
  0.3595238E+00  0.3511776E+05 -0.1570634E+01  0.5314384E+06 -0.4577113E-02  0.9722444E+03 -0.1570644E+01
  0.3904762E+00  0.3984867E+05 -0.1570556E+01  0.5242510E+06 -0.6219749E-02  0.1119034E+04 -0.1570561E+01
  0.4214286E+00  0.4503020E+05 -0.1570439E+01  0.5165585E+06 -0.8324334E-02  0.1273042E+04 -0.1570441E+01
  0.4523810E+00  0.5071851E+05 -0.1570269E+01  0.5083451E+06 -0.1105129E-01  0.1452624E+04 -0.1570275E+01
  0.4833333E+00  0.5700604E+05 -0.1570031E+01  0.4997191E+06 -0.1431667E-01  0.1654703E+04 -0.1570035E+01
  0.5142857E+00  0.6379298E+05 -0.1569704E+01  0.4907299E+06 -0.1830986E-01  0.1879944E+04 -0.1569707E+01
  0.5452381E+00  0.7097570E+05 -0.1569266E+01  0.4813806E+06 -0.2295918E-01  0.2114440E+04 -0.1569269E+01
  0.5761905E+00  0.7861155E+05 -0.1568698E+01  0.4717455E+06 -0.2827160E-01  0.2371609E+04 -0.1568701E+01
  0.6071429E+00  0.8671791E+05 -0.1567967E+01  0.4618890E+06 -0.3440443E-01  0.2663468E+04 -0.1567968E+01
  0.6380953E+00  0.9520880E+05 -0.1567056E+01  0.4517520E+06 -0.4118449E-01  0.2976503E+04 -0.1567057E+01
  0.6690477E+00  0.1039310E+06 -0.1565925E+01  0.4414544E+06 -0.4876561E-01  0.3292055E+04 -0.1565928E+01
  0.7000000E+00  0.1128558E+06 -0.1564539E+01  0.4310291E+06 -0.5723240E-01  0.3629726E+04 -0.1564541E+01
  0.7309524E+00  0.1221696E+06 -0.1562877E+01  0.4204290E+06 -0.6649760E-01  0.4000094E+04 -0.1562882E+01
  0.7619048E+00  0.1317881E+06 -0.1560895E+01  0.4097656E+06 -0.7664876E-01  0.4390071E+04 -0.1560901E+01
  0.7928572E+00  0.1416093E+06 -0.1558554E+01  0.3990975E+06 -0.8772654E-01  0.4811102E+04 -0.1558561E+01
  0.8238096E+00  0.1515975E+06 -0.1555818E+01  0.3883981E+06 -0.9973358E-01  0.5254489E+04 -0.1555822E+01
  0.8547620E+00  0.1616136E+06 -0.1552649E+01  0.3776898E+06 -0.1126770E+00  0.5688822E+04 -0.1552644E+01
  0.8857143E+00  0.1717196E+06 -0.1549023E+01  0.3670211E+06 -0.1265793E+00  0.6145542E+04 -0.1549020E+01
  0.9166667E+00  0.1819651E+06 -0.1544927E+01  0.3564281E+06 -0.1414663E+00  0.6647500E+04 -0.1544947E+01
  0.9476191E+00  0.1923397E+06 -0.1540341E+01  0.3459404E+06 -0.1573339E+00  0.7181043E+04 -0.1540373E+01
  0.9785714E+00  0.2027057E+06 -0.1535249E+01  0.3355797E+06 -0.1741786E+00  0.7724162E+04 -0.1535286E+01
  0.1009524E+01  0.2129505E+06 -0.1529637E+01  0.3253628E+06 -0.1920114E+00  0.8276904E+04 -0.1529678E+01
  0.1040476E+01  0.2229623E+06 -0.1523505E+01  0.3153094E+06 -0.2108367E+00  0.8841960E+04 -0.1523523E+01
  0.1071429E+01  0.2326488E+06 -0.1516873E+01  0.3054053E+06 -0.2306493E+00  0.9410663E+04 -0.1516833E+01
  0.1102381E+01  0.2420162E+06 -0.1509798E+01  0.2956372E+06 -0.2514471E+00  0.9995311E+04 -0.1509742E+01
  0.1133333E+01  0.2510754E+06 -0.1502385E+01  0.2860673E+06 -0.2732616E+00  0.1058190E+05 -0.1502343E+01
  0.1164286E+01  0.2596960E+06 -0.1494700E+01  0.2766921E+06 -0.2960880E+00  0.1116602E+05 -0.1494737E+01
  0.1195238E+01  0.2677947E+06 -0.1486826E+01  0.2675470E+06 -0.3199204E+00  0.1176080E+05 -0.1486833E+01
  0.1226190E+01  0.2752467E+06 -0.1478859E+01  0.2586051E+06 -0.3447481E+00  0.1235596E+05 -0.1478817E+01
  0.1257143E+01  0.2819808E+06 -0.1470854E+01  0.2498697E+06 -0.3707401E+00  0.1294517E+05 -0.1470772E+01
  0.1288095E+01  0.2880338E+06 -0.1463244E+01  0.2413322E+06 -0.3973824E+00  0.1351588E+05 -0.1463178E+01
  0.1319048E+01  0.2932269E+06 -0.1455970E+01  0.2330367E+06 -0.4252024E+00  0.1405065E+05 -0.1455965E+01
  0.1350000E+01  0.2975702E+06 -0.1449280E+01  0.2249617E+06 -0.4540113E+00  0.1455579E+05 -0.1449326E+01
  0.1380952E+01  0.3010285E+06 -0.1443336E+01  0.2171112E+06 -0.4837675E+00  0.1504594E+05 -0.1443291E+01
  0.1411905E+01  0.3030607E+06 -0.1438901E+01  0.2095910E+06 -0.5140100E+00  0.1544411E+05 -0.1438805E+01
  0.1442857E+01  0.3047365E+06 -0.1435050E+01  0.2021681E+06 -0.5457560E+00  0.1589042E+05 -0.1434932E+01
  0.1473810E+01  0.3055392E+06 -0.1432518E+01  0.1949516E+06 -0.5784737E+00  0.1629610E+05 -0.1432426E+01
  0.1504762E+01  0.3054941E+06 -0.1431449E+01  0.1879523E+06 -0.6121601E+00  0.1665450E+05 -0.1431410E+01
  0.1535714E+01  0.3046083E+06 -0.1431979E+01  0.1811715E+06 -0.6468668E+00  0.1696238E+05 -0.1431927E+01
  0.1566667E+01  0.3029715E+06 -0.1434267E+01  0.1745953E+06 -0.6825711E+00  0.1724167E+05 -0.1434255E+01
  0.1597619E+01  0.3006345E+06 -0.1438431E+01  0.1682590E+06 -0.7192515E+00  0.1749582E+05 -0.1438421E+01
  0.1628572E+01  0.2976627E+06 -0.1444552E+01  0.1621066E+06 -0.7569571E+00  0.1771726E+05 -0.1444585E+01
  0.1659524E+01  0.2941183E+06 -0.1452716E+01  0.1561472E+06 -0.7956893E+00  0.1790493E+05 -0.1452630E+01
  0.1690476E+01  0.2900988E+06 -0.1462975E+01  0.1503578E+06 -0.8353963E+00  0.1805879E+05 -0.1462760E+01
  0.1721429E+01  0.2856639E+06 -0.1475361E+01  0.1447468E+06 -0.8760552E+00  0.1817242E+05 -0.1475081E+01
  0.1752381E+01  0.2808602E+06 -0.1489888E+01  0.1393241E+06 -0.9177357E+00  0.1825230E+05 -0.1489781E+01
  0.1783333E+01  0.2757562E+06 -0.1506577E+01  0.1340865E+06 -0.9605056E+00  0.1830101E+05 -0.1506767E+01
  0.1814286E+01  0.2704187E+06 -0.1525420E+01  0.1290190E+06 -0.1004313E+01  0.1833165E+05 -0.1525824E+01
  0.1845238E+01  0.2649002E+06 -0.1546400E+01  0.1241586E+06 -0.1049083E+01  0.1835239E+05 -0.1546769E+01
  0.1876190E+01  0.2592420E+06 -0.1569483E+01  0.1194367E+06 -0.1094961E+01  0.1835621E+05 -0.1569842E+01
  0.1907143E+01  0.2534894E+06 -0.1594655E+01  0.1148656E+06 -0.1141945E+01  0.1834932E+05 -0.1594814E+01
  0.1938095E+01  0.2476842E+06 -0.1621845E+01  0.1104148E+06 -0.1190064E+01  0.1832250E+05 -0.1621828E+01
  0.1969048E+01  0.2418525E+06 -0.1651015E+01  0.1060976E+06 -0.1239292E+01  0.1827889E+05 -0.1650926E+01
  0.2000000E+01  0.2360212E+06 -0.1682124E+01  0.1019022E+06 -0.1289653E+01  0.1822043E+05 -0.1682103E+01
