VARIABLES="w (rad/s)"
"A   1   1" "B   1   1"
"A   1   2" "B   1   2"
"A   1   3" "B   1   3"
Zone t="Motion of body    1 in DoF   1",I=    64,F=POINT
  0.5000000E-01  0.7071087E+05  0.3798133E-02 -0.3719330E-03  0.7784087E-05 -0.2891681E+06 -0.1594757E-01
  0.8095238E-01  0.7124824E+05  0.1592012E-01 -0.6008148E-03 -0.3784808E-06 -0.2905695E+06 -0.6624361E-01
  0.1119048E+00  0.7141873E+05  0.4448248E-01 -0.1295374E-02 -0.1148276E-04 -0.2909786E+06 -0.1848315E+00
  0.1428571E+00  0.7147321E+05  0.9954076E-01 -0.1108170E-02 -0.3255118E-05 -0.2911098E+06 -0.4135204E+00
  0.1738095E+00  0.7150185E+05  0.1977288E+00 -0.2523971E-03  0.1342094E-04 -0.2911732E+06 -0.8206756E+00
  0.2047619E+00  0.7159031E+05  0.3641362E+00  0.4657479E-03  0.4480465E-04 -0.2913386E+06 -0.1508507E+01
  0.2357143E+00  0.7164915E+05  0.6369609E+00 -0.1812559E-02 -0.1036492E-04 -0.2915554E+06 -0.2633897E+01
  0.2666667E+00  0.7169188E+05  0.1077521E+01  0.2431869E-03  0.3564171E-04 -0.2916720E+06 -0.4446468E+01
  0.2976190E+00  0.7181103E+05  0.1794343E+01 -0.1256104E-02 -0.3354298E-04 -0.2919173E+06 -0.7385471E+01
  0.3285715E+00  0.7185945E+05  0.2941399E+01 -0.4295680E-03  0.4994962E-04 -0.2921252E+06 -0.1207605E+02
  0.3595238E+00  0.7198434E+05  0.4784896E+01 -0.3713646E-03  0.4538149E-04 -0.2923735E+06 -0.1958319E+02
  0.3904762E+00  0.7203462E+05  0.7713199E+01 -0.6350075E-03  0.8446164E-04 -0.2925554E+06 -0.3147223E+02
  0.4214286E+00  0.7217246E+05  0.1226814E+02  0.1511654E-02  0.2789907E-03 -0.2929518E+06 -0.4987545E+02
  0.4523810E+00  0.7231456E+05  0.1933708E+02  0.1366063E-02  0.3532618E-03 -0.2933460E+06 -0.7832561E+02
  0.4833333E+00  0.7243188E+05  0.2968477E+02  0.8287101E-03  0.4900172E-03 -0.2936737E+06 -0.1197424E+03
  0.5142857E+00  0.7267155E+05  0.4485135E+02 -0.1527998E-02  0.1384020E-03 -0.2943201E+06 -0.1801057E+03
  0.5452381E+00  0.7282019E+05  0.6604331E+02 -0.1259350E-03  0.2258271E-03 -0.2948203E+06 -0.2640314E+03
  0.5761905E+00  0.7302270E+05  0.9491691E+02 -0.8341891E-03  0.9390712E-04 -0.2953412E+06 -0.3775311E+03
  0.6071429E+00  0.7326304E+05  0.1338919E+03 -0.1432531E-02  0.9477139E-04 -0.2959925E+06 -0.5297659E+03
  0.6380953E+00  0.7347307E+05  0.1845381E+03 -0.6576082E-03  0.1299381E-04 -0.2966330E+06 -0.7262063E+03
  0.6690477E+00  0.7375711E+05  0.2499301E+03 -0.1938572E-02 -0.3395677E-03 -0.2973686E+06 -0.9776204E+03
  0.7000000E+00  0.7404212E+05  0.3332485E+03 -0.1689366E-02 -0.9536743E-04 -0.2982250E+06 -0.1295746E+04
  0.7309524E+00  0.7430152E+05  0.4371200E+03 -0.1513453E-02 -0.2037287E-03 -0.2989643E+06 -0.1688853E+04
  0.7619048E+00  0.7458876E+05  0.5655973E+03 -0.1341820E-02 -0.2280474E-03 -0.2996724E+06 -0.2170172E+04
  0.7928572E+00  0.7496646E+05  0.7231738E+03 -0.1982268E-02  0.6294250E-04 -0.3006600E+06 -0.2754719E+04
  0.8238096E+00  0.7525323E+05  0.9131454E+03  0.2037445E-03  0.4134178E-03 -0.3014046E+06 -0.3452906E+04
  0.8547620E+00  0.7558084E+05  0.1140618E+04 -0.3034756E-03  0.1869202E-03 -0.3023285E+06 -0.4280651E+04
  0.8857143E+00  0.7594386E+05  0.1410561E+04  0.1033660E-02  0.2577305E-03 -0.3032048E+06 -0.5250504E+04
  0.9166667E+00  0.7634784E+05  0.1728209E+04 -0.6824840E-03  0.6675720E-04 -0.3041865E+06 -0.6378203E+04
  0.9476191E+00  0.7665716E+05  0.2096725E+04 -0.1215719E-02 -0.2202988E-03 -0.3048443E+06 -0.7670363E+04
  0.9785714E+00  0.7702475E+05  0.2523805E+04 -0.1247434E-03  0.6351471E-03 -0.3057206E+06 -0.9149677E+04
  0.1009524E+01  0.7735639E+05  0.3012871E+04 -0.9068903E-04  0.1017094E-02 -0.3063656E+06 -0.1081855E+05
  0.1040476E+01  0.7778246E+05  0.3572697E+04 -0.9532378E-03 -0.8325577E-03 -0.3072031E+06 -0.1269967E+05
  0.1071429E+01  0.7813478E+05  0.4204396E+04  0.5696615E-03 -0.2183914E-03 -0.3079425E+06 -0.1479684E+05
  0.1102381E+01  0.7840961E+05  0.4910787E+04 -0.1398008E-02 -0.4673004E-04 -0.3083535E+06 -0.1710309E+05
  0.1133333E+01  0.7872188E+05  0.5700704E+04 -0.8212819E-03  0.2317429E-03 -0.3088551E+06 -0.1964045E+05
  0.1164286E+01  0.7898511E+05  0.6574450E+04 -0.1218831E-02 -0.5636215E-03 -0.3090588E+06 -0.2239162E+05
  0.1195238E+01  0.7930992E+05  0.7543054E+04 -0.2553263E-04  0.7200241E-03 -0.3093371E+06 -0.2538259E+05
  0.1226190E+01  0.7956434E+05  0.8603948E+04 -0.3484337E-03  0.1258850E-03 -0.3095340E+06 -0.2861103E+05
  0.1257143E+01  0.7964981E+05  0.9742138E+04 -0.9710138E-04 -0.4768372E-03 -0.3091528E+06 -0.3199615E+05
  0.1288095E+01  0.7984223E+05  0.1099770E+05 -0.2369202E-03  0.4005432E-03 -0.3090392E+06 -0.3565855E+05
  0.1319048E+01  0.7993827E+05  0.1234064E+05 -0.8213305E-03  0.6732941E-03 -0.3086268E+06 -0.3948927E+05
  0.1350000E+01  0.8000242E+05  0.1378193E+05 -0.1616301E-02 -0.1276016E-02 -0.3080486E+06 -0.4350082E+05
  0.1380952E+01  0.8008475E+05  0.1532703E+05 -0.1580074E-02 -0.8773804E-03 -0.3074447E+06 -0.4769495E+05
  0.1411905E+01  0.7992988E+05  0.1694179E+05  0.8970006E-03  0.2861023E-03 -0.3065368E+06 -0.5203532E+05
  0.1442857E+01  0.7976282E+05  0.1862910E+05  0.1586310E-03  0.6866455E-03 -0.3052318E+06 -0.5637003E+05
  0.1473810E+01  0.7954240E+05  0.2039809E+05  0.9732100E-03  0.6046295E-03 -0.3037935E+06 -0.6079524E+05
  0.1504762E+01  0.7931409E+05  0.2225579E+05  0.4056134E-03  0.5149841E-03 -0.3023908E+06 -0.6532109E+05
  0.1535714E+01  0.7893106E+05  0.2414337E+05 -0.6756450E-03  0.3376007E-03 -0.3004679E+06 -0.6971605E+05
  0.1566667E+01  0.7855224E+05  0.2611083E+05  0.7499532E-03  0.1583099E-03 -0.2985885E+06 -0.7416524E+05
  0.1597619E+01  0.7816478E+05  0.2814128E+05 -0.1432643E-03  0.3242493E-04 -0.2966780E+06 -0.7858360E+05
  0.1628572E+01  0.7763486E+05  0.3019365E+05 -0.5902742E-03  0.3623962E-03 -0.2945829E+06 -0.8294145E+05
  0.1659524E+01  0.7699345E+05  0.3222859E+05 -0.4689286E-03  0.4234314E-03 -0.2921620E+06 -0.8699856E+05
  0.1690476E+01  0.7625864E+05  0.3425065E+05  0.8484746E-03  0.2269745E-03 -0.2895506E+06 -0.9082452E+05
  0.1721429E+01  0.7550709E+05  0.3629865E+05 -0.7800344E-03 -0.9536743E-05 -0.2870612E+06 -0.9458343E+05
  0.1752381E+01  0.7468452E+05  0.3829123E+05  0.5224477E-03  0.2479553E-04 -0.2844114E+06 -0.9798086E+05
  0.1783333E+01  0.7377232E+05  0.4018642E+05 -0.7358444E-03  0.1220703E-03 -0.2815330E+06 -0.1008564E+06
  0.1814286E+01  0.7286279E+05  0.4206262E+05 -0.2691314E-03  0.4196167E-04 -0.2787741E+06 -0.1035650E+06
  0.1845238E+01  0.7196438E+05  0.4389540E+05  0.7773123E-03 -0.6866455E-04 -0.2761019E+06 -0.1059589E+06
  0.1876190E+01  0.7094984E+05  0.4560500E+05  0.4147757E-03  0.1144409E-04 -0.2733681E+06 -0.1080337E+06
  0.1907143E+01  0.6989650E+05  0.4718459E+05  0.8480916E-03  0.3280640E-03 -0.2706058E+06 -0.1096136E+06
  0.1938095E+01  0.6874902E+05  0.4853201E+05  0.8424202E-03  0.2231598E-03 -0.2676549E+06 -0.1103588E+06
  0.1969048E+01  0.6763534E+05  0.4984352E+05  0.6974392E-04  0.1049042E-03 -0.2649801E+06 -0.1111094E+06
  0.2000000E+01  0.6654769E+05  0.5106778E+05 -0.8926392E-03  0.1258850E-03 -0.2625062E+06 -0.1116056E+06
Zone t="Motion of body    1 in DoF   2",I=    64,F=POINT
  0.5000000E-01 -0.2679825E-02 -0.2682209E-05  0.1052815E+05  0.1005168E+02  0.1560211E-01 -0.3397465E-04
  0.8095238E-01 -0.1101494E-02 -0.8821487E-05  0.1047928E+05  0.1660122E+02  0.5183500E-03  0.7331371E-05
  0.1119048E+00  0.9800525E-03  0.5960464E-06  0.1044588E+05  0.2363279E+02  0.3852033E-02  0.2717972E-04
  0.1428571E+00 -0.1214981E-02  0.4291534E-05  0.1042659E+05  0.3137777E+02  0.6942748E-03  0.2872944E-04
  0.1738095E+00 -0.2139888E-02 -0.1621246E-04  0.1041944E+05  0.4006457E+02  0.8735134E-02 -0.1907349E-05
  0.2047619E+00  0.9314958E-05  0.3767014E-04  0.1040489E+05  0.5009669E+02  0.2012031E-02 -0.1344681E-03
  0.2357143E+00 -0.1084299E-02  0.1716614E-04  0.1040133E+05  0.6189207E+02  0.3819321E-02 -0.5459785E-04
  0.2666667E+00  0.1459122E-02  0.1382828E-04  0.1039960E+05  0.7571368E+02  0.1716614E-03  0.1559258E-03
  0.2976190E+00  0.4614258E-03 -0.7629395E-05  0.1039682E+05  0.9255656E+02  0.8818359E-02  0.3457069E-03
  0.3285715E+00 -0.5050327E-03 -0.8106232E-04  0.1039627E+05  0.1125002E+03 -0.2554188E-02  0.4625320E-04
  0.3595238E+00  0.7957811E-03  0.6675720E-05  0.1039176E+05  0.1365622E+03  0.3268008E-02  0.2713203E-03
  0.3904762E+00 -0.3819814E-02  0.5722046E-05  0.1038248E+05  0.1651140E+03  0.2586923E-01  0.1487732E-03
  0.4214286E+00 -0.9051823E-05  0.7057190E-04  0.1037087E+05  0.1971198E+03  0.7096629E-02  0.7152557E-04
  0.4523810E+00 -0.9528712E-03 -0.1678467E-03  0.1034153E+05  0.2346656E+03  0.3507915E-02  0.6198883E-03
  0.4833333E+00 -0.4419787E-03 -0.2021790E-03  0.1032286E+05  0.2722812E+03 -0.9470972E-03  0.1700401E-02
  0.5142857E+00  0.1379649E-02 -0.8583069E-04  0.1026811E+05  0.3128756E+03  0.1186795E-03  0.3395081E-03
  0.5452381E+00 -0.5597110E-04 -0.4577637E-04  0.1022428E+05  0.3526373E+03  0.9738972E-02 -0.3032684E-03
  0.5761905E+00 -0.6686754E-03  0.3471375E-03  0.1017589E+05  0.3900488E+03  0.6620548E-02 -0.1672745E-02
  0.6071429E+00 -0.5654727E-04  0.3433228E-04  0.1011016E+05  0.4272019E+03  0.1558191E-02  0.8773804E-04
  0.6380953E+00  0.1231521E-02 -0.1907349E-03  0.1006238E+05  0.4592733E+03 -0.6169561E-02 -0.2288818E-03
  0.6690477E+00 -0.9635843E-03 -0.3623962E-03  0.1000395E+05  0.4879951E+03  0.1044548E-01  0.2746582E-03
  0.7000000E+00 -0.1662118E-02 -0.2250671E-03  0.9936834E+04  0.5138432E+03  0.8544921E-02 -0.1197815E-02
  0.7309524E+00 -0.7828206E-04  0.4615784E-03  0.9886772E+04  0.5348890E+03 -0.4216793E-02 -0.1882553E-02
  0.7619048E+00  0.4155636E-03 -0.2517700E-03  0.9839258E+04  0.5514956E+03  0.7009506E-02  0.2367020E-02
  0.7928572E+00  0.8564166E-03 -0.3814697E-04  0.9775130E+04  0.5626288E+03 -0.6466427E-02  0.1623154E-02
  0.8238096E+00  0.6806919E-03  0.7629395E-05  0.9723898E+04  0.5699624E+03  0.2593112E-03  0.1926422E-02
  0.8547620E+00  0.6381914E-03  0.5187988E-03  0.9689321E+04  0.5738761E+03  0.4212955E-02 -0.9460449E-03
  0.8857143E+00 -0.5082161E-03 -0.2365112E-03  0.9644656E+04  0.5712432E+03  0.5375031E-02 -0.1403809E-02
  0.9166667E+00 -0.9571422E-03  0.6408691E-03  0.9598486E+04  0.5629712E+03  0.9887695E-02 -0.6484985E-04
  0.9476191E+00 -0.1330447E-02 -0.2593994E-03  0.9562307E+04  0.5521394E+03  0.7503644E-02 -0.3932953E-02
  0.9785714E+00 -0.7582059E-03 -0.3662109E-03  0.9540169E+04  0.5401901E+03  0.1381533E-01  0.4341125E-02
  0.1009524E+01 -0.1216745E-02 -0.6942749E-03  0.9526385E+04  0.5259220E+03  0.9582808E-02 -0.1106262E-03
  0.1040476E+01  0.4307902E-03 -0.5340576E-04  0.9489978E+04  0.4993189E+03  0.2815718E-02  0.2132416E-02
  0.1071429E+01 -0.1535416E-03  0.1068115E-03  0.9466399E+04  0.4737929E+03  0.6494141E-02 -0.4076004E-02
  0.1102381E+01 -0.1495603E-02  0.3356934E-03  0.9453293E+04  0.4492044E+03  0.8194266E-02  0.1901627E-02
  0.1133333E+01 -0.1255063E-02 -0.1678467E-03  0.9451680E+04  0.4279782E+03  0.1109404E-01  0.1735687E-03
  0.1164286E+01 -0.1179514E-02 -0.6027222E-03  0.9456985E+04  0.4077857E+03  0.3617175E-02  0.4957199E-02
  0.1195238E+01  0.2305916E-03 -0.2670288E-03  0.9440190E+04  0.3682006E+03  0.8681096E-03 -0.6351471E-03
  0.1226190E+01 -0.6222031E-04 -0.3890991E-03  0.9433455E+04  0.3342786E+03  0.7267332E-02  0.3450394E-02
  0.1257143E+01 -0.4703348E-03 -0.3051758E-04  0.9433138E+04  0.3043011E+03  0.4952170E-02  0.2670288E-02
  0.1288095E+01 -0.9447193E-03 -0.4959106E-03  0.9440156E+04  0.2807904E+03  0.4406716E-02 -0.9098053E-03
  0.1319048E+01 -0.8994146E-03  0.1525879E-03  0.9454367E+04  0.2658807E+03  0.2961417E-02  0.4425049E-03
  0.1350000E+01 -0.1096372E-02 -0.3967285E-03  0.9465226E+04  0.2441314E+03  0.4475911E-02  0.1439095E-02
  0.1380952E+01 -0.5856218E-03  0.2212524E-03  0.9466797E+04  0.2050769E+03  0.6983264E-02  0.7934570E-03
  0.1411905E+01 -0.2917954E-03 -0.1449585E-03  0.9471900E+04  0.1739704E+03  0.5187473E-02 -0.1436234E-02
  0.1442857E+01 -0.2167957E-03  0.5416870E-03  0.9480522E+04  0.1489163E+03  0.7275874E-02 -0.6742477E-03
  0.1473810E+01 -0.9990932E-03  0.1373291E-03  0.9491835E+04  0.1317823E+03  0.6916003E-02  0.7500648E-03
  0.1504762E+01 -0.1267542E-03  0.4577637E-04  0.9505363E+04  0.1232698E+03  0.4096695E-02 -0.1211166E-03
  0.1535714E+01 -0.4471180E-04 -0.5264282E-03  0.9521237E+04  0.1260831E+03  0.4769258E-02  0.7152557E-05
  0.1566667E+01 -0.6135981E-03 -0.2059937E-03  0.9531188E+04  0.1002800E+03  0.5687957E-02 -0.8115768E-03
  0.1597619E+01 -0.6446895E-04  0.3509521E-03  0.9541367E+04  0.7546236E+02  0.2521452E-02 -0.3604889E-03
  0.1628572E+01 -0.5223458E-03  0.2098083E-03  0.9550978E+04  0.5515021E+02  0.1761453E-02 -0.7269382E-03
  0.1659524E+01 -0.1958467E-02  0.4577637E-04  0.9560885E+04  0.4078988E+02  0.1221053E-01 -0.8037090E-03
  0.1690476E+01 -0.8259088E-03  0.1106262E-03  0.9570644E+04  0.3250597E+02  0.9315168E-02 -0.1990795E-04
  0.1721429E+01 -0.8753227E-03 -0.1258850E-03  0.9579699E+04  0.3036988E+02  0.6984853E-02  0.4053116E-03
  0.1752381E+01 -0.8816305E-03 -0.1754761E-03  0.9588346E+04  0.3618774E+02  0.4562710E-02  0.7209778E-03
  0.1783333E+01 -0.8641894E-03 -0.1182556E-03  0.9595556E+04  0.5004136E+02  0.7769148E-02  0.1888275E-03
  0.1814286E+01 -0.1787201E-03 -0.1258850E-03  0.9606183E+04  0.2645019E+02  0.2253975E-02 -0.2563000E-04
  0.1845238E+01  0.2894248E-04  0.8392334E-04  0.9615508E+04  0.1490689E+02  0.3043095E-02 -0.5786419E-03
  0.1876190E+01 -0.8234518E-03  0.1716614E-03  0.9623388E+04  0.4949250E+01  0.4912246E-02  0.2593100E-03
  0.1907143E+01 -0.7400798E-04  0.1449585E-03  0.9630332E+04 -0.5007597E+00  0.4480483E-03 -0.1044273E-03
  0.1938095E+01 -0.1275440E-02  0.1602173E-03  0.9636437E+04 -0.3504881E+01  0.1004606E-01 -0.2041906E-03
  0.1969048E+01 -0.9957883E-03  0.7247925E-04  0.9641300E+04 -0.2875777E+01  0.8772235E-02 -0.1883209E-03
  0.2000000E+01 -0.7629395E-05  0.2288818E-04  0.9645001E+04  0.5660220E+00  0.4852295E-02 -0.2263561E-03
Zone t="Motion of body    1 in DoF   3",I=    64,F=POINT
  0.5000000E-01 -0.2889892E+06 -0.1582768E-01 -0.4882812E-02 -0.2270842E-04  0.1490680E+07  0.6652553E-01
  0.8095238E-01 -0.2904390E+06 -0.6615126E-01 -0.3581327E-02 -0.1539811E-04  0.1493761E+07  0.2747151E+00
  0.1119048E+00 -0.2908714E+06 -0.1845148E+00  0.4158832E-02  0.6400136E-04  0.1494705E+07  0.7667326E+00
  0.1428571E+00 -0.2910017E+06 -0.4129432E+00  0.3417969E-02  0.4451757E-04  0.1495032E+07  0.1716420E+01
  0.1738095E+00 -0.2910667E+06 -0.8193842E+00  0.1294907E-01  0.9269849E-04  0.1495300E+07  0.3401798E+01
  0.2047619E+00 -0.2912453E+06 -0.1506457E+01  0.6334172E-03 -0.2185889E-03  0.1495746E+07  0.6240613E+01
  0.2357143E+00 -0.2914516E+06 -0.2630068E+01  0.5631880E-02 -0.8992292E-04  0.1496288E+07  0.1087448E+02
  0.2666667E+00 -0.2915686E+06 -0.4439528E+01 -0.1144409E-03  0.5566701E-04  0.1496743E+07  0.1831850E+02
  0.2976190E+00 -0.2918237E+06 -0.7375669E+01  0.1902100E-01  0.2146326E-03  0.1497357E+07  0.3035466E+02
  0.3285715E+00 -0.2920223E+06 -0.1205719E+02  0.1685764E-01  0.5263425E-03  0.1498083E+07  0.4949628E+02
  0.3595238E+00 -0.2922790E+06 -0.1955616E+02  0.1099239E-01 -0.3684312E-04  0.1498726E+07  0.8003355E+02
  0.3904762E+00 -0.2924580E+06 -0.3142364E+02  0.2774494E-02 -0.4840046E-03  0.1499460E+07  0.1282202E+03
  0.4214286E+00 -0.2928491E+06 -0.4979790E+02 -0.2773479E-01 -0.2127692E-02  0.1500630E+07  0.2024454E+03
  0.4523810E+00 -0.2932438E+06 -0.7820396E+02 -0.7015830E-02 -0.8872449E-03  0.1501742E+07  0.3167896E+03
  0.4833333E+00 -0.2935671E+06 -0.1195440E+03  0.7892476E-02  0.5956590E-03  0.1502869E+07  0.4822088E+03
  0.5142857E+00 -0.2942211E+06 -0.1798382E+03  0.3204346E-02 -0.1446605E-03  0.1504698E+07  0.7221415E+03
  0.5452381E+00 -0.2947086E+06 -0.2635792E+03  0.2065334E-01  0.1712680E-02  0.1506296E+07  0.1053744E+04
  0.5761905E+00 -0.2952318E+06 -0.3769189E+03 -0.6355727E-03 -0.1275778E-02  0.1507867E+07  0.1499157E+04
  0.6071429E+00 -0.2958872E+06 -0.5289391E+03  0.1367187E-01  0.1595497E-02  0.1509758E+07  0.2092952E+04
  0.6380953E+00 -0.2965158E+06 -0.7249435E+03  0.1994346E-01  0.3530979E-03  0.1511806E+07  0.2852796E+04
  0.6690477E+00 -0.2972570E+06 -0.9760766E+03  0.9898121E-02  0.4494190E-03  0.1513890E+07  0.3817925E+04
  0.7000000E+00 -0.2981084E+06 -0.1293563E+04  0.9155273E-03  0.1422405E-02  0.1516331E+07  0.5029728E+04
  0.7309524E+00 -0.2988375E+06 -0.1685740E+04  0.2922530E-02  0.9284019E-03  0.1518541E+07  0.6512899E+04
  0.7619048E+00 -0.2995488E+06 -0.2166334E+04  0.4806518E-02 -0.1355648E-02  0.1520565E+07  0.8311916E+04
  0.7928572E+00 -0.3005398E+06 -0.2750180E+04  0.3887554E-02 -0.8697510E-03  0.1523152E+07  0.1047575E+05
  0.8238096E+00 -0.3012807E+06 -0.3446864E+04  0.0000000E+00 -0.2623558E-02  0.1525228E+07  0.1303347E+05
  0.8547620E+00 -0.3021862E+06 -0.4272146E+04  0.1163918E-01  0.2822876E-03  0.1527687E+07  0.1603249E+05
  0.8857143E+00 -0.3030666E+06 -0.5240547E+04  0.1102571E-02 -0.2204895E-02  0.1529849E+07  0.1950592E+05
  0.9166667E+00 -0.3040484E+06 -0.6366354E+04  0.1105291E-01  0.2441406E-03  0.1532114E+07  0.2349481E+05
  0.9476191E+00 -0.3047041E+06 -0.7655717E+04  0.2035323E-01  0.3786087E-02  0.1533545E+07  0.2800525E+05
  0.9785714E+00 -0.3055664E+06 -0.9130553E+04  0.8856781E-02  0.1432419E-02  0.1535461E+07  0.3309882E+05
  0.1009524E+01 -0.3062120E+06 -0.1079609E+05  0.7255123E-03 -0.3534317E-02  0.1536619E+07  0.3876190E+05
  0.1040476E+01 -0.3070528E+06 -0.1267573E+05  0.3050361E-02  0.2859116E-02  0.1537895E+07  0.4505260E+05
  0.1071429E+01 -0.3077858E+06 -0.1476612E+05 -0.6266276E-03 -0.1964569E-02  0.1539086E+07  0.5196112E+05
  0.1102381E+01 -0.3081909E+06 -0.1706562E+05  0.1046430E-01  0.6904602E-03  0.1539230E+07  0.5942789E+05
  0.1133333E+01 -0.3086739E+06 -0.1959268E+05  0.1297895E-01  0.2048492E-02  0.1539390E+07  0.6748900E+05
  0.1164286E+01 -0.3088808E+06 -0.2233806E+05  0.7024659E-02 -0.2021790E-02  0.1538604E+07  0.7605916E+05
  0.1195238E+01 -0.3091632E+06 -0.2532680E+05 -0.1817924E-01 -0.4821777E-02  0.1537677E+07  0.8520280E+05
  0.1226190E+01 -0.3093555E+06 -0.2854316E+05  0.1080144E-01  0.1590729E-02  0.1536696E+07  0.9488686E+05
  0.1257143E+01 -0.3089686E+06 -0.3191575E+05  0.7331154E-02 -0.6942749E-03  0.1533953E+07  0.1047856E+06
  0.1288095E+01 -0.3088464E+06 -0.3556381E+05 -0.2416586E-02 -0.1861572E-02  0.1531893E+07  0.1152616E+06
  0.1319048E+01 -0.3084207E+06 -0.3937686E+05  0.1179940E-01  0.1266479E-02  0.1528851E+07  0.1259397E+06
  0.1350000E+01 -0.3078492E+06 -0.4337890E+05  0.1085069E-01  0.5035400E-02  0.1525304E+07  0.1368258E+06
  0.1380952E+01 -0.3072458E+06 -0.4756568E+05  0.1325936E-03  0.2189636E-02  0.1521413E+07  0.1479130E+06
  0.1411905E+01 -0.3062557E+06 -0.5181486E+05 -0.1902074E-02 -0.1296997E-03  0.1517069E+07  0.1590156E+06
  0.1442857E+01 -0.3049499E+06 -0.5612245E+05 -0.1692064E-02 -0.2944946E-02  0.1511478E+07  0.1696668E+06
  0.1473810E+01 -0.3035152E+06 -0.6052266E+05 -0.1486733E-01 -0.9841919E-03  0.1505763E+07  0.1802175E+06
  0.1504762E+01 -0.3020975E+06 -0.6500262E+05 -0.1784699E-02  0.6103516E-03  0.1500010E+07  0.1905405E+06
  0.1535714E+01 -0.3001804E+06 -0.6937270E+05  0.9101335E-02  0.1655579E-02  0.1493022E+07  0.2000227E+06
  0.1566667E+01 -0.2983112E+06 -0.7380152E+05 -0.8220267E-02 -0.1068115E-03  0.1486286E+07  0.2092726E+06
  0.1597619E+01 -0.2963987E+06 -0.7819053E+05 -0.7602561E-02 -0.2365112E-03  0.1479311E+07  0.2179309E+06
  0.1628572E+01 -0.2943112E+06 -0.8250491E+05  0.1649020E-02 -0.9841919E-03  0.1472415E+07  0.2261465E+06
  0.1659524E+01 -0.2919010E+06 -0.8652634E+05  0.2280280E-02 -0.2136230E-03  0.1464772E+07  0.2330102E+06
  0.1690476E+01 -0.2893048E+06 -0.9032822E+05 -0.3610530E-04 -0.3890991E-03  0.1456971E+07  0.2389627E+06
  0.1721429E+01 -0.2868228E+06 -0.9403395E+05 -0.4963855E-03  0.9307861E-03  0.1449698E+07  0.2442900E+06
  0.1752381E+01 -0.2841780E+06 -0.9737910E+05  0.2925707E-02 -0.6561279E-03  0.1442220E+07  0.2483719E+06
  0.1783333E+01 -0.2813190E+06 -0.1002351E+06 -0.3148730E-02 -0.2899170E-03  0.1434375E+07  0.2505291E+06
  0.1814286E+01 -0.2785749E+06 -0.1029180E+06 -0.2489466E-02  0.1258850E-03  0.1427168E+07  0.2523226E+06
  0.1845238E+01 -0.2759078E+06 -0.1052609E+06 -0.2513861E-02  0.1258850E-03  0.1420108E+07  0.2527694E+06
  0.1876190E+01 -0.2731949E+06 -0.1072939E+06  0.4229086E-02  0.1525879E-04  0.1413540E+07  0.2526429E+06
  0.1907143E+01 -0.2704560E+06 -0.1088451E+06 -0.2368256E-02 -0.1907349E-04  0.1407181E+07  0.2512452E+06
  0.1938095E+01 -0.2675250E+06 -0.1095750E+06 -0.1209306E-01 -0.3433228E-04  0.1400561E+07  0.2473910E+06
  0.1969048E+01 -0.2648734E+06 -0.1103108E+06 -0.5703503E-02 -0.8010864E-04  0.1395046E+07  0.2441037E+06
  0.2000000E+01 -0.2624200E+06 -0.1107462E+06  0.4272461E-03 -0.1182556E-03  0.1390070E+07  0.2398352E+06
