VARIABLES="w (rad/s)"
"A   1   1" "B   1   1"
"A   1   2" "B   1   2"
"A   1   3" "B   1   3"
Zone t="Motion of body    1 in DoF   1",I=    64,F=POINT
  0.5000000E-01  0.8219234E+05  0.8330780E-02  0.4806519E-02  0.2913817E-05 -0.8718349E+05 -0.3163896E-02
  0.8095238E-01  0.8249719E+05  0.3665074E-01 -0.2968732E-02 -0.1800247E-04 -0.8742707E+05 -0.1364180E-01
  0.1119048E+00  0.8254776E+05  0.1025970E+00  0.3988388E-02 -0.3297679E-04 -0.8745245E+05 -0.3770971E-01
  0.1428571E+00  0.8263232E+05  0.2305783E+00 -0.5714416E-02 -0.7353933E-04 -0.8749625E+05 -0.8424529E-01
  0.1738095E+00  0.8273002E+05  0.4580252E+00 -0.2370338E-02  0.1601246E-04 -0.8738102E+05 -0.1656503E+00
  0.2047619E+00  0.8282915E+05  0.8427474E+00  0.1490393E-02 -0.2000201E-04 -0.8740029E+05 -0.3018625E+00
  0.2357143E+00  0.8290673E+05  0.1479262E+01 -0.1815796E-01 -0.1315782E-03 -0.8736530E+05 -0.5221670E+00
  0.2666667E+00  0.8306548E+05  0.2515173E+01  0.3433227E-02 -0.3421120E-04 -0.8723813E+05 -0.8712180E+00
  0.2976190E+00  0.8320223E+05  0.4201444E+01 -0.3742676E-02  0.3990717E-04 -0.8726873E+05 -0.1430762E+01
  0.3285715E+00  0.8333680E+05  0.6917587E+01  0.6571230E-02  0.3019534E-03 -0.8720209E+05 -0.2301839E+01
  0.3595238E+00  0.8354632E+05  0.1130243E+02  0.3183125E-02 -0.2950430E-03 -0.8707125E+05 -0.3664008E+01
  0.3904762E+00  0.8377173E+05  0.1832722E+02  0.4611131E-02  0.2216101E-03 -0.8701382E+05 -0.5780182E+01
  0.4214286E+00  0.8397809E+05  0.2929890E+02 -0.6155239E-02 -0.3597885E-03 -0.8702561E+05 -0.8968763E+01
  0.4523810E+00  0.8424330E+05  0.4642857E+02  0.8398758E-02  0.5234182E-03 -0.8686618E+05 -0.1373139E+02
  0.4833333E+00  0.8458818E+05  0.7172283E+02 -0.1079691E-01 -0.8911490E-03 -0.8667368E+05 -0.2036699E+02
  0.5142857E+00  0.8493493E+05  0.1089540E+03 -0.3145006E-02 -0.4782677E-03 -0.8661848E+05 -0.2971495E+02
  0.5452381E+00  0.8523409E+05  0.1614319E+03 -0.2401160E-01 -0.1330733E-02 -0.8664102E+05 -0.4217263E+02
  0.5761905E+00  0.8561450E+05  0.2334751E+03  0.1350592E-02 -0.1060486E-02 -0.8648812E+05 -0.5793814E+02
  0.6071429E+00  0.8610209E+05  0.3314110E+03 -0.1362161E-01 -0.2929688E-02 -0.8623005E+05 -0.7765788E+02
  0.6380953E+00  0.8658808E+05  0.4597675E+03 -0.1071304E-01 -0.2093077E-02 -0.8613250E+05 -0.1013687E+03
  0.6690477E+00  0.8704297E+05  0.6264073E+03 -0.8210422E-02 -0.1647949E-02 -0.8610110E+05 -0.1292934E+03
  0.7000000E+00  0.8753070E+05  0.8401012E+03 -0.2964565E-02  0.2746582E-03 -0.8595608E+05 -0.1609044E+03
  0.7309524E+00  0.8807592E+05  0.1108486E+04  0.1127262E-01  0.1653671E-02 -0.8572810E+05 -0.1948714E+03
  0.7619048E+00  0.8869975E+05  0.1442486E+04  0.2763748E-02  0.1287460E-02 -0.8543049E+05 -0.2297562E+03
  0.7928572E+00  0.8932705E+05  0.1853018E+04 -0.2886798E-02 -0.1430511E-03 -0.8515590E+05 -0.2638809E+03
  0.8238096E+00  0.8993331E+05  0.2351350E+04 -0.6779136E-02  0.2471924E-02 -0.8498203E+05 -0.2949977E+03
  0.8547620E+00  0.9048396E+05  0.2948446E+04 -0.1556651E-01 -0.5218506E-02 -0.8478838E+05 -0.3186510E+03
  0.8857143E+00  0.9106345E+05  0.3656478E+04  0.3755631E-02  0.2796173E-02 -0.8446173E+05 -0.3289067E+03
  0.9166667E+00  0.9166034E+05  0.4486940E+04  0.9987571E-03 -0.1411438E-02 -0.8404471E+05 -0.3198430E+03
  0.9476191E+00  0.9226041E+05  0.5450919E+04  0.1201227E-01  0.2048492E-02 -0.8357958E+05 -0.2843160E+03
  0.9785714E+00  0.9280011E+05  0.6558438E+04  0.2183009E-03  0.1773834E-02 -0.8311868E+05 -0.2142068E+03
  0.1009524E+01  0.9329539E+05  0.7818411E+04  0.6438922E-02  0.6256104E-03 -0.8267809E+05 -0.9930157E+02
  0.1040476E+01  0.9369059E+05  0.9236751E+04  0.6159383E-02  0.6599426E-02 -0.8226180E+05  0.7110938E+02
  0.1071429E+01  0.9399227E+05  0.1081538E+05  0.6665039E-02  0.1327515E-02 -0.8182266E+05  0.3083444E+03
  0.1102381E+01  0.9420877E+05  0.1255348E+05 -0.2436133E-02  0.5706787E-02 -0.8136023E+05  0.6220314E+03
  0.1133333E+01  0.9431135E+05  0.1444667E+05 -0.5277746E-02 -0.1480103E-02 -0.8085643E+05  0.1024687E+04
  0.1164286E+01  0.9431855E+05  0.1648679E+05 -0.4036558E-02 -0.4730225E-03 -0.8030977E+05  0.1530209E+04
  0.1195238E+01  0.9419778E+05  0.1866434E+05 -0.5106527E-02 -0.4348755E-02 -0.7978109E+05  0.2146622E+04
  0.1226190E+01  0.9395615E+05  0.2096227E+05 -0.5574939E-02  0.6103516E-03 -0.7927216E+05  0.2881222E+04
  0.1257143E+01  0.9356570E+05  0.2337448E+05  0.1068115E-02  0.2899170E-02 -0.7881027E+05  0.3741382E+04
  0.1288095E+01  0.9304707E+05  0.2583552E+05  0.4927940E-02  0.2273560E-02 -0.7836484E+05  0.4724555E+04
  0.1319048E+01  0.9239281E+05  0.2836377E+05  0.7912535E-02  0.1190186E-02 -0.7799311E+05  0.5836595E+04
  0.1350000E+01  0.9160580E+05  0.3091487E+05 -0.8318866E-02 -0.1281738E-02 -0.7766199E+05  0.7077195E+04
  0.1380952E+01  0.9068911E+05  0.3346209E+05  0.2607675E-02  0.2136230E-02 -0.7739312E+05  0.8437346E+04
  0.1411905E+01  0.8948192E+05  0.3587223E+05 -0.8905163E-02  0.3967285E-02 -0.7742280E+05  0.9883268E+04
  0.1442857E+01  0.8834690E+05  0.3832888E+05 -0.4230159E-04  0.7934570E-03 -0.7729275E+05  0.1146516E+05
  0.1473810E+01  0.8712875E+05  0.4070893E+05 -0.1615114E-02 -0.3143311E-02 -0.7728413E+05  0.1313005E+05
  0.1504762E+01  0.8581662E+05  0.4298547E+05  0.1338524E-02  0.1739502E-02 -0.7734323E+05  0.1487995E+05
  0.1535714E+01  0.8445739E+05  0.4513703E+05  0.9379542E-02 -0.2838135E-02 -0.7747454E+05  0.1669676E+05
  0.1566667E+01  0.8305277E+05  0.4715312E+05  0.4090654E-02  0.2624512E-02 -0.7770340E+05  0.1855483E+05
  0.1597619E+01  0.8161212E+05  0.4901755E+05  0.2292229E-02 -0.2014160E-02 -0.7799895E+05  0.2044716E+05
  0.1628572E+01  0.8016035E+05  0.5072259E+05  0.1911364E-02 -0.4333496E-02 -0.7837934E+05  0.2234969E+05
  0.1659524E+01  0.7870023E+05  0.5225552E+05 -0.3788208E-02  0.1220703E-03 -0.7880406E+05  0.2426613E+05
  0.1690476E+01  0.7727204E+05  0.5363841E+05 -0.1769160E-02 -0.8056641E-02 -0.7935836E+05  0.2613727E+05
  0.1721429E+01  0.7581759E+05  0.5484155E+05 -0.8119449E-02  0.2563477E-02 -0.7991043E+05  0.2802138E+05
  0.1752381E+01  0.7442445E+05  0.5589231E+05  0.5085158E-02  0.3234863E-02 -0.8056412E+05  0.2982771E+05
  0.1783333E+01  0.7306352E+05  0.5677070E+05 -0.2053519E-03  0.5676270E-02 -0.8122830E+05  0.3161285E+05
  0.1814286E+01  0.7173995E+05  0.5750295E+05 -0.2825880E-02  0.4699707E-02 -0.8195229E+05  0.3332152E+05
  0.1845238E+01  0.7046556E+05  0.5808629E+05  0.2745401E-02  0.2807617E-02 -0.8270670E+05  0.3495502E+05
  0.1876190E+01  0.6924506E+05  0.5852987E+05  0.4619463E-02  0.5554199E-02 -0.8349438E+05  0.3650500E+05
  0.1907143E+01  0.6806759E+05  0.5882420E+05  0.4768515E-02  0.2441406E-02 -0.8427469E+05  0.3799736E+05
  0.1938095E+01  0.6695883E+05  0.5901866E+05 -0.6298468E-03 -0.2075195E-02 -0.8510786E+05  0.3937873E+05
  0.1969048E+01  0.6589341E+05  0.5909558E+05 -0.3099730E-03  0.1831055E-02 -0.8594699E+05  0.4066082E+05
  0.2000000E+01  0.6487441E+05  0.5906739E+05  0.5279541E-02 -0.1098633E-02 -0.8678498E+05  0.4186063E+05
Zone t="Motion of body    1 in DoF   2",I=    64,F=POINT
  0.5000000E-01  0.1003265E-01 -0.1549721E-04  0.7372295E+05  0.2075553E+03 -0.1403809E-01 -0.1907349E-04
  0.8095238E-01 -0.5796096E-02 -0.3957748E-04  0.7277877E+05  0.3440399E+03 -0.2186495E-01 -0.1792908E-03
  0.1119048E+00 -0.5863271E-02  0.2241135E-04  0.7228460E+05  0.4924321E+03 -0.3545234E-02 -0.3290176E-03
  0.1428571E+00  0.8918762E-02 -0.1721382E-03  0.7202394E+05  0.6583862E+03  0.8438110E-02 -0.3051758E-04
  0.1738095E+00  0.1132495E-01  0.9632111E-04  0.7192752E+05  0.8487144E+03 -0.1106158E-01 -0.1335144E-03
  0.2047619E+00  0.1825732E-02 -0.1020432E-03  0.7198760E+05  0.1072272E+04  0.7601006E-02 -0.5722046E-05
  0.2357143E+00 -0.6667628E-02  0.1487732E-03  0.7215974E+05  0.1341259E+04  0.8285984E-02 -0.8392334E-04
  0.2666667E+00 -0.9441375E-02  0.9632111E-04  0.7239634E+05  0.1665688E+04 -0.1831055E-01  0.1792908E-03
  0.2976190E+00  0.3742676E-02  0.1239777E-03  0.7270749E+05  0.2068891E+04 -0.1620117E-01  0.2937317E-03
  0.3285715E+00 -0.6873088E-02  0.1163483E-03  0.7309270E+05  0.2562242E+04 -0.3176481E-01  0.9155273E-04
  0.3595238E+00  0.4711024E-02 -0.4959106E-04  0.7338862E+05  0.3173577E+04  0.3072776E-01 -0.8087158E-03
  0.3904762E+00 -0.2618185E-02 -0.2555847E-03  0.7369355E+05  0.3921770E+04  0.1594357E-01 -0.5035400E-03
  0.4214286E+00 -0.1412084E-01 -0.1335144E-03  0.7382256E+05  0.4799281E+04  0.2071057E-01 -0.2136230E-02
  0.4523810E+00 -0.5059493E-02  0.5455017E-03  0.7384770E+05  0.5850240E+04 -0.8769788E-02 -0.3662109E-03
  0.4833333E+00 -0.1452216E-02  0.7705688E-03  0.7358616E+05  0.6985033E+04  0.3788389E-02  0.1007080E-02
  0.5142857E+00 -0.1186795E-03  0.1312256E-02  0.7314152E+05  0.8257758E+04 -0.2622817E-01  0.5493164E-03
  0.5452381E+00 -0.1007480E-01  0.9384155E-03  0.7255489E+05  0.9595906E+04 -0.6940417E-02 -0.3997803E-02
  0.5761905E+00 -0.7838729E-02  0.2288818E-04  0.7176802E+05  0.1097473E+05  0.1440631E-01 -0.1220703E-02
  0.6071429E+00  0.7388843E-02 -0.1869202E-02  0.7080816E+05  0.1242612E+05  0.1849724E-01  0.6103516E-04
  0.6380953E+00 -0.2295651E-02  0.2471924E-02  0.6979623E+05  0.1386317E+05 -0.2678259E-01  0.9765625E-03
  0.6690477E+00  0.7115700E-02 -0.2670288E-02  0.6869551E+05  0.1531660E+05  0.2189446E-01  0.3906250E-02
  0.7000000E+00 -0.3836495E-02  0.2105713E-02  0.6749405E+05  0.1679143E+05 -0.6452288E-02 -0.1892090E-02
  0.7309524E+00  0.7389826E-02  0.1571655E-02  0.6623623E+05  0.1824352E+05  0.9018092E-02  0.1220703E-03
  0.7619048E+00  0.1261711E-01  0.2243042E-02  0.6491950E+05  0.1967632E+05 -0.1201630E-01 -0.3784180E-02
  0.7928572E+00 -0.4541895E-02  0.3906250E-02  0.6354487E+05  0.2108274E+05 -0.3079251E-03 -0.1831055E-03
  0.8238096E+00  0.4630557E-02  0.1937866E-02  0.6215664E+05  0.2244912E+05  0.9335203E-02  0.6103516E-03
  0.8547620E+00 -0.8497317E-02 -0.1251221E-02  0.6075696E+05  0.2376491E+05  0.6426543E-02 -0.2746582E-02
  0.8857143E+00  0.6580968E-02  0.1342773E-02  0.5934656E+05  0.2502349E+05  0.2205141E-02  0.3723145E-02
  0.9166667E+00  0.6025834E-02 -0.2532959E-02  0.5792514E+05  0.2621679E+05  0.2796520E-02 -0.7263184E-02
  0.9476191E+00  0.8952845E-02 -0.2166748E-02  0.5649290E+05  0.2733734E+05  0.1945150E-01 -0.3540039E-02
  0.9785714E+00  0.5925311E-02  0.4943848E-02  0.5506009E+05  0.2837761E+05 -0.1995894E-02  0.5187988E-02
  0.1009524E+01 -0.5743639E-02 -0.2716064E-02  0.5365859E+05  0.2932599E+05  0.1245463E-01 -0.7324219E-03
  0.1040476E+01  0.3079691E-02  0.1220703E-02  0.5229295E+05  0.3018520E+05 -0.2815718E-02  0.1464844E-02
  0.1071429E+01  0.1367188E-02 -0.4058838E-02  0.5096982E+05  0.3094943E+05 -0.5924480E-02  0.1220703E-02
  0.1102381E+01  0.5675083E-02 -0.5065918E-02  0.4968933E+05  0.3161865E+05 -0.1328800E-02  0.9277344E-02
  0.1133333E+01  0.2988928E-02 -0.9002686E-02  0.4843512E+05  0.3219701E+05  0.1249426E-01 -0.9765625E-03
  0.1164286E+01  0.8885670E-02  0.1556396E-02  0.4723887E+05  0.3267358E+05  0.7129505E-02  0.8178711E-02
  0.1195238E+01 -0.7557660E-02 -0.6408691E-03  0.4608765E+05  0.3305229E+05  0.5923571E-02  0.2563477E-02
  0.1226190E+01  0.3559001E-02  0.8544922E-03  0.4499643E+05  0.3332688E+05 -0.4579415E-02 -0.3662109E-03
  0.1257143E+01 -0.5826083E-03 -0.7781982E-02  0.4394978E+05  0.3351886E+05  0.7671009E-02  0.1220703E-03
  0.1288095E+01  0.1255677E-02  0.8239746E-03  0.4296909E+05  0.3359501E+05 -0.2274434E-02 -0.4516602E-02
  0.1319048E+01  0.2221063E-02 -0.2136230E-03  0.4204461E+05  0.3359739E+05  0.2221063E-02 -0.1953125E-02
  0.1350000E+01  0.3684715E-02  0.4150391E-02  0.4118718E+05  0.3351132E+05  0.7324219E-02  0.1342773E-02
  0.1380952E+01 -0.2673971E-02 -0.3662109E-03  0.4039548E+05  0.3333945E+05 -0.4684974E-02  0.6591797E-02
  0.1411905E+01  0.2442435E-02 -0.3051758E-02  0.3968254E+05  0.3320538E+05 -0.1270931E-01  0.2075195E-02
  0.1442857E+01 -0.3214921E-02  0.8239746E-03  0.3902067E+05  0.3288020E+05  0.1099841E-02 -0.4028320E-02
  0.1473810E+01  0.6460458E-02 -0.8911133E-02  0.3842861E+05  0.3248266E+05 -0.1068460E-01 -0.5493164E-02
  0.1504762E+01  0.9734721E-03 -0.3784180E-02  0.3789689E+05  0.3202364E+05 -0.7544409E-02 -0.4516602E-02
  0.1535714E+01  0.3020530E-02 -0.1617432E-02  0.3744147E+05  0.3149735E+05  0.3974382E-03  0.1342773E-02
  0.1566667E+01 -0.5278891E-02  0.7232666E-02  0.3705706E+05  0.3092371E+05 -0.1145383E-01 -0.3662109E-03
  0.1597619E+01  0.3514752E-02  0.8422852E-02  0.3673975E+05  0.3030919E+05 -0.1910191E-02 -0.2441406E-02
  0.1628572E+01  0.1574064E-02 -0.3967285E-03  0.3649143E+05  0.2968096E+05 -0.1064367E-01  0.4882812E-03
  0.1659524E+01  0.1103361E-02 -0.1831055E-02  0.3631006E+05  0.2903640E+05  0.1140140E-01  0.2075195E-02
  0.1690476E+01 -0.5560216E-02 -0.4608154E-02  0.3619613E+05  0.2838830E+05  0.7437692E-02 -0.1098633E-02
  0.1721429E+01 -0.7959897E-02 -0.3601074E-02  0.3612280E+05  0.2776151E+05 -0.5956626E-02 -0.4394531E-02
  0.1752381E+01  0.4667200E-02  0.2655029E-02  0.3612009E+05  0.2715684E+05  0.3134686E-02  0.7324219E-02
  0.1783333E+01  0.7906049E-02  0.8026123E-02  0.3616930E+05  0.2658766E+05 -0.8556331E-02  0.2685547E-02
  0.1814286E+01 -0.1682071E-02  0.1800537E-02  0.3625516E+05  0.2608227E+05  0.1675343E-01  0.2563477E-02
  0.1845238E+01  0.1207315E-02  0.5615234E-02  0.3637906E+05  0.2564778E+05 -0.6615424E-02  0.2807617E-02
  0.1876190E+01  0.4603197E-02  0.1037598E-02  0.3652233E+05  0.2530586E+05 -0.5009840E-02  0.3662109E-02
  0.1907143E+01 -0.1424154E-02  0.4150391E-02  0.3667774E+05  0.2505485E+05  0.3456373E-02  0.6103516E-03
  0.1938095E+01  0.2487895E-02 -0.3845215E-02  0.3683877E+05  0.2490124E+05  0.7558162E-03 -0.3051758E-02
  0.1969048E+01  0.9764149E-03 -0.3173828E-02  0.3698286E+05  0.2484323E+05  0.5207547E-02 -0.3784180E-02
  0.2000000E+01 -0.5371094E-02 -0.5371094E-02  0.3710255E+05  0.2487132E+05 -0.6469727E-02 -0.5859375E-02
Zone t="Motion of body    1 in DoF   3",I=    64,F=POINT
  0.5000000E-01 -0.8582581E+05 -0.2656764E-02 -0.2609253E-01 -0.6284696E-04  0.4850050E+06  0.1622462E-02
  0.8095238E-01 -0.8613579E+05 -0.1136964E-01 -0.8764828E-02 -0.1009697E-03  0.4847563E+06  0.4524589E-02
  0.1119048E+00 -0.8613699E+05 -0.3119061E-01 -0.2485072E-01 -0.2440390E-03  0.4850097E+06  0.1066438E-01
  0.1428571E+00 -0.8620590E+05 -0.6947106E-01  0.1965332E-01  0.1813667E-03  0.4846990E+06  0.2449436E-01
  0.1738095E+00 -0.8606209E+05 -0.1367223E+00  0.3480885E-01  0.1617224E-03  0.4851167E+06  0.4941766E-01
  0.2047619E+00 -0.8610688E+05 -0.2480285E+00  0.3800503E-01  0.5316758E-03  0.4847880E+06  0.9098554E-01
  0.2357143E+00 -0.8603654E+05 -0.4275543E+00  0.3084587E-01  0.4888994E-03  0.4850966E+06  0.1514683E+00
  0.2666667E+00 -0.8590578E+05 -0.7130433E+00  0.1201630E-02 -0.4377309E-04  0.4852228E+06  0.2463577E+00
  0.2976190E+00 -0.8595780E+05 -0.1165795E+01  0.1179199E-02 -0.7794332E-04  0.4848532E+06  0.3973238E+00
  0.3285715E+00 -0.8585023E+05 -0.1867748E+01  0.1806508E-01  0.2046721E-03  0.4852102E+06  0.6231149E+00
  0.3595238E+00 -0.8570590E+05 -0.2964315E+01 -0.6366249E-03  0.1181364E-03  0.4853880E+06  0.9566290E+00
  0.3904762E+00 -0.8567024E+05 -0.4648355E+01  0.4181280E-02 -0.7811561E-04  0.4851261E+06  0.1465057E+01
  0.4214286E+00 -0.8566641E+05 -0.7163211E+01 -0.2903825E-01 -0.2022479E-02  0.4850544E+06  0.2188280E+01
  0.4523810E+00 -0.8545938E+05 -0.1091882E+02 -0.1524594E-01 -0.1422711E-02  0.4855713E+06  0.3254449E+01
  0.4833333E+00 -0.8525919E+05 -0.1610660E+02 -0.7103229E-02 -0.1067452E-02  0.4857674E+06  0.4562445E+01
  0.5142857E+00 -0.8521956E+05 -0.2329515E+02  0.3234016E-02  0.1056790E-02  0.4855273E+06  0.6330789E+01
  0.5452381E+00 -0.8521745E+05 -0.3264807E+02  0.1572788E-01  0.1933217E-02  0.4854441E+06  0.8530285E+01
  0.5761905E+00 -0.8501710E+05 -0.4439499E+02  0.4592012E-01  0.6879151E-02  0.4859106E+06  0.1096840E+02
  0.6071429E+00 -0.8474327E+05 -0.5893571E+02  0.5840705E-01  0.1111820E-01  0.4862233E+06  0.1398018E+02
  0.6380953E+00 -0.8465623E+05 -0.7556258E+02 -0.4782605E-03 -0.6358027E-03  0.4860367E+06  0.1663777E+02
  0.6690477E+00 -0.8461264E+05 -0.9410285E+02  0.4771168E-01  0.1036876E-01  0.4857991E+06  0.1949288E+02
  0.7000000E+00 -0.8442249E+05 -0.1143546E+03 -0.6713867E-02 -0.2025664E-02  0.4860984E+06  0.2209514E+02
  0.7309524E+00 -0.8415478E+05 -0.1347554E+03 -0.2801454E-01 -0.6060958E-02  0.4865107E+06  0.2333935E+02
  0.7619048E+00 -0.8384001E+05 -0.1533851E+03 -0.4830551E-01 -0.1643288E-01  0.4867739E+06  0.2371973E+02
  0.7928572E+00 -0.8356330E+05 -0.1673956E+03  0.1216304E-01  0.9648085E-02  0.4867992E+06  0.2330267E+02
  0.8238096E+00 -0.8338266E+05 -0.1726956E+03  0.1822587E-01  0.1132739E-01  0.4865794E+06  0.2222135E+02
  0.8547620E+00 -0.8316056E+05 -0.1663307E+03  0.9568408E-02  0.7408500E-02  0.4865960E+06  0.1891379E+02
  0.8857143E+00 -0.8279603E+05 -0.1443876E+03  0.1226610E-01  0.8622766E-02  0.4869712E+06  0.1225859E+02
  0.9166667E+00 -0.8234742E+05 -0.1001142E+03 -0.2546830E-01 -0.9790003E-02  0.4874568E+06  0.3497039E+01
  0.9476191E+00 -0.8186958E+05 -0.2464333E+02  0.1117495E-01  0.5870089E-02  0.4877797E+06 -0.5382598E+01
  0.9785714E+00 -0.8140823E+05  0.9143453E+02 -0.7235116E-02 -0.1257062E-02  0.4879963E+06 -0.1025615E+02
  0.1009524E+01 -0.8097057E+05  0.2609668E+03 -0.6227314E-02 -0.2538204E-02  0.4880083E+06 -0.6362144E+01
  0.1040476E+01 -0.8055134E+05  0.4932682E+03 -0.1460654E-01 -0.2785206E-02  0.4880451E+06  0.1071246E+02
  0.1071429E+01 -0.8010445E+05  0.7945394E+03 -0.4101563E-02 -0.5997181E-02  0.4882494E+06  0.3856539E+02
  0.1102381E+01 -0.7962766E+05  0.1173832E+04 -0.2325400E-02 -0.7267952E-02  0.4886246E+06  0.7751253E+02
  0.1133333E+01 -0.7912213E+05  0.1640894E+04  0.2154182E-02  0.6237030E-03  0.4891145E+06  0.1373101E+03
  0.1164286E+01 -0.7857423E+05  0.2214249E+04 -0.4875323E-02 -0.7009506E-02  0.4895428E+06  0.2303573E+03
  0.1195238E+01 -0.7805788E+05  0.2900382E+04  0.1531958E-02  0.8384705E-02  0.4899694E+06  0.3656194E+03
  0.1226190E+01 -0.7756628E+05  0.3705423E+04 -0.1239428E-01 -0.1048660E-01  0.4903622E+06  0.5417901E+03
  0.1257143E+01 -0.7713225E+05  0.4646080E+04  0.1631303E-01  0.5653381E-02  0.4906439E+06  0.7604844E+03
  0.1288095E+01 -0.7672638E+05  0.5682890E+04  0.1412044E-01  0.1378632E-01  0.4910417E+06  0.1033031E+04
  0.1319048E+01 -0.7639175E+05  0.6858843E+04 -0.5460112E-02 -0.1158142E-01  0.4914228E+06  0.1380355E+04
  0.1350000E+01 -0.7609877E+05  0.8154652E+04 -0.8951822E-02 -0.4791260E-02  0.4918465E+06  0.1811188E+04
  0.1380952E+01 -0.7586817E+05  0.9558459E+04 -0.2528118E-01 -0.1452637E-01  0.4923348E+06  0.2325238E+04
  0.1411905E+01 -0.7666070E+05  0.1043578E+05 -0.2939568E-02 -0.3189087E-02  0.4916073E+06  0.2760486E+04
  0.1442857E+01 -0.7654542E+05  0.1200681E+05  0.1907802E-01  0.6484985E-02  0.4920569E+06  0.3456963E+04
  0.1473810E+01 -0.7654129E+05  0.1366596E+05  0.4099906E-02  0.9063721E-02  0.4924978E+06  0.4260809E+04
  0.1504762E+01 -0.7661176E+05  0.1539307E+05 -0.2555364E-02 -0.5310059E-02  0.4929219E+06  0.5156006E+04
  0.1535714E+01 -0.7673691E+05  0.1719270E+05  0.3139762E-02 -0.4119873E-03  0.4932685E+06  0.6129913E+04
  0.1566667E+01 -0.7695731E+05  0.1902676E+05 -0.5142536E-02  0.1098633E-02  0.4936306E+06  0.7218617E+04
  0.1597619E+01 -0.7724019E+05  0.2088722E+05 -0.1864346E-01 -0.7232666E-02  0.4939720E+06  0.8406050E+04
  0.1628572E+01 -0.7759483E+05  0.2276428E+05  0.2998218E-02  0.5187988E-03  0.4942662E+06  0.9683119E+04
  0.1659524E+01 -0.7799123E+05  0.2464949E+05 -0.7502858E-02 -0.1312256E-02  0.4945226E+06  0.1105711E+05
  0.1690476E+01 -0.7849628E+05  0.2652890E+05  0.1242022E-01  0.8544922E-02  0.4946970E+06  0.1249970E+05
  0.1721429E+01 -0.7902177E+05  0.2837216E+05  0.7729432E-02 -0.7232666E-02  0.4948695E+06  0.1403297E+05
  0.1752381E+01 -0.7962064E+05  0.3018446E+05 -0.1003100E-01 -0.2227783E-02  0.4949986E+06  0.1562032E+05
  0.1783333E+01 -0.8022877E+05  0.3198032E+05  0.6639712E-02  0.8392334E-02  0.4950229E+06  0.1723394E+05
  0.1814286E+01 -0.8089455E+05  0.3370889E+05  0.2422183E-02 -0.9155273E-03  0.4950279E+06  0.1890548E+05
  0.1845238E+01 -0.8158463E+05  0.3537721E+05 -0.1455393E-02  0.1263428E-01  0.4950153E+06  0.2063157E+05
  0.1876190E+01 -0.8229994E+05  0.3698815E+05 -0.4749589E-02  0.2014160E-02  0.4949245E+06  0.2237525E+05
  0.1907143E+01 -0.8301270E+05  0.3853712E+05 -0.1651378E-01 -0.3265381E-02  0.4948451E+06  0.2421452E+05
  0.1938095E+01 -0.8376991E+05  0.4003592E+05  0.7558162E-02  0.7385254E-02  0.4946511E+06  0.2598733E+05
  0.1969048E+01 -0.8454036E+05  0.4143698E+05 -0.1326684E-01 -0.1586914E-02  0.4944803E+06  0.2787715E+05
  0.2000000E+01 -0.8531850E+05  0.4276638E+05  0.5187988E-02 -0.4516602E-02  0.4942520E+06  0.2972980E+05
