VARIABLES="w (rad/s)"
"abs(F   1   1)" "angle(F   1   1)"
"abs(F   1   2)" "angle(F   1   2)"
"abs(F   1   3)" "angle(F   1   3)"
Zone t="Diffraction force - beta =   0.000 deg",I=    64,F=POINT
  0.5000000E-01  0.1006907E+04 -0.1570789E+01  0.1503691E+06 -0.1072753E-04  0.8255557E+03  0.1570799E+01
  0.8095238E-01  0.1644199E+04 -0.1570799E+01  0.1501847E+06 -0.2887657E-04  0.1350054E+04  0.1570796E+01
  0.1119048E+00  0.2298344E+04 -0.1570798E+01  0.1499137E+06 -0.5739150E-04  0.1886603E+04  0.1570800E+01
  0.1428571E+00  0.2972805E+04 -0.1570790E+01  0.1495555E+06 -0.9852098E-04  0.2438719E+04  0.1570789E+01
  0.1738095E+00  0.3677957E+04 -0.1570799E+01  0.1491100E+06 -0.1556763E-03  0.3012039E+04  0.1570801E+01
  0.2047619E+00  0.4418114E+04 -0.1570785E+01  0.1485758E+06 -0.2337424E-03  0.3614770E+04  0.1570798E+01
  0.2357143E+00  0.5208316E+04 -0.1570787E+01  0.1479531E+06 -0.3400453E-03  0.4252952E+04  0.1570808E+01
  0.2666667E+00  0.6056909E+04 -0.1570779E+01  0.1472407E+06 -0.4835902E-03  0.4936759E+04  0.1570810E+01
  0.2976190E+00  0.6975341E+04 -0.1570776E+01  0.1464372E+06 -0.6794000E-03  0.5675617E+04  0.1570816E+01
  0.3285715E+00  0.7980732E+04 -0.1570764E+01  0.1455429E+06 -0.9434164E-03  0.6479818E+04  0.1570826E+01
  0.3595238E+00  0.9090767E+04 -0.1570748E+01  0.1445584E+06 -0.1300280E-02  0.7359670E+04  0.1570843E+01
  0.3904762E+00  0.1031213E+05 -0.1570730E+01  0.1434818E+06 -0.1778438E-02  0.8328476E+04  0.1570863E+01
  0.4214286E+00  0.1166338E+05 -0.1570700E+01  0.1423190E+06 -0.2397484E-02  0.9396944E+04  0.1570894E+01
  0.4523810E+00  0.1315713E+05 -0.1570649E+01  0.1410710E+06 -0.3206002E-02  0.1056322E+05  0.1570944E+01
  0.4833333E+00  0.1479167E+05 -0.1570580E+01  0.1397433E+06 -0.4188075E-02  0.1183230E+05  0.1571010E+01
  0.5142857E+00  0.1655836E+05 -0.1570487E+01  0.1383364E+06 -0.5400440E-02  0.1320235E+05  0.1571106E+01
  0.5452381E+00  0.1845005E+05 -0.1570359E+01  0.1368557E+06 -0.6832199E-02  0.1465911E+05  0.1571233E+01
  0.5761905E+00  0.2046918E+05 -0.1570193E+01  0.1353073E+06 -0.8492415E-02  0.1618944E+05  0.1571401E+01
  0.6071429E+00  0.2260102E+05 -0.1569977E+01  0.1336926E+06 -0.1043055E-01  0.1779711E+05  0.1571616E+01
  0.6380953E+00  0.2481984E+05 -0.1569703E+01  0.1320075E+06 -0.1261177E-01  0.1947009E+05  0.1571889E+01
  0.6690477E+00  0.2712831E+05 -0.1569362E+01  0.1302595E+06 -0.1508752E-01  0.2118807E+05  0.1572229E+01
  0.7000000E+00  0.2953936E+05 -0.1568938E+01  0.1284586E+06 -0.1789157E-01  0.2295553E+05  0.1572653E+01
  0.7309524E+00  0.3203270E+05 -0.1568422E+01  0.1266033E+06 -0.2101306E-01  0.2476015E+05  0.1573168E+01
  0.7619048E+00  0.3460808E+05 -0.1567797E+01  0.1246953E+06 -0.2448670E-01  0.2660459E+05  0.1573794E+01
  0.7928572E+00  0.3725343E+05 -0.1567048E+01  0.1227394E+06 -0.2833609E-01  0.2848735E+05  0.1574544E+01
  0.8238096E+00  0.3995363E+05 -0.1566155E+01  0.1207400E+06 -0.3257853E-01  0.3039217E+05  0.1575436E+01
  0.8547620E+00  0.4273912E+05 -0.1565104E+01  0.1187015E+06 -0.3722875E-01  0.3232302E+05  0.1576487E+01
  0.8857143E+00  0.4558785E+05 -0.1563874E+01  0.1166310E+06 -0.4230632E-01  0.3425405E+05  0.1577717E+01
  0.9166667E+00  0.4851448E+05 -0.1562445E+01  0.1145314E+06 -0.4782538E-01  0.3620416E+05  0.1579144E+01
  0.9476191E+00  0.5148110E+05 -0.1560797E+01  0.1124090E+06 -0.5380240E-01  0.3815916E+05  0.1580791E+01
  0.9785714E+00  0.5450495E+05 -0.1558907E+01  0.1102617E+06 -0.6024894E-01  0.4013329E+05  0.1582680E+01
  0.1009524E+01  0.5755653E+05 -0.1556754E+01  0.1080931E+06 -0.6718576E-01  0.4209204E+05  0.1584830E+01
  0.1040476E+01  0.6065768E+05 -0.1554318E+01  0.1059049E+06 -0.7462511E-01  0.4403748E+05  0.1587262E+01
  0.1071429E+01  0.6380212E+05 -0.1551579E+01  0.1037077E+06 -0.8258390E-01  0.4598149E+05  0.1589998E+01
  0.1102381E+01  0.6695563E+05 -0.1548515E+01  0.1015100E+06 -0.9108239E-01  0.4786711E+05  0.1593056E+01
  0.1133333E+01  0.7016624E+05 -0.1545108E+01  0.9930878E+05 -0.1001204E+00  0.4974931E+05  0.1596457E+01
  0.1164286E+01  0.7337424E+05 -0.1541337E+01  0.9710514E+05 -0.1097177E+00  0.5157600E+05  0.1600221E+01
  0.1195238E+01  0.7659907E+05 -0.1537186E+01  0.9489978E+05 -0.1198816E+00  0.5337088E+05  0.1604362E+01
  0.1226190E+01  0.7982013E+05 -0.1532640E+01  0.9269668E+05 -0.1306279E+00  0.5513311E+05  0.1608897E+01
  0.1257143E+01  0.8295795E+05 -0.1527690E+01  0.9050344E+05 -0.1421023E+00  0.5681135E+05  0.1613833E+01
  0.1288095E+01  0.8615373E+05 -0.1522321E+01  0.8830785E+05 -0.1539638E+00  0.5845989E+05  0.1619183E+01
  0.1319048E+01  0.8928323E+05 -0.1516550E+01  0.8612318E+05 -0.1665865E+00  0.6001397E+05  0.1624932E+01
  0.1350000E+01  0.9235139E+05 -0.1510371E+01  0.8395438E+05 -0.1798761E+00  0.6147018E+05  0.1631086E+01
  0.1380952E+01  0.9537740E+05 -0.1503801E+01  0.8179721E+05 -0.1938365E+00  0.6282998E+05  0.1637626E+01
  0.1411905E+01  0.9807710E+05 -0.1497263E+01  0.7968862E+05 -0.2082120E+00  0.6404887E+05  0.1644131E+01
  0.1442857E+01  0.1009272E+06 -0.1489978E+01  0.7757481E+05 -0.2235721E+00  0.6520579E+05  0.1651374E+01
  0.1473810E+01  0.1036615E+06 -0.1482349E+01  0.7548195E+05 -0.2396721E+00  0.6623513E+05  0.1658951E+01
  0.1504762E+01  0.1062991E+06 -0.1474413E+01  0.7340439E+05 -0.2565356E+00  0.6717288E+05  0.1666826E+01
  0.1535714E+01  0.1087797E+06 -0.1466209E+01  0.7134623E+05 -0.2742106E+00  0.6796417E+05  0.1674955E+01
  0.1566667E+01  0.1111085E+06 -0.1457789E+01  0.6930216E+05 -0.2927293E+00  0.6862749E+05  0.1683288E+01
  0.1597619E+01  0.1132601E+06 -0.1449230E+01  0.6727723E+05 -0.3121869E+00  0.6913157E+05  0.1691736E+01
  0.1628572E+01  0.1152400E+06 -0.1440586E+01  0.6527482E+05 -0.3325945E+00  0.6950455E+05  0.1700252E+01
  0.1659524E+01  0.1170181E+06 -0.1431936E+01  0.6329436E+05 -0.3540430E+00  0.6972145E+05  0.1708759E+01
  0.1690476E+01  0.1185640E+06 -0.1423366E+01  0.6135221E+05 -0.3765939E+00  0.6975349E+05  0.1717158E+01
  0.1721429E+01  0.1199312E+06 -0.1414967E+01  0.5943385E+05 -0.4003204E+00  0.6966044E+05  0.1725386E+01
  0.1752381E+01  0.1210863E+06 -0.1406846E+01  0.5754717E+05 -0.4252713E+00  0.6940538E+05  0.1733306E+01
  0.1783333E+01  0.1219903E+06 -0.1399060E+01  0.5569982E+05 -0.4515409E+00  0.6897213E+05  0.1740868E+01
  0.1814286E+01  0.1226894E+06 -0.1391713E+01  0.5387440E+05 -0.4792625E+00  0.6841373E+05  0.1747976E+01
  0.1845238E+01  0.1231574E+06 -0.1384925E+01  0.5208423E+05 -0.5085498E+00  0.6769890E+05  0.1754480E+01
  0.1876190E+01  0.1234115E+06 -0.1378747E+01  0.5033027E+05 -0.5395286E+00  0.6687312E+05  0.1760360E+01
  0.1907143E+01  0.1234440E+06 -0.1373251E+01  0.4861563E+05 -0.5724000E+00  0.6594198E+05  0.1765571E+01
  0.1938095E+01  0.1232217E+06 -0.1368599E+01  0.4695748E+05 -0.6072369E+00  0.6483845E+05  0.1769837E+01
  0.1969048E+01  0.1228124E+06 -0.1364815E+01  0.4534466E+05 -0.6443182E+00  0.6365876E+05  0.1773263E+01
  0.2000000E+01  0.1222232E+06 -0.1362000E+01  0.4378380E+05 -0.6837642E+00  0.6240024E+05  0.1775710E+01
