VARIABLES="w (rad/s)"
"A   1   1" "B   1   1"
"A   1   2" "B   1   2"
"A   1   3" "B   1   3"
Zone t="Motion of body    1 in DoF   1",I=    64,F=POINT
  0.5000000E-01  0.3732564E+05  0.1131623E-02 -0.5092621E-02 -0.1713138E-04 -0.7674123E+05 -0.2227955E-02
  0.8095238E-01  0.3759173E+05  0.4705699E-02 -0.2285452E-02 -0.8601653E-05 -0.7724916E+05 -0.9148986E-02
  0.1119048E+00  0.3768107E+05  0.1329332E-01 -0.2045327E-02 -0.9946096E-05 -0.7737383E+05 -0.2562063E-01
  0.1428571E+00  0.3775323E+05  0.2973713E-01 -0.1348495E-02 -0.5755079E-05 -0.7745089E+05 -0.5717266E-01
  0.1738095E+00  0.3782753E+05  0.5920216E-01 -0.5245470E-02 -0.6095000E-04 -0.7752358E+05 -0.1136342E+00
  0.2047619E+00  0.3780841E+05  0.1092641E+00 -0.4098582E-03 -0.5582813E-05 -0.7751917E+05 -0.2096007E+00
  0.2357143E+00  0.3791425E+05  0.1923703E+00  0.2136230E-02  0.8804724E-05 -0.7757978E+05 -0.3681814E+00
  0.2666667E+00  0.3790703E+05  0.3274128E+00 -0.2803802E-02 -0.3907038E-04 -0.7761142E+05 -0.6253566E+00
  0.2976190E+00  0.3793383E+05  0.5479156E+00 -0.1307373E-02 -0.2854643E-04 -0.7765566E+05 -0.1044010E+01
  0.3285715E+00  0.3804196E+05  0.9055199E+00 -0.4551099E-02 -0.8022133E-04 -0.7772002E+05 -0.1719297E+01
  0.3595238E+00  0.3809071E+05  0.1483842E+01 -0.2546500E-02 -0.8258689E-04 -0.7778541E+05 -0.2808238E+01
  0.3904762E+00  0.3809384E+05  0.2411249E+01 -0.1289554E-02 -0.3193319E-04 -0.7781259E+05 -0.4548138E+01
  0.4214286E+00  0.3823625E+05  0.3873025E+01 -0.1466395E-02 -0.3200397E-04 -0.7796000E+05 -0.7272379E+01
  0.4523810E+00  0.3830237E+05  0.6160385E+01  0.3204345E-03 -0.1465082E-03 -0.7803108E+05 -0.1152050E+02
  0.4833333E+00  0.3840495E+05  0.9558847E+01  0.1862625E-02  0.4309416E-04 -0.7815587E+05 -0.1779345E+02
  0.5142857E+00  0.3844443E+05  0.1457526E+02 -0.1349979E-02 -0.3246963E-04 -0.7822692E+05 -0.2701377E+02
  0.5452381E+00  0.3859766E+05  0.2172072E+02 -0.4855494E-02 -0.5532056E-03 -0.7836891E+05 -0.4003085E+02
  0.5761905E+00  0.3874482E+05  0.3159972E+02 -0.2648219E-02 -0.4482716E-03 -0.7855588E+05 -0.5791870E+02
  0.6071429E+00  0.3883398E+05  0.4509147E+02 -0.4046272E-02 -0.5497336E-03 -0.7868927E+05 -0.8221008E+02
  0.6380953E+00  0.3895736E+05  0.6293983E+02 -0.1602173E-02 -0.1071692E-03 -0.7884122E+05 -0.1140762E+03
  0.6690477E+00  0.3911896E+05  0.8637069E+02  0.1528051E-02 -0.1180172E-04 -0.7903709E+05 -0.1555527E+03
  0.7000000E+00  0.3929498E+05  0.1167639E+03  0.4359654E-04 -0.2506971E-03 -0.7925570E+05 -0.2089152E+03
  0.7309524E+00  0.3948191E+05  0.1554164E+03  0.9602599E-03  0.2735853E-03 -0.7944405E+05 -0.2760862E+03
  0.7619048E+00  0.3967527E+05  0.2041321E+03 -0.1021385E-02 -0.2937317E-03 -0.7971052E+05 -0.3601209E+03
  0.7928572E+00  0.3979773E+05  0.2646243E+03  0.1135474E-02  0.2249479E-03 -0.7988332E+05 -0.4636039E+03
  0.8238096E+00  0.3999070E+05  0.3394256E+03 -0.8705448E-03 -0.4360676E-03 -0.8011191E+05 -0.5901075E+03
  0.8547620E+00  0.4028304E+05  0.4312350E+03 -0.3141865E-02 -0.8270741E-03 -0.8042022E+05 -0.7433456E+03
  0.8857143E+00  0.4052330E+05  0.5421848E+03  0.6374236E-03  0.2827644E-03 -0.8071240E+05 -0.9269620E+03
  0.9166667E+00  0.4073863E+05  0.6752050E+03 -0.1664595E-03  0.6437302E-04 -0.8095191E+05 -0.1144591E+04
  0.9476191E+00  0.4096883E+05  0.8337170E+03 -0.1658531E-02 -0.5578995E-03 -0.8121373E+05 -0.1400966E+04
  0.9785714E+00  0.4122289E+05  0.1021272E+04 -0.2541647E-02 -0.2361774E-02 -0.8149571E+05 -0.1700541E+04
  0.1009524E+01  0.4147981E+05  0.1241340E+04 -0.1692862E-02 -0.1816750E-02 -0.8181238E+05 -0.2048298E+04
  0.1040476E+01  0.4172549E+05  0.1497599E+04 -0.1466520E-02 -0.1369476E-02 -0.8204671E+05 -0.2447073E+04
  0.1071429E+01  0.4201993E+05  0.1795424E+04 -0.2421061E-02 -0.8544922E-03 -0.8235627E+05 -0.2904676E+04
  0.1102381E+01  0.4229955E+05  0.2137939E+04 -0.2546866E-02 -0.1808167E-02 -0.8260398E+05 -0.3422915E+04
  0.1133333E+01  0.4261957E+05  0.2530928E+04 -0.4227582E-02 -0.3387451E-02 -0.8289447E+05 -0.4008751E+04
  0.1164286E+01  0.4291009E+05  0.2977331E+04 -0.1336782E-02 -0.2599716E-02 -0.8317895E+05 -0.4666073E+04
  0.1195238E+01  0.4314754E+05  0.3480110E+04 -0.2808590E-02 -0.5798340E-03 -0.8335888E+05 -0.5394079E+04
  0.1226190E+01  0.4337389E+05  0.4045048E+04 -0.1468399E-02 -0.1411438E-02 -0.8354600E+05 -0.6200916E+04
  0.1257143E+01  0.4355662E+05  0.4673218E+04 -0.1772100E-02 -0.4100800E-02 -0.8367208E+05 -0.7084055E+04
  0.1288095E+01  0.4382299E+05  0.5377118E+04 -0.2463970E-02 -0.1159668E-02 -0.8381449E+05 -0.8051573E+04
  0.1319048E+01  0.4409206E+05  0.6155152E+04 -0.2845736E-02 -0.4375458E-02 -0.8396812E+05 -0.9104192E+04
  0.1350000E+01  0.4430200E+05  0.7008172E+04  0.1672815E-02  0.3036499E-02 -0.8405873E+05 -0.1024077E+05
  0.1380952E+01  0.4446046E+05  0.7936744E+04 -0.1259639E-02 -0.2189636E-02 -0.8403553E+05 -0.1145061E+05
  0.1411905E+01  0.4437021E+05  0.8876651E+04 -0.2053375E-02 -0.4554749E-02 -0.8386509E+05 -0.1266851E+05
  0.1442857E+01  0.4447459E+05  0.9956660E+04 -0.2178532E-02 -0.2685547E-02 -0.8379119E+05 -0.1402812E+05
  0.1473810E+01  0.4452401E+05  0.1111108E+05 -0.3085283E-02 -0.4287720E-02 -0.8359661E+05 -0.1544303E+05
  0.1504762E+01  0.4455803E+05  0.1234401E+05 -0.2190312E-02 -0.4653931E-03 -0.8338633E+05 -0.1692153E+05
  0.1535714E+01  0.4454439E+05  0.1364994E+05 -0.2384629E-03 -0.4142761E-02 -0.8315317E+05 -0.1845832E+05
  0.1566667E+01  0.4443666E+05  0.1501551E+05 -0.2805020E-02 -0.1983643E-02 -0.8280346E+05 -0.2002558E+05
  0.1597619E+01  0.4425381E+05  0.1643125E+05 -0.3648465E-02 -0.4898071E-02 -0.8231280E+05 -0.2159267E+05
  0.1628572E+01  0.4405159E+05  0.1790721E+05 -0.2098753E-02 -0.1998901E-02 -0.8182231E+05 -0.2319354E+05
  0.1659524E+01  0.4381950E+05  0.1943325E+05 -0.2721625E-02 -0.7049561E-02 -0.8131722E+05 -0.2480923E+05
  0.1690476E+01  0.4350474E+05  0.2097951E+05 -0.1047054E-02  0.3051758E-03 -0.8066084E+05 -0.2637280E+05
  0.1721429E+01  0.4316677E+05  0.2255745E+05 -0.1560069E-02 -0.3372192E-02 -0.8000223E+05 -0.2792504E+05
  0.1752381E+01  0.4279135E+05  0.2415022E+05 -0.2577409E-02 -0.7431030E-02 -0.7933291E+05 -0.2944218E+05
  0.1783333E+01  0.4233125E+05  0.2573534E+05 -0.2395772E-03 -0.2227783E-02 -0.7860434E+05 -0.3090319E+05
  0.1814286E+01  0.4180864E+05  0.2729711E+05 -0.2085768E-02  0.6103516E-03 -0.7780823E+05 -0.3227128E+05
  0.1845238E+01  0.4120697E+05  0.2880699E+05 -0.1720010E-02 -0.2441406E-03 -0.7689895E+05 -0.3349242E+05
  0.1876190E+01  0.4059228E+05  0.3029114E+05 -0.1171132E-02 -0.3845215E-02 -0.7602327E+05 -0.3465493E+05
  0.1907143E+01  0.3996161E+05  0.3173791E+05  0.6720725E-03  0.2380371E-02 -0.7518060E+05 -0.3574241E+05
  0.1938095E+01  0.3927039E+05  0.3309182E+05 -0.1574617E-02 -0.2899170E-02 -0.7424155E+05 -0.3663329E+05
  0.1969048E+01  0.3856693E+05  0.3437905E+05 -0.1766846E-02 -0.3234863E-02 -0.7332077E+05 -0.3741255E+05
  0.2000000E+01  0.3786044E+05  0.3559339E+05  0.3662109E-03  0.4272461E-03 -0.7242977E+05 -0.3807062E+05
Zone t="Motion of body    1 in DoF   2",I=    64,F=POINT
  0.5000000E-01 -0.2708435E-02 -0.7033348E-05  0.1089403E+05  0.2669995E+02  0.7410049E-02 -0.2644956E-05
  0.8095238E-01 -0.1366559E-02 -0.8344650E-05  0.1079170E+05  0.4430909E+02  0.3749202E-02  0.4875660E-04
  0.1119048E+00 -0.5113318E-03  0.3147125E-04  0.1073134E+05  0.6353094E+02 -0.2398998E-02 -0.1561642E-04
  0.1428571E+00  0.1441955E-02  0.2384186E-06  0.1070992E+05  0.8513253E+02  0.8995533E-02 -0.2795458E-04
  0.1738095E+00 -0.2633709E-02  0.5245209E-05  0.1071252E+05  0.1100599E+03 -0.2493793E-02  0.4056096E-04
  0.2047619E+00  0.1900251E-02  0.8583069E-05  0.1073617E+05  0.1395321E+03  0.4294196E-02  0.3570318E-04
  0.2357143E+00 -0.6473425E-04  0.4291534E-05  0.1077387E+05  0.1752439E+03 -0.5429585E-02  0.9483099E-04
  0.2666667E+00 -0.8869171E-03  0.8201599E-04  0.1082858E+05  0.2186867E+03  0.1546383E-01  0.1323819E-03
  0.2976190E+00  0.1333008E-02  0.2861023E-05  0.1089360E+05  0.2730946E+03 -0.6854095E-02  0.6520748E-04
  0.3285715E+00 -0.6315811E-02  0.6103516E-04  0.1096751E+05  0.3403512E+03  0.4176678E-02 -0.2863407E-03
  0.3595238E+00  0.6408691E-02  0.6294250E-04  0.1103942E+05  0.4244631E+03  0.2127388E-02 -0.1728535E-04
  0.3904762E+00 -0.8987798E-03  0.1049042E-03  0.1111723E+05  0.5286265E+03 -0.5104483E-02 -0.2782345E-03
  0.4214286E+00  0.2679340E-02  0.1373291E-03  0.1116872E+05  0.6524471E+03  0.6743608E-03  0.2532005E-03
  0.4523810E+00 -0.3710295E-02 -0.7247925E-04  0.1120508E+05  0.8024341E+03 -0.2736342E-02 -0.3066063E-03
  0.4833333E+00  0.3093851E-02 -0.1335144E-03  0.1121823E+05  0.9676578E+03 -0.5493164E-02 -0.7214546E-03
  0.5142857E+00 -0.5340577E-03  0.1907349E-04  0.1120145E+05  0.1155815E+04  0.5322033E-02 -0.1754761E-03
  0.5452381E+00 -0.5037399E-03 -0.1144409E-03  0.1115947E+05  0.1357929E+04  0.1031967E-02  0.4401207E-03
  0.5761905E+00 -0.1218181E-02 -0.3814697E-03  0.1109299E+05  0.1571024E+04 -0.3207656E-02  0.1945496E-02
  0.6071429E+00  0.1507927E-03 -0.1831055E-03  0.1100733E+05  0.1799710E+04  0.1143512E-02 -0.5331039E-03
  0.6380953E+00 -0.2104346E-02 -0.3814697E-03  0.1091424E+05  0.2033384E+04  0.2020651E-02  0.1082420E-02
  0.6690477E+00  0.5017481E-03 -0.5035400E-03  0.1079882E+05  0.2276261E+04 -0.8455595E-02 -0.8201599E-04
  0.7000000E+00 -0.9155273E-03 -0.4959106E-03  0.1066453E+05  0.2529060E+04  0.5722045E-02 -0.1688957E-02
  0.7309524E+00 -0.3507036E-02  0.1983643E-03  0.1052235E+05  0.2786071E+04  0.1235291E-01 -0.3538132E-03
  0.7619048E+00 -0.8010864E-04  0.5187988E-03  0.1037448E+05  0.3047858E+04 -0.7164716E-02 -0.2775192E-03
  0.7928572E+00 -0.1077738E-02  0.4882812E-03  0.1021005E+05  0.3314274E+04  0.2357551E-03  0.1256943E-02
  0.8238096E+00 -0.7408892E-03  0.3967285E-03  0.1003581E+05  0.3583128E+04 -0.4598143E-02 -0.7057190E-04
  0.8547620E+00  0.2499211E-03  0.8087158E-03  0.9854188E+04  0.3852168E+04 -0.1207654E-01  0.2861023E-02
  0.8857143E+00  0.1343758E-02  0.1647949E-02  0.9662785E+04  0.4120450E+04 -0.5082161E-03 -0.1756668E-02
  0.9166667E+00  0.2030806E-02  0.8087158E-03  0.9464325E+04  0.4386476E+04  0.3245960E-03 -0.1361847E-02
  0.9476191E+00 -0.9661344E-03 -0.1861572E-02  0.9261281E+04  0.4648475E+04  0.3176167E-02 -0.5016327E-03
  0.9785714E+00 -0.1684036E-02  0.2136230E-03  0.9056001E+04  0.4905100E+04  0.4709063E-02  0.2077103E-02
  0.1009524E+01  0.5139046E-03 -0.1586914E-02  0.8848112E+04  0.5155297E+04  0.2437268E-02  0.1932144E-02
  0.1040476E+01 -0.3255674E-02  0.1708984E-02  0.8632037E+04  0.5398850E+04  0.8982433E-03 -0.9536743E-05
  0.1071429E+01  0.3702800E-03 -0.4577637E-03  0.8417237E+04  0.5633193E+04  0.1691182E-02 -0.4522324E-02
  0.1102381E+01 -0.1024283E-02 -0.3967285E-03  0.8198950E+04  0.5858245E+04  0.2141998E-02 -0.1502991E-02
  0.1133333E+01 -0.1965691E-02  0.1800537E-02  0.7982924E+04  0.6071870E+04 -0.3450057E-02 -0.1205444E-02
  0.1164286E+01  0.9173995E-03 -0.2746582E-03  0.7770728E+04  0.6273890E+04  0.8485946E-03  0.5378723E-03
  0.1195238E+01 -0.2425600E-02 -0.2319336E-02  0.7557831E+04  0.6464612E+04  0.4624599E-02 -0.9536743E-03
  0.1226190E+01 -0.9706368E-03  0.5798340E-03  0.7351762E+04  0.6642709E+04  0.7105559E-02 -0.2269745E-02
  0.1257143E+01 -0.3325722E-02 -0.1861572E-02  0.7147031E+04  0.6812530E+04  0.1444383E-02  0.2124786E-02
  0.1288095E+01 -0.2179666E-02 -0.1586914E-02  0.6947851E+04  0.6960907E+04 -0.4353409E-03  0.1945496E-03
  0.1319048E+01 -0.1665797E-02  0.1129150E-02  0.6752647E+04  0.7099403E+04  0.4115328E-02  0.2613068E-02
  0.1350000E+01  0.3616898E-03  0.6408691E-03  0.6562862E+04  0.7225936E+04 -0.2933078E-02 -0.3143311E-02
  0.1380952E+01 -0.2541378E-02  0.7934570E-03  0.6374538E+04  0.7338653E+04  0.3397712E-02 -0.1487732E-03
  0.1411905E+01 -0.6052052E-03  0.2136230E-02  0.6180826E+04  0.7432887E+04  0.4903784E-02 -0.6935120E-02
  0.1442857E+01 -0.1015238E-02  0.6408691E-03  0.6008165E+04  0.7519179E+04  0.1575734E-02  0.6103516E-04
  0.1473810E+01  0.5383714E-03 -0.2380371E-02  0.5841049E+04  0.7593053E+04  0.1682411E-02  0.4997253E-03
  0.1504762E+01 -0.5881394E-03  0.1068115E-02  0.5683104E+04  0.7652830E+04  0.1123042E-02 -0.2765656E-02
  0.1535714E+01 -0.5961573E-03  0.4028320E-02  0.5533404E+04  0.7699803E+04  0.5593942E-02 -0.1167297E-02
  0.1566667E+01 -0.1947930E-03 -0.7324219E-03  0.5389922E+04  0.7737576E+04 -0.2483611E-02  0.3356934E-03
  0.1597619E+01 -0.2330433E-02 -0.1892090E-02  0.5248901E+04  0.7764220E+04  0.2139414E-02  0.8049011E-03
  0.1628572E+01 -0.1349198E-02  0.3906250E-02  0.5118672E+04  0.7781350E+04 -0.4075703E-02  0.1415253E-02
  0.1659524E+01 -0.2556121E-02  0.1831055E-03  0.4995273E+04  0.7786672E+04  0.5585767E-02 -0.5531311E-03
  0.1690476E+01 -0.9206852E-03  0.2197266E-02  0.4874418E+04  0.7783465E+04  0.2078312E-02  0.2635956E-02
  0.1721429E+01 -0.7091222E-03  0.6103516E-04  0.4762901E+04  0.7769914E+04  0.4343373E-03 -0.3051758E-03
  0.1752381E+01  0.9055760E-03  0.3112793E-02  0.4658683E+04  0.7744990E+04  0.3848698E-02 -0.1544952E-02
  0.1783333E+01 -0.2447111E-02  0.3601074E-02  0.4561189E+04  0.7714792E+04  0.7935996E-03 -0.2555847E-02
  0.1814286E+01  0.8914978E-03 -0.3051758E-03  0.4469099E+04  0.7677227E+04  0.3530247E-02  0.3318787E-02
  0.1845238E+01 -0.2546938E-02  0.3906250E-02  0.4379584E+04  0.7632050E+04  0.4187356E-02 -0.1712799E-02
  0.1876190E+01  0.3090486E-03  0.1220703E-03  0.4299598E+04  0.7582098E+04  0.2226370E-03  0.1495361E-02
  0.1907143E+01 -0.1280138E-02  0.2014160E-02  0.4227028E+04  0.7524821E+04  0.5810627E-03  0.5046844E-02
  0.1938095E+01  0.9605164E-03 -0.3662109E-03  0.4155302E+04  0.7462406E+04 -0.6790536E-04  0.1800537E-02
  0.1969048E+01  0.6044473E-03  0.2197266E-02  0.4090211E+04  0.7394910E+04  0.9173263E-03 -0.4959106E-04
  0.2000000E+01  0.7171631E-03 -0.1953125E-02  0.4030917E+04  0.7320428E+04  0.2114296E-02 -0.1201630E-02
Zone t="Motion of body    1 in DoF   3",I=    64,F=POINT
  0.5000000E-01 -0.7659871E+05 -0.2211827E-02  0.7514954E-02  0.2094685E-04  0.2546455E+06  0.4415379E-02
  0.8095238E-01 -0.7713469E+05 -0.9107759E-02  0.8458530E-02  0.4163678E-04  0.2553628E+06  0.1788523E-01
  0.1119048E+00 -0.7726704E+05 -0.2549160E-01  0.1822898E-01  0.9696421E-04  0.2555213E+06  0.4876752E-01
  0.1428571E+00 -0.7735071E+05 -0.5689764E-01  0.9172440E-02  0.6594075E-04  0.2555714E+06  0.1093149E+00
  0.1738095E+00 -0.7742876E+05 -0.1131183E+00  0.1929192E-01  0.2176272E-03  0.2556545E+06  0.2169990E+00
  0.2047619E+00 -0.7741909E+05 -0.2086017E+00  0.8029494E-02  0.9362865E-04  0.2556603E+06  0.3998855E+00
  0.2357143E+00 -0.7748631E+05 -0.3665913E+00  0.6052652E-02  0.1014702E-03  0.2557150E+06  0.7012232E+00
  0.2666667E+00 -0.7751302E+05 -0.6224233E+00  0.9298324E-03  0.2669962E-04  0.2557631E+06  0.1188596E+01
  0.2976190E+00 -0.7755458E+05 -0.1038848E+01  0.4447632E-02  0.1359163E-03  0.2558182E+06  0.1979698E+01
  0.3285715E+00 -0.7762302E+05 -0.1712115E+01 -0.2275550E-02 -0.6221421E-04  0.2558983E+06  0.3251731E+01
  0.3595238E+00 -0.7768691E+05 -0.2795851E+01  0.1814381E-02  0.7114187E-04  0.2559751E+06  0.5291367E+01
  0.3904762E+00 -0.7770716E+05 -0.4526228E+01  0.6848312E-02  0.3188085E-03  0.2560450E+06  0.8536716E+01
  0.4214286E+00 -0.7786073E+05 -0.7240556E+01  0.9015616E-02  0.4834346E-03  0.2561975E+06  0.1359476E+02
  0.4523810E+00 -0.7792884E+05 -0.1146918E+02  0.9629901E-02  0.7871687E-03  0.2563089E+06  0.2145179E+02
  0.4833333E+00 -0.7805488E+05 -0.1771414E+02  0.1187029E-01  0.8514822E-03  0.2564514E+06  0.3297382E+02
  0.5142857E+00 -0.7811769E+05 -0.2688238E+02  0.1010259E-01  0.9952933E-03  0.2565795E+06  0.4982147E+02
  0.5452381E+00 -0.7826434E+05 -0.3985597E+02  0.7458150E-02  0.7776022E-03  0.2567451E+06  0.7345274E+02
  0.5761905E+00 -0.7845395E+05 -0.5766741E+02  0.4727072E-02  0.4603863E-03  0.2569723E+06  0.1056976E+03
  0.6071429E+00 -0.7858030E+05 -0.8182150E+02  0.5415972E-02  0.9279251E-03  0.2571875E+06  0.1491929E+03
  0.6380953E+00 -0.7873069E+05 -0.1135254E+03  0.4591301E-02  0.3079772E-03  0.2573654E+06  0.2057634E+03
  0.6690477E+00 -0.7892672E+05 -0.1548075E+03 -0.4903447E-02 -0.1386523E-02  0.2576194E+06  0.2788060E+03
  0.7000000E+00 -0.7914487E+05 -0.2079115E+03  0.9722028E-02  0.2931237E-02  0.2579225E+06  0.3720081E+03
  0.7309524E+00 -0.7933477E+05 -0.2748367E+03 -0.2369337E-02 -0.4311800E-03  0.2581495E+06  0.4882176E+03
  0.7619048E+00 -0.7959852E+05 -0.3583832E+03  0.1231670E-02  0.3063679E-03  0.2584933E+06  0.6322327E+03
  0.7928572E+00 -0.7976176E+05 -0.4611172E+03  0.2809816E-02  0.5266666E-03  0.2587320E+06  0.8078415E+03
  0.8238096E+00 -0.7998759E+05 -0.5868999E+03  0.1667001E-03 -0.5125999E-03  0.2590237E+06  0.1020347E+04
  0.8547620E+00 -0.8030383E+05 -0.7396825E+03 -0.6551503E-02 -0.3486156E-02  0.2593528E+06  0.1274997E+04
  0.8857143E+00 -0.8059397E+05 -0.9222429E+03  0.8441556E-03 -0.3538132E-03  0.2597093E+06  0.1576656E+04
  0.9166667E+00 -0.8082920E+05 -0.1138628E+04  0.7523970E-02  0.2557755E-02  0.2600096E+06  0.1930051E+04
  0.9476191E+00 -0.8108601E+05 -0.1393378E+04  0.1368690E-02  0.1744270E-02  0.2603154E+06  0.2341269E+04
  0.9785714E+00 -0.8136548E+05 -0.1691095E+04  0.1175706E-01  0.3985405E-02  0.2606099E+06  0.2815784E+04
  0.1009524E+01 -0.8167616E+05 -0.2036014E+04  0.3733365E-02  0.1007080E-02  0.2609631E+06  0.3359499E+04
  0.1040476E+01 -0.8190852E+05 -0.2432457E+04  0.4062260E-02  0.4426956E-02  0.2611833E+06  0.3974440E+04
  0.1071429E+01 -0.8221634E+05 -0.2887142E+04  0.2250163E-02  0.1029968E-02  0.2615121E+06  0.4670346E+04
  0.1102381E+01 -0.8246459E+05 -0.3402648E+04  0.8858666E-02  0.7966995E-02  0.2617183E+06  0.5446845E+04
  0.1133333E+01 -0.8275704E+05 -0.3985585E+04  0.6449082E-02  0.5626678E-02  0.2619399E+06  0.6311485E+04
  0.1164286E+01 -0.8303594E+05 -0.4637641E+04  0.6526642E-02  0.3158569E-02  0.2621787E+06  0.7266463E+04
  0.1195238E+01 -0.8321084E+05 -0.5360157E+04  0.6510822E-02  0.3749847E-02  0.2622598E+06  0.8306345E+04
  0.1226190E+01 -0.8338984E+05 -0.6159075E+04  0.4318089E-02  0.5393982E-02  0.2623688E+06  0.9440096E+04
  0.1257143E+01 -0.8350784E+05 -0.7031982E+04  0.9176080E-02  0.9193420E-02  0.2623683E+06  0.1065822E+05
  0.1288095E+01 -0.8365377E+05 -0.7995258E+04  0.8766048E-02  0.8338928E-02  0.2623478E+06  0.1197001E+05
  0.1319048E+01 -0.8380845E+05 -0.9040489E+04  0.1383537E-01  0.1264954E-01  0.2622793E+06  0.1336792E+05
  0.1350000E+01 -0.8389570E+05 -0.1016682E+05  0.9946469E-03 -0.2212524E-03  0.2621944E+06  0.1485025E+05
  0.1380952E+01 -0.8387293E+05 -0.1136760E+05  0.3602127E-02  0.3379822E-02  0.2619042E+06  0.1639079E+05
  0.1411905E+01 -0.8381026E+05 -0.1260870E+05  0.7240848E-02  0.9811401E-02  0.2616408E+06  0.1798290E+05
  0.1442857E+01 -0.8373233E+05 -0.1395721E+05  0.1924722E-02  0.3990173E-02  0.2613029E+06  0.1964933E+05
  0.1473810E+01 -0.8354091E+05 -0.1536681E+05  0.2257019E-02  0.2716064E-02  0.2608052E+06  0.2134158E+05
  0.1504762E+01 -0.8333171E+05 -0.1683714E+05  0.2879855E-02  0.1464844E-02  0.2602608E+06  0.2306415E+05
  0.1535714E+01 -0.8309298E+05 -0.1835649E+05  0.8862872E-02  0.9231567E-02  0.2596926E+06  0.2480323E+05
  0.1566667E+01 -0.8273970E+05 -0.1990553E+05  0.7265781E-02  0.8483887E-02  0.2590295E+06  0.2653109E+05
  0.1597619E+01 -0.8225462E+05 -0.2146452E+05  0.3266427E-02  0.4592896E-02  0.2581658E+06  0.2818784E+05
  0.1628572E+01 -0.8176785E+05 -0.2305441E+05 -0.1499109E-03  0.7629395E-03  0.2573551E+06  0.2983860E+05
  0.1659524E+01 -0.8126215E+05 -0.2464995E+05  0.5535197E-02  0.8300781E-02  0.2565120E+06  0.3143398E+05
  0.1690476E+01 -0.8061507E+05 -0.2620830E+05  0.3321688E-02  0.6652832E-02  0.2554863E+06  0.3290109E+05
  0.1721429E+01 -0.7996323E+05 -0.2775087E+05  0.4892943E-02  0.3509521E-02  0.2544835E+06  0.3430115E+05
  0.1752381E+01 -0.7929527E+05 -0.2924440E+05 -0.2803803E-02  0.1647949E-02  0.2534494E+06  0.3558076E+05
  0.1783333E+01 -0.7856885E+05 -0.3067937E+05 -0.3764785E-03 -0.2990723E-02  0.2524361E+06  0.3675549E+05
  0.1814286E+01 -0.7777778E+05 -0.3202485E+05  0.4036971E-02  0.7324219E-03  0.2513725E+06  0.3776980E+05
  0.1845238E+01 -0.7688219E+05 -0.3324596E+05  0.7541582E-02  0.9643555E-02  0.2501926E+06  0.3854585E+05
  0.1876190E+01 -0.7601709E+05 -0.3440275E+05  0.6376160E-02  0.3662109E-02  0.2491235E+06  0.3924350E+05
  0.1907143E+01 -0.7518005E+05 -0.3546750E+05  0.7120769E-02  0.4180908E-02  0.2481142E+06  0.3979678E+05
  0.1938095E+01 -0.7425333E+05 -0.3635833E+05  0.8660394E-03  0.1770020E-02  0.2470014E+06  0.4008266E+05
  0.1969048E+01 -0.7334367E+05 -0.3713793E+05  0.6664420E-02  0.3936768E-02  0.2459579E+06  0.4023715E+05
  0.2000000E+01 -0.7246117E+05 -0.3778679E+05  0.7141113E-02  0.1129150E-02  0.2449507E+06  0.4021852E+05
