VARIABLES="w (rad/s)"
"abs(F   1   1)" "angle(F   1   1)"
"abs(F   1   2)" "angle(F   1   2)"
"abs(F   1   3)" "angle(F   1   3)"
Zone t="Diffraction force - beta =   0.000 deg",I=    64,F=POINT
  0.5000000E-01  0.3336759E+04 -0.1570794E+01  0.2751778E+03 -0.3081580E+01  0.5154480E+04  0.1570798E+01
  0.8095238E-01  0.5464801E+04 -0.1570791E+01  0.7114783E+03 -0.3079284E+01  0.8443363E+04  0.1570801E+01
  0.1119048E+00  0.7630284E+04 -0.1570786E+01  0.1350100E+04 -0.3076590E+01  0.1177940E+05  0.1570805E+01
  0.1428571E+00  0.9866648E+04 -0.1570777E+01  0.2192624E+04 -0.3073246E+01  0.1521884E+05  0.1570812E+01
  0.1738095E+00  0.1220087E+05 -0.1570765E+01  0.3243347E+04 -0.3069068E+01  0.1878432E+05  0.1570822E+01
  0.2047619E+00  0.1465424E+05 -0.1570748E+01  0.4509508E+04 -0.3063890E+01  0.2253111E+05  0.1570836E+01
  0.2357143E+00  0.1724455E+05 -0.1570723E+01  0.5996648E+04 -0.3057368E+01  0.2649312E+05  0.1570857E+01
  0.2666667E+00  0.2006008E+05 -0.1570685E+01  0.7714473E+04 -0.3049489E+01  0.3070683E+05  0.1570888E+01
  0.2976190E+00  0.2307812E+05 -0.1570630E+01  0.9668433E+04 -0.3039579E+01  0.3528565E+05  0.1570933E+01
  0.3285715E+00  0.2637185E+05 -0.1570548E+01  0.1187359E+05 -0.3027819E+01  0.4025531E+05  0.1571001E+01
  0.3595238E+00  0.3002520E+05 -0.1570424E+01  0.1431880E+05 -0.3013489E+01  0.4566160E+05  0.1571102E+01
  0.3904762E+00  0.3405691E+05 -0.1570240E+01  0.1702792E+05 -0.2996660E+01  0.5161988E+05  0.1571253E+01
  0.4214286E+00  0.3847759E+05 -0.1569970E+01  0.1994717E+05 -0.2977760E+01  0.5818709E+05  0.1571474E+01
  0.4523810E+00  0.4337353E+05 -0.1569574E+01  0.2311161E+05 -0.2956016E+01  0.6533759E+05  0.1571799E+01
  0.4833333E+00  0.4873516E+05 -0.1569024E+01  0.2643868E+05 -0.2933922E+01  0.7308038E+05  0.1572248E+01
  0.5142857E+00  0.5453553E+05 -0.1568260E+01  0.2994533E+05 -0.2910055E+01  0.8145421E+05  0.1572873E+01
  0.5452381E+00  0.6072153E+05 -0.1567240E+01  0.3361742E+05 -0.2886392E+01  0.9039681E+05  0.1573704E+01
  0.5761905E+00  0.6731720E+05 -0.1565915E+01  0.3741168E+05 -0.2863097E+01  0.9977518E+05  0.1574785E+01
  0.6071429E+00  0.7434822E+05 -0.1564204E+01  0.4131756E+05 -0.2839174E+01  0.1095164E+06  0.1576181E+01
  0.6380953E+00  0.8166419E+05 -0.1562065E+01  0.4535993E+05 -0.2816802E+01  0.1196799E+06  0.1577922E+01
  0.6690477E+00  0.8925531E+05 -0.1559405E+01  0.4949893E+05 -0.2794733E+01  0.1302271E+06  0.1580082E+01
  0.7000000E+00  0.9715945E+05 -0.1556135E+01  0.5372371E+05 -0.2772667E+01  0.1409760E+06  0.1582736E+01
  0.7309524E+00  0.1053580E+06 -0.1552189E+01  0.5802769E+05 -0.2751453E+01  0.1519632E+06  0.1585934E+01
  0.7619048E+00  0.1139184E+06 -0.1547467E+01  0.6238515E+05 -0.2730669E+01  0.1631736E+06  0.1589762E+01
  0.7928572E+00  0.1226736E+06 -0.1541855E+01  0.6678847E+05 -0.2710290E+01  0.1744590E+06  0.1594305E+01
  0.8238096E+00  0.1316697E+06 -0.1535256E+01  0.7123043E+05 -0.2690481E+01  0.1860428E+06  0.1599632E+01
  0.8547620E+00  0.1407178E+06 -0.1527552E+01  0.7570606E+05 -0.2671309E+01  0.1976051E+06  0.1605830E+01
  0.8857143E+00  0.1500654E+06 -0.1518681E+01  0.8019860E+05 -0.2652800E+01  0.2092556E+06  0.1612962E+01
  0.9166667E+00  0.1595443E+06 -0.1508535E+01  0.8468633E+05 -0.2634838E+01  0.2207026E+06  0.1621110E+01
  0.9476191E+00  0.1692242E+06 -0.1497035E+01  0.8913895E+05 -0.2617314E+01  0.2321297E+06  0.1630331E+01
  0.9785714E+00  0.1788733E+06 -0.1484061E+01  0.9356098E+05 -0.2600400E+01  0.2432380E+06  0.1640699E+01
  0.1009524E+01  0.1885429E+06 -0.1469545E+01  0.9795588E+05 -0.2584225E+01  0.2543585E+06  0.1652248E+01
  0.1040476E+01  0.1980024E+06 -0.1453414E+01  0.1023148E+06 -0.2568761E+01  0.2649560E+06  0.1665015E+01
  0.1071429E+01  0.2072913E+06 -0.1435668E+01  0.1066467E+06 -0.2554091E+01  0.2751519E+06  0.1678991E+01
  0.1102381E+01  0.2163359E+06 -0.1416319E+01  0.1109263E+06 -0.2540091E+01  0.2848302E+06  0.1694137E+01
  0.1133333E+01  0.2248677E+06 -0.1395346E+01  0.1151296E+06 -0.2526500E+01  0.2935154E+06  0.1710438E+01
  0.1164286E+01  0.2330659E+06 -0.1372866E+01  0.1192692E+06 -0.2513577E+01  0.3015919E+06  0.1727780E+01
  0.1195238E+01  0.2405878E+06 -0.1348899E+01  0.1233324E+06 -0.2501236E+01  0.3085130E+06  0.1746095E+01
  0.1226190E+01  0.2474200E+06 -0.1323622E+01  0.1273449E+06 -0.2489759E+01  0.3143562E+06  0.1765186E+01
  0.1257143E+01  0.2533155E+06 -0.1296994E+01  0.1313125E+06 -0.2478682E+01  0.3192410E+06  0.1784969E+01
  0.1288095E+01  0.2583662E+06 -0.1269526E+01  0.1351474E+06 -0.2468651E+01  0.3229647E+06  0.1805034E+01
  0.1319048E+01  0.2620794E+06 -0.1241044E+01  0.1389320E+06 -0.2458929E+01  0.3251256E+06  0.1825330E+01
  0.1350000E+01  0.2647595E+06 -0.1212041E+01  0.1426659E+06 -0.2449956E+01  0.3262177E+06  0.1845479E+01
  0.1380952E+01  0.2660661E+06 -0.1182785E+01  0.1463326E+06 -0.2441516E+01  0.3255608E+06  0.1865148E+01
  0.1411905E+01  0.2646274E+06 -0.1155550E+01  0.1496700E+06 -0.2433162E+01  0.3229183E+06  0.1881960E+01
  0.1442857E+01  0.2635348E+06 -0.1126918E+01  0.1532221E+06 -0.2425522E+01  0.3196905E+06  0.1899579E+01
  0.1473810E+01  0.2611506E+06 -0.1098767E+01  0.1566951E+06 -0.2418078E+01  0.3153188E+06  0.1915890E+01
  0.1504762E+01  0.2573661E+06 -0.1071423E+01  0.1600846E+06 -0.2410675E+01  0.3093612E+06  0.1930461E+01
  0.1535714E+01  0.2525279E+06 -0.1045188E+01  0.1634297E+06 -0.2403764E+01  0.3026696E+06  0.1943142E+01
  0.1566667E+01  0.2466958E+06 -0.1020398E+01  0.1667209E+06 -0.2397121E+01  0.2952613E+06  0.1953581E+01
  0.1597619E+01  0.2396234E+06 -0.9970911E+00  0.1699508E+06 -0.2390361E+01  0.2867469E+06  0.1961500E+01
  0.1628572E+01  0.2317082E+06 -0.9756936E+00  0.1731290E+06 -0.2383673E+01  0.2777881E+06  0.1966754E+01
  0.1659524E+01  0.2229955E+06 -0.9564919E+00  0.1762338E+06 -0.2376879E+01  0.2683667E+06  0.1969017E+01
  0.1690476E+01  0.2135511E+06 -0.9392847E+00  0.1792475E+06 -0.2369550E+01  0.2587757E+06  0.1968498E+01
  0.1721429E+01  0.2034137E+06 -0.9245207E+00  0.1821307E+06 -0.2361708E+01  0.2488363E+06  0.1964743E+01
  0.1752381E+01  0.1927202E+06 -0.9123720E+00  0.1848630E+06 -0.2353359E+01  0.2387831E+06  0.1957745E+01
  0.1783333E+01  0.1817085E+06 -0.9031444E+00  0.1874479E+06 -0.2344590E+01  0.2290393E+06  0.1947718E+01
  0.1814286E+01  0.1703562E+06 -0.8972683E+00  0.1898114E+06 -0.2335127E+01  0.2193893E+06  0.1934280E+01
  0.1845238E+01  0.1586377E+06 -0.8949126E+00  0.1918886E+06 -0.2324978E+01  0.2098215E+06  0.1917406E+01
  0.1876190E+01  0.1468147E+06 -0.8967358E+00  0.1937094E+06 -0.2314488E+01  0.2007032E+06  0.1897487E+01
  0.1907143E+01  0.1348847E+06 -0.9036036E+00  0.1951863E+06 -0.2303364E+01  0.1918775E+06  0.1874126E+01
  0.1938095E+01  0.1229807E+06 -0.9161163E+00  0.1962384E+06 -0.2291895E+01  0.1836020E+06  0.1848107E+01
  0.1969048E+01  0.1111263E+06 -0.9356120E+00  0.1968878E+06 -0.2280190E+01  0.1758383E+06  0.1819502E+01
  0.2000000E+01  0.9931332E+05 -0.9643339E+00  0.1970181E+06 -0.2268142E+01  0.1682885E+06  0.1787311E+01
