VARIABLES="w (rad/s)"
"abs(F   1   1)" "angle(F   1   1)"
"abs(F   1   2)" "angle(F   1   2)"
"abs(F   1   3)" "angle(F   1   3)"
Zone t="Diffraction force - beta =   0.000 deg",I=    64,F=POINT
  0.5000000E-01  0.8472161E+03 -0.1570795E+01  0.5864163E+03 -0.3094759E+01  0.5843004E+02 -0.1570771E+01
  0.8095238E-01  0.1380394E+04 -0.1570792E+01  0.1519179E+04 -0.3093077E+01  0.8754246E+02 -0.1570720E+01
  0.1119048E+00  0.1919006E+04 -0.1570787E+01  0.2887913E+04 -0.3091096E+01  0.1185958E+03 -0.1570641E+01
  0.1428571E+00  0.2492965E+04 -0.1570780E+01  0.4689291E+04 -0.3088540E+01  0.1478876E+03 -0.1570508E+01
  0.1738095E+00  0.3082470E+04 -0.1570770E+01  0.6932068E+04 -0.3085317E+01  0.1581934E+03 -0.1570256E+01
  0.2047619E+00  0.3722147E+04 -0.1570755E+01  0.9627742E+04 -0.3081310E+01  0.1584935E+03 -0.1569782E+01
  0.2357143E+00  0.4386605E+04 -0.1570733E+01  0.1277242E+05 -0.3076195E+01  0.1788557E+03 -0.1569185E+01
  0.2666667E+00  0.5111592E+04 -0.1570700E+01  0.1639379E+05 -0.3070038E+01  0.1466601E+03 -0.1567355E+01
  0.2976190E+00  0.5918444E+04 -0.1570653E+01  0.2047780E+05 -0.3062243E+01  0.1386678E+03 -0.1564523E+01
  0.3285715E+00  0.6787570E+04 -0.1570581E+01  0.2506451E+05 -0.3053012E+01  0.8647576E+02 -0.1553625E+01
  0.3595238E+00  0.7742097E+04 -0.1570474E+01  0.3009576E+05 -0.3041700E+01  0.4111595E+02 -0.1509335E+01
  0.3904762E+00  0.8857355E+04 -0.1570314E+01  0.3564579E+05 -0.3028452E+01  0.1043856E+03  0.1529878E+01
  0.4214286E+00  0.1005383E+05 -0.1570080E+01  0.4154165E+05 -0.3013498E+01  0.1637626E+03  0.1527026E+01
  0.4523810E+00  0.1134873E+05 -0.1569732E+01  0.4790368E+05 -0.2996397E+01  0.3280856E+03  0.1534437E+01
  0.4833333E+00  0.1284420E+05 -0.1569254E+01  0.5453859E+05 -0.2979037E+01  0.5722922E+03  0.1536974E+01
  0.5142857E+00  0.1449440E+05 -0.1568591E+01  0.6145366E+05 -0.2960263E+01  0.8164366E+03  0.1532923E+01
  0.5452381E+00  0.1622209E+05 -0.1567699E+01  0.6866447E+05 -0.2941806E+01  0.1162924E+04  0.1529436E+01
  0.5761905E+00  0.1802135E+05 -0.1566528E+01  0.7600539E+05 -0.2923537E+01  0.1438009E+04  0.1519958E+01
  0.6071429E+00  0.2005210E+05 -0.1565032E+01  0.8354089E+05 -0.2904962E+01  0.2024036E+04  0.1517296E+01
  0.6380953E+00  0.2224948E+05 -0.1563177E+01  0.9125001E+05 -0.2887707E+01  0.2640503E+04  0.1511513E+01
  0.6690477E+00  0.2447644E+05 -0.1560850E+01  0.9901494E+05 -0.2870559E+01  0.3140503E+04  0.1499964E+01
  0.7000000E+00  0.2677004E+05 -0.1557969E+01  0.1068877E+06 -0.2853575E+01  0.3910669E+04  0.1491622E+01
  0.7309524E+00  0.2913488E+05 -0.1554476E+01  0.1148532E+06 -0.2837552E+01  0.4799170E+04  0.1482657E+01
  0.7619048E+00  0.3176096E+05 -0.1550357E+01  0.1227492E+06 -0.2821626E+01  0.5750776E+04  0.1471825E+01
  0.7928572E+00  0.3455099E+05 -0.1545498E+01  0.1306385E+06 -0.2806140E+01  0.6868498E+04  0.1461077E+01
  0.8238096E+00  0.3739100E+05 -0.1539761E+01  0.1385552E+06 -0.2791391E+01  0.8284304E+04  0.1452265E+01
  0.8547620E+00  0.4022793E+05 -0.1533028E+01  0.1463343E+06 -0.2776938E+01  0.9577854E+04  0.1438638E+01
  0.8857143E+00  0.4311588E+05 -0.1525224E+01  0.1539573E+06 -0.2762847E+01  0.1092039E+05  0.1423087E+01
  0.9166667E+00  0.4604236E+05 -0.1516251E+01  0.1615510E+06 -0.2749673E+01  0.1262553E+05  0.1410268E+01
  0.9476191E+00  0.4920968E+05 -0.1506238E+01  0.1689901E+06 -0.2737005E+01  0.1485340E+05  0.1401811E+01
  0.9785714E+00  0.5256811E+05 -0.1495127E+01  0.1761809E+06 -0.2724633E+01  0.1716806E+05  0.1391649E+01
  0.1009524E+01  0.5591998E+05 -0.1482651E+01  0.1831016E+06 -0.2712521E+01  0.1942839E+05  0.1378559E+01
  0.1040476E+01  0.5914044E+05 -0.1468598E+01  0.1898399E+06 -0.2701154E+01  0.2192008E+05  0.1366161E+01
  0.1071429E+01  0.6236327E+05 -0.1453081E+01  0.1963792E+06 -0.2690489E+01  0.2494319E+05  0.1357711E+01
  0.1102381E+01  0.6547266E+05 -0.1435924E+01  0.2027069E+06 -0.2680557E+01  0.2845110E+05  0.1352091E+01
  0.1133333E+01  0.6841373E+05 -0.1417156E+01  0.2086498E+06 -0.2670643E+01  0.3186526E+05  0.1343862E+01
  0.1164286E+01  0.7125289E+05 -0.1396944E+01  0.2142874E+06 -0.2661153E+01  0.3548945E+05  0.1336126E+01
  0.1195238E+01  0.7407641E+05 -0.1375668E+01  0.2196453E+06 -0.2652233E+01  0.3962302E+05  0.1331341E+01
  0.1226190E+01  0.7688398E+05 -0.1353397E+01  0.2247404E+06 -0.2644023E+01  0.4445739E+05  0.1331458E+01
  0.1257143E+01  0.7938062E+05 -0.1329544E+01  0.2296141E+06 -0.2636145E+01  0.4978409E+05  0.1334405E+01
  0.1288095E+01  0.8158521E+05 -0.1304596E+01  0.2339840E+06 -0.2629092E+01  0.5538933E+05  0.1338330E+01
  0.1319048E+01  0.8325091E+05 -0.1278190E+01  0.2379906E+06 -0.2621701E+01  0.6079251E+05  0.1340916E+01
  0.1350000E+01  0.8457569E+05 -0.1251037E+01  0.2416369E+06 -0.2614733E+01  0.6651438E+05  0.1345230E+01
  0.1380952E+01  0.8550289E+05 -0.1223642E+01  0.2449431E+06 -0.2608369E+01  0.7267692E+05  0.1351431E+01
  0.1411905E+01  0.8572122E+05 -0.1193562E+01  0.2477581E+06 -0.2602326E+01  0.7923527E+05  0.1359595E+01
  0.1442857E+01  0.8578807E+05 -0.1165462E+01  0.2504030E+06 -0.2596794E+01  0.8645434E+05  0.1372301E+01
  0.1473810E+01  0.8524039E+05 -0.1136965E+01  0.2527063E+06 -0.2591647E+01  0.9402776E+05  0.1386159E+01
  0.1504762E+01  0.8400177E+05 -0.1108812E+01  0.2544923E+06 -0.2586145E+01  0.1010197E+06  0.1398257E+01
  0.1535714E+01  0.8223931E+05 -0.1081916E+01  0.2558502E+06 -0.2580763E+01  0.1080846E+06  0.1410873E+01
  0.1566667E+01  0.7994984E+05 -0.1056655E+01  0.2567868E+06 -0.2575615E+01  0.1151533E+06  0.1423496E+01
  0.1597619E+01  0.7697505E+05 -0.1031994E+01  0.2573423E+06 -0.2570711E+01  0.1223191E+06  0.1437545E+01
  0.1628572E+01  0.7348077E+05 -0.1009123E+01  0.2574985E+06 -0.2566214E+01  0.1297535E+06  0.1452936E+01
  0.1659524E+01  0.6949099E+05 -0.9890598E+00  0.2572560E+06 -0.2561936E+01  0.1373418E+06  0.1468827E+01
  0.1690476E+01  0.6498096E+05 -0.9724218E+00  0.2565477E+06 -0.2557886E+01  0.1449748E+06  0.1484251E+01
  0.1721429E+01  0.5991503E+05 -0.9605165E+00  0.2553006E+06 -0.2553697E+01  0.1519962E+06  0.1498418E+01
  0.1752381E+01  0.5430420E+05 -0.9548896E+00  0.2535417E+06 -0.2549291E+01  0.1582492E+06  0.1510761E+01
  0.1783333E+01  0.4828679E+05 -0.9576486E+00  0.2512409E+06 -0.2545092E+01  0.1641630E+06  0.1522548E+01
  0.1814286E+01  0.4194841E+05 -0.9733593E+00  0.2484215E+06 -0.2541287E+01  0.1697264E+06  0.1532860E+01
  0.1845238E+01  0.3539169E+05 -0.1008596E+01  0.2451882E+06 -0.2538157E+01  0.1752428E+06  0.1543163E+01
  0.1876190E+01  0.2875268E+05 -0.1077031E+01  0.2414808E+06 -0.2535441E+01  0.1805979E+06  0.1553408E+01
  0.1907143E+01  0.2232285E+05 -0.1209047E+01  0.2373377E+06 -0.2533431E+01  0.1858212E+06  0.1563049E+01
  0.1938095E+01  0.1671914E+05 -0.1466240E+01  0.2328091E+06 -0.2532339E+01  0.1908130E+06  0.1571435E+01
  0.1969048E+01  0.1348014E+05 -0.1934449E+01  0.2278704E+06 -0.2532001E+01  0.1955127E+06  0.1578568E+01
  0.2000000E+01  0.1472925E+05 -0.2505909E+01  0.2224671E+06 -0.2531859E+01  0.1987945E+06  0.1582919E+01
