VARIABLES="w (rad/s)"
"A   1   1" "B   1   1"
"A   1   2" "B   1   2"
"A   1   3" "B   1   3"
Zone t="Motion of body    1 in DoF   1",I=    64,F=POINT
  0.5000000E-01  0.1830166E+06  0.3752973E-01 -0.1373291E-01 -0.2434204E-04 -0.3564940E+06 -0.6268952E-01
  0.8095238E-01  0.1839356E+06  0.1656503E+00 -0.1847211E-01 -0.2894178E-04 -0.3577814E+06 -0.2770689E+00
  0.1119048E+00  0.1843389E+06  0.4643404E+00 -0.4363365E-02  0.1710933E-04 -0.3588278E+06 -0.7771037E+00
  0.1428571E+00  0.1843673E+06  0.1044834E+01  0.2221680E-01  0.3658496E-03 -0.3588439E+06 -0.1748785E+01
  0.1738095E+00  0.1850948E+06  0.2080997E+01 -0.3687192E-02  0.6467849E-04 -0.3600332E+06 -0.3483710E+01
  0.2047619E+00  0.1854720E+06  0.3838304E+01 -0.2310110E-01 -0.2615154E-04 -0.3607526E+06 -0.6430612E+01
  0.2357143E+00  0.1860283E+06  0.6758980E+01  0.0000000E+00  0.3835931E-03 -0.3613869E+06 -0.1132520E+02
  0.2666667E+00  0.1869402E+06  0.1153473E+02 -0.2929687E-01 -0.2485514E-03 -0.3629790E+06 -0.1934002E+02
  0.2976190E+00  0.1875135E+06  0.1933756E+02 -0.5742188E-02 -0.2227426E-03 -0.3637935E+06 -0.3244087E+02
  0.3285715E+00  0.1883550E+06  0.3199042E+02 -0.1151707E-01 -0.2092123E-03 -0.3654850E+06 -0.5372713E+02
  0.3595238E+00  0.1895610E+06  0.5255269E+02 -0.4244166E-02  0.8056164E-03 -0.3670916E+06 -0.8828415E+02
  0.3904762E+00  0.1907430E+06  0.8569164E+02 -0.2110179E-01 -0.1271248E-02 -0.3692905E+06 -0.1441226E+03
  0.4214286E+00  0.1915857E+06  0.1377533E+03 -0.2896583E-02  0.6523132E-03 -0.3708817E+06 -0.2319643E+03
  0.4523810E+00  0.1935148E+06  0.2200022E+03 -0.1349198E-02  0.1155853E-02 -0.3741286E+06 -0.3707975E+03
  0.4833333E+00  0.1951743E+06  0.3424212E+03 -0.9849811E-02 -0.5464554E-03 -0.3767285E+06 -0.5775784E+03
  0.5142857E+00  0.1970436E+06  0.5244133E+03  0.3323025E-02  0.3396034E-02 -0.3796593E+06 -0.8852155E+03
  0.5452381E+00  0.1986002E+06  0.7832800E+03 -0.8955377E-03  0.9565353E-03 -0.3826568E+06 -0.1324154E+04
  0.5761905E+00  0.2008702E+06  0.1143733E+04 -0.6355727E-02  0.2117157E-03 -0.3861262E+06 -0.1934566E+04
  0.6071429E+00  0.2038065E+06  0.1641526E+04  0.2633846E-01  0.8890152E-02 -0.3911002E+06 -0.2779492E+04
  0.6380953E+00  0.2061845E+06  0.2301056E+04 -0.9565211E-02 -0.8773804E-04 -0.3949505E+06 -0.3899492E+04
  0.6690477E+00  0.2085118E+06  0.3168749E+04 -0.1769802E-01 -0.2620697E-02 -0.3988717E+06 -0.5375704E+04
  0.7000000E+00  0.2117491E+06  0.4303111E+04 -0.1970563E-01 -0.5119324E-02 -0.4046245E+06 -0.7308509E+04
  0.7309524E+00  0.2150555E+06  0.5751882E+04  0.6513067E-02  0.6217957E-02 -0.4099158E+06 -0.9773982E+04
  0.7619048E+00  0.2185186E+06  0.7587981E+04  0.2243042E-02  0.5119324E-02 -0.4155513E+06 -0.1290263E+05
  0.7928572E+00  0.2222905E+06  0.9891751E+04 -0.1031549E-01 -0.2471924E-02 -0.4215619E+06 -0.1682723E+05
  0.8238096E+00  0.2258481E+06  0.1273924E+05 -0.2044854E-01 -0.7110596E-02 -0.4280001E+06 -0.2170166E+05
  0.8547620E+00  0.2290075E+06  0.1620623E+05  0.1428121E-02  0.8819580E-02 -0.4334798E+06 -0.2763513E+05
  0.8857143E+00  0.2327164E+06  0.2040298E+05 -0.5788495E-02  0.7965088E-02 -0.4392892E+06 -0.3478266E+05
  0.9166667E+00  0.2368655E+06  0.2545000E+05 -0.9588068E-02 -0.1831055E-02 -0.4459786E+06 -0.4339091E+05
  0.9476191E+00  0.2406535E+06  0.3142753E+05 -0.1558697E-01  0.4730225E-02 -0.4524217E+06 -0.5361234E+05
  0.9785714E+00  0.2438532E+06  0.3841846E+05 -0.5239222E-02  0.5126953E-02 -0.4573969E+06 -0.6553869E+05
  0.1009524E+01  0.2466035E+06  0.4652025E+05  0.5804098E-02  0.2429199E-01 -0.4619113E+06 -0.7939233E+05
  0.1040476E+01  0.2488192E+06  0.5578224E+05 -0.5631436E-02  0.6103516E-04 -0.4650295E+06 -0.9516698E+05
  0.1071429E+01  0.2505990E+06  0.6627511E+05 -0.8430989E-02 -0.8422852E-02 -0.4685623E+06 -0.1131856E+06
  0.1102381E+01  0.2514155E+06  0.7785785E+05  0.7086933E-02  0.2764893E-01 -0.4695886E+06 -0.1328843E+06
  0.1133333E+01  0.2513050E+06  0.9054239E+05 -0.8616728E-03  0.1416016E-01 -0.4687482E+06 -0.1543908E+06
  0.1164286E+01  0.2502347E+06  0.1042809E+06 -0.5661666E-02 -0.7568359E-02 -0.4665428E+06 -0.1777462E+06
  0.1195238E+01  0.2479884E+06  0.1188623E+06  0.2655394E-02  0.8056641E-02 -0.4616061E+06 -0.2022673E+06
  0.1226190E+01  0.2448169E+06  0.1342312E+06 -0.1015435E-01  0.1098633E-01 -0.4560483E+06 -0.2283536E+06
  0.1257143E+01  0.2400124E+06  0.1498862E+06 -0.1475941E-01 -0.3662109E-02 -0.4476010E+06 -0.2547741E+06
  0.1288095E+01  0.2341775E+06  0.1654715E+06 -0.1061403E-01 -0.7568359E-02 -0.4367790E+06 -0.2807048E+06
  0.1319048E+01  0.2271258E+06  0.1809064E+06 -0.9254428E-02 -0.3784180E-02 -0.4243302E+06 -0.3065193E+06
  0.1350000E+01  0.2190418E+06  0.1958072E+06  0.2712673E-03  0.9155273E-02 -0.4099695E+06 -0.3312276E+06
  0.1380952E+01  0.2101136E+06  0.2098507E+06  0.1237540E-02  0.1623535E-01 -0.3936355E+06 -0.3539172E+06
  0.1411905E+01  0.2004082E+06  0.2228331E+06 -0.4668726E-02 -0.8056641E-02 -0.3771282E+06 -0.3752865E+06
  0.1442857E+01  0.1905186E+06  0.2346065E+06 -0.5414604E-02  0.6958008E-02 -0.3601058E+06 -0.3943188E+06
  0.1473810E+01  0.1801527E+06  0.2448034E+06 -0.2898923E-02  0.1171875E-01 -0.3419943E+06 -0.4103399E+06
  0.1504762E+01  0.1695582E+06  0.2534115E+06  0.2514803E-02  0.8544922E-03 -0.3235307E+06 -0.4235948E+06
  0.1535714E+01  0.1591245E+06  0.2605299E+06  0.1112827E-02  0.8422852E-02 -0.3056533E+06 -0.4343899E+06
  0.1566667E+01  0.1489851E+06  0.2660423E+06 -0.7168384E-02 -0.1000977E-01 -0.2880163E+06 -0.4417844E+06
  0.1597619E+01  0.1392805E+06  0.2700628E+06 -0.1146115E-02 -0.1135254E-01 -0.2709512E+06 -0.4461438E+06
  0.1628572E+01  0.1301791E+06  0.2730218E+06 -0.2173708E-02  0.1220703E-02 -0.2556562E+06 -0.4496910E+06
  0.1659524E+01  0.1215336E+06  0.2746557E+06 -0.7502858E-02 -0.1953125E-02 -0.2413052E+06 -0.4509986E+06
  0.1690476E+01  0.1133464E+06  0.2749436E+06 -0.8773589E-02  0.1098633E-02 -0.2275875E+06 -0.4495502E+06
  0.1721429E+01  0.1056161E+06  0.2739629E+06 -0.1489157E-02 -0.9765625E-03 -0.2144706E+06 -0.4455803E+06
  0.1752381E+01  0.9849753E+05  0.2721992E+06  0.2229110E-02 -0.4638672E-02 -0.2026696E+06 -0.4407722E+06
  0.1783333E+01  0.9204736E+05  0.2697738E+06 -0.2498449E-02 -0.1110840E-01 -0.1921207E+06 -0.4349708E+06
  0.1814286E+01  0.8618598E+05  0.2665058E+06  0.3027728E-03  0.2075195E-02 -0.1823913E+06 -0.4267294E+06
  0.1845238E+01  0.8095357E+05  0.2626996E+06 -0.7673891E-02 -0.6835938E-02 -0.1737428E+06 -0.4174012E+06
  0.1876190E+01  0.7633585E+05  0.2588006E+06 -0.5335154E-02 -0.5493164E-02 -0.1664930E+06 -0.4090832E+06
  0.1907143E+01  0.7218138E+05  0.2545915E+06 -0.2272245E-02 -0.4394531E-02 -0.1602016E+06 -0.4006387E+06
  0.1938095E+01  0.6832758E+05  0.2497161E+06 -0.2771326E-02  0.2441406E-03 -0.1543233E+06 -0.3904802E+06
  0.1969048E+01  0.6488958E+05  0.2445048E+06 -0.2758760E-02 -0.1281738E-02 -0.1490960E+06 -0.3795411E+06
  0.2000000E+01  0.6181318E+05  0.2390376E+06 -0.4638672E-02 -0.2258301E-02 -0.1444618E+06 -0.3682699E+06
Zone t="Motion of body    1 in DoF   2",I=    64,F=POINT
  0.5000000E-01  0.8926392E-02 -0.2765656E-04  0.1964272E+06  0.4466966E+03  0.2441406E-02 -0.9155273E-04
  0.8095238E-01 -0.9141809E-02 -0.5054474E-04  0.1942709E+06  0.7386332E+03 -0.1658720E-01  0.7629395E-05
  0.1119048E+00 -0.9885747E-02  0.1659393E-03  0.1928728E+06  0.1053450E+04 -0.4581533E-01  0.2441406E-03
  0.1428571E+00 -0.5126953E-02 -0.1296997E-03  0.1920959E+06  0.1401870E+04  0.3588867E-01 -0.9765625E-03
  0.1738095E+00 -0.1351970E-01  0.3051758E-04  0.1918622E+06  0.1795886E+04 -0.3933005E-01 -0.1983643E-03
  0.2047619E+00  0.1490393E-02  0.1296997E-03  0.1913230E+06  0.2253297E+04  0.6915425E-01 -0.6408691E-03
  0.2357143E+00  0.5178740E-02 -0.1525879E-04  0.1913285E+06  0.2795205E+04 -0.1864346E-01 -0.1525879E-03
  0.2666667E+00  0.1144409E-02 -0.6904602E-03  0.1913831E+06  0.3436936E+04  0.2746582E-01 -0.7934570E-03
  0.2976190E+00 -0.5947266E-02 -0.9155273E-04  0.1914620E+06  0.4223081E+04  0.7054687E-01 -0.6408691E-03
  0.3285715E+00 -0.1439633E-01  0.9002686E-03  0.1916136E+06  0.5164935E+04 -0.4309612E-01 -0.3051758E-02
  0.3595238E+00 -0.6705783E-02 -0.4348755E-03  0.1916362E+06  0.6310963E+04  0.1086507E-01 -0.9155273E-03
  0.3904762E+00 -0.1602173E-01 -0.3051758E-04  0.1914436E+06  0.7683881E+04  0.0000000E+00 -0.2441406E-03
  0.4214286E+00  0.1375877E-02  0.4730225E-03  0.1911897E+06  0.9244781E+04  0.3244174E-01 -0.7324219E-03
  0.4523810E+00 -0.1194040E-01  0.1144409E-02  0.1900955E+06  0.1108925E+05  0.4317434E-02  0.5737305E-02
  0.4833333E+00  0.1426960E-01 -0.1708984E-02  0.1893308E+06  0.1297967E+05  0.0000000E+00 -0.1342773E-02
  0.5142857E+00 -0.1068115E-02  0.3540039E-02  0.1871735E+06  0.1505566E+05  0.3987630E-01 -0.2441406E-03
  0.5452381E+00 -0.4365746E-02  0.3265381E-02  0.1852927E+06  0.1713410E+05 -0.3582151E-02  0.1037598E-01
  0.5761905E+00 -0.7732801E-02  0.1586914E-02  0.1832685E+06  0.1915663E+05  0.4067665E-01 -0.9765625E-03
  0.6071429E+00 -0.4121668E-02  0.1647949E-02  0.1804089E+06  0.2123047E+05  0.0000000E+00 -0.1147461E-01
  0.6380953E+00 -0.2295651E-02  0.5279541E-02  0.1781709E+06  0.2308990E+05  0.1989564E-01 -0.1708984E-02
  0.6690477E+00  0.5382388E-02 -0.7934570E-03  0.1755345E+06  0.2485274E+05  0.3065225E-01 -0.1684570E-01
  0.7000000E+00 -0.1020159E-01  0.5249023E-02  0.1725048E+06  0.2655937E+05 -0.1953125E-01 -0.2685547E-02
  0.7309524E+00  0.2087521E-02  0.1043701E-01  0.1699989E+06  0.2804123E+05  0.2137622E-01 -0.1977539E-01
  0.7619048E+00  0.6568908E-02  0.5493164E-03  0.1676730E+06  0.2934498E+05 -0.4101562E-01 -0.4882812E-02
  0.7928572E+00 -0.6158501E-03 -0.2258301E-02  0.1645655E+06  0.3050936E+05  0.4926801E-02  0.2929688E-02
  0.8238096E+00 -0.4445335E-03 -0.3112793E-02  0.1619060E+06  0.3148027E+05 -0.9483381E-02  0.3125000E-01
  0.8547620E+00 -0.1013966E-01  0.1220703E-03  0.1597980E+06  0.3220429E+05 -0.1599495E-01 -0.2661133E-01
  0.8857143E+00 -0.5616219E-02 -0.6103516E-04  0.1574820E+06  0.3273534E+05 -0.5512853E-02  0.1977539E-01
  0.9166667E+00 -0.1797763E-02  0.4089355E-02  0.1549428E+06  0.3307726E+05  0.1171875E-01  0.7080078E-02
  0.9476191E+00 -0.1223770E-02 -0.0000000E+00  0.1527864E+06  0.3323726E+05  0.9274890E-02  0.4174805E-01
  0.9785714E+00 -0.3087399E-02  0.4333496E-02  0.1510957E+06  0.3317174E+05  0.9979471E-02 -0.1440430E-01
  0.1009524E+01 -0.1390565E-02 -0.5859375E-02  0.1497556E+06  0.3289870E+05 -0.9673497E-03  0.3442383E-01
  0.1040476E+01 -0.4164916E-02 -0.1220703E-02  0.1476036E+06  0.3238976E+05  0.9385726E-02  0.2539062E-01
  0.1071429E+01 -0.6081136E-02  0.9521484E-02  0.1459965E+06  0.3179096E+05 -0.8203126E-02  0.4150391E-02
  0.1102381E+01 -0.1298348E-01 -0.9155273E-02  0.1447544E+06  0.3104605E+05  0.2569013E-01  0.3564453E-01
  0.1133333E+01 -0.7957010E-02  0.1684570E-01  0.1439590E+06  0.3019994E+05  0.9478400E-02 -0.4882812E-03
  0.1164286E+01 -0.6389033E-02  0.3051758E-02  0.1434714E+06  0.2923498E+05 -0.1845284E-01  0.1586914E-01
  0.1195238E+01 -0.7918308E-02 -0.1379395E-01  0.1421720E+06  0.2794015E+05 -0.2124315E-01  0.1660156E-01
  0.1226190E+01 -0.3227678E-02 -0.1330566E-01  0.1413485E+06  0.2670595E+05 -0.1433556E-01  0.2954102E-01
  0.1257143E+01 -0.3580614E-02 -0.4394531E-02  0.1408017E+06  0.2547519E+05 -0.9321732E-02  0.2587891E-01
  0.1288095E+01 -0.7314911E-02 -0.3662109E-02  0.1405530E+06  0.2417446E+05  0.1819547E-01  0.2978516E-01
  0.1319048E+01  0.4048812E-03 -0.3173828E-02  0.1406944E+06  0.2302664E+05  0.5922833E-02  0.1245117E-01
  0.1350000E+01 -0.2011900E-02  0.1586914E-02  0.1407808E+06  0.2172830E+05  0.7233796E-02  0.7568359E-01
  0.1380952E+01  0.7734628E-03 -0.1293945E-01  0.1403573E+06  0.1998613E+05 -0.2828664E-02 -0.3173828E-02
  0.1411905E+01 -0.1837230E-02 -0.9399414E-02  0.1402608E+06  0.1854491E+05  0.1244994E-01 -0.2587891E-01
  0.1442857E+01 -0.6006826E-02 -0.5737305E-02  0.1403491E+06  0.1724108E+05 -0.1759746E-01  0.3295898E-01
  0.1473810E+01 -0.7454374E-03 -0.1385498E-01  0.1405965E+06  0.1596549E+05 -0.3975666E-02  0.3222656E-01
  0.1504762E+01 -0.6185604E-02  0.1464844E-02  0.1410343E+06  0.1487637E+05 -0.1168166E-01  0.1489258E-01
  0.1535714E+01 -0.2285270E-02  0.1928711E-01  0.1416516E+06  0.1403101E+05 -0.2797965E-01 -0.8544922E-03
  0.1566667E+01 -0.1908972E-02 -0.1281738E-01  0.1419801E+06  0.1276959E+05 -0.3740026E-02  0.1953125E-01
  0.1597619E+01 -0.9971198E-02  0.5249023E-02  0.1421746E+06  0.1120259E+05 -0.3423063E-01  0.1098633E-02
  0.1628572E+01 -0.4553544E-02 -0.1068115E-01  0.1425284E+06  0.1008955E+05 -0.1079359E-01  0.5859375E-02
  0.1659524E+01  0.1581485E-02 -0.9765625E-03  0.1429220E+06  0.9143133E+04  0.1765378E-01  0.1147461E-01
  0.1690476E+01 -0.8195903E-02 -0.1391602E-01  0.1433751E+06  0.8289381E+04  0.5776848E-02  0.3112793E-01
  0.1721429E+01 -0.1879174E-02 -0.1843262E-01  0.1438868E+06  0.7564536E+04  0.4538382E-02  0.4986572E-01
  0.1752381E+01 -0.1184215E-02 -0.6774902E-02  0.1444214E+06  0.7048963E+04  0.3343665E-02  0.1153564E-01
  0.1783333E+01  0.4449292E-03 -0.5676270E-02  0.1449677E+06  0.6621745E+04 -0.1095210E-02  0.1739502E-01
  0.1814286E+01 -0.1581147E-02 -0.2484131E-01  0.1453609E+06  0.5686347E+04  0.2368356E-01  0.3649902E-01
  0.1845238E+01  0.6284652E-03 -0.9338379E-02  0.1457615E+06  0.4757131E+04  0.8467742E-02  0.2160645E-01
  0.1876190E+01  0.1789229E-02 -0.3356934E-02  0.1461697E+06  0.4277002E+04 -0.1561509E-01  0.8605957E-02
  0.1907143E+01 -0.2624283E-02 -0.8911133E-02  0.1465401E+06  0.3915210E+04  0.4096442E-02  0.1672363E-01
  0.1938095E+01 -0.2047002E-02 -0.4821777E-02  0.1469257E+06  0.3578186E+04  0.6046529E-02  0.1242065E-01
  0.1969048E+01 -0.8369271E-03 -0.1364136E-01  0.1473113E+06  0.3267682E+04  0.6943395E-02  0.2221680E-01
  0.2000000E+01  0.1037598E-02 -0.1184082E-01  0.1476865E+06  0.2995130E+04  0.1367188E-01  0.1885986E-01
Zone t="Motion of body    1 in DoF   3",I=    64,F=POINT
  0.5000000E-01 -0.3590708E+06 -0.6330714E-01 -0.5798340E-02 -0.2156728E-03  0.1116750E+07  0.1061375E+00
  0.8095238E-01 -0.3603148E+06 -0.2799106E+00  0.2186495E-01 -0.7701619E-04  0.1118968E+07  0.4685581E+00
  0.1119048E+00 -0.3615356E+06 -0.7843932E+00 -0.6626859E-01 -0.9903507E-03  0.1121437E+07  0.1313076E+01
  0.1428571E+00 -0.3614421E+06 -0.1764948E+01 -0.6408691E-02 -0.3540330E-03  0.1121421E+07  0.2953114E+01
  0.1738095E+00 -0.3625509E+06 -0.3516242E+01 -0.3546728E-01 -0.9950995E-03  0.1124526E+07  0.5884245E+01
  0.2047619E+00 -0.3634370E+06 -0.6489355E+01  0.1085006E+00  0.2452508E-03  0.1124961E+07  0.1087355E+02
  0.2357143E+00 -0.3639972E+06 -0.1143182E+02  0.2149177E-01 -0.4198998E-03  0.1125272E+07  0.1915673E+02
  0.2666667E+00 -0.3656371E+06 -0.1951833E+02  0.8285522E-01  0.1303583E-02  0.1128486E+07  0.3272978E+02
  0.2976190E+00 -0.3663968E+06 -0.3273981E+02 -0.4552734E-01 -0.3296316E-02  0.1129287E+07  0.5492645E+02
  0.3285715E+00 -0.3681668E+06 -0.5419720E+02 -0.4904041E-01 -0.4824579E-02  0.1132823E+07  0.9101807E+02
  0.3595238E+00 -0.3697128E+06 -0.8909211E+02  0.1426040E-01 -0.3598213E-02  0.1134427E+07  0.1496656E+03
  0.3904762E+00 -0.3720332E+06 -0.1453707E+03  0.1125429E-01 -0.2085924E-02  0.1138824E+07  0.2444921E+03
  0.4214286E+00 -0.3734007E+06 -0.2338761E+03 -0.7299390E-01 -0.1051307E-01  0.1142606E+07  0.3938218E+03
  0.4523810E+00 -0.3769606E+06 -0.3737932E+03  0.2968236E-02 -0.7476807E-03  0.1147198E+07  0.6299727E+03
  0.4833333E+00 -0.3792618E+06 -0.5822924E+03 -0.1075902E+00 -0.1914120E-01  0.1152889E+07  0.9821713E+03
  0.5142857E+00 -0.3824253E+06 -0.8924125E+03  0.3655328E-01 -0.7143021E-03  0.1155731E+07  0.1506422E+04
  0.5452381E+00 -0.3853924E+06 -0.1333929E+04 -0.1320918E+00 -0.2402878E-01  0.1161859E+07  0.2255054E+04
  0.5761905E+00 -0.3887385E+06 -0.1949365E+04  0.1694860E-02 -0.5527496E-02  0.1167357E+07  0.3297161E+04
  0.6071429E+00 -0.3940178E+06 -0.2800061E+04 -0.4021139E-03 -0.2216339E-02  0.1175320E+07  0.4741225E+04
  0.6380953E+00 -0.3976582E+06 -0.3928115E+04  0.2448694E-01  0.4322052E-02  0.1182389E+07  0.6657067E+04
  0.6690477E+00 -0.4014736E+06 -0.5413418E+04  0.6495357E-01 -0.5645752E-03  0.1188604E+07  0.9184328E+04
  0.7000000E+00 -0.4075296E+06 -0.7354333E+04  0.5859375E-01  0.1481628E-01  0.1198426E+07  0.1249016E+05
  0.7309524E+00 -0.4127354E+06 -0.9836099E+04  0.7682079E-02 -0.1451111E-01  0.1207208E+07  0.1671353E+05
  0.7619048E+00 -0.4181987E+06 -0.1298608E+05  0.2403259E-01 -0.4486084E-02  0.1217487E+07  0.2208179E+05
  0.7928572E+00 -0.4244356E+06 -0.1693678E+05  0.1053104E+00  0.3475952E-01  0.1225421E+07  0.2881203E+05
  0.8238096E+00 -0.4309138E+06 -0.2182266E+05  0.9305567E-01  0.3472900E-01  0.1237588E+07  0.3717926E+05
  0.8547620E+00 -0.4361178E+06 -0.2777491E+05 -0.4112987E-01 -0.2429199E-01  0.1248027E+07  0.4736871E+05
  0.8857143E+00 -0.4419247E+06 -0.3496196E+05  0.3886561E-01 -0.1440430E-01  0.1256723E+07  0.5959328E+05
  0.9166667E+00 -0.4488705E+06 -0.4360827E+05 -0.1065341E-01 -0.1831055E-01  0.1266294E+07  0.7433872E+05
  0.9476191E+00 -0.4554052E+06 -0.5385439E+05  0.3349266E-02 -0.1281738E-01  0.1277772E+07  0.9186725E+05
  0.9785714E+00 -0.4602063E+06 -0.6584499E+05 -0.8482550E-02 -0.5621338E-01  0.1286026E+07  0.1123319E+06
  0.1009524E+01 -0.4644651E+06 -0.7975495E+05 -0.1862148E-01 -0.8300781E-01  0.1294964E+07  0.1361405E+06
  0.1040476E+01 -0.4676434E+06 -0.9559608E+05 -0.3683897E-01 -0.6689453E-01  0.1296675E+07  0.1630993E+06
  0.1071429E+01 -0.4712452E+06 -0.1135444E+06 -0.4101563E-02 -0.1867676E-01  0.1303882E+07  0.1939476E+06
  0.1102381E+01 -0.4722550E+06 -0.1332452E+06 -0.3521320E-01 -0.4150391E-01  0.1304879E+07  0.2274078E+06
  0.1133333E+01 -0.4712360E+06 -0.1548132E+06  0.2714269E-01 -0.1208496E-01  0.1303027E+07  0.2639779E+06
  0.1164286E+01 -0.4688062E+06 -0.1782129E+06  0.3984135E-01 -0.1013184E-01  0.1300174E+07  0.3038473E+06
  0.1195238E+01 -0.4639065E+06 -0.2028235E+06 -0.2206020E-01 -0.3442383E-01  0.1287095E+07  0.3450690E+06
  0.1226190E+01 -0.4584203E+06 -0.2288018E+06  0.3743174E-01 -0.2026367E-01  0.1277245E+07  0.3891979E+06
  0.1257143E+01 -0.4499295E+06 -0.2550704E+06  0.1670144E-01 -0.2368164E-01  0.1262779E+07  0.4335470E+06
  0.1288095E+01 -0.4390051E+06 -0.2810466E+06  0.1933269E-01  0.1757812E-01  0.1242727E+07  0.4766818E+06
  0.1319048E+01 -0.4263615E+06 -0.3068224E+06  0.3997913E-01  0.5859375E-02  0.1222490E+07  0.5200389E+06
  0.1350000E+01 -0.4118272E+06 -0.3315151E+06 -0.4557291E-01 -0.2197266E-01  0.1197737E+07  0.5611019E+06
  0.1380952E+01 -0.3954643E+06 -0.3542184E+06  0.2510439E-01 -0.2050781E-01  0.1165019E+07  0.5970742E+06
  0.1411905E+01 -0.3790646E+06 -0.3753358E+06  0.3008735E-01  0.2929688E-02  0.1136844E+07  0.6318051E+06
  0.1442857E+01 -0.3622308E+06 -0.3941758E+06 -0.9475557E-02 -0.2368164E-01  0.1108432E+07  0.6623321E+06
  0.1473810E+01 -0.3440623E+06 -0.4100528E+06  0.6626111E-02  0.1123047E-01  0.1076904E+07  0.6871504E+06
  0.1504762E+01 -0.3254040E+06 -0.4231849E+06 -0.2531027E-01 -0.1953125E-01  0.1045622E+07  0.7076462E+06
  0.1535714E+01 -0.3073899E+06 -0.4339166E+06 -0.1081032E-01 -0.2270508E-01  0.1017218E+07  0.7246898E+06
  0.1566667E+01 -0.2897192E+06 -0.4412939E+06 -0.1745346E-01  0.2197266E-02  0.9859526E+06  0.7334412E+06
  0.1597619E+01 -0.2726412E+06 -0.4456034E+06 -0.2200540E-01  0.2783203E-01  0.9530459E+06  0.7347364E+06
  0.1628572E+01 -0.2576544E+06 -0.4489238E+06 -0.2158717E-01 -0.1806641E-01  0.9279139E+06  0.7383164E+06
  0.1659524E+01 -0.2436433E+06 -0.4500825E+06  0.4001524E-01 -0.1293945E-01  0.9054205E+06  0.7387218E+06
  0.1690476E+01 -0.2300391E+06 -0.4485347E+06  0.3350572E-01 -0.1220703E-02  0.8829159E+06  0.7330409E+06
  0.1721429E+01 -0.2167736E+06 -0.4444443E+06 -0.1645163E-01 -0.2148438E-01  0.8607245E+06  0.7224718E+06
  0.1752381E+01 -0.2049076E+06 -0.4396020E+06  0.2674932E-01  0.2929688E-02  0.8429468E+06  0.7133218E+06
  0.1783333E+01 -0.1942498E+06 -0.4339087E+06  0.2792786E-01  0.9521484E-02  0.8279158E+06  0.7038002E+06
  0.1814286E+01 -0.1845309E+06 -0.4255557E+06  0.3983145E-01  0.2441406E-02  0.8101953E+06  0.6827323E+06
  0.1845238E+01 -0.1758796E+06 -0.4159703E+06  0.3969254E-01  0.1000977E-01  0.7936372E+06  0.6577109E+06
  0.1876190E+01 -0.1689763E+06 -0.4077052E+06 -0.2498414E-01 -0.1953125E-02  0.7828261E+06  0.6415669E+06
  0.1907143E+01 -0.1631166E+06 -0.3995147E+06 -0.2048221E-02  0.5371094E-02  0.7746238E+06  0.6275928E+06
  0.1938095E+01 -0.1573616E+06 -0.3893754E+06  0.1813959E-01 -0.2929688E-02  0.7662281E+06  0.6079142E+06
  0.1969048E+01 -0.1521162E+06 -0.3782663E+06  0.2083019E-01  0.1062012E-01  0.7585238E+06  0.5858588E+06
  0.2000000E+01 -0.1473786E+06 -0.3669940E+06  0.2978516E-01 -0.9765625E-03  0.7521141E+06  0.5654393E+06
