VARIABLES="w (rad/s)"
"abs(F   1   1)" "angle(F   1   1)"
"abs(F   1   2)" "angle(F   1   2)"
"abs(F   1   3)" "angle(F   1   3)"
Zone t="Diffraction force - beta =   0.000 deg",I=    64,F=POINT
  0.5000000E-01  0.1801705E+04 -0.1570795E+01  0.3523941E+03 -0.3086739E+01  0.6661830E+03  0.1570796E+01
  0.8095238E-01  0.2948093E+04 -0.1570792E+01  0.9124042E+03 -0.3084714E+01  0.1101755E+04  0.1570796E+01
  0.1119048E+00  0.4118020E+04 -0.1570787E+01  0.1731834E+04 -0.3082263E+01  0.1531627E+04  0.1570796E+01
  0.1428571E+00  0.5321433E+04 -0.1570781E+01  0.2814157E+04 -0.3079239E+01  0.1972556E+04  0.1570796E+01
  0.1738095E+00  0.6574467E+04 -0.1570771E+01  0.4162072E+04 -0.3075404E+01  0.2430843E+04  0.1570796E+01
  0.2047619E+00  0.7887199E+04 -0.1570756E+01  0.5787523E+04 -0.3070676E+01  0.2909384E+04  0.1570796E+01
  0.2357143E+00  0.9287151E+04 -0.1570735E+01  0.7691586E+04 -0.3064665E+01  0.3400666E+04  0.1570795E+01
  0.2666667E+00  0.1078085E+05 -0.1570704E+01  0.9890384E+04 -0.3057410E+01  0.3939126E+04  0.1570795E+01
  0.2976190E+00  0.1239562E+05 -0.1570658E+01  0.1239311E+05 -0.3048322E+01  0.4498436E+04  0.1570792E+01
  0.3285715E+00  0.1416137E+05 -0.1570589E+01  0.1520262E+05 -0.3037429E+01  0.5093871E+04  0.1570788E+01
  0.3595238E+00  0.1609476E+05 -0.1570487E+01  0.1831954E+05 -0.3024210E+01  0.5750769E+04  0.1570781E+01
  0.3904762E+00  0.1820687E+05 -0.1570333E+01  0.2177035E+05 -0.3008679E+01  0.6482439E+04  0.1570769E+01
  0.4214286E+00  0.2056319E+05 -0.1570109E+01  0.2548429E+05 -0.2991238E+01  0.7217356E+04  0.1570746E+01
  0.4523810E+00  0.2314184E+05 -0.1569780E+01  0.2948974E+05 -0.2971084E+01  0.8028544E+04  0.1570706E+01
  0.4833333E+00  0.2594209E+05 -0.1569323E+01  0.3372548E+05 -0.2950768E+01  0.8921043E+04  0.1570646E+01
  0.5142857E+00  0.2895668E+05 -0.1568690E+01  0.3818654E+05 -0.2928842E+01  0.9858385E+04  0.1570551E+01
  0.5452381E+00  0.3217701E+05 -0.1567846E+01  0.4283013E+05 -0.2906947E+01  0.1081142E+05  0.1570401E+01
  0.5761905E+00  0.3559268E+05 -0.1566751E+01  0.4763371E+05 -0.2885459E+01  0.1177315E+05  0.1570174E+01
  0.6071429E+00  0.3916471E+05 -0.1565338E+01  0.5259362E+05 -0.2863549E+01  0.1279837E+05  0.1569858E+01
  0.6380953E+00  0.4285730E+05 -0.1563576E+01  0.5773179E+05 -0.2843157E+01  0.1385344E+05  0.1569419E+01
  0.6690477E+00  0.4667900E+05 -0.1561394E+01  0.6297687E+05 -0.2822979E+01  0.1482986E+05  0.1568777E+01
  0.7000000E+00  0.5063366E+05 -0.1558722E+01  0.6828718E+05 -0.2802607E+01  0.1580373E+05  0.1567901E+01
  0.7309524E+00  0.5468349E+05 -0.1555508E+01  0.7371804E+05 -0.2783258E+01  0.1676399E+05  0.1566725E+01
  0.7619048E+00  0.5880761E+05 -0.1551670E+01  0.7923792E+05 -0.2764538E+01  0.1771858E+05  0.1565176E+01
  0.7928572E+00  0.6297419E+05 -0.1547131E+01  0.8480317E+05 -0.2746213E+01  0.1868195E+05  0.1563188E+01
  0.8238096E+00  0.6716930E+05 -0.1541820E+01  0.9039738E+05 -0.2728357E+01  0.1955405E+05  0.1560554E+01
  0.8547620E+00  0.7142259E+05 -0.1535686E+01  0.9600862E+05 -0.2711076E+01  0.2037891E+05  0.1557180E+01
  0.8857143E+00  0.7567635E+05 -0.1528649E+01  0.1016119E+06 -0.2694368E+01  0.2111786E+05  0.1552840E+01
  0.9166667E+00  0.7991923E+05 -0.1520658E+01  0.1072065E+06 -0.2678349E+01  0.2184228E+05  0.1547484E+01
  0.9476191E+00  0.8406927E+05 -0.1511635E+01  0.1127598E+06 -0.2662941E+01  0.2253721E+05  0.1540911E+01
  0.9785714E+00  0.8814013E+05 -0.1501556E+01  0.1182767E+06 -0.2648344E+01  0.2325325E+05  0.1533101E+01
  0.1009524E+01  0.9204311E+05 -0.1490367E+01  0.1237376E+06 -0.2634442E+01  0.2388921E+05  0.1523595E+01
  0.1040476E+01  0.9578860E+05 -0.1478099E+01  0.1291235E+06 -0.2621226E+01  0.2442348E+05  0.1512045E+01
  0.1071429E+01  0.9933586E+05 -0.1464739E+01  0.1344038E+06 -0.2608541E+01  0.2499893E+05  0.1498869E+01
  0.1102381E+01  0.1025726E+06 -0.1450276E+01  0.1395723E+06 -0.2596428E+01  0.2549395E+05  0.1483337E+01
  0.1133333E+01  0.1055552E+06 -0.1434828E+01  0.1446424E+06 -0.2585146E+01  0.2603974E+05  0.1466101E+01
  0.1164286E+01  0.1081252E+06 -0.1418368E+01  0.1496115E+06 -0.2574746E+01  0.2659007E+05  0.1446869E+01
  0.1195238E+01  0.1102763E+06 -0.1401031E+01  0.1544655E+06 -0.2565207E+01  0.2722175E+05  0.1426354E+01
  0.1226190E+01  0.1119554E+06 -0.1382913E+01  0.1591930E+06 -0.2556504E+01  0.2799804E+05  0.1405509E+01
  0.1257143E+01  0.1130450E+06 -0.1363915E+01  0.1638205E+06 -0.2548151E+01  0.2885723E+05  0.1384151E+01
  0.1288095E+01  0.1136249E+06 -0.1344892E+01  0.1682335E+06 -0.2541090E+01  0.2978984E+05  0.1363294E+01
  0.1319048E+01  0.1135840E+06 -0.1325481E+01  0.1725536E+06 -0.2534460E+01  0.3082137E+05  0.1343299E+01
  0.1350000E+01  0.1129129E+06 -0.1306047E+01  0.1767256E+06 -0.2528506E+01  0.3201340E+05  0.1325739E+01
  0.1380952E+01  0.1115862E+06 -0.1286904E+01  0.1807507E+06 -0.2523372E+01  0.3331695E+05  0.1310707E+01
  0.1411905E+01  0.1093915E+06 -0.1268772E+01  0.1839810E+06 -0.2519524E+01  0.3493941E+05  0.1302243E+01
  0.1442857E+01  0.1067858E+06 -0.1250807E+01  0.1877135E+06 -0.2515701E+01  0.3653529E+05  0.1294798E+01
  0.1473810E+01  0.1035180E+06 -0.1233956E+01  0.1913147E+06 -0.2512481E+01  0.3825521E+05  0.1291580E+01
  0.1504762E+01  0.9963446E+05 -0.1218733E+01  0.1947903E+06 -0.2509976E+01  0.4013372E+05  0.1293369E+01
  0.1535714E+01  0.9510759E+05 -0.1205332E+01  0.1981488E+06 -0.2507977E+01  0.4213805E+05  0.1299825E+01
  0.1566667E+01  0.9000837E+05 -0.1194463E+01  0.2013898E+06 -0.2506566E+01  0.4427670E+05  0.1311120E+01
  0.1597619E+01  0.8433570E+05 -0.1186798E+01  0.2045036E+06 -0.2505582E+01  0.4648101E+05  0.1326294E+01
  0.1628572E+01  0.7818416E+05 -0.1183158E+01  0.2075128E+06 -0.2504800E+01  0.4882668E+05  0.1345940E+01
  0.1659524E+01  0.7157556E+05 -0.1184688E+01  0.2104122E+06 -0.2504305E+01  0.5128661E+05  0.1369370E+01
  0.1690476E+01  0.6456782E+05 -0.1193173E+01  0.2131847E+06 -0.2503726E+01  0.5380078E+05  0.1395831E+01
  0.1721429E+01  0.5727722E+05 -0.1211525E+01  0.2158564E+06 -0.2503346E+01  0.5644605E+05  0.1425580E+01
  0.1752381E+01  0.4973902E+05 -0.1244089E+01  0.2183932E+06 -0.2502816E+01  0.5912930E+05  0.1457417E+01
  0.1783333E+01  0.4209447E+05 -0.1297967E+01  0.2207836E+06 -0.2501934E+01  0.6194161E+05  0.1491536E+01
  0.1814286E+01  0.3454226E+05 -0.1387369E+01  0.2230023E+06 -0.2500773E+01  0.6485516E+05  0.1527371E+01
  0.1845238E+01  0.2740620E+05 -0.1539341E+01  0.2250004E+06 -0.2499151E+01  0.6780517E+05  0.1564285E+01
  0.1876190E+01  0.2146070E+05 -0.1801569E+01  0.2267104E+06 -0.2496754E+01  0.7085437E+05  0.1602305E+01
  0.1907143E+01  0.1815418E+05 -0.2218908E+01  0.2280997E+06 -0.2493588E+01  0.7403459E+05  0.1641052E+01
  0.1938095E+01  0.1907616E+05 -0.2701654E+01  0.2290861E+06 -0.2489639E+01  0.7725935E+05  0.1680014E+01
  0.1969048E+01  0.2383150E+05 -0.3061778E+01  0.2295731E+06 -0.2485116E+01  0.8060562E+05  0.1719135E+01
  0.2000000E+01  0.3070712E+05  0.3004310E+01  0.2295594E+06 -0.2480213E+01  0.8401539E+05  0.1758004E+01
