VARIABLES="w (rad/s)"
"abs(F   1   1)" "angle(F   1   1)"
"abs(F   1   2)" "angle(F   1   2)"
"abs(F   1   3)" "angle(F   1   3)"
Zone t="Diffraction force - beta =   0.000 deg",I=    64,F=POINT
  0.5000000E-01  0.2344030E+03 -0.1570823E+01  0.8732366E+05 -0.5976136E-05  0.2393725E+01 -0.1570436E+01
  0.8095238E-01  0.3821997E+03 -0.1570793E+01  0.8724930E+05 -0.1609197E-04  0.3911603E+01 -0.1570543E+01
  0.1119048E+00  0.5330811E+03 -0.1570827E+01  0.8713978E+05 -0.3199651E-04  0.5468316E+01 -0.1570642E+01
  0.1428571E+00  0.6902691E+03 -0.1570779E+01  0.8699502E+05 -0.5496257E-04  0.7091187E+01 -0.1570653E+01
  0.1738095E+00  0.8539650E+03 -0.1570802E+01  0.8681494E+05 -0.8692101E-04  0.8770967E+01 -0.1570678E+01
  0.2047619E+00  0.1027805E+04 -0.1570795E+01  0.8659908E+05 -0.1306258E-03  0.1058449E+02 -0.1570697E+01
  0.2357143E+00  0.1211600E+04 -0.1570786E+01  0.8634720E+05 -0.1902263E-03  0.1249315E+02 -0.1570723E+01
  0.2666667E+00  0.1411316E+04 -0.1570791E+01  0.8605897E+05 -0.2708889E-03  0.1456987E+02 -0.1570710E+01
  0.2976190E+00  0.1628554E+04 -0.1570796E+01  0.8573395E+05 -0.3810801E-03  0.1689813E+02 -0.1570729E+01
  0.3285715E+00  0.1864365E+04 -0.1570793E+01  0.8537181E+05 -0.5300370E-03  0.1940668E+02 -0.1570742E+01
  0.3595238E+00  0.2127113E+04 -0.1570785E+01  0.8497239E+05 -0.7317341E-03  0.2219052E+02 -0.1570746E+01
  0.3904762E+00  0.2418890E+04 -0.1570781E+01  0.8453610E+05 -0.1002659E-02  0.2535204E+02 -0.1570744E+01
  0.4214286E+00  0.2741551E+04 -0.1570776E+01  0.8406323E+05 -0.1354404E-02  0.2890771E+02 -0.1570740E+01
  0.4523810E+00  0.3095487E+04 -0.1570768E+01  0.8355414E+05 -0.1814690E-02  0.3272014E+02 -0.1570733E+01
  0.4833333E+00  0.3487871E+04 -0.1570746E+01  0.8301073E+05 -0.2376023E-02  0.3704995E+02 -0.1570718E+01
  0.5142857E+00  0.3916156E+04 -0.1570727E+01  0.8243408E+05 -0.3070565E-02  0.4188773E+02 -0.1570702E+01
  0.5452381E+00  0.4371877E+04 -0.1570696E+01  0.8182473E+05 -0.3893706E-02  0.4708480E+02 -0.1570675E+01
  0.5761905E+00  0.4857842E+04 -0.1570656E+01  0.8118273E+05 -0.4851601E-02  0.5259789E+02 -0.1570641E+01
  0.6071429E+00  0.5377312E+04 -0.1570607E+01  0.8051116E+05 -0.5973715E-02  0.5862766E+02 -0.1570590E+01
  0.6380953E+00  0.5925967E+04 -0.1570543E+01  0.7980809E+05 -0.7241382E-02  0.6535066E+02 -0.1570529E+01
  0.6690477E+00  0.6496676E+04 -0.1570460E+01  0.7907588E+05 -0.8685611E-02  0.7203916E+02 -0.1570447E+01
  0.7000000E+00  0.7084250E+04 -0.1570358E+01  0.7831673E+05 -0.1032682E-01  0.7879688E+02 -0.1570350E+01
  0.7309524E+00  0.7700515E+04 -0.1570235E+01  0.7752848E+05 -0.1216084E-01  0.8641365E+02 -0.1570223E+01
  0.7619048E+00  0.8346949E+04 -0.1570082E+01  0.7671427E+05 -0.1421023E-01  0.9452611E+02 -0.1570074E+01
  0.7928572E+00  0.9016793E+04 -0.1569900E+01  0.7587684E+05 -0.1648970E-01  0.1029714E+03 -0.1569889E+01
  0.8238096E+00  0.9705541E+04 -0.1569678E+01  0.7501772E+05 -0.1901055E-01  0.1119337E+03 -0.1569672E+01
  0.8547620E+00  0.1041045E+05 -0.1569416E+01  0.7413521E+05 -0.2178222E-01  0.1209678E+03 -0.1569408E+01
  0.8857143E+00  0.1113237E+05 -0.1569105E+01  0.7323177E+05 -0.2481763E-01  0.1301525E+03 -0.1569100E+01
  0.9166667E+00  0.1188064E+05 -0.1568741E+01  0.7230963E+05 -0.2812827E-01  0.1399851E+03 -0.1568735E+01
  0.9476191E+00  0.1265256E+05 -0.1568318E+01  0.7137287E+05 -0.3172559E-01  0.1506835E+03 -0.1568313E+01
  0.9785714E+00  0.1344907E+05 -0.1567827E+01  0.7041988E+05 -0.3561773E-01  0.1620709E+03 -0.1567823E+01
  0.1009524E+01  0.1426528E+05 -0.1567261E+01  0.6945302E+05 -0.3981350E-01  0.1737710E+03 -0.1567259E+01
  0.1040476E+01  0.1509562E+05 -0.1566614E+01  0.6847430E+05 -0.4432236E-01  0.1856468E+03 -0.1566610E+01
  0.1071429E+01  0.1593507E+05 -0.1565876E+01  0.6748548E+05 -0.4915289E-01  0.1974876E+03 -0.1565872E+01
  0.1102381E+01  0.1678415E+05 -0.1565040E+01  0.6648670E+05 -0.5431254E-01  0.2098586E+03 -0.1565036E+01
  0.1133333E+01  0.1765667E+05 -0.1564097E+01  0.6547851E+05 -0.5980847E-01  0.2232643E+03 -0.1564093E+01
  0.1164286E+01  0.1855108E+05 -0.1563040E+01  0.6446355E+05 -0.6564800E-01  0.2371379E+03 -0.1563039E+01
  0.1195238E+01  0.1946400E+05 -0.1561859E+01  0.6344471E+05 -0.7183697E-01  0.2515281E+03 -0.1561860E+01
  0.1226190E+01  0.2039262E+05 -0.1560546E+01  0.6242303E+05 -0.7838078E-01  0.2663984E+03 -0.1560547E+01
  0.1257143E+01  0.2132326E+05 -0.1559091E+01  0.6140338E+05 -0.8535831E-01  0.2819629E+03 -0.1559093E+01
  0.1288095E+01  0.2228129E+05 -0.1557483E+01  0.6037704E+05 -0.9255242E-01  0.2985661E+03 -0.1557486E+01
  0.1319048E+01  0.2323827E+05 -0.1555714E+01  0.5935189E+05 -0.1001832E+00  0.3151730E+03 -0.1555716E+01
  0.1350000E+01  0.2419720E+05 -0.1553777E+01  0.5832764E+05 -0.1081821E+00  0.3314259E+03 -0.1553773E+01
  0.1380952E+01  0.2515618E+05 -0.1551660E+01  0.5730364E+05 -0.1165474E+00  0.3478084E+03 -0.1551650E+01
  0.1411905E+01  0.2607534E+05 -0.1549448E+01  0.5629070E+05 -0.1252387E+00  0.3624261E+03 -0.1549441E+01
  0.1442857E+01  0.2704985E+05 -0.1546979E+01  0.5527730E+05 -0.1343721E+00  0.3806912E+03 -0.1546982E+01
  0.1473810E+01  0.2803256E+05 -0.1544324E+01  0.5426819E+05 -0.1438876E+00  0.3997278E+03 -0.1544346E+01
  0.1504762E+01  0.2902339E+05 -0.1541477E+01  0.5326466E+05 -0.1537848E+00  0.4196892E+03 -0.1541505E+01
  0.1535714E+01  0.3001408E+05 -0.1538433E+01  0.5226792E+05 -0.1640632E+00  0.4396271E+03 -0.1538462E+01
  0.1566667E+01  0.3100229E+05 -0.1535190E+01  0.5127988E+05 -0.1747272E+00  0.4600492E+03 -0.1535225E+01
  0.1597619E+01  0.3198208E+05 -0.1531744E+01  0.5030023E+05 -0.1857753E+00  0.4805044E+03 -0.1531783E+01
  0.1628572E+01  0.3295336E+05 -0.1528096E+01  0.4932929E+05 -0.1972064E+00  0.5014299E+03 -0.1528132E+01
  0.1659524E+01  0.3390510E+05 -0.1524246E+01  0.4837003E+05 -0.2090317E+00  0.5224676E+03 -0.1524265E+01
  0.1690476E+01  0.3483774E+05 -0.1520200E+01  0.4741887E+05 -0.2212379E+00  0.5435453E+03 -0.1520188E+01
  0.1721429E+01  0.3575176E+05 -0.1515967E+01  0.4647604E+05 -0.2338298E+00  0.5648766E+03 -0.1515912E+01
  0.1752381E+01  0.3664634E+05 -0.1511565E+01  0.4554188E+05 -0.2468042E+00  0.5867220E+03 -0.1511503E+01
  0.1783333E+01  0.3752418E+05 -0.1507028E+01  0.4461803E+05 -0.2601779E+00  0.6082969E+03 -0.1506960E+01
  0.1814286E+01  0.3838104E+05 -0.1502371E+01  0.4370650E+05 -0.2739463E+00  0.6304279E+03 -0.1502330E+01
  0.1845238E+01  0.3921032E+05 -0.1497606E+01  0.4280741E+05 -0.2881106E+00  0.6521535E+03 -0.1497622E+01
  0.1876190E+01  0.4001275E+05 -0.1492761E+01  0.4192066E+05 -0.3026614E+00  0.6741619E+03 -0.1492792E+01
  0.1907143E+01  0.4078028E+05 -0.1487849E+01  0.4104898E+05 -0.3176152E+00  0.6963720E+03 -0.1487859E+01
  0.1938095E+01  0.4150877E+05 -0.1482897E+01  0.4018964E+05 -0.3329527E+00  0.7185769E+03 -0.1482872E+01
  0.1969048E+01  0.4219850E+05 -0.1477935E+01  0.3934182E+05 -0.3486784E+00  0.7407826E+03 -0.1477882E+01
  0.2000000E+01  0.4284666E+05 -0.1472995E+01  0.3850551E+05 -0.3647861E+00  0.7629362E+03 -0.1472906E+01
