VARIABLES="w (rad/s)"
"abs(F   1   1)" "angle(F   1   1)"
"abs(F   1   2)" "angle(F   1   2)"
"abs(F   1   3)" "angle(F   1   3)"
Zone t="Diffraction force - beta =   0.000 deg",I=    64,F=POINT
  0.5000000E-01  0.6201982E+04 -0.1570799E+01  0.5379913E+06 -0.3738811E-04  0.8089374E+04  0.1570799E+01
  0.8095238E-01  0.1013379E+05 -0.1570799E+01  0.5368850E+06 -0.1005569E-03  0.1321898E+05  0.1570796E+01
  0.1119048E+00  0.1414074E+05 -0.1570792E+01  0.5352606E+06 -0.1996142E-03  0.1843312E+05  0.1570791E+01
  0.1428571E+00  0.1828097E+05 -0.1570784E+01  0.5331179E+06 -0.3421139E-03  0.2380636E+05  0.1570811E+01
  0.1738095E+00  0.2260645E+05 -0.1570773E+01  0.5304528E+06 -0.5394400E-03  0.2937618E+05  0.1570823E+01
  0.2047619E+00  0.2713804E+05 -0.1570763E+01  0.5272592E+06 -0.8079940E-03  0.3521635E+05  0.1570825E+01
  0.2357143E+00  0.3196838E+05 -0.1570747E+01  0.5235290E+06 -0.1172117E-02  0.4138262E+05  0.1570848E+01
  0.2666667E+00  0.3714805E+05 -0.1570720E+01  0.5192629E+06 -0.1661088E-02  0.4796739E+05  0.1570873E+01
  0.2976190E+00  0.4275032E+05 -0.1570680E+01  0.5144495E+06 -0.2325050E-02  0.5507455E+05  0.1570910E+01
  0.3285715E+00  0.4887556E+05 -0.1570621E+01  0.5090840E+06 -0.3214100E-02  0.6276548E+05  0.1570969E+01
  0.3595238E+00  0.5563269E+05 -0.1570535E+01  0.5031926E+06 -0.4408891E-02  0.7117580E+05  0.1571059E+01
  0.3904762E+00  0.6305446E+05 -0.1570407E+01  0.4967607E+06 -0.5998184E-02  0.8038318E+05  0.1571187E+01
  0.4214286E+00  0.7127359E+05 -0.1570215E+01  0.4898578E+06 -0.8038135E-02  0.9054267E+05  0.1571378E+01
  0.4523810E+00  0.8031039E+05 -0.1569935E+01  0.4824897E+06 -0.1068502E-01  0.1015797E+06  0.1571654E+01
  0.4833333E+00  0.9022579E+05 -0.1569551E+01  0.4747423E+06 -0.1386455E-01  0.1134974E+06  0.1572042E+01
  0.5142857E+00  0.1008858E+06 -0.1569013E+01  0.4666440E+06 -0.1775935E-01  0.1263525E+06  0.1572577E+01
  0.5452381E+00  0.1123065E+06 -0.1568296E+01  0.4582076E+06 -0.2230725E-01  0.1400080E+06  0.1573295E+01
  0.5761905E+00  0.1245096E+06 -0.1567363E+01  0.4495079E+06 -0.2752120E-01  0.1543429E+06  0.1574228E+01
  0.6071429E+00  0.1373434E+06 -0.1566155E+01  0.4406002E+06 -0.3355102E-01  0.1692162E+06  0.1575436E+01
  0.6380953E+00  0.1507568E+06 -0.1564647E+01  0.4314135E+06 -0.4025143E-01  0.1845728E+06  0.1576945E+01
  0.6690477E+00  0.1647010E+06 -0.1562772E+01  0.4220394E+06 -0.4776654E-01  0.2005145E+06  0.1578819E+01
  0.7000000E+00  0.1791032E+06 -0.1560461E+01  0.4125480E+06 -0.5619068E-01  0.2166782E+06  0.1581128E+01
  0.7309524E+00  0.1940822E+06 -0.1557673E+01  0.4029000E+06 -0.6545734E-01  0.2330440E+06  0.1583916E+01
  0.7619048E+00  0.2096074E+06 -0.1554326E+01  0.3931658E+06 -0.7564906E-01  0.2497605E+06  0.1587262E+01
  0.7928572E+00  0.2254126E+06 -0.1550344E+01  0.3833867E+06 -0.8682340E-01  0.2665215E+06  0.1591239E+01
  0.8238096E+00  0.2416062E+06 -0.1545659E+01  0.3735582E+06 -0.9900394E-01  0.2835732E+06  0.1595922E+01
  0.8547620E+00  0.2580737E+06 -0.1540206E+01  0.3636864E+06 -0.1122218E+00  0.3004899E+06  0.1601370E+01
  0.8857143E+00  0.2749280E+06 -0.1533916E+01  0.3538369E+06 -0.1265122E+00  0.3174335E+06  0.1607654E+01
  0.9166667E+00  0.2919087E+06 -0.1526719E+01  0.3440619E+06 -0.1419200E+00  0.3339462E+06  0.1614843E+01
  0.9476191E+00  0.3091632E+06 -0.1518551E+01  0.3343649E+06 -0.1584631E+00  0.3504062E+06  0.1623000E+01
  0.9785714E+00  0.3264132E+06 -0.1509370E+01  0.3247416E+06 -0.1761730E+00  0.3661960E+06  0.1632164E+01
  0.1009524E+01  0.3436848E+06 -0.1499124E+01  0.3152082E+06 -0.1950924E+00  0.3818752E+06  0.1642390E+01
  0.1040476E+01  0.3605515E+06 -0.1487803E+01  0.3057978E+06 -0.2152876E+00  0.3966861E+06  0.1653683E+01
  0.1071429E+01  0.3771027E+06 -0.1475406E+01  0.2965043E+06 -0.2367954E+00  0.4108008E+06  0.1666047E+01
  0.1102381E+01  0.3932098E+06 -0.1462014E+01  0.2873680E+06 -0.2596818E+00  0.4237350E+06  0.1679393E+01
  0.1133333E+01  0.4087290E+06 -0.1447677E+01  0.2783945E+06 -0.2840144E+00  0.4353900E+06  0.1693677E+01
  0.1164286E+01  0.4235891E+06 -0.1432480E+01  0.2696143E+06 -0.3098326E+00  0.4460062E+06  0.1708809E+01
  0.1195238E+01  0.4373067E+06 -0.1416522E+01  0.2610471E+06 -0.3372353E+00  0.4549425E+06  0.1724695E+01
  0.1226190E+01  0.4498186E+06 -0.1399987E+01  0.2526803E+06 -0.3662509E+00  0.4621343E+06  0.1741128E+01
  0.1257143E+01  0.4610376E+06 -0.1382967E+01  0.2445191E+06 -0.3971691E+00  0.4680140E+06  0.1758038E+01
  0.1288095E+01  0.4708073E+06 -0.1365971E+01  0.2365802E+06 -0.4295996E+00  0.4716863E+06  0.1774882E+01
  0.1319048E+01  0.4789058E+06 -0.1349065E+01  0.2288830E+06 -0.4641785E+00  0.4735080E+06  0.1791605E+01
  0.1350000E+01  0.4853538E+06 -0.1332538E+01  0.2214597E+06 -0.5008503E+00  0.4736806E+06  0.1807935E+01
  0.1380952E+01  0.4899263E+06 -0.1316754E+01  0.2143720E+06 -0.5396912E+00  0.4715768E+06  0.1823482E+01
  0.1411905E+01  0.4910136E+06 -0.1303896E+01  0.2078545E+06 -0.5794321E+00  0.4668198E+06  0.1836083E+01
  0.1442857E+01  0.4923979E+06 -0.1290430E+01  0.2014935E+06 -0.6229618E+00  0.4615047E+06  0.1849293E+01
  0.1473810E+01  0.4919243E+06 -0.1278567E+01  0.1955890E+06 -0.6687720E+00  0.4540752E+06  0.1860824E+01
  0.1504762E+01  0.4899953E+06 -0.1268474E+01  0.1901065E+06 -0.7169867E+00  0.4452578E+06  0.1870534E+01
  0.1535714E+01  0.4867815E+06 -0.1260343E+01  0.1850831E+06 -0.7676079E+00  0.4353995E+06  0.1878261E+01
  0.1566667E+01  0.4822472E+06 -0.1254231E+01  0.1806591E+06 -0.8204061E+00  0.4246348E+06  0.1883999E+01
  0.1597619E+01  0.4764783E+06 -0.1250470E+01  0.1768467E+06 -0.8749976E+00  0.4127174E+06  0.1887264E+01
  0.1628572E+01  0.4697598E+06 -0.1249060E+01  0.1736710E+06 -0.9311327E+00  0.4001633E+06  0.1888175E+01
  0.1659524E+01  0.4624047E+06 -0.1249989E+01  0.1711473E+06 -0.9882900E+00  0.3874713E+06  0.1886849E+01
  0.1690476E+01  0.4543289E+06 -0.1253498E+01  0.1693057E+06 -0.1045515E+01  0.3742066E+06  0.1882825E+01
  0.1721429E+01  0.4457364E+06 -0.1259535E+01  0.1681100E+06 -0.1102312E+01  0.3606845E+06  0.1876239E+01
  0.1752381E+01  0.4368640E+06 -0.1268075E+01  0.1675100E+06 -0.1157977E+01  0.3472046E+06  0.1867142E+01
  0.1783333E+01  0.4278639E+06 -0.1279001E+01  0.1674317E+06 -0.1211784E+01  0.3340476E+06  0.1855814E+01
  0.1814286E+01  0.4186526E+06 -0.1292234E+01  0.1678660E+06 -0.1262703E+01  0.3210303E+06  0.1842294E+01
  0.1845238E+01  0.4093346E+06 -0.1307904E+01  0.1686534E+06 -0.1310233E+01  0.3080468E+06  0.1826136E+01
  0.1876190E+01  0.4000916E+06 -0.1325778E+01  0.1696108E+06 -0.1354612E+01  0.2954482E+06  0.1807915E+01
  0.1907143E+01  0.3910626E+06 -0.1345627E+01  0.1706600E+06 -0.1395812E+01  0.2834581E+06  0.1788124E+01
  0.1938095E+01  0.3822257E+06 -0.1367530E+01  0.1716504E+06 -0.1433665E+01  0.2718510E+06  0.1766371E+01
  0.1969048E+01  0.3734892E+06 -0.1391579E+01  0.1724406E+06 -0.1468695E+01  0.2603986E+06  0.1742249E+01
  0.2000000E+01  0.3650838E+06 -0.1417406E+01  0.1729432E+06 -0.1501457E+01  0.2495195E+06  0.1716692E+01
