VARIABLES="w (rad/s)"
"abs(F   1   1)" "angle(F   1   1)"
"abs(F   1   2)" "angle(F   1   2)"
"abs(F   1   3)" "angle(F   1   3)"
Zone t="Diffraction force - beta =   0.000 deg",I=    64,F=POINT
  0.5000000E-01  0.4696509E+04 -0.1570783E+01  0.6436101E+06 -0.4405287E-04  0.1310036E+03 -0.1571079E+01
  0.8095238E-01  0.7656742E+04 -0.1570787E+01  0.6421176E+06 -0.1184463E-03  0.2132957E+03 -0.1570967E+01
  0.1119048E+00  0.1068343E+05 -0.1570796E+01  0.6399283E+06 -0.2350083E-03  0.2975863E+03 -0.1570912E+01
  0.1428571E+00  0.1380321E+05 -0.1570784E+01  0.6370422E+06 -0.4025402E-03  0.3866570E+03 -0.1570885E+01
  0.1738095E+00  0.1707222E+05 -0.1570777E+01  0.6334536E+06 -0.6342033E-03  0.4798543E+03 -0.1570857E+01
  0.2047619E+00  0.2050387E+05 -0.1570768E+01  0.6291558E+06 -0.9490742E-03  0.5805757E+03 -0.1570835E+01
  0.2357143E+00  0.2413966E+05 -0.1570752E+01  0.6241448E+06 -0.1375313E-02  0.6867477E+03 -0.1570817E+01
  0.2666667E+00  0.2807247E+05 -0.1570739E+01  0.6184112E+06 -0.1946437E-02  0.8051949E+03 -0.1570781E+01
  0.2976190E+00  0.3230669E+05 -0.1570711E+01  0.6119568E+06 -0.2720653E-02  0.9353346E+03 -0.1570748E+01
  0.3285715E+00  0.3692773E+05 -0.1570670E+01  0.6047701E+06 -0.3754659E-02  0.1078330E+04 -0.1570700E+01
  0.3595238E+00  0.4204600E+05 -0.1570604E+01  0.5968909E+06 -0.5141144E-02  0.1243077E+04 -0.1570631E+01
  0.3904762E+00  0.4768245E+05 -0.1570511E+01  0.5883022E+06 -0.6980058E-02  0.1426601E+04 -0.1570536E+01
  0.4214286E+00  0.5383898E+05 -0.1570371E+01  0.5791262E+06 -0.9333284E-02  0.1623579E+04 -0.1570395E+01
  0.4523810E+00  0.6068396E+05 -0.1570168E+01  0.5693337E+06 -0.1237934E-01  0.1857520E+04 -0.1570186E+01
  0.4833333E+00  0.6818571E+05 -0.1569887E+01  0.5590807E+06 -0.1602018E-01  0.2117162E+04 -0.1569904E+01
  0.5142857E+00  0.7623101E+05 -0.1569498E+01  0.5484020E+06 -0.2046709E-01  0.2401239E+04 -0.1569513E+01
  0.5452381E+00  0.8477802E+05 -0.1568980E+01  0.5373182E+06 -0.2563655E-01  0.2699127E+04 -0.1568992E+01
  0.5761905E+00  0.9392152E+05 -0.1568308E+01  0.5259366E+06 -0.3153388E-01  0.3039959E+04 -0.1568321E+01
  0.6071429E+00  0.1036007E+06 -0.1567445E+01  0.5143035E+06 -0.3833072E-01  0.3416527E+04 -0.1567456E+01
  0.6380953E+00  0.1136419E+06 -0.1566372E+01  0.5023716E+06 -0.4583091E-01  0.3806565E+04 -0.1566380E+01
  0.6690477E+00  0.1238974E+06 -0.1565043E+01  0.4902748E+06 -0.5420449E-01  0.4207850E+04 -0.1565049E+01
  0.7000000E+00  0.1345785E+06 -0.1563420E+01  0.4780405E+06 -0.6354219E-01  0.4654573E+04 -0.1563428E+01
  0.7309524E+00  0.1456655E+06 -0.1561478E+01  0.4656566E+06 -0.7374462E-01  0.5129004E+04 -0.1561489E+01
  0.7619048E+00  0.1570324E+06 -0.1559168E+01  0.4532367E+06 -0.8490385E-01  0.5638229E+04 -0.1559178E+01
  0.7928572E+00  0.1686163E+06 -0.1556443E+01  0.4408049E+06 -0.9705609E-01  0.6184413E+04 -0.1556452E+01
  0.8238096E+00  0.1802676E+06 -0.1553269E+01  0.4283708E+06 -0.1102089E+00  0.6722801E+04 -0.1553268E+01
  0.8547620E+00  0.1919797E+06 -0.1549612E+01  0.4159528E+06 -0.1243716E+00  0.7279735E+04 -0.1549611E+01
  0.8857143E+00  0.2038747E+06 -0.1545458E+01  0.4036327E+06 -0.1395755E+00  0.7890619E+04 -0.1545476E+01
  0.9166667E+00  0.2159318E+06 -0.1540787E+01  0.3914035E+06 -0.1558182E+00  0.8546996E+04 -0.1540821E+01
  0.9476191E+00  0.2279882E+06 -0.1535580E+01  0.3793403E+06 -0.1731050E+00  0.9216022E+04 -0.1535620E+01
  0.9785714E+00  0.2399099E+06 -0.1529821E+01  0.3674526E+06 -0.1914336E+00  0.9898392E+04 -0.1529864E+01
  0.1009524E+01  0.2515589E+06 -0.1523510E+01  0.3557612E+06 -0.2108195E+00  0.1059649E+05 -0.1523530E+01
  0.1040476E+01  0.2628175E+06 -0.1516668E+01  0.3442449E+06 -0.2312534E+00  0.1129918E+05 -0.1516627E+01
  0.1071429E+01  0.2736957E+06 -0.1509359E+01  0.3329033E+06 -0.2527341E+00  0.1202133E+05 -0.1509303E+01
  0.1102381E+01  0.2841925E+06 -0.1501694E+01  0.3217783E+06 -0.2753004E+00  0.1274546E+05 -0.1501661E+01
  0.1133333E+01  0.2941622E+06 -0.1493749E+01  0.3109193E+06 -0.2989326E+00  0.1346883E+05 -0.1493787E+01
  0.1164286E+01  0.3034779E+06 -0.1485615E+01  0.3003146E+06 -0.3236407E+00  0.1420386E+05 -0.1485612E+01
  0.1195238E+01  0.3120160E+06 -0.1477401E+01  0.2899656E+06 -0.3494016E+00  0.1493869E+05 -0.1477349E+01
  0.1226190E+01  0.3197133E+06 -0.1469260E+01  0.2798365E+06 -0.3762072E+00  0.1566833E+05 -0.1469190E+01
  0.1257143E+01  0.3264842E+06 -0.1461339E+01  0.2699808E+06 -0.4042481E+00  0.1635683E+05 -0.1461280E+01
  0.1288095E+01  0.3322908E+06 -0.1454066E+01  0.2603872E+06 -0.4330193E+00  0.1700697E+05 -0.1454093E+01
  0.1319048E+01  0.3370498E+06 -0.1447375E+01  0.2510760E+06 -0.4630126E+00  0.1762488E+05 -0.1447407E+01
  0.1350000E+01  0.3407091E+06 -0.1441525E+01  0.2420594E+06 -0.4940636E+00  0.1822279E+05 -0.1441432E+01
  0.1380952E+01  0.3433054E+06 -0.1436742E+01  0.2332570E+06 -0.5261269E+00  0.1879361E+05 -0.1436662E+01
  0.1411905E+01  0.3443091E+06 -0.1433877E+01  0.2248421E+06 -0.5586466E+00  0.1924523E+05 -0.1433760E+01
  0.1442857E+01  0.3448362E+06 -0.1431874E+01  0.2165525E+06 -0.5927775E+00  0.1971833E+05 -0.1431829E+01
  0.1473810E+01  0.3443387E+06 -0.1431484E+01  0.2085275E+06 -0.6279567E+00  0.2013532E+05 -0.1431429E+01
  0.1504762E+01  0.3428830E+06 -0.1432870E+01  0.2007572E+06 -0.6642147E+00  0.2049760E+05 -0.1432838E+01
  0.1535714E+01  0.3405683E+06 -0.1436194E+01  0.1932488E+06 -0.7015189E+00  0.2082578E+05 -0.1436175E+01
  0.1566667E+01  0.3374433E+06 -0.1441555E+01  0.1859967E+06 -0.7398777E+00  0.2111941E+05 -0.1441587E+01
  0.1597619E+01  0.3335972E+06 -0.1449045E+01  0.1789726E+06 -0.7793537E+00  0.2136909E+05 -0.1449025E+01
  0.1628572E+01  0.3291369E+06 -0.1458744E+01  0.1721608E+06 -0.8198694E+00  0.2157713E+05 -0.1458590E+01
  0.1659524E+01  0.3241511E+06 -0.1470689E+01  0.1655559E+06 -0.8614090E+00  0.2173540E+05 -0.1470402E+01
  0.1690476E+01  0.3187051E+06 -0.1484902E+01  0.1591713E+06 -0.9039880E+00  0.2185025E+05 -0.1484698E+01
  0.1721429E+01  0.3128706E+06 -0.1501409E+01  0.1530163E+06 -0.9477341E+00  0.2191751E+05 -0.1501520E+01
  0.1752381E+01  0.3067311E+06 -0.1520208E+01  0.1470676E+06 -0.9925894E+00  0.2196202E+05 -0.1520572E+01
  0.1783333E+01  0.3003639E+06 -0.1541283E+01  0.1413612E+06 -0.1038466E+01  0.2199116E+05 -0.1541658E+01
  0.1814286E+01  0.2938155E+06 -0.1564599E+01  0.1358350E+06 -0.1085493E+01  0.2199995E+05 -0.1564962E+01
  0.1845238E+01  0.2871428E+06 -0.1590138E+01  0.1304881E+06 -0.1133709E+01  0.2199421E+05 -0.1590334E+01
  0.1876190E+01  0.2803988E+06 -0.1617836E+01  0.1252887E+06 -0.1183118E+01  0.2196547E+05 -0.1617831E+01
  0.1907143E+01  0.2736194E+06 -0.1647642E+01  0.1202475E+06 -0.1233712E+01  0.2191406E+05 -0.1647536E+01
  0.1938095E+01  0.2668384E+06 -0.1679511E+01  0.1153585E+06 -0.1285495E+01  0.2184303E+05 -0.1679487E+01
  0.1969048E+01  0.2600957E+06 -0.1713409E+01  0.1106247E+06 -0.1338575E+01  0.2175135E+05 -0.1713769E+01
  0.2000000E+01  0.2534113E+06 -0.1749301E+01  0.1060473E+06 -0.1393009E+01  0.2164537E+05 -0.1750075E+01
