VARIABLES="w (rad/s)"
"abs(F   1   1)" "angle(F   1   1)"
"abs(F   1   2)" "angle(F   1   2)"
"abs(F   1   3)" "angle(F   1   3)"
Zone t="Diffraction force - beta =   0.000 deg",I=    64,F=POINT
  0.5000000E-01  0.2485845E+04 -0.1570794E+01  0.1620792E+03 -0.3106408E+01  0.7381275E+04  0.1570799E+01
  0.8095238E-01  0.4078347E+04 -0.1570789E+01  0.4210362E+03 -0.3105346E+01  0.1209858E+05  0.1570804E+01
  0.1119048E+00  0.5704718E+04 -0.1570781E+01  0.7991947E+03 -0.3103966E+01  0.1689129E+05  0.1570811E+01
  0.1428571E+00  0.7378795E+04 -0.1570770E+01  0.1296790E+04 -0.3102222E+01  0.2183995E+05  0.1570823E+01
  0.1738095E+00  0.9129139E+04 -0.1570754E+01  0.1914233E+04 -0.3100061E+01  0.2697414E+05  0.1570839E+01
  0.2047619E+00  0.1095460E+05 -0.1570729E+01  0.2646043E+04 -0.3097220E+01  0.3236965E+05  0.1570863E+01
  0.2357143E+00  0.1290625E+05 -0.1570695E+01  0.3495965E+04 -0.3093677E+01  0.3808291E+05  0.1570898E+01
  0.2666667E+00  0.1501299E+05 -0.1570644E+01  0.4462512E+04 -0.3089439E+01  0.4422676E+05  0.1570948E+01
  0.2976190E+00  0.1727231E+05 -0.1570569E+01  0.5535720E+04 -0.3083985E+01  0.5084159E+05  0.1571023E+01
  0.3285715E+00  0.1977072E+05 -0.1570458E+01  0.6721389E+04 -0.3077595E+01  0.5806006E+05  0.1571134E+01
  0.3595238E+00  0.2248710E+05 -0.1570292E+01  0.7998948E+04 -0.3069734E+01  0.6593106E+05  0.1571300E+01
  0.3904762E+00  0.2549162E+05 -0.1570046E+01  0.9367637E+04 -0.3060491E+01  0.7464852E+05  0.1571545E+01
  0.4214286E+00  0.2884106E+05 -0.1569688E+01  0.1080866E+05 -0.3050303E+01  0.8423733E+05  0.1571902E+01
  0.4523810E+00  0.3252291E+05 -0.1569166E+01  0.1229033E+05 -0.3038136E+01  0.9475412E+05  0.1572424E+01
  0.4833333E+00  0.3657618E+05 -0.1568448E+01  0.1384501E+05 -0.3026583E+01  0.1063279E+06  0.1573139E+01
  0.5142857E+00  0.4092025E+05 -0.1567456E+01  0.1534544E+05 -0.3013264E+01  0.1187554E+06  0.1574128E+01
  0.5452381E+00  0.4567183E+05 -0.1566148E+01  0.1690004E+05 -0.3000595E+01  0.1320479E+06  0.1575435E+01
  0.5761905E+00  0.5064098E+05 -0.1564457E+01  0.1842435E+05 -0.2988229E+01  0.1459470E+06  0.1577122E+01
  0.6071429E+00  0.5592236E+05 -0.1562292E+01  0.1989493E+05 -0.2975072E+01  0.1607196E+06  0.1579282E+01
  0.6380953E+00  0.6152064E+05 -0.1559622E+01  0.2140846E+05 -0.2963676E+01  0.1763604E+06  0.1581941E+01
  0.6690477E+00  0.6728707E+05 -0.1556331E+01  0.2281031E+05 -0.2951866E+01  0.1921701E+06  0.1585224E+01
  0.7000000E+00  0.7335535E+05 -0.1552329E+01  0.2414421E+05 -0.2939781E+01  0.2086595E+06  0.1589219E+01
  0.7309524E+00  0.7974034E+05 -0.1547561E+01  0.2548769E+05 -0.2928953E+01  0.2258529E+06  0.1593978E+01
  0.7619048E+00  0.8618222E+05 -0.1541875E+01  0.2673130E+05 -0.2918204E+01  0.2431236E+06  0.1599648E+01
  0.7928572E+00  0.9289755E+05 -0.1535202E+01  0.2784278E+05 -0.2907039E+01  0.2612363E+06  0.1606284E+01
  0.8238096E+00  0.9977789E+05 -0.1527440E+01  0.2891125E+05 -0.2896488E+01  0.2792820E+06  0.1614023E+01
  0.8547620E+00  0.1069831E+06 -0.1518535E+01  0.2996141E+05 -0.2886830E+01  0.2979783E+06  0.1622903E+01
  0.8857143E+00  0.1141809E+06 -0.1508305E+01  0.3080248E+05 -0.2876696E+01  0.3162632E+06  0.1633118E+01
  0.9166667E+00  0.1216265E+06 -0.1496715E+01  0.3154735E+05 -0.2866693E+01  0.3352642E+06  0.1644661E+01
  0.9476191E+00  0.1290792E+06 -0.1483634E+01  0.3222001E+05 -0.2857172E+01  0.3537657E+06  0.1657717E+01
  0.9785714E+00  0.1367735E+06 -0.1469053E+01  0.3284241E+05 -0.2848216E+01  0.3729112E+06  0.1672233E+01
  0.1009524E+01  0.1442294E+06 -0.1452759E+01  0.3332171E+05 -0.2839479E+01  0.3912156E+06  0.1688430E+01
  0.1040476E+01  0.1517429E+06 -0.1434878E+01  0.3360462E+05 -0.2830297E+01  0.4091359E+06  0.1706232E+01
  0.1071429E+01  0.1592388E+06 -0.1415337E+01  0.3380651E+05 -0.2821436E+01  0.4265495E+06  0.1725705E+01
  0.1102381E+01  0.1666515E+06 -0.1394108E+01  0.3395015E+05 -0.2813087E+01  0.4431605E+06  0.1746908E+01
  0.1133333E+01  0.1739520E+06 -0.1371162E+01  0.3403536E+05 -0.2805107E+01  0.4594495E+06  0.1769765E+01
  0.1164286E+01  0.1806928E+06 -0.1346346E+01  0.3397536E+05 -0.2797534E+01  0.4738032E+06  0.1794494E+01
  0.1195238E+01  0.1870488E+06 -0.1319759E+01  0.3372563E+05 -0.2789695E+01  0.4868963E+06  0.1820978E+01
  0.1226190E+01  0.1930749E+06 -0.1291525E+01  0.3340346E+05 -0.2781992E+01  0.4991052E+06  0.1849023E+01
  0.1257143E+01  0.1982313E+06 -0.1261548E+01  0.3302871E+05 -0.2774434E+01  0.5086399E+06  0.1878809E+01
  0.1288095E+01  0.2033114E+06 -0.1230589E+01  0.3259580E+05 -0.2767384E+01  0.5175364E+06  0.1909577E+01
  0.1319048E+01  0.2074228E+06 -0.1198291E+01  0.3212214E+05 -0.2760384E+01  0.5237679E+06  0.1941640E+01
  0.1350000E+01  0.2105628E+06 -0.1164848E+01  0.3148466E+05 -0.2754196E+01  0.5269231E+06  0.1974900E+01
  0.1380952E+01  0.2129663E+06 -0.1130417E+01  0.3073912E+05 -0.2747955E+01  0.5281808E+06  0.2009140E+01
  0.1411905E+01  0.2139137E+06 -0.1095150E+01  0.2993332E+05 -0.2741894E+01  0.5267658E+06  0.2043745E+01
  0.1442857E+01  0.2143309E+06 -0.1059334E+01  0.2911323E+05 -0.2736029E+01  0.5226788E+06  0.2079308E+01
  0.1473810E+01  0.2139889E+06 -0.1023312E+01  0.2825952E+05 -0.2730258E+01  0.5168520E+06  0.2114969E+01
  0.1504762E+01  0.2128769E+06 -0.9874606E+00  0.2738126E+05 -0.2724614E+01  0.5092943E+06  0.2150390E+01
  0.1535714E+01  0.2105658E+06 -0.9516267E+00  0.2649052E+05 -0.2719265E+01  0.4986562E+06  0.2185810E+01
  0.1566667E+01  0.2071873E+06 -0.9161485E+00  0.2548948E+05 -0.2715397E+01  0.4851317E+06  0.2220914E+01
  0.1597619E+01  0.2031317E+06 -0.8809835E+00  0.2444567E+05 -0.2711207E+01  0.4706291E+06  0.2255651E+01
  0.1628572E+01  0.1983871E+06 -0.8463740E+00  0.2339155E+05 -0.2707175E+01  0.4549473E+06  0.2289659E+01
  0.1659524E+01  0.1926784E+06 -0.8127762E+00  0.2235894E+05 -0.2703450E+01  0.4365491E+06  0.2322811E+01
  0.1690476E+01  0.1865257E+06 -0.7804192E+00  0.2133116E+05 -0.2700015E+01  0.4175392E+06  0.2354689E+01
  0.1721429E+01  0.1799711E+06 -0.7492215E+00  0.2030142E+05 -0.2696720E+01  0.3981781E+06  0.2385203E+01
  0.1752381E+01  0.1727098E+06 -0.7187313E+00  0.1928780E+05 -0.2693595E+01  0.3776726E+06  0.2414981E+01
  0.1783333E+01  0.1649716E+06 -0.6894632E+00  0.1829326E+05 -0.2691226E+01  0.3563082E+06  0.2443400E+01
  0.1814286E+01  0.1567630E+06 -0.6613895E+00  0.1729335E+05 -0.2689845E+01  0.3340207E+06  0.2470605E+01
  0.1845238E+01  0.1484666E+06 -0.6343977E+00  0.1627191E+05 -0.2688997E+01  0.3124075E+06  0.2496720E+01
  0.1876190E+01  0.1400897E+06 -0.6086121E+00  0.1526944E+05 -0.2688508E+01  0.2912900E+06  0.2521503E+01
  0.1907143E+01  0.1313612E+06 -0.5843526E+00  0.1433312E+05 -0.2688142E+01  0.2691982E+06  0.2544699E+01
  0.1938095E+01  0.1226505E+06 -0.5613420E+00  0.1344110E+05 -0.2687886E+01  0.2477508E+06  0.2566721E+01
  0.1969048E+01  0.1139952E+06 -0.5394672E+00  0.1255612E+05 -0.2688535E+01  0.2270991E+06  0.2587236E+01
  0.2000000E+01  0.1053990E+06 -0.5186393E+00  0.1170362E+05 -0.2689517E+01  0.2072044E+06  0.2606704E+01
