VARIABLES="w (rad/s)"
"abs(F   1   1)" "angle(F   1   1)"
"abs(F   1   2)" "angle(F   1   2)"
"abs(F   1   3)" "angle(F   1   3)"
Zone t="Diffraction force - beta =   0.000 deg",I=    64,F=POINT
  0.5000000E-01  0.2180210E+04 -0.1570792E+01  0.7736901E+03 -0.3087674E+01  0.1872511E+04  0.1570796E+01
  0.8095238E-01  0.3575046E+04 -0.1570785E+01  0.2002477E+04 -0.3085779E+01  0.3094971E+04  0.1570795E+01
  0.1119048E+00  0.5012880E+04 -0.1570774E+01  0.3792767E+04 -0.3083428E+01  0.4357723E+04  0.1570794E+01
  0.1428571E+00  0.6504176E+04 -0.1570757E+01  0.6150336E+04 -0.3080579E+01  0.5702413E+04  0.1570792E+01
  0.1738095E+00  0.8051480E+04 -0.1570732E+01  0.9071003E+04 -0.3076985E+01  0.7093230E+04  0.1570790E+01
  0.2047619E+00  0.9688473E+04 -0.1570695E+01  0.1256617E+05 -0.3072517E+01  0.8613741E+04  0.1570787E+01
  0.2357143E+00  0.1144493E+05 -0.1570642E+01  0.1665902E+05 -0.3067004E+01  0.1024850E+05  0.1570783E+01
  0.2666667E+00  0.1331144E+05 -0.1570564E+01  0.2130468E+05 -0.3060205E+01  0.1203264E+05  0.1570778E+01
  0.2976190E+00  0.1538807E+05 -0.1570450E+01  0.2657729E+05 -0.3051840E+01  0.1406679E+05  0.1570772E+01
  0.3285715E+00  0.1769949E+05 -0.1570280E+01  0.3238391E+05 -0.3041734E+01  0.1634942E+05  0.1570766E+01
  0.3595238E+00  0.2014241E+05 -0.1570025E+01  0.3881346E+05 -0.3029744E+01  0.1882084E+05  0.1570758E+01
  0.3904762E+00  0.2293686E+05 -0.1569646E+01  0.4569960E+05 -0.3015343E+01  0.2171862E+05  0.1570752E+01
  0.4214286E+00  0.2611239E+05 -0.1569098E+01  0.5307497E+05 -0.2999625E+01  0.2505240E+05  0.1570754E+01
  0.4523810E+00  0.2957648E+05 -0.1568293E+01  0.6081158E+05 -0.2981202E+01  0.2866911E+05  0.1570762E+01
  0.4833333E+00  0.3325389E+05 -0.1567174E+01  0.6882460E+05 -0.2963026E+01  0.3275303E+05  0.1570792E+01
  0.5142857E+00  0.3744427E+05 -0.1565643E+01  0.7707865E+05 -0.2943452E+01  0.3740920E+05  0.1570857E+01
  0.5452381E+00  0.4211286E+05 -0.1563631E+01  0.8536266E+05 -0.2923857E+01  0.4266343E+05  0.1570986E+01
  0.5761905E+00  0.4685123E+05 -0.1561000E+01  0.9386969E+05 -0.2905483E+01  0.4810303E+05  0.1571181E+01
  0.6071429E+00  0.5183614E+05 -0.1557617E+01  0.1021762E+06 -0.2885949E+01  0.5386445E+05  0.1571474E+01
  0.6380953E+00  0.5726596E+05 -0.1553473E+01  0.1105645E+06 -0.2868372E+01  0.6056359E+05  0.1571930E+01
  0.6690477E+00  0.6308647E+05 -0.1548408E+01  0.1190085E+06 -0.2851750E+01  0.6771578E+05  0.1572582E+01
  0.7000000E+00  0.6917599E+05 -0.1542246E+01  0.1270045E+06 -0.2834121E+01  0.7503641E+05  0.1573463E+01
  0.7309524E+00  0.7535873E+05 -0.1534845E+01  0.1349595E+06 -0.2817943E+01  0.8304275E+05  0.1574677E+01
  0.7619048E+00  0.8149948E+05 -0.1525985E+01  0.1428169E+06 -0.2802875E+01  0.9120093E+05  0.1576219E+01
  0.7928572E+00  0.8791690E+05 -0.1515676E+01  0.1502992E+06 -0.2787939E+01  0.9988923E+05  0.1578149E+01
  0.8238096E+00  0.9513938E+05 -0.1504121E+01  0.1573044E+06 -0.2772905E+01  0.1096474E+06  0.1580568E+01
  0.8547620E+00  0.1021769E+06 -0.1490704E+01  0.1641017E+06 -0.2759071E+01  0.1196705E+06  0.1583641E+01
  0.8857143E+00  0.1090915E+06 -0.1475303E+01  0.1706267E+06 -0.2746412E+01  0.1298218E+06  0.1587400E+01
  0.9166667E+00  0.1159175E+06 -0.1457876E+01  0.1766491E+06 -0.2734021E+01  0.1401736E+06  0.1591886E+01
  0.9476191E+00  0.1226889E+06 -0.1438453E+01  0.1820064E+06 -0.2721377E+01  0.1508701E+06  0.1597157E+01
  0.9785714E+00  0.1290186E+06 -0.1416799E+01  0.1870185E+06 -0.2709810E+01  0.1619250E+06  0.1603210E+01
  0.1009524E+01  0.1352486E+06 -0.1393491E+01  0.1916209E+06 -0.2699436E+01  0.1731833E+06  0.1609684E+01
  0.1040476E+01  0.1411740E+06 -0.1368335E+01  0.1957927E+06 -0.2690148E+01  0.1848783E+06  0.1617064E+01
  0.1071429E+01  0.1466559E+06 -0.1341342E+01  0.1990075E+06 -0.2679714E+01  0.1959001E+06  0.1625226E+01
  0.1102381E+01  0.1514633E+06 -0.1312459E+01  0.2018057E+06 -0.2670214E+01  0.2072576E+06  0.1634296E+01
  0.1133333E+01  0.1551392E+06 -0.1281499E+01  0.2041592E+06 -0.2661662E+01  0.2182366E+06  0.1644013E+01
  0.1164286E+01  0.1579443E+06 -0.1249534E+01  0.2060315E+06 -0.2654446E+01  0.2287425E+06  0.1653536E+01
  0.1195238E+01  0.1596881E+06 -0.1216484E+01  0.2074594E+06 -0.2648501E+01  0.2391465E+06  0.1663362E+01
  0.1226190E+01  0.1603542E+06 -0.1182787E+01  0.2078885E+06 -0.2641249E+01  0.2479705E+06  0.1673118E+01
  0.1257143E+01  0.1596920E+06 -0.1148335E+01  0.2077619E+06 -0.2634377E+01  0.2558270E+06  0.1682469E+01
  0.1288095E+01  0.1578380E+06 -0.1114094E+01  0.2072299E+06 -0.2628974E+01  0.2636780E+06  0.1691643E+01
  0.1319048E+01  0.1544616E+06 -0.1080220E+01  0.2062208E+06 -0.2624520E+01  0.2702730E+06  0.1699194E+01
  0.1350000E+01  0.1495820E+06 -0.1046375E+01  0.2047120E+06 -0.2621319E+01  0.2755449E+06  0.1705932E+01
  0.1380952E+01  0.1432285E+06 -0.1012957E+01  0.2028487E+06 -0.2619550E+01  0.2798900E+06  0.1711390E+01
  0.1411905E+01  0.1352386E+06 -0.9799071E+00  0.2000090E+06 -0.2616285E+01  0.2815116E+06  0.1714039E+01
  0.1442857E+01  0.1265073E+06 -0.9515556E+00  0.1967303E+06 -0.2614146E+01  0.2821843E+06  0.1713621E+01
  0.1473810E+01  0.1167195E+06 -0.9256283E+00  0.1931791E+06 -0.2613086E+01  0.2829168E+06  0.1712320E+01
  0.1504762E+01  0.1055802E+06 -0.9019951E+00  0.1892890E+06 -0.2613316E+01  0.2820352E+06  0.1708067E+01
  0.1535714E+01  0.9343493E+05 -0.8826468E+00  0.1851179E+06 -0.2615063E+01  0.2800175E+06  0.1700329E+01
  0.1566667E+01  0.8038900E+05 -0.8687702E+00  0.1806988E+06 -0.2618161E+01  0.2770191E+06  0.1689203E+01
  0.1597619E+01  0.6655853E+05 -0.8639280E+00  0.1760622E+06 -0.2621835E+01  0.2732941E+06  0.1674890E+01
  0.1628572E+01  0.5218500E+05 -0.8786711E+00  0.1708476E+06 -0.2625210E+01  0.2675298E+06  0.1654160E+01
  0.1659524E+01  0.3745318E+05 -0.9315063E+00  0.1654922E+06 -0.2629596E+01  0.2610151E+06  0.1628040E+01
  0.1690476E+01  0.2292867E+05 -0.1091783E+01  0.1600584E+06 -0.2634076E+01  0.2547404E+06  0.1599083E+01
  0.1721429E+01  0.1103900E+05 -0.1757298E+01  0.1545240E+06 -0.2638879E+01  0.2479782E+06  0.1564978E+01
  0.1752381E+01  0.1543020E+05 -0.3025032E+01  0.1489109E+06 -0.2644577E+01  0.2411519E+06  0.1525022E+01
  0.1783333E+01  0.2999866E+05  0.2911103E+01  0.1431764E+06 -0.2650558E+01  0.2342992E+06  0.1478642E+01
  0.1814286E+01  0.4608773E+05  0.2809171E+01  0.1372101E+06 -0.2656153E+01  0.2278031E+06  0.1426296E+01
  0.1845238E+01  0.6259443E+05  0.2772255E+01  0.1310576E+06 -0.2661263E+01  0.2219512E+06  0.1367091E+01
  0.1876190E+01  0.7927318E+05  0.2761596E+01  0.1246978E+06 -0.2666023E+01  0.2161435E+06  0.1296209E+01
  0.1907143E+01  0.9595340E+05  0.2761942E+01  0.1181385E+06 -0.2671053E+01  0.2115333E+06  0.1217621E+01
  0.1938095E+01  0.1124100E+06  0.2769235E+01  0.1115087E+06 -0.2676425E+01  0.2087222E+06  0.1134796E+01
  0.1969048E+01  0.1284433E+06  0.2780810E+01  0.1048682E+06 -0.2682589E+01  0.2079775E+06  0.1052154E+01
  0.2000000E+01  0.1439439E+06  0.2795189E+01  0.9815793E+05 -0.2689884E+01  0.2092095E+06  0.9707067E+00
