VARIABLES="w (rad/s)"
"abs(F   1   1)" "angle(F   1   1)"
"abs(F   1   2)" "angle(F   1   2)"
"abs(F   1   3)" "angle(F   1   3)"
Zone t="Diffraction force - beta =   0.000 deg",I=    64,F=POINT
  0.5000000E-01  0.1818286E+04 -0.1570794E+01  0.2999872E+03 -0.3101499E+01  0.3068135E+04  0.1570799E+01
  0.8095238E-01  0.2975342E+04 -0.1570789E+01  0.7757605E+03 -0.3100042E+01  0.5008968E+04  0.1570802E+01
  0.1119048E+00  0.4155709E+04 -0.1570782E+01  0.1474772E+04 -0.3098440E+01  0.7000855E+04  0.1570809E+01
  0.1428571E+00  0.5393564E+04 -0.1570771E+01  0.2391980E+04 -0.3096305E+01  0.9076224E+04  0.1570818E+01
  0.1738095E+00  0.6670592E+04 -0.1570755E+01  0.3529971E+04 -0.3093637E+01  0.1123483E+05  0.1570832E+01
  0.2047619E+00  0.8026448E+04 -0.1570732E+01  0.4896117E+04 -0.3090339E+01  0.1351032E+05  0.1570851E+01
  0.2357143E+00  0.9465200E+04 -0.1570699E+01  0.6476507E+04 -0.3086062E+01  0.1594944E+05  0.1570880E+01
  0.2666667E+00  0.1102546E+05 -0.1570650E+01  0.8286367E+04 -0.3080960E+01  0.1857018E+05  0.1570923E+01
  0.2976190E+00  0.1274061E+05 -0.1570577E+01  0.1031483E+05 -0.3074469E+01  0.2146695E+05  0.1570986E+01
  0.3285715E+00  0.1459441E+05 -0.1570469E+01  0.1256526E+05 -0.3066772E+01  0.2458971E+05  0.1571079E+01
  0.3595238E+00  0.1665050E+05 -0.1570307E+01  0.1501353E+05 -0.3057330E+01  0.2809637E+05  0.1571219E+01
  0.3904762E+00  0.1894967E+05 -0.1570065E+01  0.1768840E+05 -0.3046348E+01  0.3196309E+05  0.1571428E+01
  0.4214286E+00  0.2154535E+05 -0.1569713E+01  0.2047654E+05 -0.3033815E+01  0.3635634E+05  0.1571732E+01
  0.4523810E+00  0.2430323E+05 -0.1569193E+01  0.2350096E+05 -0.3019713E+01  0.4107380E+05  0.1572181E+01
  0.4833333E+00  0.2746886E+05 -0.1568479E+01  0.2651450E+05 -0.3005008E+01  0.4641450E+05  0.1572799E+01
  0.5142857E+00  0.3089690E+05 -0.1567487E+01  0.2969480E+05 -0.2989522E+01  0.5219004E+05  0.1573659E+01
  0.5452381E+00  0.3458514E+05 -0.1566166E+01  0.3288863E+05 -0.2973957E+01  0.5835581E+05  0.1574807E+01
  0.5761905E+00  0.3849948E+05 -0.1564449E+01  0.3609583E+05 -0.2958693E+01  0.6512027E+05  0.1576291E+01
  0.6071429E+00  0.4267923E+05 -0.1562238E+01  0.3944480E+05 -0.2943770E+01  0.7219485E+05  0.1578211E+01
  0.6380953E+00  0.4724202E+05 -0.1559506E+01  0.4260162E+05 -0.2928868E+01  0.7977466E+05  0.1580595E+01
  0.6690477E+00  0.5201614E+05 -0.1556118E+01  0.4580594E+05 -0.2914558E+01  0.8785034E+05  0.1583547E+01
  0.7000000E+00  0.5688889E+05 -0.1551936E+01  0.4908800E+05 -0.2901063E+01  0.9610990E+05  0.1587192E+01
  0.7309524E+00  0.6197030E+05 -0.1546902E+01  0.5211066E+05 -0.2887081E+01  0.1046479E+06  0.1591590E+01
  0.7619048E+00  0.6749477E+05 -0.1540952E+01  0.5512084E+05 -0.2873667E+01  0.1140072E+06  0.1596785E+01
  0.7928572E+00  0.7319437E+05 -0.1533902E+01  0.5811895E+05 -0.2861163E+01  0.1234988E+06  0.1602973E+01
  0.8238096E+00  0.7911686E+05 -0.1525643E+01  0.6099814E+05 -0.2849028E+01  0.1333334E+06  0.1610238E+01
  0.8547620E+00  0.8532837E+05 -0.1516088E+01  0.6359680E+05 -0.2836307E+01  0.1436021E+06  0.1618668E+01
  0.8857143E+00  0.9161762E+05 -0.1505031E+01  0.6612412E+05 -0.2824344E+01  0.1542240E+06  0.1628394E+01
  0.9166667E+00  0.9787903E+05 -0.1492312E+01  0.6863655E+05 -0.2813776E+01  0.1647596E+06  0.1639592E+01
  0.9476191E+00  0.1044622E+06 -0.1478062E+01  0.7096177E+05 -0.2803478E+01  0.1756499E+06  0.1652168E+01
  0.9785714E+00  0.1113693E+06 -0.1462194E+01  0.7289818E+05 -0.2792219E+01  0.1867853E+06  0.1666269E+01
  0.1009524E+01  0.1184598E+06 -0.1444532E+01  0.7474324E+05 -0.2781711E+01  0.1985560E+06  0.1681924E+01
  0.1040476E+01  0.1253700E+06 -0.1424815E+01  0.7647005E+05 -0.2772212E+01  0.2097547E+06  0.1699469E+01
  0.1071429E+01  0.1322125E+06 -0.1403030E+01  0.7813273E+05 -0.2763947E+01  0.2209797E+06  0.1718833E+01
  0.1102381E+01  0.1389200E+06 -0.1379160E+01  0.7940890E+05 -0.2755073E+01  0.2317797E+06  0.1740116E+01
  0.1133333E+01  0.1455109E+06 -0.1353263E+01  0.8038929E+05 -0.2745940E+01  0.2424532E+06  0.1763192E+01
  0.1164286E+01  0.1518398E+06 -0.1325358E+01  0.8126312E+05 -0.2737504E+01  0.2530025E+06  0.1787907E+01
  0.1195238E+01  0.1577491E+06 -0.1295695E+01  0.8199287E+05 -0.2729908E+01  0.2623448E+06  0.1814231E+01
  0.1226190E+01  0.1632590E+06 -0.1264224E+01  0.8262797E+05 -0.2723341E+01  0.2710696E+06  0.1842141E+01
  0.1257143E+01  0.1681347E+06 -0.1230756E+01  0.8304956E+05 -0.2717031E+01  0.2787928E+06  0.1871772E+01
  0.1288095E+01  0.1725759E+06 -0.1196180E+01  0.8297958E+05 -0.2709952E+01  0.2852825E+06  0.1902527E+01
  0.1319048E+01  0.1763628E+06 -0.1160043E+01  0.8281212E+05 -0.2703199E+01  0.2912585E+06  0.1934362E+01
  0.1350000E+01  0.1791468E+06 -0.1122609E+01  0.8250516E+05 -0.2696986E+01  0.2955563E+06  0.1967132E+01
  0.1380952E+01  0.1809967E+06 -0.1084524E+01  0.8207400E+05 -0.2691684E+01  0.2979763E+06  0.2000335E+01
  0.1411905E+01  0.1815128E+06 -0.1044945E+01  0.8153909E+05 -0.2686952E+01  0.2986879E+06  0.2034289E+01
  0.1442857E+01  0.1814375E+06 -0.1005608E+01  0.8091669E+05 -0.2683267E+01  0.2982608E+06  0.2068008E+01
  0.1473810E+01  0.1803121E+06 -0.9662375E+00  0.7979005E+05 -0.2678305E+01  0.2956232E+06  0.2101577E+01
  0.1504762E+01  0.1783022E+06 -0.9272003E+00  0.7855176E+05 -0.2673902E+01  0.2916941E+06  0.2134403E+01
  0.1535714E+01  0.1755569E+06 -0.8890566E+00  0.7721905E+05 -0.2669679E+01  0.2870637E+06  0.2165720E+01
  0.1566667E+01  0.1715965E+06 -0.8511865E+00  0.7578849E+05 -0.2666052E+01  0.2802648E+06  0.2196257E+01
  0.1597619E+01  0.1666539E+06 -0.8139726E+00  0.7428023E+05 -0.2663145E+01  0.2717823E+06  0.2225687E+01
  0.1628572E+01  0.1609253E+06 -0.7775119E+00  0.7271209E+05 -0.2660740E+01  0.2623275E+06  0.2253670E+01
  0.1659524E+01  0.1544942E+06 -0.7421767E+00  0.7109299E+05 -0.2659108E+01  0.2518797E+06  0.2279668E+01
  0.1690476E+01  0.1474023E+06 -0.7084653E+00  0.6915798E+05 -0.2657072E+01  0.2400484E+06  0.2303218E+01
  0.1721429E+01  0.1397640E+06 -0.6762696E+00  0.6709491E+05 -0.2655297E+01  0.2272809E+06  0.2324387E+01
  0.1752381E+01  0.1318122E+06 -0.6454555E+00  0.6501738E+05 -0.2653934E+01  0.2146946E+06  0.2343074E+01
  0.1783333E+01  0.1234219E+06 -0.6159523E+00  0.6288553E+05 -0.2652827E+01  0.2015728E+06  0.2359044E+01
  0.1814286E+01  0.1145691E+06 -0.5875932E+00  0.6072660E+05 -0.2652252E+01  0.1876389E+06  0.2372000E+01
  0.1845238E+01  0.1053743E+06 -0.5604025E+00  0.5855312E+05 -0.2652275E+01  0.1731763E+06  0.2381562E+01
  0.1876190E+01  0.9603665E+05 -0.5342922E+00  0.5636795E+05 -0.2652688E+01  0.1588356E+06  0.2387570E+01
  0.1907143E+01  0.8657112E+05 -0.5090009E+00  0.5417548E+05 -0.2653715E+01  0.1445230E+06  0.2389353E+01
  0.1938095E+01  0.7704159E+05 -0.4851333E+00  0.5189314E+05 -0.2655178E+01  0.1301529E+06  0.2385194E+01
  0.1969048E+01  0.6746039E+05 -0.4626288E+00  0.4953548E+05 -0.2656812E+01  0.1157013E+06  0.2373488E+01
  0.2000000E+01  0.5793051E+05 -0.4408593E+00  0.4720504E+05 -0.2659013E+01  0.1016981E+06  0.2353404E+01
