VARIABLES="w (rad/s)"
"abs(F   1   1)" "angle(F   1   1)"
"abs(F   1   2)" "angle(F   1   2)"
"abs(F   1   3)" "angle(F   1   3)"
Zone t="Diffraction force - beta =   0.000 deg",I=    64,F=POINT
  0.5000000E-01  0.7372220E+03 -0.1570795E+01  0.3659289E+03 -0.3100919E+01  0.1687866E+03  0.1570793E+01
  0.8095238E-01  0.1202201E+04 -0.1570793E+01  0.9497728E+03 -0.3099528E+01  0.2781986E+03  0.1570787E+01
  0.1119048E+00  0.1672763E+04 -0.1570789E+01  0.1803798E+04 -0.3097752E+01  0.3815661E+03  0.1570777E+01
  0.1428571E+00  0.2176001E+04 -0.1570783E+01  0.2931333E+04 -0.3095544E+01  0.5034276E+03  0.1570763E+01
  0.1738095E+00  0.2687471E+04 -0.1570774E+01  0.4331896E+04 -0.3092699E+01  0.6321552E+03  0.1570743E+01
  0.2047619E+00  0.3251513E+04 -0.1570762E+01  0.6013771E+04 -0.3089150E+01  0.7820520E+03  0.1570715E+01
  0.2357143E+00  0.3830150E+04 -0.1570743E+01  0.7984542E+04 -0.3084693E+01  0.9383597E+03  0.1570676E+01
  0.2666667E+00  0.4469037E+04 -0.1570716E+01  0.1023461E+05 -0.3079178E+01  0.1122659E+04  0.1570620E+01
  0.2976190E+00  0.5171704E+04 -0.1570676E+01  0.1279246E+05 -0.3072334E+01  0.1331213E+04  0.1570541E+01
  0.3285715E+00  0.5924898E+04 -0.1570616E+01  0.1563230E+05 -0.3064025E+01  0.1554675E+04  0.1570423E+01
  0.3595238E+00  0.6742282E+04 -0.1570526E+01  0.1878208E+05 -0.3054029E+01  0.1820036E+04  0.1570255E+01
  0.3904762E+00  0.7729434E+04 -0.1570393E+01  0.2220429E+05 -0.3042029E+01  0.2152279E+04  0.1570025E+01
  0.4214286E+00  0.8780025E+04 -0.1570196E+01  0.2589477E+05 -0.3028711E+01  0.2508249E+04  0.1569690E+01
  0.4523810E+00  0.9920073E+04 -0.1569905E+01  0.2982655E+05 -0.3013183E+01  0.2897421E+04  0.1569206E+01
  0.4833333E+00  0.1119476E+05 -0.1569502E+01  0.3395772E+05 -0.2997478E+01  0.3402604E+04  0.1568610E+01
  0.5142857E+00  0.1264260E+05 -0.1568944E+01  0.3828972E+05 -0.2980554E+01  0.3962208E+04  0.1567815E+01
  0.5452381E+00  0.1417941E+05 -0.1568197E+01  0.4274329E+05 -0.2963483E+01  0.4562194E+04  0.1566782E+01
  0.5761905E+00  0.1574235E+05 -0.1567209E+01  0.4737177E+05 -0.2946954E+01  0.5226840E+04  0.1565505E+01
  0.6071429E+00  0.1745414E+05 -0.1565936E+01  0.5205177E+05 -0.2929686E+01  0.5966928E+04  0.1563945E+01
  0.6380953E+00  0.1939898E+05 -0.1564372E+01  0.5686414E+05 -0.2913592E+01  0.6885447E+04  0.1562281E+01
  0.6690477E+00  0.2135245E+05 -0.1562401E+01  0.6179909E+05 -0.2897957E+01  0.7810264E+04  0.1560219E+01
  0.7000000E+00  0.2338466E+05 -0.1559964E+01  0.6669155E+05 -0.2881797E+01  0.8760516E+04  0.1557728E+01
  0.7309524E+00  0.2546008E+05 -0.1556996E+01  0.7165127E+05 -0.2866414E+01  0.9840533E+04  0.1554999E+01
  0.7619048E+00  0.2762917E+05 -0.1553428E+01  0.7666674E+05 -0.2851581E+01  0.1103958E+05  0.1552002E+01
  0.7928572E+00  0.3009019E+05 -0.1549280E+01  0.8165695E+05 -0.2836944E+01  0.1242394E+05  0.1548898E+01
  0.8238096E+00  0.3262913E+05 -0.1544386E+01  0.8656280E+05 -0.2822339E+01  0.1381252E+05  0.1545299E+01
  0.8547620E+00  0.3515035E+05 -0.1538605E+01  0.9146241E+05 -0.2808374E+01  0.1532084E+05  0.1541472E+01
  0.8857143E+00  0.3768908E+05 -0.1531854E+01  0.9631912E+05 -0.2795039E+01  0.1692492E+05  0.1537359E+01
  0.9166667E+00  0.4027425E+05 -0.1524075E+01  0.1010855E+06 -0.2782072E+01  0.1861124E+05  0.1532946E+01
  0.9476191E+00  0.4297880E+05 -0.1515263E+01  0.1056641E+06 -0.2769016E+01  0.2040092E+05  0.1528316E+01
  0.9785714E+00  0.4594691E+05 -0.1505541E+01  0.1101729E+06 -0.2756684E+01  0.2255135E+05  0.1524244E+01
  0.1009524E+01  0.4893139E+05 -0.1494570E+01  0.1145714E+06 -0.2745050E+01  0.2476312E+05  0.1520100E+01
  0.1040476E+01  0.5187769E+05 -0.1482212E+01  0.1188649E+06 -0.2734218E+01  0.2711768E+05  0.1516090E+01
  0.1071429E+01  0.5485524E+05 -0.1468521E+01  0.1228524E+06 -0.2722926E+01  0.2942611E+05  0.1511734E+01
  0.1102381E+01  0.5781701E+05 -0.1453393E+01  0.1266915E+06 -0.2712235E+01  0.3198961E+05  0.1508025E+01
  0.1133333E+01  0.6061366E+05 -0.1436615E+01  0.1303725E+06 -0.2702189E+01  0.3470429E+05  0.1504717E+01
  0.1164286E+01  0.6328059E+05 -0.1418208E+01  0.1338898E+06 -0.2692874E+01  0.3755442E+05  0.1501822E+01
  0.1195238E+01  0.6586668E+05 -0.1398326E+01  0.1372446E+06 -0.2684297E+01  0.4066962E+05  0.1499759E+01
  0.1226190E+01  0.6860492E+05 -0.1377799E+01  0.1402789E+06 -0.2675420E+01  0.4387512E+05  0.1497832E+01
  0.1257143E+01  0.7115035E+05 -0.1355758E+01  0.1431173E+06 -0.2666587E+01  0.4715679E+05  0.1496681E+01
  0.1288095E+01  0.7355686E+05 -0.1332583E+01  0.1456780E+06 -0.2658856E+01  0.5077664E+05  0.1497278E+01
  0.1319048E+01  0.7557071E+05 -0.1307687E+01  0.1480676E+06 -0.2651507E+01  0.5445448E+05  0.1498437E+01
  0.1350000E+01  0.7725613E+05 -0.1281371E+01  0.1502358E+06 -0.2644798E+01  0.5827911E+05  0.1500813E+01
  0.1380952E+01  0.7861573E+05 -0.1254010E+01  0.1522072E+06 -0.2638906E+01  0.6231268E+05  0.1504109E+01
  0.1411905E+01  0.7956651E+05 -0.1225826E+01  0.1537501E+06 -0.2632489E+01  0.6610237E+05  0.1506719E+01
  0.1442857E+01  0.8031121E+05 -0.1197952E+01  0.1550906E+06 -0.2626285E+01  0.6996419E+05  0.1510358E+01
  0.1473810E+01  0.8063856E+05 -0.1169430E+01  0.1562205E+06 -0.2620528E+01  0.7412459E+05  0.1516104E+01
  0.1504762E+01  0.8040938E+05 -0.1140290E+01  0.1571128E+06 -0.2615324E+01  0.7822634E+05  0.1522094E+01
  0.1535714E+01  0.7969733E+05 -0.1110983E+01  0.1577780E+06 -0.2610672E+01  0.8234570E+05  0.1528720E+01
  0.1566667E+01  0.7848873E+05 -0.1082019E+01  0.1582034E+06 -0.2606668E+01  0.8643756E+05  0.1535428E+01
  0.1597619E+01  0.7679012E+05 -0.1053687E+01  0.1584002E+06 -0.2603306E+01  0.9063845E+05  0.1542523E+01
  0.1628572E+01  0.7456296E+05 -0.1026383E+01  0.1582318E+06 -0.2599098E+01  0.9425408E+05  0.1548836E+01
  0.1659524E+01  0.7184698E+05 -0.1000260E+01  0.1578014E+06 -0.2595097E+01  0.9766380E+05  0.1554857E+01
  0.1690476E+01  0.6870505E+05 -0.9757825E+00  0.1571502E+06 -0.2591403E+01  0.1011606E+06  0.1561198E+01
  0.1721429E+01  0.6504015E+05 -0.9530288E+00  0.1562673E+06 -0.2588257E+01  0.1045151E+06  0.1567288E+01
  0.1752381E+01  0.6093186E+05 -0.9326555E+00  0.1551591E+06 -0.2585633E+01  0.1077015E+06  0.1572558E+01
  0.1783333E+01  0.5635794E+05 -0.9143907E+00  0.1538017E+06 -0.2583356E+01  0.1106256E+06  0.1577684E+01
  0.1814286E+01  0.5138650E+05 -0.8994133E+00  0.1522098E+06 -0.2581504E+01  0.1133537E+06  0.1581772E+01
  0.1845238E+01  0.4606701E+05 -0.8893074E+00  0.1503938E+06 -0.2580146E+01  0.1159710E+06  0.1585237E+01
  0.1876190E+01  0.4045549E+05 -0.8888398E+00  0.1482494E+06 -0.2578100E+01  0.1178739E+06  0.1585919E+01
  0.1907143E+01  0.3457100E+05 -0.8998683E+00  0.1458613E+06 -0.2576169E+01  0.1194290E+06  0.1585449E+01
  0.1938095E+01  0.2847147E+05 -0.9290810E+00  0.1432357E+06 -0.2574406E+01  0.1207553E+06  0.1584035E+01
  0.1969048E+01  0.2231521E+05 -0.9923170E+00  0.1404482E+06 -0.2573402E+01  0.1220442E+06  0.1581989E+01
  0.2000000E+01  0.1623709E+05 -0.1127266E+01  0.1374726E+06 -0.2573173E+01  0.1230847E+06  0.1578205E+01
