VARIABLES="w (rad/s)"
"abs(F   1   1)" "angle(F   1   1)"
"abs(F   1   2)" "angle(F   1   2)"
"abs(F   1   3)" "angle(F   1   3)"
Zone t="Diffraction force - beta =   0.000 deg",I=    64,F=POINT
  0.5000000E-01  0.3554870E+04 -0.1570826E+01  0.5118171E+06 -0.3485162E-04  0.1828783E+04  0.1570837E+01
  0.8095238E-01  0.5802338E+04 -0.1570775E+01  0.5108306E+06 -0.9374493E-04  0.2983962E+04  0.1570771E+01
  0.1119048E+00  0.8099993E+04 -0.1570794E+01  0.5093820E+06 -0.1861156E-03  0.4150087E+04  0.1570809E+01
  0.1428571E+00  0.1046987E+05 -0.1570791E+01  0.5074718E+06 -0.3190176E-03  0.5339571E+04  0.1570798E+01
  0.1738095E+00  0.1293164E+05 -0.1570783E+01  0.5050922E+06 -0.5031121E-03  0.6563686E+04  0.1570801E+01
  0.2047619E+00  0.1552349E+05 -0.1570771E+01  0.5022432E+06 -0.7537493E-03  0.7827996E+04  0.1570821E+01
  0.2357143E+00  0.1827337E+05 -0.1570767E+01  0.4989168E+06 -0.1093672E-02  0.9154310E+04  0.1570839E+01
  0.2666667E+00  0.2121720E+05 -0.1570753E+01  0.4950997E+06 -0.1550354E-02  0.1053242E+05  0.1570843E+01
  0.2976190E+00  0.2440447E+05 -0.1570733E+01  0.4908058E+06 -0.2170726E-02  0.1199948E+05  0.1570866E+01
  0.3285715E+00  0.2787837E+05 -0.1570699E+01  0.4860166E+06 -0.3001793E-02  0.1357042E+05  0.1570893E+01
  0.3595238E+00  0.3168704E+05 -0.1570649E+01  0.4807348E+06 -0.4118863E-02  0.1522878E+05  0.1570945E+01
  0.3904762E+00  0.3587785E+05 -0.1570582E+01  0.4749793E+06 -0.5605916E-02  0.1701219E+05  0.1571009E+01
  0.4214286E+00  0.4052235E+05 -0.1570478E+01  0.4688152E+06 -0.7515325E-02  0.1891857E+05  0.1571116E+01
  0.4523810E+00  0.4558666E+05 -0.1570328E+01  0.4622032E+06 -0.9991680E-02  0.2098312E+05  0.1571264E+01
  0.4833333E+00  0.5108116E+05 -0.1570120E+01  0.4552409E+06 -0.1296990E-01  0.2313124E+05  0.1571479E+01
  0.5142857E+00  0.5705841E+05 -0.1569829E+01  0.4479744E+06 -0.1661824E-01  0.2532383E+05  0.1571764E+01
  0.5452381E+00  0.6342304E+05 -0.1569448E+01  0.4404228E+06 -0.2087883E-01  0.2760276E+05  0.1572145E+01
  0.5761905E+00  0.7011084E+05 -0.1568953E+01  0.4325911E+06 -0.2576139E-01  0.2993071E+05  0.1572638E+01
  0.6071429E+00  0.7711002E+05 -0.1568318E+01  0.4245401E+06 -0.3140432E-01  0.3221724E+05  0.1573274E+01
  0.6380953E+00  0.8440739E+05 -0.1567532E+01  0.4162751E+06 -0.3768202E-01  0.3440266E+05  0.1574064E+01
  0.6690477E+00  0.9198924E+05 -0.1566564E+01  0.4078658E+06 -0.4471918E-01  0.3650175E+05  0.1575029E+01
  0.7000000E+00  0.9977260E+05 -0.1565382E+01  0.3993196E+06 -0.5259044E-01  0.3856357E+05  0.1576210E+01
  0.7309524E+00  0.1076671E+06 -0.1563969E+01  0.3906041E+06 -0.6123644E-01  0.4050595E+05  0.1577627E+01
  0.7619048E+00  0.1157392E+06 -0.1562292E+01  0.3817933E+06 -0.7073779E-01  0.4223672E+05  0.1579302E+01
  0.7928572E+00  0.1240077E+06 -0.1560329E+01  0.3729534E+06 -0.8114083E-01  0.4373788E+05  0.1581269E+01
  0.8238096E+00  0.1323779E+06 -0.1558050E+01  0.3641233E+06 -0.9246513E-01  0.4506936E+05  0.1583555E+01
  0.8547620E+00  0.1408375E+06 -0.1555434E+01  0.3552738E+06 -0.1047065E+00  0.4620936E+05  0.1586176E+01
  0.8857143E+00  0.1493095E+06 -0.1552456E+01  0.3464140E+06 -0.1178752E+00  0.4710400E+05  0.1589155E+01
  0.9166667E+00  0.1577588E+06 -0.1549105E+01  0.3375636E+06 -0.1319921E+00  0.4777427E+05  0.1592498E+01
  0.9476191E+00  0.1661375E+06 -0.1545372E+01  0.3287906E+06 -0.1470953E+00  0.4814156E+05  0.1596226E+01
  0.9785714E+00  0.1744679E+06 -0.1541265E+01  0.3201152E+06 -0.1631927E+00  0.4816762E+05  0.1600353E+01
  0.1009524E+01  0.1827142E+06 -0.1536788E+01  0.3115660E+06 -0.1802962E+00  0.4784916E+05  0.1604866E+01
  0.1040476E+01  0.1908239E+06 -0.1531959E+01  0.3031411E+06 -0.1983942E+00  0.4720630E+05  0.1609747E+01
  0.1071429E+01  0.1987052E+06 -0.1526801E+01  0.2948547E+06 -0.2174726E+00  0.4631307E+05  0.1614951E+01
  0.1102381E+01  0.2062527E+06 -0.1521340E+01  0.2866883E+06 -0.2375336E+00  0.4508130E+05  0.1620418E+01
  0.1133333E+01  0.2134540E+06 -0.1515633E+01  0.2786388E+06 -0.2585622E+00  0.4357723E+05  0.1626069E+01
  0.1164286E+01  0.2202324E+06 -0.1509760E+01  0.2707170E+06 -0.2805929E+00  0.4169195E+05  0.1631831E+01
  0.1195238E+01  0.2265767E+06 -0.1503821E+01  0.2629412E+06 -0.3036321E+00  0.3943570E+05  0.1637661E+01
  0.1226190E+01  0.2324405E+06 -0.1497921E+01  0.2553457E+06 -0.3276992E+00  0.3688526E+05  0.1643465E+01
  0.1257143E+01  0.2377373E+06 -0.1492085E+01  0.2479463E+06 -0.3530112E+00  0.3406463E+05  0.1649232E+01
  0.1288095E+01  0.2424617E+06 -0.1486629E+01  0.2407551E+06 -0.3789254E+00  0.3091421E+05  0.1654533E+01
  0.1319048E+01  0.2465942E+06 -0.1481498E+01  0.2337301E+06 -0.4060124E+00  0.2759738E+05  0.1659438E+01
  0.1350000E+01  0.2500443E+06 -0.1476906E+01  0.2268852E+06 -0.4340597E+00  0.2399306E+05  0.1663650E+01
  0.1380952E+01  0.2528574E+06 -0.1473014E+01  0.2201668E+06 -0.4630067E+00  0.2019475E+05  0.1667107E+01
  0.1411905E+01  0.2543636E+06 -0.1471124E+01  0.2143666E+06 -0.4884988E+00  0.1650413E+05  0.1668327E+01
  0.1442857E+01  0.2558763E+06 -0.1468993E+01  0.2080310E+06 -0.5191997E+00  0.1246018E+05  0.1669683E+01
  0.1473810E+01  0.2566892E+06 -0.1467964E+01  0.2018993E+06 -0.5508338E+00  0.8234267E+04  0.1668002E+01
  0.1504762E+01  0.2568892E+06 -0.1468155E+01  0.1959150E+06 -0.5834515E+00  0.4035766E+04  0.1661506E+01
  0.1535714E+01  0.2564670E+06 -0.1469711E+01  0.1901100E+06 -0.6170190E+00  0.2031852E+03 -0.1201946E+01
  0.1566667E+01  0.2554407E+06 -0.1472736E+01  0.1844811E+06 -0.6515276E+00  0.4440577E+04 -0.1459252E+01
  0.1597619E+01  0.2538845E+06 -0.1477344E+01  0.1790025E+06 -0.6869833E+00  0.8622316E+04 -0.1469899E+01
  0.1628572E+01  0.2518338E+06 -0.1483623E+01  0.1736985E+06 -0.7233982E+00  0.1273209E+05 -0.1477971E+01
  0.1659524E+01  0.2493285E+06 -0.1491599E+01  0.1685724E+06 -0.7608650E+00  0.1670365E+05 -0.1487437E+01
  0.1690476E+01  0.2463982E+06 -0.1501380E+01  0.1636269E+06 -0.7991827E+00  0.2061258E+05 -0.1497553E+01
  0.1721429E+01  0.2431233E+06 -0.1512977E+01  0.1588072E+06 -0.8384184E+00  0.2435802E+05 -0.1509754E+01
  0.1752381E+01  0.2395545E+06 -0.1526433E+01  0.1541093E+06 -0.8786007E+00  0.2794067E+05 -0.1523720E+01
  0.1783333E+01  0.2357097E+06 -0.1541764E+01  0.1495508E+06 -0.9196306E+00  0.3136694E+05 -0.1539390E+01
  0.1814286E+01  0.2316405E+06 -0.1558963E+01  0.1451239E+06 -0.9615963E+00  0.3460236E+05 -0.1557036E+01
  0.1845238E+01  0.2273909E+06 -0.1578050E+01  0.1408162E+06 -0.1004526E+01  0.3765701E+05 -0.1576575E+01
  0.1876190E+01  0.2230017E+06 -0.1599044E+01  0.1366423E+06 -0.1048443E+01  0.4055807E+05 -0.1597754E+01
  0.1907143E+01  0.2185232E+06 -0.1621866E+01  0.1326616E+06 -0.1093571E+01  0.4326278E+05 -0.1621090E+01
  0.1938095E+01  0.2139659E+06 -0.1646527E+01  0.1288085E+06 -0.1139531E+01  0.4579429E+05 -0.1646307E+01
  0.1969048E+01  0.2093603E+06 -0.1672967E+01  0.1250832E+06 -0.1186345E+01  0.4813954E+05 -0.1673425E+01
  0.2000000E+01  0.2047330E+06 -0.1701172E+01  0.1214420E+06 -0.1234219E+01  0.5030884E+05 -0.1702340E+01
