VARIABLES="w (rad/s)"
"abs(F   1   1)" "angle(F   1   1)"
"abs(F   1   2)" "angle(F   1   2)"
"abs(F   1   3)" "angle(F   1   3)"
Zone t="Diffraction force - beta =   0.000 deg",I=    64,F=POINT
  0.5000000E-01  0.3546837E+04 -0.1570790E+01  0.7040562E+06 -0.5008230E-04  0.7875313E+04 -0.1570787E+01
  0.8095238E-01  0.5783271E+04 -0.1570784E+01  0.7025142E+06 -0.1346875E-03  0.1282260E+05 -0.1570798E+01
  0.1119048E+00  0.8066223E+04 -0.1570800E+01  0.7002527E+06 -0.2673363E-03  0.1788964E+05 -0.1570793E+01
  0.1428571E+00  0.1042079E+05 -0.1570786E+01  0.6972693E+06 -0.4580478E-03  0.2312342E+05 -0.1570790E+01
  0.1738095E+00  0.1287368E+05 -0.1570783E+01  0.6935569E+06 -0.7220795E-03  0.2859955E+05 -0.1570781E+01
  0.2047619E+00  0.1544994E+05 -0.1570775E+01  0.6891012E+06 -0.1081153E-02  0.3435782E+05 -0.1570778E+01
  0.2357143E+00  0.1818059E+05 -0.1570765E+01  0.6838946E+06 -0.1567653E-02  0.4047981E+05 -0.1570765E+01
  0.2666667E+00  0.2111197E+05 -0.1570749E+01  0.6779194E+06 -0.2220613E-02  0.4709034E+05 -0.1570750E+01
  0.2976190E+00  0.2427475E+05 -0.1570727E+01  0.6711680E+06 -0.3106121E-02  0.5423186E+05 -0.1570727E+01
  0.3285715E+00  0.2771742E+05 -0.1570695E+01  0.6636293E+06 -0.4290910E-02  0.6202912E+05 -0.1570694E+01
  0.3595238E+00  0.3150103E+05 -0.1570645E+01  0.6553241E+06 -0.5880733E-02  0.7066580E+05 -0.1570643E+01
  0.3904762E+00  0.3565974E+05 -0.1570573E+01  0.6462305E+06 -0.7993618E-02  0.8017834E+05 -0.1570572E+01
  0.4214286E+00  0.4022843E+05 -0.1570466E+01  0.6364811E+06 -0.1069957E-01  0.9064323E+05 -0.1570467E+01
  0.4523810E+00  0.4523472E+05 -0.1570313E+01  0.6260424E+06 -0.1420409E-01  0.1021957E+06 -0.1570313E+01
  0.4833333E+00  0.5068886E+05 -0.1570103E+01  0.6150638E+06 -0.1840497E-01  0.1148670E+06 -0.1570102E+01
  0.5142857E+00  0.5655243E+05 -0.1569816E+01  0.6035776E+06 -0.2353789E-01  0.1285246E+06 -0.1569814E+01
  0.5452381E+00  0.6278111E+05 -0.1569438E+01  0.5916296E+06 -0.2951630E-01  0.1430863E+06 -0.1569437E+01
  0.5761905E+00  0.6934048E+05 -0.1568955E+01  0.5793150E+06 -0.3635260E-01  0.1585323E+06 -0.1568954E+01
  0.6071429E+00  0.7619212E+05 -0.1568344E+01  0.5667008E+06 -0.4423963E-01  0.1747950E+06 -0.1568343E+01
  0.6380953E+00  0.8329234E+05 -0.1567601E+01  0.5536692E+06 -0.5296602E-01  0.1917611E+06 -0.1567600E+01
  0.6690477E+00  0.9057141E+05 -0.1566702E+01  0.5404003E+06 -0.6272276E-01  0.2092198E+06 -0.1566699E+01
  0.7000000E+00  0.9800672E+05 -0.1565628E+01  0.5269819E+06 -0.7362378E-01  0.2271982E+06 -0.1565624E+01
  0.7309524E+00  0.1055823E+06 -0.1564376E+01  0.5133298E+06 -0.8556469E-01  0.2457029E+06 -0.1564373E+01
  0.7619048E+00  0.1132548E+06 -0.1562934E+01  0.4995443E+06 -0.9865554E-01  0.2646010E+06 -0.1562928E+01
  0.7928572E+00  0.1209788E+06 -0.1561293E+01  0.4856795E+06 -0.1129445E+00  0.2837922E+06 -0.1561284E+01
  0.8238096E+00  0.1287098E+06 -0.1559457E+01  0.4717302E+06 -0.1284478E+00  0.3031472E+06 -0.1559444E+01
  0.8547620E+00  0.1363970E+06 -0.1557434E+01  0.4577470E+06 -0.1451945E+00  0.3225570E+06 -0.1557417E+01
  0.8857143E+00  0.1440058E+06 -0.1555247E+01  0.4437828E+06 -0.1632200E+00  0.3419699E+06 -0.1555225E+01
  0.9166667E+00  0.1514844E+06 -0.1552925E+01  0.4298642E+06 -0.1825599E+00  0.3612929E+06 -0.1552897E+01
  0.9476191E+00  0.1587970E+06 -0.1550512E+01  0.4160136E+06 -0.2032481E+00  0.3803978E+06 -0.1550478E+01
  0.9785714E+00  0.1658784E+06 -0.1548061E+01  0.4022258E+06 -0.2252803E+00  0.3991539E+06 -0.1548015E+01
  0.1009524E+01  0.1726695E+06 -0.1545640E+01  0.3885059E+06 -0.2486910E+00  0.4173903E+06 -0.1545581E+01
  0.1040476E+01  0.1791113E+06 -0.1543331E+01  0.3748861E+06 -0.2735255E+00  0.4349131E+06 -0.1543255E+01
  0.1071429E+01  0.1851577E+06 -0.1541235E+01  0.3613784E+06 -0.2998378E+00  0.4516145E+06 -0.1541138E+01
  0.1102381E+01  0.1907484E+06 -0.1539469E+01  0.3479800E+06 -0.3276987E+00  0.4673669E+06 -0.1539349E+01
  0.1133333E+01  0.1958477E+06 -0.1538164E+01  0.3347314E+06 -0.3571734E+00  0.4820435E+06 -0.1538022E+01
  0.1164286E+01  0.2004044E+06 -0.1537466E+01  0.3215766E+06 -0.3883806E+00  0.4955316E+06 -0.1537301E+01
  0.1195238E+01  0.2043992E+06 -0.1537525E+01  0.3085439E+06 -0.4214380E+00  0.5077152E+06 -0.1537340E+01
  0.1226190E+01  0.2077920E+06 -0.1538503E+01  0.2956248E+06 -0.4564832E+00  0.5185176E+06 -0.1538299E+01
  0.1257143E+01  0.2105760E+06 -0.1540533E+01  0.2828795E+06 -0.4940476E+00  0.5278716E+06 -0.1540317E+01
  0.1288095E+01  0.2127138E+06 -0.1543882E+01  0.2702364E+06 -0.5332447E+00  0.5356473E+06 -0.1543662E+01
  0.1319048E+01  0.2142414E+06 -0.1548618E+01  0.2577937E+06 -0.5754654E+00  0.5419115E+06 -0.1548417E+01
  0.1350000E+01  0.2151482E+06 -0.1554946E+01  0.2455144E+06 -0.6207590E+00  0.5466489E+06 -0.1554782E+01
  0.1380952E+01  0.2154603E+06 -0.1563006E+01  0.2334055E+06 -0.6694335E+00  0.5498339E+06 -0.1562913E+01
  0.1411905E+01  0.2159139E+06 -0.1571228E+01  0.2214809E+06 -0.7161328E+00  0.5538251E+06 -0.1571226E+01
  0.1442857E+01  0.2151813E+06 -0.1582855E+01  0.2097709E+06 -0.7732205E+00  0.5542979E+06 -0.1583011E+01
  0.1473810E+01  0.2139476E+06 -0.1596578E+01  0.1984003E+06 -0.8357205E+00  0.5533926E+06 -0.1596960E+01
  0.1504762E+01  0.2122563E+06 -0.1612518E+01  0.1874715E+06 -0.9047630E+00  0.5512035E+06 -0.1613215E+01
  0.1535714E+01  0.2101458E+06 -0.1630775E+01  0.1771114E+06 -0.9811889E+00  0.5478559E+06 -0.1631876E+01
  0.1566667E+01  0.2076727E+06 -0.1651422E+01  0.1675279E+06 -0.1065827E+01  0.5434386E+06 -0.1653052E+01
  0.1597619E+01  0.2048822E+06 -0.1674512E+01  0.1589098E+06 -0.1159550E+01  0.5380556E+06 -0.1676824E+01
  0.1628572E+01  0.2018288E+06 -0.1700110E+01  0.1515233E+06 -0.1262527E+01  0.5318475E+06 -0.1703283E+01
  0.1659524E+01  0.1985554E+06 -0.1728278E+01  0.1456704E+06 -0.1374255E+01  0.5249519E+06 -0.1732504E+01
  0.1690476E+01  0.1951135E+06 -0.1759008E+01  0.1415380E+06 -0.1492952E+01  0.5174798E+06 -0.1764548E+01
  0.1721429E+01  0.1915401E+06 -0.1792305E+01  0.1392878E+06 -0.1615664E+01  0.5095373E+06 -0.1799416E+01
  0.1752381E+01  0.1878858E+06 -0.1828187E+01  0.1389597E+06 -0.1739052E+01  0.5012729E+06 -0.1837192E+01
  0.1783333E+01  0.1841770E+06 -0.1866651E+01  0.1405068E+06 -0.1858234E+01  0.4928057E+06 -0.1877863E+01
  0.1814286E+01  0.1804702E+06 -0.1907665E+01  0.1436415E+06 -0.1970314E+01  0.4842670E+06 -0.1921440E+01
  0.1845238E+01  0.1767958E+06 -0.1951168E+01  0.1480354E+06 -0.2072907E+01  0.4757764E+06 -0.1967950E+01
  0.1876190E+01  0.1731798E+06 -0.1997079E+01  0.1532830E+06 -0.2165473E+01  0.4673909E+06 -0.2017291E+01
  0.1907143E+01  0.1696258E+06 -0.2045371E+01  0.1588964E+06 -0.2247967E+01  0.4592134E+06 -0.2069383E+01
  0.1938095E+01  0.1661678E+06 -0.2095891E+01  0.1645807E+06 -0.2321929E+01  0.4512855E+06 -0.2124135E+01
  0.1969048E+01  0.1628305E+06 -0.2148477E+01  0.1700356E+06 -0.2388296E+01  0.4437298E+06 -0.2181457E+01
  0.2000000E+01  0.1596096E+06 -0.2203102E+01  0.1750386E+06 -0.2449037E+01  0.4365721E+06 -0.2241159E+01
