VARIABLES="w (rad/s)"
"A   1   1" "B   1   1"
"A   1   2" "B   1   2"
"A   1   3" "B   1   3"
Zone t="Motion of body    1 in DoF   1",I=    64,F=POINT
  0.5000000E-01  0.7402422E+05  0.5352487E-02  0.1907349E-02  0.1312744E-04 -0.1316456E+06 -0.8954966E-02
  0.8095238E-01  0.7442335E+05  0.2362312E-01  0.1649296E-02  0.2035301E-04 -0.1323029E+06 -0.3963394E-01
  0.1119048E+00  0.7464476E+05  0.6643151E-01 -0.5795093E-03  0.1886155E-04 -0.1326515E+06 -0.1114033E+00
  0.1428571E+00  0.7479109E+05  0.1494655E+00  0.1602173E-03  0.3707595E-04 -0.1329326E+06 -0.2506890E+00
  0.1738095E+00  0.7503347E+05  0.2976647E+00 -0.1580225E-02  0.2370076E-04 -0.1332101E+06 -0.4988901E+00
  0.2047619E+00  0.7501833E+05  0.5489812E+00  0.9799336E-02  0.1926287E-03 -0.1332011E+06 -0.9199861E+00
  0.2357143E+00  0.7520936E+05  0.9670575E+00  0.5599513E-02  0.2087457E-03 -0.1335328E+06 -0.1620330E+01
  0.2666667E+00  0.7543331E+05  0.1651264E+01  0.1573563E-02  0.1246072E-03 -0.1336779E+06 -0.2763911E+01
  0.2976190E+00  0.7560035E+05  0.2770976E+01 -0.3383789E-02  0.7497147E-04 -0.1340723E+06 -0.4639066E+01
  0.3285715E+00  0.7579612E+05  0.4587371E+01 -0.7291046E-02 -0.2212822E-03 -0.1342747E+06 -0.7674562E+01
  0.3595238E+00  0.7615910E+05  0.7543053E+01  0.4286608E-02  0.3514513E-03 -0.1348564E+06 -0.1261383E+02
  0.3904762E+00  0.7629209E+05  0.1229635E+02 -0.3399732E-02 -0.1527816E-03 -0.1350092E+06 -0.2054972E+02
  0.4214286E+00  0.7668997E+05  0.1981119E+02 -0.4344875E-02 -0.3900081E-03 -0.1357561E+06 -0.3310379E+02
  0.4523810E+00  0.7700573E+05  0.3162552E+02  0.4519814E-02  0.1082301E-02 -0.1361282E+06 -0.5279498E+02
  0.4833333E+00  0.7754795E+05  0.4929733E+02  0.2904431E-02  0.4664063E-03 -0.1368960E+06 -0.8221873E+02
  0.5142857E+00  0.7785038E+05  0.7548822E+02  0.2551609E-02  0.5651116E-03 -0.1374012E+06 -0.1258365E+03
  0.5452381E+00  0.7824303E+05  0.1128898E+03 -0.4029919E-02 -0.4515648E-03 -0.1379705E+06 -0.1880233E+03
  0.5761905E+00  0.7892498E+05  0.1651145E+03 -0.4766795E-03  0.5306005E-03 -0.1390614E+06 -0.2747951E+03
  0.6071429E+00  0.7941659E+05  0.2368335E+03  0.3066119E-02  0.8790493E-03 -0.1397377E+06 -0.3937178E+03
  0.6380953E+00  0.8003657E+05  0.3324156E+03 -0.4304345E-03  0.1478910E-02 -0.1405890E+06 -0.5518950E+03
  0.6690477E+00  0.8070091E+05  0.4586383E+03  0.1915765E-02  0.1233101E-02 -0.1418671E+06 -0.7613467E+03
  0.7000000E+00  0.8132518E+05  0.6231326E+03  0.1220703E-02  0.1015186E-02 -0.1427380E+06 -0.1032980E+04
  0.7309524E+00  0.8215945E+05  0.8345090E+03 -0.1461265E-02  0.2117157E-03 -0.1438125E+06 -0.1380744E+04
  0.7619048E+00  0.8313381E+05  0.1103778E+04 -0.3484726E-02 -0.1392365E-02 -0.1454098E+06 -0.1824547E+04
  0.7928572E+00  0.8392370E+05  0.1440867E+04  0.5350198E-02  0.2817154E-02 -0.1465713E+06 -0.2378327E+04
  0.8238096E+00  0.8473654E+05  0.1859797E+04 -0.4408291E-02 -0.1335144E-02 -0.1478610E+06 -0.3066229E+04
  0.8547620E+00  0.8573225E+05  0.2376658E+04  0.9639814E-03  0.1300812E-02 -0.1493581E+06 -0.3912275E+04
  0.8857143E+00  0.8686097E+05  0.3009155E+04 -0.5168300E-03  0.2441406E-02 -0.1511365E+06 -0.4946162E+04
  0.9166667E+00  0.8791468E+05  0.3773361E+04 -0.3362482E-02 -0.3013611E-03 -0.1525929E+06 -0.6188958E+04
  0.9476191E+00  0.8898468E+05  0.4690988E+04 -0.1803451E-02  0.1106262E-03 -0.1541703E+06 -0.7679776E+04
  0.9785714E+00  0.9014388E+05  0.5786366E+04  0.3742301E-03  0.1098633E-02 -0.1557494E+06 -0.9450499E+04
  0.1009524E+01  0.9141736E+05  0.7086504E+04 -0.7859716E-03  0.1441956E-02 -0.1577953E+06 -0.1155728E+05
  0.1040476E+01  0.9246449E+05  0.8603206E+04 -0.3519648E-02  0.3967285E-03 -0.1593897E+06 -0.1400551E+05
  0.1071429E+01  0.9347588E+05  0.1036506E+05  0.2107747E-02  0.7629395E-03 -0.1608761E+06 -0.1683876E+05
  0.1102381E+01  0.9456039E+05  0.1240072E+05 -0.1107333E-02  0.3051758E-02 -0.1623297E+06 -0.2008992E+05
  0.1133333E+01  0.9570901E+05  0.1474226E+05  0.1884909E-02  0.2655029E-02 -0.1637912E+06 -0.2381056E+05
  0.1164286E+01  0.9687133E+05  0.1741862E+05 -0.6290739E-03  0.2563477E-02 -0.1655076E+06 -0.2807022E+05
  0.1195238E+01  0.9774406E+05  0.2042340E+05  0.4595874E-03  0.2944946E-02 -0.1666521E+06 -0.3282358E+05
  0.1226190E+01  0.9841308E+05  0.2377879E+05 -0.1045301E-02  0.3921509E-02 -0.1673721E+06 -0.3809821E+05
  0.1257143E+01  0.9885056E+05  0.2749222E+05 -0.2039129E-02 -0.6866455E-03 -0.1678516E+06 -0.4393002E+05
  0.1288095E+01  0.9930866E+05  0.3160859E+05 -0.2321818E-02 -0.2288818E-02 -0.1681739E+06 -0.5033382E+05
  0.1319048E+01  0.9953294E+05  0.3608951E+05 -0.4534670E-02  0.8850098E-03 -0.1682926E+06 -0.5730543E+05
  0.1350000E+01  0.9952119E+05  0.4091352E+05 -0.2305773E-02  0.1007080E-02 -0.1681360E+06 -0.6479189E+05
  0.1380952E+01  0.9915882E+05  0.4601305E+05 -0.5171151E-02 -0.8392334E-02 -0.1672069E+06 -0.7259316E+05
  0.1411905E+01  0.9811088E+05  0.5120467E+05 -0.5619763E-03 -0.1129150E-02 -0.1653092E+06 -0.8051110E+05
  0.1442857E+01  0.9711005E+05  0.5677055E+05  0.1395953E-02  0.8422852E-02 -0.1633942E+06 -0.8892501E+05
  0.1473810E+01  0.9579600E+05  0.6249288E+05  0.4141319E-03  0.5126953E-02 -0.1609379E+06 -0.9747997E+05
  0.1504762E+01  0.9421024E+05  0.6831667E+05  0.7301040E-03  0.1678467E-02 -0.1580286E+06 -0.1060882E+06
  0.1535714E+01  0.9241426E+05  0.7421850E+05 -0.1470521E-02  0.4241943E-02 -0.1550402E+06 -0.1148508E+06
  0.1566667E+01  0.9020298E+05  0.7996508E+05 -0.8960480E-03  0.3417969E-02 -0.1513661E+06 -0.1232394E+06
  0.1597619E+01  0.8769997E+05  0.8550934E+05 -0.1604561E-02 -0.2014160E-02 -0.1471547E+06 -0.1311477E+06
  0.1628572E+01  0.8490673E+05  0.9078213E+05  0.1649020E-02 -0.8544922E-03 -0.1424755E+06 -0.1385194E+06
  0.1659524E+01  0.8192790E+05  0.9576545E+05 -0.2500953E-02  0.1342773E-02 -0.1376292E+06 -0.1454119E+06
  0.1690476E+01  0.7879638E+05  0.1003805E+06 -0.1047054E-02  0.1220703E-02 -0.1325623E+06 -0.1516227E+06
  0.1721429E+01  0.7556348E+05  0.1045659E+06 -0.6736661E-03  0.3051758E-02 -0.1273022E+06 -0.1570068E+06
  0.1752381E+01  0.7234573E+05  0.1083492E+06 -0.3691964E-02  0.4089355E-02 -0.1221888E+06 -0.1617771E+06
  0.1783333E+01  0.6918681E+05  0.1117508E+06 -0.1403238E-02 -0.4333496E-02 -0.1173609E+06 -0.1660640E+06
  0.1814286E+01  0.6586474E+05  0.1144794E+06 -0.4709800E-03  0.4089355E-02 -0.1122585E+06 -0.1691646E+06
  0.1845238E+01  0.6259390E+05  0.1166810E+06 -0.1471932E-02  0.3051758E-03 -0.1072428E+06 -0.1713688E+06
  0.1876190E+01  0.5935423E+05  0.1183258E+06  0.4554400E-03  0.6103516E-04 -0.1022817E+06 -0.1726427E+06
  0.1907143E+01  0.5624869E+05  0.1195433E+06 -0.1104119E-02  0.1708984E-02 -0.9763687E+05 -0.1733295E+06
  0.1938095E+01  0.5330836E+05  0.1203504E+06 -0.1275440E-02  0.3662109E-02 -0.9330312E+05 -0.1733980E+06
  0.1969048E+01  0.5050576E+05  0.1206948E+06  0.9609163E-03  0.5676270E-02 -0.8911617E+05 -0.1725537E+06
  0.2000000E+01  0.4790252E+05  0.1207048E+06 -0.7934570E-03  0.3662109E-03 -0.8525699E+05 -0.1711812E+06
Zone t="Motion of body    1 in DoF   2",I=    64,F=POINT
  0.5000000E-01  0.4577637E-03  0.1668930E-05  0.5262907E+05  0.7917139E+02  0.5187988E-02 -0.3814697E-05
  0.8095238E-01  0.2827364E-03  0.1907349E-05  0.5204945E+05  0.1311125E+03  0.8670582E-02  0.3623962E-04
  0.1119048E+00 -0.6817757E-03 -0.2574921E-04  0.5188052E+05  0.1874011E+03 -0.1363551E-02  0.2002716E-04
  0.1428571E+00  0.5447387E-02  0.9536743E-06  0.5172832E+05  0.2501351E+03 -0.1004028E-01 -0.7247925E-04
  0.1738095E+00 -0.8779029E-03  0.9536743E-06  0.5166029E+05  0.3216802E+03  0.3511612E-03  0.3814697E-05
  0.2047619E+00  0.1080535E-02  0.7057190E-04  0.5172241E+05  0.4053633E+03  0.6855809E-02 -0.1335144E-03
  0.2357143E+00  0.4401929E-02  0.4196167E-04  0.5168127E+05  0.5055446E+03  0.2071496E-02  0.9536743E-04
  0.2666667E+00  0.3376007E-02  0.4386902E-04  0.5176312E+05  0.6254999E+03  0.5264282E-02 -0.6866455E-04
  0.2976190E+00  0.3229981E-02  0.8392334E-04  0.5180821E+05  0.7739978E+03 -0.8203125E-03  0.1869202E-03
  0.3285715E+00 -0.8359161E-03  0.1831055E-03  0.5192603E+05  0.9542704E+03  0.1857591E-02  0.2746582E-03
  0.3595238E+00  0.2588941E-02  0.8773804E-04  0.5194114E+05  0.1176550E+04 -0.6111600E-02 -0.4577637E-04
  0.3904762E+00  0.1172321E-02  0.7629395E-04  0.5208372E+05  0.1446252E+04  0.3126191E-03  0.2822876E-03
  0.4214286E+00 -0.1665535E-02  0.1678467E-03  0.5195858E+05  0.1760142E+04 -0.2896583E-02  0.9613037E-03
  0.4523810E+00  0.4115054E-02 -0.1831055E-03  0.5204529E+05  0.2133637E+04 -0.5396792E-02  0.1831055E-03
  0.4833333E+00  0.4293507E-02  0.2212524E-03  0.5173380E+05  0.2530946E+04  0.5051185E-03 -0.6103516E-03
  0.5142857E+00  0.4331801E-02 -0.4577637E-04  0.5152562E+05  0.2972303E+04  0.1020643E-01  0.1068115E-03
  0.5452381E+00 -0.7835955E-03 -0.6103516E-03  0.5123341E+05  0.3428672E+04  0.3134382E-02  0.1251221E-02
  0.5761905E+00  0.5296439E-04 -0.2288818E-03  0.5080239E+05  0.3891305E+04 -0.4237151E-03  0.1159668E-02
  0.6071429E+00  0.3166647E-02  0.1373291E-03  0.5050621E+05  0.4370194E+04 -0.3216911E-02 -0.2166748E-02
  0.6380953E+00  0.1482608E-02  0.9155273E-03  0.4996036E+05  0.4830048E+04  0.4591301E-02  0.1708984E-02
  0.6690477E+00  0.1414017E-02  0.6103516E-03  0.4944552E+05  0.5286917E+04  0.1897520E-01  0.6103516E-03
  0.7000000E+00  0.2702985E-02 -0.2441406E-03  0.4905196E+05  0.5735865E+04  0.6277902E-02 -0.1861572E-02
  0.7309524E+00 -0.1419515E-02 -0.6103516E-03  0.4845177E+05  0.6161515E+04  0.1068811E-01  0.2685547E-02
  0.7619048E+00  0.4125595E-02  0.3051758E-03  0.4786688E+05  0.6570841E+04  0.1281738E-02  0.5798340E-03
  0.7928572E+00  0.1308682E-02 -0.1220703E-02  0.4735904E+05  0.6951418E+04  0.3387176E-02  0.3173828E-02
  0.8238096E+00  0.4186023E-02  0.3356934E-03  0.4692133E+05  0.7298506E+04 -0.6519824E-02 -0.3845215E-02
  0.8547620E+00  0.4677095E-02 -0.1464844E-02  0.4623542E+05  0.7616802E+04 -0.5141234E-02  0.2319336E-02
  0.8857143E+00  0.1102571E-02 -0.1586914E-02  0.4565882E+05  0.7904145E+04 -0.3858997E-02 -0.3356934E-02
  0.9166667E+00  0.2097390E-02  0.1831055E-03  0.4518930E+05  0.8145165E+04 -0.2663352E-02 -0.1159668E-02
  0.9476191E+00  0.8791823E-02 -0.7934570E-03  0.4480346E+05  0.8341722E+04 -0.1854978E-01 -0.1342773E-02
  0.9785714E+00 -0.2276567E-02  0.6713867E-03  0.4414949E+05  0.8497237E+04  0.1122690E-01  0.1220703E-03
  0.1009524E+01  0.7557420E-03 -0.2380371E-02  0.4362361E+05  0.8618229E+04 -0.3143887E-02  0.3173828E-02
  0.1040476E+01  0.4399559E-03  0.1403809E-02  0.4316877E+05  0.8689568E+04  0.3519648E-02 -0.3295898E-02
  0.1071429E+01  0.2563477E-03 -0.1464844E-02  0.4284437E+05  0.8718344E+04 -0.2050781E-02  0.3417969E-02
  0.1102381E+01  0.2491500E-03 -0.1037598E-02  0.4249537E+05  0.8700599E+04  0.5315199E-02 -0.2929688E-02
  0.1133333E+01  0.1454073E-02  0.1708984E-02  0.4198253E+05  0.8631319E+04 -0.8616728E-03 -0.6774902E-02
  0.1164286E+01  0.5111226E-03 -0.1342773E-02  0.4160177E+05  0.8545565E+04  0.1467839E-02 -0.1525879E-02
  0.1195238E+01  0.2080910E-02 -0.7934570E-03  0.4128704E+05  0.8419362E+04 -0.1021305E-02  0.1354980E-01
  0.1226190E+01  0.1543064E-02  0.1220703E-02  0.4107952E+05  0.8264850E+04 -0.9955249E-03  0.2868652E-02
  0.1257143E+01  0.3349998E-02 -0.2563477E-02  0.4099264E+05  0.8093756E+04  0.0000000E+00  0.5737305E-02
  0.1288095E+01  0.5733469E-02  0.4028320E-02  0.4063902E+05  0.7827138E+04 -0.7012838E-02  0.7934570E-03
  0.1319048E+01  0.3643931E-02 -0.2136230E-02  0.4035877E+05  0.7549310E+04 -0.5367568E-02  0.7385254E-02
  0.1350000E+01  0.3156309E-02 -0.2197266E-02  0.4017424E+05  0.7284862E+04 -0.1265914E-02  0.2624512E-02
  0.1380952E+01 -0.2209894E-04  0.4882812E-03  0.4004962E+05  0.7003372E+04  0.6364494E-02 -0.1159668E-02
  0.1411905E+01  0.3823060E-02  0.2990723E-02  0.4000402E+05  0.6731852E+04 -0.2074989E-02 -0.4638672E-02
  0.1442857E+01  0.6345239E-03 -0.1281738E-02  0.4005780E+05  0.6479719E+04 -0.5076191E-03  0.1129150E-02
  0.1473810E+01  0.3778954E-03 -0.1342773E-02  0.3997631E+05  0.6129509E+04 -0.6626110E-03  0.6225586E-02
  0.1504762E+01  0.1186419E-02  0.2014160E-02  0.3982628E+05  0.5709182E+04  0.1460208E-02 -0.4608154E-02
  0.1535714E+01  0.1579817E-02  0.1281738E-02  0.3977687E+05  0.5367504E+04 -0.1430777E-02 -0.4974365E-02
  0.1566667E+01 -0.9739652E-04 -0.2807617E-02  0.3976597E+05  0.5042344E+04  0.6233377E-03  0.1217651E-01
  0.1597619E+01  0.1680968E-02  0.2380371E-02  0.3979417E+05  0.4728216E+04  0.3056306E-03 -0.5798340E-02
  0.1628572E+01  0.1742714E-02  0.1342773E-02  0.3987734E+05  0.4457405E+04  0.2998218E-03 -0.5828857E-02
  0.1659524E+01  0.6804062E-03  0.3601074E-02  0.4001784E+05  0.4250669E+04  0.5884594E-03 -0.2624512E-02
  0.1690476E+01  0.1426159E-02 -0.1464844E-02  0.4011342E+05  0.3976464E+04  0.2310739E-02  0.6408691E-03
  0.1721429E+01  0.1648709E-02 -0.3051758E-03  0.4010198E+05  0.3541510E+04  0.2552840E-02 -0.4974365E-02
  0.1752381E+01  0.1758907E-02  0.2319336E-02  0.4013512E+05  0.3174803E+04  0.3343665E-02 -0.2746582E-02
  0.1783333E+01  0.9925343E-03  0.4089355E-02  0.4019941E+05  0.2909716E+04 -0.1642815E-02 -0.3631592E-02
  0.1814286E+01  0.1799816E-02  0.1464844E-02  0.4028128E+05  0.2656550E+04  0.8073942E-03 -0.1525879E-04
  0.1845238E+01  0.2083858E-02 -0.2685547E-02  0.4037914E+05  0.2428050E+04  0.3175403E-02  0.3128052E-02
  0.1876190E+01  0.1089803E-02  0.5249023E-02  0.4049904E+05  0.2255873E+04 -0.1301257E-02 -0.5966187E-02
  0.1907143E+01  0.1904206E-02  0.8544922E-03  0.4063714E+05  0.2156959E+04 -0.3840415E-02 -0.2426147E-02
  0.1938095E+01  0.1385663E-02  0.7324219E-03  0.4078355E+05  0.2093853E+04 -0.1511632E-02 -0.1434326E-02
  0.1969048E+01  0.1472372E-02  0.1800537E-02  0.4085179E+05  0.1783403E+04 -0.5455525E-02 -0.2441406E-02
  0.2000000E+01  0.1235962E-02  0.1068115E-02  0.4092116E+05  0.1455224E+04 -0.1464844E-02  0.2746582E-03
Zone t="Motion of body    1 in DoF   3",I=    64,F=POINT
  0.5000000E-01 -0.1320428E+06 -0.8961651E-02  0.5722046E-02  0.2637166E-04  0.3061303E+06  0.1496999E-01
  0.8095238E-01 -0.1326779E+06 -0.3963121E-01 -0.1272314E-01 -0.6980123E-04  0.3072928E+06  0.6648654E-01
  0.1119048E+00 -0.1330102E+06 -0.1114997E+00 -0.9203971E-02 -0.1056121E-03  0.3077470E+06  0.1869887E+00
  0.1428571E+00 -0.1333107E+06 -0.2508005E+00 -0.1626205E-01 -0.1843337E-03  0.3081782E+06  0.4205455E+00
  0.1738095E+00 -0.1335955E+06 -0.4993358E+00  0.4389515E-04 -0.7829349E-04  0.3084864E+06  0.8368396E+00
  0.2047619E+00 -0.1335484E+06 -0.9206027E+00 -0.3614204E-01 -0.6498443E-03  0.3085934E+06  0.1542667E+01
  0.2357143E+00 -0.1339103E+06 -0.1621131E+01 -0.2411351E-01 -0.3371090E-03  0.3090192E+06  0.2716171E+01
  0.2666667E+00 -0.1340359E+06 -0.2767089E+01 -0.2594948E-01 -0.4537515E-03  0.3090120E+06  0.4631864E+01
  0.2976190E+00 -0.1344547E+06 -0.4641997E+01 -0.4152832E-02 -0.4074797E-03  0.3098453E+06  0.7772174E+01
  0.3285715E+00 -0.1346283E+06 -0.7681664E+01  0.2584374E-01  0.1024723E-02  0.3099980E+06  0.1285223E+02
  0.3595238E+00 -0.1352469E+06 -0.1262496E+02 -0.2601674E-01 -0.1110405E-02  0.3109523E+06  0.2111222E+02
  0.3904762E+00 -0.1353505E+06 -0.2056926E+02 -0.1981223E-01 -0.1344264E-02  0.3112482E+06  0.3437419E+02
  0.4214286E+00 -0.1361549E+06 -0.3311930E+02  0.7169044E-02  0.1056433E-02  0.3124620E+06  0.5533941E+02
  0.4523810E+00 -0.1364572E+06 -0.5283888E+02 -0.2094630E-01 -0.1676440E-02  0.3131251E+06  0.8820637E+02
  0.4833333E+00 -0.1372909E+06 -0.8230400E+02  0.1202813E-01  0.8299351E-03  0.3139029E+06  0.1372680E+03
  0.5142857E+00 -0.1377776E+06 -0.1259367E+03  0.1605140E-01  0.2160668E-02  0.3149001E+06  0.2099349E+03
  0.5452381E+00 -0.1383260E+06 -0.1881806E+03  0.5541139E-02  0.8223057E-03  0.3156266E+06  0.3134240E+03
  0.5761905E+00 -0.1394668E+06 -0.2749887E+03 -0.1424742E-01 -0.3011703E-02  0.3174008E+06  0.4576563E+03
  0.6071429E+00 -0.1400838E+06 -0.3940926E+03  0.2965590E-02  0.4472733E-03  0.3185516E+06  0.6551586E+03
  0.6380953E+00 -0.1409566E+06 -0.5525515E+03 -0.1226738E-01 -0.2243996E-02  0.3194566E+06  0.9173834E+03
  0.6690477E+00 -0.1422775E+06 -0.7615254E+03 -0.9829701E-02 -0.1736641E-02  0.3218742E+06  0.1264157E+04
  0.7000000E+00 -0.1430864E+06 -0.1033471E+04 -0.8501325E-02 -0.4891396E-02  0.3232594E+06  0.1713219E+04
  0.7309524E+00 -0.1441752E+06 -0.1382265E+04  0.4550797E-02  0.4392624E-02  0.3243851E+06  0.2287029E+04
  0.7619048E+00 -0.1458219E+06 -0.1825872E+04  0.1494026E-01  0.5529404E-02  0.3270498E+06  0.3018180E+04
  0.7928572E+00 -0.1469580E+06 -0.2380190E+04 -0.1229776E-01 -0.4882812E-02  0.3288388E+06  0.3928834E+04
  0.8238096E+00 -0.1481970E+06 -0.3067907E+04  0.5186224E-02  0.6675720E-02  0.3310948E+06  0.5058127E+04
  0.8547620E+00 -0.1497299E+06 -0.3914040E+04 -0.3345373E-01 -0.1471710E-01  0.3329983E+06  0.6442946E+04
  0.8857143E+00 -0.1515433E+06 -0.4946919E+04 -0.1224887E-01 -0.6183624E-02  0.3358778E+06  0.8131107E+04
  0.9166667E+00 -0.1529768E+06 -0.6192218E+04 -0.1672918E-01 -0.5790710E-02  0.3379669E+06  0.1015625E+05
  0.9476191E+00 -0.1545112E+06 -0.7684623E+04  0.5957828E-03 -0.2166748E-02  0.3405469E+06  0.1258098E+05
  0.9785714E+00 -0.1561229E+06 -0.9459560E+04  0.1252112E-01  0.8613586E-02  0.3423347E+06  0.1544931E+05
  0.1009524E+01 -0.1582084E+06 -0.1156191E+05 -0.1821338E-01 -0.1289368E-01  0.3456883E+06  0.1885644E+05
  0.1040476E+01 -0.1597890E+06 -0.1400633E+05 -0.6027396E-02  0.1068115E-03  0.3481197E+06  0.2280194E+05
  0.1071429E+01 -0.1612300E+06 -0.1683700E+05 -0.3540446E-01 -0.2204895E-01  0.3504516E+06  0.2735393E+05
  0.1102381E+01 -0.1626622E+06 -0.2009175E+05  0.1031204E-01  0.1119995E-01  0.3524275E+06  0.3254936E+05
  0.1133333E+01 -0.1641592E+06 -0.2382091E+05 -0.9761137E-02 -0.4974365E-02  0.3539262E+06  0.3847052E+05
  0.1164286E+01 -0.1659190E+06 -0.2807295E+05 -0.1066805E-01 -0.9918213E-02  0.3565495E+06  0.4523915E+05
  0.1195238E+01 -0.1670668E+06 -0.3282488E+05 -0.1365996E-01 -0.7019043E-02  0.3580490E+06  0.5275423E+05
  0.1226190E+01 -0.1677543E+06 -0.3810830E+05 -0.6470912E-02  0.7934570E-03  0.3587925E+06  0.6105850E+05
  0.1257143E+01 -0.1681786E+06 -0.4393643E+05 -0.4102533E-02 -0.7507324E-02  0.3595437E+06  0.7021590E+05
  0.1288095E+01 -0.1685207E+06 -0.5035023E+05  0.2179666E-02  0.1254272E-01  0.3591758E+06  0.8017691E+05
  0.1319048E+01 -0.1686525E+06 -0.5730237E+05 -0.1781477E-02  0.2136230E-02  0.3588059E+06  0.9098392E+05
  0.1350000E+01 -0.1685235E+06 -0.6474828E+05 -0.6691262E-02 -0.6256104E-02  0.3584408E+06  0.1025393E+06
  0.1380952E+01 -0.1675914E+06 -0.7253694E+05 -0.5568932E-02  0.8850098E-02  0.3564783E+06  0.1144338E+06
  0.1411905E+01 -0.1656776E+06 -0.8045112E+05  0.6916631E-03  0.6103516E-04  0.3531597E+06  0.1264963E+06
  0.1442857E+01 -0.1637260E+06 -0.8886552E+05 -0.7233573E-02 -0.2655029E-01  0.3499600E+06  0.1392246E+06
  0.1473810E+01 -0.1612648E+06 -0.9741953E+05  0.3934253E-03 -0.4699707E-02  0.3454502E+06  0.1519703E+06
  0.1504762E+01 -0.1583700E+06 -0.1060235E+06 -0.3488275E-02  0.1098633E-02  0.3399265E+06  0.1645985E+06
  0.1535714E+01 -0.1554201E+06 -0.1147183E+06  0.3616688E-02  0.3356934E-02  0.3350027E+06  0.1774926E+06
  0.1566667E+01 -0.1517788E+06 -0.1230661E+06 -0.4324405E-02 -0.9887695E-02  0.3291324E+06  0.1896565E+06
  0.1597619E+01 -0.1475731E+06 -0.1309593E+06  0.1528153E-02  0.2746582E-02  0.3221937E+06  0.2008346E+06
  0.1628572E+01 -0.1428696E+06 -0.1383411E+06 -0.1783940E-01 -0.8728027E-02  0.3145757E+06  0.2110869E+06
  0.1659524E+01 -0.1379973E+06 -0.1452356E+06 -0.1092328E-01 -0.1525879E-01  0.3070856E+06  0.2206097E+06
  0.1690476E+01 -0.1329122E+06 -0.1514444E+06 -0.6137901E-03  0.4028320E-02  0.2990757E+06  0.2288477E+06
  0.1721429E+01 -0.1276568E+06 -0.1568210E+06 -0.1418244E-02 -0.9765625E-02  0.2902543E+06  0.2353821E+06
  0.1752381E+01 -0.1225625E+06 -0.1615602E+06  0.7592907E-02  0.2563477E-02  0.2820415E+06  0.2410591E+06
  0.1783333E+01 -0.1178301E+06 -0.1658000E+06  0.5133798E-02  0.2929688E-02  0.2748820E+06  0.2462722E+06
  0.1814286E+01 -0.1127595E+06 -0.1688849E+06 -0.3902406E-02 -0.6713867E-02  0.2672928E+06  0.2494998E+06
  0.1845238E+01 -0.1077490E+06 -0.1710679E+06  0.8996976E-02  0.1525879E-02  0.2597239E+06  0.2511711E+06
  0.1876190E+01 -0.1027620E+06 -0.1723372E+06 -0.1561509E-02  0.3173828E-02  0.2522763E+06  0.2514153E+06
  0.1907143E+01 -0.9810545E+05 -0.1730334E+06 -0.5120553E-03  0.2624512E-02  0.2456894E+06  0.2510611E+06
  0.1938095E+01 -0.9375275E+05 -0.1731213E+06 -0.1001456E-01 -0.3234863E-02  0.2397056E+06  0.2498754E+06
  0.1969048E+01 -0.8957323E+05 -0.1722822E+06 -0.1351482E-01 -0.5798340E-02  0.2332340E+06  0.2463647E+06
  0.2000000E+01 -0.8571459E+05 -0.1708944E+06  0.6347656E-02  0.8361816E-02  0.2271657E+06  0.2418225E+06
