VARIABLES="w (rad/s)"
"abs(F   1   1)" "angle(F   1   1)"
"abs(F   1   2)" "angle(F   1   2)"
"abs(F   1   3)" "angle(F   1   3)"
Zone t="Diffraction force - beta =   0.000 deg",I=    64,F=POINT
  0.5000000E-01  0.3040796E+03 -0.1570796E+01  0.8213411E+02 -0.3104757E+01  0.3754713E+01 -0.1570796E+01
  0.8095238E-01  0.4964116E+03 -0.1570795E+01  0.2138400E+03 -0.3103563E+01  0.6127672E+01 -0.1570795E+01
  0.1119048E+00  0.6916566E+03 -0.1570793E+01  0.4072616E+03 -0.3101992E+01  0.8598312E+01 -0.1570793E+01
  0.1428571E+00  0.8974660E+03 -0.1570791E+01  0.6625933E+03 -0.3099928E+01  0.1121739E+02 -0.1570790E+01
  0.1738095E+00  0.1108682E+04 -0.1570788E+01  0.9811461E+03 -0.3097291E+01  0.1378020E+02 -0.1570787E+01
  0.2047619E+00  0.1336403E+04 -0.1570783E+01  0.1364285E+04 -0.3093961E+01  0.1677264E+02 -0.1570780E+01
  0.2357143E+00  0.1571750E+04 -0.1570776E+01  0.1813154E+04 -0.3089715E+01  0.1977672E+02 -0.1570771E+01
  0.2666667E+00  0.1831077E+04 -0.1570765E+01  0.2330596E+04 -0.3084527E+01  0.2303453E+02 -0.1570758E+01
  0.2976190E+00  0.2113261E+04 -0.1570749E+01  0.2916787E+04 -0.3077950E+01  0.2693567E+02 -0.1570738E+01
  0.3285715E+00  0.2416960E+04 -0.1570726E+01  0.3575778E+04 -0.3070033E+01  0.3100219E+02 -0.1570708E+01
  0.3595238E+00  0.2752094E+04 -0.1570690E+01  0.4305618E+04 -0.3060343E+01  0.3530692E+02 -0.1570663E+01
  0.3904762E+00  0.3130898E+04 -0.1570637E+01  0.5110394E+04 -0.3048789E+01  0.4057364E+02 -0.1570596E+01
  0.4214286E+00  0.3546445E+04 -0.1570559E+01  0.5978982E+04 -0.3035687E+01  0.4653624E+02 -0.1570499E+01
  0.4523810E+00  0.3996731E+04 -0.1570443E+01  0.6920670E+04 -0.3020506E+01  0.5296350E+02 -0.1570351E+01
  0.4833333E+00  0.4502274E+04 -0.1570282E+01  0.7918035E+04 -0.3004862E+01  0.6032050E+02 -0.1570150E+01
  0.5142857E+00  0.5059197E+04 -0.1570058E+01  0.8971646E+04 -0.2987797E+01  0.6977487E+02 -0.1569883E+01
  0.5452381E+00  0.5641682E+04 -0.1569755E+01  0.1007979E+05 -0.2970560E+01  0.7764315E+02 -0.1569497E+01
  0.5761905E+00  0.6247188E+04 -0.1569356E+01  0.1123449E+05 -0.2953343E+01  0.8631741E+02 -0.1568992E+01
  0.6071429E+00  0.6916754E+04 -0.1568841E+01  0.1243547E+05 -0.2935550E+01  0.9763966E+02 -0.1568371E+01
  0.6380953E+00  0.7626467E+04 -0.1568195E+01  0.1368287E+05 -0.2918452E+01  0.1092998E+03 -0.1567582E+01
  0.6690477E+00  0.8354645E+04 -0.1567382E+01  0.1496471E+05 -0.2901190E+01  0.1219896E+03 -0.1566605E+01
  0.7000000E+00  0.9092115E+04 -0.1566367E+01  0.1628439E+05 -0.2883735E+01  0.1331124E+03 -0.1565328E+01
  0.7309524E+00  0.9864932E+04 -0.1565131E+01  0.1764309E+05 -0.2866682E+01  0.1456080E+03 -0.1563791E+01
  0.7619048E+00  0.1068344E+05 -0.1563643E+01  0.1902609E+05 -0.2849575E+01  0.1608324E+03 -0.1562014E+01
  0.7928572E+00  0.1154515E+05 -0.1561867E+01  0.2043287E+05 -0.2832480E+01  0.1782155E+03 -0.1559947E+01
  0.8238096E+00  0.1243181E+05 -0.1559757E+01  0.2185940E+05 -0.2815470E+01  0.1955159E+03 -0.1557458E+01
  0.8547620E+00  0.1331971E+05 -0.1557256E+01  0.2330195E+05 -0.2798607E+01  0.2108912E+03 -0.1554380E+01
  0.8857143E+00  0.1420114E+05 -0.1554305E+01  0.2475650E+05 -0.2781904E+01  0.2269493E+03 -0.1550766E+01
  0.9166667E+00  0.1513058E+05 -0.1550905E+01  0.2622513E+05 -0.2765503E+01  0.2466479E+03 -0.1546777E+01
  0.9476191E+00  0.1610246E+05 -0.1547013E+01  0.2769238E+05 -0.2749207E+01  0.2670843E+03 -0.1542201E+01
  0.9785714E+00  0.1710700E+05 -0.1542578E+01  0.2915580E+05 -0.2733087E+01  0.2885159E+03 -0.1536977E+01
  0.1009524E+01  0.1812444E+05 -0.1537530E+01  0.3060759E+05 -0.2717075E+01  0.3124257E+03 -0.1531195E+01
  0.1040476E+01  0.1915821E+05 -0.1531826E+01  0.3205367E+05 -0.2701399E+01  0.3385332E+03 -0.1524794E+01
  0.1071429E+01  0.2018463E+05 -0.1525384E+01  0.3348870E+05 -0.2686056E+01  0.3619930E+03 -0.1517240E+01
  0.1102381E+01  0.2119326E+05 -0.1518133E+01  0.3490857E+05 -0.2671027E+01  0.3834499E+03 -0.1508464E+01
  0.1133333E+01  0.2220956E+05 -0.1510083E+01  0.3630901E+05 -0.2656297E+01  0.4069477E+03 -0.1498907E+01
  0.1164286E+01  0.2324283E+05 -0.1501236E+01  0.3768364E+05 -0.2641770E+01  0.4344607E+03 -0.1488843E+01
  0.1195238E+01  0.2429682E+05 -0.1491581E+01  0.3903325E+05 -0.2627579E+01  0.4649675E+03 -0.1478157E+01
  0.1226190E+01  0.2536012E+05 -0.1481075E+01  0.4035484E+05 -0.2613763E+01  0.4967750E+03 -0.1466549E+01
  0.1257143E+01  0.2638517E+05 -0.1469554E+01  0.4165189E+05 -0.2599851E+01  0.5268015E+03 -0.1453564E+01
  0.1288095E+01  0.2743273E+05 -0.1457235E+01  0.4288892E+05 -0.2586895E+01  0.5583838E+03 -0.1439751E+01
  0.1319048E+01  0.2841869E+05 -0.1443800E+01  0.4409835E+05 -0.2573893E+01  0.5892000E+03 -0.1424585E+01
  0.1350000E+01  0.2933652E+05 -0.1429228E+01  0.4526666E+05 -0.2561206E+01  0.6189949E+03 -0.1407988E+01
  0.1380952E+01  0.3020238E+05 -0.1413569E+01  0.4639998E+05 -0.2549091E+01  0.6483904E+03 -0.1390084E+01
  0.1411905E+01  0.3083428E+05 -0.1396955E+01  0.4746083E+05 -0.2537170E+01  0.6645732E+03 -0.1369312E+01
  0.1442857E+01  0.3159474E+05 -0.1379401E+01  0.4850804E+05 -0.2525726E+01  0.6929182E+03 -0.1349269E+01
  0.1473810E+01  0.3229081E+05 -0.1360938E+01  0.4950662E+05 -0.2514557E+01  0.7203629E+03 -0.1328326E+01
  0.1504762E+01  0.3291675E+05 -0.1341607E+01  0.5045481E+05 -0.2503675E+01  0.7474713E+03 -0.1306436E+01
  0.1535714E+01  0.3345112E+05 -0.1321355E+01  0.5134923E+05 -0.2492978E+01  0.7747179E+03 -0.1283682E+01
  0.1566667E+01  0.3388166E+05 -0.1300176E+01  0.5219240E+05 -0.2482634E+01  0.8012739E+03 -0.1260171E+01
  0.1597619E+01  0.3420748E+05 -0.1278149E+01  0.5298458E+05 -0.2472675E+01  0.8267874E+03 -0.1235965E+01
  0.1628572E+01  0.3441833E+05 -0.1255361E+01  0.5372429E+05 -0.2463119E+01  0.8505366E+03 -0.1211394E+01
  0.1659524E+01  0.3451383E+05 -0.1232022E+01  0.5440944E+05 -0.2453864E+01  0.8692160E+03 -0.1185371E+01
  0.1690476E+01  0.3447185E+05 -0.1208059E+01  0.5503750E+05 -0.2444875E+01  0.8832100E+03 -0.1158312E+01
  0.1721429E+01  0.3429598E+05 -0.1183599E+01  0.5560823E+05 -0.2436162E+01  0.8927433E+03 -0.1130234E+01
  0.1752381E+01  0.3398505E+05 -0.1158722E+01  0.5612114E+05 -0.2427742E+01  0.8999850E+03 -0.1101623E+01
  0.1783333E+01  0.3352177E+05 -0.1133311E+01  0.5657459E+05 -0.2419514E+01  0.9055273E+03 -0.1073056E+01
  0.1814286E+01  0.3291624E+05 -0.1107581E+01  0.5697243E+05 -0.2411672E+01  0.9075618E+03 -0.1044767E+01
  0.1845238E+01  0.3217188E+05 -0.1081754E+01  0.5731314E+05 -0.2404182E+01  0.9064600E+03 -0.1016936E+01
  0.1876190E+01  0.3128492E+05 -0.1055832E+01  0.5759503E+05 -0.2397032E+01  0.9002504E+03 -0.9888918E+00
  0.1907143E+01  0.3025901E+05 -0.1029856E+01  0.5781675E+05 -0.2390197E+01  0.8870809E+03 -0.9599838E+00
  0.1938095E+01  0.2909117E+05 -0.1003731E+01  0.5797850E+05 -0.2383633E+01  0.8685786E+03 -0.9303656E+00
  0.1969048E+01  0.2778510E+05 -0.9774295E+00  0.5808270E+05 -0.2377334E+01  0.8428749E+03 -0.8990065E+00
  0.2000000E+01  0.2635160E+05 -0.9510860E+00  0.5812788E+05 -0.2371327E+01  0.8132958E+03 -0.8683066E+00
