VARIABLES="w (rad/s)"
"abs(F   1   1)" "angle(F   1   1)"
"abs(F   1   2)" "angle(F   1   2)"
"abs(F   1   3)" "angle(F   1   3)"
Zone t="Diffraction force - beta =   0.000 deg",I=    64,F=POINT
  0.5000000E-01  0.1441086E+04 -0.1570795E+01  0.2000099E+03 -0.3079203E+01  0.1888322E+04  0.1570798E+01
  0.8095238E-01  0.2361254E+04 -0.1570792E+01  0.5169969E+03 -0.3076786E+01  0.3089489E+04  0.1570800E+01
  0.1119048E+00  0.3297740E+04 -0.1570787E+01  0.9802686E+03 -0.3073917E+01  0.4305467E+04  0.1570804E+01
  0.1428571E+00  0.4263193E+04 -0.1570780E+01  0.1591810E+04 -0.3070405E+01  0.5552664E+04  0.1570810E+01
  0.1738095E+00  0.5267710E+04 -0.1570769E+01  0.2355509E+04 -0.3066060E+01  0.6845709E+04  0.1570819E+01
  0.2047619E+00  0.6315776E+04 -0.1570754E+01  0.3275898E+04 -0.3060652E+01  0.8192466E+04  0.1570831E+01
  0.2357143E+00  0.7446821E+04 -0.1570732E+01  0.4356927E+04 -0.3053829E+01  0.9603962E+04  0.1570850E+01
  0.2666667E+00  0.8626612E+04 -0.1570699E+01  0.5608642E+04 -0.3045629E+01  0.1111962E+05  0.1570877E+01
  0.2976190E+00  0.9915941E+04 -0.1570651E+01  0.7033086E+04 -0.3035287E+01  0.1273192E+05  0.1570916E+01
  0.3285715E+00  0.1133710E+05 -0.1570580E+01  0.8638266E+04 -0.3022955E+01  0.1446569E+05  0.1570975E+01
  0.3595238E+00  0.1287683E+05 -0.1570473E+01  0.1042911E+05 -0.3008052E+01  0.1636608E+05  0.1571062E+01
  0.3904762E+00  0.1455401E+05 -0.1570314E+01  0.1241385E+05 -0.2990499E+01  0.1841579E+05  0.1571193E+01
  0.4214286E+00  0.1644968E+05 -0.1570082E+01  0.1454652E+05 -0.2970652E+01  0.2065273E+05  0.1571383E+01
  0.4523810E+00  0.1850287E+05 -0.1569742E+01  0.1685884E+05 -0.2947802E+01  0.2309500E+05  0.1571661E+01
  0.4833333E+00  0.2071010E+05 -0.1569271E+01  0.1931337E+05 -0.2924757E+01  0.2570902E+05  0.1572044E+01
  0.5142857E+00  0.2310056E+05 -0.1568619E+01  0.2188972E+05 -0.2899652E+01  0.2847577E+05  0.1572573E+01
  0.5452381E+00  0.2569151E+05 -0.1567756E+01  0.2457223E+05 -0.2874490E+01  0.3139822E+05  0.1573274E+01
  0.5761905E+00  0.2842465E+05 -0.1566638E+01  0.2735671E+05 -0.2849793E+01  0.3446270E+05  0.1574177E+01
  0.6071429E+00  0.3120967E+05 -0.1565192E+01  0.3023981E+05 -0.2824574E+01  0.3761244E+05  0.1575336E+01
  0.6380953E+00  0.3413753E+05 -0.1563399E+01  0.3322690E+05 -0.2800832E+01  0.4076904E+05  0.1576773E+01
  0.6690477E+00  0.3722723E+05 -0.1561195E+01  0.3626332E+05 -0.2777049E+01  0.4401196E+05  0.1578536E+01
  0.7000000E+00  0.4037527E+05 -0.1558493E+01  0.3933829E+05 -0.2752906E+01  0.4725882E+05  0.1580687E+01
  0.7309524E+00  0.4359342E+05 -0.1555249E+01  0.4250112E+05 -0.2729965E+01  0.5052115E+05  0.1583254E+01
  0.7619048E+00  0.4684684E+05 -0.1551378E+01  0.4572316E+05 -0.2707640E+01  0.5379805E+05  0.1586290E+01
  0.7928572E+00  0.5011931E+05 -0.1546804E+01  0.4896210E+05 -0.2685382E+01  0.5696582E+05  0.1589862E+01
  0.8238096E+00  0.5351106E+05 -0.1541493E+01  0.5221506E+05 -0.2663437E+01  0.6010950E+05  0.1594000E+01
  0.8547620E+00  0.5694576E+05 -0.1535364E+01  0.5547000E+05 -0.2641865E+01  0.6312800E+05  0.1598762E+01
  0.8857143E+00  0.6040745E+05 -0.1528347E+01  0.5871943E+05 -0.2620808E+01  0.6614496E+05  0.1604161E+01
  0.9166667E+00  0.6378283E+05 -0.1520329E+01  0.6196620E+05 -0.2600402E+01  0.6900291E+05  0.1610263E+01
  0.9476191E+00  0.6711880E+05 -0.1511276E+01  0.6520238E+05 -0.2580728E+01  0.7180863E+05  0.1617055E+01
  0.9785714E+00  0.7036642E+05 -0.1501138E+01  0.6841082E+05 -0.2561608E+01  0.7430948E+05  0.1624616E+01
  0.1009524E+01  0.7360199E+05 -0.1489955E+01  0.7156920E+05 -0.2542884E+01  0.7664898E+05  0.1632900E+01
  0.1040476E+01  0.7673113E+05 -0.1477644E+01  0.7466382E+05 -0.2524477E+01  0.7879212E+05  0.1641921E+01
  0.1071429E+01  0.7971983E+05 -0.1464181E+01  0.7768424E+05 -0.2506401E+01  0.8069321E+05  0.1651664E+01
  0.1102381E+01  0.8256704E+05 -0.1449592E+01  0.8063773E+05 -0.2488975E+01  0.8240235E+05  0.1662042E+01
  0.1133333E+01  0.8518710E+05 -0.1433843E+01  0.8352029E+05 -0.2472321E+01  0.8376877E+05  0.1673047E+01
  0.1164286E+01  0.8755138E+05 -0.1416959E+01  0.8633368E+05 -0.2456545E+01  0.8490691E+05  0.1684514E+01
  0.1195238E+01  0.8955782E+05 -0.1398873E+01  0.8906373E+05 -0.2441409E+01  0.8576709E+05  0.1696388E+01
  0.1226190E+01  0.9119327E+05 -0.1379730E+01  0.9170084E+05 -0.2426804E+01  0.8615210E+05  0.1708621E+01
  0.1257143E+01  0.9251031E+05 -0.1359600E+01  0.9427708E+05 -0.2412586E+01  0.8630373E+05  0.1721047E+01
  0.1288095E+01  0.9347508E+05 -0.1339042E+01  0.9667128E+05 -0.2399183E+01  0.8598267E+05  0.1733327E+01
  0.1319048E+01  0.9403590E+05 -0.1317708E+01  0.9898660E+05 -0.2386155E+01  0.8537020E+05  0.1745458E+01
  0.1350000E+01  0.9416184E+05 -0.1295860E+01  0.1011764E+06 -0.2373593E+01  0.8450828E+05  0.1757056E+01
  0.1380952E+01  0.9377851E+05 -0.1273504E+01  0.1032418E+06 -0.2361651E+01  0.8331872E+05  0.1768013E+01
  0.1411905E+01  0.9206509E+05 -0.1252585E+01  0.1045233E+06 -0.2348051E+01  0.8166007E+05  0.1775907E+01
  0.1442857E+01  0.9073119E+05 -0.1230115E+01  0.1063261E+06 -0.2337207E+01  0.7986427E+05  0.1784724E+01
  0.1473810E+01  0.8888941E+05 -0.1207838E+01  0.1079950E+06 -0.2326786E+01  0.7774138E+05  0.1792115E+01
  0.1504762E+01  0.8655550E+05 -0.1185969E+01  0.1095267E+06 -0.2316926E+01  0.7536642E+05  0.1797834E+01
  0.1535714E+01  0.8374564E+05 -0.1164796E+01  0.1109099E+06 -0.2307661E+01  0.7279041E+05  0.1801453E+01
  0.1566667E+01  0.8046944E+05 -0.1144413E+01  0.1121573E+06 -0.2298893E+01  0.7013617E+05  0.1802843E+01
  0.1597619E+01  0.7671405E+05 -0.1125004E+01  0.1132634E+06 -0.2290441E+01  0.6735095E+05  0.1801765E+01
  0.1628572E+01  0.7250489E+05 -0.1106897E+01  0.1142118E+06 -0.2282322E+01  0.6441600E+05  0.1797891E+01
  0.1659524E+01  0.6794362E+05 -0.1090650E+01  0.1150259E+06 -0.2274887E+01  0.6154998E+05  0.1791186E+01
  0.1690476E+01  0.6302299E+05 -0.1076658E+01  0.1156835E+06 -0.2267859E+01  0.5867627E+05  0.1781245E+01
  0.1721429E+01  0.5774961E+05 -0.1065353E+01  0.1161811E+06 -0.2261182E+01  0.5578596E+05  0.1768013E+01
  0.1752381E+01  0.5221342E+05 -0.1057843E+01  0.1165162E+06 -0.2255266E+01  0.5301043E+05  0.1751596E+01
  0.1783333E+01  0.4644097E+05 -0.1055404E+01  0.1166862E+06 -0.2249916E+01  0.5033934E+05  0.1731848E+01
  0.1814286E+01  0.4046846E+05 -0.1059544E+01  0.1167106E+06 -0.2244931E+01  0.4784088E+05  0.1709454E+01
  0.1845238E+01  0.3433431E+05 -0.1073795E+01  0.1165677E+06 -0.2240449E+01  0.4548036E+05  0.1684324E+01
  0.1876190E+01  0.2808876E+05 -0.1104287E+01  0.1162579E+06 -0.2236221E+01  0.4325807E+05  0.1656744E+01
  0.1907143E+01  0.2185553E+05 -0.1164727E+01  0.1158039E+06 -0.2232665E+01  0.4125872E+05  0.1628008E+01
  0.1938095E+01  0.1578738E+05 -0.1288689E+01  0.1151950E+06 -0.2229651E+01  0.3943185E+05  0.1598144E+01
  0.1969048E+01  0.1033375E+05 -0.1575572E+01  0.1144184E+06 -0.2226861E+01  0.3776182E+05  0.1568028E+01
  0.2000000E+01  0.7305366E+04 -0.2262324E+01  0.1134820E+06 -0.2224609E+01  0.3626949E+05  0.1538848E+01
