VARIABLES="w (rad/s)"
"abs(F   1   1)" "angle(F   1   1)"
"abs(F   1   2)" "angle(F   1   2)"
"abs(F   1   3)" "angle(F   1   3)"
Zone t="Diffraction force - beta =   0.000 deg",I=    64,F=POINT
  0.5000000E-01  0.1759425E+04 -0.1570793E+01  0.1902679E+06 -0.1443270E-04  0.2400768E+04  0.1570802E+01
  0.8095238E-01  0.2875189E+04 -0.1570794E+01  0.1899505E+06 -0.3883679E-04  0.3922065E+04  0.1570796E+01
  0.1119048E+00  0.4012026E+04 -0.1570795E+01  0.1894839E+06 -0.7714092E-04  0.5467624E+04  0.1570793E+01
  0.1428571E+00  0.5185514E+04 -0.1570799E+01  0.1888676E+06 -0.1323422E-03  0.7057784E+04  0.1570796E+01
  0.1738095E+00  0.6407191E+04 -0.1570790E+01  0.1881018E+06 -0.2089179E-03  0.8703078E+04  0.1570807E+01
  0.2047619E+00  0.7692019E+04 -0.1570789E+01  0.1871850E+06 -0.3133734E-03  0.1042668E+05  0.1570805E+01
  0.2357143E+00  0.9051245E+04 -0.1570783E+01  0.1861167E+06 -0.4553703E-03  0.1224500E+05  0.1570817E+01
  0.2666667E+00  0.1051408E+05 -0.1570772E+01  0.1848972E+06 -0.6466365E-03  0.1417915E+05  0.1570822E+01
  0.2976190E+00  0.1209162E+05 -0.1570759E+01  0.1835245E+06 -0.9071997E-03  0.1626189E+05  0.1570833E+01
  0.3285715E+00  0.1380697E+05 -0.1570742E+01  0.1819980E+06 -0.1257480E-02  0.1851225E+05  0.1570847E+01
  0.3595238E+00  0.1569784E+05 -0.1570717E+01  0.1803239E+06 -0.1730157E-02  0.2096109E+05  0.1570882E+01
  0.3904762E+00  0.1777657E+05 -0.1570676E+01  0.1784997E+06 -0.2361561E-02  0.2364005E+05  0.1570916E+01
  0.4214286E+00  0.2005728E+05 -0.1570616E+01  0.1765336E+06 -0.3176992E-02  0.2657420E+05  0.1570976E+01
  0.4523810E+00  0.2256719E+05 -0.1570533E+01  0.1744296E+06 -0.4240272E-02  0.2975073E+05  0.1571057E+01
  0.4833333E+00  0.2531094E+05 -0.1570414E+01  0.1722045E+06 -0.5526832E-02  0.3318070E+05  0.1571181E+01
  0.5142857E+00  0.2826133E+05 -0.1570250E+01  0.1698582E+06 -0.7112310E-02  0.3685181E+05  0.1571344E+01
  0.5452381E+00  0.3139440E+05 -0.1570030E+01  0.1673929E+06 -0.8977747E-02  0.4072588E+05  0.1571561E+01
  0.5761905E+00  0.3470953E+05 -0.1569747E+01  0.1648283E+06 -0.1113387E-01  0.4475779E+05  0.1571847E+01
  0.6071429E+00  0.3820534E+05 -0.1569380E+01  0.1621713E+06 -0.1364596E-01  0.4892396E+05  0.1572212E+01
  0.6380953E+00  0.4183976E+05 -0.1568922E+01  0.1594102E+06 -0.1646297E-01  0.5320586E+05  0.1572668E+01
  0.6690477E+00  0.4556663E+05 -0.1568356E+01  0.1565606E+06 -0.1964868E-01  0.5757475E+05  0.1573237E+01
  0.7000000E+00  0.4940258E+05 -0.1567659E+01  0.1536327E+06 -0.2324882E-01  0.6198512E+05  0.1573933E+01
  0.7309524E+00  0.5336595E+05 -0.1566821E+01  0.1506305E+06 -0.2724644E-01  0.6641522E+05  0.1574771E+01
  0.7619048E+00  0.5742362E+05 -0.1565816E+01  0.1475695E+06 -0.3168397E-01  0.7086375E+05  0.1575775E+01
  0.7928572E+00  0.6156580E+05 -0.1564625E+01  0.1444482E+06 -0.3658773E-01  0.7531973E+05  0.1576963E+01
  0.8238096E+00  0.6575423E+05 -0.1563226E+01  0.1412693E+06 -0.4197571E-01  0.7975297E+05  0.1578360E+01
  0.8547620E+00  0.6998661E+05 -0.1561600E+01  0.1380378E+06 -0.4786602E-01  0.8415423E+05  0.1579985E+01
  0.8857143E+00  0.7424966E+05 -0.1559725E+01  0.1347742E+06 -0.5429162E-01  0.8845455E+05  0.1581856E+01
  0.9166667E+00  0.7858134E+05 -0.1557583E+01  0.1314847E+06 -0.6126839E-01  0.9267066E+05  0.1583995E+01
  0.9476191E+00  0.8294647E+05 -0.1555153E+01  0.1281793E+06 -0.6881326E-01  0.9677869E+05  0.1586420E+01
  0.9785714E+00  0.8732522E+05 -0.1552416E+01  0.1248548E+06 -0.7694128E-01  0.1007711E+06  0.1589152E+01
  0.1009524E+01  0.9166974E+05 -0.1549353E+01  0.1215179E+06 -0.8567172E-01  0.1046260E+06  0.1592205E+01
  0.1040476E+01  0.9598357E+05 -0.1545954E+01  0.1181658E+06 -0.9501879E-01  0.1083419E+06  0.1595593E+01
  0.1071429E+01  0.1002290E+06 -0.1542208E+01  0.1148098E+06 -0.1050128E+00  0.1118563E+06  0.1599322E+01
  0.1102381E+01  0.1044276E+06 -0.1538116E+01  0.1114541E+06 -0.1156925E+00  0.1151513E+06  0.1603394E+01
  0.1133333E+01  0.1085668E+06 -0.1533682E+01  0.1081165E+06 -0.1270743E+00  0.1182107E+06  0.1607805E+01
  0.1164286E+01  0.1126031E+06 -0.1528908E+01  0.1048033E+06 -0.1391797E+00  0.1210025E+06  0.1612555E+01
  0.1195238E+01  0.1165477E+06 -0.1523805E+01  0.1015102E+06 -0.1520162E+00  0.1235588E+06  0.1617630E+01
  0.1226190E+01  0.1203457E+06 -0.1518389E+01  0.9823436E+05 -0.1656113E+00  0.1258211E+06  0.1623010E+01
  0.1257143E+01  0.1239481E+06 -0.1512670E+01  0.9498349E+05 -0.1800746E+00  0.1277786E+06  0.1628682E+01
  0.1288095E+01  0.1274186E+06 -0.1506726E+01  0.9173464E+05 -0.1951713E+00  0.1294438E+06  0.1634562E+01
  0.1319048E+01  0.1306429E+06 -0.1500548E+01  0.8851730E+05 -0.2112103E+00  0.1308136E+06  0.1640658E+01
  0.1350000E+01  0.1335895E+06 -0.1494216E+01  0.8533479E+05 -0.2281705E+00  0.1317708E+06  0.1646882E+01
  0.1380952E+01  0.1363230E+06 -0.1487803E+01  0.8217262E+05 -0.2461284E+00  0.1324101E+06  0.1653172E+01
  0.1411905E+01  0.1385865E+06 -0.1481740E+01  0.7905970E+05 -0.2652232E+00  0.1326237E+06  0.1659103E+01
  0.1442857E+01  0.1407742E+06 -0.1475418E+01  0.7598455E+05 -0.2853307E+00  0.1325024E+06  0.1665270E+01
  0.1473810E+01  0.1426692E+06 -0.1469249E+01  0.7294625E+05 -0.3066099E+00  0.1320173E+06  0.1671265E+01
  0.1504762E+01  0.1442588E+06 -0.1463318E+01  0.6995071E+05 -0.3291253E+00  0.1311900E+06  0.1676991E+01
  0.1535714E+01  0.1455215E+06 -0.1457713E+01  0.6699314E+05 -0.3530188E+00  0.1300296E+06  0.1682371E+01
  0.1566667E+01  0.1464425E+06 -0.1452544E+01  0.6407698E+05 -0.3784217E+00  0.1285180E+06  0.1687282E+01
  0.1597619E+01  0.1470515E+06 -0.1447932E+01  0.6119316E+05 -0.4054998E+00  0.1267050E+06  0.1691608E+01
  0.1628572E+01  0.1473235E+06 -0.1443982E+01  0.5835061E+05 -0.4344819E+00  0.1245825E+06  0.1695254E+01
  0.1659524E+01  0.1472653E+06 -0.1440805E+01  0.5556057E+05 -0.4654999E+00  0.1221670E+06  0.1698096E+01
  0.1690476E+01  0.1468981E+06 -0.1438504E+01  0.5281249E+05 -0.4989340E+00  0.1195097E+06  0.1700048E+01
  0.1721429E+01  0.1462218E+06 -0.1437201E+01  0.5011697E+05 -0.5352260E+00  0.1166000E+06  0.1700945E+01
  0.1752381E+01  0.1452659E+06 -0.1436933E+01  0.4748668E+05 -0.5747320E+00  0.1135453E+06  0.1700851E+01
  0.1783333E+01  0.1440045E+06 -0.1437868E+01  0.4493603E+05 -0.6177166E+00  0.1102647E+06  0.1699485E+01
  0.1814286E+01  0.1425033E+06 -0.1440034E+01  0.4245646E+05 -0.6650392E+00  0.1068829E+06  0.1696953E+01
  0.1845238E+01  0.1407725E+06 -0.1443558E+01  0.4005828E+05 -0.7172087E+00  0.1033827E+06  0.1693028E+01
  0.1876190E+01  0.1388244E+06 -0.1448491E+01  0.3776318E+05 -0.7750849E+00  0.9980861E+05  0.1687766E+01
  0.1907143E+01  0.1366747E+06 -0.1454916E+01  0.3559764E+05 -0.8391590E+00  0.9616620E+05  0.1681023E+01
  0.1938095E+01  0.1343671E+06 -0.1462875E+01  0.3356929E+05 -0.9107911E+00  0.9251557E+05  0.1672861E+01
  0.1969048E+01  0.1319088E+06 -0.1472452E+01  0.3172372E+05 -0.9907824E+00  0.8885202E+05  0.1663175E+01
  0.2000000E+01  0.1293282E+06 -0.1483674E+01  0.3010502E+05 -0.1079302E+01  0.8520512E+05  0.1651935E+01
