VARIABLES="w (rad/s)"
"abs(F   1   1)" "angle(F   1   1)"
"abs(F   1   2)" "angle(F   1   2)"
"abs(F   1   3)" "angle(F   1   3)"
Zone t="Diffraction force - beta =   0.000 deg",I=    64,F=POINT
  0.5000000E-01  0.9329390E+03 -0.1570803E+01  0.2192590E+06 -0.1500658E-04  0.1510298E+02 -0.1570622E+01
  0.8095238E-01  0.1521017E+04 -0.1570786E+01  0.2189626E+06 -0.4038707E-04  0.2468382E+02 -0.1570737E+01
  0.1119048E+00  0.2121839E+04 -0.1570794E+01  0.2185269E+06 -0.8024876E-04  0.3448010E+02 -0.1570749E+01
  0.1428571E+00  0.2746809E+04 -0.1570792E+01  0.2179515E+06 -0.1377063E-03  0.4478167E+02 -0.1570755E+01
  0.1738095E+00  0.3396775E+04 -0.1570783E+01  0.2172353E+06 -0.2174933E-03  0.5537734E+02 -0.1570764E+01
  0.2047619E+00  0.4086267E+04 -0.1570798E+01  0.2163769E+06 -0.3263824E-03  0.6693730E+02 -0.1570766E+01
  0.2357143E+00  0.4813818E+04 -0.1570791E+01  0.2153757E+06 -0.4745019E-03  0.7912086E+02 -0.1570769E+01
  0.2666667E+00  0.5604194E+04 -0.1570781E+01  0.2142284E+06 -0.6742864E-03  0.9235924E+02 -0.1570764E+01
  0.2976190E+00  0.6461400E+04 -0.1570781E+01  0.2129358E+06 -0.9464907E-03  0.1072544E+03 -0.1570767E+01
  0.3285715E+00  0.7394540E+04 -0.1570769E+01  0.2114942E+06 -0.1312949E-02  0.1232741E+03 -0.1570753E+01
  0.3595238E+00  0.8426150E+04 -0.1570755E+01  0.2099070E+06 -0.1807538E-02  0.1411978E+03 -0.1570744E+01
  0.3904762E+00  0.9574668E+04 -0.1570738E+01  0.2081717E+06 -0.2469206E-02  0.1615575E+03 -0.1570728E+01
  0.4214286E+00  0.1083934E+05 -0.1570708E+01  0.2063015E+06 -0.3323867E-02  0.1843929E+03 -0.1570699E+01
  0.4523810E+00  0.1222929E+05 -0.1570663E+01  0.2042897E+06 -0.4437861E-02  0.2095328E+03 -0.1570657E+01
  0.4833333E+00  0.1376536E+05 -0.1570604E+01  0.2021575E+06 -0.5787386E-02  0.2379966E+03 -0.1570598E+01
  0.5142857E+00  0.1543892E+05 -0.1570523E+01  0.1999061E+06 -0.7449321E-02  0.2703760E+03 -0.1570514E+01
  0.5452381E+00  0.1721377E+05 -0.1570410E+01  0.1975406E+06 -0.9405498E-02  0.3026224E+03 -0.1570403E+01
  0.5761905E+00  0.1909750E+05 -0.1570263E+01  0.1950712E+06 -0.1166636E-01  0.3389518E+03 -0.1570259E+01
  0.6071429E+00  0.2111638E+05 -0.1570072E+01  0.1925035E+06 -0.1429837E-01  0.3791790E+03 -0.1570068E+01
  0.6380953E+00  0.2323626E+05 -0.1569830E+01  0.1898371E+06 -0.1724709E-01  0.4219172E+03 -0.1569825E+01
  0.6690477E+00  0.2543309E+05 -0.1569530E+01  0.1870859E+06 -0.2058136E-01  0.4670704E+03 -0.1569525E+01
  0.7000000E+00  0.2769624E+05 -0.1569153E+01  0.1842544E+06 -0.2434229E-01  0.5126872E+03 -0.1569149E+01
  0.7309524E+00  0.3005874E+05 -0.1568698E+01  0.1813413E+06 -0.2850961E-01  0.5618358E+03 -0.1568694E+01
  0.7619048E+00  0.3251858E+05 -0.1568143E+01  0.1783662E+06 -0.3312910E-01  0.6162154E+03 -0.1568140E+01
  0.7928572E+00  0.3506952E+05 -0.1567479E+01  0.1753326E+06 -0.3822400E-01  0.6743335E+03 -0.1567477E+01
  0.8238096E+00  0.3768614E+05 -0.1566689E+01  0.1722491E+06 -0.4381011E-01  0.7338292E+03 -0.1566687E+01
  0.8547620E+00  0.4034006E+05 -0.1565758E+01  0.1691219E+06 -0.4990147E-01  0.7933116E+03 -0.1565754E+01
  0.8857143E+00  0.4304382E+05 -0.1564668E+01  0.1659544E+06 -0.5651497E-01  0.8567711E+03 -0.1564664E+01
  0.9166667E+00  0.4584125E+05 -0.1563405E+01  0.1627513E+06 -0.6366501E-01  0.9252558E+03 -0.1563403E+01
  0.9476191E+00  0.4871638E+05 -0.1561951E+01  0.1595332E+06 -0.7136715E-01  0.9969506E+03 -0.1561953E+01
  0.9785714E+00  0.5165336E+05 -0.1560287E+01  0.1563049E+06 -0.7963085E-01  0.1071832E+04 -0.1560290E+01
  0.1009524E+01  0.5463245E+05 -0.1558395E+01  0.1530716E+06 -0.8846569E-01  0.1151835E+04 -0.1558399E+01
  0.1040476E+01  0.5765316E+05 -0.1556257E+01  0.1498311E+06 -0.9787562E-01  0.1235290E+04 -0.1556260E+01
  0.1071429E+01  0.6068300E+05 -0.1553854E+01  0.1465922E+06 -0.1078682E+00  0.1316746E+04 -0.1553849E+01
  0.1102381E+01  0.6371616E+05 -0.1551169E+01  0.1433595E+06 -0.1184535E+00  0.1399437E+04 -0.1551161E+01
  0.1133333E+01  0.6678889E+05 -0.1548200E+01  0.1401425E+06 -0.1296436E+00  0.1487715E+04 -0.1548196E+01
  0.1164286E+01  0.6989204E+05 -0.1544936E+01  0.1369446E+06 -0.1414442E+00  0.1582431E+04 -0.1544954E+01
  0.1195238E+01  0.7302906E+05 -0.1541369E+01  0.1337685E+06 -0.1538514E+00  0.1682265E+04 -0.1541398E+01
  0.1226190E+01  0.7616818E+05 -0.1537489E+01  0.1306182E+06 -0.1668643E+00  0.1782787E+04 -0.1537519E+01
  0.1257143E+01  0.7926225E+05 -0.1533277E+01  0.1275036E+06 -0.1806390E+00  0.1884530E+04 -0.1533314E+01
  0.1288095E+01  0.8237732E+05 -0.1528768E+01  0.1244241E+06 -0.1947245E+00  0.1990497E+04 -0.1528805E+01
  0.1319048E+01  0.8540022E+05 -0.1523924E+01  0.1213870E+06 -0.2095815E+00  0.2096334E+04 -0.1523941E+01
  0.1350000E+01  0.8834652E+05 -0.1518768E+01  0.1183841E+06 -0.2250420E+00  0.2202539E+04 -0.1518745E+01
  0.1380952E+01  0.9121941E+05 -0.1513319E+01  0.1154093E+06 -0.2410908E+00  0.2311268E+04 -0.1513253E+01
  0.1411905E+01  0.9383128E+05 -0.1507901E+01  0.1125047E+06 -0.2576020E+00  0.2405126E+04 -0.1507836E+01
  0.1442857E+01  0.9654486E+05 -0.1502046E+01  0.1096199E+06 -0.2749051E+00  0.2515335E+04 -0.1502010E+01
  0.1473810E+01  0.9915103E+05 -0.1496028E+01  0.1067854E+06 -0.2928341E+00  0.2624457E+04 -0.1496060E+01
  0.1504762E+01  0.1016420E+06 -0.1489888E+01  0.1040021E+06 -0.3113819E+00  0.2735175E+04 -0.1489913E+01
  0.1535714E+01  0.1039788E+06 -0.1483665E+01  0.1012748E+06 -0.3305548E+00  0.2846595E+04 -0.1483643E+01
  0.1566667E+01  0.1061628E+06 -0.1477419E+01  0.9859321E+05 -0.3503389E+00  0.2957935E+04 -0.1477361E+01
  0.1597619E+01  0.1081801E+06 -0.1471217E+01  0.9595755E+05 -0.3707288E+00  0.3068900E+04 -0.1471135E+01
  0.1628572E+01  0.1100207E+06 -0.1465169E+01  0.9337079E+05 -0.3917351E+00  0.3175780E+04 -0.1465110E+01
  0.1659524E+01  0.1116723E+06 -0.1459362E+01  0.9083873E+05 -0.4133597E+00  0.3278368E+04 -0.1459314E+01
  0.1690476E+01  0.1131170E+06 -0.1453866E+01  0.8836120E+05 -0.4356076E+00  0.3374488E+04 -0.1453902E+01
  0.1721429E+01  0.1143617E+06 -0.1448771E+01  0.8593616E+05 -0.4584605E+00  0.3468528E+04 -0.1448806E+01
  0.1752381E+01  0.1153899E+06 -0.1444149E+01  0.8357259E+05 -0.4819357E+00  0.3560285E+04 -0.1444110E+01
  0.1783333E+01  0.1161998E+06 -0.1440083E+01  0.8125698E+05 -0.5060229E+00  0.3648781E+04 -0.1439973E+01
  0.1814286E+01  0.1168022E+06 -0.1436703E+01  0.7899033E+05 -0.5307359E+00  0.3734496E+04 -0.1436614E+01
  0.1845238E+01  0.1171967E+06 -0.1434095E+01  0.7677184E+05 -0.5560538E+00  0.3815490E+04 -0.1433975E+01
  0.1876190E+01  0.1173841E+06 -0.1432334E+01  0.7460276E+05 -0.5819728E+00  0.3889242E+04 -0.1432253E+01
  0.1907143E+01  0.1173710E+06 -0.1431490E+01  0.7248562E+05 -0.6084894E+00  0.3956591E+04 -0.1431453E+01
  0.1938095E+01  0.1171546E+06 -0.1431625E+01  0.7042162E+05 -0.6356419E+00  0.4015974E+04 -0.1431565E+01
  0.1969048E+01  0.1167530E+06 -0.1432820E+01  0.6840712E+05 -0.6634157E+00  0.4070531E+04 -0.1432787E+01
  0.2000000E+01  0.1161822E+06 -0.1435145E+01  0.6644232E+05 -0.6918020E+00  0.4120713E+04 -0.1435136E+01
