VARIABLES="w (rad/s)"
"abs(F   1   1)" "angle(F   1   1)"
"abs(F   1   2)" "angle(F   1   2)"
"abs(F   1   3)" "angle(F   1   3)"
Zone t="Diffraction force - beta =   0.000 deg",I=    64,F=POINT
  0.5000000E-01  0.6510965E+04 -0.1570801E+01  0.5155200E+06 -0.3456015E-04  0.1006776E+05  0.1570800E+01
  0.8095238E-01  0.1063016E+05 -0.1570788E+01  0.5139267E+06 -0.9285664E-04  0.1644021E+05  0.1570805E+01
  0.1119048E+00  0.1484340E+05 -0.1570791E+01  0.5115910E+06 -0.1840354E-03  0.2296868E+05  0.1570800E+01
  0.1428571E+00  0.1918624E+05 -0.1570783E+01  0.5085102E+06 -0.3148356E-03  0.2969388E+05  0.1570809E+01
  0.1738095E+00  0.2372266E+05 -0.1570776E+01  0.5046906E+06 -0.4950702E-03  0.3673941E+05  0.1570820E+01
  0.2047619E+00  0.2851251E+05 -0.1570763E+01  0.5001345E+06 -0.7394849E-03  0.4415384E+05  0.1570832E+01
  0.2357143E+00  0.3356195E+05 -0.1570743E+01  0.4948270E+06 -0.1069144E-02  0.5202883E+05  0.1570848E+01
  0.2666667E+00  0.3903945E+05 -0.1570717E+01  0.4888122E+06 -0.1508822E-02  0.6054945E+05  0.1570875E+01
  0.2976190E+00  0.4496977E+05 -0.1570678E+01  0.4820465E+06 -0.2103106E-02  0.6977850E+05  0.1570913E+01
  0.3285715E+00  0.5141117E+05 -0.1570618E+01  0.4746102E+06 -0.2892633E-02  0.7985480E+05  0.1570973E+01
  0.3595238E+00  0.5855695E+05 -0.1570531E+01  0.4664438E+06 -0.3947391E-02  0.9102417E+05  0.1571063E+01
  0.3904762E+00  0.6644134E+05 -0.1570398E+01  0.4577004E+06 -0.5339889E-02  0.1033527E+06  0.1571193E+01
  0.4214286E+00  0.7511075E+05 -0.1570205E+01  0.4483053E+06 -0.7110996E-02  0.1169952E+06  0.1571388E+01
  0.4523810E+00  0.8468494E+05 -0.1569921E+01  0.4384556E+06 -0.9403258E-02  0.1320719E+06  0.1571672E+01
  0.4833333E+00  0.9521992E+05 -0.1569527E+01  0.4281136E+06 -0.1211686E-01  0.1486377E+06  0.1572066E+01
  0.5142857E+00  0.1066142E+06 -0.1568977E+01  0.4173818E+06 -0.1542456E-01  0.1665190E+06  0.1572616E+01
  0.5452381E+00  0.1187126E+06 -0.1568244E+01  0.4063708E+06 -0.1925135E-01  0.1856398E+06  0.1573348E+01
  0.5761905E+00  0.1315656E+06 -0.1567288E+01  0.3949123E+06 -0.2358090E-01  0.2060599E+06  0.1574306E+01
  0.6071429E+00  0.1453735E+06 -0.1566050E+01  0.3834456E+06 -0.2858544E-01  0.2278556E+06  0.1575544E+01
  0.6380953E+00  0.1596609E+06 -0.1564501E+01  0.3716683E+06 -0.3405018E-01  0.2504547E+06  0.1577093E+01
  0.6690477E+00  0.1744678E+06 -0.1562572E+01  0.3595590E+06 -0.4012118E-01  0.2740027E+06  0.1579024E+01
  0.7000000E+00  0.1898380E+06 -0.1560194E+01  0.3476761E+06 -0.4690371E-01  0.2985105E+06  0.1581403E+01
  0.7309524E+00  0.2057069E+06 -0.1557322E+01  0.3355798E+06 -0.5426133E-01  0.3237551E+06  0.1584276E+01
  0.7619048E+00  0.2222472E+06 -0.1553869E+01  0.3232805E+06 -0.6229397E-01  0.3501227E+06  0.1587730E+01
  0.7928572E+00  0.2392538E+06 -0.1549759E+01  0.3111708E+06 -0.7101163E-01  0.3770532E+06  0.1591845E+01
  0.8238096E+00  0.2564645E+06 -0.1544913E+01  0.2991651E+06 -0.8046165E-01  0.4045649E+06  0.1596698E+01
  0.8547620E+00  0.2738500E+06 -0.1539262E+01  0.2871220E+06 -0.9062130E-01  0.4324404E+06  0.1602359E+01
  0.8857143E+00  0.2914653E+06 -0.1532740E+01  0.2750274E+06 -0.1014993E+00  0.4606487E+06  0.1608891E+01
  0.9166667E+00  0.3095114E+06 -0.1525293E+01  0.2633139E+06 -0.1130756E+00  0.4893726E+06  0.1616342E+01
  0.9476191E+00  0.3277524E+06 -0.1516856E+01  0.2518105E+06 -0.1254520E+00  0.5183891E+06  0.1624780E+01
  0.9785714E+00  0.3457972E+06 -0.1507341E+01  0.2404200E+06 -0.1386030E+00  0.5469985E+06  0.1634316E+01
  0.1009524E+01  0.3636806E+06 -0.1496714E+01  0.2290871E+06 -0.1525839E+00  0.5755712E+06  0.1644974E+01
  0.1040476E+01  0.3811198E+06 -0.1484964E+01  0.2179953E+06 -0.1672766E+00  0.6031144E+06  0.1656763E+01
  0.1071429E+01  0.3981400E+06 -0.1472120E+01  0.2074796E+06 -0.1826871E+00  0.6302172E+06  0.1669657E+01
  0.1102381E+01  0.4141575E+06 -0.1458246E+01  0.1971392E+06 -0.1989225E+00  0.6554861E+06  0.1683586E+01
  0.1133333E+01  0.4292602E+06 -0.1443423E+01  0.1869985E+06 -0.2160993E+00  0.6793768E+06  0.1698468E+01
  0.1164286E+01  0.4435341E+06 -0.1427836E+01  0.1769986E+06 -0.2342332E+00  0.7018436E+06  0.1714089E+01
  0.1195238E+01  0.4565374E+06 -0.1411573E+01  0.1672501E+06 -0.2532252E+00  0.7216833E+06  0.1730384E+01
  0.1226190E+01  0.4682101E+06 -0.1394763E+01  0.1582222E+06 -0.2725179E+00  0.7394668E+06  0.1747269E+01
  0.1257143E+01  0.4777763E+06 -0.1377637E+01  0.1494428E+06 -0.2929312E+00  0.7540211E+06  0.1764509E+01
  0.1288095E+01  0.4855778E+06 -0.1360649E+01  0.1409025E+06 -0.3140302E+00  0.7651367E+06  0.1781588E+01
  0.1319048E+01  0.4914284E+06 -0.1343886E+01  0.1326145E+06 -0.3365530E+00  0.7737298E+06  0.1798524E+01
  0.1350000E+01  0.4952919E+06 -0.1327937E+01  0.1245482E+06 -0.3601071E+00  0.7786221E+06  0.1814582E+01
  0.1380952E+01  0.4971009E+06 -0.1312943E+01  0.1167790E+06 -0.3845828E+00  0.7797635E+06  0.1829662E+01
  0.1411905E+01  0.4966738E+06 -0.1299038E+01  0.1097033E+06 -0.4085140E+00  0.7776281E+06  0.1843686E+01
  0.1442857E+01  0.4944088E+06 -0.1286775E+01  0.1028480E+06 -0.4337534E+00  0.7725763E+06  0.1856180E+01
  0.1473810E+01  0.4901070E+06 -0.1276497E+01  0.9625294E+05 -0.4599127E+00  0.7637749E+06  0.1866598E+01
  0.1504762E+01  0.4842444E+06 -0.1268365E+01  0.8994162E+05 -0.4872183E+00  0.7525939E+06  0.1874896E+01
  0.1535714E+01  0.4769413E+06 -0.1262422E+01  0.8388078E+05 -0.5161906E+00  0.7394387E+06  0.1881172E+01
  0.1566667E+01  0.4680077E+06 -0.1259154E+01  0.7805616E+05 -0.5468423E+00  0.7231718E+06  0.1884679E+01
  0.1597619E+01  0.4580022E+06 -0.1258548E+01  0.7254748E+05 -0.5777809E+00  0.7050631E+06  0.1885463E+01
  0.1628572E+01  0.4472401E+06 -0.1260683E+01  0.6748191E+05 -0.6069204E+00  0.6856694E+06  0.1883343E+01
  0.1659524E+01  0.4355668E+06 -0.1265642E+01  0.6263387E+05 -0.6379976E+00  0.6651642E+06  0.1878635E+01
  0.1690476E+01  0.4231432E+06 -0.1273638E+01  0.5803798E+05 -0.6706222E+00  0.6432554E+06  0.1870789E+01
  0.1721429E+01  0.4101372E+06 -0.1284786E+01  0.5368950E+05 -0.7047338E+00  0.6202819E+06  0.1859688E+01
  0.1752381E+01  0.3969298E+06 -0.1298813E+01  0.4958125E+05 -0.7403089E+00  0.5974474E+06  0.1846047E+01
  0.1783333E+01  0.3835789E+06 -0.1315945E+01  0.4566686E+05 -0.7778754E+00  0.5743983E+06  0.1829197E+01
  0.1814286E+01  0.3700404E+06 -0.1336349E+01  0.4199663E+05 -0.8179118E+00  0.5509456E+06  0.1808823E+01
  0.1845238E+01  0.3565542E+06 -0.1359848E+01  0.3857653E+05 -0.8582996E+00  0.5276199E+06  0.1785220E+01
  0.1876190E+01  0.3432748E+06 -0.1386566E+01  0.3541226E+05 -0.8972881E+00  0.5045994E+06  0.1758054E+01
  0.1907143E+01  0.3301684E+06 -0.1416575E+01  0.3244302E+05 -0.9393717E+00  0.4821042E+06  0.1727890E+01
  0.1938095E+01  0.3173012E+06 -0.1450154E+01  0.2967940E+05 -0.9832578E+00  0.4600228E+06  0.1693921E+01
  0.1969048E+01  0.3047310E+06 -0.1487514E+01  0.2711174E+05 -0.1029025E+01  0.4384169E+06  0.1655730E+01
  0.2000000E+01  0.2926763E+06 -0.1528301E+01  0.2474601E+05 -0.1076525E+01  0.4177952E+06  0.1614122E+01
