VARIABLES="w (rad/s)"
"A   1   1" "B   1   1"
"A   1   2" "B   1   2"
"A   1   3" "B   1   3"
Zone t="Motion of body    1 in DoF   1",I=    64,F=POINT
  0.5000000E-01  0.4431107E+05  0.1772601E-02 -0.1907349E-03  0.1046965E-05  0.1009302E+05  0.1003865E-02
  0.8095238E-01  0.4441675E+05  0.7688588E-02 -0.1460805E-02  0.5794322E-05  0.9952138E+04  0.4433660E-02
  0.1119048E+00  0.4448621E+05  0.2168032E-01 -0.9221016E-02 -0.3997415E-04  0.9871681E+04  0.1240375E-01
  0.1428571E+00  0.4454261E+05  0.4877022E-01 -0.3204346E-03  0.1547998E-04  0.9887083E+04  0.2803530E-01
  0.1738095E+00  0.4458940E+05  0.9714678E-01 -0.1865544E-02  0.2917659E-05  0.9941418E+04  0.5595921E-01
  0.2047619E+00  0.4463897E+05  0.1792864E+00 -0.4322140E-02 -0.5465618E-04  0.9983008E+04  0.1035297E+00
  0.2357143E+00  0.4467129E+05  0.3157800E+00  0.2735022E-02  0.1150051E-03  0.9981831E+04  0.1826363E+00
  0.2666667E+00  0.4474637E+05  0.5391048E+00  0.3533363E-02  0.1569744E-05  0.1008955E+05  0.3126803E+00
  0.2976190E+00  0.4482191E+05  0.9044823E+00  0.2589111E-02 -0.1167366E-04  0.1014883E+05  0.5262710E+00
  0.3285715E+00  0.4487273E+05  0.1497023E+01  0.5642434E-02  0.3628433E-05  0.1016417E+05  0.8733768E+00
  0.3595238E+00  0.4497501E+05  0.2460014E+01 -0.4668583E-02 -0.1407545E-03  0.1028782E+05  0.1441450E+01
  0.3904762E+00  0.4508032E+05  0.4013541E+01 -0.2813572E-02  0.2527833E-03  0.1040965E+05  0.2362670E+01
  0.4214286E+00  0.4517504E+05  0.6459821E+01 -0.1973297E-02 -0.2886690E-03  0.1044424E+05  0.3815367E+01
  0.4523810E+00  0.4528861E+05  0.1030708E+02 -0.1477372E-01 -0.1017414E-02  0.1052551E+05  0.6113538E+01
  0.4833333E+00  0.4544095E+05  0.1604499E+02 -0.3472690E-02 -0.2343953E-03  0.1070956E+05  0.9573904E+01
  0.5142857E+00  0.4559779E+05  0.2456462E+02  0.5963644E-02  0.1238286E-03  0.1085773E+05  0.1473695E+02
  0.5452381E+00  0.4573290E+05  0.3670801E+02 -0.2812548E-02 -0.5375743E-03  0.1093451E+05  0.2212460E+02
  0.5761905E+00  0.4590203E+05  0.5357795E+02 -0.1853753E-03 -0.1469553E-03  0.1108336E+05  0.3247954E+02
  0.6071429E+00  0.4611512E+05  0.7677728E+02  0.1759248E-03  0.1481175E-03  0.1130016E+05  0.4684674E+02
  0.6380953E+00  0.4631523E+05  0.1075734E+03  0.2032607E-02  0.8089542E-03  0.1145927E+05  0.6603365E+02
  0.6690477E+00  0.4652788E+05  0.1481433E+03 -0.8620944E-02 -0.1872301E-02  0.1161052E+05  0.9148167E+02
  0.7000000E+00  0.4675164E+05  0.2009359E+03  0.3662109E-02 -0.2149343E-03  0.1177833E+05  0.1248571E+03
  0.7309524E+00  0.4698869E+05  0.2682997E+03  0.5928561E-02  0.6570816E-03  0.1198481E+05  0.1678652E+03
  0.7619048E+00  0.4727748E+05  0.3536076E+03 -0.1165581E-01 -0.3384590E-02  0.1226418E+05  0.2229359E+03
  0.7928572E+00  0.4756844E+05  0.4603438E+03  0.8602657E-02  0.5266666E-03  0.1251244E+05  0.2923522E+03
  0.8238096E+00  0.4786785E+05  0.5924542E+03 -0.1109482E-01 -0.3107548E-02  0.1273479E+05  0.3788856E+03
  0.8547620E+00  0.4816898E+05  0.7541879E+03 -0.8390208E-03 -0.3747940E-03  0.1296687E+05  0.4858141E+03
  0.8857143E+00  0.4848364E+05  0.9504109E+03 -0.1240392E-01 -0.3567696E-02  0.1323432E+05  0.6169355E+03
  0.9166667E+00  0.4882267E+05  0.1186380E+04  0.3162731E-02 -0.2651215E-03  0.1354129E+05  0.7763746E+03
  0.9476191E+00  0.4918484E+05  0.1467750E+04  0.6360385E-02  0.2886772E-02  0.1387417E+05  0.9685601E+03
  0.9785714E+00  0.4953572E+05  0.1800278E+04 -0.1278620E-02 -0.3994942E-02  0.1420005E+05  0.1198052E+04
  0.1009524E+01  0.4990129E+05  0.2190279E+04  0.1511484E-03 -0.2573013E-02  0.1452639E+05  0.1469846E+04
  0.1040476E+01  0.5025929E+05  0.2643867E+04  0.1642502E-02  0.1602173E-02  0.1483892E+05  0.1789060E+04
  0.1071429E+01  0.5061226E+05  0.3166885E+04 -0.5269369E-02 -0.1659393E-03  0.1515832E+05  0.2161269E+04
  0.1102381E+01  0.5094676E+05  0.3765402E+04 -0.8166582E-02 -0.6412506E-02  0.1546620E+05  0.2591740E+04
  0.1133333E+01  0.5127102E+05  0.4444931E+04 -0.5116182E-02 -0.5619049E-02  0.1578217E+05  0.3086331E+04
  0.1164286E+01  0.5158279E+05  0.5210364E+04 -0.3617175E-02 -0.3013611E-03  0.1611820E+05  0.3650957E+04
  0.1195238E+01  0.5187846E+05  0.6066229E+04  0.5208658E-02  0.9193420E-03  0.1646143E+05  0.4290760E+04
  0.1226190E+01  0.5213361E+05  0.7015549E+04 -0.7964199E-03  0.3654480E-02  0.1676689E+05  0.5008888E+04
  0.1257143E+01  0.5234065E+05  0.8067050E+04  0.1990578E-02 -0.1853943E-02  0.1700229E+05  0.5811945E+04
  0.1288095E+01  0.5251704E+05  0.9202902E+04  0.1374137E-02 -0.5226135E-02  0.1726029E+05  0.6694524E+04
  0.1319048E+01  0.5263798E+05  0.1044036E+05 -0.2799464E-02 -0.5462646E-02  0.1743981E+05  0.7665602E+04
  0.1350000E+01  0.5269491E+05  0.1176766E+05 -0.6781684E-03 -0.3555298E-02  0.1759582E+05  0.8723364E+04
  0.1380952E+01  0.5269382E+05  0.1318188E+05  0.7447341E-02  0.2784729E-02  0.1770132E+05  0.9865023E+04
  0.1411905E+01  0.5238415E+05  0.1457048E+05  0.6549185E-02  0.6713867E-03  0.1748942E+05  0.1100464E+05
  0.1442857E+01  0.5225871E+05  0.1612615E+05  0.2474643E-02  0.1235962E-02  0.1750633E+05  0.1229739E+05
  0.1473810E+01  0.5205041E+05  0.1774050E+05  0.8075572E-02  0.8239746E-02  0.1747915E+05  0.1366269E+05
  0.1504762E+01  0.5178226E+05  0.1940114E+05  0.9734721E-03  0.6195068E-02  0.1740955E+05  0.1509115E+05
  0.1535714E+01  0.5145194E+05  0.2109606E+05  0.2563476E-02 -0.5340576E-02  0.1727298E+05  0.1657165E+05
  0.1566667E+01  0.5104430E+05  0.2281126E+05  0.1655741E-02  0.1678467E-02  0.1708517E+05  0.1809869E+05
  0.1597619E+01  0.5057911E+05  0.2453166E+05 -0.7736274E-02 -0.6103516E-02  0.1683835E+05  0.1965700E+05
  0.1628572E+01  0.5004888E+05  0.2623998E+05 -0.7120768E-03  0.8850098E-03  0.1654448E+05  0.2123920E+05
  0.1659524E+01  0.4946948E+05  0.2792845E+05  0.5332914E-03  0.1495361E-02  0.1618835E+05  0.2282961E+05
  0.1690476E+01  0.4883541E+05  0.2958056E+05 -0.3718846E-02 -0.3814697E-02  0.1578220E+05  0.2442047E+05
  0.1721429E+01  0.4814793E+05  0.3118338E+05  0.5974354E-02  0.3692627E-02  0.1533685E+05  0.2600507E+05
  0.1752381E+01  0.4743833E+05  0.3273021E+05  0.2525164E-02 -0.4394531E-02  0.1483558E+05  0.2756157E+05
  0.1783333E+01  0.4669221E+05  0.3420613E+05  0.2121970E-02  0.1770020E-02  0.1430341E+05  0.2908718E+05
  0.1814286E+01  0.4591608E+05  0.3560691E+05 -0.3801481E-02 -0.1055908E-01  0.1374230E+05  0.3057698E+05
  0.1845238E+01  0.4512825E+05  0.3692556E+05  0.4878875E-02 -0.6103516E-04  0.1314664E+05  0.3201470E+05
  0.1876190E+01  0.4432477E+05  0.3815121E+05 -0.2879031E-02 -0.2746582E-02  0.1253812E+05  0.3340272E+05
  0.1907143E+01  0.4352323E+05  0.3928754E+05  0.2080225E-03  0.6774902E-02  0.1190760E+05  0.3473073E+05
  0.1938095E+01  0.4272708E+05  0.4034266E+05 -0.7400700E-03  0.1159668E-01  0.1124825E+05  0.3599508E+05
  0.1969048E+01  0.4191707E+05  0.4129677E+05  0.3487196E-02  0.3784180E-02  0.1060278E+05  0.3720923E+05
  0.2000000E+01  0.4112566E+05  0.4216525E+05 -0.9002686E-03 -0.5523682E-02  0.9941149E+04  0.3835341E+05
Zone t="Motion of body    1 in DoF   2",I=    64,F=POINT
  0.5000000E-01  0.5340576E-03  0.8344650E-06  0.7837113E+05  0.1683026E+03 -0.1144409E-02  0.7629395E-05
  0.8095238E-01 -0.2921609E-02  0.7987022E-05  0.7769360E+05  0.2792968E+03  0.2261891E-02 -0.2002716E-04
  0.1119048E+00 -0.8692640E-02 -0.7629395E-05  0.7731844E+05  0.4004798E+03  0.2454392E-02 -0.1192093E-04
  0.1428571E+00 -0.2002716E-02 -0.4529953E-05  0.7715795E+05  0.5364975E+03  0.2349854E-02  0.8583069E-05
  0.1738095E+00 -0.1755806E-03  0.2193451E-04  0.7715964E+05  0.6935714E+03  0.1229064E-02 -0.1144409E-04
  0.2047619E+00 -0.1602173E-02 -0.4768372E-04  0.7729668E+05  0.8790510E+03 -0.5961573E-03 -0.1621246E-04
  0.2357143E+00  0.5793715E-02  0.3242493E-04  0.7753427E+05  0.1103626E+04 -0.1877293E-02  0.1907349E-04
  0.2666667E+00  0.2145767E-02 -0.2574921E-04  0.7785866E+05  0.1376859E+04  0.2288818E-03 -0.1144409E-04
  0.2976190E+00  0.9971924E-02 -0.1583099E-03  0.7825030E+05  0.1718235E+04 -0.3793945E-02 -0.7247925E-04
  0.3285715E+00 -0.3250785E-02 -0.2136230E-03  0.7870177E+05  0.2140099E+04  0.2507749E-02  0.2670288E-04
  0.3595238E+00 -0.1655225E-02  0.2307892E-03  0.7913091E+05  0.2666365E+04  0.1273250E-02  0.9155273E-04
  0.3904762E+00  0.8128095E-02 -0.3776550E-03  0.7957902E+05  0.3317834E+04 -0.2969881E-02 -0.7629395E-05
  0.4214286E+00 -0.1629328E-02 -0.3242493E-03  0.7986790E+05  0.4088969E+04  0.2100023E-02 -0.1869202E-03
  0.4523810E+00  0.6408691E-03 -0.1335144E-04  0.8009312E+05  0.5020814E+04 -0.1214278E-02 -0.2288818E-03
  0.4833333E+00 -0.5998283E-03  0.8544922E-03  0.8010666E+05  0.6044101E+04  0.2525593E-03  0.1373291E-03
  0.5142857E+00  0.8900961E-03  0.3051758E-04  0.7995733E+05  0.7204437E+04 -0.1305474E-02  0.3814697E-04
  0.5452381E+00 -0.2294815E-02 -0.3929138E-03  0.7968444E+05  0.8446271E+04  0.0000000E+00  0.6103516E-04
  0.5761905E+00 -0.6779442E-02 -0.2784729E-03  0.7925177E+05  0.9751166E+04 -0.2436362E-02 -0.5493164E-03
  0.6071429E+00 -0.7288315E-03  0.4119873E-03  0.7866773E+05  0.1114631E+05  0.5830652E-02 -0.3051758E-04
  0.6380953E+00 -0.2319564E-02 -0.4119873E-03  0.7801992E+05  0.1256144E+05 -0.1339130E-02  0.5035400E-03
  0.6690477E+00  0.2371900E-02  0.7476807E-03  0.7729092E+05  0.1402505E+05 -0.3375396E-02  0.1525879E-04
  0.7000000E+00  0.7411411E-03  0.4806519E-03  0.7645505E+05  0.1554236E+05 -0.2267020E-02 -0.3204346E-03
  0.7309524E+00 -0.2129272E-02  0.1464844E-02  0.7556746E+05  0.1707510E+05  0.5344055E-02  0.5493164E-03
  0.7619048E+00 -0.2243042E-02  0.1487732E-02  0.7461490E+05  0.1862975E+05  0.3044128E-02  0.3662109E-03
  0.7928572E+00  0.4003026E-02  0.1373291E-02  0.7358304E+05  0.2020239E+05 -0.8467940E-03 -0.4272461E-03
  0.8238096E+00  0.2593112E-03  0.7171631E-03  0.7250862E+05  0.2178002E+05 -0.2593112E-02 -0.6713867E-03
  0.8547620E+00  0.2642023E-02  0.3051758E-04  0.7140912E+05  0.2335154E+05 -0.1071090E-02  0.1831055E-03
  0.8857143E+00 -0.1171481E-02  0.1037598E-02  0.7027448E+05  0.2490990E+05  0.2411873E-02 -0.5187988E-03
  0.9166667E+00 -0.3295898E-02  0.3280640E-02  0.6910468E+05  0.2644827E+05  0.1531427E-02  0.4577637E-03
  0.9476191E+00 -0.1288179E-02  0.3662109E-03  0.6789887E+05  0.2795974E+05  0.1416997E-02 -0.7934570E-03
  0.9785714E+00 -0.1060319E-01  0.4577637E-03  0.6666847E+05  0.2943760E+05 -0.3679930E-02  0.1190186E-02
  0.1009524E+01  0.1088268E-02  0.3814697E-03  0.6542791E+05  0.3087281E+05 -0.5441342E-03 -0.1037598E-02
  0.1040476E+01  0.1877145E-02  0.4074097E-02  0.6419481E+05  0.3225832E+05  0.2053128E-02  0.2441406E-03
  0.1071429E+01  0.6237793E-02 -0.1068115E-03  0.6296295E+05  0.3359034E+05  0.2278646E-03 -0.4882812E-03
  0.1102381E+01 -0.7197666E-03  0.3479004E-02  0.6174114E+05  0.3486573E+05 -0.3377366E-02 -0.1098633E-02
  0.1133333E+01 -0.6677964E-02  0.2136230E-02  0.6052042E+05  0.3608364E+05 -0.4416073E-02  0.7934570E-03
  0.1164286E+01  0.7653733E-02  0.1190186E-02  0.5932011E+05  0.3723684E+05  0.7339196E-03 -0.6103516E-04
  0.1195238E+01  0.3319243E-02 -0.2593994E-02  0.5813774E+05  0.3832162E+05 -0.5106527E-04 -0.1831055E-03
  0.1226190E+01  0.2762582E-02  0.7629395E-03  0.5697635E+05  0.3933979E+05  0.2090602E-02 -0.6713867E-03
  0.1257143E+01  0.9467385E-03 -0.2319336E-02  0.5584455E+05  0.4032214E+05  0.5340576E-03  0.3051758E-03
  0.1288095E+01  0.1539981E-02 -0.7415771E-02  0.5472300E+05  0.4116704E+05 -0.6159925E-03 -0.9155273E-03
  0.1319048E+01  0.2267335E-02 -0.9460449E-03  0.5365442E+05  0.4196914E+05  0.5413840E-02  0.1403809E-02
  0.1350000E+01  0.1740632E-02  0.2136230E-03  0.5261761E+05  0.4269787E+05  0.3616898E-03  0.6103516E-04
  0.1380952E+01  0.1701618E-02 -0.2441406E-03  0.5162606E+05  0.4334422E+05 -0.1370134E-02 -0.0000000E+00
  0.1411905E+01 -0.1772387E-02 -0.2136230E-02  0.5059615E+05  0.4385082E+05  0.7781210E-03 -0.2380371E-02
  0.1442857E+01  0.2199683E-02  0.7324219E-03  0.4967581E+05  0.4437213E+05  0.1311349E-02  0.2258301E-02
  0.1473810E+01  0.5176649E-03  0.1617432E-02  0.4878931E+05  0.4482991E+05  0.2567618E-02 -0.4272461E-03
  0.1504762E+01  0.9836124E-02 -0.2929688E-02  0.4795096E+05  0.4521954E+05  0.2636487E-02  0.2929688E-02
  0.1535714E+01 -0.2185910E-02 -0.4211426E-02  0.4715695E+05  0.4554462E+05 -0.6359011E-03 -0.1220703E-03
  0.1566667E+01 -0.7791722E-02 -0.2746582E-03  0.4640090E+05  0.4581422E+05 -0.1558344E-03 -0.1647949E-02
  0.1597619E+01 -0.6838484E-02  0.5798340E-02  0.4568970E+05  0.4602209E+05 -0.1910191E-03 -0.9155273E-03
  0.1628572E+01  0.1574064E-02 -0.6713867E-03  0.4501800E+05  0.4617732E+05 -0.1349198E-02  0.9155273E-03
  0.1659524E+01 -0.1967661E-02  0.3662109E-02  0.4439139E+05  0.4627947E+05  0.2831961E-02  0.1708984E-02
  0.1690476E+01 -0.2274634E-02 -0.3601074E-02  0.4380653E+05  0.4634645E+05  0.6137901E-03  0.7324219E-03
  0.1721429E+01  0.4095180E-02  0.9460449E-03  0.4326078E+05  0.4637627E+05 -0.1701893E-02 -0.1647949E-02
  0.1752381E+01  0.5085158E-02 -0.1739502E-02  0.4276453E+05  0.4636544E+05  0.1219045E-02  0.1098633E-02
  0.1783333E+01  0.5219362E-02  0.8331299E-02  0.4230568E+05  0.4632818E+05 -0.2738026E-03 -0.6103516E-03
  0.1814286E+01 -0.7737528E-03 -0.2960205E-02  0.4188766E+05  0.4626432E+05 -0.6728285E-03 -0.3662109E-03
  0.1845238E+01 -0.4200794E-02  0.5493164E-03  0.4150988E+05  0.4618674E+05  0.1720010E-02 -0.9765625E-03
  0.1876190E+01 -0.4229086E-02 -0.3967285E-02  0.4117099E+05  0.4609929E+05  0.1041006E-02 -0.3540039E-02
  0.1907143E+01 -0.1072116E-02  0.6713867E-03  0.4087515E+05  0.4600323E+05  0.6784732E-02  0.1831055E-02
  0.1938095E+01  0.2724088E-02 -0.1647949E-02  0.4061657E+05  0.4592095E+05  0.5038775E-03  0.3295898E-02
  0.1969048E+01 -0.1270889E-02 -0.2563477E-02  0.4038148E+05  0.4586109E+05 -0.1611860E-02  0.1098633E-02
  0.2000000E+01 -0.1068115E-02 -0.2319336E-02  0.4017520E+05  0.4583348E+05 -0.6103516E-04  0.2075195E-02
Zone t="Motion of body    1 in DoF   3",I=    64,F=POINT
  0.5000000E-01  0.1022771E+05  0.1033720E-02 -0.2670288E-02 -0.7747701E-05  0.5947382E+05  0.5919419E-03
  0.8095238E-01  0.1010959E+05  0.4519377E-02  0.4570905E-02  0.1184074E-04  0.5955458E+05  0.2651565E-02
  0.1119048E+00  0.1002270E+05  0.1267690E-01  0.6272336E-02  0.2884014E-04  0.5941938E+05  0.7362977E-02
  0.1428571E+00  0.1002817E+05  0.2860629E-01 -0.2216339E-02 -0.7583076E-05  0.5936804E+05  0.1642044E-01
  0.1738095E+00  0.1009925E+05  0.5707956E-01 -0.1514383E-02 -0.2730227E-04  0.5951118E+05  0.3277095E-01
  0.2047619E+00  0.1013385E+05  0.1055636E+00  0.4471180E-03  0.3962149E-04  0.5951318E+05  0.6083615E-01
  0.2357143E+00  0.1013187E+05  0.1863460E+00 -0.2751206E-02 -0.5918893E-04  0.5946935E+05  0.1077932E+00
  0.2666667E+00  0.1025170E+05  0.3190204E+00  0.8440018E-02  0.1610601E-03  0.5967057E+05  0.1852544E+00
  0.2976190E+00  0.1029899E+05  0.5367979E+00  0.7998047E-02  0.2187751E-03  0.5965808E+05  0.3123901E+00
  0.3285715E+00  0.1031032E+05  0.8914418E+00  0.1021675E-01  0.2708593E-03  0.5959896E+05  0.5203951E+00
  0.3595238E+00  0.1044460E+05  0.1469619E+01  0.1443016E-02  0.1705186E-03  0.5980899E+05  0.8611699E+00
  0.3904762E+00  0.1056566E+05  0.2407223E+01  0.3321578E-03  0.4604086E-04  0.5994584E+05  0.1416721E+01
  0.4214286E+00  0.1058082E+05  0.3890077E+01  0.3331071E-02  0.1269951E-03  0.5980760E+05  0.2297232E+01
  0.4523810E+00  0.1066960E+05  0.6232512E+01  0.8634868E-02  0.5936399E-03  0.5990427E+05  0.3696665E+01
  0.4833333E+00  0.1086492E+05  0.9747524E+01  0.7734627E-02  0.6932989E-03  0.6018157E+05  0.5815466E+01
  0.5142857E+00  0.1100570E+05  0.1499507E+02  0.9286669E-02  0.6747320E-03  0.6028464E+05  0.8994176E+01
  0.5452381E+00  0.1107382E+05  0.2252374E+02  0.1609169E-01  0.1800656E-02  0.6024911E+05  0.1357468E+02
  0.5761905E+00  0.1123859E+05  0.3304865E+02  0.1244663E-02 -0.1565218E-03  0.6047702E+05  0.2003315E+02
  0.6071429E+00  0.1146774E+05  0.4761259E+02  0.2965590E-02  0.6647706E-03  0.6077587E+05  0.2905708E+02
  0.6380953E+00  0.1161626E+05  0.6711163E+02  0.2080433E-02 -0.2255440E-03  0.6084417E+05  0.4119662E+02
  0.6690477E+00  0.1175946E+05  0.9300388E+02  0.8826205E-02  0.2591372E-02  0.6089055E+05  0.5743202E+02
  0.7000000E+00  0.1193154E+05  0.1269405E+03 -0.4926409E-02 -0.1563907E-02  0.6101708E+05  0.7888257E+02
  0.7309524E+00  0.1215029E+05  0.1705714E+03 -0.5302304E-02 -0.1646757E-02  0.6126327E+05  0.1067169E+03
  0.7619048E+00  0.1243932E+05  0.2262793E+03  0.1830482E-01  0.5477667E-02  0.6160261E+05  0.1426537E+03
  0.7928572E+00  0.1268638E+05  0.2966490E+03  0.7216994E-02  0.1283646E-02  0.6180626E+05  0.1883915E+03
  0.8238096E+00  0.1289852E+05  0.3846392E+03 -0.6760614E-02 -0.2727509E-02  0.6189345E+05  0.2459940E+03
  0.8547620E+00  0.1312754E+05  0.4933131E+03 -0.3570301E-02 -0.1076698E-02  0.6203443E+05  0.3177724E+03
  0.8857143E+00  0.1340452E+05  0.6262328E+03  0.1333421E-01  0.5373478E-02  0.6229895E+05  0.4064806E+03
  0.9166667E+00  0.1372314E+05  0.7875037E+03 -0.1498136E-02  0.7009506E-04  0.6264225E+05  0.5152969E+03
  0.9476191E+00  0.1406495E+05  0.9816945E+03 -0.3864537E-02 -0.2107620E-02  0.6301266E+05  0.6477123E+03
  0.9785714E+00  0.1439075E+05  0.1213673E+04  0.7453417E-02  0.2438545E-02  0.6331254E+05  0.8075629E+03
  0.1009524E+01  0.1471359E+05  0.1488969E+04 -0.1783551E-02 -0.3415108E-02  0.6356489E+05  0.9991124E+03
  0.1040476E+01  0.1502339E+05  0.1812684E+04  0.3842282E-02  0.2376556E-02  0.6380570E+05  0.1226655E+04
  0.1071429E+01  0.1534419E+05  0.2190036E+04 -0.2278646E-02 -0.3599167E-02  0.6405723E+05  0.1494552E+04
  0.1102381E+01  0.1565646E+05  0.2625894E+04 -0.1107333E-03  0.5302429E-03  0.6434798E+05  0.1807193E+04
  0.1133333E+01  0.1597897E+05  0.3125760E+04 -0.9505328E-02 -0.9284973E-02  0.6468766E+05  0.2169834E+04
  0.1164286E+01  0.1632324E+05  0.3694831E+04  0.6631488E-02  0.3803253E-02  0.6508196E+05  0.2588412E+04
  0.1195238E+01  0.1667117E+05  0.4337898E+04  0.1447700E-01  0.1350784E-01  0.6551394E+05  0.3067401E+04
  0.1226190E+01  0.1697972E+05  0.5062009E+04 -0.1991050E-02  0.8926392E-03  0.6584391E+05  0.3613607E+04
  0.1257143E+01  0.1721807E+05  0.5877167E+04  0.7573908E-02  0.7614136E-02  0.6608334E+05  0.4234735E+04
  0.1288095E+01  0.1746714E+05  0.6767587E+04 -0.4667328E-02 -0.8838654E-02  0.6631801E+05  0.4924806E+04
  0.1319048E+01  0.1764876E+05  0.7753636E+04  0.2452423E-02 -0.2441406E-03  0.6650195E+05  0.5697628E+04
  0.1350000E+01  0.1780696E+05  0.8823510E+04 -0.9449147E-02 -0.1004028E-01  0.6670067E+05  0.6546376E+04
  0.1380952E+01  0.1791833E+05  0.9976268E+04  0.1591123E-02  0.1678467E-03  0.6690605E+05  0.7472683E+04
  0.1411905E+01  0.1700597E+05  0.1081068E+05  0.8948391E-02  0.1047516E-01  0.6595277E+05  0.8171114E+04
  0.1442857E+01  0.1703069E+05  0.1208123E+05  0.2707302E-02  0.2288818E-04  0.6609752E+05  0.9218704E+04
  0.1473810E+01  0.1700849E+05  0.1341747E+05 -0.1242396E-03 -0.1762390E-02  0.6622716E+05  0.1034040E+05
  0.1504762E+01  0.1694284E+05  0.1481498E+05  0.3163784E-02  0.8346558E-02  0.6632605E+05  0.1153030E+05
  0.1535714E+01  0.1681810E+05  0.1627127E+05  0.7153887E-03  0.4821777E-02  0.6635631E+05  0.1278891E+05
  0.1566667E+01  0.1663369E+05  0.1776678E+05  0.2843978E-02 -0.5798340E-03  0.6634547E+05  0.1410263E+05
  0.1597619E+01  0.1639382E+05  0.1929449E+05  0.1528153E-03  0.3646851E-02  0.6629460E+05  0.1546541E+05
  0.1628572E+01  0.1610630E+05  0.2084726E+05 -0.8807265E-02 -0.1966858E-01  0.6617221E+05  0.1687258E+05
  0.1659524E+01  0.1575987E+05  0.2241303E+05 -0.4376667E-02 -0.4730225E-03  0.6600169E+05  0.1831800E+05
  0.1690476E+01  0.1536151E+05  0.2397675E+05 -0.2455160E-02 -0.1348877E-01  0.6579200E+05  0.1978856E+05
  0.1721429E+01  0.1491842E+05  0.2552750E+05  0.4112909E-02  0.4730225E-02  0.6553057E+05  0.2127618E+05
  0.1752381E+01  0.1443182E+05  0.2706184E+05 -0.2612239E-02 -0.3051758E-02  0.6524048E+05  0.2277219E+05
  0.1783333E+01  0.1391861E+05  0.2856744E+05  0.1916618E-02 -0.1922607E-02  0.6491325E+05  0.2427379E+05
  0.1814286E+01  0.1336727E+05  0.3002321E+05 -0.3364143E-04 -0.1403809E-02  0.6456740E+05  0.2576107E+05
  0.1845238E+01  0.1279117E+05  0.3143112E+05  0.4101562E-02 -0.9460449E-03  0.6420752E+05  0.2723302E+05
  0.1876190E+01  0.1220298E+05  0.3279232E+05  0.3643520E-02  0.6530762E-02  0.6380712E+05  0.2868583E+05
  0.1907143E+01  0.1159755E+05  0.3410270E+05 -0.1024111E-02 -0.5432129E-02  0.6337407E+05  0.3011278E+05
  0.1938095E+01  0.1096136E+05  0.3535918E+05 -0.9762626E-03  0.2197266E-02  0.6291681E+05  0.3152035E+05
  0.1969048E+01  0.1032812E+05  0.3654695E+05 -0.3564690E-02  0.4486084E-02  0.6243477E+05  0.3289079E+05
  0.2000000E+01  0.9683514E+04  0.3767425E+05 -0.9460449E-03 -0.7232666E-02  0.6194139E+05  0.3423015E+05
