VARIABLES="w (rad/s)"
"A   1   1" "B   1   1"
"A   1   2" "B   1   2"
"A   1   3" "B   1   3"
Zone t="Motion of body    1 in DoF   1",I=    64,F=POINT
  0.5000000E-01  0.1820553E+05  0.4792176E-03 -0.3833771E-02 -0.4734679E-05  0.2212100E+03  0.7313348E-05
  0.8095238E-01  0.1824775E+05  0.2053856E-02 -0.3858173E-03 -0.4381186E-06  0.2210561E+03  0.3218868E-04
  0.1119048E+00  0.1823140E+05  0.5781239E-02 -0.1738528E-02 -0.8417454E-05  0.2218175E+03  0.9013916E-04
  0.1428571E+00  0.1831357E+05  0.1304095E-01  0.1862526E-02  0.7375391E-05  0.2234521E+03  0.2048985E-03
  0.1738095E+00  0.1829881E+05  0.2597351E-01  0.1596686E-02  0.8052106E-05  0.2218698E+03  0.4070291E-03
  0.2047619E+00  0.1837616E+05  0.4806386E-01  0.9175234E-03  0.3902096E-05  0.2243615E+03  0.7553353E-03
  0.2357143E+00  0.1835905E+05  0.8470597E-01 -0.1634540E-02 -0.1136733E-04  0.2247762E+03  0.1335179E-02
  0.2666667E+00  0.1839971E+05  0.1448775E+00  0.5364418E-04  0.6017712E-05  0.2243273E+03  0.2292362E-02
  0.2976190E+00  0.1846097E+05  0.2436673E+00  0.3492737E-03  0.2159935E-04  0.2269025E+03  0.3879609E-02
  0.3285715E+00  0.1848502E+05  0.4041203E+00 -0.8707460E-03 -0.8597097E-04  0.2288558E+03  0.6471219E-02
  0.3595238E+00  0.1849746E+05  0.6651266E+00  0.1904570E-02  0.7212756E-04  0.2275119E+03  0.1067835E-01
  0.3904762E+00  0.1857212E+05  0.1088394E+01  0.8450484E-03  0.7905043E-04  0.2298578E+03  0.1759139E-01
  0.4214286E+00  0.1863995E+05  0.1757607E+01 -0.1575017E-02 -0.2301717E-04  0.2328531E+03  0.2863519E-01
  0.4523810E+00  0.1865672E+05  0.2810753E+01 -0.7968701E-03 -0.1104223E-03  0.2340674E+03  0.4611198E-01
  0.4833333E+00  0.1873329E+05  0.4390382E+01  0.3559507E-02  0.1741685E-03  0.2365284E+03  0.7260114E-01
  0.5142857E+00  0.1884400E+05  0.6749586E+01  0.2670288E-02  0.2063513E-03  0.2438503E+03  0.1130835E+00
  0.5452381E+00  0.1891873E+05  0.1012604E+02  0.7940900E-03 -0.2352148E-04  0.2446713E+03  0.1707934E+00
  0.5761905E+00  0.1893360E+05  0.1482087E+02  0.1072529E-02  0.8545816E-05  0.2430954E+03  0.2513320E+00
  0.6071429E+00  0.1903594E+05  0.2132768E+02  0.2283881E-02  0.3027916E-03  0.2484852E+03  0.3659691E+00
  0.6380953E+00  0.1917054E+05  0.3003607E+02  0.1276358E-02 -0.6214529E-04  0.2530815E+03  0.5208495E+00
  0.6690477E+00  0.1928579E+05  0.4157197E+02  0.1710505E-03  0.3629178E-04  0.2583488E+03  0.7295396E+00
  0.7000000E+00  0.1936246E+05  0.5664550E+02  0.3869193E-03 -0.1029670E-04  0.2593118E+03  0.1002412E+01
  0.7309524E+00  0.1944219E+05  0.7599999E+02  0.7723829E-03  0.2748817E-03  0.2602624E+03  0.1356283E+01
  0.7619048E+00  0.1957011E+05  0.1007187E+03  0.1451969E-02 -0.2574921E-04  0.2651239E+03  0.1818784E+01
  0.7928572E+00  0.1973414E+05  0.1319606E+03  0.4200290E-02  0.8336008E-03  0.2728086E+03  0.2417785E+01
  0.8238096E+00  0.1990805E+05  0.1709993E+03  0.3334001E-02  0.5697906E-03  0.2796973E+03  0.3175427E+01
  0.8547620E+00  0.2005842E+05  0.2191969E+03  0.4239733E-03  0.1505017E-03  0.2834007E+03  0.4114593E+01
  0.8857143E+00  0.2017116E+05  0.2781083E+03 -0.7364827E-03  0.4641414E-03  0.2851560E+03  0.5273265E+01
  0.9166667E+00  0.2030913E+05  0.3497527E+03 -0.7906827E-04 -0.4277229E-03  0.2906225E+03  0.6720982E+01
  0.9476191E+00  0.2049029E+05  0.4363125E+03 -0.2568307E-02 -0.2990961E-03  0.2971380E+03  0.8495468E+01
  0.9785714E+00  0.2069445E+05  0.5400792E+03  0.2183009E-03 -0.5221367E-04  0.3038015E+03  0.1065392E+02
  0.1009524E+01  0.2090460E+05  0.6635221E+03 -0.8426523E-03  0.6020069E-04  0.3118700E+03  0.1327984E+02
  0.1040476E+01  0.2111751E+05  0.8093917E+03 -0.5939405E-03 -0.7176399E-03  0.3210525E+03  0.1645627E+02
  0.1071429E+01  0.2132664E+05  0.9805729E+03  0.3809611E-03 -0.8535385E-03  0.3293742E+03  0.2024171E+02
  0.1102381E+01  0.2151488E+05  0.1179881E+04 -0.7612916E-03  0.4959106E-04  0.3342595E+03  0.2466180E+02
  0.1133333E+01  0.2169332E+05  0.1410581E+04  0.4140068E-02  0.1740932E-02  0.3390023E+03  0.2984715E+02
  0.1164286E+01  0.2189064E+05  0.1676287E+04 -0.3309191E-03 -0.2291203E-03  0.3464534E+03  0.3597627E+02
  0.1195238E+01  0.2210537E+05  0.1980485E+04  0.3510737E-03  0.9198189E-03  0.3558490E+03  0.4315643E+02
  0.1226190E+01  0.2233968E+05  0.2327101E+04 -0.1281738E-02 -0.5102158E-03  0.3671372E+03  0.5157380E+02
  0.1257143E+01  0.2255128E+05  0.2719168E+04  0.1080253E-02  0.6036758E-03  0.3759252E+03  0.6118262E+02
  0.1288095E+01  0.2279639E+05  0.3160850E+04 -0.4264564E-03 -0.1176834E-02  0.3868610E+03  0.7226014E+02
  0.1319048E+01  0.2300707E+05  0.3655059E+04  0.4077732E-02  0.5290031E-02  0.3964669E+03  0.8487517E+02
  0.1350000E+01  0.2318523E+05  0.4204434E+04 -0.7911965E-03 -0.1065254E-02  0.4049834E+03  0.9919619E+02
  0.1380952E+01  0.2333934E+05  0.4811842E+04  0.2093874E-02 -0.6761551E-03  0.4125231E+03  0.1153510E+03
  0.1411905E+01  0.2336162E+05  0.5449792E+04 -0.5187474E-03  0.5321503E-03  0.4119234E+03  0.1322252E+03
  0.1442857E+01  0.2347696E+05  0.6173534E+04  0.1004663E-03 -0.1626968E-02  0.4190433E+03  0.1521513E+03
  0.1473810E+01  0.2357825E+05  0.6957670E+04 -0.9473267E-03 -0.4949570E-03  0.4267333E+03  0.1741720E+03
  0.1504762E+01  0.2365571E+05  0.7801826E+04  0.8112267E-03  0.4720688E-03  0.4332230E+03  0.1982099E+03
  0.1535714E+01  0.2370925E+05  0.8705583E+04  0.1455617E-02  0.6980896E-03  0.4399995E+03  0.2247914E+03
  0.1566667E+01  0.2372143E+05  0.9666164E+04 -0.4334145E-03 -0.1230240E-02  0.4463812E+03  0.2539326E+03
  0.1597619E+01  0.2370023E+05  0.1068139E+05  0.6685669E-04 -0.2502441E-02  0.4522322E+03  0.2855487E+03
  0.1628572E+01  0.2364154E+05  0.1174720E+05 -0.9369432E-05 -0.3438950E-02  0.4578896E+03  0.3197169E+03
  0.1659524E+01  0.2354445E+05  0.1285508E+05  0.9792333E-03  0.1148224E-02  0.4616879E+03  0.3558313E+03
  0.1690476E+01  0.2340804E+05  0.1399765E+05 -0.1940660E-03 -0.4632950E-02  0.4638598E+03  0.3939125E+03
  0.1721429E+01  0.2322491E+05  0.1516701E+05  0.1954518E-02 -0.4615784E-03  0.4636670E+03  0.4334257E+03
  0.1752381E+01  0.2300548E+05  0.1635655E+05 -0.3308835E-03 -0.1188278E-02  0.4628490E+03  0.4749752E+03
  0.1783333E+01  0.2274204E+05  0.1755835E+05  0.4748763E-03 -0.1644135E-02  0.4609626E+03  0.5186195E+03
  0.1814286E+01  0.2243600E+05  0.1876330E+05  0.6349819E-03  0.2195358E-02  0.4582480E+03  0.5640541E+03
  0.1845238E+01  0.2209614E+05  0.1996130E+05  0.1273469E-02  0.8773804E-03  0.4548269E+03  0.6106650E+03
  0.1876190E+01  0.2172422E+05  0.2114159E+05  0.6872264E-03 -0.1361847E-02  0.4505040E+03  0.6584722E+03
  0.1907143E+01  0.2132188E+05  0.2229522E+05  0.2480268E-03 -0.1346588E-02  0.4443888E+03  0.7064948E+03
  0.1938095E+01  0.2089262E+05  0.2341506E+05 -0.3149234E-04 -0.6683350E-02  0.4364779E+03  0.7543751E+03
  0.1969048E+01  0.2043472E+05  0.2449332E+05  0.2049696E-02 -0.3353119E-02  0.4271765E+03  0.8025128E+03
  0.2000000E+01  0.1995469E+05  0.2552467E+05  0.2628326E-02 -0.1266479E-02  0.4164514E+03  0.8502978E+03
Zone t="Motion of body    1 in DoF   2",I=    64,F=POINT
  0.5000000E-01 -0.7619858E-02  0.8560717E-05  0.3102557E+05  0.5585635E+02  0.1621246E-03  0.4693866E-06
  0.8095238E-01 -0.1151562E-02  0.6258488E-06  0.3081544E+05  0.9273354E+02 -0.1413682E-03  0.3129244E-06
  0.1119048E+00 -0.6604702E-03  0.6258488E-06  0.3071712E+05  0.1330481E+03 -0.3067990E-03  0.6407499E-06
  0.1428571E+00 -0.1141548E-02  0.1463294E-04  0.3066939E+05  0.1784093E+03  0.1134872E-03  0.1460314E-05
  0.1738095E+00 -0.2502023E-02  0.5722046E-05  0.3068239E+05  0.2308981E+03 -0.5486893E-05  0.2056360E-05
  0.2047619E+00 -0.1178342E-02 -0.5573034E-05  0.3074122E+05  0.2930464E+03  0.2328740E-04  0.3844500E-05
  0.2357143E+00  0.1869202E-02 -0.1636147E-04  0.3082884E+05  0.3685103E+03  0.8091782E-04  0.5960464E-07
  0.2666667E+00 -0.7152557E-05 -0.6860495E-04  0.3096171E+05  0.4606108E+03  0.1931190E-03  0.5960464E-05
  0.2976190E+00 -0.6184387E-03  0.5304813E-04  0.3110525E+05  0.5760826E+03 -0.1409912E-03 -0.2861023E-05
  0.3285715E+00 -0.3105661E-03  0.5364418E-05  0.3128107E+05  0.7193253E+03  0.2263940E-03  0.5245209E-05
  0.3595238E+00  0.2525279E-02  0.1020432E-03  0.3144970E+05  0.8987500E+03  0.1750719E-03  0.1084805E-04
  0.3904762E+00 -0.5324293E-03  0.1590252E-03  0.3163125E+05  0.1121763E+04 -0.4249665E-03  0.2551079E-04
  0.4214286E+00 -0.2701969E-02  0.7498264E-04  0.3175158E+05  0.1387480E+04 -0.1176737E-03  0.3099442E-04
  0.4523810E+00  0.2858613E-02  0.5412102E-04  0.3186428E+05  0.1710075E+04  0.1222711E-03  0.2741814E-04
  0.4833333E+00  0.2340119E-02 -0.9417534E-04  0.3190581E+05  0.2066965E+04 -0.1973119E-04  0.2884865E-04
  0.5142857E+00 -0.1357396E-02  0.1735687E-03  0.3188600E+05  0.2474385E+04  0.1706018E-03  0.2384186E-04
  0.5452381E+00 -0.5457183E-03 -0.1623631E-03  0.3182478E+05  0.2914089E+04  0.3638122E-03 -0.1144409E-04
  0.5761905E+00  0.3495649E-02  0.2880096E-03  0.3170619E+05  0.3380100E+04 -0.1257904E-03 -0.2956390E-04
  0.6071429E+00 -0.2462948E-02 -0.1854897E-03  0.3154635E+05  0.3882579E+04 -0.1130945E-03  0.3814697E-05
  0.6380953E+00 -0.4573366E-03 -0.5483627E-03  0.3136311E+05  0.4397495E+04  0.2092390E-03  0.1101494E-03
  0.6690477E+00 -0.2950621E-02 -0.6432533E-03  0.3113132E+05  0.4935932E+04 -0.2508740E-03  0.2813339E-04
  0.7000000E+00  0.1291547E-02  0.2536774E-03  0.3086899E+05  0.5499144E+04  0.1689366E-03  0.6389618E-04
  0.7309524E+00 -0.3053000E-02  0.2322197E-03  0.3059195E+05  0.6074146E+04  0.1878769E-03  0.8583069E-04
  0.7619048E+00 -0.5126953E-02 -0.9593964E-03  0.3028123E+05  0.6664434E+04  0.1001358E-03  0.1058578E-03
  0.7928572E+00  0.1554059E-02 -0.4825592E-03  0.2994394E+05  0.7267721E+04  0.9622659E-05  0.2861023E-04
  0.8238096E+00 -0.6575391E-03 -0.7505417E-03  0.2958417E+05  0.7879696E+04  0.5093613E-04 -0.9536743E-06
  0.8547620E+00  0.1785151E-03 -0.6570816E-03  0.2920371E+05  0.8496597E+04 -0.2142181E-03  0.1192093E-03
  0.8857143E+00  0.2454942E-02  0.2565384E-03  0.2879994E+05  0.9115930E+04 -0.2110389E-03  0.1277924E-03
  0.9166667E+00  0.3312544E-02 -0.6923676E-03  0.2838770E+05  0.9733579E+04 -0.2746582E-03  0.6484985E-04
  0.9476191E+00 -0.3139937E-02 -0.3280640E-03  0.2795922E+05  0.1034717E+05 -0.1851758E-03  0.1029968E-03
  0.9785714E+00 -0.4284156E-02 -0.2204895E-02  0.2751489E+05  0.1095378E+05  0.1949115E-04  0.2059937E-03
  0.1009524E+01 -0.5705852E-02 -0.7629395E-05  0.2705443E+05  0.1155097E+05  0.3022968E-04  0.2326965E-03
  0.1040476E+01  0.7369262E-03  0.3376007E-03  0.2658677E+05  0.1213512E+05 -0.2896377E-03 -0.3814697E-05
  0.1071429E+01 -0.1121521E-02  0.7715225E-03  0.2611696E+05  0.1270258E+05  0.4984538E-04  0.2117157E-03
  0.1102381E+01  0.2280414E-02  0.2775192E-03  0.2564299E+05  0.1325231E+05  0.4187104E-03 -0.1049042E-03
  0.1133333E+01 -0.8448433E-03  0.2553940E-02  0.2516457E+05  0.1378190E+05 -0.1649296E-03  0.3051758E-04
  0.1164286E+01  0.4521469E-03  0.7848740E-03  0.2468534E+05  0.1429035E+05  0.2621142E-04  0.3604889E-03
  0.1195238E+01 -0.1318122E-02 -0.2227783E-02  0.2420884E+05  0.1477557E+05 -0.1500042E-03  0.2403259E-03
  0.1226190E+01 -0.3702108E-03  0.4920959E-03  0.2373864E+05  0.1523498E+05 -0.2271041E-03  0.2079010E-03
  0.1257143E+01  0.3501719E-02 -0.1792908E-03  0.2327393E+05  0.1568083E+05  0.2700632E-03 -0.1659393E-03
  0.1288095E+01  0.2256665E-02  0.7133484E-03  0.2280880E+05  0.1607415E+05 -0.1036526E-03  0.3433228E-03
  0.1319048E+01  0.1859562E-02 -0.7762909E-03  0.2235123E+05  0.1645186E+05 -0.2602808E-03  0.2574921E-03
  0.1350000E+01 -0.8307563E-03  0.1468658E-03  0.2189811E+05  0.1680186E+05  0.6216543E-04  0.8392334E-04
  0.1380952E+01  0.2903248E-02  0.1945496E-02  0.2146026E+05  0.1711929E+05 -0.2541378E-03  0.3166199E-03
  0.1411905E+01  0.1442766E-02 -0.7438660E-04  0.2103487E+05  0.1742147E+05 -0.1080724E-04  0.2689362E-03
  0.1442857E+01  0.1070759E-02  0.1016617E-02  0.2062105E+05  0.1767993E+05  0.6345239E-04 -0.7629395E-05
  0.1473810E+01  0.1035330E-03 -0.2456665E-02  0.2021822E+05  0.1790949E+05 -0.2070660E-04  0.3719330E-03
  0.1504762E+01  0.2928022E-02 -0.5722046E-04  0.1982723E+05  0.1811027E+05  0.1267542E-03  0.4215240E-03
  0.1535714E+01 -0.1237026E-02  0.2269745E-03  0.1944732E+05  0.1828275E+05 -0.8445562E-04  0.2059937E-03
  0.1566667E+01  0.1115190E-02 -0.1071930E-02  0.1907847E+05  0.1842804E+05 -0.3019292E-03  0.2708435E-03
  0.1597619E+01  0.7640765E-03 -0.2647400E-02  0.1872599E+05  0.1854446E+05 -0.1002850E-03  0.2193451E-03
  0.1628572E+01 -0.7542392E-03 -0.8296967E-03  0.1838842E+05  0.1863202E+05 -0.2857677E-03  0.5149841E-03
  0.1659524E+01  0.2606692E-02 -0.1174927E-02  0.1806593E+05  0.1869096E+05 -0.3310085E-03  0.2841949E-03
  0.1690476E+01  0.1843627E-02  0.2876282E-02  0.1775627E+05  0.1872500E+05 -0.1308817E-03  0.5073547E-03
  0.1721429E+01  0.2674720E-02  0.2096176E-02  0.1746147E+05  0.1873357E+05 -0.1285284E-03  0.2479553E-03
  0.1752381E+01  0.6965969E-04 -0.7057190E-03  0.1717947E+05  0.1871792E+05  0.3482985E-04  0.5893707E-03
  0.1783333E+01  0.3873879E-02  0.1928329E-02  0.1690812E+05  0.1868108E+05 -0.1967956E-03  0.1544952E-03
  0.1814286E+01  0.2565159E-03 -0.2693176E-02  0.1665121E+05  0.1862032E+05 -0.2270796E-03  0.3376007E-03
  0.1845238E+01  0.3117518E-02  0.1783371E-02  0.1641081E+05  0.1853885E+05 -0.3555790E-03  0.4940033E-03
  0.1876190E+01  0.8275182E-03 -0.1111984E-02  0.1618577E+05  0.1843620E+05 -0.2033214E-04  0.3032684E-03
  0.1907143E+01  0.2854308E-02  0.1092911E-02  0.1597459E+05  0.1831209E+05 -0.2480268E-03  0.2937317E-03
  0.1938095E+01 -0.4330197E-03  0.1279831E-02  0.1577487E+05  0.1817151E+05 -0.1141597E-03  0.5626678E-03
  0.1969048E+01  0.1383255E-02  0.1565933E-02  0.1558780E+05  0.1801274E+05 -0.2092318E-03  0.3585815E-03
  0.2000000E+01  0.2788544E-02 -0.2004623E-02  0.1541306E+05  0.1783768E+05 -0.9536743E-04  0.2441406E-03
Zone t="Motion of body    1 in DoF   3",I=    64,F=POINT
  0.5000000E-01  0.2257374E+03  0.7575340E-05  0.5006790E-03  0.6881676E-06  0.2851693E+03  0.1254648E-06
  0.8095238E-01  0.2257480E+03  0.3352372E-04  0.1187640E-02  0.3454562E-05  0.2874627E+03  0.5241143E-06
  0.1119048E+00  0.2265940E+03  0.9337571E-04  0.1649045E-02  0.6741412E-05  0.2841815E+03  0.1243877E-05
  0.1428571E+00  0.2285110E+03  0.2114470E-03  0.8081793E-03  0.4921123E-05  0.2874211E+03  0.3390079E-05
  0.1738095E+00  0.2266512E+03  0.4218857E-03  0.1848397E-02  0.1333372E-04  0.2864640E+03  0.7586939E-05
  0.2047619E+00  0.2290329E+03  0.7820416E-03  0.6520471E-03  0.7212129E-05  0.2862977E+03  0.1209331E-04
  0.2357143E+00  0.2299625E+03  0.1381626E-02  0.1483325E-02  0.1937889E-04  0.2878270E+03  0.2116869E-04
  0.2666667E+00  0.2289624E+03  0.2377742E-02  0.5896389E-03  0.9500878E-05  0.2866084E+03  0.3971900E-04
  0.2976190E+00  0.2315428E+03  0.4020085E-02 -0.1045418E-03 -0.4035620E-05  0.2862989E+03  0.6619409E-04
  0.3285715E+00  0.2339863E+03  0.6697183E-02  0.1845982E-02  0.4577938E-04  0.2871504E+03  0.1077156E-03
  0.3595238E+00  0.2322146E+03  0.1108335E-01  0.1791834E-02  0.5039227E-04  0.2865714E+03  0.1801174E-03
  0.3904762E+00  0.2342979E+03  0.1825161E-01  0.1930667E-02  0.7434306E-04  0.2856721E+03  0.2926891E-03
  0.4214286E+00  0.2376682E+03  0.2966989E-01  0.8322020E-03  0.3752853E-04  0.2868489E+03  0.4754966E-03
  0.4523810E+00  0.2389549E+03  0.4777582E-01  0.1070926E-02  0.5358898E-04  0.2862586E+03  0.7760142E-03
  0.4833333E+00  0.2415364E+03  0.7521015E-01  0.8218042E-03  0.5593810E-04  0.2872502E+03  0.1237262E-02
  0.5142857E+00  0.2493531E+03  0.1165138E+00  0.1108911E-02  0.1081889E-03  0.2873630E+03  0.1944554E-02
  0.5452381E+00  0.2500257E+03  0.1763195E+00  0.2645947E-02  0.2719898E-03  0.2874161E+03  0.2961938E-02
  0.5761905E+00  0.2482782E+03  0.2604367E+00  0.1552105E-02  0.1728807E-03  0.2877426E+03  0.4409038E-02
  0.6071429E+00  0.2537298E+03  0.3780361E+00  0.9051490E-03  0.1145554E-03  0.2869081E+03  0.6488960E-02
  0.6380953E+00  0.2585349E+03  0.5375893E+00  0.2034102E-02  0.3034200E-03  0.2881076E+03  0.9320987E-02
  0.6690477E+00  0.2641081E+03  0.7514477E+00  0.7084340E-03  0.1288161E-03  0.2887099E+03  0.1317557E-01
  0.7000000E+00  0.2647225E+03  0.1034860E+01  0.6341934E-03  0.1167923E-03  0.2873298E+03  0.1832535E-01
  0.7309524E+00  0.2657520E+03  0.1404254E+01  0.1456046E-02  0.3415374E-03  0.2880447E+03  0.2507373E-01
  0.7619048E+00  0.2707953E+03  0.1881236E+01  0.1562118E-02  0.3795489E-03  0.2887395E+03  0.3400506E-01
  0.7928572E+00  0.2785826E+03  0.2491748E+01  0.4456494E-03  0.6048055E-04  0.2883786E+03  0.4569026E-01
  0.8238096E+00  0.2856214E+03  0.3266666E+01  0.8688083E-03  0.2641277E-03  0.2884688E+03  0.6065899E-01
  0.8547620E+00  0.2895520E+03  0.4240834E+01  0.8083386E-03  0.2945727E-03  0.2895583E+03  0.7959659E-01
  0.8857143E+00  0.2912141E+03  0.5451406E+01  0.1040120E-02  0.3211340E-03  0.2895842E+03  0.1034205E+00
  0.9166667E+00  0.2967277E+03  0.6942558E+01  0.1819611E-02  0.6945580E-03  0.2889370E+03  0.1333918E+00
  0.9476191E+00  0.3033184E+03  0.8770570E+01  0.3537461E-03  0.8380786E-04  0.2887618E+03  0.1706196E+00
  0.9785714E+00  0.3102153E+03  0.1100149E+02  0.1060806E-02  0.4605968E-03  0.2898711E+03  0.2169127E+00
  0.1009524E+01  0.3184135E+03  0.1369390E+02  0.1882742E-02  0.9409077E-03  0.2907011E+03  0.2743250E+00
  0.1040476E+01  0.3277948E+03  0.1692898E+02  0.1779072E-02  0.1048602E-02  0.2910688E+03  0.3443767E+00
  0.1071429E+01  0.3360790E+03  0.2079755E+02 -0.2768199E-03 -0.3183447E-03  0.2904657E+03  0.4290743E+00
  0.1102381E+01  0.3411093E+03  0.2541669E+02  0.2042943E-02  0.1276549E-02  0.2904818E+03  0.5318159E+00
  0.1133333E+01  0.3463306E+03  0.3085908E+02  0.1605118E-02  0.1073956E-02  0.2915775E+03  0.6540822E+00
  0.1164286E+01  0.3539225E+03  0.3720218E+02  0.6274357E-03  0.4470721E-03  0.2921449E+03  0.7972818E+00
  0.1195238E+01  0.3634874E+03  0.4455715E+02  0.1448977E-02  0.1350306E-02  0.2924932E+03  0.9708499E+00
  0.1226190E+01  0.3746107E+03  0.5309698E+02  0.4433197E-03  0.2152622E-03  0.2920153E+03  0.1173490E+01
  0.1257143E+01  0.3833473E+03  0.6299551E+02  0.6599859E-03  0.6582290E-03  0.2920782E+03  0.1414179E+01
  0.1288095E+01  0.3947960E+03  0.7435979E+02  0.8788258E-03  0.7177144E-03  0.2931511E+03  0.1700688E+01
  0.1319048E+01  0.4047584E+03  0.8733244E+02  0.7779503E-03  0.1018792E-02  0.2945851E+03  0.2031073E+01
  0.1350000E+01  0.4133354E+03  0.1020895E+03  0.1080831E-02  0.1058996E-02  0.2950101E+03  0.2413295E+01
  0.1380952E+01  0.4208408E+03  0.1188014E+03  0.2444695E-03 -0.8672476E-05  0.2951605E+03  0.2858274E+01
  0.1411905E+01  0.4019676E+03  0.1317317E+03  0.8443154E-04 -0.2404749E-03  0.2927407E+03  0.3192244E+01
  0.1442857E+01  0.4088224E+03  0.1517457E+03  0.6424555E-03  0.6944835E-03  0.2924872E+03  0.3743816E+01
  0.1473810E+01  0.4170070E+03  0.1739305E+03  0.7182600E-03  0.8634031E-03  0.2931471E+03  0.4334270E+01
  0.1504762E+01  0.4240898E+03  0.1983430E+03  0.7370756E-03  0.1608372E-02  0.2943817E+03  0.5041408E+01
  0.1535714E+01  0.4308470E+03  0.2251044E+03  0.9004460E-04 -0.3127456E-03  0.2952107E+03  0.5814426E+01
  0.1566667E+01  0.4368783E+03  0.2541899E+03  0.3469751E-04 -0.5657971E-03  0.2957914E+03  0.6690332E+01
  0.1597619E+01  0.4426020E+03  0.2857249E+03  0.8428718E-03  0.1088321E-02  0.2961309E+03  0.7667136E+01
  0.1628572E+01  0.4482728E+03  0.3196901E+03  0.2851821E-03  0.2806187E-03  0.2959104E+03  0.8671506E+01
  0.1659524E+01  0.4519230E+03  0.3557289E+03  0.2833110E-03  0.1686811E-04  0.2958168E+03  0.9801603E+01
  0.1690476E+01  0.4543773E+03  0.3942027E+03  0.6346635E-03  0.9374022E-03  0.2961399E+03  0.1098923E+02
  0.1721429E+01  0.4549325E+03  0.4349398E+03  0.2875269E-03  0.4161000E-03  0.2969621E+03  0.1236516E+02
  0.1752381E+01  0.4540304E+03  0.4771111E+03  0.5197266E-03  0.1190364E-02  0.2981310E+03  0.1393870E+02
  0.1783333E+01  0.4518587E+03  0.5212417E+03  0.1033712E-02  0.2588689E-02  0.2984666E+03  0.1551264E+02
  0.1814286E+01  0.4486907E+03  0.5665999E+03  0.3190679E-03  0.6015301E-03  0.2988940E+03  0.1717673E+02
  0.1845238E+01  0.4450270E+03  0.6128878E+03  0.5085607E-03  0.1191795E-02  0.2987839E+03  0.1887001E+02
  0.1876190E+01  0.4403094E+03  0.6602106E+03  0.5220278E-03  0.2290010E-03  0.2979644E+03  0.2048411E+02
  0.1907143E+01  0.4337392E+03  0.7078959E+03  0.8045869E-03  0.2480507E-02  0.2973399E+03  0.2211536E+02
  0.1938095E+01  0.4258782E+03  0.7564423E+03  0.6893870E-03  0.1024008E-02  0.2972427E+03  0.2402170E+02
  0.1969048E+01  0.4169197E+03  0.8057853E+03  0.3487196E-03  0.1255870E-02  0.2976157E+03  0.2611611E+02
  0.2000000E+01  0.4064090E+03  0.8549983E+03  0.7009506E-04  0.1299739E-02  0.2985788E+03  0.2839668E+02
