VARIABLES="w (rad/s)"
"abs(F   1   1)" "angle(F   1   1)"
"abs(F   1   2)" "angle(F   1   2)"
"abs(F   1   3)" "angle(F   1   3)"
Zone t="Diffraction force - beta =   0.000 deg",I=    64,F=POINT
  0.5000000E-01  0.2553709E+03 -0.1570796E+01  0.6909081E+02 -0.3106774E+01  0.3008615E+01 -0.1570796E+01
  0.8095238E-01  0.4172354E+03 -0.1570795E+01  0.1798632E+03 -0.3105638E+01  0.4894369E+01 -0.1570795E+01
  0.1119048E+00  0.5822336E+03 -0.1570794E+01  0.3426758E+03 -0.3104158E+01  0.6837944E+01 -0.1570794E+01
  0.1428571E+00  0.7561577E+03 -0.1570792E+01  0.5576920E+03 -0.3102208E+01  0.8911592E+01 -0.1570791E+01
  0.1738095E+00  0.9333152E+03 -0.1570789E+01  0.8259924E+03 -0.3099709E+01  0.1096229E+02 -0.1570789E+01
  0.2047619E+00  0.1125193E+04 -0.1570785E+01  0.1148502E+04 -0.3096539E+01  0.1325826E+02 -0.1570783E+01
  0.2357143E+00  0.1325114E+04 -0.1570779E+01  0.1526321E+04 -0.3092497E+01  0.1578218E+02 -0.1570777E+01
  0.2666667E+00  0.1540810E+04 -0.1570770E+01  0.1961953E+04 -0.3087556E+01  0.1832419E+02 -0.1570766E+01
  0.2976190E+00  0.1779492E+04 -0.1570757E+01  0.2455386E+04 -0.3081288E+01  0.2128801E+02 -0.1570748E+01
  0.3285715E+00  0.2038161E+04 -0.1570737E+01  0.3009820E+04 -0.3073728E+01  0.2466913E+02 -0.1570723E+01
  0.3595238E+00  0.2318429E+04 -0.1570707E+01  0.3624122E+04 -0.3064476E+01  0.2802636E+02 -0.1570686E+01
  0.3904762E+00  0.2635797E+04 -0.1570662E+01  0.4301493E+04 -0.3053429E+01  0.3207438E+02 -0.1570629E+01
  0.4214286E+00  0.2991331E+04 -0.1570596E+01  0.5033416E+04 -0.3040900E+01  0.3694236E+02 -0.1570546E+01
  0.4523810E+00  0.3370623E+04 -0.1570498E+01  0.5825581E+04 -0.3026336E+01  0.4216643E+02 -0.1570423E+01
  0.4833333E+00  0.3792275E+04 -0.1570361E+01  0.6668093E+04 -0.3011360E+01  0.4762466E+02 -0.1570250E+01
  0.5142857E+00  0.4260351E+04 -0.1570171E+01  0.7556756E+04 -0.2994962E+01  0.5467275E+02 -0.1570018E+01
  0.5452381E+00  0.4763299E+04 -0.1569916E+01  0.8493542E+04 -0.2978395E+01  0.6232690E+02 -0.1569707E+01
  0.5761905E+00  0.5274368E+04 -0.1569577E+01  0.9470724E+04 -0.2961818E+01  0.6840139E+02 -0.1569268E+01
  0.6071429E+00  0.5827136E+04 -0.1569138E+01  0.1048811E+05 -0.2944660E+01  0.7696107E+02 -0.1568732E+01
  0.6380953E+00  0.6425669E+04 -0.1568588E+01  0.1154844E+05 -0.2928178E+01  0.8616110E+02 -0.1568061E+01
  0.6690477E+00  0.7049987E+04 -0.1567899E+01  0.1263881E+05 -0.2911495E+01  0.9626107E+02 -0.1567230E+01
  0.7000000E+00  0.7685934E+04 -0.1567038E+01  0.1376024E+05 -0.2894538E+01  0.1064001E+03 -0.1566183E+01
  0.7309524E+00  0.8330765E+04 -0.1565981E+01  0.1491920E+05 -0.2877996E+01  0.1155079E+03 -0.1564851E+01
  0.7619048E+00  0.9014603E+04 -0.1564706E+01  0.1610369E+05 -0.2861431E+01  0.1261530E+03 -0.1563275E+01
  0.7928572E+00  0.9734872E+04 -0.1563183E+01  0.1730675E+05 -0.2844756E+01  0.1391916E+03 -0.1561470E+01
  0.8238096E+00  0.1048926E+05 -0.1561377E+01  0.1853140E+05 -0.2828186E+01  0.1536021E+03 -0.1559368E+01
  0.8547620E+00  0.1125912E+05 -0.1559244E+01  0.1977230E+05 -0.2811733E+01  0.1675920E+03 -0.1556837E+01
  0.8857143E+00  0.1202606E+05 -0.1556726E+01  0.2102436E+05 -0.2795377E+01  0.1800730E+03 -0.1553729E+01
  0.9166667E+00  0.1279419E+05 -0.1553781E+01  0.2228811E+05 -0.2779219E+01  0.1936315E+03 -0.1550146E+01
  0.9476191E+00  0.1360625E+05 -0.1550410E+01  0.2355953E+05 -0.2763274E+01  0.2098963E+03 -0.1546193E+01
  0.9785714E+00  0.1445226E+05 -0.1546567E+01  0.2483079E+05 -0.2747463E+01  0.2267448E+03 -0.1541676E+01
  0.1009524E+01  0.1532494E+05 -0.1542206E+01  0.2609806E+05 -0.2731806E+01  0.2443831E+03 -0.1536543E+01
  0.1040476E+01  0.1620672E+05 -0.1537260E+01  0.2735562E+05 -0.2716262E+01  0.2641398E+03 -0.1530892E+01
  0.1071429E+01  0.1710281E+05 -0.1531694E+01  0.2860818E+05 -0.2701037E+01  0.2855200E+03 -0.1524646E+01
  0.1102381E+01  0.1799206E+05 -0.1525428E+01  0.2985228E+05 -0.2686145E+01  0.3046781E+03 -0.1517295E+01
  0.1133333E+01  0.1886631E+05 -0.1518398E+01  0.3108180E+05 -0.2671515E+01  0.3222437E+03 -0.1508788E+01
  0.1164286E+01  0.1974563E+05 -0.1510612E+01  0.3229746E+05 -0.2657215E+01  0.3414504E+03 -0.1499550E+01
  0.1195238E+01  0.2064016E+05 -0.1502076E+01  0.3348988E+05 -0.2643070E+01  0.3636263E+03 -0.1489792E+01
  0.1226190E+01  0.2155135E+05 -0.1492777E+01  0.3466240E+05 -0.2629263E+01  0.3882725E+03 -0.1479468E+01
  0.1257143E+01  0.2245042E+05 -0.1482604E+01  0.3581973E+05 -0.2615427E+01  0.4135168E+03 -0.1468169E+01
  0.1288095E+01  0.2338650E+05 -0.1471731E+01  0.3692918E+05 -0.2602528E+01  0.4398533E+03 -0.1456101E+01
  0.1319048E+01  0.2427629E+05 -0.1459850E+01  0.3801704E+05 -0.2589550E+01  0.4648420E+03 -0.1442699E+01
  0.1350000E+01  0.2514180E+05 -0.1447028E+01  0.3907295E+05 -0.2576889E+01  0.4900578E+03 -0.1428224E+01
  0.1380952E+01  0.2595231E+05 -0.1433141E+01  0.4009470E+05 -0.2564557E+01  0.5148339E+03 -0.1412475E+01
  0.1411905E+01  0.2656235E+05 -0.1418282E+01  0.4105833E+05 -0.2552417E+01  0.5272645E+03 -0.1393447E+01
  0.1442857E+01  0.2727101E+05 -0.1402348E+01  0.4201452E+05 -0.2540856E+01  0.5516970E+03 -0.1375397E+01
  0.1473810E+01  0.2794273E+05 -0.1385564E+01  0.4293542E+05 -0.2529652E+01  0.5746762E+03 -0.1356136E+01
  0.1504762E+01  0.2856820E+05 -0.1367946E+01  0.4381590E+05 -0.2518703E+01  0.5982158E+03 -0.1336331E+01
  0.1535714E+01  0.2913419E+05 -0.1349481E+01  0.4465420E+05 -0.2508001E+01  0.6200966E+03 -0.1315359E+01
  0.1566667E+01  0.2963512E+05 -0.1330197E+01  0.4544915E+05 -0.2497555E+01  0.6423735E+03 -0.1293559E+01
  0.1597619E+01  0.3004623E+05 -0.1309995E+01  0.4619886E+05 -0.2487324E+01  0.6643704E+03 -0.1270983E+01
  0.1628572E+01  0.3037248E+05 -0.1288978E+01  0.4690639E+05 -0.2477467E+01  0.6857477E+03 -0.1247823E+01
  0.1659524E+01  0.3060659E+05 -0.1267184E+01  0.4757036E+05 -0.2467993E+01  0.7063719E+03 -0.1224197E+01
  0.1690476E+01  0.3074246E+05 -0.1244776E+01  0.4818943E+05 -0.2458862E+01  0.7238604E+03 -0.1199716E+01
  0.1721429E+01  0.3077517E+05 -0.1221841E+01  0.4876114E+05 -0.2449987E+01  0.7379439E+03 -0.1174118E+01
  0.1752381E+01  0.3068906E+05 -0.1198326E+01  0.4928494E+05 -0.2441359E+01  0.7469602E+03 -0.1147080E+01
  0.1783333E+01  0.3049191E+05 -0.1174395E+01  0.4976045E+05 -0.2433016E+01  0.7542670E+03 -0.1119662E+01
  0.1814286E+01  0.3017588E+05 -0.1150040E+01  0.5018582E+05 -0.2424865E+01  0.7597376E+03 -0.1091866E+01
  0.1845238E+01  0.2973357E+05 -0.1125218E+01  0.5056275E+05 -0.2416998E+01  0.7631238E+03 -0.1063957E+01
  0.1876190E+01  0.2917272E+05 -0.1100175E+01  0.5089303E+05 -0.2409487E+01  0.7642025E+03 -0.1036800E+01
  0.1907143E+01  0.2849417E+05 -0.1075056E+01  0.5117438E+05 -0.2402302E+01  0.7623646E+03 -0.1009720E+01
  0.1938095E+01  0.2769566E+05 -0.1049845E+01  0.5140581E+05 -0.2395432E+01  0.7560697E+03 -0.9823811E+00
  0.1969048E+01  0.2678048E+05 -0.1024586E+01  0.5158686E+05 -0.2388848E+01  0.7441235E+03 -0.9540829E+00
  0.2000000E+01  0.2574523E+05 -0.9991577E+00  0.5171745E+05 -0.2382510E+01  0.7278954E+03 -0.9249412E+00
