VARIABLES="w (rad/s)"
"abs(F   1   1)" "angle(F   1   1)"
"abs(F   1   2)" "angle(F   1   2)"
"abs(F   1   3)" "angle(F   1   3)"
Zone t="Diffraction force - beta =   0.000 deg",I=    64,F=POINT
  0.5000000E-01  0.2902050E+04 -0.1570795E+01  0.1268989E+06 -0.8768698E-05  0.1031519E+05  0.1570800E+01
  0.8095238E-01  0.4742579E+04 -0.1570780E+01  0.1264471E+06 -0.2354968E-04  0.1683215E+05  0.1570792E+01
  0.1119048E+00  0.6619312E+04 -0.1570801E+01  0.1257827E+06 -0.4664342E-04  0.2346285E+05  0.1570797E+01
  0.1428571E+00  0.8546564E+04 -0.1570799E+01  0.1249073E+06 -0.7973769E-04  0.3026735E+05  0.1570803E+01
  0.1738095E+00  0.1054753E+05 -0.1570791E+01  0.1238226E+06 -0.1252262E-03  0.3731556E+05  0.1570813E+01
  0.2047619E+00  0.1264915E+05 -0.1570785E+01  0.1225298E+06 -0.1868521E-03  0.4468223E+05  0.1570812E+01
  0.2357143E+00  0.1486678E+05 -0.1570770E+01  0.1210332E+06 -0.2698198E-03  0.5244028E+05  0.1570818E+01
  0.2666667E+00  0.1723461E+05 -0.1570759E+01  0.1193361E+06 -0.3800921E-03  0.6069529E+05  0.1570835E+01
  0.2976190E+00  0.1979341E+05 -0.1570740E+01  0.1174441E+06 -0.5290508E-03  0.6955024E+05  0.1570847E+01
  0.3285715E+00  0.2256030E+05 -0.1570719E+01  0.1153648E+06 -0.7262308E-03  0.7910146E+05  0.1570874E+01
  0.3595238E+00  0.2559036E+05 -0.1570677E+01  0.1131086E+06 -0.9894981E-03  0.8950354E+05  0.1570912E+01
  0.3904762E+00  0.2890506E+05 -0.1570620E+01  0.1106850E+06 -0.1335887E-02  0.1008429E+06  0.1570970E+01
  0.4214286E+00  0.3254869E+05 -0.1570537E+01  0.1081157E+06 -0.1775701E-02  0.1132126E+06  0.1571053E+01
  0.4523810E+00  0.3653648E+05 -0.1570417E+01  0.1054048E+06 -0.2345640E-02  0.1266647E+06  0.1571176E+01
  0.4833333E+00  0.4083739E+05 -0.1570251E+01  0.1025886E+06 -0.3017514E-02  0.1411325E+06  0.1571344E+01
  0.5142857E+00  0.4548281E+05 -0.1570018E+01  0.9966318E+05 -0.3838708E-02  0.1565887E+06  0.1571573E+01
  0.5452381E+00  0.5038055E+05 -0.1569712E+01  0.9665836E+05 -0.4786999E-02  0.1727810E+06  0.1571882E+01
  0.5761905E+00  0.5553762E+05 -0.1569316E+01  0.9358182E+05 -0.5861766E-02  0.1896871E+06  0.1572276E+01
  0.6071429E+00  0.6094156E+05 -0.1568808E+01  0.9043320E+05 -0.7106785E-02  0.2072382E+06  0.1572784E+01
  0.6380953E+00  0.6647838E+05 -0.1568179E+01  0.8725656E+05 -0.8466321E-02  0.2250872E+06  0.1573413E+01
  0.6690477E+00  0.7219009E+05 -0.1567403E+01  0.8403362E+05 -0.9988500E-02  0.2432061E+06  0.1574189E+01
  0.7000000E+00  0.7807242E+05 -0.1566454E+01  0.8077287E+05 -0.1169771E-01  0.2616483E+06  0.1575138E+01
  0.7309524E+00  0.8399930E+05 -0.1565317E+01  0.7752392E+05 -0.1355120E-01  0.2800349E+06  0.1576276E+01
  0.7619048E+00  0.9004816E+05 -0.1563961E+01  0.7426462E+05 -0.1559511E-01  0.2985517E+06  0.1577631E+01
  0.7928572E+00  0.9623196E+05 -0.1562361E+01  0.7100329E+05 -0.1784607E-01  0.3171670E+06  0.1579232E+01
  0.8238096E+00  0.1023974E+06 -0.1560490E+01  0.6776902E+05 -0.2029129E-01  0.3354328E+06  0.1581103E+01
  0.8547620E+00  0.1086370E+06 -0.1558320E+01  0.6457539E+05 -0.2293469E-01  0.3536063E+06  0.1583272E+01
  0.8857143E+00  0.1148888E+06 -0.1555822E+01  0.6141533E+05 -0.2581719E-01  0.3714147E+06  0.1585769E+01
  0.9166667E+00  0.1212277E+06 -0.1552970E+01  0.5828890E+05 -0.2896187E-01  0.3891114E+06  0.1588621E+01
  0.9476191E+00  0.1274667E+06 -0.1549731E+01  0.5522984E+05 -0.3233093E-01  0.4062305E+06  0.1591859E+01
  0.9785714E+00  0.1336844E+06 -0.1546079E+01  0.5225028E+05 -0.3591571E-01  0.4229711E+06  0.1595511E+01
  0.1009524E+01  0.1398670E+06 -0.1541992E+01  0.4933671E+05 -0.3980238E-01  0.4391228E+06  0.1599597E+01
  0.1040476E+01  0.1460422E+06 -0.1537444E+01  0.4649260E+05 -0.4402308E-01  0.4546931E+06  0.1604144E+01
  0.1071429E+01  0.1521516E+06 -0.1532406E+01  0.4371986E+05 -0.4863684E-01  0.4696912E+06  0.1609178E+01
  0.1102381E+01  0.1580533E+06 -0.1526862E+01  0.4105850E+05 -0.5336390E-01  0.4836354E+06  0.1614719E+01
  0.1133333E+01  0.1638785E+06 -0.1520775E+01  0.3849481E+05 -0.5840236E-01  0.4970182E+06  0.1620804E+01
  0.1164286E+01  0.1695413E+06 -0.1514142E+01  0.3602036E+05 -0.6384660E-01  0.5094302E+06  0.1627434E+01
  0.1195238E+01  0.1750932E+06 -0.1506941E+01  0.3363889E+05 -0.6973848E-01  0.5210204E+06  0.1634630E+01
  0.1226190E+01  0.1805072E+06 -0.1499160E+01  0.3134708E+05 -0.7617079E-01  0.5318729E+06  0.1642403E+01
  0.1257143E+01  0.1854931E+06 -0.1490848E+01  0.2916522E+05 -0.8293152E-01  0.5411932E+06  0.1650706E+01
  0.1288095E+01  0.1903846E+06 -0.1481943E+01  0.2709664E+05 -0.8966617E-01  0.5494874E+06  0.1659600E+01
  0.1319048E+01  0.1950329E+06 -0.1472470E+01  0.2513347E+05 -0.9689581E-01  0.5569247E+06  0.1669065E+01
  0.1350000E+01  0.1992857E+06 -0.1462492E+01  0.2326707E+05 -0.1046632E+00  0.5625817E+06  0.1679025E+01
  0.1380952E+01  0.2033498E+06 -0.1451949E+01  0.2149649E+05 -0.1129989E+00  0.5673418E+06  0.1689551E+01
  0.1411905E+01  0.2068805E+06 -0.1440902E+01  0.1981935E+05 -0.1220626E+00  0.5708478E+06  0.1700572E+01
  0.1442857E+01  0.2101659E+06 -0.1429353E+01  0.1824114E+05 -0.1316648E+00  0.5729778E+06  0.1712106E+01
  0.1473810E+01  0.2129647E+06 -0.1417429E+01  0.1676440E+05 -0.1409511E+00  0.5733354E+06  0.1723978E+01
  0.1504762E+01  0.2154642E+06 -0.1405012E+01  0.1538695E+05 -0.1506262E+00  0.5728604E+06  0.1736383E+01
  0.1535714E+01  0.2175614E+06 -0.1392256E+01  0.1409592E+05 -0.1609628E+00  0.5711085E+06  0.1749111E+01
  0.1566667E+01  0.2191507E+06 -0.1379315E+01  0.1289250E+05 -0.1717907E+00  0.5676216E+06  0.1761993E+01
  0.1597619E+01  0.2204107E+06 -0.1366222E+01  0.1176725E+05 -0.1833779E+00  0.5630629E+06  0.1775023E+01
  0.1628572E+01  0.2212966E+06 -0.1353000E+01  0.1071765E+05 -0.1960106E+00  0.5575055E+06  0.1788181E+01
  0.1659524E+01  0.2215843E+06 -0.1339783E+01  0.9748001E+04 -0.2091095E+00  0.5504076E+06  0.1801376E+01
  0.1690476E+01  0.2213132E+06 -0.1326837E+01  0.8846499E+04 -0.2219361E+00  0.5415959E+06  0.1814154E+01
  0.1721429E+01  0.2206424E+06 -0.1313941E+01  0.8016206E+04 -0.2351657E+00  0.5319621E+06  0.1826971E+01
  0.1752381E+01  0.2196180E+06 -0.1301126E+01  0.7258462E+04 -0.2481052E+00  0.5217888E+06  0.1839785E+01
  0.1783333E+01  0.2180730E+06 -0.1288857E+01  0.6558157E+04 -0.2620040E+00  0.5101735E+06  0.1851918E+01
  0.1814286E+01  0.2161534E+06 -0.1277061E+01  0.5916169E+04 -0.2760509E+00  0.4977107E+06  0.1863554E+01
  0.1845238E+01  0.2139473E+06 -0.1265817E+01  0.5324015E+04 -0.2914879E+00  0.4847463E+06  0.1874611E+01
  0.1876190E+01  0.2114722E+06 -0.1255106E+01  0.4781302E+04 -0.3085089E+00  0.4714931E+06  0.1885205E+01
  0.1907143E+01  0.2084955E+06 -0.1245235E+01  0.4289497E+04 -0.3246533E+00  0.4573518E+06  0.1895006E+01
  0.1938095E+01  0.2051950E+06 -0.1236355E+01  0.3836000E+04 -0.3424295E+00  0.4425855E+06  0.1903612E+01
  0.1969048E+01  0.2015689E+06 -0.1228480E+01  0.3419565E+04 -0.3630985E+00  0.4273189E+06  0.1911135E+01
  0.2000000E+01  0.1977706E+06 -0.1221257E+01  0.3050152E+04 -0.3788093E+00  0.4122476E+06  0.1918315E+01
