VARIABLES="w (rad/s)"
"abs(F   1   1)" "angle(F   1   1)"
"abs(F   1   2)" "angle(F   1   2)"
"abs(F   1   3)" "angle(F   1   3)"
Zone t="Diffraction force - beta =   0.000 deg",I=    64,F=POINT
  0.5000000E-01  0.9415791E+03 -0.1570795E+01  0.8616080E+02 -0.3096268E+01  0.1316259E+04  0.1570797E+01
  0.8095238E-01  0.1541463E+04 -0.1570794E+01  0.2237965E+03 -0.3094721E+01  0.2155118E+04  0.1570798E+01
  0.1119048E+00  0.2153446E+04 -0.1570791E+01  0.4256650E+03 -0.3092764E+01  0.3003793E+04  0.1570800E+01
  0.1428571E+00  0.2780691E+04 -0.1570787E+01  0.6925955E+03 -0.3090280E+01  0.3879195E+04  0.1570803E+01
  0.1738095E+00  0.3438087E+04 -0.1570782E+01  0.1024843E+04 -0.3087074E+01  0.4781773E+04  0.1570807E+01
  0.2047619E+00  0.4122199E+04 -0.1570773E+01  0.1425545E+04 -0.3083094E+01  0.5731999E+04  0.1570813E+01
  0.2357143E+00  0.4849647E+04 -0.1570761E+01  0.1895069E+04 -0.3078018E+01  0.6729659E+04  0.1570821E+01
  0.2666667E+00  0.5632985E+04 -0.1570743E+01  0.2436111E+04 -0.3071831E+01  0.7792088E+04  0.1570834E+01
  0.2976190E+00  0.6469474E+04 -0.1570717E+01  0.3052674E+04 -0.3064077E+01  0.8940158E+04  0.1570853E+01
  0.3285715E+00  0.7383537E+04 -0.1570678E+01  0.3745003E+04 -0.3054744E+01  0.1017703E+05  0.1570880E+01
  0.3595238E+00  0.8395074E+04 -0.1570619E+01  0.4512026E+04 -0.3043330E+01  0.1151704E+05  0.1570922E+01
  0.3904762E+00  0.9492455E+04 -0.1570531E+01  0.5360759E+04 -0.3029845E+01  0.1299846E+05  0.1570983E+01
  0.4214286E+00  0.1070098E+05 -0.1570403E+01  0.6281391E+04 -0.3014697E+01  0.1461598E+05  0.1571073E+01
  0.4523810E+00  0.1203471E+05 -0.1570214E+01  0.7272662E+04 -0.2997025E+01  0.1635783E+05  0.1571205E+01
  0.4833333E+00  0.1349295E+05 -0.1569953E+01  0.8324381E+04 -0.2979037E+01  0.1823942E+05  0.1571388E+01
  0.5142857E+00  0.1503930E+05 -0.1569589E+01  0.9440148E+04 -0.2959586E+01  0.2027541E+05  0.1571641E+01
  0.5452381E+00  0.1668819E+05 -0.1569105E+01  0.1061349E+05 -0.2940115E+01  0.2240737E+05  0.1571976E+01
  0.5761905E+00  0.1844683E+05 -0.1568476E+01  0.1182714E+05 -0.2920689E+01  0.2462254E+05  0.1572410E+01
  0.6071429E+00  0.2029003E+05 -0.1567664E+01  0.1308476E+05 -0.2900677E+01  0.2691917E+05  0.1572970E+01
  0.6380953E+00  0.2218192E+05 -0.1566649E+01  0.1439984E+05 -0.2881864E+01  0.2929527E+05  0.1573663E+01
  0.6690477E+00  0.2412126E+05 -0.1565387E+01  0.1575753E+05 -0.2863205E+01  0.3171627E+05  0.1574520E+01
  0.7000000E+00  0.2612672E+05 -0.1563838E+01  0.1714009E+05 -0.2844201E+01  0.3414941E+05  0.1575569E+01
  0.7309524E+00  0.2819882E+05 -0.1561974E+01  0.1855322E+05 -0.2825674E+01  0.3659038E+05  0.1576826E+01
  0.7619048E+00  0.3032099E+05 -0.1559744E+01  0.1999768E+05 -0.2807489E+01  0.3905376E+05  0.1578323E+01
  0.7928572E+00  0.3244297E+05 -0.1557091E+01  0.2146513E+05 -0.2789540E+01  0.4153435E+05  0.1580087E+01
  0.8238096E+00  0.3457534E+05 -0.1553970E+01  0.2295943E+05 -0.2772047E+01  0.4400869E+05  0.1582144E+01
  0.8547620E+00  0.3672940E+05 -0.1550341E+01  0.2447047E+05 -0.2754945E+01  0.4643739E+05  0.1584519E+01
  0.8857143E+00  0.3891686E+05 -0.1546167E+01  0.2598129E+05 -0.2738014E+01  0.4882046E+05  0.1587238E+01
  0.9166667E+00  0.4110331E+05 -0.1541389E+01  0.2748617E+05 -0.2721277E+01  0.5113850E+05  0.1590323E+01
  0.9476191E+00  0.4329550E+05 -0.1535972E+01  0.2899113E+05 -0.2705026E+01  0.5340535E+05  0.1593792E+01
  0.9785714E+00  0.4545562E+05 -0.1529857E+01  0.3049520E+05 -0.2689387E+01  0.5561975E+05  0.1597661E+01
  0.1009524E+01  0.4755972E+05 -0.1522999E+01  0.3199519E+05 -0.2674403E+01  0.5776068E+05  0.1601937E+01
  0.1040476E+01  0.4959184E+05 -0.1515360E+01  0.3348497E+05 -0.2659945E+01  0.5980551E+05  0.1606628E+01
  0.1071429E+01  0.5157677E+05 -0.1506947E+01  0.3495650E+05 -0.2645975E+01  0.6172658E+05  0.1611728E+01
  0.1102381E+01  0.5349126E+05 -0.1497741E+01  0.3639865E+05 -0.2632353E+01  0.6349144E+05  0.1617230E+01
  0.1133333E+01  0.5533722E+05 -0.1487748E+01  0.3780658E+05 -0.2619141E+01  0.6511632E+05  0.1623110E+01
  0.1164286E+01  0.5707754E+05 -0.1476953E+01  0.3918357E+05 -0.2606511E+01  0.6658090E+05  0.1629339E+01
  0.1195238E+01  0.5868160E+05 -0.1465337E+01  0.4052589E+05 -0.2594512E+01  0.6790047E+05  0.1635878E+01
  0.1226190E+01  0.6013312E+05 -0.1452918E+01  0.4183724E+05 -0.2583345E+01  0.6907367E+05  0.1642667E+01
  0.1257143E+01  0.6137519E+05 -0.1439633E+01  0.4311740E+05 -0.2572690E+01  0.7006730E+05  0.1649669E+01
  0.1288095E+01  0.6246572E+05 -0.1425766E+01  0.4435453E+05 -0.2563485E+01  0.7086674E+05  0.1656713E+01
  0.1319048E+01  0.6331929E+05 -0.1411170E+01  0.4555932E+05 -0.2554687E+01  0.7145452E+05  0.1663796E+01
  0.1350000E+01  0.6395562E+05 -0.1396034E+01  0.4671498E+05 -0.2546463E+01  0.7183073E+05  0.1670779E+01
  0.1380952E+01  0.6434821E+05 -0.1380423E+01  0.4781625E+05 -0.2538790E+01  0.7198212E+05  0.1677565E+01
  0.1411905E+01  0.6431008E+05 -0.1364948E+01  0.4883029E+05 -0.2531803E+01  0.7195138E+05  0.1683576E+01
  0.1442857E+01  0.6420883E+05 -0.1348809E+01  0.4982564E+05 -0.2525536E+01  0.7169442E+05  0.1689542E+01
  0.1473810E+01  0.6381727E+05 -0.1332500E+01  0.5076432E+05 -0.2519951E+01  0.7123378E+05  0.1694913E+01
  0.1504762E+01  0.6315720E+05 -0.1316272E+01  0.5165945E+05 -0.2515426E+01  0.7059763E+05  0.1699524E+01
  0.1535714E+01  0.6219964E+05 -0.1300255E+01  0.5250445E+05 -0.2511776E+01  0.6976531E+05  0.1703223E+01
  0.1566667E+01  0.6096380E+05 -0.1284636E+01  0.5329925E+05 -0.2508943E+01  0.6880866E+05  0.1705915E+01
  0.1597619E+01  0.5940905E+05 -0.1269551E+01  0.5402978E+05 -0.2506690E+01  0.6765510E+05  0.1707394E+01
  0.1628572E+01  0.5759096E+05 -0.1255339E+01  0.5472750E+05 -0.2505342E+01  0.6640323E+05  0.1707603E+01
  0.1659524E+01  0.5549801E+05 -0.1242272E+01  0.5538303E+05 -0.2504890E+01  0.6502285E+05  0.1706335E+01
  0.1690476E+01  0.5313197E+05 -0.1230539E+01  0.5598943E+05 -0.2505097E+01  0.6355406E+05  0.1703561E+01
  0.1721429E+01  0.5052456E+05 -0.1220608E+01  0.5655896E+05 -0.2506252E+01  0.6202312E+05  0.1699205E+01
  0.1752381E+01  0.4767888E+05 -0.1212878E+01  0.5709480E+05 -0.2508238E+01  0.6044086E+05  0.1693209E+01
  0.1783333E+01  0.4461815E+05 -0.1207953E+01  0.5759831E+05 -0.2511076E+01  0.5881937E+05  0.1685507E+01
  0.1814286E+01  0.4137900E+05 -0.1206488E+01  0.5807606E+05 -0.2514624E+01  0.5723196E+05  0.1676367E+01
  0.1845238E+01  0.3794042E+05 -0.1209411E+01  0.5851521E+05 -0.2518636E+01  0.5560548E+05  0.1665484E+01
  0.1876190E+01  0.3438041E+05 -0.1218255E+01  0.5895932E+05 -0.2523314E+01  0.5404403E+05  0.1653360E+01
  0.1907143E+01  0.3070445E+05 -0.1235209E+01  0.5939768E+05 -0.2528532E+01  0.5250125E+05  0.1639784E+01
  0.1938095E+01  0.2695486E+05 -0.1263351E+01  0.5983014E+05 -0.2533977E+01  0.5102853E+05  0.1625291E+01
  0.1969048E+01  0.2316964E+05 -0.1308087E+01  0.6024368E+05 -0.2539448E+01  0.4960207E+05  0.1609859E+01
  0.2000000E+01  0.1942938E+05 -0.1378672E+01  0.6065830E+05 -0.2545012E+01  0.4824940E+05  0.1593882E+01
