VARIABLES="w (rad/s)"
"abs(F   1   1)" "angle(F   1   1)"
"abs(F   1   2)" "angle(F   1   2)"
"abs(F   1   3)" "angle(F   1   3)"
Zone t="Diffraction force - beta =   0.000 deg",I=    64,F=POINT
  0.5000000E-01  0.1387211E+04 -0.1570795E+01  0.1091313E+03 -0.3110962E+01  0.2508511E+04  0.1570798E+01
  0.8095238E-01  0.2275016E+04 -0.1570793E+01  0.2827871E+03 -0.3109891E+01  0.4113357E+04  0.1570800E+01
  0.1119048E+00  0.3188105E+04 -0.1570789E+01  0.5383026E+03 -0.3108679E+01  0.5763621E+04  0.1570803E+01
  0.1428571E+00  0.4129855E+04 -0.1570784E+01  0.8740958E+03 -0.3107041E+01  0.7456693E+04  0.1570808E+01
  0.1738095E+00  0.5109155E+04 -0.1570776E+01  0.1290869E+04 -0.3104968E+01  0.9226270E+04  0.1570816E+01
  0.2047619E+00  0.6146280E+04 -0.1570765E+01  0.1791421E+04 -0.3102390E+01  0.1108461E+05  0.1570827E+01
  0.2357143E+00  0.7246272E+04 -0.1570749E+01  0.2369644E+04 -0.3099014E+01  0.1307085E+05  0.1570843E+01
  0.2666667E+00  0.8443012E+04 -0.1570725E+01  0.3032731E+04 -0.3094982E+01  0.1520855E+05  0.1570866E+01
  0.2976190E+00  0.9734831E+04 -0.1570689E+01  0.3773713E+04 -0.3089807E+01  0.1752297E+05  0.1570901E+01
  0.3285715E+00  0.1114710E+05 -0.1570636E+01  0.4598598E+04 -0.3083674E+01  0.2005984E+05  0.1570953E+01
  0.3595238E+00  0.1272450E+05 -0.1570556E+01  0.5492531E+04 -0.3076077E+01  0.2287490E+05  0.1571030E+01
  0.3904762E+00  0.1446553E+05 -0.1570436E+01  0.6472877E+04 -0.3067233E+01  0.2595556E+05  0.1571147E+01
  0.4214286E+00  0.1640170E+05 -0.1570261E+01  0.7494723E+04 -0.3057053E+01  0.2940187E+05  0.1571318E+01
  0.4523810E+00  0.1854701E+05 -0.1570004E+01  0.8611140E+04 -0.3045603E+01  0.3323458E+05  0.1571568E+01
  0.4833333E+00  0.2090325E+05 -0.1569647E+01  0.9720742E+04 -0.3033496E+01  0.3740151E+05  0.1571916E+01
  0.5142857E+00  0.2349283E+05 -0.1569150E+01  0.1089813E+05 -0.3020689E+01  0.4192636E+05  0.1572401E+01
  0.5452381E+00  0.2624259E+05 -0.1568484E+01  0.1209848E+05 -0.3007850E+01  0.4677790E+05  0.1573050E+01
  0.5761905E+00  0.2919211E+05 -0.1567617E+01  0.1329933E+05 -0.2995007E+01  0.5200222E+05  0.1573895E+01
  0.6071429E+00  0.3238033E+05 -0.1566496E+01  0.1456155E+05 -0.2982337E+01  0.5759242E+05  0.1574988E+01
  0.6380953E+00  0.3571679E+05 -0.1565092E+01  0.1577507E+05 -0.2969791E+01  0.6334507E+05  0.1576361E+01
  0.6690477E+00  0.3922621E+05 -0.1563342E+01  0.1700004E+05 -0.2957442E+01  0.6942851E+05  0.1578070E+01
  0.7000000E+00  0.4292299E+05 -0.1561184E+01  0.1826813E+05 -0.2945621E+01  0.7587460E+05  0.1580174E+01
  0.7309524E+00  0.4673143E+05 -0.1558564E+01  0.1946450E+05 -0.2933556E+01  0.8246732E+05  0.1582730E+01
  0.7619048E+00  0.5077423E+05 -0.1555419E+01  0.2064222E+05 -0.2921611E+01  0.8941940E+05  0.1585801E+01
  0.7928572E+00  0.5505223E+05 -0.1551677E+01  0.2183321E+05 -0.2910333E+01  0.9661836E+05  0.1589467E+01
  0.8238096E+00  0.5942983E+05 -0.1547243E+01  0.2301160E+05 -0.2899534E+01  0.1040316E+06  0.1593805E+01
  0.8547620E+00  0.6394621E+05 -0.1542043E+01  0.2407339E+05 -0.2887975E+01  0.1116842E+06  0.1598887E+01
  0.8857143E+00  0.6863652E+05 -0.1536000E+01  0.2511686E+05 -0.2876905E+01  0.1196021E+06  0.1604794E+01
  0.9166667E+00  0.7356812E+05 -0.1529050E+01  0.2616453E+05 -0.2866739E+01  0.1278786E+06  0.1611590E+01
  0.9476191E+00  0.7861326E+05 -0.1521075E+01  0.2717991E+05 -0.2857107E+01  0.1363308E+06  0.1619384E+01
  0.9785714E+00  0.8383466E+05 -0.1512000E+01  0.2803134E+05 -0.2846460E+01  0.1448073E+06  0.1628291E+01
  0.1009524E+01  0.8924762E+05 -0.1501743E+01  0.2884928E+05 -0.2836312E+01  0.1536045E+06  0.1638355E+01
  0.1040476E+01  0.9477244E+05 -0.1490195E+01  0.2964343E+05 -0.2826896E+01  0.1625115E+06  0.1649691E+01
  0.1071429E+01  0.1004794E+06 -0.1477311E+01  0.3041881E+05 -0.2818278E+01  0.1717706E+06  0.1662315E+01
  0.1102381E+01  0.1061514E+06 -0.1462937E+01  0.3108842E+05 -0.2809592E+01  0.1808624E+06  0.1676407E+01
  0.1133333E+01  0.1119144E+06 -0.1447053E+01  0.3162261E+05 -0.2800259E+01  0.1900737E+06  0.1691972E+01
  0.1164286E+01  0.1177829E+06 -0.1429636E+01  0.3210813E+05 -0.2791373E+01  0.1993881E+06  0.1709034E+01
  0.1195238E+01  0.1236990E+06 -0.1410622E+01  0.3255776E+05 -0.2783131E+01  0.2085497E+06  0.1727707E+01
  0.1226190E+01  0.1297756E+06 -0.1390049E+01  0.3297103E+05 -0.2775557E+01  0.2177652E+06  0.1747950E+01
  0.1257143E+01  0.1354747E+06 -0.1367647E+01  0.3335244E+05 -0.2768499E+01  0.2263765E+06  0.1769953E+01
  0.1288095E+01  0.1413130E+06 -0.1343560E+01  0.3350972E+05 -0.2760781E+01  0.2348394E+06  0.1793721E+01
  0.1319048E+01  0.1469107E+06 -0.1317723E+01  0.3362699E+05 -0.2753041E+01  0.2431350E+06  0.1819098E+01
  0.1350000E+01  0.1522255E+06 -0.1290207E+01  0.3369189E+05 -0.2745728E+01  0.2508011E+06  0.1846137E+01
  0.1380952E+01  0.1572760E+06 -0.1261094E+01  0.3372378E+05 -0.2738908E+01  0.2579032E+06  0.1874764E+01
  0.1411905E+01  0.1617901E+06 -0.1230273E+01  0.3371386E+05 -0.2732347E+01  0.2643676E+06  0.1904876E+01
  0.1442857E+01  0.1659758E+06 -0.1198210E+01  0.3367986E+05 -0.2726368E+01  0.2700508E+06  0.1936279E+01
  0.1473810E+01  0.1695583E+06 -0.1164901E+01  0.3347139E+05 -0.2720060E+01  0.2744630E+06  0.1968945E+01
  0.1504762E+01  0.1726905E+06 -0.1130537E+01  0.3318386E+05 -0.2713544E+01  0.2781028E+06  0.2002634E+01
  0.1535714E+01  0.1754270E+06 -0.1095445E+01  0.3284454E+05 -0.2707261E+01  0.2810068E+06  0.2037032E+01
  0.1566667E+01  0.1772928E+06 -0.1059561E+01  0.3247067E+05 -0.2701352E+01  0.2822135E+06  0.2072321E+01
  0.1597619E+01  0.1785743E+06 -0.1023188E+01  0.3207334E+05 -0.2695666E+01  0.2825085E+06  0.2108070E+01
  0.1628572E+01  0.1792470E+06 -0.9865556E+00  0.3164620E+05 -0.2690150E+01  0.2818856E+06  0.2143966E+01
  0.1659524E+01  0.1790662E+06 -0.9497106E+00  0.3119311E+05 -0.2684908E+01  0.2800200E+06  0.2179954E+01
  0.1690476E+01  0.1780758E+06 -0.9130058E+00  0.3065018E+05 -0.2679882E+01  0.2767519E+06  0.2215777E+01
  0.1721429E+01  0.1763289E+06 -0.8767343E+00  0.3000880E+05 -0.2674796E+01  0.2721717E+06  0.2251194E+01
  0.1752381E+01  0.1740882E+06 -0.8409718E+00  0.2933292E+05 -0.2669495E+01  0.2670748E+06  0.2285974E+01
  0.1783333E+01  0.1712436E+06 -0.8060440E+00  0.2863378E+05 -0.2664350E+01  0.2609783E+06  0.2319907E+01
  0.1814286E+01  0.1676760E+06 -0.7719135E+00  0.2792175E+05 -0.2659412E+01  0.2536658E+06  0.2353134E+01
  0.1845238E+01  0.1636707E+06 -0.7388318E+00  0.2719713E+05 -0.2654594E+01  0.2458235E+06  0.2385264E+01
  0.1876190E+01  0.1592540E+06 -0.7068843E+00  0.2645315E+05 -0.2649823E+01  0.2374838E+06  0.2416092E+01
  0.1907143E+01  0.1543312E+06 -0.6757885E+00  0.2569636E+05 -0.2645059E+01  0.2285728E+06  0.2445928E+01
  0.1938095E+01  0.1489628E+06 -0.6458110E+00  0.2492528E+05 -0.2640448E+01  0.2190036E+06  0.2474607E+01
  0.1969048E+01  0.1431840E+06 -0.6171761E+00  0.2407909E+05 -0.2636319E+01  0.2086891E+06  0.2501960E+01
  0.2000000E+01  0.1372124E+06 -0.5896285E+00  0.2320956E+05 -0.2631918E+01  0.1983742E+06  0.2528172E+01
