VARIABLES="w (rad/s)"
"A   1   1" "B   1   1"
"A   1   2" "B   1   2"
"A   1   3" "B   1   3"
Zone t="Motion of body    1 in DoF   1",I=    64,F=POINT
  0.5000000E-01  0.2074267E+05  0.6268481E-03 -0.1144409E-03  0.1354786E-05 -0.2068043E+05 -0.4457268E-03
  0.8095238E-01  0.2077133E+05  0.2693837E-02  0.1024919E-02  0.4464975E-05 -0.2069288E+05 -0.1855583E-02
  0.1119048E+00  0.2080551E+05  0.7590657E-02  0.1244241E-02  0.5119655E-05 -0.2070703E+05 -0.5253561E-02
  0.1428571E+00  0.2085556E+05  0.1710856E-01 -0.2269745E-02 -0.1557007E-04 -0.2075656E+05 -0.1184879E-01
  0.1738095E+00  0.2090738E+05  0.3412748E-01 -0.9766670E-03 -0.1435372E-04 -0.2080760E+05 -0.2368203E-01
  0.2047619E+00  0.2093605E+05  0.6311838E-01  0.3539684E-03 -0.1271517E-04 -0.2082262E+05 -0.4386329E-01
  0.2357143E+00  0.2095024E+05  0.1112607E+00 -0.1278501E-02 -0.3340305E-04 -0.2083576E+05 -0.7740702E-01
  0.2666667E+00  0.2102457E+05  0.1902589E+00 -0.2496242E-02 -0.2930849E-04 -0.2089208E+05 -0.1324934E+00
  0.2976190E+00  0.2104719E+05  0.3196741E+00  0.4742432E-03  0.2542697E-04 -0.2091035E+05 -0.2229842E+00
  0.3285715E+00  0.2107577E+05  0.5301142E+00 -0.2472919E-02 -0.5467469E-04 -0.2092839E+05 -0.3703471E+00
  0.3595238E+00  0.2114506E+05  0.8728909E+00 -0.7851708E-03 -0.2130680E-04 -0.2098734E+05 -0.6108083E+00
  0.3904762E+00  0.2119314E+05  0.1427038E+01 -0.6350075E-03 -0.2667308E-04 -0.2102304E+05 -0.1000553E+01
  0.4214286E+00  0.2123266E+05  0.2302458E+01 -0.1004752E-02 -0.5795434E-04 -0.2105836E+05 -0.1618103E+01
  0.4523810E+00  0.2133639E+05  0.3685676E+01  0.1602173E-02  0.7114932E-04 -0.2113621E+05 -0.2595328E+01
  0.4833333E+00  0.2143331E+05  0.5756332E+01  0.2052044E-03  0.6867200E-04 -0.2121482E+05 -0.4063896E+01
  0.5142857E+00  0.2152424E+05  0.8841818E+01  0.4598830E-03 -0.7748604E-05 -0.2127338E+05 -0.6255956E+01
  0.5452381E+00  0.2154659E+05  0.1324565E+02 -0.5093371E-02 -0.5803704E-03 -0.2129574E+05 -0.9396008E+01
  0.5761905E+00  0.2166221E+05  0.1940713E+02 -0.7282603E-03 -0.9754300E-04 -0.2138462E+05 -0.1380389E+02
  0.6071429E+00  0.2182397E+05  0.2793628E+02 -0.7916618E-03 -0.1293719E-03 -0.2150953E+05 -0.1992662E+02
  0.6380953E+00  0.2192311E+05  0.3929544E+02  0.1817390E-02  0.2385378E-03 -0.2158671E+05 -0.2811025E+02
  0.6690477E+00  0.2200583E+05  0.5431883E+02  0.7754288E-03  0.3635883E-05 -0.2165047E+05 -0.3897556E+02
  0.7000000E+00  0.2211194E+05  0.7398408E+02  0.5013602E-03 -0.7760525E-04 -0.2174603E+05 -0.5325959E+02
  0.7309524E+00  0.2228492E+05  0.9931440E+02 -0.1085511E-02 -0.6792545E-03 -0.2186327E+05 -0.7167724E+02
  0.7619048E+00  0.2246091E+05  0.1316081E+03  0.1391888E-02  0.4413128E-03 -0.2200629E+05 -0.9530952E+02
  0.7928572E+00  0.2264905E+05  0.1723575E+03 -0.1096983E-02 -0.3690720E-03 -0.2214323E+05 -0.1252121E+03
  0.8238096E+00  0.2279520E+05  0.2230677E+03 -0.1203945E-03 -0.7295609E-04 -0.2225884E+05 -0.1625993E+03
  0.8547620E+00  0.2292996E+05  0.2856123E+03 -0.1963666E-03  0.3538132E-03 -0.2238534E+05 -0.2090002E+03
  0.8857143E+00  0.2308990E+05  0.3621798E+03  0.7752449E-03  0.6771088E-04 -0.2250938E+05 -0.2659107E+03
  0.9166667E+00  0.2335540E+05  0.4556585E+03 -0.5909313E-03 -0.2002716E-03 -0.2270125E+05 -0.3354378E+03
  0.9476191E+00  0.2358955E+05  0.5682150E+03 -0.7890097E-03 -0.1969337E-03 -0.2288504E+05 -0.4197092E+03
  0.9785714E+00  0.2381340E+05  0.7028723E+03  0.5925311E-03 -0.1573563E-03 -0.2306076E+05 -0.5209910E+03
  0.1009524E+01  0.2403573E+05  0.8629265E+03  0.7557419E-04 -0.1640320E-03 -0.2324921E+05 -0.6421825E+03
  0.1040476E+01  0.2426103E+05  0.1051864E+04  0.2141119E-02  0.1660347E-02 -0.2341529E+05 -0.7854503E+03
  0.1071429E+01  0.2448950E+05  0.1273394E+04 -0.9969076E-04 -0.7333755E-03 -0.2361455E+05 -0.9546281E+03
  0.1102381E+01  0.2469777E+05  0.1530473E+04 -0.2629916E-03 -0.1329422E-02 -0.2377680E+05 -0.1151096E+04
  0.1133333E+01  0.2496355E+05  0.1827688E+04  0.1023236E-02  0.9651184E-03 -0.2399159E+05 -0.1378439E+04
  0.1164286E+01  0.2524260E+05  0.2170069E+04 -0.1769271E-02 -0.1514435E-02 -0.2421844E+05 -0.1641971E+04
  0.1195238E+01  0.2551867E+05  0.2562088E+04  0.1659621E-02  0.1113892E-02 -0.2442335E+05 -0.1944357E+04
  0.1226190E+01  0.2580352E+05  0.3009069E+04 -0.8710843E-04  0.2746582E-03 -0.2465608E+05 -0.2291292E+04
  0.1257143E+01  0.2602195E+05  0.3512590E+04  0.4248185E-03  0.1773834E-02 -0.2484288E+05 -0.2684666E+04
  0.1288095E+01  0.2625895E+05  0.4080292E+04 -0.4383024E-03 -0.4272461E-03 -0.2502430E+05 -0.3128513E+04
  0.1319048E+01  0.2646361E+05  0.4714822E+04  0.6015378E-03  0.8544922E-03 -0.2522491E+05 -0.3630456E+04
  0.1350000E+01  0.2663504E+05  0.5417893E+04  0.6781684E-03  0.5607605E-03 -0.2537629E+05 -0.4187206E+04
  0.1380952E+01  0.2679582E+05  0.6192667E+04 -0.2541378E-03 -0.1327515E-02 -0.2550426E+05 -0.4800469E+04
  0.1411905E+01  0.2692860E+05  0.7032433E+04  0.6484342E-03 -0.9918213E-04 -0.2562678E+05 -0.5464873E+04
  0.1442857E+01  0.2707294E+05  0.7947186E+04  0.4653175E-03  0.1426697E-02 -0.2574534E+05 -0.6188022E+04
  0.1473810E+01  0.2716244E+05  0.8937022E+04  0.4658984E-03  0.7171631E-03 -0.2580711E+05 -0.6974686E+04
  0.1504762E+01  0.2721832E+05  0.1000339E+05 -0.6591217E-03 -0.2471924E-02 -0.2586832E+05 -0.7829776E+04
  0.1535714E+01  0.2723336E+05  0.1114343E+05 -0.4967978E-04  0.7324219E-03 -0.2590827E+05 -0.8751085E+04
  0.1566667E+01  0.2718299E+05  0.1234715E+05  0.4967223E-03  0.2243042E-02 -0.2587134E+05 -0.9724217E+04
  0.1597619E+01  0.2709581E+05  0.1361150E+05  0.5921593E-03 -0.1686096E-02 -0.2579743E+05 -0.1074454E+05
  0.1628572E+01  0.2698760E+05  0.1492383E+05  0.2248664E-03  0.1495361E-02 -0.2571495E+05 -0.1180063E+05
  0.1659524E+01  0.2681357E+05  0.1626808E+05  0.5057073E-03  0.7171631E-03 -0.2558433E+05 -0.1288549E+05
  0.1690476E+01  0.2657241E+05  0.1764572E+05  0.6498954E-03  0.6103516E-03 -0.2538408E+05 -0.1400092E+05
  0.1721429E+01  0.2627244E+05  0.1904698E+05  0.2925129E-03  0.1052856E-02 -0.2513705E+05 -0.1513979E+05
  0.1752381E+01  0.2592534E+05  0.2046498E+05 -0.4353731E-04 -0.3967285E-03 -0.2487759E+05 -0.1630686E+05
  0.1783333E+01  0.2552165E+05  0.2187727E+05  0.3080279E-03 -0.8544922E-03 -0.2455761E+05 -0.1746871E+05
  0.1814286E+01  0.2507261E+05  0.2326777E+05  0.8158046E-03  0.1022339E-02 -0.2418306E+05 -0.1860648E+05
  0.1845238E+01  0.2460362E+05  0.2462426E+05 -0.3307712E-04  0.1068115E-03 -0.2378608E+05 -0.1970057E+05
  0.1876190E+01  0.2411073E+05  0.2595428E+05  0.9596772E-03 -0.7934570E-03 -0.2338063E+05 -0.2077946E+05
  0.1907143E+01  0.2355679E+05  0.2722999E+05 -0.2640285E-03  0.1281738E-02 -0.2293898E+05 -0.2183493E+05
  0.1938095E+01  0.2296937E+05  0.2844228E+05 -0.1574617E-03  0.7019043E-03 -0.2245679E+05 -0.2283160E+05
  0.1969048E+01  0.2234094E+05  0.2957055E+05 -0.1937331E-03  0.1586914E-02 -0.2192274E+05 -0.2374244E+05
  0.2000000E+01  0.2171504E+05  0.3063004E+05 -0.6866455E-04 -0.7781982E-03 -0.2141333E+05 -0.2461476E+05
Zone t="Motion of body    1 in DoF   2",I=    64,F=POINT
  0.5000000E-01  0.4959106E-03  0.1609325E-05  0.2408574E+05  0.2985950E+02  0.8392334E-03  0.2145767E-05
  0.8095238E-01  0.1225191E-02  0.1788139E-05  0.2420632E+05  0.4952807E+02 -0.1130946E-02 -0.6675720E-05
  0.1119048E+00 -0.4261098E-03  0.2145767E-05  0.2410288E+05  0.7096307E+02  0.4090654E-03 -0.5722046E-05
  0.1428571E+00  0.4940033E-03  0.5483627E-05  0.2407903E+05  0.9501540E+02  0.8544921E-03 -0.1764297E-04
  0.1738095E+00  0.3621349E-03 -0.1192093E-05  0.2407269E+05  0.1227048E+03 -0.4126144E-02  0.5722046E-05
  0.2047619E+00 -0.3353385E-03 -0.5006790E-05  0.2406168E+05  0.1553620E+03  0.5216377E-03 -0.1144409E-04
  0.2357143E+00 -0.1327052E-02  0.6675720E-05  0.2412608E+05  0.1948233E+03  0.3236713E-03  0.8583069E-05
  0.2666667E+00 -0.6580352E-03 -0.1049042E-04  0.2414085E+05  0.2426974E+03  0.2231598E-02 -0.9536743E-06
  0.2976190E+00 -0.1281738E-02 -0.2050400E-04  0.2422498E+05  0.3024675E+03  0.1845703E-02  0.2098083E-04
  0.3285715E+00  0.5456675E-03 -0.2574921E-04  0.2425984E+05  0.3761335E+03  0.3715183E-03 -0.2479553E-04
  0.3595238E+00  0.8488332E-04  0.1811981E-04  0.2436388E+05  0.4678910E+03  0.5517416E-02 -0.6294250E-04
  0.3904762E+00  0.1426324E-02  0.3242493E-04  0.2437778E+05  0.5811501E+03 -0.1563095E-03 -0.5149841E-04
  0.4214286E+00  0.1538810E-02  0.5722046E-04  0.2446838E+05  0.7150646E+03 -0.3475900E-02 -0.6103516E-04
  0.4523810E+00  0.2867046E-03 -0.6294250E-04  0.2443680E+05  0.8769412E+03 -0.1349198E-02 -0.3051758E-04
  0.4833333E+00  0.6156132E-03 -0.1335144E-03  0.2443575E+05  0.1053533E+04 -0.1957334E-02  0.1831055E-03
  0.5142857E+00  0.1186795E-02 -0.4959106E-04  0.2438816E+05  0.1253581E+04 -0.4272461E-02  0.8773804E-04
  0.5452381E+00  0.7276244E-03 -0.1106262E-03  0.2428722E+05  0.1466986E+04 -0.2294815E-02 -0.0000000E+00
  0.5761905E+00 -0.7017781E-03  0.5722046E-04  0.2426202E+05  0.1688998E+04  0.3389721E-02 -0.3051758E-04
  0.6071429E+00 -0.4021139E-03  0.1296997E-03  0.2406919E+05  0.1927249E+04 -0.1910041E-02 -0.3967285E-03
  0.6380953E+00 -0.9565211E-04  0.4959106E-04  0.2392543E+05  0.2165811E+04  0.1913042E-02  0.7629395E-05
  0.6690477E+00 -0.2166639E-03 -0.1258850E-03  0.2383151E+05  0.2409995E+04 -0.2371900E-02 -0.3204346E-03
  0.7000000E+00  0.7847377E-03 -0.8392334E-04  0.2359401E+05  0.2663589E+04 -0.1482282E-02 -0.2136230E-03
  0.7309524E+00 -0.7932581E-03  0.4959106E-03  0.2339624E+05  0.2916095E+04  0.2421525E-02 -0.3967285E-03
  0.7619048E+00  0.5307197E-03 -0.3814697E-04  0.2325155E+05  0.3168258E+04 -0.3204345E-02  0.4272461E-03
  0.7928572E+00 -0.1250946E-03  0.2517700E-03  0.2301269E+05  0.3421264E+04  0.0000000E+00 -0.1983643E-03
  0.8238096E+00  0.1416950E-02  0.7629395E-05  0.2276139E+05  0.3672117E+04 -0.7408892E-04  0.6408691E-03
  0.8547620E+00 -0.3213271E-03  0.3814697E-04  0.2254205E+05  0.3916836E+04  0.7140603E-04 -0.9460449E-03
  0.8857143E+00 -0.8786109E-03  0.7095337E-03  0.2236545E+05  0.4151709E+04  0.1998409E-02 -0.4425049E-03
  0.9166667E+00  0.1831055E-02 -0.1754761E-03  0.2208645E+05  0.4381972E+04 -0.6658381E-03 -0.5493164E-03
  0.9476191E+00  0.2093291E-03  0.4730225E-03  0.2181480E+05  0.4602194E+04 -0.6440896E-04 -0.6103516E-04
  0.9785714E+00 -0.4989735E-03 -0.4272461E-03  0.2156726E+05  0.4809275E+04  0.3742301E-03  0.1983643E-03
  0.1009524E+01  0.4307729E-03  0.6713867E-03  0.2136035E+05  0.5000370E+04  0.1571943E-02 -0.1358032E-02
  0.1040476E+01 -0.4106255E-03 -0.1190186E-02  0.2112570E+05  0.5175285E+04  0.2991700E-02  0.1373291E-02
  0.1071429E+01 -0.6195069E-03  0.4730225E-03  0.2083846E+05  0.5339326E+04  0.6835938E-03 -0.1037598E-02
  0.1102381E+01  0.7059249E-03 -0.6713867E-03  0.2057481E+05  0.5484229E+04 -0.1661000E-03  0.1678467E-02
  0.1133333E+01 -0.3298591E-03  0.3509521E-03  0.2034488E+05  0.5613057E+04 -0.1992618E-02  0.5187988E-03
  0.1164286E+01  0.7994482E-03 -0.1510620E-02  0.2015171E+05  0.5720856E+04 -0.2673564E-02 -0.8544922E-03
  0.1195238E+01  0.3191579E-03  0.5950928E-03  0.1995286E+05  0.5806482E+04 -0.3574569E-03 -0.1647949E-02
  0.1226190E+01  0.1169742E-02 -0.6256104E-03  0.1968858E+05  0.5878473E+04 -0.2090602E-02  0.3051758E-04
  0.1257143E+01 -0.9103255E-04  0.1525879E-03  0.1945428E+05  0.5933229E+04 -0.1407970E-02  0.1220703E-02
  0.1288095E+01  0.7936826E-03  0.1983643E-03  0.1924230E+05  0.5962226E+04 -0.5686085E-03 -0.1220703E-02
  0.1319048E+01 -0.6535939E-03 -0.1220703E-03  0.1907135E+05  0.5978917E+04 -0.1203076E-02 -0.1007080E-02
  0.1350000E+01 -0.3334328E-03 -0.1037598E-02  0.1893299E+05  0.5972814E+04 -0.9042245E-03  0.1037598E-02
  0.1380952E+01  0.5856218E-03  0.8239746E-03  0.1878219E+05  0.5943568E+04 -0.3093851E-03 -0.2624512E-02
  0.1411905E+01  0.1567049E-03 -0.2746582E-03  0.1857642E+05  0.5900615E+04 -0.2464050E-02  0.1403809E-02
  0.1442857E+01 -0.1321925E-04 -0.5187988E-03  0.1840654E+05  0.5844841E+04 -0.4230159E-04 -0.1037598E-02
  0.1473810E+01  0.9162668E-03 -0.2441406E-03  0.1825247E+05  0.5768300E+04 -0.5383714E-03 -0.3356934E-03
  0.1504762E+01  0.6654594E-03  0.9765625E-03  0.1813376E+05  0.5686734E+04 -0.3244907E-03 -0.2136230E-03
  0.1535714E+01  0.1949931E-03 -0.2899170E-03  0.1804709E+05  0.5594727E+04 -0.9141078E-03  0.2441406E-03
  0.1566667E+01  0.5387245E-03  0.4577637E-03  0.1799115E+05  0.5488678E+04 -0.1792096E-02 -0.1525879E-03
  0.1597619E+01  0.1230282E-02  0.7629395E-03  0.1790022E+05  0.5355387E+04 -0.1604561E-02 -0.1068115E-02
  0.1628572E+01  0.9934525E-03 -0.1052856E-02  0.1777424E+05  0.5205502E+04 -0.3372995E-03 -0.9765625E-03
  0.1659524E+01  0.1298748E-03  0.2593994E-03  0.1768236E+05  0.5057072E+04 -0.2942297E-03  0.2624512E-02
  0.1690476E+01 -0.3971583E-03 -0.6103516E-04  0.1760344E+05  0.4893745E+04 -0.6860007E-03 -0.1098633E-02
  0.1721429E+01  0.3191050E-03  0.2960205E-02  0.1754659E+05  0.4732595E+04 -0.3545611E-03 -0.3143311E-02
  0.1752381E+01 -0.2612238E-04 -0.1983643E-03  0.1752071E+05  0.4584930E+04 -0.4876179E-03  0.1983643E-02
  0.1783333E+01  0.5347707E-04  0.9002686E-03  0.1751684E+05  0.4437315E+04 -0.8898583E-03  0.4577637E-03
  0.1814286E+01  0.2544133E-03 -0.4730225E-03  0.1753631E+05  0.4292827E+04 -0.1009243E-02 -0.9613037E-03
  0.1845238E+01 -0.6780809E-03 -0.2578735E-02  0.1751164E+05  0.4102375E+04 -0.8269279E-03  0.2380371E-02
  0.1876190E+01 -0.1382586E-03 -0.3662109E-03  0.1746163E+05  0.3890547E+04 -0.9108800E-03  0.1098633E-02
  0.1907143E+01  0.8440911E-03  0.3051758E-04  0.1744061E+05  0.3702316E+04  0.0000000E+00 -0.1022339E-02
  0.1938095E+01  0.7243239E-03  0.1358032E-02  0.1742918E+05  0.3510256E+04  0.0000000E+00  0.6103516E-03
  0.1969048E+01  0.3642183E-03 -0.1007080E-02  0.1742891E+05  0.3318477E+04 -0.6199460E-03  0.6103516E-03
  0.2000000E+01  0.7019043E-03  0.9307861E-03  0.1744465E+05  0.3157961E+04 -0.6713867E-03 -0.1632690E-02
Zone t="Motion of body    1 in DoF   3",I=    64,F=POINT
  0.5000000E-01 -0.2073045E+05 -0.4432312E-03  0.7247925E-03 -0.1731599E-05  0.4422284E+05  0.3185987E-03
  0.8095238E-01 -0.2069617E+05 -0.1865715E-02 -0.2379698E-02 -0.6843202E-05  0.4438528E+05  0.1309039E-02
  0.1119048E+00 -0.2071200E+05 -0.5242385E-02  0.4499719E-02  0.1671735E-04  0.4440920E+05  0.3640705E-02
  0.1428571E+00 -0.2075988E+05 -0.1180973E-01 -0.5340576E-03  0.4047717E-05  0.4446534E+05  0.8151932E-02
  0.1738095E+00 -0.2081846E+05 -0.2360165E-01 -0.3972511E-02 -0.2260017E-04  0.4452291E+05  0.1632016E-01
  0.2047619E+00 -0.2083583E+05 -0.4376743E-01 -0.2067921E-02 -0.4513247E-05  0.4448269E+05  0.3038459E-01
  0.2357143E+00 -0.2084085E+05 -0.7718737E-01  0.1424154E-02  0.3851508E-04  0.4453419E+05  0.5374548E-01
  0.2666667E+00 -0.2091004E+05 -0.1321980E+00  0.3490448E-02  0.2056803E-04  0.4454050E+05  0.9211756E-01
  0.2976190E+00 -0.2091654E+05 -0.2223420E+00 -0.2127686E-02 -0.2764468E-04  0.4457968E+05  0.1550649E+00
  0.3285715E+00 -0.2094519E+05 -0.3694111E+00  0.5921073E-02  0.1145075E-03  0.4456878E+05  0.2580533E+00
  0.3595238E+00 -0.2099167E+05 -0.6091361E+00  0.5092999E-02  0.1628753E-03  0.4465749E+05  0.4262356E+00
  0.3904762E+00 -0.2103939E+05 -0.9977767E+00  0.3516964E-02  0.1197280E-03  0.4462510E+05  0.6998420E+00
  0.4214286E+00 -0.2106004E+05 -0.1613344E+01 -0.2987102E-02 -0.1459643E-03  0.4474602E+05  0.1134423E+01
  0.4523810E+00 -0.2115920E+05 -0.2588126E+01 -0.3372995E-02 -0.2395920E-03  0.4473812E+05  0.1823013E+01
  0.4833333E+00 -0.2123755E+05 -0.4051622E+01 -0.3962023E-02 -0.3670752E-03  0.4483625E+05  0.2860512E+01
  0.5142857E+00 -0.2129025E+05 -0.6238421E+01  0.2907647E-02  0.3583580E-03  0.4484834E+05  0.4413717E+01
  0.5452381E+00 -0.2131221E+05 -0.9368955E+01  0.5611103E-02  0.5636513E-03  0.4484792E+05  0.6646189E+01
  0.5761905E+00 -0.2138680E+05 -0.1376376E+02 -0.7944658E-04 -0.2709031E-04  0.4500218E+05  0.9789057E+01
  0.6071429E+00 -0.2153462E+05 -0.1986642E+02  0.3845214E-02  0.8185506E-03  0.4502710E+05  0.1417044E+02
  0.6380953E+00 -0.2160979E+05 -0.2802254E+02 -0.5021736E-03  0.1047552E-03  0.4508831E+05  0.2004581E+02
  0.6690477E+00 -0.2164735E+05 -0.3885741E+02 -0.3352589E-02  0.1490116E-04  0.4520536E+05  0.2788468E+02
  0.7000000E+00 -0.2176050E+05 -0.5307164E+02  0.2201625E-02  0.4981756E-03  0.4522784E+05  0.3820807E+02
  0.7309524E+00 -0.2188378E+05 -0.7144589E+02  0.2692903E-02  0.6633401E-03  0.4528168E+05  0.5155752E+02
  0.7619048E+00 -0.2201605E+05 -0.9498804E+02 -0.1622200E-02 -0.2839565E-03  0.4546827E+05  0.6878343E+02
  0.7928572E+00 -0.2215602E+05 -0.1248073E+03  0.3906799E-02  0.1057744E-02  0.4551448E+05  0.9066994E+02
  0.8238096E+00 -0.2227466E+05 -0.1620616E+03  0.4019324E-02  0.1025677E-02  0.4558513E+05  0.1181455E+03
  0.8547620E+00 -0.2239796E+05 -0.2081913E+03 -0.1071090E-03 -0.4398823E-03  0.4573453E+05  0.1523815E+03
  0.8857143E+00 -0.2250133E+05 -0.2648899E+03 -0.3600582E-02 -0.1990795E-03  0.4588811E+05  0.1945066E+03
  0.9166667E+00 -0.2271088E+05 -0.3342021E+03  0.2230557E-02 -0.7724762E-04  0.4595406E+05  0.2459582E+03
  0.9476191E+00 -0.2290215E+05 -0.4181134E+03  0.1561917E-02  0.9012222E-03  0.4607905E+05  0.3087701E+03
  0.9785714E+00 -0.2307770E+05 -0.5189955E+03 -0.2572832E-02 -0.1553535E-02  0.4622233E+05  0.3846702E+03
  0.1009524E+01 -0.2325430E+05 -0.6395668E+03  0.2448604E-02  0.1284122E-02  0.4644096E+05  0.4760660E+03
  0.1040476E+01 -0.2340693E+05 -0.7825906E+03 -0.6657999E-02 -0.4352570E-02  0.4655764E+05  0.5845609E+03
  0.1071429E+01 -0.2361596E+05 -0.9506055E+03 -0.6408691E-03 -0.1321793E-02  0.4669039E+05  0.7129007E+03
  0.1102381E+01 -0.2377527E+05 -0.1146245E+04 -0.2131616E-02  0.8201599E-03  0.4678736E+05  0.8623138E+03
  0.1133333E+01 -0.2399754E+05 -0.1372176E+04 -0.4039091E-02 -0.1287460E-02  0.4697775E+05  0.1034510E+04
  0.1164286E+01 -0.2421872E+05 -0.1634188E+04  0.1992068E-02  0.2222061E-02  0.4721239E+05  0.1236133E+04
  0.1195238E+01 -0.2441193E+05 -0.1936070E+04  0.2936253E-03  0.3147125E-03  0.4737318E+05  0.1468891E+04
  0.1226190E+01 -0.2465955E+05 -0.2280930E+04  0.1119966E-03 -0.7953644E-03  0.4750632E+05  0.1736289E+04
  0.1257143E+01 -0.2484804E+05 -0.2671784E+04 -0.5340576E-03 -0.4844666E-03  0.4765259E+05  0.2042119E+04
  0.1288095E+01 -0.2502377E+05 -0.3114651E+04 -0.8055287E-03 -0.7171631E-03  0.4776537E+05  0.2388565E+04
  0.1319048E+01 -0.2522170E+05 -0.3612111E+04 -0.1365028E-02 -0.5378723E-03  0.4801078E+05  0.2783234E+04
  0.1350000E+01 -0.2535471E+05 -0.4165893E+04 -0.2057111E-02 -0.1068115E-02  0.4818399E+05  0.3222998E+04
  0.1380952E+01 -0.2546899E+05 -0.4777568E+04  0.1038650E-02  0.2727509E-02  0.4828894E+05  0.3707038E+04
  0.1411905E+01 -0.2560297E+05 -0.5436695E+04  0.3458316E-03 -0.3929138E-03  0.4832632E+05  0.4224663E+04
  0.1442857E+01 -0.2573491E+05 -0.6155320E+04 -0.1480556E-03 -0.2548218E-02  0.4841784E+05  0.4790177E+04
  0.1473810E+01 -0.2579241E+05 -0.6939473E+04  0.7454374E-03 -0.1831055E-02  0.4842706E+05  0.5412898E+04
  0.1504762E+01 -0.2585499E+05 -0.7788116E+04  0.7301040E-03  0.2792358E-02  0.4850664E+05  0.6094174E+04
  0.1535714E+01 -0.2589369E+05 -0.8701232E+04 -0.3775663E-03  0.5950928E-03  0.4861597E+05  0.6835505E+04
  0.1566667E+01 -0.2583689E+05 -0.9669721E+04 -0.1870013E-02 -0.3509521E-03  0.4862181E+05  0.7622523E+04
  0.1597619E+01 -0.2575461E+05 -0.1068785E+05 -0.2215822E-02  0.1441956E-02  0.4854726E+05  0.8442975E+04
  0.1628572E+01 -0.2568657E+05 -0.1173535E+05  0.3372995E-03 -0.1426697E-02  0.4841733E+05  0.9275775E+04
  0.1659524E+01 -0.2556758E+05 -0.1281126E+05  0.3493978E-03  0.1922607E-02  0.4832104E+05  0.1014076E+05
  0.1690476E+01 -0.2536561E+05 -0.1392058E+05 -0.4657584E-02 -0.1647949E-02  0.4813075E+05  0.1103747E+05
  0.1721429E+01 -0.2511748E+05 -0.1505276E+05 -0.7623063E-03  0.9384155E-03  0.4791690E+05  0.1195727E+05
  0.1752381E+01 -0.2486363E+05 -0.1620779E+05 -0.9404059E-03 -0.1968384E-02  0.4777886E+05  0.1291666E+05
  0.1783333E+01 -0.2453883E+05 -0.1735969E+05 -0.2738026E-02 -0.3356934E-02  0.4757373E+05  0.1387521E+05
  0.1814286E+01 -0.2414898E+05 -0.1849249E+05 -0.2691314E-03 -0.1541138E-02  0.4729768E+05  0.1481231E+05
  0.1845238E+01 -0.2375148E+05 -0.1958811E+05  0.0000000E+00 -0.2838135E-02  0.4694177E+05  0.1568316E+05
  0.1876190E+01 -0.2336073E+05 -0.2065607E+05 -0.2635046E-02 -0.2624512E-02  0.4653190E+05  0.1651907E+05
  0.1907143E+01 -0.2293089E+05 -0.2169854E+05  0.1264136E-02 -0.4730225E-03  0.4619143E+05  0.1738640E+05
  0.1938095E+01 -0.2245346E+05 -0.2268374E+05  0.1637602E-02 -0.7324219E-03  0.4578202E+05  0.1819336E+05
  0.1969048E+01 -0.2191354E+05 -0.2359006E+05  0.2789757E-03 -0.7781982E-03  0.4529856E+05  0.1891279E+05
  0.2000000E+01 -0.2141164E+05 -0.2445210E+05  0.1220703E-03  0.1052856E-02  0.4490868E+05  0.1963145E+05
