VARIABLES="w (rad/s)"
"abs(F   1   1)" "angle(F   1   1)"
"abs(F   1   2)" "angle(F   1   2)"
"abs(F   1   3)" "angle(F   1   3)"
Zone t="Diffraction force - beta =   0.000 deg",I=    64,F=POINT
  0.5000000E-01  0.5724653E+04 -0.1570790E+01  0.4184524E+03 -0.3093687E+01  0.2095142E+05  0.1570803E+01
  0.8095238E-01  0.9361884E+04 -0.1570779E+01  0.1083834E+04 -0.3092181E+01  0.3422697E+05  0.1570814E+01
  0.1119048E+00  0.1306669E+05 -0.1570761E+01  0.2050582E+04 -0.3090269E+01  0.4773339E+05  0.1570831E+01
  0.1428571E+00  0.1689991E+05 -0.1570735E+01  0.3320674E+04 -0.3087972E+01  0.6168764E+05  0.1570857E+01
  0.1738095E+00  0.2088897E+05 -0.1570696E+01  0.4886664E+04 -0.3085113E+01  0.7619353E+05  0.1570896E+01
  0.2047619E+00  0.2507382E+05 -0.1570640E+01  0.6743918E+04 -0.3081467E+01  0.9135275E+05  0.1570951E+01
  0.2357143E+00  0.2953832E+05 -0.1570559E+01  0.8907067E+04 -0.3077049E+01  0.1074933E+06  0.1571031E+01
  0.2666667E+00  0.3432542E+05 -0.1570442E+01  0.1132842E+05 -0.3071602E+01  0.1246719E+06  0.1571147E+01
  0.2976190E+00  0.3950862E+05 -0.1570268E+01  0.1405001E+05 -0.3064895E+01  0.1432749E+06  0.1571319E+01
  0.3285715E+00  0.4515571E+05 -0.1570013E+01  0.1699244E+05 -0.3056841E+01  0.1635425E+06  0.1571571E+01
  0.3595238E+00  0.5143810E+05 -0.1569635E+01  0.2021100E+05 -0.3047339E+01  0.1858152E+06  0.1571945E+01
  0.3904762E+00  0.5828732E+05 -0.1569075E+01  0.2355388E+05 -0.3035843E+01  0.2101050E+06  0.1572499E+01
  0.4214286E+00  0.6595102E+05 -0.1568268E+01  0.2710649E+05 -0.3023694E+01  0.2373009E+06  0.1573297E+01
  0.4523810E+00  0.7436520E+05 -0.1567094E+01  0.3066172E+05 -0.3008833E+01  0.2668251E+06  0.1574459E+01
  0.4833333E+00  0.8365934E+05 -0.1565494E+01  0.3427790E+05 -0.2994808E+01  0.2990354E+06  0.1576044E+01
  0.5142857E+00  0.9362670E+05 -0.1563293E+01  0.3786394E+05 -0.2979414E+01  0.3336487E+06  0.1578222E+01
  0.5452381E+00  0.1043652E+06 -0.1560409E+01  0.4132754E+05 -0.2964137E+01  0.3710950E+06  0.1581071E+01
  0.5761905E+00  0.1159915E+06 -0.1556735E+01  0.4484199E+05 -0.2950350E+01  0.4108765E+06  0.1584706E+01
  0.6071429E+00  0.1281479E+06 -0.1552056E+01  0.4796976E+05 -0.2934792E+01  0.4519914E+06  0.1589342E+01
  0.6380953E+00  0.1409420E+06 -0.1546329E+01  0.5105354E+05 -0.2921324E+01  0.4949711E+06  0.1595014E+01
  0.6690477E+00  0.1543925E+06 -0.1539361E+01  0.5413660E+05 -0.2908988E+01  0.5403128E+06  0.1601900E+01
  0.7000000E+00  0.1681252E+06 -0.1530932E+01  0.5666314E+05 -0.2894988E+01  0.5860588E+06  0.1610232E+01
  0.7309524E+00  0.1825899E+06 -0.1521013E+01  0.5911080E+05 -0.2882491E+01  0.6330615E+06  0.1620062E+01
  0.7619048E+00  0.1977127E+06 -0.1509408E+01  0.6148086E+05 -0.2871058E+01  0.6818078E+06  0.1631560E+01
  0.7928572E+00  0.2127893E+06 -0.1495852E+01  0.6340892E+05 -0.2859301E+01  0.7296319E+06  0.1644997E+01
  0.8238096E+00  0.2283682E+06 -0.1480285E+01  0.6501375E+05 -0.2847394E+01  0.7791684E+06  0.1660391E+01
  0.8547620E+00  0.2439585E+06 -0.1462541E+01  0.6647513E+05 -0.2836474E+01  0.8278562E+06  0.1677943E+01
  0.8857143E+00  0.2599176E+06 -0.1442658E+01  0.6780810E+05 -0.2826417E+01  0.8769932E+06  0.1697599E+01
  0.9166667E+00  0.2754881E+06 -0.1420419E+01  0.6860508E+05 -0.2816244E+01  0.9228839E+06  0.1719655E+01
  0.9476191E+00  0.2911874E+06 -0.1395850E+01  0.6907730E+05 -0.2805834E+01  0.9690412E+06  0.1743980E+01
  0.9785714E+00  0.3061662E+06 -0.1368792E+01  0.6936764E+05 -0.2796138E+01  0.1011117E+07  0.1770837E+01
  0.1009524E+01  0.3208525E+06 -0.1339400E+01  0.6950618E+05 -0.2787025E+01  0.1052005E+07  0.1799942E+01
  0.1040476E+01  0.3341372E+06 -0.1307449E+01  0.6936330E+05 -0.2778468E+01  0.1087492E+07  0.1831557E+01
  0.1071429E+01  0.3461038E+06 -0.1273109E+01  0.6869998E+05 -0.2769555E+01  0.1118147E+07  0.1865488E+01
  0.1102381E+01  0.3569060E+06 -0.1236841E+01  0.6785738E+05 -0.2760917E+01  0.1144486E+07  0.1901256E+01
  0.1133333E+01  0.3660779E+06 -0.1198986E+01  0.6687168E+05 -0.2752717E+01  0.1163300E+07  0.1938755E+01
  0.1164286E+01  0.3738105E+06 -0.1159710E+01  0.6576300E+05 -0.2744982E+01  0.1177421E+07  0.1977575E+01
  0.1195238E+01  0.3789778E+06 -0.1118868E+01  0.6449234E+05 -0.2737787E+01  0.1182998E+07  0.2017892E+01
  0.1226190E+01  0.3815315E+06 -0.1076873E+01  0.6277298E+05 -0.2731190E+01  0.1179328E+07  0.2059363E+01
  0.1257143E+01  0.3821171E+06 -0.1033947E+01  0.6089059E+05 -0.2724094E+01  0.1171002E+07  0.2101481E+01
  0.1288095E+01  0.3803416E+06 -0.9916456E+00  0.5895541E+05 -0.2717961E+01  0.1153062E+07  0.2143252E+01
  0.1319048E+01  0.3764335E+06 -0.9493953E+00  0.5693926E+05 -0.2711763E+01  0.1128905E+07  0.2184891E+01
  0.1350000E+01  0.3705002E+06 -0.9076287E+00  0.5486717E+05 -0.2705954E+01  0.1099495E+07  0.2225895E+01
  0.1380952E+01  0.3619793E+06 -0.8662951E+00  0.5273659E+05 -0.2700916E+01  0.1062296E+07  0.2266410E+01
  0.1411905E+01  0.3500763E+06 -0.8259034E+00  0.5036723E+05 -0.2697075E+01  0.1015938E+07  0.2305519E+01
  0.1442857E+01  0.3380688E+06 -0.7867822E+00  0.4791654E+05 -0.2692966E+01  0.9700576E+06  0.2343637E+01
  0.1473810E+01  0.3243804E+06 -0.7491866E+00  0.4549557E+05 -0.2689214E+01  0.9193686E+06  0.2380180E+01
  0.1504762E+01  0.3093900E+06 -0.7132658E+00  0.4313536E+05 -0.2685940E+01  0.8654608E+06  0.2415164E+01
  0.1535714E+01  0.2935442E+06 -0.6789594E+00  0.4075121E+05 -0.2682945E+01  0.8108031E+06  0.2448105E+01
  0.1566667E+01  0.2767655E+06 -0.6461456E+00  0.3841161E+05 -0.2680325E+01  0.7549911E+06  0.2479427E+01
  0.1597619E+01  0.2591375E+06 -0.6151170E+00  0.3611749E+05 -0.2678632E+01  0.6973714E+06  0.2508825E+01
  0.1628572E+01  0.2408414E+06 -0.5857563E+00  0.3382170E+05 -0.2677942E+01  0.6385178E+06  0.2536520E+01
  0.1659524E+01  0.2225405E+06 -0.5577081E+00  0.3151024E+05 -0.2677778E+01  0.5821110E+06  0.2562784E+01
  0.1690476E+01  0.2041438E+06 -0.5313983E+00  0.2928373E+05 -0.2677947E+01  0.5266491E+06  0.2586996E+01
  0.1721429E+01  0.1855503E+06 -0.5067904E+00  0.2720577E+05 -0.2678506E+01  0.4712188E+06  0.2609380E+01
  0.1752381E+01  0.1671952E+06 -0.4835929E+00  0.2519783E+05 -0.2679793E+01  0.4182056E+06  0.2629923E+01
  0.1783333E+01  0.1491815E+06 -0.4617949E+00  0.2325101E+05 -0.2681940E+01  0.3678369E+06  0.2648490E+01
  0.1814286E+01  0.1312268E+06 -0.4404853E+00  0.2140327E+05 -0.2684646E+01  0.3188981E+06  0.2666116E+01
  0.1845238E+01  0.1135956E+06 -0.4204320E+00  0.1966208E+05 -0.2687996E+01  0.2718725E+06  0.2681446E+01
  0.1876190E+01  0.9625585E+05 -0.4011905E+00  0.1801107E+05 -0.2692278E+01  0.2265509E+06  0.2694557E+01
  0.1907143E+01  0.7953178E+05 -0.3819664E+00  0.1641623E+05 -0.2698239E+01  0.1845295E+06  0.2706419E+01
  0.1938095E+01  0.6337420E+05 -0.3623257E+00  0.1487402E+05 -0.2706264E+01  0.1452512E+06  0.2715922E+01
  0.1969048E+01  0.4764956E+05 -0.3417976E+00  0.1354321E+05 -0.2712100E+01  0.1077550E+06  0.2719893E+01
  0.2000000E+01  0.3254763E+05 -0.3168534E+00  0.1231083E+05 -0.2719025E+01  0.7297386E+05  0.2716402E+01
