VARIABLES="w (rad/s)"
"abs(F   1   1)" "angle(F   1   1)"
"abs(F   1   2)" "angle(F   1   2)"
"abs(F   1   3)" "angle(F   1   3)"
Zone t="Diffraction force - beta =   0.000 deg",I=    64,F=POINT
  0.5000000E-01  0.1916065E+04 -0.1570806E+01  0.1345132E+06 -0.9096826E-05  0.4244605E+04  0.1570804E+01
  0.8095238E-01  0.3133316E+04 -0.1570804E+01  0.1341662E+06 -0.2445411E-04  0.6940602E+04  0.1570809E+01
  0.1119048E+00  0.4374359E+04 -0.1570802E+01  0.1336561E+06 -0.4850040E-04  0.9686396E+04  0.1570802E+01
  0.1428571E+00  0.5657176E+04 -0.1570796E+01  0.1329832E+06 -0.8305424E-04  0.1251628E+05  0.1570785E+01
  0.1738095E+00  0.6993551E+04 -0.1570786E+01  0.1321476E+06 -0.1307591E-03  0.1546298E+05  0.1570804E+01
  0.2047619E+00  0.8395554E+04 -0.1570787E+01  0.1311525E+06 -0.1955992E-03  0.1854933E+05  0.1570809E+01
  0.2357143E+00  0.9889078E+04 -0.1570782E+01  0.1299964E+06 -0.2833091E-03  0.2182361E+05  0.1570812E+01
  0.2666667E+00  0.1148673E+05 -0.1570771E+01  0.1286825E+06 -0.4006356E-03  0.2533407E+05  0.1570823E+01
  0.2976190E+00  0.1321587E+05 -0.1570760E+01  0.1272134E+06 -0.5597773E-03  0.2911368E+05  0.1570835E+01
  0.3285715E+00  0.1511113E+05 -0.1570744E+01  0.1255922E+06 -0.7720386E-03  0.3323443E+05  0.1570848E+01
  0.3595238E+00  0.1718151E+05 -0.1570717E+01  0.1238243E+06 -0.1056814E-02  0.3774423E+05  0.1570876E+01
  0.3904762E+00  0.1946609E+05 -0.1570678E+01  0.1219176E+06 -0.1434306E-02  0.4270400E+05  0.1570916E+01
  0.4214286E+00  0.2199689E+05 -0.1570617E+01  0.1198760E+06 -0.1917538E-02  0.4816391E+05  0.1570976E+01
  0.4523810E+00  0.2476552E+05 -0.1570532E+01  0.1177203E+06 -0.2545618E-02  0.5413337E+05  0.1571061E+01
  0.4833333E+00  0.2779914E+05 -0.1570413E+01  0.1154384E+06 -0.3294601E-02  0.6066700E+05  0.1571180E+01
  0.5142857E+00  0.3106523E+05 -0.1570247E+01  0.1130782E+06 -0.4213468E-02  0.6765747E+05  0.1571345E+01
  0.5452381E+00  0.3457180E+05 -0.1570025E+01  0.1106131E+06 -0.5283630E-02  0.7509991E+05  0.1571567E+01
  0.5761905E+00  0.3826543E+05 -0.1569737E+01  0.1080634E+06 -0.6504924E-02  0.8293688E+05  0.1571856E+01
  0.6071429E+00  0.4214851E+05 -0.1569361E+01  0.1054534E+06 -0.7923692E-02  0.9116962E+05  0.1572232E+01
  0.6380953E+00  0.4623281E+05 -0.1568893E+01  0.1027548E+06 -0.9489703E-02  0.9974150E+05  0.1572701E+01
  0.6690477E+00  0.5043452E+05 -0.1568306E+01  0.1000084E+06 -0.1124533E-01  0.1084889E+06  0.1573287E+01
  0.7000000E+00  0.5479271E+05 -0.1567582E+01  0.9722302E+05 -0.1321912E-01  0.1175365E+06  0.1574010E+01
  0.7309524E+00  0.5930996E+05 -0.1566704E+01  0.9437435E+05 -0.1538315E-01  0.1268262E+06  0.1574890E+01
  0.7619048E+00  0.6391354E+05 -0.1565644E+01  0.9148673E+05 -0.1776404E-01  0.1362917E+06  0.1575948E+01
  0.7928572E+00  0.6863589E+05 -0.1564379E+01  0.8860434E+05 -0.2037743E-01  0.1459258E+06  0.1577213E+01
  0.8238096E+00  0.7347563E+05 -0.1562882E+01  0.8569040E+05 -0.2323003E-01  0.1556415E+06  0.1578711E+01
  0.8547620E+00  0.7846356E+05 -0.1561124E+01  0.8274448E+05 -0.2633286E-01  0.1655852E+06  0.1580468E+01
  0.8857143E+00  0.8346867E+05 -0.1559076E+01  0.7981619E+05 -0.2967276E-01  0.1754764E+06  0.1582516E+01
  0.9166667E+00  0.8858354E+05 -0.1556705E+01  0.7690488E+05 -0.3328408E-01  0.1855489E+06  0.1584887E+01
  0.9476191E+00  0.9374873E+05 -0.1553981E+01  0.7399771E+05 -0.3717000E-01  0.1955868E+06  0.1587611E+01
  0.9785714E+00  0.9904250E+05 -0.1550872E+01  0.7109125E+05 -0.4135715E-01  0.2058046E+06  0.1590720E+01
  0.1009524E+01  0.1043385E+06 -0.1547349E+01  0.6820138E+05 -0.4583945E-01  0.2158827E+06  0.1594242E+01
  0.1040476E+01  0.1096444E+06 -0.1543377E+01  0.6539314E+05 -0.5055935E-01  0.2257934E+06  0.1598214E+01
  0.1071429E+01  0.1150258E+06 -0.1538919E+01  0.6261170E+05 -0.5561929E-01  0.2357706E+06  0.1602672E+01
  0.1102381E+01  0.1204000E+06 -0.1533948E+01  0.5985659E+05 -0.6102461E-01  0.2455314E+06  0.1607642E+01
  0.1133333E+01  0.1258419E+06 -0.1528431E+01  0.5713388E+05 -0.6681598E-01  0.2553359E+06  0.1613158E+01
  0.1164286E+01  0.1311882E+06 -0.1522339E+01  0.5445482E+05 -0.7296914E-01  0.2648418E+06  0.1619250E+01
  0.1195238E+01  0.1364333E+06 -0.1515651E+01  0.5188723E+05 -0.7928029E-01  0.2739684E+06  0.1625936E+01
  0.1226190E+01  0.1416956E+06 -0.1508333E+01  0.4936961E+05 -0.8604077E-01  0.2831231E+06  0.1633255E+01
  0.1257143E+01  0.1467372E+06 -0.1500453E+01  0.4690638E+05 -0.9325367E-01  0.2915170E+06  0.1641132E+01
  0.1288095E+01  0.1519314E+06 -0.1491887E+01  0.4449497E+05 -0.1008629E+00  0.2999538E+06  0.1649693E+01
  0.1319048E+01  0.1569399E+06 -0.1482703E+01  0.4213843E+05 -0.1090594E+00  0.3079363E+06  0.1658875E+01
  0.1350000E+01  0.1617042E+06 -0.1472883E+01  0.3986460E+05 -0.1175375E+00  0.3152576E+06  0.1668688E+01
  0.1380952E+01  0.1662539E+06 -0.1462429E+01  0.3769967E+05 -0.1260862E+00  0.3219685E+06  0.1679134E+01
  0.1411905E+01  0.1704025E+06 -0.1451438E+01  0.3560730E+05 -0.1351382E+00  0.3281445E+06  0.1690128E+01
  0.1442857E+01  0.1744870E+06 -0.1439790E+01  0.3357983E+05 -0.1447616E+00  0.3336823E+06  0.1701770E+01
  0.1473810E+01  0.1783481E+06 -0.1427586E+01  0.3161788E+05 -0.1550152E+00  0.3386423E+06  0.1713969E+01
  0.1504762E+01  0.1819918E+06 -0.1414861E+01  0.2972588E+05 -0.1659524E+00  0.3431281E+06  0.1726687E+01
  0.1535714E+01  0.1851683E+06 -0.1401690E+01  0.2789926E+05 -0.1777148E+00  0.3466966E+06  0.1739861E+01
  0.1566667E+01  0.1879500E+06 -0.1388280E+01  0.2617562E+05 -0.1891678E+00  0.3492431E+06  0.1753242E+01
  0.1597619E+01  0.1903709E+06 -0.1374652E+01  0.2454287E+05 -0.2008318E+00  0.3509395E+06  0.1766846E+01
  0.1628572E+01  0.1924629E+06 -0.1360757E+01  0.2298651E+05 -0.2130674E+00  0.3520718E+06  0.1780747E+01
  0.1659524E+01  0.1940836E+06 -0.1346888E+01  0.2149622E+05 -0.2259628E+00  0.3520780E+06  0.1794588E+01
  0.1690476E+01  0.1952951E+06 -0.1333042E+01  0.2006893E+05 -0.2397043E+00  0.3512292E+06  0.1808411E+01
  0.1721429E+01  0.1961308E+06 -0.1319286E+01  0.1871619E+05 -0.2540981E+00  0.3497197E+06  0.1822134E+01
  0.1752381E+01  0.1965384E+06 -0.1305717E+01  0.1742763E+05 -0.2694107E+00  0.3474785E+06  0.1835707E+01
  0.1783333E+01  0.1963925E+06 -0.1292603E+01  0.1619937E+05 -0.2859004E+00  0.3441776E+06  0.1848806E+01
  0.1814286E+01  0.1957784E+06 -0.1280185E+01  0.1505269E+05 -0.3011045E+00  0.3398715E+06  0.1861116E+01
  0.1845238E+01  0.1948117E+06 -0.1268339E+01  0.1398004E+05 -0.3166672E+00  0.3349795E+06  0.1872909E+01
  0.1876190E+01  0.1934988E+06 -0.1257050E+01  0.1297261E+05 -0.3326019E+00  0.3296370E+06  0.1884231E+01
  0.1907143E+01  0.1917928E+06 -0.1246705E+01  0.1201877E+05 -0.3493955E+00  0.3235317E+06  0.1894527E+01
  0.1938095E+01  0.1897111E+06 -0.1237344E+01  0.1111593E+05 -0.3672860E+00  0.3167345E+06  0.1903790E+01
  0.1969048E+01  0.1873648E+06 -0.1228873E+01  0.1026854E+05 -0.3859659E+00  0.3096034E+06  0.1912181E+01
  0.2000000E+01  0.1848020E+06 -0.1221359E+01  0.9475641E+04 -0.4053295E+00  0.3022460E+06  0.1919649E+01
