VARIABLES="w (rad/s)"
"abs(F   1   1)" "angle(F   1   1)"
"abs(F   1   2)" "angle(F   1   2)"
"abs(F   1   3)" "angle(F   1   3)"
Zone t="Diffraction force - beta =   0.000 deg",I=    64,F=POINT
  0.5000000E-01  0.4211055E+04 -0.1570797E+01  0.6969432E+06 -0.4712703E-04  0.1736747E+04 -0.1570786E+01
  0.8095238E-01  0.6868408E+04 -0.1570802E+01  0.6954888E+06 -0.1267422E-03  0.2826774E+04 -0.1570793E+01
  0.1119048E+00  0.9575732E+04 -0.1570791E+01  0.6933545E+06 -0.2515657E-03  0.3946523E+04 -0.1570787E+01
  0.1428571E+00  0.1237720E+05 -0.1570784E+01  0.6905414E+06 -0.4310521E-03  0.5125764E+04 -0.1570784E+01
  0.1738095E+00  0.1528754E+05 -0.1570783E+01  0.6870377E+06 -0.6795420E-03  0.6372940E+04 -0.1570783E+01
  0.2047619E+00  0.1835639E+05 -0.1570777E+01  0.6828389E+06 -0.1017511E-02  0.7712516E+04 -0.1570772E+01
  0.2357143E+00  0.2159431E+05 -0.1570763E+01  0.6779277E+06 -0.1475465E-02  0.9132086E+04 -0.1570761E+01
  0.2666667E+00  0.2508407E+05 -0.1570746E+01  0.6722987E+06 -0.2090119E-02  0.1073443E+05 -0.1570742E+01
  0.2976190E+00  0.2884909E+05 -0.1570719E+01  0.6659490E+06 -0.2923903E-02  0.1246988E+05 -0.1570720E+01
  0.3285715E+00  0.3293255E+05 -0.1570686E+01  0.6588498E+06 -0.4039324E-02  0.1437091E+05 -0.1570683E+01
  0.3595238E+00  0.3743069E+05 -0.1570629E+01  0.6510451E+06 -0.5536480E-02  0.1656163E+05 -0.1570628E+01
  0.3904762E+00  0.4240226E+05 -0.1570547E+01  0.6425191E+06 -0.7525872E-02  0.1905508E+05 -0.1570546E+01
  0.4214286E+00  0.4784143E+05 -0.1570427E+01  0.6333771E+06 -0.1007441E-01  0.2177135E+05 -0.1570428E+01
  0.4523810E+00  0.5380227E+05 -0.1570253E+01  0.6235841E+06 -0.1337406E-01  0.2487164E+05 -0.1570254E+01
  0.4833333E+00  0.6030986E+05 -0.1570017E+01  0.6133471E+06 -0.1733231E-01  0.2835341E+05 -0.1570017E+01
  0.5142857E+00  0.6733085E+05 -0.1569688E+01  0.6026743E+06 -0.2216805E-01  0.3217684E+05 -0.1569687E+01
  0.5452381E+00  0.7477946E+05 -0.1569253E+01  0.5915466E+06 -0.2779702E-01  0.3629995E+05 -0.1569253E+01
  0.5761905E+00  0.8261345E+05 -0.1568695E+01  0.5801017E+06 -0.3423295E-01  0.4080061E+05 -0.1568695E+01
  0.6071429E+00  0.9086041E+05 -0.1567984E+01  0.5684351E+06 -0.4165399E-01  0.4576071E+05 -0.1567984E+01
  0.6380953E+00  0.9942576E+05 -0.1567107E+01  0.5564759E+06 -0.4987312E-01  0.5099990E+05 -0.1567108E+01
  0.6690477E+00  0.1082146E+06 -0.1566034E+01  0.5442990E+06 -0.5905070E-01  0.5650127E+05 -0.1566035E+01
  0.7000000E+00  0.1172097E+06 -0.1564736E+01  0.5319588E+06 -0.6928866E-01  0.6236381E+05 -0.1564737E+01
  0.7309524E+00  0.1264061E+06 -0.1563201E+01  0.5194709E+06 -0.8050287E-01  0.6857930E+05 -0.1563204E+01
  0.7619048E+00  0.1357799E+06 -0.1561401E+01  0.5069745E+06 -0.9279240E-01  0.7519030E+05 -0.1561405E+01
  0.7928572E+00  0.1452925E+06 -0.1559313E+01  0.4944968E+06 -0.1061940E+00  0.8210662E+05 -0.1559321E+01
  0.8238096E+00  0.1548728E+06 -0.1556919E+01  0.4819909E+06 -0.1207022E+00  0.8928943E+05 -0.1556928E+01
  0.8547620E+00  0.1644188E+06 -0.1554210E+01  0.4694757E+06 -0.1363335E+00  0.9663504E+05 -0.1554216E+01
  0.8857143E+00  0.1739254E+06 -0.1551184E+01  0.4570210E+06 -0.1531123E+00  0.1042869E+06 -0.1551190E+01
  0.9166667E+00  0.1833720E+06 -0.1547852E+01  0.4446945E+06 -0.1710716E+00  0.1122618E+06 -0.1547866E+01
  0.9476191E+00  0.1927303E+06 -0.1544231E+01  0.4325648E+06 -0.1902222E+00  0.1205101E+06 -0.1544260E+01
  0.9785714E+00  0.2019168E+06 -0.1540343E+01  0.4206580E+06 -0.2105560E+00  0.1288670E+06 -0.1540388E+01
  0.1009524E+01  0.2108135E+06 -0.1536219E+01  0.4089511E+06 -0.2320586E+00  0.1373484E+06 -0.1536272E+01
  0.1040476E+01  0.2194006E+06 -0.1531912E+01  0.3973921E+06 -0.2546950E+00  0.1458331E+06 -0.1531958E+01
  0.1071429E+01  0.2275582E+06 -0.1527483E+01  0.3860050E+06 -0.2784781E+00  0.1543185E+06 -0.1527509E+01
  0.1102381E+01  0.2352493E+06 -0.1523036E+01  0.3748090E+06 -0.3034295E+00  0.1627826E+06 -0.1523040E+01
  0.1133333E+01  0.2424098E+06 -0.1518669E+01  0.3638892E+06 -0.3295851E+00  0.1710938E+06 -0.1518660E+01
  0.1164286E+01  0.2489764E+06 -0.1514501E+01  0.3532253E+06 -0.3569391E+00  0.1793070E+06 -0.1514483E+01
  0.1195238E+01  0.2549470E+06 -0.1510667E+01  0.3428341E+06 -0.3854673E+00  0.1872688E+06 -0.1510638E+01
  0.1226190E+01  0.2602213E+06 -0.1507293E+01  0.3327096E+06 -0.4151503E+00  0.1949560E+06 -0.1507246E+01
  0.1257143E+01  0.2647905E+06 -0.1504481E+01  0.3228415E+06 -0.4461741E+00  0.2022776E+06 -0.1504415E+01
  0.1288095E+01  0.2686118E+06 -0.1502586E+01  0.3132407E+06 -0.4778867E+00  0.2091979E+06 -0.1502503E+01
  0.1319048E+01  0.2716594E+06 -0.1501555E+01  0.3039109E+06 -0.5109904E+00  0.2156514E+06 -0.1501463E+01
  0.1350000E+01  0.2739308E+06 -0.1501621E+01  0.2948339E+06 -0.5452117E+00  0.2216140E+06 -0.1501519E+01
  0.1380952E+01  0.2754539E+06 -0.1502948E+01  0.2859639E+06 -0.5804696E+00  0.2270386E+06 -0.1502836E+01
  0.1411905E+01  0.2760996E+06 -0.1505838E+01  0.2789505E+06 -0.6090024E+00  0.2317741E+06 -0.1505712E+01
  0.1442857E+01  0.2762525E+06 -0.1509835E+01  0.2706199E+06 -0.6459945E+00  0.2362060E+06 -0.1509703E+01
  0.1473810E+01  0.2757207E+06 -0.1515466E+01  0.2625564E+06 -0.6840904E+00  0.2400911E+06 -0.1515320E+01
  0.1504762E+01  0.2745557E+06 -0.1522806E+01  0.2547562E+06 -0.7233475E+00  0.2433685E+06 -0.1522672E+01
  0.1535714E+01  0.2727772E+06 -0.1531966E+01  0.2472359E+06 -0.7636728E+00  0.2461244E+06 -0.1531814E+01
  0.1566667E+01  0.2704780E+06 -0.1543026E+01  0.2399325E+06 -0.8050711E+00  0.2483276E+06 -0.1542881E+01
  0.1597619E+01  0.2676967E+06 -0.1556059E+01  0.2328259E+06 -0.8474639E+00  0.2500306E+06 -0.1555911E+01
  0.1628572E+01  0.2644724E+06 -0.1571066E+01  0.2259475E+06 -0.8908549E+00  0.2512134E+06 -0.1570928E+01
  0.1659524E+01  0.2608707E+06 -0.1588098E+01  0.2192177E+06 -0.9351897E+00  0.2518976E+06 -0.1587983E+01
  0.1690476E+01  0.2569469E+06 -0.1607211E+01  0.2127053E+06 -0.9805955E+00  0.2521860E+06 -0.1607113E+01
  0.1721429E+01  0.2527595E+06 -0.1628379E+01  0.2064045E+06 -0.1027153E+01  0.2520733E+06 -0.1628307E+01
  0.1752381E+01  0.2483533E+06 -0.1651601E+01  0.2003367E+06 -0.1074867E+01  0.2515920E+06 -0.1651592E+01
  0.1783333E+01  0.2437761E+06 -0.1676865E+01  0.1945160E+06 -0.1123646E+01  0.2507885E+06 -0.1676952E+01
  0.1814286E+01  0.2390618E+06 -0.1704165E+01  0.1888366E+06 -0.1173472E+01  0.2496953E+06 -0.1704341E+01
  0.1845238E+01  0.2342317E+06 -0.1733489E+01  0.1833040E+06 -0.1224248E+01  0.2483505E+06 -0.1733685E+01
  0.1876190E+01  0.2293382E+06 -0.1764700E+01  0.1779800E+06 -0.1276044E+01  0.2466909E+06 -0.1765086E+01
  0.1907143E+01  0.2243834E+06 -0.1797830E+01  0.1727494E+06 -0.1328785E+01  0.2448089E+06 -0.1798394E+01
  0.1938095E+01  0.2194105E+06 -0.1832881E+01  0.1676690E+06 -0.1382556E+01  0.2427532E+06 -0.1833669E+01
  0.1969048E+01  0.2144483E+06 -0.1869862E+01  0.1627419E+06 -0.1437457E+01  0.2406125E+06 -0.1870758E+01
  0.2000000E+01  0.2095330E+06 -0.1908614E+01  0.1579933E+06 -0.1493480E+01  0.2383409E+06 -0.1909699E+01
