VARIABLES="w (rad/s)"
"abs(F   1   1)" "angle(F   1   1)"
"abs(F   1   2)" "angle(F   1   2)"
"abs(F   1   3)" "angle(F   1   3)"
Zone t="Diffraction force - beta =   0.000 deg",I=    64,F=POINT
  0.5000000E-01  0.1700182E+04 -0.1570791E+01  0.2818242E+06 -0.1895360E-04  0.9959819E+02  0.1570278E+01
  0.8095238E-01  0.2771359E+04 -0.1570794E+01  0.2812671E+06 -0.5097727E-04  0.1654313E+03  0.1570773E+01
  0.1119048E+00  0.3866575E+04 -0.1570795E+01  0.2804514E+06 -0.1011924E-03  0.2304081E+03  0.1570832E+01
  0.1428571E+00  0.5008133E+04 -0.1570793E+01  0.2793736E+06 -0.1734649E-03  0.3128195E+03  0.1570760E+01
  0.1738095E+00  0.6191188E+04 -0.1570790E+01  0.2780353E+06 -0.2735430E-03  0.3993654E+03  0.1570677E+01
  0.2047619E+00  0.7450086E+04 -0.1570789E+01  0.2764356E+06 -0.4098167E-03  0.5033783E+03  0.1570794E+01
  0.2357143E+00  0.8776728E+04 -0.1570782E+01  0.2745674E+06 -0.5946347E-03  0.6131101E+03  0.1570781E+01
  0.2666667E+00  0.1021810E+05 -0.1570776E+01  0.2724430E+06 -0.8429272E-03  0.7518195E+03  0.1570807E+01
  0.2976190E+00  0.1177881E+05 -0.1570765E+01  0.2700448E+06 -0.1180284E-02  0.9104430E+03  0.1570773E+01
  0.3285715E+00  0.1348086E+05 -0.1570750E+01  0.2673957E+06 -0.1632388E-02  0.1091574E+04  0.1570847E+01
  0.3595238E+00  0.1535264E+05 -0.1570726E+01  0.2644701E+06 -0.2240257E-02  0.1309232E+04  0.1570857E+01
  0.3904762E+00  0.1745685E+05 -0.1570691E+01  0.2613143E+06 -0.3049765E-02  0.1582562E+04  0.1570911E+01
  0.4214286E+00  0.1976433E+05 -0.1570639E+01  0.2578955E+06 -0.4089979E-02  0.1893905E+04  0.1570934E+01
  0.4523810E+00  0.2229053E+05 -0.1570563E+01  0.2542775E+06 -0.5441827E-02  0.2235804E+04  0.1571027E+01
  0.4833333E+00  0.2507911E+05 -0.1570457E+01  0.2504352E+06 -0.7066044E-02  0.2677086E+04  0.1571138E+01
  0.5142857E+00  0.2812090E+05 -0.1570309E+01  0.2464011E+06 -0.9058776E-02  0.3174080E+04  0.1571285E+01
  0.5452381E+00  0.3137729E+05 -0.1570111E+01  0.2422082E+06 -0.1139024E-01  0.3751853E+04  0.1571486E+01
  0.5761905E+00  0.3477702E+05 -0.1569852E+01  0.2377966E+06 -0.1406024E-01  0.4373145E+04  0.1571746E+01
  0.6071429E+00  0.3842981E+05 -0.1569516E+01  0.2333170E+06 -0.1716087E-01  0.5091539E+04  0.1572080E+01
  0.6380953E+00  0.4228541E+05 -0.1569094E+01  0.2286548E+06 -0.2060114E-01  0.5942445E+04  0.1572505E+01
  0.6690477E+00  0.4627128E+05 -0.1568567E+01  0.2238089E+06 -0.2445946E-01  0.6869019E+04  0.1573038E+01
  0.7000000E+00  0.5038877E+05 -0.1567915E+01  0.2189710E+06 -0.2879629E-01  0.7806143E+04  0.1573702E+01
  0.7309524E+00  0.5461512E+05 -0.1567123E+01  0.2139811E+06 -0.3355876E-01  0.8890375E+04  0.1574506E+01
  0.7619048E+00  0.5902197E+05 -0.1566171E+01  0.2088495E+06 -0.3879100E-01  0.1012279E+05  0.1575450E+01
  0.7928572E+00  0.6359923E+05 -0.1565036E+01  0.2037105E+06 -0.4452765E-01  0.1142981E+05  0.1576590E+01
  0.8238096E+00  0.6831643E+05 -0.1563692E+01  0.1985420E+06 -0.5078572E-01  0.1289734E+05  0.1577959E+01
  0.8547620E+00  0.7306506E+05 -0.1562115E+01  0.1932889E+06 -0.5754680E-01  0.1440524E+05  0.1579573E+01
  0.8857143E+00  0.7786495E+05 -0.1560278E+01  0.1879425E+06 -0.6481962E-01  0.1605810E+05  0.1581472E+01
  0.9166667E+00  0.8272220E+05 -0.1558162E+01  0.1826725E+06 -0.7262892E-01  0.1770403E+05  0.1583650E+01
  0.9476191E+00  0.8774787E+05 -0.1555761E+01  0.1774124E+06 -0.8099620E-01  0.1961586E+05  0.1586042E+01
  0.9785714E+00  0.9285845E+05 -0.1553056E+01  0.1721239E+06 -0.8990181E-01  0.2165720E+05  0.1588729E+01
  0.1009524E+01  0.9797955E+05 -0.1550003E+01  0.1667939E+06 -0.9934250E-01  0.2379824E+05  0.1591824E+01
  0.1040476E+01  0.1031058E+06 -0.1546584E+01  0.1615010E+06 -0.1093061E+00  0.2604148E+05  0.1595370E+01
  0.1071429E+01  0.1082226E+06 -0.1542787E+01  0.1563716E+06 -0.1198080E+00  0.2824224E+05  0.1599324E+01
  0.1102381E+01  0.1133086E+06 -0.1538593E+01  0.1512352E+06 -0.1308850E+00  0.3069458E+05  0.1603766E+01
  0.1133333E+01  0.1182436E+06 -0.1533999E+01  0.1461244E+06 -0.1424599E+00  0.3312157E+05  0.1608644E+01
  0.1164286E+01  0.1230676E+06 -0.1529026E+01  0.1410114E+06 -0.1545500E+00  0.3564380E+05  0.1613888E+01
  0.1195238E+01  0.1278594E+06 -0.1523778E+01  0.1359430E+06 -0.1671254E+00  0.3831394E+05  0.1619141E+01
  0.1226190E+01  0.1325688E+06 -0.1518250E+01  0.1311233E+06 -0.1801336E+00  0.4084130E+05  0.1624661E+01
  0.1257143E+01  0.1371016E+06 -0.1512359E+01  0.1263359E+06 -0.1938337E+00  0.4356059E+05  0.1630792E+01
  0.1288095E+01  0.1414286E+06 -0.1506219E+01  0.1215998E+06 -0.2077886E+00  0.4629815E+05  0.1637309E+01
  0.1319048E+01  0.1454136E+06 -0.1499816E+01  0.1169218E+06 -0.2222464E+00  0.4893228E+05  0.1644266E+01
  0.1350000E+01  0.1491170E+06 -0.1493283E+01  0.1122638E+06 -0.2371913E+00  0.5162245E+05  0.1651300E+01
  0.1380952E+01  0.1525437E+06 -0.1486831E+01  0.1076937E+06 -0.2524421E+00  0.5427864E+05  0.1657966E+01
  0.1411905E+01  0.1555255E+06 -0.1480480E+01  0.1034122E+06 -0.2677246E+00  0.5655663E+05  0.1664458E+01
  0.1442857E+01  0.1582740E+06 -0.1474256E+01  0.9917575E+05 -0.2834304E+00  0.5894324E+05  0.1671174E+01
  0.1473810E+01  0.1606010E+06 -0.1468274E+01  0.9500344E+05 -0.2995048E+00  0.6126718E+05  0.1677784E+01
  0.1504762E+01  0.1624385E+06 -0.1462674E+01  0.9088883E+05 -0.3158132E+00  0.6336445E+05  0.1684175E+01
  0.1535714E+01  0.1638261E+06 -0.1457704E+01  0.8682360E+05 -0.3323658E+00  0.6528245E+05  0.1689674E+01
  0.1566667E+01  0.1648002E+06 -0.1453478E+01  0.8279606E+05 -0.3493218E+00  0.6713794E+05  0.1694339E+01
  0.1597619E+01  0.1652953E+06 -0.1449994E+01  0.7890037E+05 -0.3662441E+00  0.6870080E+05  0.1698657E+01
  0.1628572E+01  0.1653129E+06 -0.1447563E+01  0.7523864E+05 -0.3823734E+00  0.6975484E+05  0.1701467E+01
  0.1659524E+01  0.1649066E+06 -0.1446202E+01  0.7163209E+05 -0.3985350E+00  0.7069934E+05  0.1703355E+01
  0.1690476E+01  0.1641119E+06 -0.1446164E+01  0.6807527E+05 -0.4148856E+00  0.7156906E+05  0.1703989E+01
  0.1721429E+01  0.1628163E+06 -0.1447536E+01  0.6456348E+05 -0.4311681E+00  0.7208881E+05  0.1703094E+01
  0.1752381E+01  0.1610756E+06 -0.1450366E+01  0.6109241E+05 -0.4474533E+00  0.7230879E+05  0.1700856E+01
  0.1783333E+01  0.1589560E+06 -0.1454766E+01  0.5765402E+05 -0.4641250E+00  0.7236650E+05  0.1697221E+01
  0.1814286E+01  0.1564787E+06 -0.1460885E+01  0.5424309E+05 -0.4811465E+00  0.7225135E+05  0.1691885E+01
  0.1845238E+01  0.1536767E+06 -0.1468975E+01  0.5094168E+05 -0.4974456E+00  0.7176080E+05  0.1683866E+01
  0.1876190E+01  0.1505438E+06 -0.1479202E+01  0.4778447E+05 -0.5122042E+00  0.7075086E+05  0.1672561E+01
  0.1907143E+01  0.1471466E+06 -0.1491465E+01  0.4465599E+05 -0.5272607E+00  0.6957594E+05  0.1659101E+01
  0.1938095E+01  0.1435563E+06 -0.1505826E+01  0.4156676E+05 -0.5435104E+00  0.6836198E+05  0.1643851E+01
  0.1969048E+01  0.1397078E+06 -0.1522560E+01  0.3851484E+05 -0.5610786E+00  0.6689591E+05  0.1625621E+01
  0.2000000E+01  0.1356329E+06 -0.1541797E+01  0.3552475E+05 -0.5804706E+00  0.6518539E+05  0.1604161E+01
