VARIABLES="w (rad/s)"
"abs(F   1   1)" "angle(F   1   1)"
"abs(F   1   2)" "angle(F   1   2)"
"abs(F   1   3)" "angle(F   1   3)"
Zone t="Diffraction force - beta =   0.000 deg",I=    64,F=POINT
  0.5000000E-01  0.2640457E+03 -0.1570804E+01  0.9452237E+05 -0.6468834E-05  0.2815259E+01 -0.1572219E+01
  0.8095238E-01  0.4304210E+03 -0.1570808E+01  0.9443866E+05 -0.1741827E-04  0.4594796E+01 -0.1571686E+01
  0.1119048E+00  0.6005397E+03 -0.1570781E+01  0.9431533E+05 -0.3463109E-04  0.6403390E+01 -0.1571423E+01
  0.1428571E+00  0.7772353E+03 -0.1570792E+01  0.9415234E+05 -0.5948469E-04  0.8317006E+01 -0.1571294E+01
  0.1738095E+00  0.9620242E+03 -0.1570798E+01  0.9394941E+05 -0.9406387E-04  0.1027177E+02 -0.1571189E+01
  0.2047619E+00  0.1157232E+04 -0.1570786E+01  0.9370636E+05 -0.1413447E-03  0.1240617E+02 -0.1571116E+01
  0.2357143E+00  0.1364278E+04 -0.1570790E+01  0.9342271E+05 -0.2058136E-03  0.1463150E+02 -0.1571066E+01
  0.2666667E+00  0.1589569E+04 -0.1570801E+01  0.9309803E+05 -0.2930464E-03  0.1708729E+02 -0.1571033E+01
  0.2976190E+00  0.1833274E+04 -0.1570794E+01  0.9273205E+05 -0.4121846E-03  0.1980208E+02 -0.1570994E+01
  0.3285715E+00  0.2098969E+04 -0.1570792E+01  0.9232402E+05 -0.5731909E-03  0.2273987E+02 -0.1570966E+01
  0.3595238E+00  0.2395529E+04 -0.1570781E+01  0.9187428E+05 -0.7911624E-03  0.2600876E+02 -0.1570940E+01
  0.3904762E+00  0.2723382E+04 -0.1570782E+01  0.9138288E+05 -0.1083864E-02  0.2976094E+02 -0.1570914E+01
  0.4214286E+00  0.3085323E+04 -0.1570773E+01  0.9085027E+05 -0.1463752E-02  0.3389318E+02 -0.1570889E+01
  0.4523810E+00  0.3484247E+04 -0.1570759E+01  0.9027720E+05 -0.1960734E-02  0.3836431E+02 -0.1570865E+01
  0.4833333E+00  0.3926859E+04 -0.1570742E+01  0.8966553E+05 -0.2566530E-02  0.4350221E+02 -0.1570831E+01
  0.5142857E+00  0.4406800E+04 -0.1570715E+01  0.8901714E+05 -0.3315837E-02  0.4915199E+02 -0.1570797E+01
  0.5452381E+00  0.4918275E+04 -0.1570683E+01  0.8833108E+05 -0.4203411E-02  0.5525445E+02 -0.1570756E+01
  0.5761905E+00  0.5466809E+04 -0.1570640E+01  0.8760969E+05 -0.5235916E-02  0.6170817E+02 -0.1570704E+01
  0.6071429E+00  0.6051735E+04 -0.1570582E+01  0.8685550E+05 -0.6444835E-02  0.6891993E+02 -0.1570642E+01
  0.6380953E+00  0.6668313E+04 -0.1570510E+01  0.8606557E+05 -0.7809645E-02  0.7674296E+02 -0.1570562E+01
  0.6690477E+00  0.7305592E+04 -0.1570420E+01  0.8524377E+05 -0.9363808E-02  0.8434010E+02 -0.1570467E+01
  0.7000000E+00  0.7965967E+04 -0.1570307E+01  0.8439223E+05 -0.1112915E-01  0.9247664E+02 -0.1570348E+01
  0.7309524E+00  0.8662427E+04 -0.1570167E+01  0.8350810E+05 -0.1310045E-01  0.1015872E+03 -0.1570206E+01
  0.7619048E+00  0.9389000E+04 -0.1569997E+01  0.8259640E+05 -0.1530210E-01  0.1110509E+03 -0.1570030E+01
  0.7928572E+00  0.1013977E+05 -0.1569792E+01  0.8165991E+05 -0.1774953E-01  0.1210936E+03 -0.1569821E+01
  0.8238096E+00  0.1091020E+05 -0.1569543E+01  0.8069787E+05 -0.2045398E-01  0.1314730E+03 -0.1569573E+01
  0.8547620E+00  0.1169754E+05 -0.1569250E+01  0.7971069E+05 -0.2342567E-01  0.1418036E+03 -0.1569277E+01
  0.8857143E+00  0.1251027E+05 -0.1568903E+01  0.7870159E+05 -0.2667854E-01  0.1527816E+03 -0.1568929E+01
  0.9166667E+00  0.1335187E+05 -0.1568497E+01  0.7767355E+05 -0.3022461E-01  0.1646812E+03 -0.1568521E+01
  0.9476191E+00  0.1422101E+05 -0.1568026E+01  0.7662822E+05 -0.3407419E-01  0.1774135E+03 -0.1568048E+01
  0.9785714E+00  0.1511463E+05 -0.1567479E+01  0.7556602E+05 -0.3823556E-01  0.1907973E+03 -0.1567499E+01
  0.1009524E+01  0.1602668E+05 -0.1566848E+01  0.7449004E+05 -0.4271956E-01  0.2044578E+03 -0.1566868E+01
  0.1040476E+01  0.1695114E+05 -0.1566128E+01  0.7340147E+05 -0.4753465E-01  0.2179757E+03 -0.1566145E+01
  0.1071429E+01  0.1788355E+05 -0.1565308E+01  0.7230273E+05 -0.5269049E-01  0.2319280E+03 -0.1565323E+01
  0.1102381E+01  0.1883849E+05 -0.1564380E+01  0.7119221E+05 -0.5819397E-01  0.2469792E+03 -0.1564393E+01
  0.1133333E+01  0.1981975E+05 -0.1563333E+01  0.7007345E+05 -0.6405205E-01  0.2627955E+03 -0.1563349E+01
  0.1164286E+01  0.2082268E+05 -0.1562163E+01  0.6894952E+05 -0.7027281E-01  0.2792254E+03 -0.1562180E+01
  0.1195238E+01  0.2184430E+05 -0.1560857E+01  0.6782216E+05 -0.7686109E-01  0.2961641E+03 -0.1560873E+01
  0.1226190E+01  0.2287799E+05 -0.1559404E+01  0.6669384E+05 -0.8382388E-01  0.3140339E+03 -0.1559421E+01
  0.1257143E+01  0.2391600E+05 -0.1557796E+01  0.6556560E+05 -0.9124114E-01  0.3324890E+03 -0.1557812E+01
  0.1288095E+01  0.2498128E+05 -0.1556023E+01  0.6443149E+05 -0.9887916E-01  0.3518910E+03 -0.1556036E+01
  0.1319048E+01  0.2603912E+05 -0.1554073E+01  0.6330047E+05 -0.1069809E+00  0.3705074E+03 -0.1554081E+01
  0.1350000E+01  0.2709759E+05 -0.1551940E+01  0.6217127E+05 -0.1154676E+00  0.3892906E+03 -0.1551941E+01
  0.1380952E+01  0.2816591E+05 -0.1549621E+01  0.6104309E+05 -0.1243408E+00  0.4091024E+03 -0.1549624E+01
  0.1411905E+01  0.2918793E+05 -0.1547202E+01  0.5993115E+05 -0.1335588E+00  0.4269151E+03 -0.1547214E+01
  0.1442857E+01  0.3027210E+05 -0.1544508E+01  0.5881662E+05 -0.1432345E+00  0.4487107E+03 -0.1544539E+01
  0.1473810E+01  0.3136577E+05 -0.1541616E+01  0.5770819E+05 -0.1533073E+00  0.4715792E+03 -0.1541653E+01
  0.1504762E+01  0.3245971E+05 -0.1538519E+01  0.5660737E+05 -0.1637768E+00  0.4944970E+03 -0.1538555E+01
  0.1535714E+01  0.3355093E+05 -0.1535215E+01  0.5551627E+05 -0.1746473E+00  0.5179444E+03 -0.1535256E+01
  0.1566667E+01  0.3463271E+05 -0.1531699E+01  0.5443470E+05 -0.1859174E+00  0.5414443E+03 -0.1531745E+01
  0.1597619E+01  0.3570480E+05 -0.1527974E+01  0.5336286E+05 -0.1975864E+00  0.5654751E+03 -0.1528016E+01
  0.1628572E+01  0.3675454E+05 -0.1524038E+01  0.5230419E+05 -0.2096649E+00  0.5896550E+03 -0.1524062E+01
  0.1659524E+01  0.3778309E+05 -0.1519899E+01  0.5125462E+05 -0.2221401E+00  0.6138757E+03 -0.1519890E+01
  0.1690476E+01  0.3879047E+05 -0.1515565E+01  0.5021432E+05 -0.2350159E+00  0.6384112E+03 -0.1515511E+01
  0.1721429E+01  0.3977605E+05 -0.1511060E+01  0.4918396E+05 -0.2482906E+00  0.6635406E+03 -0.1511004E+01
  0.1752381E+01  0.4074280E+05 -0.1506416E+01  0.4816560E+05 -0.2619820E+00  0.6883530E+03 -0.1506354E+01
  0.1783333E+01  0.4168477E+05 -0.1501649E+01  0.4716102E+05 -0.2760836E+00  0.7137030E+03 -0.1501621E+01
  0.1814286E+01  0.4259587E+05 -0.1496775E+01  0.4617083E+05 -0.2905964E+00  0.7387180E+03 -0.1496805E+01
  0.1845238E+01  0.4347597E+05 -0.1491819E+01  0.4519396E+05 -0.3055110E+00  0.7640296E+03 -0.1491855E+01
  0.1876190E+01  0.4431411E+05 -0.1486798E+01  0.4423496E+05 -0.3208458E+00  0.7895874E+03 -0.1486805E+01
  0.1907143E+01  0.4510919E+05 -0.1481742E+01  0.4328884E+05 -0.3365773E+00  0.8151283E+03 -0.1481715E+01
  0.1938095E+01  0.4585986E+05 -0.1476683E+01  0.4235615E+05 -0.3527139E+00  0.8406019E+03 -0.1476620E+01
  0.1969048E+01  0.4656301E+05 -0.1471658E+01  0.4143605E+05 -0.3692459E+00  0.8660315E+03 -0.1471575E+01
  0.2000000E+01  0.4721592E+05 -0.1466731E+01  0.4052954E+05 -0.3861793E+00  0.8907753E+03 -0.1466678E+01
