VARIABLES="w (rad/s)"
"abs(F   1   1)" "angle(F   1   1)"
"abs(F   1   2)" "angle(F   1   2)"
"abs(F   1   3)" "angle(F   1   3)"
Zone t="Diffraction force - beta =   0.000 deg",I=    64,F=POINT
  0.5000000E-01  0.2423992E+04 -0.1570794E+01  0.3740454E+06 -0.2550768E-04  0.1607359E+04  0.1570771E+01
  0.8095238E-01  0.3957133E+04 -0.1570787E+01  0.3734126E+06 -0.6862737E-04  0.2627740E+04  0.1570824E+01
  0.1119048E+00  0.5523869E+04 -0.1570796E+01  0.3724832E+06 -0.1362935E-03  0.3659862E+04  0.1570789E+01
  0.1428571E+00  0.7137965E+04 -0.1570788E+01  0.3712554E+06 -0.2337218E-03  0.4717473E+04  0.1570785E+01
  0.1738095E+00  0.8824581E+04 -0.1570793E+01  0.3697291E+06 -0.3688163E-03  0.5810394E+04  0.1570801E+01
  0.2047619E+00  0.1059226E+05 -0.1570786E+01  0.3678969E+06 -0.5529270E-03  0.6949017E+04  0.1570814E+01
  0.2357143E+00  0.1247463E+05 -0.1570776E+01  0.3657622E+06 -0.8029570E-03  0.8144686E+04  0.1570821E+01
  0.2666667E+00  0.1449602E+05 -0.1570773E+01  0.3633139E+06 -0.1139378E-02  0.9410199E+04  0.1570832E+01
  0.2976190E+00  0.1666955E+05 -0.1570751E+01  0.3605523E+06 -0.1596977E-02  0.1076289E+05  0.1570841E+01
  0.3285715E+00  0.1905456E+05 -0.1570729E+01  0.3574797E+06 -0.2211299E-02  0.1221896E+05  0.1570859E+01
  0.3595238E+00  0.2167535E+05 -0.1570694E+01  0.3540973E+06 -0.3038466E-02  0.1379369E+05  0.1570897E+01
  0.3904762E+00  0.2455211E+05 -0.1570647E+01  0.3503916E+06 -0.4141709E-02  0.1549655E+05  0.1570947E+01
  0.4214286E+00  0.2772845E+05 -0.1570577E+01  0.3464169E+06 -0.5561967E-02  0.1734254E+05  0.1571016E+01
  0.4523810E+00  0.3123718E+05 -0.1570469E+01  0.3421645E+06 -0.7408351E-02  0.1932642E+05  0.1571123E+01
  0.4833333E+00  0.3503788E+05 -0.1570325E+01  0.3376678E+06 -0.9635180E-02  0.2147426E+05  0.1571267E+01
  0.5142857E+00  0.3912713E+05 -0.1570122E+01  0.3329369E+06 -0.1236883E-01  0.2373471E+05  0.1571471E+01
  0.5452381E+00  0.4353214E+05 -0.1569853E+01  0.3280035E+06 -0.1557275E-01  0.2607693E+05  0.1571741E+01
  0.5761905E+00  0.4818949E+05 -0.1569503E+01  0.3229013E+06 -0.1925943E-01  0.2849899E+05  0.1572088E+01
  0.6071429E+00  0.5306768E+05 -0.1569055E+01  0.3176214E+06 -0.2352986E-01  0.3097279E+05  0.1572539E+01
  0.6380953E+00  0.5812018E+05 -0.1568492E+01  0.3121495E+06 -0.2829462E-01  0.3349136E+05  0.1573103E+01
  0.6690477E+00  0.6336391E+05 -0.1567798E+01  0.3065549E+06 -0.3365765E-01  0.3597425E+05  0.1573796E+01
  0.7000000E+00  0.6880893E+05 -0.1566947E+01  0.3008631E+06 -0.3968267E-01  0.3841604E+05  0.1574647E+01
  0.7309524E+00  0.7441848E+05 -0.1565922E+01  0.2950549E+06 -0.4632486E-01  0.4086778E+05  0.1575672E+01
  0.7619048E+00  0.8011657E+05 -0.1564698E+01  0.2891498E+06 -0.5364519E-01  0.4326224E+05  0.1576897E+01
  0.7928572E+00  0.8591098E+05 -0.1563248E+01  0.2831659E+06 -0.6168137E-01  0.4559643E+05  0.1578346E+01
  0.8238096E+00  0.9183348E+05 -0.1561555E+01  0.2771256E+06 -0.7045611E-01  0.4780453E+05  0.1580038E+01
  0.8547620E+00  0.9785022E+05 -0.1559596E+01  0.2710646E+06 -0.7998952E-01  0.4991452E+05  0.1582001E+01
  0.8857143E+00  0.1039564E+06 -0.1557344E+01  0.2650019E+06 -0.9029615E-01  0.5190720E+05  0.1584255E+01
  0.9166667E+00  0.1101195E+06 -0.1554782E+01  0.2589378E+06 -0.1013852E+00  0.5376296E+05  0.1586820E+01
  0.9476191E+00  0.1163114E+06 -0.1551890E+01  0.2528734E+06 -0.1132613E+00  0.5548180E+05  0.1589714E+01
  0.9785714E+00  0.1224650E+06 -0.1548649E+01  0.2468216E+06 -0.1259402E+00  0.5709712E+05  0.1592951E+01
  0.1009524E+01  0.1285574E+06 -0.1545054E+01  0.2408062E+06 -0.1394514E+00  0.5846278E+05  0.1596541E+01
  0.1040476E+01  0.1346468E+06 -0.1541108E+01  0.2348405E+06 -0.1538026E+00  0.5964718E+05  0.1600492E+01
  0.1071429E+01  0.1406826E+06 -0.1536812E+01  0.2289458E+06 -0.1690042E+00  0.6056161E+05  0.1604801E+01
  0.1102381E+01  0.1466510E+06 -0.1532178E+01  0.2231343E+06 -0.1850545E+00  0.6128429E+05  0.1609458E+01
  0.1133333E+01  0.1524696E+06 -0.1527210E+01  0.2174196E+06 -0.2019536E+00  0.6181951E+05  0.1614454E+01
  0.1164286E+01  0.1580901E+06 -0.1521933E+01  0.2117853E+06 -0.2196886E+00  0.6208016E+05  0.1619746E+01
  0.1195238E+01  0.1635269E+06 -0.1516383E+01  0.2062155E+06 -0.2382360E+00  0.6215794E+05  0.1625294E+01
  0.1226190E+01  0.1686627E+06 -0.1510598E+01  0.2007280E+06 -0.2576312E+00  0.6192751E+05  0.1631038E+01
  0.1257143E+01  0.1735062E+06 -0.1504615E+01  0.1953219E+06 -0.2780724E+00  0.6144635E+05  0.1636961E+01
  0.1288095E+01  0.1780897E+06 -0.1498637E+01  0.1900238E+06 -0.2989905E+00  0.6070864E+05  0.1642884E+01
  0.1319048E+01  0.1822817E+06 -0.1492611E+01  0.1848539E+06 -0.3210114E+00  0.5968601E+05  0.1648865E+01
  0.1350000E+01  0.1861205E+06 -0.1486678E+01  0.1797983E+06 -0.3438875E+00  0.5840324E+05  0.1654770E+01
  0.1380952E+01  0.1895982E+06 -0.1480931E+01  0.1748464E+06 -0.3675737E+00  0.5692869E+05  0.1660487E+01
  0.1411905E+01  0.1919797E+06 -0.1476633E+01  0.1704785E+06 -0.3890206E+00  0.5526287E+05  0.1664703E+01
  0.1442857E+01  0.1945924E+06 -0.1471627E+01  0.1657624E+06 -0.4141698E+00  0.5329756E+05  0.1669610E+01
  0.1473810E+01  0.1967629E+06 -0.1467155E+01  0.1611542E+06 -0.4401260E+00  0.5113777E+05  0.1673971E+01
  0.1504762E+01  0.1984609E+06 -0.1463307E+01  0.1566608E+06 -0.4669688E+00  0.4880936E+05  0.1677767E+01
  0.1535714E+01  0.1996676E+06 -0.1460232E+01  0.1523046E+06 -0.4946458E+00  0.4623490E+05  0.1680681E+01
  0.1566667E+01  0.2004438E+06 -0.1458026E+01  0.1480410E+06 -0.5231562E+00  0.4356814E+05  0.1682795E+01
  0.1597619E+01  0.2007818E+06 -0.1456823E+01  0.1438838E+06 -0.5524685E+00  0.4078045E+05  0.1683853E+01
  0.1628572E+01  0.2006510E+06 -0.1456718E+01  0.1398566E+06 -0.5826166E+00  0.3785554E+05  0.1683733E+01
  0.1659524E+01  0.2001205E+06 -0.1457825E+01  0.1359201E+06 -0.6135694E+00  0.3487851E+05  0.1682413E+01
  0.1690476E+01  0.1992038E+06 -0.1460251E+01  0.1320934E+06 -0.6453205E+00  0.3184862E+05  0.1679671E+01
  0.1721429E+01  0.1979160E+06 -0.1464017E+01  0.1283875E+06 -0.6779912E+00  0.2882171E+05  0.1675697E+01
  0.1752381E+01  0.1962797E+06 -0.1469235E+01  0.1248019E+06 -0.7114810E+00  0.2576850E+05  0.1670084E+01
  0.1783333E+01  0.1943296E+06 -0.1475957E+01  0.1213318E+06 -0.7457762E+00  0.2271326E+05  0.1662772E+01
  0.1814286E+01  0.1921271E+06 -0.1484221E+01  0.1179404E+06 -0.7809181E+00  0.1972429E+05  0.1654184E+01
  0.1845238E+01  0.1896842E+06 -0.1494092E+01  0.1146370E+06 -0.8168074E+00  0.1676442E+05  0.1643599E+01
  0.1876190E+01  0.1870108E+06 -0.1505574E+01  0.1114408E+06 -0.8534222E+00  0.1385171E+05  0.1631084E+01
  0.1907143E+01  0.1841653E+06 -0.1518679E+01  0.1083018E+06 -0.8908126E+00  0.1103426E+05  0.1616987E+01
  0.1938095E+01  0.1811644E+06 -0.1533447E+01  0.1052501E+06 -0.9289773E+00  0.8284801E+04  0.1600052E+01
  0.1969048E+01  0.1780430E+06 -0.1549846E+01  0.1022871E+06 -0.9680970E+00  0.5635424E+04  0.1580218E+01
  0.2000000E+01  0.1748177E+06 -0.1567841E+01  0.9943593E+05 -0.1008177E+01  0.3102560E+04  0.1557255E+01
