VARIABLES="w (rad/s)"
"abs(F   1   1)" "angle(F   1   1)"
"abs(F   1   2)" "angle(F   1   2)"
"abs(F   1   3)" "angle(F   1   3)"
Zone t="Diffraction force - beta =   0.000 deg",I=    64,F=POINT
  0.5000000E-01  0.1492447E+04 -0.1570794E+01  0.2262099E+06 -0.1547276E-04  0.1612948E+04  0.1570813E+01
  0.8095238E-01  0.2438380E+04 -0.1570791E+01  0.2258817E+06 -0.4163916E-04  0.2637532E+04  0.1570802E+01
  0.1119048E+00  0.3402168E+04 -0.1570799E+01  0.2253990E+06 -0.8272371E-04  0.3678957E+04  0.1570788E+01
  0.1428571E+00  0.4401693E+04 -0.1570791E+01  0.2247618E+06 -0.1419300E-03  0.4750165E+04  0.1570798E+01
  0.1738095E+00  0.5438634E+04 -0.1570791E+01  0.2239686E+06 -0.2241064E-03  0.5859363E+04  0.1570804E+01
  0.2047619E+00  0.6535497E+04 -0.1570783E+01  0.2230194E+06 -0.3362262E-03  0.7021354E+04  0.1570815E+01
  0.2357143E+00  0.7692952E+04 -0.1570778E+01  0.2219115E+06 -0.4886757E-03  0.8250835E+04  0.1570811E+01
  0.2666667E+00  0.8941988E+04 -0.1570778E+01  0.2206441E+06 -0.6941580E-03  0.9557009E+04  0.1570815E+01
  0.2976190E+00  0.1029585E+05 -0.1570764E+01  0.2192179E+06 -0.9740645E-03  0.1096491E+05  0.1570826E+01
  0.3285715E+00  0.1176290E+05 -0.1570756E+01  0.2176290E+06 -0.1350567E-02  0.1249243E+05  0.1570837E+01
  0.3595238E+00  0.1337910E+05 -0.1570737E+01  0.2158820E+06 -0.1858573E-02  0.1415199E+05  0.1570858E+01
  0.3904762E+00  0.1517682E+05 -0.1570704E+01  0.2139765E+06 -0.2537661E-02  0.1596530E+05  0.1570894E+01
  0.4214286E+00  0.1714782E+05 -0.1570659E+01  0.2119247E+06 -0.3414187E-02  0.1795795E+05  0.1570938E+01
  0.4523810E+00  0.1930591E+05 -0.1570590E+01  0.2097214E+06 -0.4556252E-02  0.2012159E+05  0.1571001E+01
  0.4833333E+00  0.2167657E+05 -0.1570500E+01  0.2073918E+06 -0.5939060E-02  0.2246156E+05  0.1571094E+01
  0.5142857E+00  0.2424090E+05 -0.1570373E+01  0.2049425E+06 -0.7641408E-02  0.2496729E+05  0.1571222E+01
  0.5452381E+00  0.2698135E+05 -0.1570199E+01  0.2023681E+06 -0.9643065E-02  0.2761917E+05  0.1571396E+01
  0.5761905E+00  0.2985307E+05 -0.1569975E+01  0.1996845E+06 -0.1195536E-01  0.3038079E+05  0.1571616E+01
  0.6071429E+00  0.3290206E+05 -0.1569686E+01  0.1969061E+06 -0.1464529E-01  0.3324054E+05  0.1571906E+01
  0.6380953E+00  0.3610288E+05 -0.1569324E+01  0.1940285E+06 -0.1766078E-01  0.3619707E+05  0.1572268E+01
  0.6690477E+00  0.3940018E+05 -0.1568872E+01  0.1910648E+06 -0.2106694E-01  0.3920572E+05  0.1572720E+01
  0.7000000E+00  0.4279205E+05 -0.1568316E+01  0.1880183E+06 -0.2490684E-01  0.4226321E+05  0.1573277E+01
  0.7309524E+00  0.4629959E+05 -0.1567642E+01  0.1848886E+06 -0.2916265E-01  0.4535299E+05  0.1573953E+01
  0.7619048E+00  0.4990347E+05 -0.1566832E+01  0.1817050E+06 -0.3388024E-01  0.4844558E+05  0.1574763E+01
  0.7928572E+00  0.5361859E+05 -0.1565865E+01  0.1784722E+06 -0.3908407E-01  0.5157365E+05  0.1575727E+01
  0.8238096E+00  0.5741779E+05 -0.1564726E+01  0.1751921E+06 -0.4478853E-01  0.5468154E+05  0.1576867E+01
  0.8547620E+00  0.6127698E+05 -0.1563393E+01  0.1718630E+06 -0.5100543E-01  0.5780566E+05  0.1578200E+01
  0.8857143E+00  0.6515032E+05 -0.1561845E+01  0.1685020E+06 -0.5775929E-01  0.6086364E+05  0.1579748E+01
  0.9166667E+00  0.6910268E+05 -0.1560063E+01  0.1651128E+06 -0.6506519E-01  0.6389133E+05  0.1581527E+01
  0.9476191E+00  0.7312960E+05 -0.1558032E+01  0.1617177E+06 -0.7294173E-01  0.6684032E+05  0.1583562E+01
  0.9785714E+00  0.7722191E+05 -0.1555727E+01  0.1583210E+06 -0.8139422E-01  0.6976609E+05  0.1585868E+01
  0.1009524E+01  0.8131341E+05 -0.1553128E+01  0.1549345E+06 -0.9044110E-01  0.7259096E+05  0.1588469E+01
  0.1040476E+01  0.8543415E+05 -0.1550220E+01  0.1515469E+06 -0.1000764E+00  0.7535506E+05  0.1591378E+01
  0.1071429E+01  0.8953674E+05 -0.1546983E+01  0.1481667E+06 -0.1103157E+00  0.7798535E+05  0.1594614E+01
  0.1102381E+01  0.9362821E+05 -0.1543408E+01  0.1447928E+06 -0.1211649E+00  0.8051107E+05  0.1598186E+01
  0.1133333E+01  0.9768774E+05 -0.1539488E+01  0.1414424E+06 -0.1326424E+00  0.8292332E+05  0.1602104E+01
  0.1164286E+01  0.1016941E+06 -0.1535219E+01  0.1381268E+06 -0.1447705E+00  0.8513806E+05  0.1606372E+01
  0.1195238E+01  0.1056859E+06 -0.1530601E+01  0.1348464E+06 -0.1575396E+00  0.8722685E+05  0.1610994E+01
  0.1226190E+01  0.1096227E+06 -0.1525637E+01  0.1316093E+06 -0.1709530E+00  0.8914330E+05  0.1615966E+01
  0.1257143E+01  0.1134501E+06 -0.1520323E+01  0.1284176E+06 -0.1851654E+00  0.9086241E+05  0.1621292E+01
  0.1288095E+01  0.1172541E+06 -0.1514715E+01  0.1252698E+06 -0.1997006E+00  0.9244687E+05  0.1626909E+01
  0.1319048E+01  0.1208684E+06 -0.1508777E+01  0.1221650E+06 -0.2150360E+00  0.9382258E+05  0.1632854E+01
  0.1350000E+01  0.1242968E+06 -0.1502559E+01  0.1191113E+06 -0.2310135E+00  0.9492260E+05  0.1639060E+01
  0.1380952E+01  0.1275735E+06 -0.1496090E+01  0.1160869E+06 -0.2476146E+00  0.9585580E+05  0.1645506E+01
  0.1411905E+01  0.1301838E+06 -0.1490254E+01  0.1132876E+06 -0.2634359E+00  0.9641267E+05  0.1651308E+01
  0.1442857E+01  0.1330588E+06 -0.1483557E+01  0.1103724E+06 -0.2812888E+00  0.9681048E+05  0.1657970E+01
  0.1473810E+01  0.1357389E+06 -0.1476814E+01  0.1075195E+06 -0.2998012E+00  0.9697577E+05  0.1664683E+01
  0.1504762E+01  0.1381917E+06 -0.1470065E+01  0.1047263E+06 -0.3189878E+00  0.9693260E+05  0.1671416E+01
  0.1535714E+01  0.1403802E+06 -0.1463386E+01  0.1020014E+06 -0.3388448E+00  0.9662470E+05  0.1678076E+01
  0.1566667E+01  0.1422909E+06 -0.1456855E+01  0.9934429E+05 -0.3593563E+00  0.9605556E+05  0.1684575E+01
  0.1597619E+01  0.1439524E+06 -0.1450547E+01  0.9673594E+05 -0.3805102E+00  0.9530643E+05  0.1690851E+01
  0.1628572E+01  0.1453231E+06 -0.1444587E+01  0.9418921E+05 -0.4023007E+00  0.9429222E+05  0.1696758E+01
  0.1659524E+01  0.1464081E+06 -0.1439079E+01  0.9169472E+05 -0.4247269E+00  0.9302537E+05  0.1702214E+01
  0.1690476E+01  0.1472219E+06 -0.1434116E+01  0.8925181E+05 -0.4477874E+00  0.9155349E+05  0.1707120E+01
  0.1721429E+01  0.1477637E+06 -0.1429770E+01  0.8686812E+05 -0.4715357E+00  0.8991684E+05  0.1711423E+01
  0.1752381E+01  0.1480001E+06 -0.1426107E+01  0.8455306E+05 -0.4959954E+00  0.8809173E+05  0.1715071E+01
  0.1783333E+01  0.1479390E+06 -0.1423261E+01  0.8230587E+05 -0.5210302E+00  0.8604448E+05  0.1717805E+01
  0.1814286E+01  0.1476201E+06 -0.1421287E+01  0.8011005E+05 -0.5467526E+00  0.8386596E+05  0.1719699E+01
  0.1845238E+01  0.1470630E+06 -0.1420252E+01  0.7796606E+05 -0.5731738E+00  0.8160062E+05  0.1720707E+01
  0.1876190E+01  0.1462572E+06 -0.1420269E+01  0.7588273E+05 -0.6002127E+00  0.7920060E+05  0.1720615E+01
  0.1907143E+01  0.1452183E+06 -0.1421415E+01  0.7385550E+05 -0.6278572E+00  0.7667746E+05  0.1719363E+01
  0.1938095E+01  0.1439878E+06 -0.1423715E+01  0.7187410E+05 -0.6561653E+00  0.7410080E+05  0.1716972E+01
  0.1969048E+01  0.1425742E+06 -0.1427228E+01  0.6994875E+05 -0.6851160E+00  0.7147843E+05  0.1713327E+01
  0.2000000E+01  0.1409855E+06 -0.1431948E+01  0.6808148E+05 -0.7148055E+00  0.6883608E+05  0.1708553E+01
