VARIABLES="w (rad/s)"
"abs(F   1   1)" "angle(F   1   1)"
"abs(F   1   2)" "angle(F   1   2)"
"abs(F   1   3)" "angle(F   1   3)"
Zone t="Diffraction force - beta =   0.000 deg",I=    64,F=POINT
  0.5000000E-01  0.2235496E+04 -0.1570799E+01  0.4533261E+06 -0.3066585E-04  0.6586094E+03 -0.1570852E+01
  0.8095238E-01  0.3647931E+04 -0.1570787E+01  0.4525622E+06 -0.8250611E-04  0.1070308E+04 -0.1570828E+01
  0.1119048E+00  0.5093746E+04 -0.1570798E+01  0.4514406E+06 -0.1638656E-03  0.1500172E+04 -0.1570824E+01
  0.1428571E+00  0.6584836E+04 -0.1570798E+01  0.4499589E+06 -0.2809920E-03  0.1951608E+04 -0.1570807E+01
  0.1738095E+00  0.8138230E+04 -0.1570790E+01  0.4481152E+06 -0.4434235E-03  0.2421716E+04 -0.1570799E+01
  0.2047619E+00  0.9770140E+04 -0.1570787E+01  0.4459011E+06 -0.6647474E-03  0.2927217E+04 -0.1570803E+01
  0.2357143E+00  0.1151261E+05 -0.1570777E+01  0.4433176E+06 -0.9652839E-03  0.3482522E+04 -0.1570786E+01
  0.2666667E+00  0.1337118E+05 -0.1570768E+01  0.4403490E+06 -0.1369702E-02  0.4070769E+04 -0.1570775E+01
  0.2976190E+00  0.1538652E+05 -0.1570756E+01  0.4369970E+06 -0.1919576E-02  0.4733865E+04 -0.1570765E+01
  0.3285715E+00  0.1759979E+05 -0.1570737E+01  0.4332579E+06 -0.2657773E-02  0.5488227E+04 -0.1570744E+01
  0.3595238E+00  0.2001320E+05 -0.1570705E+01  0.4291345E+06 -0.3651233E-02  0.6295303E+04 -0.1570712E+01
  0.3904762E+00  0.2266873E+05 -0.1570661E+01  0.4246127E+06 -0.4976415E-02  0.7213344E+04 -0.1570666E+01
  0.4214286E+00  0.2562705E+05 -0.1570594E+01  0.4197583E+06 -0.6681009E-02  0.8292592E+04 -0.1570602E+01
  0.4523810E+00  0.2887320E+05 -0.1570498E+01  0.4145532E+06 -0.8895619E-02  0.9477244E+04 -0.1570505E+01
  0.4833333E+00  0.3238753E+05 -0.1570367E+01  0.4090402E+06 -0.1156496E-01  0.1077069E+05 -0.1570370E+01
  0.5142857E+00  0.3619345E+05 -0.1570185E+01  0.4032534E+06 -0.1483943E-01  0.1223966E+05 -0.1570188E+01
  0.5452381E+00  0.4027245E+05 -0.1569942E+01  0.3972370E+06 -0.1867511E-01  0.1385224E+05 -0.1569944E+01
  0.5761905E+00  0.4459243E+05 -0.1569626E+01  0.3909925E+06 -0.2308291E-01  0.1559110E+05 -0.1569630E+01
  0.6071429E+00  0.4910268E+05 -0.1569223E+01  0.3845303E+06 -0.2818377E-01  0.1743422E+05 -0.1569224E+01
  0.6380953E+00  0.5378992E+05 -0.1568719E+01  0.3778522E+06 -0.3386971E-01  0.1943092E+05 -0.1568721E+01
  0.6690477E+00  0.5867634E+05 -0.1568097E+01  0.3710366E+06 -0.4026233E-01  0.2160989E+05 -0.1568100E+01
  0.7000000E+00  0.6372839E+05 -0.1567338E+01  0.3641200E+06 -0.4743385E-01  0.2391302E+05 -0.1567341E+01
  0.7309524E+00  0.6889725E+05 -0.1566429E+01  0.3570432E+06 -0.5532576E-01  0.2632122E+05 -0.1566432E+01
  0.7619048E+00  0.7417140E+05 -0.1565347E+01  0.3498411E+06 -0.6400969E-01  0.2884962E+05 -0.1565349E+01
  0.7928572E+00  0.7955108E+05 -0.1564075E+01  0.3425666E+06 -0.7353332E-01  0.3154096E+05 -0.1564078E+01
  0.8238096E+00  0.8502841E+05 -0.1562597E+01  0.3352682E+06 -0.8392156E-01  0.3438478E+05 -0.1562602E+01
  0.8547620E+00  0.9060055E+05 -0.1560897E+01  0.3279512E+06 -0.9518810E-01  0.3738328E+05 -0.1560904E+01
  0.8857143E+00  0.9623304E+05 -0.1558959E+01  0.3206310E+06 -0.1073386E+00  0.4051364E+05 -0.1558970E+01
  0.9166667E+00  0.1018980E+06 -0.1556771E+01  0.3132943E+06 -0.1203799E+00  0.4375062E+05 -0.1556781E+01
  0.9476191E+00  0.1075407E+06 -0.1554321E+01  0.3059782E+06 -0.1343325E+00  0.4705400E+05 -0.1554329E+01
  0.9785714E+00  0.1131664E+06 -0.1551613E+01  0.2986907E+06 -0.1492100E+00  0.5049553E+05 -0.1551619E+01
  0.1009524E+01  0.1187629E+06 -0.1548650E+01  0.2914710E+06 -0.1650390E+00  0.5407629E+05 -0.1548662E+01
  0.1040476E+01  0.1243219E+06 -0.1545443E+01  0.2843324E+06 -0.1818222E+00  0.5779027E+05 -0.1545469E+01
  0.1071429E+01  0.1298049E+06 -0.1542009E+01  0.2773109E+06 -0.1995705E+00  0.6158032E+05 -0.1542050E+01
  0.1102381E+01  0.1351582E+06 -0.1538364E+01  0.2703990E+06 -0.2182714E+00  0.6542191E+05 -0.1538418E+01
  0.1133333E+01  0.1403697E+06 -0.1534540E+01  0.2635781E+06 -0.2378895E+00  0.6929698E+05 -0.1534598E+01
  0.1164286E+01  0.1453834E+06 -0.1530572E+01  0.2568365E+06 -0.2584296E+00  0.7319265E+05 -0.1530619E+01
  0.1195238E+01  0.1501746E+06 -0.1526517E+01  0.2501831E+06 -0.2798885E+00  0.7709566E+05 -0.1526544E+01
  0.1226190E+01  0.1547096E+06 -0.1522447E+01  0.2436384E+06 -0.3022929E+00  0.8098195E+05 -0.1522452E+01
  0.1257143E+01  0.1589472E+06 -0.1518386E+01  0.2372278E+06 -0.3259138E+00  0.8480579E+05 -0.1518376E+01
  0.1288095E+01  0.1628952E+06 -0.1514567E+01  0.2309770E+06 -0.3500349E+00  0.8863327E+05 -0.1514547E+01
  0.1319048E+01  0.1665230E+06 -0.1510941E+01  0.2248603E+06 -0.3753417E+00  0.9235854E+05 -0.1510914E+01
  0.1350000E+01  0.1697903E+06 -0.1507648E+01  0.2188893E+06 -0.4015791E+00  0.9598945E+05 -0.1507607E+01
  0.1380952E+01  0.1726919E+06 -0.1504804E+01  0.2130345E+06 -0.4286669E+00  0.9948968E+05 -0.1504744E+01
  0.1411905E+01  0.1747967E+06 -0.1503382E+01  0.2082884E+06 -0.4511277E+00  0.1024569E+06 -0.1503302E+01
  0.1442857E+01  0.1769572E+06 -0.1501708E+01  0.2027223E+06 -0.4797151E+00  0.1056631E+06 -0.1501621E+01
  0.1473810E+01  0.1786954E+06 -0.1500795E+01  0.1973083E+06 -0.5092154E+00  0.1087152E+06 -0.1500692E+01
  0.1504762E+01  0.1800405E+06 -0.1500762E+01  0.1920116E+06 -0.5395923E+00  0.1115530E+06 -0.1500653E+01
  0.1535714E+01  0.1809819E+06 -0.1501721E+01  0.1868410E+06 -0.5708396E+00  0.1141843E+06 -0.1501600E+01
  0.1566667E+01  0.1815133E+06 -0.1503761E+01  0.1818242E+06 -0.6030115E+00  0.1165909E+06 -0.1503626E+01
  0.1597619E+01  0.1816648E+06 -0.1507002E+01  0.1769253E+06 -0.6360215E+00  0.1187605E+06 -0.1506862E+01
  0.1628572E+01  0.1814465E+06 -0.1511543E+01  0.1721662E+06 -0.6699151E+00  0.1207090E+06 -0.1511386E+01
  0.1659524E+01  0.1808825E+06 -0.1517438E+01  0.1675515E+06 -0.7047620E+00  0.1224068E+06 -0.1517283E+01
  0.1690476E+01  0.1799841E+06 -0.1524773E+01  0.1630789E+06 -0.7404777E+00  0.1238833E+06 -0.1524612E+01
  0.1721429E+01  0.1787864E+06 -0.1533607E+01  0.1587328E+06 -0.7770661E+00  0.1251303E+06 -0.1533445E+01
  0.1752381E+01  0.1773200E+06 -0.1544008E+01  0.1544960E+06 -0.8144954E+00  0.1261613E+06 -0.1543845E+01
  0.1783333E+01  0.1755998E+06 -0.1556001E+01  0.1503741E+06 -0.8527322E+00  0.1269808E+06 -0.1555844E+01
  0.1814286E+01  0.1736522E+06 -0.1569603E+01  0.1463565E+06 -0.8917487E+00  0.1275874E+06 -0.1569455E+01
  0.1845238E+01  0.1715056E+06 -0.1584848E+01  0.1424229E+06 -0.9315410E+00  0.1279892E+06 -0.1584720E+01
  0.1876190E+01  0.1691874E+06 -0.1601781E+01  0.1386025E+06 -0.9721949E+00  0.1282290E+06 -0.1601660E+01
  0.1907143E+01  0.1667278E+06 -0.1620366E+01  0.1349001E+06 -0.1013811E+01  0.1282952E+06 -0.1620273E+01
  0.1938095E+01  0.1641436E+06 -0.1640612E+01  0.1313086E+06 -0.1056320E+01  0.1281991E+06 -0.1640573E+01
  0.1969048E+01  0.1614613E+06 -0.1662515E+01  0.1278595E+06 -0.1099727E+01  0.1279642E+06 -0.1662550E+01
  0.2000000E+01  0.1587010E+06 -0.1686071E+01  0.1244972E+06 -0.1143998E+01  0.1276007E+06 -0.1686205E+01
