VARIABLES="w (rad/s)"
"abs(F   1   1)" "angle(F   1   1)"
"abs(F   1   2)" "angle(F   1   2)"
"abs(F   1   3)" "angle(F   1   3)"
Zone t="Diffraction force - beta =   0.000 deg",I=    64,F=POINT
  0.5000000E-01  0.1338048E+04 -0.1570786E+01  0.3024023E+06 -0.2050857E-04  0.4115045E+02 -0.1570653E+01
  0.8095238E-01  0.2183906E+04 -0.1570797E+01  0.3019771E+06 -0.5519395E-04  0.6333487E+02 -0.1570558E+01
  0.1119048E+00  0.3049443E+04 -0.1570809E+01  0.3013517E+06 -0.1096667E-03  0.9031140E+02 -0.1570736E+01
  0.1428571E+00  0.3942183E+04 -0.1570795E+01  0.3005265E+06 -0.1881542E-03  0.1180679E+03 -0.1570877E+01
  0.1738095E+00  0.4875202E+04 -0.1570794E+01  0.2994986E+06 -0.2971340E-03  0.1553978E+03 -0.1570775E+01
  0.2047619E+00  0.5855908E+04 -0.1570790E+01  0.2982659E+06 -0.4458107E-03  0.1927250E+03 -0.1570821E+01
  0.2357143E+00  0.6897547E+04 -0.1570785E+01  0.2968242E+06 -0.6479828E-03  0.2392062E+03 -0.1570747E+01
  0.2666667E+00  0.8021486E+04 -0.1570785E+01  0.2951736E+06 -0.9205947E-03  0.2981022E+03 -0.1570785E+01
  0.2976190E+00  0.9234177E+04 -0.1570767E+01  0.2933081E+06 -0.1291809E-02  0.3582460E+03 -0.1570724E+01
  0.3285715E+00  0.1055867E+05 -0.1570759E+01  0.2912223E+06 -0.1791311E-02  0.4363448E+03 -0.1570757E+01
  0.3595238E+00  0.1202475E+05 -0.1570745E+01  0.2889258E+06 -0.2465063E-02  0.5391655E+03 -0.1570749E+01
  0.3904762E+00  0.1363478E+05 -0.1570716E+01  0.2864139E+06 -0.3366045E-02  0.6441470E+03 -0.1570702E+01
  0.4214286E+00  0.1540846E+05 -0.1570676E+01  0.2836974E+06 -0.4528075E-02  0.7691866E+03 -0.1570680E+01
  0.4523810E+00  0.1737029E+05 -0.1570614E+01  0.2807768E+06 -0.6041862E-02  0.9391819E+03 -0.1570602E+01
  0.4833333E+00  0.1952151E+05 -0.1570534E+01  0.2776912E+06 -0.7874174E-02  0.1135094E+04 -0.1570531E+01
  0.5142857E+00  0.2183684E+05 -0.1570418E+01  0.2744342E+06 -0.1012759E-01  0.1346943E+04 -0.1570412E+01
  0.5452381E+00  0.2430799E+05 -0.1570268E+01  0.2710042E+06 -0.1277639E-01  0.1597289E+04 -0.1570261E+01
  0.5761905E+00  0.2693055E+05 -0.1570070E+01  0.2674408E+06 -0.1583522E-01  0.1888562E+04 -0.1570075E+01
  0.6071429E+00  0.2970619E+05 -0.1569816E+01  0.2637588E+06 -0.1938999E-01  0.2226107E+04 -0.1569815E+01
  0.6380953E+00  0.3260471E+05 -0.1569496E+01  0.2599273E+06 -0.2336825E-01  0.2595402E+04 -0.1569497E+01
  0.6690477E+00  0.3558937E+05 -0.1569099E+01  0.2559728E+06 -0.2785752E-01  0.2988739E+04 -0.1569098E+01
  0.7000000E+00  0.3868076E+05 -0.1568610E+01  0.2519188E+06 -0.3291487E-01  0.3442059E+04 -0.1568614E+01
  0.7309524E+00  0.4188857E+05 -0.1568020E+01  0.2477663E+06 -0.3851242E-01  0.3967408E+04 -0.1568021E+01
  0.7619048E+00  0.4518655E+05 -0.1567313E+01  0.2435495E+06 -0.4470650E-01  0.4533495E+04 -0.1567314E+01
  0.7928572E+00  0.4856903E+05 -0.1566474E+01  0.2392608E+06 -0.5152478E-01  0.5143345E+04 -0.1566478E+01
  0.8238096E+00  0.5200868E+05 -0.1565486E+01  0.2348972E+06 -0.5898388E-01  0.5801828E+04 -0.1565489E+01
  0.8547620E+00  0.5550569E+05 -0.1564336E+01  0.2304744E+06 -0.6710397E-01  0.6513239E+04 -0.1564339E+01
  0.8857143E+00  0.5905623E+05 -0.1563010E+01  0.2260249E+06 -0.7591147E-01  0.7297300E+04 -0.1563015E+01
  0.9166667E+00  0.6268138E+05 -0.1561494E+01  0.2215574E+06 -0.8542197E-01  0.8153535E+04 -0.1561505E+01
  0.9476191E+00  0.6635367E+05 -0.1559774E+01  0.2170940E+06 -0.9565184E-01  0.9087479E+04 -0.1559793E+01
  0.9785714E+00  0.7006172E+05 -0.1557838E+01  0.2126315E+06 -0.1066007E+00  0.1007350E+05 -0.1557864E+01
  0.1009524E+01  0.7377331E+05 -0.1555672E+01  0.2081678E+06 -0.1182780E+00  0.1109838E+05 -0.1555698E+01
  0.1040476E+01  0.7747537E+05 -0.1553270E+01  0.2037051E+06 -0.1306916E+00  0.1217577E+05 -0.1553285E+01
  0.1071429E+01  0.8117130E+05 -0.1550630E+01  0.1992552E+06 -0.1438561E+00  0.1332765E+05 -0.1550642E+01
  0.1102381E+01  0.8485091E+05 -0.1547755E+01  0.1948345E+06 -0.1577904E+00  0.1456027E+05 -0.1547773E+01
  0.1133333E+01  0.8851194E+05 -0.1544653E+01  0.1904672E+06 -0.1724995E+00  0.1585926E+05 -0.1544691E+01
  0.1164286E+01  0.9212584E+05 -0.1541326E+01  0.1861565E+06 -0.1879975E+00  0.1721358E+05 -0.1541395E+01
  0.1195238E+01  0.9568134E+05 -0.1537789E+01  0.1819078E+06 -0.2042727E+00  0.1862954E+05 -0.1537889E+01
  0.1226190E+01  0.9916741E+05 -0.1534064E+01  0.1777107E+06 -0.2213012E+00  0.2008157E+05 -0.1534184E+01
  0.1257143E+01  0.1025250E+06 -0.1530140E+01  0.1735612E+06 -0.2392955E+00  0.2157217E+05 -0.1530261E+01
  0.1288095E+01  0.1057987E+06 -0.1526135E+01  0.1694638E+06 -0.2576145E+00  0.2311266E+05 -0.1526224E+01
  0.1319048E+01  0.1089099E+06 -0.1522006E+01  0.1654226E+06 -0.2769111E+00  0.2465654E+05 -0.1522049E+01
  0.1350000E+01  0.1118586E+06 -0.1517834E+01  0.1614437E+06 -0.2969794E+00  0.2623818E+05 -0.1517834E+01
  0.1380952E+01  0.1146405E+06 -0.1513685E+01  0.1575300E+06 -0.3178101E+00  0.2784386E+05 -0.1513654E+01
  0.1411905E+01  0.1168312E+06 -0.1510569E+01  0.1542284E+06 -0.3358106E+00  0.2921741E+05 -0.1510526E+01
  0.1442857E+01  0.1192463E+06 -0.1506697E+01  0.1504827E+06 -0.3579738E+00  0.3085927E+05 -0.1506637E+01
  0.1473810E+01  0.1214646E+06 -0.1503046E+01  0.1468097E+06 -0.3808853E+00  0.3249231E+05 -0.1502967E+01
  0.1504762E+01  0.1234643E+06 -0.1499698E+01  0.1432216E+06 -0.4045415E+00  0.3410939E+05 -0.1499583E+01
  0.1535714E+01  0.1252321E+06 -0.1496720E+01  0.1397112E+06 -0.4289417E+00  0.3568568E+05 -0.1496584E+01
  0.1566667E+01  0.1267491E+06 -0.1494211E+01  0.1362799E+06 -0.4540710E+00  0.3725291E+05 -0.1494034E+01
  0.1597619E+01  0.1280334E+06 -0.1492264E+01  0.1329143E+06 -0.4799478E+00  0.3877527E+05 -0.1492071E+01
  0.1628572E+01  0.1290776E+06 -0.1490973E+01  0.1296220E+06 -0.5065580E+00  0.4025220E+05 -0.1490770E+01
  0.1659524E+01  0.1298630E+06 -0.1490408E+01  0.1264105E+06 -0.5339013E+00  0.4168300E+05 -0.1490183E+01
  0.1690476E+01  0.1304102E+06 -0.1490668E+01  0.1232589E+06 -0.5619486E+00  0.4305018E+05 -0.1490427E+01
  0.1721429E+01  0.1307135E+06 -0.1491838E+01  0.1201949E+06 -0.5907410E+00  0.4435327E+05 -0.1491573E+01
  0.1752381E+01  0.1307844E+06 -0.1493984E+01  0.1172068E+06 -0.6202760E+00  0.4557652E+05 -0.1493701E+01
  0.1783333E+01  0.1306299E+06 -0.1497176E+01  0.1142934E+06 -0.6505538E+00  0.4672023E+05 -0.1496897E+01
  0.1814286E+01  0.1302519E+06 -0.1501487E+01  0.1114684E+06 -0.6815559E+00  0.4779879E+05 -0.1501178E+01
  0.1845238E+01  0.1296807E+06 -0.1506974E+01  0.1087069E+06 -0.7133040E+00  0.4878702E+05 -0.1506668E+01
  0.1876190E+01  0.1289250E+06 -0.1513702E+01  0.1060138E+06 -0.7457641E+00  0.4969772E+05 -0.1513390E+01
  0.1907143E+01  0.1279899E+06 -0.1521696E+01  0.1033991E+06 -0.7789307E+00  0.5052908E+05 -0.1521375E+01
  0.1938095E+01  0.1268977E+06 -0.1530999E+01  0.1008422E+06 -0.8127613E+00  0.5127773E+05 -0.1530681E+01
  0.1969048E+01  0.1256617E+06 -0.1541648E+01  0.9834173E+05 -0.8472409E+00  0.5194721E+05 -0.1541345E+01
  0.2000000E+01  0.1242968E+06 -0.1553678E+01  0.9590115E+05 -0.8823895E+00  0.5254727E+05 -0.1553353E+01
