VARIABLES="w (rad/s)"
"A   1   1" "B   1   1"
"A   1   2" "B   1   2"
"A   1   3" "B   1   3"
Zone t="Motion of body    1 in DoF   1",I=    64,F=POINT
  0.5000000E-01  0.1097445E+06  0.1101447E-01  0.8544922E-02  0.4443144E-04 -0.2188338E+06 -0.2033805E-01
  0.8095238E-01  0.1104404E+06  0.4854909E-01  0.7468953E-02  0.3381216E-04 -0.2201143E+06 -0.8990908E-01
  0.1119048E+00  0.1106808E+06  0.1362270E+00  0.3817944E-02  0.2080924E-04 -0.2204057E+06 -0.2518986E+00
  0.1428571E+00  0.1110079E+06  0.3068205E+00  0.5420684E-02  0.5742558E-04 -0.2209286E+06 -0.5671890E+00
  0.1738095E+00  0.1112437E+06  0.6107575E+00  0.5091837E-02  0.1252256E-03 -0.2213182E+06 -0.1128770E+01
  0.2047619E+00  0.1113632E+06  0.1126359E+01  0.9575777E-02  0.1898613E-03 -0.2215959E+06 -0.2081946E+01
  0.2357143E+00  0.1117906E+06  0.1984476E+01  0.4757967E-02  0.1291521E-03 -0.2220291E+06 -0.3664461E+01
  0.2666667E+00  0.1119015E+06  0.3382646E+01 -0.2660751E-02 -0.3552064E-05 -0.2224046E+06 -0.6247126E+01
  0.2976190E+00  0.1122057E+06  0.5673110E+01  0.1461182E-02  0.6009638E-04 -0.2229440E+06 -0.1047454E+02
  0.3285715E+00  0.1127442E+06  0.9391966E+01 -0.1393194E-02  0.3125519E-04 -0.2236255E+06 -0.1732464E+02
  0.3595238E+00  0.1131089E+06  0.1541754E+02  0.4753466E-02  0.1481771E-03 -0.2242614E+06 -0.2842880E+02
  0.3904762E+00  0.1134071E+06  0.2511134E+02  0.3985893E-02  0.5677789E-03 -0.2249451E+06 -0.4629951E+02
  0.4214286E+00  0.1141788E+06  0.4043992E+02  0.9051823E-03  0.2443492E-03 -0.2261259E+06 -0.7449409E+02
  0.4523810E+00  0.1147636E+06  0.6450900E+02  0.2900776E-02  0.6379485E-03 -0.2269796E+06 -0.1187275E+03
  0.4833333E+00  0.1153617E+06  0.1003371E+03  0.4040948E-02  0.2850294E-03 -0.2280503E+06 -0.1845702E+03
  0.5142857E+00  0.1159622E+06  0.1534971E+03  0.7417467E-02  0.1651764E-02 -0.2291539E+06 -0.2822180E+03
  0.5452381E+00  0.1169201E+06  0.2295591E+03  0.5597110E-02  0.7078648E-03 -0.2305827E+06 -0.4215260E+03
  0.5761905E+00  0.1178668E+06  0.3351681E+03 -0.5428850E-02 -0.1219988E-02 -0.2321729E+06 -0.6148982E+03
  0.6071429E+00  0.1186962E+06  0.4800956E+03 -0.7036994E-03 -0.7510185E-03 -0.2336075E+06 -0.8800660E+03
  0.6380953E+00  0.1196310E+06  0.6726080E+03  0.5499996E-02  0.9794235E-03 -0.2353215E+06 -0.1232068E+04
  0.6690477E+00  0.1209074E+06  0.9272415E+03  0.8849011E-02  0.1581669E-02 -0.2373918E+06 -0.1696219E+04
  0.7000000E+00  0.1221452E+06  0.1258973E+04  0.9242466E-02  0.2540588E-02 -0.2393398E+06 -0.2299645E+04
  0.7309524E+00  0.1234261E+06  0.1683038E+04  0.5511057E-02  0.2371788E-02 -0.2413690E+06 -0.3069497E+04
  0.7619048E+00  0.1248189E+06  0.2220811E+04 -0.6769180E-02 -0.1167297E-02 -0.2438544E+06 -0.4046135E+04
  0.7928572E+00  0.1261133E+06  0.2892929E+04 -0.2116985E-02 -0.1615524E-02 -0.2460607E+06 -0.5263694E+04
  0.8238096E+00  0.1276814E+06  0.3728438E+04 -0.1185423E-02 -0.1983643E-02 -0.2487396E+06 -0.6773786E+04
  0.8547620E+00  0.1294281E+06  0.4756671E+04  0.5248343E-02  0.1945496E-02 -0.2514407E+06 -0.8623040E+04
  0.8857143E+00  0.1312179E+06  0.6009783E+04 -0.6684334E-02 -0.6050110E-02 -0.2544223E+06 -0.1087587E+05
  0.9166667E+00  0.1328471E+06  0.7516729E+04  0.1897638E-02  0.1346588E-02 -0.2568786E+06 -0.1357143E+05
  0.9476191E+00  0.1345647E+06  0.9320363E+04  0.2608563E-02  0.1037598E-02 -0.2597849E+06 -0.1679850E+05
  0.9785714E+00  0.1362453E+06  0.1145566E+05 -0.4553134E-02 -0.2487183E-02 -0.2625812E+06 -0.2060759E+05
  0.1009524E+01  0.1380218E+06  0.1396625E+05 -0.3808939E-02 -0.1205444E-02 -0.2656065E+06 -0.2507725E+05
  0.1040476E+01  0.1396785E+06  0.1687937E+05 -0.1525181E-02  0.5340576E-03 -0.2680358E+06 -0.3022115E+05
  0.1071429E+01  0.1413684E+06  0.2025285E+05  0.3417969E-03  0.2593994E-03 -0.2705264E+06 -0.3615626E+05
  0.1102381E+01  0.1429164E+06  0.2412073E+05  0.3100533E-02  0.6240845E-02 -0.2727638E+06 -0.4293797E+05
  0.1133333E+01  0.1442872E+06  0.2851364E+05 -0.2854291E-02 -0.4943848E-02 -0.2746398E+06 -0.5060482E+05
  0.1164286E+01  0.1454721E+06  0.3345813E+05  0.1153302E-02  0.4959106E-02 -0.2763064E+06 -0.5921433E+05
  0.1195238E+01  0.1462019E+06  0.3893716E+05 -0.1072371E-02  0.2853394E-02 -0.2771215E+06 -0.6870438E+05
  0.1226190E+01  0.1465967E+06  0.4495961E+05  0.3484337E-03 -0.1449585E-02 -0.2773304E+06 -0.7907738E+05
  0.1257143E+01  0.1466020E+06  0.5150364E+05 -0.4126809E-02 -0.1647949E-02 -0.2770641E+06 -0.9033181E+05
  0.1288095E+01  0.1463577E+06  0.5855358E+05  0.1184601E-02  0.2044678E-02 -0.2760451E+06 -0.1023193E+06
  0.1319048E+01  0.1457272E+06  0.6603058E+05  0.1850885E-02 -0.5187988E-02 -0.2742175E+06 -0.1148975E+06
  0.1350000E+01  0.1446273E+06  0.7390142E+05  0.1085069E-02 -0.2532959E-02 -0.2717380E+06 -0.1280946E+06
  0.1380952E+01  0.1429025E+06  0.8203251E+05 -0.2519279E-02 -0.7904053E-02 -0.2680675E+06 -0.1415762E+06
  0.1411905E+01  0.1404428E+06  0.9024898E+05 -0.6916631E-03 -0.3051758E-03 -0.2632846E+06 -0.1551019E+06
  0.1442857E+01  0.1377623E+06  0.9861324E+05 -0.1015238E-02 -0.2258301E-02 -0.2581920E+06 -0.1687736E+06
  0.1473810E+01  0.1344637E+06  0.1068127E+06 -0.1656528E-02 -0.5828857E-02 -0.2518912E+06 -0.1819205E+06
  0.1504762E+01  0.1308559E+06  0.1148231E+06 -0.4056134E-04 -0.7019043E-03 -0.2451033E+06 -0.1945750E+06
  0.1535714E+01  0.1269880E+06  0.1225536E+06 -0.3000658E-02 -0.7019043E-03 -0.2379281E+06 -0.2065844E+06
  0.1566667E+01  0.1226811E+06  0.1298092E+06 -0.1129800E-02 -0.8483887E-02 -0.2302203E+06 -0.2177403E+06
  0.1597619E+01  0.1180324E+06  0.1364477E+06  0.3247325E-03  0.1953125E-02 -0.2217984E+06 -0.2275281E+06
  0.1628572E+01  0.1132071E+06  0.1424662E+06 -0.2998218E-03 -0.4272461E-03 -0.2131837E+06 -0.2361312E+06
  0.1659524E+01  0.1083604E+06  0.1478875E+06 -0.2574510E-02  0.3234863E-02 -0.2048120E+06 -0.2437802E+06
  0.1690476E+01  0.1034814E+06  0.1525253E+06  0.2707898E-03 -0.0000000E+00 -0.1963079E+06 -0.2498137E+06
  0.1721429E+01  0.9863800E+05  0.1564429E+06 -0.2269191E-02  0.5798340E-03 -0.1879506E+06 -0.2545622E+06
  0.1752381E+01  0.9389786E+05  0.1597079E+06 -0.9055760E-03  0.2349854E-02 -0.1798799E+06 -0.2581587E+06
  0.1783333E+01  0.8933816E+05  0.1623408E+06 -0.9411963E-03 -0.3662109E-02 -0.1722673E+06 -0.2607212E+06
  0.1814286E+01  0.8484175E+05  0.1641798E+06 -0.1799816E-02 -0.9460449E-03 -0.1648570E+06 -0.2619210E+06
  0.1845238E+01  0.8054108E+05  0.1652566E+06 -0.3803869E-03 -0.2716064E-02 -0.1576897E+06 -0.2614819E+06
  0.1876190E+01  0.7647401E+05  0.1657773E+06 -0.4229086E-03 -0.1373291E-02 -0.1510135E+06 -0.2601452E+06
  0.1907143E+01  0.7269827E+05  0.1659288E+06 -0.1648178E-02 -0.1220703E-02 -0.1450572E+06 -0.2585299E+06
  0.1938095E+01  0.6918307E+05  0.1656491E+06  0.2023383E-02 -0.1068115E-02 -0.1395660E+06 -0.2561127E+06
  0.1969048E+01  0.6584945E+05  0.1648394E+06  0.3874662E-04 -0.4272461E-02 -0.1343592E+06 -0.2527097E+06
  0.2000000E+01  0.6283905E+05  0.1637825E+06 -0.1274109E-02 -0.4577637E-03 -0.1297588E+06 -0.2489806E+06
Zone t="Motion of body    1 in DoF   2",I=    64,F=POINT
  0.5000000E-01 -0.4577637E-03  0.9059906E-05  0.7291024E+05  0.1267753E+03  0.5187988E-02 -0.1382828E-04
  0.8095238E-01 -0.3062977E-02  0.3671646E-04  0.7237507E+05  0.2098240E+03  0.9047564E-02 -0.4196167E-04
  0.1119048E+00  0.1499907E-02  0.4768372E-05  0.7195108E+05  0.2996579E+03  0.2181682E-02 -0.3051758E-04
  0.1428571E+00 -0.1869202E-02 -0.7247925E-04  0.7176821E+05  0.3995239E+03  0.5767822E-02  0.1335144E-03
  0.1738095E+00  0.1492435E-02  0.3433228E-04  0.7167084E+05  0.5130461E+03  0.7023223E-03  0.2670288E-03
  0.2047619E+00 -0.5141857E-02  0.1525879E-04  0.7154944E+05  0.6454897E+03  0.1400970E-01 -0.1754761E-03
  0.2357143E+00  0.3495650E-02  0.1907349E-04  0.7165082E+05  0.8033693E+03  0.2511689E-01 -0.2632141E-03
  0.2666667E+00 -0.2031326E-02 -0.1640320E-03  0.7162702E+05  0.9917264E+03  0.2288818E-03  0.4959106E-03
  0.2976190E+00 -0.4101563E-03  0.3433228E-04  0.7177885E+05  0.1223905E+04  0.2501953E-01 -0.1525879E-04
  0.3285715E+00  0.1253874E-02 -0.1144409E-04  0.7179467E+05  0.1504647E+04 -0.2972146E-02  0.4425049E-03
  0.3595238E+00 -0.2164525E-02 -0.1487732E-03  0.7196884E+05  0.1848708E+04  0.1324180E-01 -0.2288818E-04
  0.3904762E+00 -0.6174226E-02 -0.3089905E-03  0.7188096E+05  0.2264921E+04  0.2469691E-01  0.1220703E-03
  0.4214286E+00 -0.8689750E-03  0.6103516E-03  0.7199375E+05  0.2744401E+04  0.8979408E-02 -0.8697510E-03
  0.4523810E+00 -0.1821417E-02 -0.2059937E-03  0.7164391E+05  0.3315117E+04  0.8365029E-02  0.6866455E-03
  0.4833333E+00  0.4482927E-02  0.2975464E-03  0.7140483E+05  0.3912763E+04  0.5051185E-02 -0.8850098E-03
  0.5142857E+00 -0.2254910E-02  0.7629395E-05  0.7096559E+05  0.4573628E+04  0.1186795E-01 -0.1098633E-02
  0.5452381E+00 -0.5597111E-03  0.6408691E-03  0.7037438E+05  0.5251706E+04  0.1544803E-01  0.4272461E-03
  0.5761905E+00  0.1059288E-02  0.1464844E-02  0.6998998E+05  0.5924149E+04  0.1313517E-01  0.2288818E-02
  0.6071429E+00 -0.2211627E-02 -0.1113892E-02  0.6906799E+05  0.6623087E+04  0.2030675E-01  0.6103516E-03
  0.6380953E+00 -0.3108694E-02 -0.1419067E-02  0.6834899E+05  0.7276978E+04  0.1913042E-01 -0.1129150E-02
  0.6690477E+00 -0.4835027E-02 -0.1190186E-02  0.6777165E+05  0.7911322E+04  0.1404895E-01  0.1525879E-02
  0.7000000E+00 -0.3792899E-02 -0.7629395E-04  0.6675566E+05  0.8538624E+04  0.1081194E-01 -0.4882812E-03
  0.7309524E+00 -0.2296274E-02  0.9765625E-03  0.6591570E+05  0.9114095E+04  0.2004021E-02  0.1892090E-02
  0.7619048E+00  0.4005432E-04  0.9765625E-03  0.6528362E+05  0.9644881E+04  0.1185608E-01 -0.1464844E-02
  0.7928572E+00 -0.1655097E-02  0.8544922E-03  0.6432344E+05  0.1013253E+05  0.1693588E-01 -0.4333496E-02
  0.8238096E+00 -0.1111334E-03  0.5493164E-03  0.6339004E+05  0.1057475E+05  0.1037245E-01 -0.3051758E-02
  0.8547620E+00  0.3927331E-03  0.1037598E-02  0.6262141E+05  0.1095476E+05  0.3427489E-02 -0.3112793E-02
  0.8857143E+00  0.4444737E-02 -0.1220703E-03  0.6204843E+05  0.1127136E+05  0.5512853E-02 -0.3112793E-02
  0.9166667E+00  0.3295898E-02 -0.9765625E-03  0.6110147E+05  0.1151982E+05 -0.6392045E-02 -0.7934570E-03
  0.9476191E+00  0.2415336E-03 -0.1281738E-02  0.6025803E+05  0.1171194E+05  0.6440896E-02  0.1953125E-02
  0.9785714E+00 -0.1902337E-02 -0.4882812E-03  0.5957268E+05  0.1183718E+05  0.1272383E-01  0.2014160E-02
  0.1009524E+01  0.2221881E-02 -0.1007080E-02  0.5906860E+05  0.1190102E+05  0.1209187E-02 -0.5187988E-02
  0.1040476E+01  0.2463753E-02 -0.2532959E-02  0.5845039E+05  0.1188173E+05  0.3754291E-02 -0.2136230E-02
  0.1071429E+01 -0.1438395E-02  0.1831055E-03  0.5774251E+05  0.1180758E+05  0.8658854E-02 -0.4089355E-02
  0.1102381E+01 -0.1411850E-02  0.7934570E-03  0.5714599E+05  0.1167763E+05  0.1417387E-01  0.2441406E-02
  0.1133333E+01  0.4173728E-03 -0.2441406E-03  0.5670304E+05  0.1150312E+05  0.7108801E-02  0.4882812E-03
  0.1164286E+01 -0.3282980E-02 -0.2197266E-02  0.5643279E+05  0.1129690E+05  0.1279117E-01  0.1458740E-01
  0.1195238E+01 -0.9638569E-03 -0.1831055E-03  0.5611653E+05  0.1101139E+05  0.5923571E-02 -0.1098633E-02
  0.1226190E+01 -0.1368847E-02  0.1586914E-02  0.5563341E+05  0.1064182E+05  0.5176730E-02 -0.4455566E-02
  0.1257143E+01  0.3034418E-05 -0.2014160E-02  0.5526239E+05  0.1026484E+05  0.1126376E-01  0.7873535E-02
  0.1288095E+01  0.1143140E-02  0.2441406E-03  0.5501753E+05  0.9864792E+04  0.1516289E-02  0.3173828E-02
  0.1319048E+01  0.4916415E-04  0.2868652E-02  0.5489375E+05  0.9480402E+04  0.6663188E-02 -0.4211426E-02
  0.1350000E+01  0.7911965E-03 -0.3662109E-03  0.5491502E+05  0.9128745E+04  0.7414641E-02 -0.3417969E-02
  0.1380952E+01 -0.9557790E-03 -0.3845215E-02  0.5483261E+05  0.8663716E+04  0.1237540E-02 -0.1281738E-02
  0.1411905E+01 -0.1458977E-03  0.2441406E-03  0.5462040E+05  0.8102499E+04  0.8991621E-02  0.1586914E-02
  0.1442857E+01  0.5076191E-03 -0.9765625E-03  0.5450705E+05  0.7594026E+04  0.6768255E-02  0.4547119E-02
  0.1473810E+01 -0.1501228E-02 -0.4455566E-02  0.5446458E+05  0.7094646E+04  0.3313055E-02  0.6774902E-02
  0.1504762E+01 -0.5881394E-03 -0.9765625E-03  0.5451183E+05  0.6654738E+04  0.8599004E-02 -0.4089355E-02
  0.1535714E+01  0.7849404E-03  0.4455566E-02  0.5462972E+05  0.6282977E+04  0.7789789E-02 -0.7080078E-02
  0.1566667E+01 -0.1363551E-02  0.1770020E-02  0.5483621E+05  0.6013176E+04  0.8103390E-02 -0.4486084E-02
  0.1597619E+01 -0.2865287E-03  0.3173828E-02  0.5489296E+05  0.5493869E+04  0.6876688E-02 -0.2777100E-02
  0.1628572E+01 -0.5809048E-03 -0.2655029E-02  0.5491075E+05  0.4924215E+04  0.4947060E-02 -0.5798340E-03
  0.1659524E+01 -0.2206723E-03 -0.8239746E-03  0.5497594E+05  0.4460179E+04  0.9856696E-02  0.1312256E-02
  0.1690476E+01 -0.1209528E-02  0.1220703E-02  0.5507062E+05  0.4017078E+04  0.1631960E-01  0.8270264E-02
  0.1721429E+01  0.8332186E-03  0.8850098E-03  0.5521534E+05  0.3668356E+04  0.5389329E-02  0.3936768E-02
  0.1752381E+01  0.4527880E-03  0.2441406E-02  0.5537532E+05  0.3396241E+04  0.7941205E-02 -0.4318237E-02
  0.1783333E+01 -0.1317675E-02 -0.2471924E-02  0.5555561E+05  0.3209259E+04  0.1163661E-01  0.7064819E-02
  0.1814286E+01 -0.2775418E-02 -0.1953125E-02  0.5575925E+05  0.3116134E+04  0.5517194E-02  0.7919312E-02
  0.1845238E+01  0.1339623E-02  0.3295898E-02  0.5589536E+05  0.2695584E+04  0.4498488E-02 -0.6210327E-02
  0.1876190E+01  0.7644886E-03  0.3723145E-02  0.5602177E+05  0.2285315E+04  0.5725531E-02 -0.3128052E-02
  0.1907143E+01 -0.1552168E-02  0.1159668E-02  0.5615025E+05  0.2001571E+04  0.8960967E-02 -0.1052856E-02
  0.1938095E+01 -0.2141479E-02 -0.2838135E-02  0.5628263E+05  0.1732104E+04  0.7810101E-02  0.1853943E-02
  0.1969048E+01 -0.2138814E-02  0.4882812E-03  0.5642950E+05  0.1542693E+04  0.3223719E-02  0.1502991E-02
  0.2000000E+01  0.2593994E-03  0.9155273E-03  0.5657639E+05  0.1413523E+04  0.5859375E-02  0.4501343E-03
Zone t="Motion of body    1 in DoF   3",I=    64,F=POINT
  0.5000000E-01 -0.2190028E+06 -0.2038237E-01  0.9651184E-02 -0.4102860E-04  0.5778061E+06  0.3774044E-01
  0.8095238E-01 -0.2201880E+06 -0.8999513E-01 -0.1760034E-01 -0.1163039E-03  0.5805567E+06  0.1666888E+00
  0.1119048E+00 -0.2205255E+06 -0.2522506E+00  0.3033902E-02 -0.4498241E-04  0.5808370E+06  0.4665986E+00
  0.1428571E+00 -0.2210405E+06 -0.5679743E+00 -0.1810455E-01 -0.2714125E-03  0.5815132E+06  0.1050005E+01
  0.1738095E+00 -0.2214649E+06 -0.1130215E+01 -0.1218090E-01 -0.1501394E-03  0.5824023E+06  0.2088905E+01
  0.2047619E+00 -0.2217428E+06 -0.2084128E+01 -0.1209082E-01 -0.2327003E-03  0.5827616E+06  0.3852377E+01
  0.2357143E+00 -0.2221750E+06 -0.3671001E+01  0.2828887E-01  0.4616752E-04  0.5832865E+06  0.6778608E+01
  0.2666667E+00 -0.2225519E+06 -0.6254404E+01 -0.2317428E-01 -0.5690157E-03  0.5841632E+06  0.1155029E+02
  0.2976190E+00 -0.2230533E+06 -0.1048652E+02  0.5255127E-02 -0.2182946E-03  0.5849161E+06  0.1936251E+02
  0.3285715E+00 -0.2237997E+06 -0.1735256E+02  0.1729882E-01  0.1570582E-04  0.5860104E+06  0.3201062E+02
  0.3595238E+00 -0.2243974E+06 -0.2847007E+02 -0.2538011E-01 -0.1499519E-02  0.5871661E+06  0.5249539E+02
  0.3904762E+00 -0.2251073E+06 -0.4634554E+02 -0.1262200E-01 -0.5894601E-03  0.5884343E+06  0.8544704E+02
  0.4214286E+00 -0.2262672E+06 -0.7458989E+02  0.3349175E-02 -0.7749796E-03  0.5904551E+06  0.1374000E+03
  0.4523810E+00 -0.2271820E+06 -0.1189099E+03 -0.3204345E-03 -0.3957152E-03  0.5915541E+06  0.2188524E+03
  0.4833333E+00 -0.2282202E+06 -0.1848125E+03  0.6566541E-02 -0.4049540E-03  0.5935880E+06  0.3399687E+03
  0.5142857E+00 -0.2292859E+06 -0.2825069E+03 -0.8826786E-02  0.5605221E-03  0.5954114E+06  0.5194164E+03
  0.5452381E+00 -0.2307637E+06 -0.4221401E+03  0.2392765E-01  0.2721071E-02  0.5976989E+06  0.7751559E+03
  0.5761905E+00 -0.2323286E+06 -0.6157839E+03  0.2372804E-01  0.4612923E-02  0.6006116E+06  0.1129723E+04
  0.6071429E+00 -0.2338000E+06 -0.8811848E+03  0.2473001E-01  0.5887985E-02  0.6029066E+06  0.1615339E+04
  0.6380953E+00 -0.2354815E+06 -0.1233125E+04 -0.1040217E-02  0.8363724E-03  0.6059948E+06  0.2258823E+04
  0.6690477E+00 -0.2375312E+06 -0.1697969E+04 -0.2292076E-01 -0.6963730E-02  0.6094471E+06  0.3106120E+04
  0.7000000E+00 -0.2395303E+06 -0.2302566E+04 -0.7607596E-02 -0.2079010E-02  0.6124071E+06  0.4205920E+04
  0.7309524E+00 -0.2415746E+06 -0.3074010E+04 -0.1046892E-01 -0.5334854E-02  0.6158874E+06  0.5606394E+04
  0.7619048E+00 -0.2440209E+06 -0.4050466E+04  0.1051426E-02 -0.3696442E-02  0.6204288E+06  0.7379746E+04
  0.7928572E+00 -0.2461860E+06 -0.5268095E+04  0.1524229E-01  0.5023956E-02  0.6238750E+06  0.9585336E+04
  0.8238096E+00 -0.2489152E+06 -0.6777828E+04 -0.1384537E-01 -0.5649567E-02  0.6283276E+06  0.1231364E+05
  0.8547620E+00 -0.2516268E+06 -0.8631710E+04 -0.5882071E-02 -0.1869202E-02  0.6327096E+06  0.1564770E+05
  0.8857143E+00 -0.2545765E+06 -0.1088610E+05  0.3070831E-01  0.1474762E-01  0.6379596E+06  0.1970086E+05
  0.9166667E+00 -0.2570524E+06 -0.1358877E+05  0.1142745E-01 -0.1037598E-02  0.6414644E+06  0.2453429E+05
  0.9476191E+00 -0.2599948E+06 -0.1681385E+05 -0.6762940E-02 -0.4882812E-02  0.6463305E+06  0.3030421E+05
  0.9785714E+00 -0.2627421E+06 -0.2062051E+05  0.2993062E-01  0.4364014E-02  0.6511454E+06  0.3709525E+05
  0.1009524E+01 -0.2657293E+06 -0.2508040E+05  0.1407947E-01  0.1708984E-02  0.6562315E+06  0.4503470E+05
  0.1040476E+01 -0.2681324E+06 -0.3023207E+05  0.1297137E-01  0.5065918E-02  0.6596225E+06  0.5412610E+05
  0.1071429E+01 -0.2706969E+06 -0.3617579E+05  0.6373088E-02 -0.1098633E-01  0.6632539E+06  0.6457950E+05
  0.1102381E+01 -0.2729610E+06 -0.4296521E+05 -0.2085247E-01 -0.2172852E-01  0.6663969E+06  0.7648105E+05
  0.1133333E+01 -0.2748395E+06 -0.5064610E+05  0.2100327E-01  0.6927490E-02  0.6691109E+06  0.8988696E+05
  0.1164286E+01 -0.2764905E+06 -0.5925192E+05 -0.5510950E-02 -0.1348877E-01  0.6714841E+06  0.1048702E+06
  0.1195238E+01 -0.2772372E+06 -0.6873775E+05  0.1506425E-02 -0.5401611E-02  0.6721669E+06  0.1212929E+06
  0.1226190E+01 -0.2774308E+06 -0.7909902E+05  0.6582908E-02  0.2182007E-01  0.6715383E+06  0.1391214E+06
  0.1257143E+01 -0.2771653E+06 -0.9029014E+05  0.2491864E-01 -0.3051758E-03  0.6704094E+06  0.1583514E+06
  0.1288095E+01 -0.2761266E+06 -0.1022721E+06 -0.6005927E-02 -0.9887695E-02  0.6678425E+06  0.1787201E+06
  0.1319048E+01 -0.2743177E+06 -0.1148601E+06  0.7033365E-02 -0.3540039E-02  0.6635584E+06  0.1998676E+06
  0.1350000E+01 -0.2718234E+06 -0.1280324E+06  0.2486618E-02 -0.1092529E-01  0.6585269E+06  0.2219383E+06
  0.1380952E+01 -0.2680999E+06 -0.1415071E+06  0.1129256E-01  0.1403809E-01  0.6510452E+06  0.2442242E+06
  0.1411905E+01 -0.2632811E+06 -0.1549773E+06  0.6354655E-02 -0.6591797E-02  0.6416181E+06  0.2663137E+06
  0.1442857E+01 -0.2582556E+06 -0.1685875E+06  0.1895111E-01  0.1092529E-01  0.6321726E+06  0.2884922E+06
  0.1473810E+01 -0.2519463E+06 -0.1817108E+06 -0.1180276E-02  0.5249023E-02  0.6204499E+06  0.3094514E+06
  0.1504762E+01 -0.2451585E+06 -0.1943609E+06  0.1541331E-01  0.9582520E-02  0.6082116E+06  0.3293842E+06
  0.1535714E+01 -0.2379848E+06 -0.2063349E+06  0.5961573E-02  0.1770020E-02  0.5950601E+06  0.3478182E+06
  0.1566667E+01 -0.2302672E+06 -0.2174186E+06  0.1414197E-01  0.5065918E-02  0.5817624E+06  0.3647922E+06
  0.1597619E+01 -0.2217976E+06 -0.2271791E+06  0.1107911E-01  0.9399414E-02  0.5665253E+06  0.3788103E+06
  0.1628572E+01 -0.2131925E+06 -0.2357709E+06  0.2848307E-02  0.8483887E-02  0.5511812E+06  0.3906614E+06
  0.1659524E+01 -0.2049138E+06 -0.2433574E+06  0.1382880E-01  0.9399414E-02  0.5369928E+06  0.4010282E+06
  0.1690476E+01 -0.1964376E+06 -0.2493697E+06  0.6860007E-02 -0.6103516E-02  0.5222787E+06  0.4082053E+06
  0.1721429E+01 -0.1880827E+06 -0.2541393E+06  0.7233046E-02 -0.1220703E-03  0.5084566E+06  0.4135514E+06
  0.1752381E+01 -0.1800171E+06 -0.2576847E+06  0.5294137E-02  0.2502441E-02  0.4949252E+06  0.4165579E+06
  0.1783333E+01 -0.1724331E+06 -0.2601788E+06  0.5065348E-02  0.5798340E-02  0.4824910E+06  0.4179010E+06
  0.1814286E+01 -0.1650301E+06 -0.2613344E+06 -0.3296860E-02  0.4882812E-02  0.4708554E+06  0.4172474E+06
  0.1845238E+01 -0.1578188E+06 -0.2609019E+06  0.8930822E-02  0.4577637E-02  0.4588533E+06  0.4127541E+06
  0.1876190E+01 -0.1511399E+06 -0.2596074E+06  0.1073537E-01  0.3234863E-02  0.4478872E+06  0.4069730E+06
  0.1907143E+01 -0.1452872E+06 -0.2580465E+06  0.1305741E-01  0.4638672E-02  0.4388910E+06  0.4017414E+06
  0.1938095E+01 -0.1398591E+06 -0.2555922E+06 -0.3086250E-02  0.4394531E-02  0.4304026E+06  0.3945365E+06
  0.1969048E+01 -0.1346399E+06 -0.2521648E+06  0.5765498E-02  0.6652832E-02  0.4225849E+06  0.3861642E+06
  0.2000000E+01 -0.1300390E+06 -0.2484583E+06  0.1855469E-01 -0.1159668E-02  0.4159960E+06  0.3777602E+06
