VARIABLES="w (rad/s)"
"abs(F   1   1)" "angle(F   1   1)"
"abs(F   1   2)" "angle(F   1   2)"
"abs(F   1   3)" "angle(F   1   3)"
Zone t="Diffraction force - beta =   0.000 deg",I=    64,F=POINT
  0.5000000E-01  0.2572326E+04 -0.1570801E+01  0.3412915E+06 -0.2333018E-04  0.2923926E+04  0.1570775E+01
  0.8095238E-01  0.4201643E+04 -0.1570796E+01  0.3407001E+06 -0.6276589E-04  0.4775951E+04  0.1570760E+01
  0.1119048E+00  0.5868787E+04 -0.1570799E+01  0.3398320E+06 -0.1246473E-03  0.6654488E+04  0.1570813E+01
  0.1428571E+00  0.7581427E+04 -0.1570793E+01  0.3386852E+06 -0.2137437E-03  0.8584941E+04  0.1570783E+01
  0.1738095E+00  0.9372120E+04 -0.1570793E+01  0.3372602E+06 -0.3372563E-03  0.1058063E+05  0.1570804E+01
  0.2047619E+00  0.1124414E+05 -0.1570787E+01  0.3355512E+06 -0.5055724E-03  0.1266956E+05  0.1570819E+01
  0.2357143E+00  0.1324417E+05 -0.1570773E+01  0.3335600E+06 -0.7341252E-03  0.1486486E+05  0.1570806E+01
  0.2666667E+00  0.1538510E+05 -0.1570768E+01  0.3312813E+06 -0.1041567E-02  0.1720158E+05  0.1570822E+01
  0.2976190E+00  0.1768532E+05 -0.1570750E+01  0.3287127E+06 -0.1459754E-02  0.1970750E+05  0.1570839E+01
  0.3285715E+00  0.2021035E+05 -0.1570727E+01  0.3258562E+06 -0.2021004E-02  0.2240758E+05  0.1570866E+01
  0.3595238E+00  0.2299488E+05 -0.1570691E+01  0.3227163E+06 -0.2776767E-02  0.2533683E+05  0.1570904E+01
  0.3904762E+00  0.2602352E+05 -0.1570639E+01  0.3192877E+06 -0.3784504E-02  0.2854219E+05  0.1570951E+01
  0.4214286E+00  0.2938680E+05 -0.1570563E+01  0.3156043E+06 -0.5081809E-02  0.3201425E+05  0.1571027E+01
  0.4523810E+00  0.3308711E+05 -0.1570450E+01  0.3116722E+06 -0.6768490E-02  0.3579506E+05  0.1571145E+01
  0.4833333E+00  0.3711027E+05 -0.1570295E+01  0.3075174E+06 -0.8802778E-02  0.3986638E+05  0.1571297E+01
  0.5142857E+00  0.4143389E+05 -0.1570081E+01  0.3031467E+06 -0.1130021E-01  0.4420641E+05  0.1571512E+01
  0.5452381E+00  0.4605946E+05 -0.1569795E+01  0.2985923E+06 -0.1422759E-01  0.4873970E+05  0.1571796E+01
  0.5761905E+00  0.5097999E+05 -0.1569422E+01  0.2938779E+06 -0.1759613E-01  0.5344867E+05  0.1572168E+01
  0.6071429E+00  0.5612354E+05 -0.1568944E+01  0.2890114E+06 -0.2149947E-01  0.5832442E+05  0.1572648E+01
  0.6380953E+00  0.6143743E+05 -0.1568347E+01  0.2839689E+06 -0.2585619E-01  0.6330440E+05  0.1573246E+01
  0.6690477E+00  0.6696302E+05 -0.1567608E+01  0.2788032E+06 -0.3076008E-01  0.6829591E+05  0.1573983E+01
  0.7000000E+00  0.7268239E+05 -0.1566702E+01  0.2735508E+06 -0.3627142E-01  0.7334066E+05  0.1574891E+01
  0.7309524E+00  0.7857521E+05 -0.1565610E+01  0.2681949E+06 -0.4235214E-01  0.7842075E+05  0.1575983E+01
  0.7619048E+00  0.8458954E+05 -0.1564305E+01  0.2627507E+06 -0.4905591E-01  0.8343254E+05  0.1577288E+01
  0.7928572E+00  0.9070032E+05 -0.1562760E+01  0.2572351E+06 -0.5641767E-01  0.8846359E+05  0.1578835E+01
  0.8238096E+00  0.9687355E+05 -0.1560948E+01  0.2516710E+06 -0.6446352E-01  0.9334438E+05  0.1580644E+01
  0.8547620E+00  0.1031864E+06 -0.1558850E+01  0.2460760E+06 -0.7320721E-01  0.9814073E+05  0.1582744E+01
  0.8857143E+00  0.1096202E+06 -0.1556436E+01  0.2404706E+06 -0.8266509E-01  0.1027913E+06  0.1585157E+01
  0.9166667E+00  0.1161145E+06 -0.1553682E+01  0.2348698E+06 -0.9285051E-01  0.1073679E+06  0.1587916E+01
  0.9476191E+00  0.1225865E+06 -0.1550565E+01  0.2292889E+06 -0.1037778E+00  0.1117028E+06  0.1591035E+01
  0.9785714E+00  0.1290721E+06 -0.1547062E+01  0.2237076E+06 -0.1154444E+00  0.1159083E+06  0.1594536E+01
  0.1009524E+01  0.1354897E+06 -0.1543161E+01  0.2181508E+06 -0.1278800E+00  0.1198102E+06  0.1598432E+01
  0.1040476E+01  0.1419068E+06 -0.1538863E+01  0.2126324E+06 -0.1410957E+00  0.1234721E+06  0.1602727E+01
  0.1071429E+01  0.1482327E+06 -0.1534159E+01  0.2071876E+06 -0.1551191E+00  0.1268335E+06  0.1607435E+01
  0.1102381E+01  0.1544812E+06 -0.1529052E+01  0.2018155E+06 -0.1699418E+00  0.1298664E+06  0.1612552E+01
  0.1133333E+01  0.1606292E+06 -0.1523552E+01  0.1965260E+06 -0.1855562E+00  0.1326356E+06  0.1618067E+01
  0.1164286E+01  0.1665939E+06 -0.1517675E+01  0.1913111E+06 -0.2019635E+00  0.1349921E+06  0.1623956E+01
  0.1195238E+01  0.1723725E+06 -0.1511455E+01  0.1861664E+06 -0.2191363E+00  0.1370093E+06  0.1630179E+01
  0.1226190E+01  0.1778482E+06 -0.1504905E+01  0.1810948E+06 -0.2371141E+00  0.1386818E+06  0.1636723E+01
  0.1257143E+01  0.1829291E+06 -0.1498049E+01  0.1761246E+06 -0.2560877E+00  0.1398226E+06  0.1643542E+01
  0.1288095E+01  0.1877953E+06 -0.1491084E+01  0.1712268E+06 -0.2755165E+00  0.1406054E+06  0.1650469E+01
  0.1319048E+01  0.1922627E+06 -0.1483982E+01  0.1664387E+06 -0.2959654E+00  0.1408705E+06  0.1657534E+01
  0.1350000E+01  0.1963730E+06 -0.1476874E+01  0.1617522E+06 -0.3172396E+00  0.1406720E+06  0.1664615E+01
  0.1380952E+01  0.2001126E+06 -0.1469852E+01  0.1571670E+06 -0.3392769E+00  0.1400830E+06  0.1671614E+01
  0.1411905E+01  0.2026942E+06 -0.1464113E+01  0.1530105E+06 -0.3599092E+00  0.1390013E+06  0.1677341E+01
  0.1442857E+01  0.2054490E+06 -0.1457580E+01  0.1486804E+06 -0.3834451E+00  0.1375000E+06  0.1683808E+01
  0.1473810E+01  0.2077480E+06 -0.1451444E+01  0.1444376E+06 -0.4077789E+00  0.1356370E+06  0.1689896E+01
  0.1504762E+01  0.2095845E+06 -0.1445851E+01  0.1402873E+06 -0.4328859E+00  0.1333925E+06  0.1695443E+01
  0.1535714E+01  0.2108853E+06 -0.1440932E+01  0.1362548E+06 -0.4588066E+00  0.1306560E+06  0.1700294E+01
  0.1566667E+01  0.2117302E+06 -0.1436806E+01  0.1323138E+06 -0.4855284E+00  0.1276048E+06  0.1704365E+01
  0.1597619E+01  0.2121052E+06 -0.1433580E+01  0.1284789E+06 -0.5130267E+00  0.1242737E+06  0.1707517E+01
  0.1628572E+01  0.2119824E+06 -0.1431327E+01  0.1247561E+06 -0.5413877E+00  0.1206802E+06  0.1709735E+01
  0.1659524E+01  0.2113740E+06 -0.1430212E+01  0.1211556E+06 -0.5705054E+00  0.1167600E+06  0.1710716E+01
  0.1690476E+01  0.2103423E+06 -0.1430308E+01  0.1176544E+06 -0.6004595E+00  0.1126615E+06  0.1710527E+01
  0.1721429E+01  0.2089424E+06 -0.1431702E+01  0.1142377E+06 -0.6312268E+00  0.1084521E+06  0.1709104E+01
  0.1752381E+01  0.2071521E+06 -0.1434505E+01  0.1109348E+06 -0.6627682E+00  0.1040569E+06  0.1706185E+01
  0.1783333E+01  0.2050244E+06 -0.1438768E+01  0.1077295E+06 -0.6950972E+00  0.9956208E+05  0.1701796E+01
  0.1814286E+01  0.2026100E+06 -0.1444560E+01  0.1046075E+06 -0.7281798E+00  0.9501385E+05  0.1695855E+01
  0.1845238E+01  0.1999428E+06 -0.1451906E+01  0.1015719E+06 -0.7620679E+00  0.9046193E+05  0.1688363E+01
  0.1876190E+01  0.1970298E+06 -0.1460803E+01  0.9864252E+05 -0.7968349E+00  0.8592232E+05  0.1679446E+01
  0.1907143E+01  0.1939065E+06 -0.1471336E+01  0.9580181E+05 -0.8322708E+00  0.8137298E+05  0.1668745E+01
  0.1938095E+01  0.1906101E+06 -0.1483484E+01  0.9305112E+05 -0.8684508E+00  0.7686970E+05  0.1656427E+01
  0.1969048E+01  0.1871962E+06 -0.1497218E+01  0.9036134E+05 -0.9055583E+00  0.7248470E+05  0.1642766E+01
  0.2000000E+01  0.1836798E+06 -0.1512574E+01  0.8774667E+05 -0.9435244E+00  0.6818717E+05  0.1627428E+01
