VARIABLES="w (rad/s)"
"abs(F   1   1)" "angle(F   1   1)"
"abs(F   1   2)" "angle(F   1   2)"
"abs(F   1   3)" "angle(F   1   3)"
Zone t="Diffraction force - beta =   0.000 deg",I=    64,F=POINT
  0.5000000E-01  0.1409263E+04 -0.1570813E+01  0.2886962E+06 -0.1975959E-04  0.2631217E+02 -0.1570402E+01
  0.8095238E-01  0.2297419E+04 -0.1570794E+01  0.2882480E+06 -0.5316788E-04  0.4289077E+02 -0.1570577E+01
  0.1119048E+00  0.3209417E+04 -0.1570790E+01  0.2875898E+06 -0.1056135E-03  0.5984177E+02 -0.1570632E+01
  0.1428571E+00  0.4147390E+04 -0.1570789E+01  0.2867207E+06 -0.1811606E-03  0.7747289E+02 -0.1570656E+01
  0.1738095E+00  0.5135145E+04 -0.1570784E+01  0.2856392E+06 -0.2859776E-03  0.9632587E+02 -0.1570688E+01
  0.2047619E+00  0.6166126E+04 -0.1570790E+01  0.2843436E+06 -0.4289052E-03  0.1160974E+03 -0.1570697E+01
  0.2357143E+00  0.7272355E+04 -0.1570782E+01  0.2828311E+06 -0.6231321E-03  0.1372910E+03 -0.1570704E+01
  0.2666667E+00  0.8462077E+04 -0.1570781E+01  0.2810999E+06 -0.8847476E-03  0.1608674E+03 -0.1570719E+01
  0.2976190E+00  0.9746018E+04 -0.1570769E+01  0.2791475E+06 -0.1240816E-02  0.1861280E+03 -0.1570718E+01
  0.3285715E+00  0.1115521E+05 -0.1570756E+01  0.2769722E+06 -0.1719428E-02  0.2142138E+03 -0.1570714E+01
  0.3595238E+00  0.1271823E+05 -0.1570736E+01  0.2745781E+06 -0.2364460E-02  0.2461003E+03 -0.1570699E+01
  0.3904762E+00  0.1443055E+05 -0.1570708E+01  0.2719630E+06 -0.3225943E-02  0.2814846E+03 -0.1570675E+01
  0.4214286E+00  0.1632797E+05 -0.1570668E+01  0.2691444E+06 -0.4336451E-02  0.3209083E+03 -0.1570634E+01
  0.4523810E+00  0.1843524E+05 -0.1570602E+01  0.2661243E+06 -0.5781978E-02  0.3660944E+03 -0.1570573E+01
  0.4833333E+00  0.2074655E+05 -0.1570512E+01  0.2629258E+06 -0.7527961E-02  0.4172229E+03 -0.1570488E+01
  0.5142857E+00  0.2321530E+05 -0.1570389E+01  0.2595596E+06 -0.9674382E-02  0.4688759E+03 -0.1570367E+01
  0.5452381E+00  0.2588070E+05 -0.1570221E+01  0.2560301E+06 -0.1219456E-01  0.5290374E+03 -0.1570202E+01
  0.5761905E+00  0.2874391E+05 -0.1570003E+01  0.2523567E+06 -0.1509865E-01  0.5941884E+03 -0.1569986E+01
  0.6071429E+00  0.3175974E+05 -0.1569721E+01  0.2485597E+06 -0.1847219E-01  0.6651331E+03 -0.1569707E+01
  0.6380953E+00  0.3488794E+05 -0.1569365E+01  0.2446160E+06 -0.2223835E-01  0.7378456E+03 -0.1569351E+01
  0.6690477E+00  0.3813914E+05 -0.1568920E+01  0.2405590E+06 -0.2648518E-01  0.8138918E+03 -0.1568910E+01
  0.7000000E+00  0.4154828E+05 -0.1568372E+01  0.2364112E+06 -0.3126540E-01  0.8986183E+03 -0.1568361E+01
  0.7309524E+00  0.4510348E+05 -0.1567704E+01  0.2321562E+06 -0.3654368E-01  0.9910697E+03 -0.1567696E+01
  0.7619048E+00  0.4877191E+05 -0.1566899E+01  0.2278219E+06 -0.4237380E-01  0.1086902E+04 -0.1566890E+01
  0.7928572E+00  0.5250759E+05 -0.1565933E+01  0.2234265E+06 -0.4878644E-01  0.1182757E+04 -0.1565924E+01
  0.8238096E+00  0.5630650E+05 -0.1564790E+01  0.2189721E+06 -0.5579765E-01  0.1284245E+04 -0.1564782E+01
  0.8547620E+00  0.6024348E+05 -0.1563449E+01  0.2144594E+06 -0.6341995E-01  0.1394748E+04 -0.1563444E+01
  0.8857143E+00  0.6429968E+05 -0.1561891E+01  0.2099175E+06 -0.7167269E-01  0.1510756E+04 -0.1561889E+01
  0.9166667E+00  0.6844672E+05 -0.1560091E+01  0.2053584E+06 -0.8057054E-01  0.1632667E+04 -0.1560091E+01
  0.9476191E+00  0.7265878E+05 -0.1558027E+01  0.2007957E+06 -0.9012446E-01  0.1762945E+04 -0.1558028E+01
  0.9785714E+00  0.7692514E+05 -0.1555677E+01  0.1962242E+06 -0.1003372E+00  0.1897813E+04 -0.1555675E+01
  0.1009524E+01  0.8120062E+05 -0.1553016E+01  0.1916579E+06 -0.1112240E+00  0.2029796E+04 -0.1553008E+01
  0.1040476E+01  0.8549681E+05 -0.1550032E+01  0.1871037E+06 -0.1227931E+00  0.2166695E+04 -0.1550024E+01
  0.1071429E+01  0.8984955E+05 -0.1546717E+01  0.1825792E+06 -0.1350634E+00  0.2313978E+04 -0.1546719E+01
  0.1102381E+01  0.9425145E+05 -0.1543058E+01  0.1780827E+06 -0.1480322E+00  0.2471024E+04 -0.1543083E+01
  0.1133333E+01  0.9868347E+05 -0.1539046E+01  0.1736245E+06 -0.1616925E+00  0.2634455E+04 -0.1539073E+01
  0.1164286E+01  0.1031000E+06 -0.1534670E+01  0.1692126E+06 -0.1760564E+00  0.2800155E+04 -0.1534703E+01
  0.1195238E+01  0.1074695E+06 -0.1529925E+01  0.1648539E+06 -0.1911184E+00  0.2967860E+04 -0.1529962E+01
  0.1226190E+01  0.1117609E+06 -0.1524809E+01  0.1605521E+06 -0.2068862E+00  0.3139428E+04 -0.1524831E+01
  0.1257143E+01  0.1158968E+06 -0.1519308E+01  0.1563075E+06 -0.2235261E+00  0.3309098E+04 -0.1519289E+01
  0.1288095E+01  0.1199855E+06 -0.1513518E+01  0.1521155E+06 -0.2405315E+00  0.3486504E+04 -0.1513451E+01
  0.1319048E+01  0.1239302E+06 -0.1507427E+01  0.1479807E+06 -0.2584190E+00  0.3663184E+04 -0.1507359E+01
  0.1350000E+01  0.1277545E+06 -0.1501113E+01  0.1439166E+06 -0.2770236E+00  0.3842087E+04 -0.1501083E+01
  0.1380952E+01  0.1314213E+06 -0.1494614E+01  0.1399214E+06 -0.2963177E+00  0.4019927E+04 -0.1494649E+01
  0.1411905E+01  0.1346334E+06 -0.1488341E+01  0.1360544E+06 -0.3161068E+00  0.4175401E+04 -0.1488354E+01
  0.1442857E+01  0.1378697E+06 -0.1481662E+01  0.1322248E+06 -0.3368291E+00  0.4355824E+04 -0.1481629E+01
  0.1473810E+01  0.1408688E+06 -0.1474978E+01  0.1284655E+06 -0.3582567E+00  0.4535603E+04 -0.1474895E+01
  0.1504762E+01  0.1436070E+06 -0.1468390E+01  0.1247758E+06 -0.3803772E+00  0.4713283E+04 -0.1468325E+01
  0.1535714E+01  0.1460772E+06 -0.1462033E+01  0.1211652E+06 -0.4032136E+00  0.4882537E+04 -0.1461971E+01
  0.1566667E+01  0.1482388E+06 -0.1455990E+01  0.1176378E+06 -0.4267593E+00  0.5042496E+04 -0.1455993E+01
  0.1597619E+01  0.1500972E+06 -0.1450369E+01  0.1141909E+06 -0.4510080E+00  0.5195924E+04 -0.1450421E+01
  0.1628572E+01  0.1516388E+06 -0.1445265E+01  0.1108308E+06 -0.4759620E+00  0.5345366E+04 -0.1445250E+01
  0.1659524E+01  0.1528462E+06 -0.1440771E+01  0.1075506E+06 -0.5016223E+00  0.5489874E+04 -0.1440663E+01
  0.1690476E+01  0.1537384E+06 -0.1437037E+01  0.1043424E+06 -0.5280001E+00  0.5629540E+04 -0.1436952E+01
  0.1721429E+01  0.1543163E+06 -0.1434180E+01  0.1012079E+06 -0.5550733E+00  0.5761279E+04 -0.1434060E+01
  0.1752381E+01  0.1545813E+06 -0.1432291E+01  0.9814818E+05 -0.5828360E+00  0.5880642E+04 -0.1432214E+01
  0.1783333E+01  0.1545431E+06 -0.1431458E+01  0.9516617E+05 -0.6112884E+00  0.5988977E+04 -0.1431418E+01
  0.1814286E+01  0.1542002E+06 -0.1431756E+01  0.9226452E+05 -0.6404677E+00  0.6083427E+04 -0.1431698E+01
  0.1845238E+01  0.1535810E+06 -0.1433286E+01  0.8943708E+05 -0.6703607E+00  0.6170571E+04 -0.1433258E+01
  0.1876190E+01  0.1527090E+06 -0.1436129E+01  0.8669083E+05 -0.7009504E+00  0.6250470E+04 -0.1436109E+01
  0.1907143E+01  0.1515910E+06 -0.1440336E+01  0.8402214E+05 -0.7322459E+00  0.6323812E+04 -0.1440351E+01
  0.1938095E+01  0.1502538E+06 -0.1445954E+01  0.8141948E+05 -0.7642895E+00  0.6388302E+04 -0.1445977E+01
  0.1969048E+01  0.1487158E+06 -0.1453036E+01  0.7888557E+05 -0.7970468E+00  0.6444082E+04 -0.1452943E+01
  0.2000000E+01  0.1470093E+06 -0.1461610E+01  0.7641303E+05 -0.8304970E+00  0.6491235E+04 -0.1461416E+01
