VARIABLES="w (rad/s)"
"abs(F   1   1)" "angle(F   1   1)"
"abs(F   1   2)" "angle(F   1   2)"
"abs(F   1   3)" "angle(F   1   3)"
Zone t="Diffraction force - beta =   0.000 deg",I=    64,F=POINT
  0.5000000E-01  0.9500524E+03 -0.1570795E+01  0.4190541E+02 -0.3118670E+01  0.2513990E+04  0.1570797E+01
  0.8095238E-01  0.1563667E+04 -0.1570794E+01  0.1090908E+03 -0.3117997E+01  0.4133096E+04  0.1570799E+01
  0.1119048E+00  0.2189038E+04 -0.1570791E+01  0.2078260E+03 -0.3117141E+01  0.5775123E+04  0.1570802E+01
  0.1428571E+00  0.2833495E+04 -0.1570787E+01  0.3373577E+03 -0.3115955E+01  0.7466272E+04  0.1570806E+01
  0.1738095E+00  0.3500163E+04 -0.1570781E+01  0.4976683E+03 -0.3114443E+01  0.9217058E+04  0.1570812E+01
  0.2047619E+00  0.4203961E+04 -0.1570773E+01  0.6894025E+03 -0.3112543E+01  0.1106117E+05  0.1570821E+01
  0.2357143E+00  0.4953458E+04 -0.1570760E+01  0.9116616E+03 -0.3110114E+01  0.1301263E+05  0.1570833E+01
  0.2666667E+00  0.5754346E+04 -0.1570742E+01  0.1163327E+04 -0.3107139E+01  0.1510160E+05  0.1570852E+01
  0.2976190E+00  0.6621814E+04 -0.1570715E+01  0.1445861E+04 -0.3103394E+01  0.1735865E+05  0.1570879E+01
  0.3285715E+00  0.7567849E+04 -0.1570675E+01  0.1754749E+04 -0.3098855E+01  0.1980501E+05  0.1570920E+01
  0.3595238E+00  0.8614594E+04 -0.1570615E+01  0.2091713E+04 -0.3093345E+01  0.2249281E+05  0.1570981E+01
  0.3904762E+00  0.9754546E+04 -0.1570525E+01  0.2452553E+04 -0.3086781E+01  0.2544382E+05  0.1571072E+01
  0.4214286E+00  0.1102926E+05 -0.1570395E+01  0.2832219E+04 -0.3079405E+01  0.2869401E+05  0.1571204E+01
  0.4523810E+00  0.1242504E+05 -0.1570204E+01  0.3233756E+04 -0.3070829E+01  0.3224580E+05  0.1571398E+01
  0.4833333E+00  0.1394634E+05 -0.1569940E+01  0.3640054E+04 -0.3062081E+01  0.3612256E+05  0.1571665E+01
  0.5142857E+00  0.1560958E+05 -0.1569575E+01  0.4067676E+04 -0.3052789E+01  0.4033335E+05  0.1572036E+01
  0.5452381E+00  0.1737435E+05 -0.1569090E+01  0.4484974E+04 -0.3043150E+01  0.4476314E+05  0.1572528E+01
  0.5761905E+00  0.1925117E+05 -0.1568461E+01  0.4912158E+04 -0.3033872E+01  0.4944141E+05  0.1573167E+01
  0.6071429E+00  0.2123272E+05 -0.1567652E+01  0.5344306E+04 -0.3024367E+01  0.5437278E+05  0.1573988E+01
  0.6380953E+00  0.2329924E+05 -0.1566645E+01  0.5760959E+04 -0.3015152E+01  0.5952296E+05  0.1575007E+01
  0.6690477E+00  0.2545992E+05 -0.1565400E+01  0.6182191E+04 -0.3006194E+01  0.6479087E+05  0.1576270E+01
  0.7000000E+00  0.2770321E+05 -0.1563875E+01  0.6600211E+04 -0.2997258E+01  0.7023140E+05  0.1577817E+01
  0.7309524E+00  0.3001359E+05 -0.1562039E+01  0.6990329E+04 -0.2988240E+01  0.7581990E+05  0.1579677E+01
  0.7619048E+00  0.3239415E+05 -0.1559844E+01  0.7377612E+04 -0.2979506E+01  0.8151709E+05  0.1581900E+01
  0.7928572E+00  0.3487221E+05 -0.1557252E+01  0.7765410E+04 -0.2971178E+01  0.8743173E+05  0.1584522E+01
  0.8238096E+00  0.3737301E+05 -0.1554203E+01  0.8112402E+04 -0.2962500E+01  0.9330838E+05  0.1587608E+01
  0.8547620E+00  0.3996965E+05 -0.1550668E+01  0.8440923E+04 -0.2953925E+01  0.9934618E+05  0.1591185E+01
  0.8857143E+00  0.4262288E+05 -0.1546589E+01  0.8758289E+04 -0.2945632E+01  0.1054047E+06  0.1595317E+01
  0.9166667E+00  0.4535536E+05 -0.1541925E+01  0.9072829E+04 -0.2937863E+01  0.1116067E+06  0.1600037E+01
  0.9476191E+00  0.4807513E+05 -0.1536598E+01  0.9332619E+04 -0.2929720E+01  0.1177162E+06  0.1605421E+01
  0.9785714E+00  0.5089728E+05 -0.1530596E+01  0.9566126E+04 -0.2921572E+01  0.1240532E+06  0.1611476E+01
  0.1009524E+01  0.5371169E+05 -0.1523841E+01  0.9782808E+04 -0.2913653E+01  0.1302425E+06  0.1618293E+01
  0.1040476E+01  0.5662965E+05 -0.1516343E+01  0.9986596E+04 -0.2906080E+01  0.1364860E+06  0.1625874E+01
  0.1071429E+01  0.5954193E+05 -0.1508003E+01  0.1016761E+05 -0.2898676E+01  0.1426627E+06  0.1634294E+01
  0.1102381E+01  0.6242058E+05 -0.1498767E+01  0.1028673E+05 -0.2891065E+01  0.1486184E+06  0.1643624E+01
  0.1133333E+01  0.6537693E+05 -0.1488646E+01  0.1038418E+05 -0.2883500E+01  0.1547109E+06  0.1653828E+01
  0.1164286E+01  0.6828010E+05 -0.1477549E+01  0.1046261E+05 -0.2876081E+01  0.1605042E+06  0.1665028E+01
  0.1195238E+01  0.7124178E+05 -0.1465517E+01  0.1052579E+05 -0.2868875E+01  0.1662999E+06  0.1677172E+01
  0.1226190E+01  0.7415180E+05 -0.1452436E+01  0.1057483E+05 -0.2861761E+01  0.1719859E+06  0.1690327E+01
  0.1257143E+01  0.7685288E+05 -0.1438253E+01  0.1055840E+05 -0.2854679E+01  0.1770947E+06  0.1704567E+01
  0.1288095E+01  0.7973313E+05 -0.1423127E+01  0.1051573E+05 -0.2847820E+01  0.1823860E+06  0.1719791E+01
  0.1319048E+01  0.8246209E+05 -0.1406971E+01  0.1045333E+05 -0.2840852E+01  0.1871820E+06  0.1736050E+01
  0.1350000E+01  0.8511462E+05 -0.1389781E+01  0.1037185E+05 -0.2833905E+01  0.1915987E+06  0.1753380E+01
  0.1380952E+01  0.8772844E+05 -0.1371609E+01  0.1028009E+05 -0.2827158E+01  0.1957688E+06  0.1771705E+01
  0.1411905E+01  0.8995966E+05 -0.1352292E+01  0.1017098E+05 -0.2820345E+01  0.1993666E+06  0.1790983E+01
  0.1442857E+01  0.9218211E+05 -0.1331928E+01  0.1001653E+05 -0.2814162E+01  0.2024981E+06  0.1811449E+01
  0.1473810E+01  0.9425969E+05 -0.1310517E+01  0.9838306E+04 -0.2808057E+01  0.2052555E+06  0.1832950E+01
  0.1504762E+01  0.9625520E+05 -0.1288175E+01  0.9640638E+04 -0.2801861E+01  0.2078128E+06  0.1855322E+01
  0.1535714E+01  0.9793118E+05 -0.1264837E+01  0.9431696E+04 -0.2795616E+01  0.2094589E+06  0.1878736E+01
  0.1566667E+01  0.9946461E+05 -0.1240667E+01  0.9211508E+04 -0.2789366E+01  0.2107515E+06  0.1902953E+01
  0.1597619E+01  0.1008308E+06 -0.1215860E+01  0.8988887E+04 -0.2783148E+01  0.2115822E+06  0.1927774E+01
  0.1628572E+01  0.1018888E+06 -0.1190297E+01  0.8752597E+04 -0.2776724E+01  0.2117489E+06  0.1953319E+01
  0.1659524E+01  0.1026412E+06 -0.1164170E+01  0.8494545E+04 -0.2771283E+01  0.2110942E+06  0.1979457E+01
  0.1690476E+01  0.1031064E+06 -0.1137504E+01  0.8224230E+04 -0.2766409E+01  0.2097648E+06  0.2006170E+01
  0.1721429E+01  0.1033834E+06 -0.1110339E+01  0.7936560E+04 -0.2761392E+01  0.2081429E+06  0.2033301E+01
  0.1752381E+01  0.1033679E+06 -0.1082830E+01  0.7650587E+04 -0.2756375E+01  0.2058765E+06  0.2060758E+01
  0.1783333E+01  0.1030114E+06 -0.1055049E+01  0.7358542E+04 -0.2751403E+01  0.2028096E+06  0.2088520E+01
  0.1814286E+01  0.1024378E+06 -0.1027134E+01  0.7068589E+04 -0.2746536E+01  0.1993576E+06  0.2116389E+01
  0.1845238E+01  0.1016550E+06 -0.9993519E+00  0.6786867E+04 -0.2741528E+01  0.1955172E+06  0.2144035E+01
  0.1876190E+01  0.1005373E+06 -0.9714909E+00  0.6496785E+04 -0.2736560E+01  0.1911318E+06  0.2171739E+01
  0.1907143E+01  0.9915191E+05 -0.9439245E+00  0.6208271E+04 -0.2732272E+01  0.1861888E+06  0.2199167E+01
  0.1938095E+01  0.9742970E+05 -0.9165791E+00  0.5923512E+04 -0.2728841E+01  0.1805685E+06  0.2226363E+01
  0.1969048E+01  0.9556519E+05 -0.8894674E+00  0.5630956E+04 -0.2725842E+01  0.1748889E+06  0.2253349E+01
  0.2000000E+01  0.9354412E+05 -0.8626614E+00  0.5339348E+04 -0.2722849E+01  0.1691114E+06  0.2279890E+01
