VARIABLES="w (rad/s)"
"abs(F   1   1)" "angle(F   1   1)"
"abs(F   1   2)" "angle(F   1   2)"
"abs(F   1   3)" "angle(F   1   3)"
Zone t="Diffraction force - beta =   0.000 deg",I=    64,F=POINT
  0.5000000E-01  0.6433622E+03 -0.1570796E+01  0.1262343E+03 -0.3100160E+01  0.1461667E+03  0.1570796E+01
  0.8095238E-01  0.1052129E+04 -0.1570794E+01  0.3283925E+03 -0.3098797E+01  0.2439527E+03  0.1570795E+01
  0.1119048E+00  0.1469033E+04 -0.1570792E+01  0.6246583E+03 -0.3096993E+01  0.3415222E+03  0.1570794E+01
  0.1428571E+00  0.1898296E+04 -0.1570789E+01  0.1016698E+04 -0.3094719E+01  0.4413515E+03  0.1570791E+01
  0.1738095E+00  0.2346372E+04 -0.1570784E+01  0.1504703E+04 -0.3091764E+01  0.5409681E+03  0.1570788E+01
  0.2047619E+00  0.2815975E+04 -0.1570777E+01  0.2093545E+04 -0.3088101E+01  0.6476234E+03  0.1570783E+01
  0.2357143E+00  0.3312358E+04 -0.1570767E+01  0.2782708E+04 -0.3083403E+01  0.7588367E+03  0.1570776E+01
  0.2666667E+00  0.3847849E+04 -0.1570753E+01  0.3576840E+04 -0.3077666E+01  0.8725249E+03  0.1570765E+01
  0.2976190E+00  0.4423530E+04 -0.1570731E+01  0.4481614E+04 -0.3070483E+01  0.9988838E+03  0.1570749E+01
  0.3285715E+00  0.5049216E+04 -0.1570698E+01  0.5496701E+04 -0.3061805E+01  0.1133624E+04  0.1570724E+01
  0.3595238E+00  0.5740120E+04 -0.1570649E+01  0.6620155E+04 -0.3051184E+01  0.1272658E+04  0.1570683E+01
  0.3904762E+00  0.6499969E+04 -0.1570576E+01  0.7866387E+04 -0.3038653E+01  0.1425744E+04  0.1570623E+01
  0.4214286E+00  0.7328292E+04 -0.1570468E+01  0.9213494E+04 -0.3024509E+01  0.1601179E+04  0.1570532E+01
  0.4523810E+00  0.8242156E+04 -0.1570310E+01  0.1066595E+05 -0.3008037E+01  0.1775854E+04  0.1570392E+01
  0.4833333E+00  0.9242182E+04 -0.1570091E+01  0.1220692E+05 -0.2991204E+01  0.1959971E+04  0.1570186E+01
  0.5142857E+00  0.1031436E+05 -0.1569786E+01  0.1384680E+05 -0.2973069E+01  0.2160446E+04  0.1569891E+01
  0.5452381E+00  0.1144711E+05 -0.1569377E+01  0.1556802E+05 -0.2954828E+01  0.2378896E+04  0.1569492E+01
  0.5761905E+00  0.1265251E+05 -0.1568845E+01  0.1735315E+05 -0.2936626E+01  0.2582678E+04  0.1568924E+01
  0.6071429E+00  0.1392130E+05 -0.1568157E+01  0.1920703E+05 -0.2917905E+01  0.2780166E+04  0.1568140E+01
  0.6380953E+00  0.1522745E+05 -0.1567296E+01  0.2114457E+05 -0.2900238E+01  0.3000204E+04  0.1567142E+01
  0.6690477E+00  0.1656593E+05 -0.1566222E+01  0.2314459E+05 -0.2882678E+01  0.3232212E+04  0.1565867E+01
  0.7000000E+00  0.1794393E+05 -0.1564900E+01  0.2518812E+05 -0.2864847E+01  0.3440438E+04  0.1564167E+01
  0.7309524E+00  0.1936355E+05 -0.1563306E+01  0.2728024E+05 -0.2847459E+01  0.3629811E+04  0.1561952E+01
  0.7619048E+00  0.2081722E+05 -0.1561394E+01  0.2941872E+05 -0.2830336E+01  0.3811904E+04  0.1559127E+01
  0.7928572E+00  0.2228323E+05 -0.1559119E+01  0.3159976E+05 -0.2813489E+01  0.3996192E+04  0.1555609E+01
  0.8238096E+00  0.2375282E+05 -0.1556435E+01  0.3381962E+05 -0.2797032E+01  0.4195543E+04  0.1551362E+01
  0.8547620E+00  0.2522122E+05 -0.1553304E+01  0.3605997E+05 -0.2780846E+01  0.4386117E+04  0.1546145E+01
  0.8857143E+00  0.2670853E+05 -0.1549693E+01  0.3831073E+05 -0.2764912E+01  0.4543520E+04  0.1539581E+01
  0.9166667E+00  0.2819881E+05 -0.1545561E+01  0.4056589E+05 -0.2749281E+01  0.4672727E+04  0.1531412E+01
  0.9476191E+00  0.2968204E+05 -0.1540866E+01  0.4282113E+05 -0.2734041E+01  0.4794342E+04  0.1521551E+01
  0.9785714E+00  0.3113762E+05 -0.1535558E+01  0.4507636E+05 -0.2719282E+01  0.4922207E+04  0.1509954E+01
  0.1009524E+01  0.3256139E+05 -0.1529610E+01  0.4733259E+05 -0.2705174E+01  0.5057987E+04  0.1496503E+01
  0.1040476E+01  0.3393044E+05 -0.1522978E+01  0.4957504E+05 -0.2691581E+01  0.5202096E+04  0.1481108E+01
  0.1071429E+01  0.3524980E+05 -0.1515660E+01  0.5179391E+05 -0.2678452E+01  0.5340068E+04  0.1463373E+01
  0.1102381E+01  0.3651270E+05 -0.1507652E+01  0.5397756E+05 -0.2665703E+01  0.5470276E+04  0.1443077E+01
  0.1133333E+01  0.3769705E+05 -0.1498935E+01  0.5611347E+05 -0.2653260E+01  0.5592086E+04  0.1419984E+01
  0.1164286E+01  0.3880940E+05 -0.1489542E+01  0.5821503E+05 -0.2641467E+01  0.5725746E+04  0.1394655E+01
  0.1195238E+01  0.3981518E+05 -0.1479451E+01  0.6027190E+05 -0.2630285E+01  0.5877312E+04  0.1367398E+01
  0.1226190E+01  0.4070700E+05 -0.1468694E+01  0.6229098E+05 -0.2619853E+01  0.6065681E+04  0.1339345E+01
  0.1257143E+01  0.4144421E+05 -0.1457188E+01  0.6427338E+05 -0.2609802E+01  0.6303343E+04  0.1311497E+01
  0.1288095E+01  0.4206125E+05 -0.1445274E+01  0.6617619E+05 -0.2601126E+01  0.6585788E+04  0.1284920E+01
  0.1319048E+01  0.4248917E+05 -0.1432706E+01  0.6802803E+05 -0.2592681E+01  0.6927921E+04  0.1260635E+01
  0.1350000E+01  0.4275068E+05 -0.1419742E+01  0.6981559E+05 -0.2584880E+01  0.7316330E+04  0.1238945E+01
  0.1380952E+01  0.4282320E+05 -0.1406447E+01  0.7153431E+05 -0.2577745E+01  0.7756390E+04  0.1220728E+01
  0.1411905E+01  0.4261441E+05 -0.1393258E+01  0.7299512E+05 -0.2571854E+01  0.8323333E+04  0.1211843E+01
  0.1442857E+01  0.4229442E+05 -0.1379710E+01  0.7456056E+05 -0.2566034E+01  0.8868670E+04  0.1201942E+01
  0.1473810E+01  0.4177090E+05 -0.1366290E+01  0.7605045E+05 -0.2560981E+01  0.9491493E+04  0.1198001E+01
  0.1504762E+01  0.4100907E+05 -0.1353089E+01  0.7745602E+05 -0.2556515E+01  0.1016962E+05  0.1198755E+01
  0.1535714E+01  0.4003298E+05 -0.1340443E+01  0.7879873E+05 -0.2552855E+01  0.1092318E+05  0.1205278E+01
  0.1566667E+01  0.3882719E+05 -0.1328589E+01  0.8006545E+05 -0.2549996E+01  0.1173850E+05  0.1216614E+01
  0.1597619E+01  0.3738846E+05 -0.1317761E+01  0.8125109E+05 -0.2547786E+01  0.1262702E+05  0.1232872E+01
  0.1628572E+01  0.3573040E+05 -0.1308444E+01  0.8236178E+05 -0.2546362E+01  0.1358969E+05  0.1253661E+01
  0.1659524E+01  0.3384670E+05 -0.1301079E+01  0.8339966E+05 -0.2545755E+01  0.1461727E+05  0.1278121E+01
  0.1690476E+01  0.3175551E+05 -0.1296312E+01  0.8435829E+05 -0.2545830E+01  0.1572056E+05  0.1306051E+01
  0.1721429E+01  0.2946031E+05 -0.1294947E+01  0.8524552E+05 -0.2546701E+01  0.1689929E+05  0.1336829E+01
  0.1752381E+01  0.2697514E+05 -0.1298184E+01  0.8606918E+05 -0.2548115E+01  0.1814876E+05  0.1369834E+01
  0.1783333E+01  0.2432420E+05 -0.1307950E+01  0.8683850E+05 -0.2550368E+01  0.1947515E+05  0.1404741E+01
  0.1814286E+01  0.2151960E+05 -0.1326983E+01  0.8755591E+05 -0.2553396E+01  0.2087226E+05  0.1440947E+01
  0.1845238E+01  0.1859631E+05 -0.1359900E+01  0.8821722E+05 -0.2556973E+01  0.2234834E+05  0.1478124E+01
  0.1876190E+01  0.1560097E+05 -0.1415345E+01  0.8883965E+05 -0.2561294E+01  0.2389850E+05  0.1515868E+01
  0.1907143E+01  0.1260212E+05 -0.1509698E+01  0.8942124E+05 -0.2566172E+01  0.2552185E+05  0.1553870E+01
  0.1938095E+01  0.9755437E+04 -0.1677341E+01  0.8996489E+05 -0.2571473E+01  0.2720872E+05  0.1591761E+01
  0.1969048E+01  0.7429959E+04 -0.1985104E+01  0.9048995E+05 -0.2576851E+01  0.2897604E+05  0.1629427E+01
  0.2000000E+01  0.6391029E+04 -0.2489764E+01  0.9095840E+05 -0.2582164E+01  0.3080406E+05  0.1666507E+01
