VARIABLES="w (rad/s)"
"abs(F   1   1)" "angle(F   1   1)"
"abs(F   1   2)" "angle(F   1   2)"
"abs(F   1   3)" "angle(F   1   3)"
Zone t="Diffraction force - beta =   0.000 deg",I=    64,F=POINT
  0.5000000E-01  0.4377744E+03 -0.1570795E+01  0.4453033E+03 -0.3089997E+01  0.1099993E+04 -0.1570795E+01
  0.8095238E-01  0.7134008E+03 -0.1570793E+01  0.1154491E+04 -0.3088140E+01  0.1789948E+04 -0.1570793E+01
  0.1119048E+00  0.9949607E+03 -0.1570790E+01  0.2193449E+04 -0.3085850E+01  0.2494154E+04 -0.1570789E+01
  0.1428571E+00  0.1284477E+04 -0.1570785E+01  0.3563658E+04 -0.3082958E+01  0.3221863E+04 -0.1570783E+01
  0.1738095E+00  0.1583989E+04 -0.1570778E+01  0.5276654E+04 -0.3079355E+01  0.3971151E+04 -0.1570775E+01
  0.2047619E+00  0.1897185E+04 -0.1570768E+01  0.7336014E+04 -0.3074818E+01  0.4758121E+04 -0.1570763E+01
  0.2357143E+00  0.2229498E+04 -0.1570752E+01  0.9754192E+04 -0.3069097E+01  0.5593723E+04 -0.1570745E+01
  0.2666667E+00  0.2580274E+04 -0.1570730E+01  0.1255007E+05 -0.3062176E+01  0.6471211E+04 -0.1570719E+01
  0.2976190E+00  0.2958662E+04 -0.1570697E+01  0.1571850E+05 -0.3053416E+01  0.7424442E+04 -0.1570681E+01
  0.3285715E+00  0.3371204E+04 -0.1570648E+01  0.1928886E+05 -0.3042961E+01  0.8465626E+04 -0.1570624E+01
  0.3595238E+00  0.3815488E+04 -0.1570575E+01  0.2326008E+05 -0.3030314E+01  0.9576910E+04 -0.1570538E+01
  0.3904762E+00  0.4298611E+04 -0.1570464E+01  0.2764013E+05 -0.3015295E+01  0.1079149E+05 -0.1570409E+01
  0.4214286E+00  0.4833891E+04 -0.1570304E+01  0.3234492E+05 -0.2998362E+01  0.1214686E+05 -0.1570222E+01
  0.4523810E+00  0.5411648E+04 -0.1570068E+01  0.3746076E+05 -0.2978975E+01  0.1359830E+05 -0.1569945E+01
  0.4833333E+00  0.6026625E+04 -0.1569741E+01  0.4287161E+05 -0.2959289E+01  0.1513758E+05 -0.1569561E+01
  0.5142857E+00  0.6683125E+04 -0.1569288E+01  0.4854045E+05 -0.2937852E+01  0.1679328E+05 -0.1569028E+01
  0.5452381E+00  0.7382232E+04 -0.1568685E+01  0.5447357E+05 -0.2916468E+01  0.1856675E+05 -0.1568320E+01
  0.5761905E+00  0.8103846E+04 -0.1567903E+01  0.6066353E+05 -0.2895591E+01  0.2037962E+05 -0.1567397E+01
  0.6071429E+00  0.8835711E+04 -0.1566890E+01  0.6705888E+05 -0.2874238E+01  0.2221421E+05 -0.1566201E+01
  0.6380953E+00  0.9585023E+04 -0.1565636E+01  0.7367500E+05 -0.2854137E+01  0.2411526E+05 -0.1564720E+01
  0.6690477E+00  0.1033518E+05 -0.1564085E+01  0.8038474E+05 -0.2833869E+01  0.2599738E+05 -0.1562876E+01
  0.7000000E+00  0.1108327E+05 -0.1562183E+01  0.8724969E+05 -0.2813645E+01  0.2786603E+05 -0.1560612E+01
  0.7309524E+00  0.1182657E+05 -0.1559907E+01  0.9433469E+05 -0.2794610E+01  0.2972433E+05 -0.1557892E+01
  0.7619048E+00  0.1254602E+05 -0.1557192E+01  0.1015212E+06 -0.2775943E+01  0.3151054E+05 -0.1554635E+01
  0.7928572E+00  0.1324036E+05 -0.1553994E+01  0.1087484E+06 -0.2757373E+01  0.3323485E+05 -0.1550786E+01
  0.8238096E+00  0.1390443E+05 -0.1550273E+01  0.1160005E+06 -0.2739014E+01  0.3487209E+05 -0.1546286E+01
  0.8547620E+00  0.1453299E+05 -0.1545995E+01  0.1233038E+06 -0.2721197E+01  0.3641117E+05 -0.1541085E+01
  0.8857143E+00  0.1510992E+05 -0.1541107E+01  0.1306362E+06 -0.2704012E+01  0.3778783E+05 -0.1535090E+01
  0.9166667E+00  0.1562527E+05 -0.1535580E+01  0.1379967E+06 -0.2687579E+01  0.3899040E+05 -0.1528259E+01
  0.9476191E+00  0.1606623E+05 -0.1529387E+01  0.1453175E+06 -0.2671641E+01  0.3997737E+05 -0.1520530E+01
  0.9785714E+00  0.1642406E+05 -0.1522525E+01  0.1525782E+06 -0.2656204E+01  0.4073626E+05 -0.1511881E+01
  0.1009524E+01  0.1668831E+05 -0.1515004E+01  0.1597400E+06 -0.2641115E+01  0.4122948E+05 -0.1502278E+01
  0.1040476E+01  0.1684312E+05 -0.1506824E+01  0.1667689E+06 -0.2626271E+01  0.4139589E+05 -0.1491637E+01
  0.1071429E+01  0.1688245E+05 -0.1498046E+01  0.1736883E+06 -0.2612003E+01  0.4122819E+05 -0.1479974E+01
  0.1102381E+01  0.1679088E+05 -0.1488719E+01  0.1805026E+06 -0.2598519E+01  0.4067636E+05 -0.1467238E+01
  0.1133333E+01  0.1655332E+05 -0.1478927E+01  0.1871862E+06 -0.2585843E+01  0.3969360E+05 -0.1453376E+01
  0.1164286E+01  0.1615399E+05 -0.1468790E+01  0.1937169E+06 -0.2573874E+01  0.3823016E+05 -0.1438321E+01
  0.1195238E+01  0.1557956E+05 -0.1458488E+01  0.2000508E+06 -0.2562374E+01  0.3623761E+05 -0.1421963E+01
  0.1226190E+01  0.1481856E+05 -0.1448293E+01  0.2061873E+06 -0.2551439E+01  0.3369410E+05 -0.1404212E+01
  0.1257143E+01  0.1386595E+05 -0.1438498E+01  0.2121946E+06 -0.2540856E+01  0.3057522E+05 -0.1384675E+01
  0.1288095E+01  0.1270858E+05 -0.1430237E+01  0.2177839E+06 -0.2531020E+01  0.2684311E+05 -0.1363613E+01
  0.1319048E+01  0.1134590E+05 -0.1424148E+01  0.2232099E+06 -0.2521517E+01  0.2248616E+05 -0.1339471E+01
  0.1350000E+01  0.9770068E+04 -0.1422413E+01  0.2283714E+06 -0.2512514E+01  0.1748922E+05 -0.1310337E+01
  0.1380952E+01  0.7980917E+04 -0.1429272E+01  0.2332505E+06 -0.2504158E+01  0.1182950E+05 -0.1268653E+01
  0.1411905E+01  0.6473985E+04 -0.1437024E+01  0.2340159E+06 -0.2490391E+01  0.7247245E+04 -0.1187751E+01
  0.1442857E+01  0.4359566E+04 -0.1492598E+01  0.2382730E+06 -0.2482687E+01  0.1090461E+04 -0.1844245E+00
  0.1473810E+01  0.2113595E+04 -0.1722902E+01  0.2422181E+06 -0.2475486E+01  0.6977292E+04  0.1715909E+01
  0.1504762E+01  0.1181166E+04  0.2844549E+01  0.2458400E+06 -0.2468684E+01  0.1499487E+05  0.1811212E+01
  0.1535714E+01  0.3614049E+04  0.2189440E+01  0.2491254E+06 -0.2462297E+01  0.2368003E+05  0.1855253E+01
  0.1566667E+01  0.6542870E+04  0.2086571E+01  0.2520683E+06 -0.2456284E+01  0.3298831E+05  0.1887136E+01
  0.1597619E+01  0.9696946E+04  0.2056415E+01  0.2546601E+06 -0.2450660E+01  0.4290412E+05  0.1913958E+01
  0.1628572E+01  0.1303464E+05  0.2048819E+01  0.2569035E+06 -0.2445292E+01  0.5335946E+05  0.1938498E+01
  0.1659524E+01  0.1654356E+05  0.2050606E+01  0.2587715E+06 -0.2440388E+01  0.6435067E+05  0.1961388E+01
  0.1690476E+01  0.2020937E+05  0.2056922E+01  0.2602532E+06 -0.2435951E+01  0.7585185E+05  0.1982890E+01
  0.1721429E+01  0.2401760E+05  0.2065583E+01  0.2613275E+06 -0.2432010E+01  0.8782663E+05  0.2003175E+01
  0.1752381E+01  0.2795115E+05  0.2075595E+01  0.2619783E+06 -0.2428574E+01  0.1002275E+06  0.2022486E+01
  0.1783333E+01  0.3198964E+05  0.2086417E+01  0.2622125E+06 -0.2425552E+01  0.1129738E+06  0.2041091E+01
  0.1814286E+01  0.3611634E+05  0.2097716E+01  0.2620311E+06 -0.2422947E+01  0.1260201E+06  0.2059080E+01
  0.1845238E+01  0.4031252E+05  0.2109185E+01  0.2614313E+06 -0.2420719E+01  0.1393138E+06  0.2076430E+01
  0.1876190E+01  0.4455796E+05  0.2120746E+01  0.2604339E+06 -0.2418802E+01  0.1527849E+06  0.2093301E+01
  0.1907143E+01  0.4884073E+05  0.2132090E+01  0.2589970E+06 -0.2417332E+01  0.1663988E+06  0.2109500E+01
  0.1938095E+01  0.5314133E+05  0.2143096E+01  0.2571326E+06 -0.2416291E+01  0.1801005E+06  0.2124976E+01
  0.1969048E+01  0.5743702E+05  0.2153739E+01  0.2548203E+06 -0.2415663E+01  0.1938257E+06  0.2139759E+01
  0.2000000E+01  0.6171516E+05  0.2163799E+01  0.2520388E+06 -0.2415537E+01  0.2075217E+06  0.2153710E+01
