VARIABLES="w (rad/s)"
"A   1   1" "B   1   1"
"A   1   2" "B   1   2"
"A   1   3" "B   1   3"
Zone t="Motion of body    1 in DoF   1",I=    64,F=POINT
  0.5000000E-01  0.8917041E+05  0.9304292E-02 -0.5950928E-02 -0.2452970E-04 -0.3684769E+04  0.2299908E-02
  0.8095238E-01  0.8958930E+05  0.4098096E-01  0.9801527E-02  0.1637987E-04 -0.3956117E+04  0.1010012E-01
  0.1119048E+00  0.8956745E+05  0.1149140E+00  0.1131748E-01  0.1087687E-03 -0.4227846E+04  0.2846804E-01
  0.1428571E+00  0.8981300E+05  0.2585311E+00 -0.3524780E-02  0.1236098E-04 -0.4009509E+04  0.6462238E-01
  0.1738095E+00  0.8982120E+05  0.5139394E+00 -0.1694353E-01 -0.3284691E-03 -0.4015890E+04  0.1296590E+00
  0.2047619E+00  0.9007924E+05  0.9472736E+00  0.7601006E-02  0.7211976E-04 -0.3713439E+04  0.2421468E+00
  0.2357143E+00  0.9013459E+05  0.1664820E+01  0.3042510E-01  0.3386252E-03 -0.3848066E+04  0.4296692E+00
  0.2666667E+00  0.9032752E+05  0.2835990E+01  0.1625061E-01  0.3019199E-03 -0.3565062E+04  0.7447021E+00
  0.2976190E+00  0.9063127E+05  0.4749266E+01 -0.1804687E-01 -0.4843846E-03 -0.3288205E+04  0.1267446E+01
  0.3285715E+00  0.9075427E+05  0.7837220E+01  0.7894764E-02  0.3558993E-03 -0.3381651E+04  0.2121403E+01
  0.3595238E+00  0.9094743E+05  0.1283376E+02 -0.3565100E-02 -0.1459867E-03 -0.3200631E+04  0.3541286E+01
  0.3904762E+00  0.9138145E+05  0.2088081E+02  0.1297369E-01  0.3546476E-03 -0.2638808E+04  0.5905540E+01
  0.4214286E+00  0.9172924E+05  0.3348949E+02 -0.1752433E-01 -0.5931258E-03 -0.2504732E+04  0.9661748E+01
  0.4523810E+00  0.9201830E+05  0.5322808E+02 -0.1726974E-01 -0.6502271E-03 -0.2329619E+04  0.1567949E+02
  0.4833333E+00  0.9241628E+05  0.8249966E+02 -0.9849811E-02  0.2503395E-05 -0.1964191E+04  0.2491345E+02
  0.5142857E+00  0.9295584E+05  0.1258001E+03  0.2990723E-01  0.4865170E-02 -0.1538976E+04  0.3893243E+02
  0.5452381E+00  0.9347791E+05  0.1871943E+03  0.1197782E-01  0.1720190E-02 -0.1267146E+04  0.5930614E+02
  0.5761905E+00  0.9387345E+05  0.2717895E+03 -0.1016916E-01  0.1554489E-03 -0.1084564E+04  0.8815790E+02
  0.6071429E+00  0.9445324E+05  0.3873673E+03 -0.2865062E-01 -0.5508423E-02 -0.5833442E+03  0.1290126E+03
  0.6380953E+00  0.9518621E+05  0.5399254E+03 -0.2238259E-01 -0.5101204E-02 -0.1305881E+02  0.1847379E+03
  0.6690477E+00  0.9589316E+05  0.7393146E+03 -0.2262428E-01 -0.8767128E-02  0.4241245E+03  0.2595836E+03
  0.7000000E+00  0.9655962E+05  0.9966234E+03 -0.2458845E-01 -0.8520126E-02  0.7891493E+03  0.3589084E+03
  0.7309524E+00  0.9726216E+05  0.1321863E+04 -0.3465286E-01 -0.1305962E-01  0.1273574E+04  0.4888084E+03
  0.7619048E+00  0.9802952E+05  0.1729137E+04 -0.1906586E-01 -0.6427765E-02  0.1904306E+04  0.6572031E+03
  0.7928572E+00  0.9893648E+05  0.2233849E+04 -0.7698127E-03 -0.3162384E-02  0.2626124E+04  0.8727329E+03
  0.8238096E+00  0.9987445E+05  0.2851501E+04 -0.2030036E-01 -0.1135254E-01  0.3382101E+04  0.1145279E+04
  0.8547620E+00  0.1007745E+06  0.3598465E+04 -0.1570933E-02  0.2517700E-03  0.3961817E+04  0.1483862E+04
  0.8857143E+00  0.1015788E+06  0.4491637E+04 -0.2494566E-01 -0.4226685E-02  0.4564223E+04  0.1902443E+04
  0.9166667E+00  0.1024045E+06  0.5548367E+04  0.7191051E-02  0.7133484E-02  0.5237036E+04  0.2413657E+04
  0.9476191E+00  0.1032496E+06  0.6785067E+04 -0.1545815E-02 -0.3585815E-02  0.6090210E+04  0.3033522E+04
  0.9785714E+00  0.1041100E+06  0.8218446E+04 -0.3368072E-02 -0.8193970E-02  0.6948298E+04  0.3773899E+04
  0.1009524E+01  0.1049040E+06  0.9863387E+04  0.3264805E-02 -0.5218506E-02  0.7792322E+04  0.4651210E+04
  0.1040476E+01  0.1056519E+06  0.1173351E+05 -0.2933040E-02  0.8148193E-02  0.8568635E+04  0.5679855E+04
  0.1071429E+01  0.1062604E+06  0.1383819E+05  0.8089193E-02  0.6408691E-02  0.9295602E+04  0.6878423E+04
  0.1102381E+01  0.1067311E+06  0.1618151E+05  0.2303253E-01  0.1068115E-01  0.9945399E+04  0.8257834E+04
  0.1133333E+01  0.1070442E+06  0.1875987E+05  0.7108801E-02  0.1101685E-01  0.1051572E+05  0.9824468E+04
  0.1164286E+01  0.1071594E+06  0.2156470E+05  0.2096913E-02  0.1220703E-01  0.1105328E+05  0.1158727E+05
  0.1195238E+01  0.1071523E+06  0.2458419E+05  0.1920054E-01  0.1263428E-01  0.1152791E+05  0.1354544E+05
  0.1226190E+01  0.1069661E+06  0.2780006E+05 -0.3384785E-02 -0.8239746E-02  0.1194234E+05  0.1570563E+05
  0.1257143E+01  0.1066008E+06  0.3122002E+05 -0.9515936E-02 -0.1141357E-01  0.1223772E+05  0.1807895E+05
  0.1288095E+01  0.1060471E+06  0.3471775E+05 -0.1383614E-01 -0.2148438E-01  0.1242200E+05  0.2060260E+05
  0.1319048E+01  0.1052995E+06  0.3835661E+05  0.3331594E-02  0.7629395E-02  0.1238908E+05  0.2330240E+05
  0.1350000E+01  0.1043127E+06  0.4205606E+05  0.3255208E-02  0.2319336E-02  0.1232347E+05  0.2616693E+05
  0.1380952E+01  0.1031902E+06  0.4578291E+05  0.4419787E-02 -0.6103516E-04  0.1207218E+05  0.2914695E+05
  0.1411905E+01  0.1009729E+06  0.4877650E+05  0.2420821E-02  0.1574707E-01  0.1073474E+05  0.3174919E+05
  0.1442857E+01  0.9953647E+05  0.5242286E+05 -0.2030476E-02  0.1318359E-01  0.1026315E+05  0.3490391E+05
  0.1473810E+01  0.9794636E+05  0.5597386E+05  0.5300888E-02  0.2563477E-01  0.9657611E+04  0.3811281E+05
  0.1504762E+01  0.9623862E+05  0.5940456E+05  0.6489814E-02  0.4028320E-02  0.8883147E+04  0.4134344E+05
  0.1535714E+01  0.9441014E+05  0.6268818E+05 -0.1112827E-02  0.3625488E-01  0.7965376E+04  0.4457607E+05
  0.1566667E+01  0.9248273E+05  0.6579283E+05 -0.7947557E-02 -0.9521484E-02  0.6967150E+04  0.4779391E+05
  0.1597619E+01  0.9052816E+05  0.6869774E+05  0.4584459E-02  0.1562500E-01  0.5831990E+04  0.5094689E+05
  0.1628572E+01  0.8852766E+05  0.7137777E+05  0.2398574E-02  0.2416992E-01  0.4646270E+04  0.5403473E+05
  0.1659524E+01  0.8650619E+05  0.7383016E+05 -0.2942297E-03 -0.8666992E-02  0.3404362E+04  0.5702949E+05
  0.1690476E+01  0.8450024E+05  0.7603991E+05  0.4621479E-02 -0.5981445E-02  0.2105282E+04  0.5990667E+05
  0.1721429E+01  0.8251796E+05  0.7800565E+05  0.2269191E-02 -0.9643555E-02  0.7756872E+03  0.6267662E+05
  0.1752381E+01  0.8057169E+05  0.7976736E+05  0.1421058E-01  0.7202148E-02 -0.6505446E+03  0.6529273E+05
  0.1783333E+01  0.7863783E+05  0.8129352E+05  0.4243940E-02  0.1245117E-01 -0.2047633E+04  0.6781483E+05
  0.1814286E+01  0.7676209E+05  0.8261772E+05 -0.3700557E-02 -0.2673340E-01 -0.3487417E+04  0.7019106E+05
  0.1845238E+01  0.7496916E+05  0.8373964E+05 -0.3969254E-03 -0.2233887E-01 -0.4958012E+04  0.7241803E+05
  0.1876190E+01  0.7323608E+05  0.8464669E+05  0.2082011E-02 -0.9033203E-02 -0.6391442E+04  0.7452073E+05
  0.1907143E+01  0.7155628E+05  0.8536938E+05 -0.1984214E-02 -0.2514648E-01 -0.7804650E+04  0.7648103E+05
  0.1938095E+01  0.6996974E+05  0.8591073E+05  0.4660867E-02 -0.8544922E-02 -0.9214347E+04  0.7826082E+05
  0.1969048E+01  0.6846333E+05  0.8626911E+05 -0.3719676E-02  0.2685547E-02 -0.1056693E+05  0.7995616E+05
  0.2000000E+01  0.6704545E+05  0.8649988E+05  0.1306152E-01 -0.1220703E-02 -0.1191985E+05  0.8151538E+05
Zone t="Motion of body    1 in DoF   2",I=    64,F=POINT
  0.5000000E-01 -0.1419067E-01 -0.3814697E-05  0.1633955E+06  0.5217642E+03  0.9765625E-02  0.4196167E-04
  0.8095238E-01 -0.1319436E-02  0.7247925E-04  0.1609546E+06  0.8650578E+03 -0.7539637E-03  0.1068115E-03
  0.1119048E+00 -0.3817944E-02  0.1964569E-03  0.1597340E+06  0.1238641E+04  0.1199925E-01 -0.2288818E-04
  0.1428571E+00  0.5981445E-02  0.2193451E-03  0.1589934E+06  0.1656438E+04  0.6408691E-02  0.1449585E-03
  0.1738095E+00 -0.2633709E-02  0.8392334E-04  0.1588907E+06  0.2136400E+04 -0.5267418E-02  0.6103516E-04
  0.2047619E+00  0.1490393E-01  0.3738403E-03  0.1590289E+06  0.2700396E+04 -0.7153888E-02  0.4577637E-04
  0.2357143E+00 -0.2304539E-01 -0.3051758E-04  0.1595261E+06  0.3379410E+04 -0.4142992E-02  0.1831055E-03
  0.2666667E+00  0.6866455E-02  0.3356934E-03  0.1602689E+06  0.4199772E+04 -0.1007080E-01 -0.1525879E-04
  0.2976190E+00 -0.1825195E-01  0.6866455E-03  0.1610455E+06  0.5219230E+04  0.6972656E-02  0.3967285E-03
  0.3285715E+00 -0.5015497E-02  0.5722046E-03  0.1620602E+06  0.6468278E+04 -0.2489173E-01 -0.3051758E-03
  0.3595238E+00  0.6790666E-03 -0.6561279E-03  0.1629903E+06  0.8015548E+04 -0.1358133E-02 -0.6713867E-03
  0.3904762E+00  0.1062905E-01  0.1708984E-02  0.1638701E+06  0.9913533E+04  0.2313381E-01 -0.3356934E-03
  0.4214286E+00  0.1882779E-01 -0.8850098E-03  0.1641886E+06  0.1213849E+05 -0.1100702E-01  0.6408691E-03
  0.4523810E+00  0.2185701E-01  0.3051758E-03  0.1644489E+06  0.1480105E+05  0.5396792E-02  0.2441406E-03
  0.4833333E+00 -0.4546067E-02  0.2563477E-02  0.1639787E+06  0.1768503E+05  0.8081896E-02  0.1892090E-02
  0.5142857E+00  0.7595486E-02  0.6713867E-03  0.1629021E+06  0.2092254E+05  0.2278646E-01  0.1159668E-02
  0.5452381E+00 -0.1455249E-01  0.1037598E-02  0.1615375E+06  0.2433088E+05  0.5820995E-02  0.5493164E-03
  0.5761905E+00 -0.9109874E-02  0.1586914E-02  0.1598005E+06  0.2785117E+05 -0.2118575E-02  0.2807617E-02
  0.6071429E+00 -0.1045496E-01 -0.2441406E-02  0.1576074E+06  0.3156439E+05 -0.4021139E-03 -0.3662109E-03
  0.6380953E+00 -0.1453912E-01 -0.3051758E-02  0.1552192E+06  0.3526296E+05 -0.1377390E-01  0.2319336E-02
  0.6690477E+00 -0.8757784E-02  0.3479004E-02  0.1525662E+06  0.3901953E+05  0.1970501E-01  0.3173828E-02
  0.7000000E+00  0.2441406E-02  0.5249023E-02  0.1497452E+06  0.4284112E+05  0.3487723E-02 -0.1831055E-02
  0.7309524E+00  0.3340034E-02 -0.4516602E-02  0.1468905E+06  0.4661917E+05  0.1536416E-01 -0.8544922E-03
  0.7619048E+00 -0.2403259E-01  0.3356934E-02  0.1438333E+06  0.5038560E+05 -0.3204345E-02 -0.0000000E+00
  0.7928572E+00  0.7698127E-02 -0.2990723E-02  0.1406003E+06  0.5412784E+05 -0.6158501E-03  0.7324219E-03
  0.8238096E+00 -0.1096516E-01 -0.2197266E-02  0.1372898E+06  0.5780645E+05 -0.1126152E-01  0.3906250E-02
  0.8547620E+00  0.1499527E-01 -0.1220703E-02  0.1339903E+06  0.6138463E+05  0.1713745E-02  0.6835938E-02
  0.8857143E+00 -0.1764113E-01  0.1342773E-02  0.1306838E+06  0.6485096E+05  0.2205141E-02  0.9765625E-03
  0.9166667E+00  0.1384943E-01  0.2563477E-02  0.1273848E+06  0.6819214E+05 -0.5326705E-02  0.4882812E-03
  0.9476191E+00 -0.1198007E-01 -0.1477051E-01  0.1240495E+06  0.7141033E+05  0.0000000E+00 -0.4882812E-03
  0.9785714E+00 -0.5363965E-02  0.9765625E-02  0.1206939E+06  0.7449423E+05 -0.4989735E-03  0.4882812E-02
  0.1009524E+01 -0.1451025E-02 -0.1464844E-02  0.1173458E+06  0.7743502E+05  0.9673497E-03 -0.0000000E+00
  0.1040476E+01  0.1337466E-01  0.1025391E-01  0.1140661E+06  0.8019594E+05  0.5162150E-02  0.2197266E-02
  0.1071429E+01  0.8886719E-02 -0.4882812E-03  0.1108631E+06  0.8277317E+05 -0.4557292E-02 -0.1220703E-02
  0.1102381E+01  0.5093733E-02 -0.1623535E-01  0.1077662E+06  0.8515306E+05  0.1328800E-02 -0.3662109E-02
  0.1133333E+01  0.3015855E-02 -0.1745605E-01  0.1047464E+06  0.8735167E+05  0.0000000E+00  0.1464844E-02
  0.1164286E+01  0.5347129E-02 -0.1586914E-02  0.1018171E+06  0.8938409E+05  0.1677531E-02  0.4394531E-02
  0.1195238E+01  0.1072371E-01 -0.9765625E-02  0.9898168E+05  0.9123603E+05 -0.3676699E-02 -0.5371094E-02
  0.1226190E+01  0.8860172E-02  0.1586914E-02  0.9623602E+05  0.9292189E+05  0.5973150E-02 -0.9765625E-03
  0.1257143E+01 -0.9710138E-02 -0.1367188E-01  0.9360403E+05  0.9448187E+05 -0.5826083E-02 -0.1464844E-02
  0.1288095E+01  0.2463970E-02  0.6958008E-02  0.9102582E+05  0.9577288E+05 -0.1213031E-01 -0.1464844E-02
  0.1319048E+01  0.7403542E-03  0.1831055E-02  0.8858260E+05  0.9694031E+05 -0.3701771E-02  0.1953125E-02
  0.1350000E+01  0.3345631E-02 -0.0000000E+00  0.8623016E+05  0.9795888E+05  0.5787037E-02 -0.9765625E-03
  0.1380952E+01 -0.1767915E-02 -0.4150391E-02  0.8400680E+05  0.9878512E+05 -0.6010910E-02 -0.4394531E-02
  0.1411905E+01  0.7262463E-02  0.6835938E-02  0.8122635E+05  0.9969866E+05  0.1383326E-02 -0.4882812E-03
  0.1442857E+01  0.5245398E-02 -0.7568359E-02  0.7919761E+05  0.1003035E+06  0.9644764E-02  0.7812500E-02
  0.1473810E+01  0.9939166E-02  0.2099609E-01  0.7726744E+05  0.1007706E+06 -0.3478708E-02  0.9765625E-03
  0.1504762E+01  0.7706654E-02 -0.3417969E-02  0.7543970E+05  0.1011044E+06  0.4705115E-02 -0.0000000E+00
  0.1535714E+01  0.5405160E-02 -0.4150391E-02  0.7371103E+05  0.1013341E+06 -0.1176417E-01  0.1464844E-02
  0.1566667E+01  0.3038771E-02 -0.1049805E-01  0.7206853E+05  0.1014622E+06  0.4830868E-02 -0.3906250E-02
  0.1597619E+01  0.9550956E-02  0.1220703E-02  0.7052867E+05  0.1014611E+06  0.5806981E-02 -0.4882812E-03
  0.1628572E+01  0.6745991E-03 -0.2929688E-02  0.6907297E+05  0.1013567E+06 -0.1349198E-02  0.2441406E-02
  0.1659524E+01  0.9562466E-03 -0.1342773E-01  0.6769409E+05  0.1011507E+06 -0.4119216E-02 -0.8789062E-02
  0.1690476E+01  0.1660844E-02 -0.1342773E-01  0.6639938E+05  0.1008269E+06 -0.4043794E-02  0.9277344E-02
  0.1721429E+01 -0.5389329E-02 -0.3173828E-02  0.6518097E+05  0.1004033E+06 -0.1035318E-01  0.6347656E-02
  0.1752381E+01  0.4458220E-02 -0.1098633E-01  0.6405249E+05  0.9991752E+05 -0.6965969E-03 -0.2929688E-02
  0.1783333E+01 -0.4243940E-02 -0.6591797E-02  0.6298109E+05  0.9937393E+05 -0.5886755E-02 -0.4882812E-02
  0.1814286E+01  0.1345657E-02 -0.8300781E-02  0.6199107E+05  0.9878145E+05 -0.1345657E-03 -0.1562500E-01
  0.1845238E+01 -0.5292339E-02  0.2929688E-02  0.6107314E+05  0.9810752E+05 -0.9261593E-03  0.4394531E-02
  0.1876190E+01  0.3903772E-03 -0.4394531E-02  0.6020951E+05  0.9736334E+05  0.5855657E-02 -0.4882812E-03
  0.1907143E+01  0.2624283E-02  0.5371094E-02  0.5939327E+05  0.9657436E+05 -0.3968428E-02 -0.0000000E+00
  0.1938095E+01 -0.1448648E-02 -0.1098633E-01  0.5863284E+05  0.9569670E+05  0.2519387E-03 -0.9277344E-02
  0.1969048E+01 -0.2231806E-02 -0.1489258E-01  0.5792677E+05  0.9475641E+05  0.2479784E-02 -0.1708984E-01
  0.2000000E+01  0.4577637E-02 -0.2441406E-01  0.5727938E+05  0.9376537E+05  0.1062012E-01  0.4882812E-03
Zone t="Motion of body    1 in DoF   3",I=    64,F=POINT
  0.5000000E-01 -0.4858237E+04  0.2100588E-02  0.1129150E-01  0.3054685E-04  0.2212565E+06  0.8543624E-03
  0.8095238E-01 -0.5187865E+04  0.9261706E-02 -0.1988579E-01 -0.9271358E-04  0.2209586E+06  0.2433805E-02
  0.1119048E+00 -0.5503545E+04  0.2625385E-01  0.4704252E-01  0.3187863E-03  0.2202907E+06  0.6225832E-02
  0.1428571E+00 -0.5317830E+04  0.5955437E-01 -0.4058838E-02 -0.2782274E-04  0.2203723E+06  0.1441719E-01
  0.1738095E+00 -0.5288641E+04  0.1196637E+00  0.8331299E-01  0.1184609E-02  0.2205709E+06  0.2974938E-01
  0.2047619E+00 -0.4990844E+04  0.2231216E+00  0.7451967E-03  0.2350239E-04  0.2209304E+06  0.5785891E-01
  0.2357143E+00 -0.5159360E+04  0.3978333E+00  0.9839606E-02  0.2305387E-03  0.2204538E+06  0.1037405E+00
  0.2666667E+00 -0.4831591E+04  0.6883110E+00 -0.2300262E-01 -0.4873378E-03  0.2211049E+06  0.1802078E+00
  0.2976190E+00 -0.4582277E+04  0.1170831E+01  0.3916992E-01  0.1367487E-02  0.2212566E+06  0.3125186E+00
  0.3285715E+00 -0.4723680E+04  0.1970699E+01 -0.1439633E-01 -0.4496872E-03  0.2206703E+06  0.5350164E+00
  0.3595238E+00 -0.4508953E+04  0.3292216E+01  0.4312073E-01  0.2075162E-02  0.2211157E+06  0.9062344E+00
  0.3904762E+00 -0.3913572E+04  0.5475110E+01  0.1563095E-02  0.5402416E-04  0.2220325E+06  0.1545548E+01
  0.4214286E+00 -0.3855133E+04  0.8981346E+01 -0.6372483E-02 -0.5964935E-03  0.2216062E+06  0.2587588E+01
  0.4523810E+00 -0.3636523E+04  0.1460350E+02  0.6745990E-03  0.1623631E-03  0.2220268E+06  0.4313678E+01
  0.4833333E+00 -0.3262383E+04  0.2320311E+02  0.4280879E-01  0.4778922E-02  0.2225073E+06  0.6999351E+01
  0.5142857E+00 -0.2884580E+04  0.3625357E+02  0.2587213E-01  0.3472447E-02  0.2226829E+06  0.1120347E+02
  0.5452381E+00 -0.2664813E+04  0.5538767E+02  0.2630642E-01  0.4025638E-02  0.2225113E+06  0.1755750E+02
  0.5761905E+00 -0.2458939E+04  0.8260199E+02 -0.1154624E-01 -0.1749992E-02  0.2227895E+06  0.2679230E+02
  0.6071429E+00 -0.1935117E+04  0.1208174E+03  0.1598403E-01  0.3907681E-02  0.2235474E+06  0.4032062E+02
  0.6380953E+00 -0.1401564E+04  0.1730561E+03  0.1616521E-01  0.3043175E-02  0.2239212E+06  0.5914077E+02
  0.6690477E+00 -0.1034343E+04  0.2437889E+03 -0.3211188E-01 -0.9718418E-02  0.2238794E+06  0.8559686E+02
  0.7000000E+00 -0.6843814E+03  0.3381783E+03 -0.1604353E-01 -0.4819393E-02  0.2240101E+06  0.1220667E+03
  0.7309524E+00 -0.1771796E+03  0.4612699E+03 -0.7181074E-02 -0.2459526E-02  0.2245818E+06  0.1706191E+03
  0.7619048E+00  0.4461447E+03  0.6202634E+03  0.6889343E-02  0.1871109E-02  0.2252728E+06  0.2353673E+03
  0.7928572E+00  0.1141510E+04  0.8241824E+03 -0.1354870E-01 -0.6513596E-02  0.2258798E+06  0.3212432E+03
  0.8238096E+00  0.1848443E+04  0.1082510E+04 -0.2459752E-01 -0.1056671E-01  0.2263800E+06  0.4342513E+03
  0.8547620E+00  0.2373206E+04  0.1407804E+04  0.1271027E-01  0.7514954E-02  0.2264363E+06  0.5812755E+03
  0.8857143E+00  0.2957610E+04  0.1809012E+04  0.1529817E-01  0.1137924E-01  0.2268312E+06  0.7679875E+03
  0.9166667E+00  0.3641445E+04  0.2298068E+04 -0.1331676E-03  0.3604889E-02  0.2275585E+06  0.1000295E+04
  0.9476191E+00  0.4497819E+04  0.2886433E+04  0.9790162E-02  0.6019592E-02  0.2286154E+06  0.1287758E+04
  0.9785714E+00  0.5329880E+04  0.3593563E+04 -0.2120638E-01 -0.1392365E-01  0.2293308E+06  0.1643710E+04
  0.1009524E+01  0.6129417E+04  0.4433076E+04  0.3385724E-02  0.3753662E-02  0.2299894E+06  0.2082436E+04
  0.1040476E+01  0.6859366E+04  0.5424791E+04  0.1337466E-01  0.1001740E-01  0.2305025E+06  0.2620968E+04
  0.1071429E+01  0.7549541E+04  0.6583312E+04  0.7633464E-02  0.6057739E-02  0.2310317E+06  0.3277448E+04
  0.1102381E+01  0.8193889E+04  0.7918577E+04  0.1605633E-01  0.1884460E-01  0.2316900E+06  0.4058776E+04
  0.1133333E+01  0.8772458E+04  0.9436433E+04 -0.5816292E-02 -0.9811401E-02  0.2323475E+06  0.4964814E+04
  0.1164286E+01  0.9306835E+04  0.1113516E+05  0.9855492E-02  0.2249146E-01  0.2331094E+06  0.6003195E+04
  0.1195238E+01  0.9785054E+04  0.1302964E+05  0.4902266E-02  0.1895142E-01  0.2338531E+06  0.7192132E+04
  0.1226190E+01  0.1020206E+05  0.1512471E+05  0.1393735E-01  0.1641846E-01  0.2344942E+06  0.8553947E+04
  0.1257143E+01  0.1051329E+05  0.1744073E+05 -0.9710138E-02 -0.3112793E-01  0.2351259E+06  0.1011165E+05
  0.1288095E+01  0.1068847E+05  0.1989281E+05  0.5686085E-03 -0.6256104E-02  0.2354758E+06  0.1180960E+05
  0.1319048E+01  0.1066089E+05  0.2254013E+05  0.1610270E-01  0.2136230E-01  0.2357829E+06  0.1368693E+05
  0.1350000E+01  0.1057770E+05  0.2531474E+05  0.1085069E-02  0.1342773E-02  0.2361088E+06  0.1572182E+05
  0.1380952E+01  0.1034322E+05  0.2822305E+05 -0.9193158E-02 -0.2441406E-01  0.2364215E+06  0.1792300E+05
  0.1411905E+01  0.6301152E+04  0.2847971E+05  0.1556242E-01  0.7751465E-02  0.2327090E+06  0.1847940E+05
  0.1442857E+01  0.5916349E+04  0.3136336E+05  0.5922223E-02 -0.5249023E-02  0.2329950E+06  0.2080498E+05
  0.1473810E+01  0.5404771E+04  0.3430955E+05  0.2816097E-02 -0.6225586E-02  0.2331093E+06  0.2325728E+05
  0.1504762E+01  0.4733425E+04  0.3731386E+05 -0.3082662E-02 -0.8850098E-02  0.2329878E+06  0.2583064E+05
  0.1535714E+01  0.3918404E+04  0.4032226E+05 -0.2861555E-02  0.2899170E-01  0.2328122E+06  0.2851636E+05
  0.1566667E+01  0.3013372E+04  0.4329660E+05  0.3428358E-02  0.3112793E-02  0.2325675E+06  0.3128103E+05
  0.1597619E+01  0.1993744E+04  0.4625589E+05  0.2445045E-02  0.9521484E-02  0.2321689E+06  0.3410118E+05
  0.1628572E+01  0.9163818E+03  0.4914033E+05 -0.9894120E-02 -0.5371094E-02  0.2317131E+06  0.3695531E+05
  0.1659524E+01 -0.2156474E+03  0.5191402E+05  0.3089412E-02 -0.7080078E-02  0.2312511E+06  0.3981573E+05
  0.1690476E+01 -0.1387831E+04  0.5458903E+05 -0.5199163E-02 -0.1672363E-01  0.2307740E+06  0.4268993E+05
  0.1721429E+01 -0.2588156E+04  0.5720585E+05  0.4254733E-03 -0.8300781E-02  0.2300722E+06  0.4553368E+05
  0.1752381E+01 -0.3887593E+04  0.5968970E+05  0.1811152E-02 -0.1562500E-01  0.2293799E+06  0.4840648E+05
  0.1783333E+01 -0.5171995E+04  0.6204111E+05 -0.4243940E-02 -0.1220703E-03  0.2286342E+06  0.5121884E+05
  0.1814286E+01 -0.6507354E+04  0.6427026E+05 -0.1883920E-02  0.5615234E-02  0.2278352E+06  0.5403562E+05
  0.1845238E+01 -0.7863274E+04  0.6641263E+05  0.7938508E-03  0.9765625E-03  0.2269064E+06  0.5678406E+05
  0.1876190E+01 -0.9190405E+04  0.6842252E+05  0.6115909E-02  0.2197266E-02  0.2259653E+06  0.5946214E+05
  0.1907143E+01 -0.1050358E+05  0.7023992E+05  0.1152124E-02  0.1098633E-02  0.2250712E+06  0.6207130E+05
  0.1938095E+01 -0.1179502E+05  0.7192188E+05  0.5164744E-02 -0.1342773E-01  0.2241986E+06  0.6461265E+05
  0.1969048E+01 -0.1305613E+05  0.7354446E+05 -0.9919136E-03 -0.2380371E-01  0.2231938E+06  0.6709353E+05
  0.2000000E+01 -0.1432156E+05  0.7508086E+05 -0.6103516E-03 -0.9887695E-02  0.2221060E+06  0.6947117E+05
