VARIABLES="w (rad/s)"
"abs(F   1   1)" "angle(F   1   1)"
"abs(F   1   2)" "angle(F   1   2)"
"abs(F   1   3)" "angle(F   1   3)"
Zone t="Diffraction force - beta =   0.000 deg",I=    64,F=POINT
  0.5000000E-01  0.1174622E+04 -0.1570794E+01  0.3224762E+03 -0.3084722E+01  0.2281812E+02 -0.1570793E+01
  0.8095238E-01  0.1920646E+04 -0.1570791E+01  0.8343839E+03 -0.3082601E+01  0.3712612E+02 -0.1570789E+01
  0.1119048E+00  0.2674406E+04 -0.1570785E+01  0.1582622E+04 -0.3080048E+01  0.5191286E+02 -0.1570780E+01
  0.1428571E+00  0.3468470E+04 -0.1570776E+01  0.2568915E+04 -0.3076877E+01  0.6802734E+02 -0.1570769E+01
  0.1738095E+00  0.4281178E+04 -0.1570763E+01  0.3798206E+04 -0.3072933E+01  0.8409344E+02 -0.1570752E+01
  0.2047619E+00  0.5152492E+04 -0.1570744E+01  0.5275397E+04 -0.3068006E+01  0.1022146E+03 -0.1570728E+01
  0.2357143E+00  0.6063043E+04 -0.1570717E+01  0.7007750E+04 -0.3061816E+01  0.1209785E+03 -0.1570692E+01
  0.2666667E+00  0.7046894E+04 -0.1570677E+01  0.9003145E+04 -0.3054327E+01  0.1412878E+03 -0.1570642E+01
  0.2976190E+00  0.8130570E+04 -0.1570617E+01  0.1126622E+05 -0.3044899E+01  0.1652106E+03 -0.1570567E+01
  0.3285715E+00  0.9285130E+04 -0.1570528E+01  0.1380682E+05 -0.3033670E+01  0.1914963E+03 -0.1570455E+01
  0.3595238E+00  0.1056828E+05 -0.1570396E+01  0.1661947E+05 -0.3020035E+01  0.2194350E+03 -0.1570287E+01
  0.3904762E+00  0.1200770E+05 -0.1570198E+01  0.1971235E+05 -0.3003929E+01  0.2554616E+03 -0.1570044E+01
  0.4214286E+00  0.1359238E+05 -0.1569908E+01  0.2303039E+05 -0.2985846E+01  0.2927983E+03 -0.1569685E+01
  0.4523810E+00  0.1527889E+05 -0.1569480E+01  0.2660196E+05 -0.2964968E+01  0.3298698E+03 -0.1569140E+01
  0.4833333E+00  0.1719776E+05 -0.1568892E+01  0.3035070E+05 -0.2943863E+01  0.3806204E+03 -0.1568425E+01
  0.5142857E+00  0.1929166E+05 -0.1568077E+01  0.3425764E+05 -0.2920869E+01  0.4359257E+03 -0.1567436E+01
  0.5452381E+00  0.2148610E+05 -0.1566986E+01  0.3831546E+05 -0.2897991E+01  0.4939291E+03 -0.1566107E+01
  0.5761905E+00  0.2376821E+05 -0.1565561E+01  0.4249037E+05 -0.2875541E+01  0.5481317E+03 -0.1564311E+01
  0.6071429E+00  0.2625004E+05 -0.1563737E+01  0.4674728E+05 -0.2852331E+01  0.6195530E+03 -0.1562121E+01
  0.6380953E+00  0.2890167E+05 -0.1561479E+01  0.5112007E+05 -0.2830643E+01  0.7028043E+03 -0.1559481E+01
  0.6690477E+00  0.3163641E+05 -0.1558675E+01  0.5554031E+05 -0.2809050E+01  0.7840988E+03 -0.1556134E+01
  0.7000000E+00  0.3435061E+05 -0.1555198E+01  0.5998724E+05 -0.2787241E+01  0.8578895E+03 -0.1551833E+01
  0.7309524E+00  0.3718768E+05 -0.1551027E+01  0.6450802E+05 -0.2766512E+01  0.9506442E+03 -0.1546915E+01
  0.7619048E+00  0.4019859E+05 -0.1546089E+01  0.6903302E+05 -0.2746092E+01  0.1050263E+04 -0.1541107E+01
  0.7928572E+00  0.4331514E+05 -0.1540271E+01  0.7352295E+05 -0.2725771E+01  0.1157617E+04 -0.1534309E+01
  0.8238096E+00  0.4648409E+05 -0.1533456E+01  0.7798212E+05 -0.2705817E+01  0.1280097E+04 -0.1526609E+01
  0.8547620E+00  0.4965784E+05 -0.1525527E+01  0.8241902E+05 -0.2686541E+01  0.1397356E+04 -0.1517409E+01
  0.8857143E+00  0.5276754E+05 -0.1516333E+01  0.8679526E+05 -0.2667767E+01  0.1501861E+04 -0.1506301E+01
  0.9166667E+00  0.5592542E+05 -0.1505896E+01  0.9109777E+05 -0.2649478E+01  0.1622706E+04 -0.1494092E+01
  0.9476191E+00  0.5915017E+05 -0.1494196E+01  0.9528952E+05 -0.2631506E+01  0.1764909E+04 -0.1481031E+01
  0.9785714E+00  0.6243059E+05 -0.1481184E+01  0.9937270E+05 -0.2614089E+01  0.1918817E+04 -0.1466669E+01
  0.1009524E+01  0.6566072E+05 -0.1466726E+01  0.1033221E+06 -0.2597092E+01  0.2068969E+04 -0.1450473E+01
  0.1040476E+01  0.6878267E+05 -0.1450717E+01  0.1071310E+06 -0.2580607E+01  0.2218107E+04 -0.1432434E+01
  0.1071429E+01  0.7169298E+05 -0.1433001E+01  0.1107795E+06 -0.2564512E+01  0.2363795E+04 -0.1412302E+01
  0.1102381E+01  0.7437533E+05 -0.1413545E+01  0.1142892E+06 -0.2549150E+01  0.2505593E+04 -0.1390043E+01
  0.1133333E+01  0.7685474E+05 -0.1392490E+01  0.1176384E+06 -0.2534431E+01  0.2651044E+04 -0.1366461E+01
  0.1164286E+01  0.7914759E+05 -0.1370059E+01  0.1208193E+06 -0.2520247E+01  0.2790124E+04 -0.1341213E+01
  0.1195238E+01  0.8117115E+05 -0.1346217E+01  0.1238055E+06 -0.2506472E+01  0.2921066E+04 -0.1314337E+01
  0.1226190E+01  0.8286845E+05 -0.1320972E+01  0.1265927E+06 -0.2493119E+01  0.3054443E+04 -0.1286143E+01
  0.1257143E+01  0.8413262E+05 -0.1294009E+01  0.1292106E+06 -0.2480039E+01  0.3179263E+04 -0.1256245E+01
  0.1288095E+01  0.8503945E+05 -0.1266285E+01  0.1315627E+06 -0.2467950E+01  0.3306379E+04 -0.1226534E+01
  0.1319048E+01  0.8546451E+05 -0.1237267E+01  0.1337398E+06 -0.2456201E+01  0.3404624E+04 -0.1194702E+01
  0.1350000E+01  0.8538181E+05 -0.1207332E+01  0.1356987E+06 -0.2444894E+01  0.3475496E+04 -0.1161226E+01
  0.1380952E+01  0.8478442E+05 -0.1176650E+01  0.1374348E+06 -0.2434178E+01  0.3520377E+04 -0.1126284E+01
  0.1411905E+01  0.8313847E+05 -0.1145353E+01  0.1388201E+06 -0.2423340E+01  0.3491526E+04 -0.1086604E+01
  0.1442857E+01  0.8142061E+05 -0.1113225E+01  0.1401071E+06 -0.2413366E+01  0.3506730E+04 -0.1050866E+01
  0.1473810E+01  0.7916427E+05 -0.1080885E+01  0.1411747E+06 -0.2403939E+01  0.3502911E+04 -0.1015994E+01
  0.1504762E+01  0.7635846E+05 -0.1048395E+01  0.1420143E+06 -0.2395049E+01  0.3468092E+04 -0.9807869E+00
  0.1535714E+01  0.7301430E+05 -0.1015800E+01  0.1426221E+06 -0.2386628E+01  0.3393316E+04 -0.9442663E+00
  0.1566667E+01  0.6912418E+05 -0.9829076E+00  0.1430024E+06 -0.2378616E+01  0.3279685E+04 -0.9054943E+00
  0.1597619E+01  0.6473388E+05 -0.9499153E+00  0.1431571E+06 -0.2371069E+01  0.3137765E+04 -0.8669460E+00
  0.1628572E+01  0.5988060E+05 -0.9168734E+00  0.1430801E+06 -0.2363822E+01  0.2970990E+04 -0.8291029E+00
  0.1659524E+01  0.5458921E+05 -0.8834419E+00  0.1427800E+06 -0.2357055E+01  0.2775792E+04 -0.7918428E+00
  0.1690476E+01  0.4889869E+05 -0.8492585E+00  0.1422634E+06 -0.2350764E+01  0.2549416E+04 -0.7531151E+00
  0.1721429E+01  0.4286648E+05 -0.8139514E+00  0.1415204E+06 -0.2345056E+01  0.2292093E+04 -0.7125450E+00
  0.1752381E+01  0.3653658E+05 -0.7763642E+00  0.1405499E+06 -0.2339907E+01  0.1998977E+04 -0.6662447E+00
  0.1783333E+01  0.2994621E+05 -0.7339871E+00  0.1393566E+06 -0.2335227E+01  0.1671970E+04 -0.6119396E+00
  0.1814286E+01  0.2314006E+05 -0.6814563E+00  0.1379592E+06 -0.2330947E+01  0.1308920E+04 -0.5368933E+00
  0.1845238E+01  0.1618525E+05 -0.6042807E+00  0.1363538E+06 -0.2327158E+01  0.9282973E+03 -0.4222767E+00
  0.1876190E+01  0.9216543E+04 -0.4439758E+00  0.1345406E+06 -0.2323690E+01  0.5462245E+03 -0.1778411E+00
  0.1907143E+01  0.3231692E+04  0.3543957E+00  0.1325286E+06 -0.2320717E+01  0.2678501E+03  0.7478443E+00
  0.1938095E+01  0.6526393E+04  0.1966107E+01  0.1303231E+06 -0.2318375E+01  0.4867545E+03  0.1939686E+01
  0.1969048E+01  0.1353992E+05  0.2227002E+01  0.1279203E+06 -0.2316732E+01  0.9220877E+03  0.2245407E+01
  0.2000000E+01  0.2078800E+05  0.2320236E+01  0.1253266E+06 -0.2315773E+01  0.1409452E+04  0.2365797E+01
