VARIABLES="w (rad/s)"
"A   1   1" "B   1   1"
"A   1   2" "B   1   2"
"A   1   3" "B   1   3"
Zone t="Motion of body    1 in DoF   1",I=    64,F=POINT
  0.5000000E-01  0.7474599E+05  0.7886186E-02 -0.1441956E-01 -0.3113856E-04  0.1451081E+04  0.2003456E-03
  0.8095238E-01  0.7506169E+05  0.3465166E-01 -0.2638873E-02 -0.6699156E-04  0.1448472E+04  0.8661843E-03
  0.1119048E+00  0.7497470E+05  0.9723043E-01  0.8675596E-02  0.7833578E-04  0.1450528E+04  0.2424303E-02
  0.1428571E+00  0.7530930E+05  0.2191432E+00 -0.2696991E-02 -0.7276004E-04  0.1469220E+04  0.5501277E-02
  0.1738095E+00  0.7531137E+05  0.4361023E+00 -0.1755806E-03  0.6507733E-05  0.1467672E+04  0.1097531E-01
  0.2047619E+00  0.7559570E+05  0.8050735E+00  0.1285464E-02 -0.2029375E-04  0.1483476E+04  0.2039755E-01
  0.2357143E+00  0.7566885E+05  0.1417465E+01 -0.3010143E-02 -0.4557846E-04  0.1488395E+04  0.3609841E-01
  0.2666667E+00  0.7585034E+05  0.2419268E+01 -0.9441375E-03 -0.6888714E-04  0.1493184E+04  0.6194006E-01
  0.2976190E+00  0.7622002E+05  0.4061399E+01  0.2243042E-02  0.3127288E-04  0.1514460E+04  0.1048747E+00
  0.3285715E+00  0.7634851E+05  0.6718789E+01  0.6339031E-02  0.4673246E-03  0.1532251E+04  0.1751901E+00
  0.3595238E+00  0.7661576E+05  0.1103517E+02 -0.1237174E-01 -0.3904440E-03  0.1540290E+04  0.2899982E+00
  0.3904762E+00  0.7705625E+05  0.1800872E+02 -0.2286027E-02  0.1241192E-03  0.1578882E+04  0.4795745E+00
  0.4214286E+00  0.7748398E+05  0.2899139E+02  0.1973297E-02  0.4438311E-03  0.1598966E+04  0.7801666E+00
  0.4523810E+00  0.7764798E+05  0.4621046E+02 -0.5970201E-02  0.5697906E-03  0.1595828E+04  0.1253291E+01
  0.4833333E+00  0.7821304E+05  0.7195190E+02  0.1431695E-01  0.1699939E-02  0.1637884E+04  0.1980256E+01
  0.5142857E+00  0.7886592E+05  0.1102222E+03  0.1542833E-02 -0.4186034E-03  0.1676992E+04  0.3075052E+01
  0.5452381E+00  0.7936053E+05  0.1647200E+03 -0.1477637E-01 -0.2136350E-02  0.1705504E+04  0.4657249E+01
  0.5761905E+00  0.7974783E+05  0.2402259E+03  0.1190375E-01  0.2428830E-02  0.1707979E+04  0.6859936E+01
  0.6071429E+00  0.8043323E+05  0.3442176E+03 -0.1046753E-01 -0.3012478E-02  0.1751884E+04  0.9980092E+01
  0.6380953E+00  0.8131176E+05  0.4826255E+03  0.7006517E-02  0.1678705E-02  0.1813244E+04  0.1424736E+02
  0.6690477E+00  0.8215628E+05  0.6649299E+03 -0.2850841E-02 -0.2111077E-02  0.1857076E+04  0.1993153E+02
  0.7000000E+00  0.8276671E+05  0.9014011E+03  0.4098075E-02  0.1122713E-02  0.1872974E+04  0.2736210E+02
  0.7309524E+00  0.8351864E+05  0.1203208E+04  0.3193908E-02  0.4035711E-02  0.1920769E+04  0.3715187E+02
  0.7619048E+00  0.8451538E+05  0.1585569E+04 -0.4245758E-02 -0.2553225E-02  0.1975750E+04  0.4977256E+02
  0.7928572E+00  0.8561071E+05  0.2064224E+04 -0.1453021E-01 -0.3458500E-02  0.2036827E+04  0.6593285E+02
  0.8238096E+00  0.8671518E+05  0.2656381E+04  0.3519224E-03  0.7185936E-03  0.2113472E+04  0.8655396E+02
  0.8547620E+00  0.8777387E+05  0.3380445E+04 -0.6926385E-02 -0.5493164E-02  0.2173702E+04  0.1121597E+03
  0.8857143E+00  0.8870839E+05  0.4256029E+04  0.1366154E-01  0.7689476E-02  0.2211072E+04  0.1434098E+03
  0.9166667E+00  0.8970973E+05  0.5305747E+04  0.5726207E-02  0.1277924E-03  0.2267320E+04  0.1818979E+03
  0.9476191E+00  0.9082319E+05  0.6552629E+04 -0.8856232E-03  0.9717941E-03  0.2346435E+04  0.2290559E+03
  0.9785714E+00  0.9204314E+05  0.8021704E+04 -0.9184232E-02 -0.6425858E-02  0.2436749E+04  0.2863584E+03
  0.1009524E+01  0.9323415E+05  0.9735071E+04 -0.2675327E-02 -0.4100800E-02  0.2520230E+04  0.3544520E+03
  0.1040476E+01  0.9434316E+05  0.1171580E+05 -0.2537079E-02 -0.4882812E-03  0.2599726E+04  0.4349917E+03
  0.1071429E+01  0.9526170E+05  0.1398213E+05  0.1116536E-01  0.5130768E-02  0.2669660E+04  0.5296507E+03
  0.1102381E+01  0.9601226E+05  0.1655117E+05 -0.1309422E-01 -0.1603317E-01  0.2732208E+04  0.6399088E+03
  0.1133333E+01  0.9663803E+05  0.1943329E+05  0.5924000E-03 -0.1514435E-02  0.2797263E+04  0.7668139E+03
  0.1164286E+01  0.9717529E+05  0.2263005E+05 -0.1433764E-01 -0.1128769E-01  0.2858341E+04  0.9105344E+03
  0.1195238E+01  0.9756427E+05  0.2613992E+05 -0.4238417E-02 -0.7976532E-02  0.2912639E+04  0.1071695E+04
  0.1226190E+01  0.9775758E+05  0.2995704E+05 -0.9855697E-02 -0.1747131E-02  0.2968350E+04  0.1254304E+04
  0.1257143E+01  0.9766702E+05  0.3408365E+05 -0.2184781E-02 -0.1299667E-01  0.3013111E+04  0.1458105E+04
  0.1288095E+01  0.9741084E+05  0.3844023E+05  0.1089833E-01  0.1290131E-01  0.3064142E+04  0.1682280E+04
  0.1319048E+01  0.9686375E+05  0.4303461E+05 -0.2475559E-02 -0.1462555E-01  0.3090630E+04  0.1923376E+04
  0.1350000E+01  0.9603441E+05  0.4779430E+05 -0.1491970E-02 -0.1055145E-01  0.3100368E+04  0.2179592E+04
  0.1380952E+01  0.9495000E+05  0.5267466E+05 -0.4883865E-02  0.3219604E-02  0.3093939E+04  0.2449968E+04
  0.1411905E+01  0.9320084E+05  0.5734046E+05 -0.1772387E-02 -0.3959656E-02  0.3026961E+04  0.2716363E+04
  0.1442857E+01  0.9156785E+05  0.6228119E+05  0.5795318E-02 -0.3616333E-02  0.3003290E+04  0.3016711E+04
  0.1473810E+01  0.8972233E+05  0.6716498E+05 -0.4017079E-02 -0.2043152E-01  0.2970788E+04  0.3327339E+04
  0.1504762E+01  0.8766867E+05  0.7192674E+05 -0.3975011E-02 -0.3486633E-02  0.2924243E+04  0.3642711E+04
  0.1535714E+01  0.8543593E+05  0.7651627E+05 -0.7233375E-02 -0.2761841E-02  0.2858656E+04  0.3957616E+04
  0.1566667E+01  0.8301934E+05  0.8088609E+05  0.2356996E-02  0.4547119E-02  0.2776494E+04  0.4272957E+04
  0.1597619E+01  0.8048423E+05  0.8499730E+05  0.5157516E-02  0.1705170E-01  0.2686226E+04  0.4586330E+04
  0.1628572E+01  0.7784926E+05  0.8881497E+05 -0.3223084E-02 -0.1700592E-01  0.2588840E+04  0.4897479E+04
  0.1659524E+01  0.7515216E+05  0.9231008E+05 -0.9084343E-02 -0.9384155E-02  0.2486012E+04  0.5203227E+04
  0.1690476E+01  0.7242920E+05  0.9546786E+05 -0.6715586E-02 -0.8224487E-02  0.2371798E+04  0.5500669E+04
  0.1721429E+01  0.6971920E+05  0.9827521E+05 -0.6896213E-02 -0.1029968E-01  0.2255679E+04  0.5790499E+04
  0.1752381E+01  0.6705042E+05  0.1007338E+06 -0.2142036E-02 -0.1480103E-02  0.2129479E+04  0.6067106E+04
  0.1783333E+01  0.6443237E+05  0.1028444E+06 -0.2224646E-03 -0.1034546E-01  0.2001028E+04  0.6326788E+04
  0.1814286E+01  0.6186231E+05  0.1046251E+06 -0.5937712E-02 -0.4074097E-02  0.1866041E+04  0.6566750E+04
  0.1845238E+01  0.5938562E+05  0.1060923E+06  0.3886561E-02 -0.7804871E-02  0.1734274E+04  0.6795847E+04
  0.1876190E+01  0.5698478E+05  0.1072590E+06 -0.3301940E-02  0.3807068E-02  0.1600557E+04  0.7017858E+04
  0.1907143E+01  0.5467887E+05  0.1081416E+06 -0.1456157E-02  0.7575989E-02  0.1470226E+04  0.7229419E+04
  0.1938095E+01  0.5249253E+05  0.1087594E+06 -0.3464158E-03 -0.2456665E-02  0.1341879E+04  0.7430121E+04
  0.1969048E+01  0.5043041E+05  0.1091333E+06  0.8834230E-03 -0.7759094E-02  0.1218538E+04  0.7622455E+04
  0.2000000E+01  0.4848056E+05  0.1092841E+06 -0.1678467E-03  0.7354736E-02  0.1096237E+04  0.7801648E+04
Zone t="Motion of body    1 in DoF   2",I=    64,F=POINT
  0.5000000E-01  0.4520416E-02  0.3039837E-05  0.1295233E+06  0.3666223E+03 -0.3738403E-02 -0.1281500E-04
  0.8095238E-01 -0.8741266E-02  0.9936094E-04  0.1278543E+06  0.6077155E+03 -0.5183500E-02 -0.2992153E-04
  0.1119048E+00  0.2778236E-02  0.8702278E-04  0.1269067E+06  0.8698949E+03 -0.6340514E-02 -0.1239777E-04
  0.1428571E+00 -0.1064110E-01  0.1085997E-03  0.1264005E+06  0.1162953E+04 -0.2109528E-02 -0.1287460E-04
  0.1738095E+00 -0.1106158E-01 -0.3588200E-04  0.1262432E+06  0.1499184E+04 -0.6277006E-02 -0.6103516E-04
  0.2047619E+00 -0.2239316E-01 -0.7772446E-04  0.1263286E+06  0.1894032E+04 -0.2608188E-02 -0.8106232E-04
  0.2357143E+00 -0.1560096E-01 -0.3604889E-03  0.1266124E+06  0.2368971E+04 -0.2362800E-02 -0.3862381E-04
  0.2666667E+00 -0.7624626E-02 -0.4944801E-03  0.1270643E+06  0.2941947E+04 -0.4434586E-02 -0.1015663E-03
  0.2976190E+00 -0.9228516E-03 -0.1697540E-03  0.1276012E+06  0.3653556E+04 -0.6126709E-02 -0.2117157E-03
  0.3285715E+00 -0.1040251E-01 -0.3209114E-03  0.1282243E+06  0.4524404E+04 -0.5387015E-02 -0.2155304E-03
  0.3595238E+00 -0.4817129E-02 -0.2522469E-03  0.1287979E+06  0.5602345E+04 -0.3734866E-02 -0.2269745E-03
  0.3904762E+00 -0.1428278E-01  0.1081467E-02  0.1293445E+06  0.6922656E+04 -0.5548988E-02 -0.3623962E-03
  0.4214286E+00  0.1051822E-01 -0.8792877E-03  0.1295190E+06  0.8468724E+04 -0.4598326E-02 -0.4653931E-03
  0.4523810E+00 -0.2087884E-01  0.5397797E-03  0.1295260E+06  0.1031955E+05 -0.7049560E-02 -0.4730225E-03
  0.4833333E+00  0.4924905E-02 -0.1174927E-02  0.1291226E+06  0.1231562E+05 -0.6345551E-02 -0.5321503E-03
  0.5142857E+00 -0.6468032E-02  0.5302429E-03  0.1283122E+06  0.1455392E+05 -0.5785624E-02 -0.6980896E-03
  0.5452381E+00  0.1329314E-02  0.2325058E-02  0.1272259E+06  0.1690622E+05 -0.5429197E-02 -0.6523132E-03
  0.5761905E+00 -0.9758689E-02 -0.1907349E-03  0.1258532E+06  0.1932693E+05 -0.4528455E-02 -0.1022339E-02
  0.6071429E+00 -0.1256606E-01  0.1195908E-02  0.1241652E+06  0.2187712E+05 -0.6283030E-02 -0.1087189E-02
  0.6380953E+00 -0.4089128E-02 -0.7247925E-04  0.1224214E+06  0.2439532E+05 -0.3108694E-02 -0.9841919E-03
  0.6690477E+00 -0.1459631E-02  0.4577637E-04  0.1204571E+06  0.2694515E+05 -0.5838523E-02 -0.1144409E-02
  0.7000000E+00  0.1820155E-02 -0.3200531E-02  0.1182850E+06  0.2953455E+05 -0.4490444E-02 -0.1449585E-02
  0.7309524E+00 -0.9372971E-02 -0.1396179E-02  0.1161181E+06  0.3207374E+05 -0.6179064E-02 -0.1419067E-02
  0.7619048E+00 -0.1622200E-01  0.5702972E-02  0.1138510E+06  0.3458302E+05 -0.5607605E-02 -0.1319885E-02
  0.7928572E+00 -0.2576948E-01 -0.2002716E-02  0.1114578E+06  0.3705432E+05 -0.5465670E-02 -0.1602173E-02
  0.8238096E+00 -0.8909192E-02  0.3459930E-02  0.1090089E+06  0.3946221E+05 -0.3926713E-02 -0.2685547E-02
  0.8547620E+00 -0.1674471E-01  0.2311707E-02  0.1065691E+06  0.4177869E+05 -0.3034756E-02 -0.1899719E-02
  0.8857143E+00  0.6529285E-02 -0.1430511E-02  0.1041001E+06  0.4399709E+05 -0.4203550E-02 -0.2258301E-02
  0.9166667E+00 -0.1251776E-01  0.4291534E-02  0.1016225E+06  0.4610565E+05 -0.3395774E-02 -0.3906250E-02
  0.9476191E+00  0.9339299E-03  0.2334595E-02  0.9914155E+05  0.4809889E+05 -0.2318722E-02 -0.3410339E-02
  0.9785714E+00 -0.1563970E-01  0.2407074E-02  0.9669758E+05  0.4995606E+05 -0.3524001E-02 -0.2708435E-02
  0.1009524E+01  0.1949814E-02  0.1525879E-02  0.9427716E+05  0.5167752E+05 -0.4232155E-02 -0.4058838E-02
  0.1040476E+01 -0.5719427E-03 -0.3883362E-02  0.9189344E+05  0.5325124E+05 -0.5103489E-02 -0.3349304E-02
  0.1071429E+01 -0.4543050E-02 -0.3700256E-03  0.8954349E+05  0.5468161E+05 -0.2705892E-02 -0.3448486E-02
  0.1102381E+01  0.6920833E-03 -0.2170563E-02  0.8728323E+05  0.5595345E+05 -0.2463816E-02 -0.3440857E-02
  0.1133333E+01  0.7310755E-02 -0.4837036E-02  0.8509947E+05  0.5706213E+05 -0.4092946E-02 -0.3410339E-02
  0.1164286E+01 -0.1391826E-01 -0.7686615E-02  0.8300029E+05  0.5801885E+05 -0.1939645E-02 -0.2288818E-02
  0.1195238E+01  0.6766148E-03  0.2960205E-02  0.8097573E+05  0.5882503E+05 -0.2936253E-02 -0.3791809E-02
  0.1226190E+01 -0.2294685E-01 -0.4615784E-02  0.7902592E+05  0.5948605E+05 -0.3359897E-02 -0.4524231E-02
  0.1257143E+01 -0.6287314E-02 -0.1419067E-02  0.7717589E+05  0.6003500E+05 -0.1966303E-02 -0.3013611E-02
  0.1288095E+01 -0.2167820E-02  0.4005432E-03  0.7540334E+05  0.6036811E+05 -0.2606122E-02 -0.4798889E-02
  0.1319048E+01 -0.1138295E-01 -0.1444626E-01  0.7373713E+05  0.6059149E+05 -0.2868873E-02 -0.2723694E-02
  0.1350000E+01 -0.1819752E-01  0.3795624E-02  0.7216144E+05  0.6068141E+05 -0.2667462E-02 -0.4707336E-02
  0.1380952E+01 -0.4751271E-02 -0.1823425E-02  0.7068092E+05  0.6063173E+05 -0.2430883E-03 -0.5340576E-02
  0.1411905E+01 -0.7046318E-02 -0.7686615E-02  0.6927212E+05  0.6056843E+05 -0.1880459E-02 -0.5851746E-02
  0.1442857E+01  0.1692064E-03 -0.1322556E-01  0.6796015E+05  0.6029752E+05 -0.3595636E-02 -0.6095886E-02
  0.1473810E+01  0.3830720E-03 -0.2225876E-01  0.6675068E+05  0.5992077E+05 -0.1200982E-02 -0.4806519E-02
  0.1504762E+01 -0.5992937E-02  0.4337311E-02  0.6563753E+05  0.5943172E+05 -0.1764418E-02 -0.4302979E-02
  0.1535714E+01 -0.7382415E-02 -0.1486588E-01  0.6460268E+05  0.5885125E+05 -0.1450649E-02 -0.4241943E-02
  0.1566667E+01 -0.9856528E-02 -0.1342392E-01  0.6365132E+05  0.5817896E+05 -0.1344072E-02 -0.5111694E-02
  0.1597619E+01 -0.1700070E-02 -0.2288818E-02  0.6277911E+05  0.5742672E+05 -0.2292229E-02 -0.5714417E-02
  0.1628572E+01 -0.6624188E-02 -0.6259918E-02  0.6196817E+05  0.5660480E+05 -0.2623441E-03 -0.4867554E-02
  0.1659524E+01 -0.1018770E-01 -0.2049255E-01  0.6123704E+05  0.5570875E+05 -0.1342423E-02 -0.6896973E-02
  0.1690476E+01 -0.3691767E-02 -0.3204346E-02  0.6059067E+05  0.5476516E+05 -0.1408107E-02 -0.4676819E-02
  0.1721429E+01 -0.9369276E-02 -0.2902985E-01  0.6001848E+05  0.5375916E+05 -0.1453700E-02 -0.4570007E-02
  0.1752381E+01 -0.2194280E-02 -0.2532959E-02  0.5950634E+05  0.5270003E+05 -0.9055760E-03 -0.6393433E-02
  0.1783333E+01 -0.5176580E-02 -0.3627777E-02  0.5904663E+05  0.5159503E+05 -0.7871824E-03 -0.4768372E-02
  0.1814286E+01 -0.7930966E-02 -0.2668381E-01  0.5865182E+05  0.5045427E+05 -0.2018486E-03 -0.6736755E-02
  0.1845238E+01 -0.3886561E-02  0.4909515E-02  0.5830698E+05  0.4928355E+05 -0.1802703E-02 -0.4974365E-02
  0.1876190E+01 -0.5017973E-02 -0.6240845E-02  0.5800113E+05  0.4809474E+05 -0.8783486E-03 -0.4913330E-02
  0.1907143E+01 -0.5096550E-02 -0.7682800E-02  0.5774804E+05  0.4687378E+05  0.4800518E-03 -0.4493713E-02
  0.1938095E+01 -0.5857576E-02 -0.7146835E-02  0.5754525E+05  0.4564669E+05 -0.1732079E-03 -0.3967285E-02
  0.1969048E+01  0.2789757E-03 -0.6307602E-02  0.5738589E+05  0.4440244E+05 -0.5424527E-03 -0.4230499E-02
  0.2000000E+01 -0.3074646E-02  0.2344131E-02  0.5726309E+05  0.4313123E+05 -0.2746582E-03 -0.4367828E-02
Zone t="Motion of body    1 in DoF   3",I=    64,F=POINT
  0.5000000E-01  0.1480836E+04  0.2057034E-03 -0.1101494E-01 -0.3551431E-04  0.3008439E+04  0.4614843E-05
  0.8095238E-01  0.1478638E+04  0.8936782E-03 -0.3166058E-02 -0.2352642E-04  0.3028700E+04  0.2117016E-04
  0.1119048E+00  0.1481818E+04  0.2516848E-02 -0.6685663E-02 -0.5117691E-04  0.3011754E+04  0.7199895E-04
  0.1428571E+00  0.1501361E+04  0.5692389E-02 -0.9883404E-02 -0.1020444E-03  0.3023759E+04  0.1368839E-03
  0.1738095E+00  0.1498543E+04  0.1137262E-01 -0.5895667E-02 -0.9094275E-04  0.3015182E+04  0.2989703E-03
  0.2047619E+00  0.1514052E+04  0.2112678E-01 -0.1743760E-01 -0.2960978E-03  0.3011127E+04  0.5553652E-03
  0.2357143E+00  0.1521058E+04  0.3739624E-01 -0.1581539E-01 -0.3264053E-03  0.3020355E+04  0.9642275E-03
  0.2666667E+00  0.1523042E+04  0.6424975E-01 -0.9924172E-02 -0.2532249E-03  0.3006357E+04  0.1650419E-02
  0.2976190E+00  0.1545289E+04  0.1086409E+00 -0.1182404E-01 -0.4087510E-03  0.3015724E+04  0.2764041E-02
  0.3285715E+00  0.1566008E+04  0.1812770E+00 -0.7296851E-02 -0.3330270E-03  0.3017081E+04  0.4671801E-02
  0.3595238E+00  0.1573410E+04  0.3004555E+00 -0.9310639E-02 -0.4888374E-03  0.3021086E+04  0.7877362E-02
  0.3904762E+00  0.1614287E+04  0.4952967E+00 -0.1016012E-01 -0.5805282E-03  0.3022228E+04  0.1316879E-01
  0.4214286E+00  0.1634296E+04  0.8058801E+00 -0.1675492E-01 -0.1275375E-02  0.3022726E+04  0.2160151E-01
  0.4523810E+00  0.1630271E+04  0.1298631E+01 -0.2150284E-02 -0.2673310E-03  0.3026716E+04  0.3514794E-01
  0.4833333E+00  0.1672609E+04  0.2046006E+01 -0.1333829E-01 -0.1497271E-02  0.3017133E+04  0.5631456E-01
  0.5142857E+00  0.1713892E+04  0.3171854E+01 -0.8930631E-02 -0.1097735E-02  0.3034235E+04  0.8840567E-01
  0.5452381E+00  0.1742392E+04  0.4801500E+01 -0.1317420E-01 -0.2014847E-02  0.3026164E+04  0.1357010E+00
  0.5761905E+00  0.1744095E+04  0.7104503E+01 -0.7842040E-02 -0.1241228E-02  0.3028616E+04  0.2029896E+00
  0.6071429E+00  0.1789693E+04  0.1031440E+02 -0.1740713E-01 -0.3757548E-02  0.3038308E+04  0.2992240E+00
  0.6380953E+00  0.1850947E+04  0.1466929E+02 -0.1742363E-01 -0.4278179E-02  0.3031007E+04  0.4332183E+00
  0.6690477E+00  0.1897470E+04  0.2053062E+02 -0.1273186E-01 -0.3446866E-02  0.3043596E+04  0.6153350E+00
  0.7000000E+00  0.1912792E+04  0.2828707E+02 -0.1073565E-01 -0.3487855E-02  0.3045744E+04  0.8596401E+00
  0.7309524E+00  0.1960840E+04  0.3836158E+02 -0.8603198E-02 -0.2940893E-02  0.3038044E+04  0.1182655E+01
  0.7619048E+00  0.2017723E+04  0.5139289E+02 -0.6363630E-02 -0.2178475E-02  0.3042525E+04  0.1611590E+01
  0.7928572E+00  0.2079616E+04  0.6802630E+02 -0.7948316E-02 -0.3540620E-02  0.3055947E+04  0.2173845E+01
  0.8238096E+00  0.2157861E+04  0.8902463E+02 -0.1328507E-01 -0.6102100E-02  0.3060940E+04  0.2902425E+01
  0.8547620E+00  0.2217450E+04  0.1153575E+03 -0.4288825E-02 -0.2251744E-02  0.3054247E+04  0.3826089E+01
  0.8857143E+00  0.2258291E+04  0.1481892E+03 -0.5237210E-02 -0.2272129E-02  0.3060997E+04  0.4993104E+01
  0.9166667E+00  0.2316188E+04  0.1881473E+03 -0.8019187E-02 -0.4824191E-02  0.3071578E+04  0.6444403E+01
  0.9476191E+00  0.2396623E+04  0.2364245E+03 -0.7914251E-02 -0.4631341E-02  0.3075464E+04  0.8263804E+01
  0.9785714E+00  0.2484618E+04  0.2946735E+03 -0.8225267E-02 -0.6028116E-02  0.3069262E+04  0.1048832E+02
  0.1009524E+01  0.2570495E+04  0.3645890E+03 -0.3355494E-02 -0.2107024E-02  0.3078967E+04  0.1327650E+02
  0.1040476E+01  0.2654041E+04  0.4475699E+03 -0.8252840E-02 -0.5706429E-02  0.3097611E+04  0.1664354E+02
  0.1071429E+01  0.2724557E+04  0.5451742E+03 -0.7448324E-02 -0.6275535E-02  0.3103825E+04  0.2069735E+02
  0.1102381E+01  0.2787019E+04  0.6593382E+03 -0.4318600E-02 -0.4200816E-02  0.3100478E+04  0.2556653E+02
  0.1133333E+01  0.2851860E+04  0.7900599E+03 -0.6809235E-02 -0.6847382E-02  0.3096610E+04  0.3119947E+02
  0.1164286E+01  0.2917115E+04  0.9394919E+03 -0.5979479E-02 -0.5611777E-02  0.3104018E+04  0.3763525E+02
  0.1195238E+01  0.2976743E+04  0.1107843E+04 -0.8323639E-02 -0.1101136E-01  0.3120544E+04  0.4549638E+02
  0.1226190E+01  0.3031593E+04  0.1296313E+04  0.1854165E-02  0.2490282E-02  0.3128428E+04  0.5440869E+02
  0.1257143E+01  0.3076396E+04  0.1506870E+04 -0.7319017E-02 -0.1336646E-01  0.3135772E+04  0.6470187E+02
  0.1288095E+01  0.3126393E+04  0.1734866E+04 -0.4557753E-02 -0.4933357E-02  0.3133828E+04  0.7563470E+02
  0.1319048E+01  0.3151908E+04  0.1983370E+04 -0.6050082E-02 -0.8115530E-02  0.3133863E+04  0.8822858E+02
  0.1350000E+01  0.3165756E+04  0.2251262E+04 -0.5171034E-02 -0.6660700E-02  0.3140868E+04  0.1019019E+03
  0.1380952E+01  0.3160438E+04  0.2534793E+04 -0.7618608E-02 -0.1051188E-01  0.3155654E+04  0.1184814E+03
  0.1411905E+01  0.2966824E+04  0.2729936E+04 -0.3823060E-02 -0.6016731E-02  0.3139561E+04  0.1303732E+03
  0.1442857E+01  0.2939643E+04  0.3029004E+04 -0.6242129E-02 -0.1603079E-01  0.3144508E+04  0.1476591E+03
  0.1473810E+01  0.2904572E+04  0.3337538E+04 -0.1123333E-02 -0.3991127E-02  0.3135988E+04  0.1654879E+03
  0.1504762E+01  0.2854418E+04  0.3649826E+04 -0.3462924E-02 -0.5425930E-02  0.3127829E+04  0.1823452E+03
  0.1535714E+01  0.2789217E+04  0.3968851E+04 -0.2434309E-02 -0.4835606E-02  0.3125791E+04  0.2023722E+03
  0.1566667E+01  0.2710783E+04  0.4294826E+04 -0.4012737E-02 -0.4996777E-02  0.3133175E+04  0.2247663E+03
  0.1597619E+01  0.2619149E+04  0.4612067E+04 -0.3089734E-02 -0.1480103E-02  0.3148428E+04  0.2506412E+03
  0.1628572E+01  0.2520658E+04  0.4924526E+04 -0.2122176E-02  0.1939297E-02  0.3153056E+04  0.2751568E+03
  0.1659524E+01  0.2416866E+04  0.5225261E+04 -0.3130788E-02 -0.9217739E-02  0.3156448E+04  0.2990662E+03
  0.1690476E+01  0.2301273E+04  0.5520926E+04 -0.4287505E-02 -0.1373196E-01  0.3145724E+04  0.3201212E+03
  0.1721429E+01  0.2181515E+04  0.5805553E+04 -0.4671342E-02 -0.1297426E-01  0.3130018E+04  0.3372927E+03
  0.1752381E+01  0.2048702E+04  0.6080014E+04 -0.2485980E-02 -0.7767677E-02  0.3116337E+04  0.3564084E+03
  0.1783333E+01  0.1919017E+04  0.6345352E+04 -0.1108045E-02 -0.8997917E-02  0.3111673E+04  0.3796005E+03
  0.1814286E+01  0.1784582E+04  0.6605040E+04 -0.2539928E-02 -0.7616997E-02  0.3115887E+04  0.4086911E+03
  0.1845238E+01  0.1648644E+04  0.6837020E+04 -0.2414630E-02 -0.3550529E-02  0.3127274E+04  0.4441488E+03
  0.1876190E+01  0.1510245E+04  0.7058729E+04 -0.2744839E-02 -0.7936478E-02  0.3125938E+04  0.4740891E+03
  0.1907143E+01  0.1377291E+04  0.7260424E+04 -0.3936425E-02 -0.1957893E-02  0.3125250E+04  0.5005082E+03
  0.1938095E+01  0.1247257E+04  0.7452514E+04 -0.1649411E-02 -0.7596970E-02  0.3116769E+04  0.5206154E+03
  0.1969048E+01  0.1123452E+04  0.7637637E+04 -0.3735175E-02 -0.2242088E-02  0.3095858E+04  0.5265598E+03
  0.2000000E+01  0.9987519E+03  0.7804989E+04 -0.3017426E-02  0.1846313E-02  0.3082157E+04  0.5348394E+03
