VARIABLES="w (rad/s)"
"abs(F   1   1)" "angle(F   1   1)"
"abs(F   1   2)" "angle(F   1   2)"
"abs(F   1   3)" "angle(F   1   3)"
Zone t="Diffraction force - beta =   0.000 deg",I=    64,F=POINT
  0.5000000E-01  0.1859591E+04 -0.1570808E+01  0.2754647E+06 -0.1832328E-04  0.1262946E+04  0.1570805E+01
  0.8095238E-01  0.3033922E+04 -0.1570782E+01  0.2749598E+06 -0.4929017E-04  0.2060478E+04  0.1570792E+01
  0.1119048E+00  0.4237772E+04 -0.1570794E+01  0.2742185E+06 -0.9786559E-04  0.2879379E+04  0.1570809E+01
  0.1428571E+00  0.5490394E+04 -0.1570795E+01  0.2732408E+06 -0.1677986E-03  0.3730877E+04  0.1570801E+01
  0.1738095E+00  0.6794818E+04 -0.1570791E+01  0.2720252E+06 -0.2646917E-03  0.4622447E+04  0.1570803E+01
  0.2047619E+00  0.8175508E+04 -0.1570785E+01  0.2705677E+06 -0.3966942E-03  0.5563244E+04  0.1570806E+01
  0.2357143E+00  0.9646742E+04 -0.1570783E+01  0.2688768E+06 -0.5758542E-03  0.6570139E+04  0.1570815E+01
  0.2666667E+00  0.1122197E+05 -0.1570774E+01  0.2669386E+06 -0.8167110E-03  0.7650068E+04  0.1570822E+01
  0.2976190E+00  0.1296937E+05 -0.1570762E+01  0.2647663E+06 -0.1144236E-02  0.8846340E+04  0.1570833E+01
  0.3285715E+00  0.1485338E+05 -0.1570742E+01  0.2623440E+06 -0.1583461E-02  0.1014092E+05  0.1570847E+01
  0.3595238E+00  0.1693601E+05 -0.1570717E+01  0.2596997E+06 -0.2174764E-02  0.1158494E+05  0.1570876E+01
  0.3904762E+00  0.1926343E+05 -0.1570677E+01  0.2567992E+06 -0.2962552E-02  0.1318870E+05  0.1570915E+01
  0.4214286E+00  0.2187670E+05 -0.1570619E+01  0.2537157E+06 -0.3976765E-02  0.1499012E+05  0.1570973E+01
  0.4523810E+00  0.2470911E+05 -0.1570534E+01  0.2503883E+06 -0.5294371E-02  0.1696050E+05  0.1571060E+01
  0.4833333E+00  0.2783996E+05 -0.1570412E+01  0.2469033E+06 -0.6881106E-02  0.1913124E+05  0.1571181E+01
  0.5142857E+00  0.3128671E+05 -0.1570243E+01  0.2432306E+06 -0.8829906E-02  0.2153343E+05  0.1571350E+01
  0.5452381E+00  0.3498413E+05 -0.1570012E+01  0.2393762E+06 -0.1111029E-01  0.2410685E+05  0.1571581E+01
  0.5761905E+00  0.3892393E+05 -0.1569711E+01  0.2354140E+06 -0.1373233E-01  0.2688043E+05  0.1571883E+01
  0.6071429E+00  0.4306629E+05 -0.1569313E+01  0.2312745E+06 -0.1677321E-01  0.2980397E+05  0.1572281E+01
  0.6380953E+00  0.4751889E+05 -0.1568810E+01  0.2270205E+06 -0.2015433E-01  0.3290888E+05  0.1572782E+01
  0.6690477E+00  0.5221954E+05 -0.1568176E+01  0.2226716E+06 -0.2396373E-01  0.3624965E+05  0.1573417E+01
  0.7000000E+00  0.5705196E+05 -0.1567383E+01  0.2181804E+06 -0.2823688E-01  0.3967186E+05  0.1574210E+01
  0.7309524E+00  0.6207823E+05 -0.1566410E+01  0.2136077E+06 -0.3293646E-01  0.4324914E+05  0.1575185E+01
  0.7619048E+00  0.6737331E+05 -0.1565221E+01  0.2089962E+06 -0.3812856E-01  0.4705599E+05  0.1576373E+01
  0.7928572E+00  0.7289767E+05 -0.1563781E+01  0.2042870E+06 -0.4382410E-01  0.5100001E+05  0.1577813E+01
  0.8238096E+00  0.7864101E+05 -0.1562052E+01  0.1994612E+06 -0.5002594E-01  0.5514922E+05  0.1579543E+01
  0.8547620E+00  0.8459859E+05 -0.1559996E+01  0.1947151E+06 -0.5676598E-01  0.5937095E+05  0.1581602E+01
  0.8857143E+00  0.9076202E+05 -0.1557564E+01  0.1899130E+06 -0.6405715E-01  0.6387580E+05  0.1584035E+01
  0.9166667E+00  0.9703865E+05 -0.1554710E+01  0.1850475E+06 -0.7188518E-01  0.6844679E+05  0.1586891E+01
  0.9476191E+00  0.1035056E+06 -0.1551384E+01  0.1801248E+06 -0.8026684E-01  0.7321631E+05  0.1590222E+01
  0.9785714E+00  0.1102699E+06 -0.1547531E+01  0.1753138E+06 -0.8924398E-01  0.7810097E+05  0.1594075E+01
  0.1009524E+01  0.1173710E+06 -0.1543093E+01  0.1705135E+06 -0.9882413E-01  0.8331126E+05  0.1598516E+01
  0.1040476E+01  0.1245664E+06 -0.1538006E+01  0.1657056E+06 -0.1089921E+00  0.8862438E+05  0.1603611E+01
  0.1071429E+01  0.1319116E+06 -0.1532213E+01  0.1608877E+06 -0.1197376E+00  0.9401961E+05  0.1609413E+01
  0.1102381E+01  0.1393729E+06 -0.1525649E+01  0.1560530E+06 -0.1310749E+00  0.9957974E+05  0.1615987E+01
  0.1133333E+01  0.1469893E+06 -0.1518265E+01  0.1514289E+06 -0.1430382E+00  0.1051601E+06  0.1623386E+01
  0.1164286E+01  0.1547899E+06 -0.1509991E+01  0.1468133E+06 -0.1556684E+00  0.1110480E+06  0.1631678E+01
  0.1195238E+01  0.1626093E+06 -0.1500778E+01  0.1422298E+06 -0.1689452E+00  0.1169542E+06  0.1640910E+01
  0.1226190E+01  0.1705529E+06 -0.1490588E+01  0.1376693E+06 -0.1828674E+00  0.1228938E+06  0.1651111E+01
  0.1257143E+01  0.1784945E+06 -0.1479378E+01  0.1331241E+06 -0.1975974E+00  0.1288874E+06  0.1662334E+01
  0.1288095E+01  0.1867421E+06 -0.1467027E+01  0.1287242E+06 -0.2126872E+00  0.1350600E+06  0.1674708E+01
  0.1319048E+01  0.1948196E+06 -0.1453628E+01  0.1244901E+06 -0.2285611E+00  0.1410570E+06  0.1688144E+01
  0.1350000E+01  0.2028636E+06 -0.1439111E+01  0.1202950E+06 -0.2452397E+00  0.1472201E+06  0.1702717E+01
  0.1380952E+01  0.2105587E+06 -0.1423499E+01  0.1161471E+06 -0.2626280E+00  0.1531039E+06  0.1718380E+01
  0.1411905E+01  0.2177064E+06 -0.1406818E+01  0.1120745E+06 -0.2807298E+00  0.1586343E+06  0.1735137E+01
  0.1442857E+01  0.2247639E+06 -0.1389224E+01  0.1080332E+06 -0.2997140E+00  0.1641536E+06  0.1752817E+01
  0.1473810E+01  0.2313902E+06 -0.1370779E+01  0.1040898E+06 -0.3194665E+00  0.1693571E+06  0.1771355E+01
  0.1504762E+01  0.2375283E+06 -0.1351662E+01  0.1004058E+06 -0.3398087E+00  0.1740030E+06  0.1790548E+01
  0.1535714E+01  0.2432841E+06 -0.1331992E+01  0.9680237E+05 -0.3609946E+00  0.1784525E+06  0.1810284E+01
  0.1566667E+01  0.2485922E+06 -0.1311818E+01  0.9327591E+05 -0.3832212E+00  0.1826760E+06  0.1830528E+01
  0.1597619E+01  0.2530622E+06 -0.1291441E+01  0.8983638E+05 -0.4062730E+00  0.1861876E+06  0.1850973E+01
  0.1628572E+01  0.2567102E+06 -0.1271083E+01  0.8648337E+05 -0.4301490E+00  0.1890691E+06  0.1871491E+01
  0.1659524E+01  0.2596262E+06 -0.1250957E+01  0.8320826E+05 -0.4550960E+00  0.1915082E+06  0.1891803E+01
  0.1690476E+01  0.2616614E+06 -0.1231272E+01  0.8001333E+05 -0.4810422E+00  0.1932889E+06  0.1911708E+01
  0.1721429E+01  0.2628691E+06 -0.1212505E+01  0.7710034E+05 -0.5072111E+00  0.1942469E+06  0.1930590E+01
  0.1752381E+01  0.2632876E+06 -0.1194757E+01  0.7433331E+05 -0.5339435E+00  0.1945448E+06  0.1948445E+01
  0.1783333E+01  0.2631026E+06 -0.1178138E+01  0.7166064E+05 -0.5616714E+00  0.1946349E+06  0.1965247E+01
  0.1814286E+01  0.2621679E+06 -0.1162910E+01  0.6910324E+05 -0.5900744E+00  0.1941692E+06  0.1980725E+01
  0.1845238E+01  0.2604199E+06 -0.1149362E+01  0.6665970E+05 -0.6189924E+00  0.1929885E+06  0.1994482E+01
  0.1876190E+01  0.2579600E+06 -0.1137657E+01  0.6432106E+05 -0.6483378E+00  0.1911999E+06  0.2006385E+01
  0.1907143E+01  0.2549670E+06 -0.1127786E+01  0.6207725E+05 -0.6780742E+00  0.1890924E+06  0.2016646E+01
  0.1938095E+01  0.2514675E+06 -0.1119916E+01  0.5992585E+05 -0.7079172E+00  0.1866163E+06  0.2024904E+01
  0.1969048E+01  0.2475538E+06 -0.1114223E+01  0.5793262E+05 -0.7368703E+00  0.1837091E+06  0.2030859E+01
  0.2000000E+01  0.2433091E+06 -0.1110842E+01  0.5612150E+05 -0.7640417E+00  0.1803740E+06  0.2034276E+01
