VARIABLES="w (rad/s)"
"abs(F   1   1)" "angle(F   1   1)"
"abs(F   1   2)" "angle(F   1   2)"
"abs(F   1   3)" "angle(F   1   3)"
Zone t="Diffraction force - beta =   0.000 deg",I=    64,F=POINT
  0.5000000E-01  0.2198696E+04 -0.1570789E+01  0.2467521E+06 -0.1678461E-04  0.2309311E+04  0.1570787E+01
  0.8095238E-01  0.3585792E+04 -0.1570794E+01  0.2462719E+06 -0.4514417E-04  0.3762521E+04  0.1570804E+01
  0.1119048E+00  0.5019253E+04 -0.1570799E+01  0.2455683E+06 -0.8961586E-04  0.5264923E+04  0.1570796E+01
  0.1428571E+00  0.6498412E+04 -0.1570792E+01  0.2446391E+06 -0.1536240E-03  0.6816096E+04  0.1570800E+01
  0.1738095E+00  0.8042516E+04 -0.1570789E+01  0.2434829E+06 -0.2422619E-03  0.8436842E+04  0.1570804E+01
  0.2047619E+00  0.9672775E+04 -0.1570786E+01  0.2421051E+06 -0.3629689E-03  0.1015039E+05  0.1570811E+01
  0.2357143E+00  0.1141175E+05 -0.1570780E+01  0.2404979E+06 -0.5266877E-03  0.1196802E+05  0.1570814E+01
  0.2666667E+00  0.1329208E+05 -0.1570769E+01  0.2386658E+06 -0.7466368E-03  0.1393945E+05  0.1570827E+01
  0.2976190E+00  0.1532251E+05 -0.1570755E+01  0.2366071E+06 -0.1045545E-02  0.1606998E+05  0.1570835E+01
  0.3285715E+00  0.1756841E+05 -0.1570736E+01  0.2343257E+06 -0.1446113E-02  0.1842390E+05  0.1570858E+01
  0.3595238E+00  0.2004377E+05 -0.1570706E+01  0.2318212E+06 -0.1984837E-02  0.2100564E+05  0.1570890E+01
  0.3904762E+00  0.2277919E+05 -0.1570657E+01  0.2291089E+06 -0.2702095E-02  0.2388898E+05  0.1570933E+01
  0.4214286E+00  0.2583510E+05 -0.1570590E+01  0.2261799E+06 -0.3624074E-02  0.2707159E+05  0.1571003E+01
  0.4523810E+00  0.2923106E+05 -0.1570490E+01  0.2230856E+06 -0.4822706E-02  0.3062661E+05  0.1571104E+01
  0.4833333E+00  0.3290675E+05 -0.1570348E+01  0.2197835E+06 -0.6262073E-02  0.3448088E+05  0.1571245E+01
  0.5142857E+00  0.3694823E+05 -0.1570149E+01  0.2163601E+06 -0.8029495E-02  0.3870678E+05  0.1571444E+01
  0.5452381E+00  0.4132867E+05 -0.1569882E+01  0.2127676E+06 -0.1009644E-01  0.4326911E+05  0.1571711E+01
  0.5761905E+00  0.4596998E+05 -0.1569529E+01  0.2090183E+06 -0.1246525E-01  0.4811171E+05  0.1572064E+01
  0.6071429E+00  0.5093886E+05 -0.1569065E+01  0.2051978E+06 -0.1521723E-01  0.5331696E+05  0.1572526E+01
  0.6380953E+00  0.5610699E+05 -0.1568480E+01  0.2012086E+06 -0.1826727E-01  0.5872972E+05  0.1573112E+01
  0.6690477E+00  0.6159592E+05 -0.1567740E+01  0.1971196E+06 -0.2169479E-01  0.6441757E+05  0.1573852E+01
  0.7000000E+00  0.6741801E+05 -0.1566815E+01  0.1929894E+06 -0.2554883E-01  0.7048250E+05  0.1574778E+01
  0.7309524E+00  0.7339330E+05 -0.1565678E+01  0.1887290E+06 -0.2977764E-01  0.7669585E+05  0.1575915E+01
  0.7619048E+00  0.7960845E+05 -0.1564288E+01  0.1843612E+06 -0.3443021E-01  0.8317344E+05  0.1577306E+01
  0.7928572E+00  0.8612628E+05 -0.1562606E+01  0.1800354E+06 -0.3954269E-01  0.8993778E+05  0.1578987E+01
  0.8238096E+00  0.9292771E+05 -0.1560586E+01  0.1756272E+06 -0.4511971E-01  0.9704950E+05  0.1581008E+01
  0.8547620E+00  0.9996910E+05 -0.1558177E+01  0.1711345E+06 -0.5115017E-01  0.1042782E+06  0.1583416E+01
  0.8857143E+00  0.1072640E+06 -0.1555327E+01  0.1666288E+06 -0.5765473E-01  0.1118082E+06  0.1586267E+01
  0.9166667E+00  0.1148777E+06 -0.1551978E+01  0.1621760E+06 -0.6466135E-01  0.1196414E+06  0.1589618E+01
  0.9476191E+00  0.1227135E+06 -0.1548066E+01  0.1576904E+06 -0.7218406E-01  0.1277848E+06  0.1593530E+01
  0.9785714E+00  0.1307058E+06 -0.1543530E+01  0.1531708E+06 -0.8020016E-01  0.1360320E+06  0.1598068E+01
  0.1009524E+01  0.1389384E+06 -0.1538296E+01  0.1486069E+06 -0.8872294E-01  0.1445596E+06  0.1603304E+01
  0.1040476E+01  0.1475341E+06 -0.1532300E+01  0.1442231E+06 -0.9778035E-01  0.1532771E+06  0.1609301E+01
  0.1071429E+01  0.1565550E+06 -0.1525442E+01  0.1398273E+06 -0.1074046E+00  0.1625030E+06  0.1616160E+01
  0.1102381E+01  0.1656384E+06 -0.1517652E+01  0.1354429E+06 -0.1175655E+00  0.1717925E+06  0.1623953E+01
  0.1133333E+01  0.1748813E+06 -0.1508858E+01  0.1310620E+06 -0.1282659E+00  0.1811616E+06  0.1632750E+01
  0.1164286E+01  0.1842622E+06 -0.1498964E+01  0.1266663E+06 -0.1395264E+00  0.1907432E+06  0.1642652E+01
  0.1195238E+01  0.1938555E+06 -0.1487932E+01  0.1224980E+06 -0.1513465E+00  0.2003577E+06  0.1653687E+01
  0.1226190E+01  0.2036676E+06 -0.1475668E+01  0.1183614E+06 -0.1637972E+00  0.2103333E+06  0.1665959E+01
  0.1257143E+01  0.2132356E+06 -0.1462203E+01  0.1142645E+06 -0.1770168E+00  0.2201028E+06  0.1679433E+01
  0.1288095E+01  0.2232248E+06 -0.1447257E+01  0.1102088E+06 -0.1906039E+00  0.2301149E+06  0.1694388E+01
  0.1319048E+01  0.2329978E+06 -0.1431020E+01  0.1061832E+06 -0.2049791E+00  0.2398167E+06  0.1710636E+01
  0.1350000E+01  0.2427235E+06 -0.1413337E+01  0.1022104E+06 -0.2200030E+00  0.2494030E+06  0.1728322E+01
  0.1380952E+01  0.2522940E+06 -0.1394267E+01  0.9847963E+05 -0.2355155E+00  0.2586956E+06  0.1747400E+01
  0.1411905E+01  0.2612616E+06 -0.1373855E+01  0.9481655E+05 -0.2517889E+00  0.2676606E+06  0.1767832E+01
  0.1442857E+01  0.2701827E+06 -0.1352155E+01  0.9121066E+05 -0.2689183E+00  0.2764856E+06  0.1789562E+01
  0.1473810E+01  0.2783665E+06 -0.1329297E+01  0.8767469E+05 -0.2867992E+00  0.2844292E+06  0.1812453E+01
  0.1504762E+01  0.2858341E+06 -0.1305525E+01  0.8420194E+05 -0.3054759E+00  0.2914804E+06  0.1836247E+01
  0.1535714E+01  0.2925342E+06 -0.1280905E+01  0.8078039E+05 -0.3251675E+00  0.2978711E+06  0.1860923E+01
  0.1566667E+01  0.2984302E+06 -0.1255703E+01  0.7750939E+05 -0.3455482E+00  0.3033086E+06  0.1886149E+01
  0.1597619E+01  0.3033826E+06 -0.1230317E+01  0.7446184E+05 -0.3662524E+00  0.3076272E+06  0.1911557E+01
  0.1628572E+01  0.3075172E+06 -0.1204810E+01  0.7149727E+05 -0.3879292E+00  0.3112058E+06  0.1937112E+01
  0.1659524E+01  0.3107122E+06 -0.1179413E+01  0.6862659E+05 -0.4106108E+00  0.3138486E+06  0.1962555E+01
  0.1690476E+01  0.3126292E+06 -0.1154564E+01  0.6584747E+05 -0.4341414E+00  0.3150024E+06  0.1987444E+01
  0.1721429E+01  0.3133852E+06 -0.1130592E+01  0.6315838E+05 -0.4585419E+00  0.3148766E+06  0.2011438E+01
  0.1752381E+01  0.3131344E+06 -0.1107736E+01  0.6055522E+05 -0.4839883E+00  0.3138537E+06  0.2034369E+01
  0.1783333E+01  0.3118098E+06 -0.1086234E+01  0.5803952E+05 -0.5103805E+00  0.3117800E+06  0.2055987E+01
  0.1814286E+01  0.3095669E+06 -0.1066444E+01  0.5573569E+05 -0.5365387E+00  0.3086437E+06  0.2075813E+01
  0.1845238E+01  0.3065073E+06 -0.1048595E+01  0.5360601E+05 -0.5624810E+00  0.3045792E+06  0.2093644E+01
  0.1876190E+01  0.3027995E+06 -0.1032619E+01  0.5156571E+05 -0.5888934E+00  0.3000278E+06  0.2109704E+01
  0.1907143E+01  0.2986022E+06 -0.1018541E+01  0.4963145E+05 -0.6155699E+00  0.2951541E+06  0.2123951E+01
  0.1938095E+01  0.2936101E+06 -0.1006869E+01  0.4778858E+05 -0.6420338E+00  0.2893141E+06  0.2135712E+01
  0.1969048E+01  0.2881359E+06 -0.9975302E+00  0.4602747E+05 -0.6681998E+00  0.2829693E+06  0.2145128E+01
  0.2000000E+01  0.2822332E+06 -0.9906508E+00  0.4432893E+05 -0.6939316E+00  0.2761398E+06  0.2152053E+01
