VARIABLES="w (rad/s)"
"abs(F   1   1)" "angle(F   1   1)"
"abs(F   1   2)" "angle(F   1   2)"
"abs(F   1   3)" "angle(F   1   3)"
Zone t="Diffraction force - beta =   0.000 deg",I=    64,F=POINT
  0.5000000E-01  0.1321008E+04 -0.1570795E+01  0.2429290E+03 -0.3091468E+01  0.5447258E+03  0.1570796E+01
  0.8095238E-01  0.2161885E+04 -0.1570793E+01  0.6299449E+03 -0.3089682E+01  0.8999788E+03  0.1570797E+01
  0.1119048E+00  0.3019468E+04 -0.1570789E+01  0.1196629E+04 -0.3087466E+01  0.1250829E+04  0.1570797E+01
  0.1428571E+00  0.3900357E+04 -0.1570784E+01  0.1945100E+04 -0.3084695E+01  0.1616448E+04  0.1570797E+01
  0.1738095E+00  0.4820368E+04 -0.1570776E+01  0.2878155E+04 -0.3081184E+01  0.1986511E+04  0.1570798E+01
  0.2047619E+00  0.5781331E+04 -0.1570764E+01  0.4002256E+04 -0.3076816E+01  0.2382558E+04  0.1570798E+01
  0.2357143E+00  0.6808566E+04 -0.1570747E+01  0.5320098E+04 -0.3071273E+01  0.2782510E+04  0.1570799E+01
  0.2666667E+00  0.7901987E+04 -0.1570722E+01  0.6840503E+04 -0.3064549E+01  0.3221282E+04  0.1570800E+01
  0.2976190E+00  0.9079680E+04 -0.1570685E+01  0.8568809E+04 -0.3056094E+01  0.3693683E+04  0.1570801E+01
  0.3285715E+00  0.1037502E+05 -0.1570630E+01  0.1051251E+05 -0.3045978E+01  0.4175137E+04  0.1570801E+01
  0.3595238E+00  0.1179034E+05 -0.1570548E+01  0.1266703E+05 -0.3033660E+01  0.4714787E+04  0.1570802E+01
  0.3904762E+00  0.1333161E+05 -0.1570424E+01  0.1505004E+05 -0.3019131E+01  0.5319237E+04  0.1570802E+01
  0.4214286E+00  0.1504453E+05 -0.1570244E+01  0.1761704E+05 -0.3002777E+01  0.5949729E+04  0.1570798E+01
  0.4523810E+00  0.1693588E+05 -0.1569980E+01  0.2039553E+05 -0.2983918E+01  0.6603120E+04  0.1570789E+01
  0.4833333E+00  0.1897210E+05 -0.1569613E+01  0.2333026E+05 -0.2964768E+01  0.7348688E+04  0.1570772E+01
  0.5142857E+00  0.2116033E+05 -0.1569103E+01  0.2642806E+05 -0.2944076E+01  0.8141661E+04  0.1570742E+01
  0.5452381E+00  0.2351336E+05 -0.1568425E+01  0.2966589E+05 -0.2923401E+01  0.8927494E+04  0.1570684E+01
  0.5761905E+00  0.2599698E+05 -0.1567543E+01  0.3301947E+05 -0.2903015E+01  0.9741792E+04  0.1570590E+01
  0.6071429E+00  0.2858564E+05 -0.1566404E+01  0.3648638E+05 -0.2882150E+01  0.1060050E+05  0.1570451E+01
  0.6380953E+00  0.3126200E+05 -0.1564983E+01  0.4009153E+05 -0.2862665E+01  0.1149501E+05  0.1570249E+01
  0.6690477E+00  0.3402268E+05 -0.1563221E+01  0.4377178E+05 -0.2843233E+01  0.1235688E+05  0.1569945E+01
  0.7000000E+00  0.3688621E+05 -0.1561062E+01  0.4752116E+05 -0.2823701E+01  0.1316309E+05  0.1569490E+01
  0.7309524E+00  0.3981577E+05 -0.1558464E+01  0.5136041E+05 -0.2805032E+01  0.1398458E+05  0.1568870E+01
  0.7619048E+00  0.4277277E+05 -0.1555351E+01  0.5525636E+05 -0.2786753E+01  0.1483218E+05  0.1568053E+01
  0.7928572E+00  0.4576602E+05 -0.1551666E+01  0.5919989E+05 -0.2768855E+01  0.1567448E+05  0.1566975E+01
  0.8238096E+00  0.4878962E+05 -0.1547352E+01  0.6318159E+05 -0.2751406E+01  0.1646722E+05  0.1565532E+01
  0.8547620E+00  0.5184679E+05 -0.1542362E+01  0.6717956E+05 -0.2734419E+01  0.1720555E+05  0.1563634E+01
  0.8857143E+00  0.5490005E+05 -0.1536624E+01  0.7117769E+05 -0.2717910E+01  0.1787147E+05  0.1561139E+01
  0.9166667E+00  0.5794095E+05 -0.1530088E+01  0.7517301E+05 -0.2701999E+01  0.1853239E+05  0.1558025E+01
  0.9476191E+00  0.6093323E+05 -0.1522698E+01  0.7914899E+05 -0.2686683E+01  0.1918049E+05  0.1554181E+01
  0.9785714E+00  0.6385203E+05 -0.1514406E+01  0.8309810E+05 -0.2672016E+01  0.1983704E+05  0.1549554E+01
  0.1009524E+01  0.6665684E+05 -0.1505175E+01  0.8700595E+05 -0.2657919E+01  0.2044306E+05  0.1543912E+01
  0.1040476E+01  0.6937676E+05 -0.1495027E+01  0.9087022E+05 -0.2644475E+01  0.2100606E+05  0.1537139E+01
  0.1071429E+01  0.7194853E+05 -0.1483929E+01  0.9466511E+05 -0.2631574E+01  0.2149236E+05  0.1528959E+01
  0.1102381E+01  0.7436016E+05 -0.1471907E+01  0.9839166E+05 -0.2619371E+01  0.2192624E+05  0.1519273E+01
  0.1133333E+01  0.7658134E+05 -0.1458969E+01  0.1020392E+06 -0.2607880E+01  0.2239019E+05  0.1508333E+01
  0.1164286E+01  0.7852068E+05 -0.1445091E+01  0.1055934E+06 -0.2597024E+01  0.2284636E+05  0.1495924E+01
  0.1195238E+01  0.8020761E+05 -0.1430396E+01  0.1090627E+06 -0.2587032E+01  0.2335236E+05  0.1482433E+01
  0.1226190E+01  0.8155686E+05 -0.1414899E+01  0.1124388E+06 -0.2577845E+01  0.2388996E+05  0.1467883E+01
  0.1257143E+01  0.8254634E+05 -0.1398602E+01  0.1157424E+06 -0.2569187E+01  0.2449289E+05  0.1452678E+01
  0.1288095E+01  0.8318934E+05 -0.1382107E+01  0.1189008E+06 -0.2561887E+01  0.2509071E+05  0.1436813E+01
  0.1319048E+01  0.8341180E+05 -0.1365071E+01  0.1219632E+06 -0.2554867E+01  0.2579968E+05  0.1421375E+01
  0.1350000E+01  0.8318752E+05 -0.1347815E+01  0.1249058E+06 -0.2548499E+01  0.2653955E+05  0.1406154E+01
  0.1380952E+01  0.8254727E+05 -0.1330650E+01  0.1277272E+06 -0.2543028E+01  0.2737036E+05  0.1392243E+01
  0.1411905E+01  0.8126615E+05 -0.1314058E+01  0.1300437E+06 -0.2539146E+01  0.2839825E+05  0.1381811E+01
  0.1442857E+01  0.7971933E+05 -0.1297511E+01  0.1326205E+06 -0.2535304E+01  0.2941378E+05  0.1372009E+01
  0.1473810E+01  0.7768613E+05 -0.1281729E+01  0.1350928E+06 -0.2532244E+01  0.3050647E+05  0.1364753E+01
  0.1504762E+01  0.7519569E+05 -0.1267009E+01  0.1374540E+06 -0.2529907E+01  0.3173845E+05  0.1361231E+01
  0.1535714E+01  0.7222298E+05 -0.1253660E+01  0.1397003E+06 -0.2528175E+01  0.3306054E+05  0.1361125E+01
  0.1566667E+01  0.6880682E+05 -0.1242195E+01  0.1418462E+06 -0.2527224E+01  0.3449486E+05  0.1364953E+01
  0.1597619E+01  0.6497111E+05 -0.1233267E+01  0.1438850E+06 -0.2527009E+01  0.3602211E+05  0.1372569E+01
  0.1628572E+01  0.6071945E+05 -0.1227387E+01  0.1458369E+06 -0.2527428E+01  0.3765027E+05  0.1383998E+01
  0.1659524E+01  0.5610858E+05 -0.1225656E+01  0.1477083E+06 -0.2528371E+01  0.3938328E+05  0.1399255E+01
  0.1690476E+01  0.5114568E+05 -0.1229414E+01  0.1494992E+06 -0.2529880E+01  0.4117770E+05  0.1417634E+01
  0.1721429E+01  0.4589550E+05 -0.1240719E+01  0.1512173E+06 -0.2531822E+01  0.4305865E+05  0.1439203E+01
  0.1752381E+01  0.4042269E+05 -0.1262629E+01  0.1528762E+06 -0.2534122E+01  0.4505762E+05  0.1463894E+01
  0.1783333E+01  0.3475684E+05 -0.1300378E+01  0.1544668E+06 -0.2536536E+01  0.4710179E+05  0.1490716E+01
  0.1814286E+01  0.2904490E+05 -0.1363668E+01  0.1560099E+06 -0.2538956E+01  0.4924275E+05  0.1519878E+01
  0.1845238E+01  0.2343331E+05 -0.1470740E+01  0.1574894E+06 -0.2541332E+01  0.5143617E+05  0.1550703E+01
  0.1876190E+01  0.1826147E+05 -0.1656926E+01  0.1588835E+06 -0.2543351E+01  0.5371983E+05  0.1583059E+01
  0.1907143E+01  0.1429057E+05 -0.1983788E+01  0.1601726E+06 -0.2544909E+01  0.5609250E+05  0.1616567E+01
  0.1938095E+01  0.1291867E+05 -0.2471907E+01  0.1613301E+06 -0.2545785E+01  0.5854207E+05  0.1650945E+01
  0.1969048E+01  0.1502652E+05 -0.2941402E+01  0.1623082E+06 -0.2545914E+01  0.6102786E+05  0.1685753E+01
  0.2000000E+01  0.1958125E+05  0.3041641E+01  0.1630756E+06 -0.2545038E+01  0.6359598E+05  0.1721020E+01
