VARIABLES="w (rad/s)"
"A   1   1" "B   1   1"
"A   1   2" "B   1   2"
"A   1   3" "B   1   3"
Zone t="Motion of body    1 in DoF   1",I=    64,F=POINT
  0.5000000E-01  0.1153712E+06  0.1871455E-01 -0.5321503E-02 -0.2518135E-04  0.2622999E+04  0.5417146E-03
  0.8095238E-01  0.1157018E+06  0.8235497E-01 -0.3204346E-02  0.5508616E-04  0.2610851E+04  0.2367954E-02
  0.1119048E+00  0.1159800E+06  0.2310809E+00 -0.7601799E-02  0.1388427E-04  0.2592725E+04  0.6674263E-02
  0.1428571E+00  0.1158985E+06  0.5198317E+00  0.7076263E-02  0.1217540E-03  0.2608954E+04  0.1508107E-01
  0.1738095E+00  0.1163722E+06  0.1035224E+01 -0.6145320E-03  0.1259621E-03  0.2625230E+04  0.3019378E-01
  0.2047619E+00  0.1165440E+06  0.1908423E+01  0.2233727E-01  0.3778972E-03  0.2649414E+04  0.5599894E-01
  0.2357143E+00  0.1167801E+06  0.3359053E+01  0.1242898E-01  0.3358833E-03  0.2651385E+04  0.9911259E-01
  0.2666667E+00  0.1173568E+06  0.5732282E+01  0.1934051E-01  0.6760731E-03  0.2688896E+04  0.1705381E+00
  0.2976190E+00  0.1175592E+06  0.9603036E+01  0.2422485E-01  0.1184035E-02  0.2719625E+04  0.2884511E+00
  0.3285715E+00  0.1180285E+06  0.1587959E+02  0.9195078E-02  0.4034303E-03  0.2738782E+04  0.4811749E+00
  0.3595238E+00  0.1187804E+06  0.2607458E+02  0.4116841E-02  0.4426539E-03  0.2819157E+04  0.8017061E+00
  0.3904762E+00  0.1193078E+06  0.4247771E+02  0.4689286E-02  0.6747842E-03  0.2828804E+04  0.1317531E+01
  0.4214286E+00  0.1197029E+06  0.6822450E+02  0.9196652E-02  0.1023680E-02  0.2848498E+04  0.2139536E+01
  0.4523810E+00  0.1206727E+06  0.1087884E+03  0.3082918E-01  0.2874792E-02  0.2921509E+04  0.3460750E+01
  0.4833333E+00  0.1217054E+06  0.1691777E+03 -0.5998283E-03  0.1069546E-02  0.3000233E+04  0.5467720E+01
  0.5142857E+00  0.1224218E+06  0.2585047E+03  0.2165901E-02  0.2050936E-02  0.3025283E+04  0.8455017E+01
  0.5452381E+00  0.1232518E+06  0.3855764E+03 -0.5177327E-02  0.1488090E-02  0.3060341E+04  0.1277317E+02
  0.5761905E+00  0.1244907E+06  0.5620209E+03  0.8659678E-02  0.2883554E-02  0.3159131E+04  0.1895784E+02
  0.6071429E+00  0.1259788E+06  0.8044277E+03  0.4925895E-02  0.1765013E-02  0.3274951E+04  0.2764362E+02
  0.6380953E+00  0.1271930E+06  0.1124910E+04  0.1420434E-01  0.2801418E-02  0.3321878E+04  0.3921019E+02
  0.6690477E+00  0.1282394E+06  0.1544814E+04  0.1696821E-01  0.4853010E-02  0.3380453E+04  0.5472912E+02
  0.7000000E+00  0.1297754E+06  0.2090689E+04  0.5253383E-02  0.3855228E-02  0.3488159E+04  0.7542910E+02
  0.7309524E+00  0.1315730E+06  0.2785744E+04 -0.8203959E-02 -0.2879620E-02  0.3595983E+04  0.1023222E+03
  0.7619048E+00  0.1333871E+06  0.3661591E+04 -0.3604889E-03 -0.4139900E-02  0.3739325E+04  0.1373671E+03
  0.7928572E+00  0.1351746E+06  0.4752124E+04  0.8621902E-02  0.7423401E-02  0.3865540E+04  0.1819114E+03
  0.8238096E+00  0.1367346E+06  0.6090875E+04  0.2215259E-01  0.1584911E-01  0.3936869E+04  0.2370487E+03
  0.8547620E+00  0.1383882E+06  0.7717007E+04  0.1952955E-01  0.1225853E-01  0.4046168E+04  0.3060082E+03
  0.8857143E+00  0.1402604E+06  0.9673011E+04  0.4410282E-02  0.2531052E-02  0.4200580E+04  0.3917523E+03
  0.9166667E+00  0.1422831E+06  0.1200209E+05  0.9987570E-02  0.7526398E-02  0.4369096E+04  0.4969780E+03
  0.9476191E+00  0.1442232E+06  0.1474376E+05  0.1745483E-01  0.1045609E-01  0.4527653E+04  0.6235264E+03
  0.9785714E+00  0.1459931E+06  0.1793922E+05 -0.1160114E-01  0.6599426E-03  0.4675955E+04  0.7749517E+03
  0.1009524E+01  0.1473797E+06  0.2161644E+05 -0.1390565E-02  0.3051758E-02  0.4803467E+04  0.9543445E+03
  0.1040476E+01  0.1485091E+06  0.2580645E+05 -0.1240676E-01 -0.1161575E-01  0.4927521E+04  0.1164986E+04
  0.1071429E+01  0.1494770E+06  0.3051607E+05  0.1338704E-01  0.3086090E-02  0.5043565E+04  0.1407088E+04
  0.1102381E+01  0.1502096E+06  0.3574588E+05  0.1732977E-01  0.3415680E-01  0.5153269E+04  0.1681904E+04
  0.1133333E+01  0.1506541E+06  0.4149076E+05  0.1930686E-01  0.9674072E-02  0.5260086E+04  0.1995427E+04
  0.1164286E+01  0.1506489E+06  0.4772366E+05 -0.3564752E-02 -0.6477356E-02  0.5358459E+04  0.2349388E+04
  0.1195238E+01  0.1502265E+06  0.5441031E+05  0.7404464E-03  0.4295349E-02  0.5446815E+04  0.2743758E+04
  0.1226190E+01  0.1493535E+06  0.6146943E+05  0.1966162E-01  0.3067017E-01  0.5502885E+04  0.3171230E+04
  0.1257143E+01  0.1479442E+06  0.6885174E+05  0.1772100E-02  0.1964569E-01  0.5514703E+04  0.3629044E+04
  0.1288095E+01  0.1461321E+06  0.7633811E+05  0.1163278E-01  0.1838684E-01  0.5506559E+04  0.4111185E+04
  0.1319048E+01  0.1437797E+06  0.8397462E+05  0.2313607E-03  0.6835938E-02  0.5473320E+04  0.4628570E+04
  0.1350000E+01  0.1409668E+06  0.9160471E+05  0.5199291E-03  0.2670288E-01  0.5420557E+04  0.5169782E+04
  0.1380952E+01  0.1377916E+06  0.9910735E+05 -0.3447434E-02  0.1844788E-01  0.5352854E+04  0.5729845E+04
  0.1411905E+01  0.1337532E+06  0.1058999E+06  0.3544773E-02 -0.1860046E-01  0.5161055E+04  0.6249299E+04
  0.1442857E+01  0.1299154E+06  0.1128287E+06 -0.6302937E-02  0.1663208E-02  0.5023979E+04  0.6811807E+04
  0.1473810E+01  0.1257948E+06  0.1193642E+06 -0.1474310E-01  0.5691528E-02  0.4853686E+04  0.7370671E+04
  0.1504762E+01  0.1215048E+06  0.1254363E+06 -0.9369669E-02  0.2137756E-01  0.4671951E+04  0.7925919E+04
  0.1535714E+01  0.1170523E+06  0.1309888E+06 -0.4073741E-02  0.2395630E-02  0.4480819E+04  0.8474830E+04
  0.1566667E+01  0.1125498E+06  0.1359900E+06 -0.7168384E-02  0.1031494E-01  0.4267497E+04  0.9007819E+04
  0.1597619E+01  0.1080516E+06  0.1404134E+06 -0.3056306E-02  0.8453369E-02  0.4046532E+04  0.9527412E+04
  0.1628572E+01  0.1036209E+06  0.1442579E+06 -0.1002529E-01  0.1983643E-02  0.3806982E+04  0.1002297E+05
  0.1659524E+01  0.9928094E+05  0.1475263E+06 -0.2445785E-02  0.8529663E-02  0.3560909E+04  0.1048587E+05
  0.1690476E+01  0.9502919E+05  0.1502485E+06 -0.1169812E-01  0.2114868E-01  0.3302646E+04  0.1091212E+05
  0.1721429E+01  0.9094523E+05  0.1524520E+06  0.1932358E-02  0.4333496E-02  0.3050841E+04  0.1131840E+05
  0.1752381E+01  0.8699061E+05  0.1541630E+06  0.6164883E-02  0.5645752E-03  0.2795618E+04  0.1171137E+05
  0.1783333E+01  0.8322487E+05  0.1554081E+06 -0.3388307E-02  0.1374817E-01  0.2548002E+04  0.1208291E+05
  0.1814286E+01  0.7967116E+05  0.1562283E+06 -0.4777083E-02  0.1135254E-01  0.2304562E+04  0.1243379E+05
  0.1845238E+01  0.7633532E+05  0.1566560E+06  0.1174238E-02  0.9384155E-02  0.2070465E+04  0.1276744E+05
  0.1876190E+01  0.7320506E+05  0.1567272E+06 -0.2846500E-02  0.1681519E-01  0.1833408E+04  0.1307275E+05
  0.1907143E+01  0.7027484E+05  0.1564633E+06  0.1600173E-04 -0.4928589E-02  0.1601907E+04  0.1334626E+05
  0.1938095E+01  0.6752257E+05  0.1559190E+06  0.1196709E-02 -0.7720947E-02  0.1376294E+04  0.1359483E+05
  0.1969048E+01  0.6497384E+05  0.1551431E+06 -0.3967654E-02 -0.4852295E-02  0.1153039E+04  0.1381391E+05
  0.2000000E+01  0.6260545E+05  0.1541461E+06 -0.4531860E-02  0.1129150E-02  0.9387336E+03  0.1401946E+05
Zone t="Motion of body    1 in DoF   2",I=    64,F=POINT
  0.5000000E-01 -0.1110077E-01  0.2640486E-04  0.2010644E+06  0.6525674E+03 -0.2098083E-01 -0.1070499E-03
  0.8095238E-01  0.1107384E-01  0.8511543E-04  0.1978441E+06  0.1081000E+04 -0.2521066E-01 -0.2160072E-03
  0.1119048E+00 -0.1002210E-01  0.9953976E-04  0.1961161E+06  0.1545860E+04 -0.2140776E-01 -0.2698898E-03
  0.1428571E+00  0.1861191E-01  0.7295609E-04  0.1951167E+06  0.2064107E+04 -0.2120209E-01 -0.2851486E-03
  0.1738095E+00  0.1404645E-01 -0.1273155E-03  0.1946755E+06  0.2656579E+04 -0.2401065E-01 -0.3948212E-03
  0.2047619E+00  0.4787888E-02 -0.1010895E-03  0.1947270E+06  0.3349882E+04 -0.2451697E-01 -0.5054474E-03
  0.2357143E+00 -0.3625118E-02  0.9775162E-04  0.1950368E+06  0.4180644E+04 -0.2330433E-01 -0.6399155E-03
  0.2666667E+00  0.4835128E-02 -0.5598068E-03  0.1956273E+06  0.5177881E+04 -0.2523422E-01 -0.6589890E-03
  0.2976190E+00 -0.6383057E-02  0.6389618E-04  0.1963423E+06  0.6411512E+04 -0.2225098E-01 -0.9784698E-03
  0.3285715E+00  0.1005421E-01  0.4873276E-03  0.1972295E+06  0.7912452E+04 -0.2294125E-01 -0.1171112E-02
  0.3595238E+00 -0.1383598E-01 -0.8783340E-03  0.1978849E+06  0.9761431E+04 -0.2504058E-01 -0.1203537E-02
  0.3904762E+00 -0.1512295E-01  0.5674362E-03  0.1985741E+06  0.1201094E+05 -0.2680708E-01 -0.1716614E-02
  0.4214286E+00  0.5268161E-02 -0.1646042E-02  0.1985279E+06  0.1462716E+05 -0.2425889E-01 -0.2086639E-02
  0.4523810E+00 -0.2391454E-01  0.4945755E-02  0.1982566E+06  0.1774024E+05 -0.2172209E-01 -0.2681732E-02
  0.4833333E+00 -0.5180622E-01  0.1398087E-02  0.1971237E+06  0.2106242E+05 -0.2595046E-01 -0.3005981E-02
  0.5142857E+00  0.1302507E-01 -0.8735657E-03  0.1954216E+06  0.2475873E+05 -0.2112495E-01 -0.2876282E-02
  0.5452381E+00  0.2098917E-02  0.2220154E-02  0.1932551E+06  0.2860051E+05 -0.2266830E-01 -0.4615784E-02
  0.5761905E+00  0.2277469E-01  0.1628876E-02  0.1905187E+06  0.3251013E+05 -0.2664109E-01 -0.4615784E-02
  0.6071429E+00  0.3056066E-01  0.4199982E-02  0.1873531E+06  0.3658433E+05 -0.2829877E-01 -0.6233215E-02
  0.6380953E+00 -0.9947819E-02  0.3055573E-02  0.1840614E+06  0.4054602E+05 -0.1664347E-01 -0.6340027E-02
  0.6690477E+00  0.2020676E-01 -0.1210785E-01  0.1804682E+06  0.4450479E+05 -0.2599967E-01 -0.6652832E-02
  0.7000000E+00  0.1057216E-01  0.1369476E-02  0.1766413E+06  0.4847143E+05 -0.2022879E-01 -0.8132935E-02
  0.7309524E+00  0.1440390E-01 -0.1991272E-02  0.1727709E+06  0.5230074E+05 -0.2851554E-01 -0.1010132E-01
  0.7619048E+00 -0.5407333E-03 -0.2822876E-03  0.1687395E+06  0.5602636E+05 -0.1950645E-01 -0.8575439E-02
  0.7928572E+00 -0.1393361E-01  0.6065369E-02  0.1646418E+06  0.5962366E+05 -0.1939928E-01 -0.1066589E-01
  0.8238096E+00  0.1722567E-01  0.5241394E-02  0.1605082E+06  0.6306368E+05 -0.1526232E-01 -0.9765625E-02
  0.8547620E+00 -0.3588153E-02 -0.1805115E-01  0.1563848E+06  0.6631525E+05 -0.2306415E-01 -0.1173401E-01
  0.8857143E+00 -0.2062152E-01 -0.5706787E-02  0.1522932E+06  0.6936639E+05 -0.1867479E-01 -0.9155273E-02
  0.9166667E+00  0.4710804E-02 -0.6538391E-02  0.1482846E+06  0.7218753E+05 -0.1551403E-01 -0.1213074E-01
  0.9476191E+00  0.1225380E-01  0.1593781E-01  0.1442871E+06  0.7478473E+05 -0.1545815E-01 -0.1025391E-01
  0.9785714E+00  0.7952391E-03  0.7293701E-02  0.1403466E+06  0.7713846E+05 -0.1721459E-01 -0.1138306E-01
  0.1009524E+01 -0.3612447E-02 -0.9918213E-03  0.1365036E+06  0.7924633E+05 -0.1922608E-01 -0.1446533E-01
  0.1040476E+01 -0.1278805E-01  0.1564026E-01  0.1328146E+06  0.8108862E+05 -0.1566243E-01 -0.1281738E-01
  0.1071429E+01  0.1784465E-01  0.5378723E-02  0.1292704E+06  0.8266827E+05 -0.1446940E-01 -0.1168823E-01
  0.1102381E+01  0.6976199E-02 -0.7682800E-02  0.1258743E+06  0.8399671E+05 -0.1395240E-01 -0.1443481E-01
  0.1133333E+01  0.5614337E-02  0.4119873E-02  0.1225901E+06  0.8508612E+05 -0.1287124E-01 -0.1301575E-01
  0.1164286E+01  0.1310571E-02 -0.4348755E-03  0.1194743E+06  0.8592966E+05 -0.1331540E-01 -0.1576233E-01
  0.1195238E+01 -0.2859655E-02  0.1654053E-01  0.1165315E+06  0.8652950E+05 -0.1440041E-01 -0.1643372E-01
  0.1226190E+01  0.7205111E-02  0.1424408E-01  0.1137721E+06  0.8688159E+05 -0.1144854E-01 -0.1298523E-01
  0.1257143E+01  0.7501082E-02 -0.6973267E-02  0.1111759E+06  0.8706148E+05 -0.1228333E-01 -0.1760864E-01
  0.1288095E+01  0.1114710E-01  0.5607605E-02  0.1087147E+06  0.8694421E+05 -0.1231985E-01 -0.1803589E-01
  0.1319048E+01 -0.6524371E-02  0.4989624E-02  0.1063938E+06  0.8668471E+05 -0.1055005E-01 -0.1554871E-01
  0.1350000E+01  0.8409288E-02  0.1195526E-01  0.1042567E+06  0.8622506E+05 -0.9268302E-02 -0.1615906E-01
  0.1380952E+01 -0.1303837E-02  0.7446289E-02  0.1023099E+06  0.8557063E+05 -0.1069588E-01 -0.1882935E-01
  0.1411905E+01 -0.5273931E-02  0.1655579E-02  0.1005083E+06  0.8491223E+05 -0.1072078E-01 -0.1618958E-01
  0.1442857E+01  0.4082104E-02 -0.8399963E-02  0.9885192E+05  0.8395184E+05 -0.7868096E-02 -0.1701355E-01
  0.1473810E+01  0.2029246E-02  0.1029205E-01  0.9734618E+05  0.8285027E+05 -0.9732099E-02 -0.1629639E-01
  0.1504762E+01 -0.1723857E-02 -0.4943848E-02  0.9596621E+05  0.8162336E+05 -0.8923494E-02 -0.1618958E-01
  0.1535714E+01 -0.1848088E-01 -0.4096985E-02  0.9470548E+05  0.8027838E+05 -0.8703897E-02 -0.1625061E-01
  0.1566667E+01  0.2863458E-02  0.1350021E-01  0.9360212E+05  0.7884178E+05 -0.8259225E-02 -0.1696777E-01
  0.1597619E+01 -0.1165217E-02 -0.1703262E-01  0.9263329E+05  0.7730801E+05 -0.5501350E-02 -0.1515198E-01
  0.1628572E+01  0.9631775E-02  0.2326965E-02  0.9177582E+05  0.7568223E+05 -0.6745991E-02 -0.1478577E-01
  0.1659524E+01 -0.1986051E-02  0.1110458E-01  0.9101146E+05  0.7398188E+05 -0.6362718E-02 -0.1560974E-01
  0.1690476E+01 -0.1588633E-02  0.8419037E-02  0.9036219E+05  0.7222304E+05 -0.7401587E-02 -0.1560974E-01
  0.1721429E+01 -0.2145095E-02 -0.7732391E-02  0.8980088E+05  0.7041099E+05 -0.5779346E-02 -0.1811981E-01
  0.1752381E+01 -0.3065027E-02 -0.8739471E-02  0.8930701E+05  0.6857322E+05 -0.7105289E-02 -0.1655579E-01
  0.1783333E+01 -0.1177351E-01 -0.1358414E-01  0.8891309E+05  0.6668069E+05 -0.5818305E-02 -0.1617432E-01
  0.1814286E+01 -0.1816637E-02 -0.5008698E-02  0.8860076E+05  0.6478728E+05 -0.7502038E-02 -0.1766205E-01
  0.1845238E+01 -0.2464245E-02 -0.6828308E-03  0.8836387E+05  0.6285093E+05 -0.6913118E-02 -0.1773071E-01
  0.1876190E+01  0.2944094E-02 -0.1040268E-01  0.8818788E+05  0.6087645E+05 -0.4033897E-02 -0.1518250E-01
  0.1907143E+01 -0.4608497E-02 -0.3807068E-02  0.8805323E+05  0.5888250E+05 -0.6624715E-02 -0.1418304E-01
  0.1938095E+01  0.5038775E-02  0.8018494E-02  0.8797288E+05  0.5687129E+05 -0.6266976E-02 -0.1328278E-01
  0.1969048E+01  0.1890835E-02 -0.1644135E-01  0.8793688E+05  0.5484941E+05 -0.7098381E-02 -0.1625061E-01
  0.2000000E+01 -0.4028320E-02 -0.1900673E-01  0.8793343E+05  0.5280673E+05 -0.5676270E-02 -0.1377106E-01
Zone t="Motion of body    1 in DoF   3",I=    64,F=POINT
  0.5000000E-01  0.2686677E+04  0.5584249E-03 -0.2223969E-01 -0.9858688E-04  0.6237351E+04  0.1361708E-04
  0.8095238E-01  0.2670270E+04  0.2458864E-02 -0.2599408E-01 -0.1840244E-03  0.6205547E+04  0.6994884E-04
  0.1119048E+00  0.2642693E+04  0.6914011E-02 -0.3281898E-01 -0.3062090E-03  0.6175788E+04  0.2029041E-03
  0.1428571E+00  0.2666376E+04  0.1560713E-01 -0.3163624E-01 -0.3877343E-03  0.6210985E+04  0.4417408E-03
  0.1738095E+00  0.2678870E+04  0.3127110E-01 -0.3248241E-01 -0.5441810E-03  0.6199990E+04  0.9509904E-03
  0.2047619E+00  0.2708256E+04  0.5797727E-01 -0.3712011E-01 -0.7908501E-03  0.6213541E+04  0.1728276E-02
  0.2357143E+00  0.2704905E+04  0.1027145E+00 -0.2731785E-01 -0.7529570E-03  0.6186781E+04  0.3056785E-02
  0.2666667E+00  0.2743888E+04  0.1766741E+00 -0.3074169E-01 -0.1009802E-02  0.6203294E+04  0.5176001E-02
  0.2976190E+00  0.2779229E+04  0.2984371E+00 -0.2362885E-01 -0.8841180E-03  0.6204030E+04  0.8873651E-02
  0.3285715E+00  0.2797612E+04  0.4984421E+00 -0.4295100E-01 -0.1900571E-02  0.6215851E+04  0.1506947E-01
  0.3595238E+00  0.2882733E+04  0.8268338E+00 -0.2852080E-01 -0.1744772E-02  0.6217848E+04  0.2538898E-01
  0.3904762E+00  0.2891289E+04  0.1363340E+01 -0.3633220E-01 -0.2563471E-02  0.6221779E+04  0.4216484E-01
  0.4214286E+00  0.2910187E+04  0.2215741E+01 -0.1399412E-01 -0.1510813E-02  0.6221901E+04  0.6937168E-01
  0.4523810E+00  0.2983679E+04  0.3575874E+01 -0.3240605E-01 -0.3551217E-02  0.6213681E+04  0.1137123E+00
  0.4833333E+00  0.3067430E+04  0.5637586E+01 -0.3825483E-01 -0.4956675E-02  0.6245818E+04  0.1819932E+00
  0.5142857E+00  0.3088276E+04  0.8736130E+01 -0.3234016E-01 -0.4919820E-02  0.6216632E+04  0.2856473E+00
  0.5452381E+00  0.3125743E+04  0.1322713E+02 -0.3676602E-01 -0.6746374E-02  0.6242922E+04  0.4383281E+00
  0.5761905E+00  0.3225787E+04  0.1957097E+02 -0.2118575E-01 -0.4459947E-02  0.6239635E+04  0.6603953E+00
  0.6071429E+00  0.3344738E+04  0.2844009E+02 -0.2816682E-01 -0.7064119E-02  0.6242956E+04  0.9774836E+00
  0.6380953E+00  0.3392929E+04  0.4047873E+02 -0.1981792E-01 -0.5539395E-02  0.6263106E+04  0.1411406E+01
  0.6690477E+00  0.3451444E+04  0.5657016E+02 -0.2804087E-01 -0.9083748E-02  0.6251207E+04  0.2005709E+01
  0.7000000E+00  0.3561370E+04  0.7786286E+02 -0.3210885E-01 -0.1132835E-01  0.6249931E+04  0.2809460E+01
  0.7309524E+00  0.3671565E+04  0.1056459E+03 -0.3337425E-01 -0.1347300E-01  0.6282233E+04  0.3878716E+01
  0.7619048E+00  0.3817910E+04  0.1413715E+03 -0.3464698E-01 -0.1454070E-01  0.6298804E+04  0.5307158E+01
  0.7928572E+00  0.3943563E+04  0.1870258E+03 -0.1728711E-01 -0.9224057E-02  0.6282500E+04  0.7155574E+01
  0.8238096E+00  0.4020875E+04  0.2449405E+03 -0.2585703E-01 -0.1339763E-01  0.6295788E+04  0.9533339E+01
  0.8547620E+00  0.4133398E+04  0.3164709E+03 -0.2453690E-01 -0.1320487E-01  0.6319513E+04  0.1253228E+02
  0.8857143E+00  0.4289610E+04  0.4041886E+03 -0.2367943E-01 -0.1545119E-01  0.6323085E+04  0.1636386E+02
  0.9166667E+00  0.4454091E+04  0.5113862E+03 -0.2815663E-01 -0.2161026E-01  0.6315641E+04  0.2110255E+02
  0.9476191E+00  0.4620678E+04  0.6416617E+03 -0.7060832E-02 -0.3085017E-02  0.6342582E+04  0.2714771E+02
  0.9785714E+00  0.4773750E+04  0.7976320E+03 -0.2795811E-01 -0.2181268E-01  0.6376042E+04  0.3452808E+02
  0.1009524E+01  0.4900732E+04  0.9825782E+03 -0.2311815E-01 -0.2009177E-01  0.6386640E+04  0.4352585E+02
  0.1040476E+01  0.5025842E+04  0.1200091E+04 -0.1646902E-01 -0.1492286E-01  0.6375875E+04  0.5407793E+02
  0.1071429E+01  0.5143049E+04  0.1450972E+04 -0.2724406E-01 -0.2892184E-01  0.6373910E+04  0.6667828E+02
  0.1102381E+01  0.5266094E+04  0.1738108E+04 -0.2335089E-01 -0.2997971E-01  0.6406293E+04  0.8169191E+02
  0.1133333E+01  0.5373986E+04  0.2062840E+04 -0.1260197E-01 -0.1358509E-01  0.6431503E+04  0.9931451E+02
  0.1164286E+01  0.5469131E+04  0.2426065E+04 -0.2393102E-01 -0.2712250E-01  0.6449926E+04  0.1198060E+03
  0.1195238E+01  0.5557498E+04  0.2830283E+04 -0.2022185E-01 -0.2237844E-01  0.6445197E+04  0.1424552E+03
  0.1226190E+01  0.5611900E+04  0.3269845E+04 -0.1300404E-01 -0.2254391E-01  0.6445793E+04  0.1679047E+03
  0.1257143E+01  0.5633000E+04  0.3751446E+04 -0.1469872E-01 -0.1757383E-01  0.6460573E+04  0.1962660E+03
  0.1288095E+01  0.5624377E+04  0.4253845E+04 -0.1531097E-01 -0.1945019E-01  0.6493368E+04  0.2303994E+03
  0.1319048E+01  0.5583127E+04  0.4788834E+04 -0.1292149E-01 -0.1782560E-01  0.6503466E+04  0.2661983E+03
  0.1350000E+01  0.5521351E+04  0.5341490E+04 -0.1258002E-01 -0.1739025E-01  0.6510556E+04  0.3033013E+03
  0.1380952E+01  0.5444105E+04  0.5909654E+04 -0.9513592E-02 -0.1163960E-01  0.6489328E+04  0.3400627E+03
  0.1411905E+01  0.5036159E+04  0.6263385E+04 -0.1243373E-01 -0.3258419E-01  0.6432087E+04  0.3636322E+03
  0.1442857E+01  0.4902689E+04  0.6836247E+04 -0.8603087E-02 -0.1780701E-01  0.6435486E+04  0.4079076E+03
  0.1473810E+01  0.4735771E+04  0.7411732E+04 -0.8158399E-02 -0.1975536E-01  0.6463418E+04  0.4573359E+03
  0.1504762E+01  0.4551469E+04  0.7973585E+04 -0.1013019E-01 -0.2661133E-01  0.6482743E+04  0.5106115E+03
  0.1535714E+01  0.4358159E+04  0.8514107E+04 -0.1402957E-01 -0.2080154E-01  0.6491774E+04  0.5596359E+03
  0.1566667E+01  0.4142880E+04  0.9042115E+04 -0.1181907E-01 -0.2911377E-01  0.6478798E+04  0.6051362E+03
  0.1597619E+01  0.3916178E+04  0.9553800E+04 -0.1305138E-01 -0.2052975E-01  0.6442715E+04  0.6400129E+03
  0.1628572E+01  0.3663630E+04  0.1004373E+05 -0.1327180E-01 -0.1943779E-01  0.6410782E+04  0.6794771E+03
  0.1659524E+01  0.3414876E+04  0.1051670E+05 -0.9502701E-02 -0.9063721E-02  0.6400666E+04  0.7270123E+03
  0.1690476E+01  0.3156981E+04  0.1097616E+05 -0.6616297E-02 -0.2013874E-01  0.6411532E+04  0.7876246E+03
  0.1721429E+01  0.2896607E+04  0.1138695E+05 -0.6089587E-02 -0.2249622E-01  0.6434100E+04  0.8599677E+03
  0.1752381E+01  0.2633310E+04  0.1177543E+05 -0.1189875E-01 -0.1510620E-01  0.6429119E+04  0.9179961E+03
  0.1783333E+01  0.2381356E+04  0.1212736E+05 -0.5818305E-02 -0.2374649E-01  0.6426024E+04  0.9725791E+03
  0.1814286E+01  0.2135449E+04  0.1246700E+05 -0.3322091E-02 -0.1955128E-01  0.6395167E+04  0.1003080E+04
  0.1845238E+01  0.1900839E+04  0.1278222E+05 -0.1060122E-01 -0.2207279E-01  0.6356856E+04  0.1016371E+04
  0.1876190E+01  0.1656476E+04  0.1307428E+05 -0.6124042E-02 -0.1654339E-01  0.6324525E+04  0.1032868E+04
  0.1907143E+01  0.1423183E+04  0.1335847E+05 -0.6712724E-02 -0.1700878E-01  0.6311682E+04  0.1069478E+04
  0.1938095E+01  0.1196151E+04  0.1363150E+05 -0.8345471E-02 -0.1640511E-01  0.6314610E+04  0.1138307E+04
  0.1969048E+01  0.9661769E+03  0.1385979E+05 -0.6261454E-02 -0.1981831E-01  0.6333749E+04  0.1234463E+04
  0.2000000E+01  0.7355596E+03  0.1406738E+05 -0.3074646E-02 -0.2165222E-01  0.6339995E+04  0.1335061E+04
