VARIABLES="w (rad/s)"
"abs(F   1   1)" "angle(F   1   1)"
"abs(F   1   2)" "angle(F   1   2)"
"abs(F   1   3)" "angle(F   1   3)"
Zone t="Diffraction force - beta =   0.000 deg",I=    64,F=POINT
  0.5000000E-01  0.1485815E+04 -0.1570795E+01  0.2122858E+03 -0.3104760E+01  0.1893625E+04  0.1570798E+01
  0.8095238E-01  0.2427277E+04 -0.1570792E+01  0.5497498E+03 -0.3103434E+01  0.3083873E+04  0.1570800E+01
  0.1119048E+00  0.3389686E+04 -0.1570788E+01  0.1046015E+04 -0.3101935E+01  0.4310021E+04  0.1570803E+01
  0.1428571E+00  0.4393897E+04 -0.1570782E+01  0.1698057E+04 -0.3099927E+01  0.5587913E+04  0.1570809E+01
  0.1738095E+00  0.5449923E+04 -0.1570773E+01  0.2507873E+04 -0.3097390E+01  0.6927746E+04  0.1570817E+01
  0.2047619E+00  0.6551099E+04 -0.1570760E+01  0.3480996E+04 -0.3094245E+01  0.8324991E+04  0.1570828E+01
  0.2357143E+00  0.7745586E+04 -0.1570741E+01  0.4611987E+04 -0.3090197E+01  0.9843439E+04  0.1570845E+01
  0.2666667E+00  0.9024148E+04 -0.1570712E+01  0.5906612E+04 -0.3085293E+01  0.1146414E+05  0.1570870E+01
  0.2976190E+00  0.1041526E+05 -0.1570670E+01  0.7365767E+04 -0.3079102E+01  0.1324184E+05  0.1570906E+01
  0.3285715E+00  0.1195396E+05 -0.1570608E+01  0.8985932E+04 -0.3071671E+01  0.1518869E+05  0.1570961E+01
  0.3595238E+00  0.1367338E+05 -0.1570513E+01  0.1076171E+05 -0.3062596E+01  0.1737276E+05  0.1571044E+01
  0.3904762E+00  0.1555547E+05 -0.1570372E+01  0.1270264E+05 -0.3051916E+01  0.1974659E+05  0.1571168E+01
  0.4214286E+00  0.1767643E+05 -0.1570165E+01  0.1475229E+05 -0.3039773E+01  0.2247299E+05  0.1571349E+01
  0.4523810E+00  0.2001674E+05 -0.1569860E+01  0.1697588E+05 -0.3025993E+01  0.2543774E+05  0.1571617E+01
  0.4833333E+00  0.2265218E+05 -0.1569436E+01  0.1922951E+05 -0.3011609E+01  0.2876551E+05  0.1571989E+01
  0.5142857E+00  0.2545406E+05 -0.1568842E+01  0.2162853E+05 -0.2996448E+01  0.3232495E+05  0.1572511E+01
  0.5452381E+00  0.2850760E+05 -0.1568047E+01  0.2404928E+05 -0.2980978E+01  0.3619103E+05  0.1573210E+01
  0.5761905E+00  0.3185644E+05 -0.1567012E+01  0.2652788E+05 -0.2965831E+01  0.4045044E+05  0.1574121E+01
  0.6071429E+00  0.3538851E+05 -0.1565665E+01  0.2911700E+05 -0.2950790E+01  0.4490689E+05  0.1575309E+01
  0.6380953E+00  0.3918636E+05 -0.1563980E+01  0.3162560E+05 -0.2935835E+01  0.4965139E+05  0.1576801E+01
  0.6690477E+00  0.4311774E+05 -0.1561866E+01  0.3420058E+05 -0.2921391E+01  0.5467066E+05  0.1578667E+01
  0.7000000E+00  0.4723918E+05 -0.1559246E+01  0.3685600E+05 -0.2907538E+01  0.5992969E+05  0.1580981E+01
  0.7309524E+00  0.5175159E+05 -0.1556088E+01  0.3936257E+05 -0.2893126E+01  0.6548627E+05  0.1583794E+01
  0.7619048E+00  0.5648144E+05 -0.1552273E+01  0.4190412E+05 -0.2879324E+01  0.7146205E+05  0.1587184E+01
  0.7928572E+00  0.6133245E+05 -0.1547694E+01  0.4447845E+05 -0.2866344E+01  0.7750320E+05  0.1591267E+01
  0.8238096E+00  0.6639153E+05 -0.1542263E+01  0.4696278E+05 -0.2853319E+01  0.8382038E+05  0.1596114E+01
  0.8547620E+00  0.7180464E+05 -0.1535920E+01  0.4932941E+05 -0.2840077E+01  0.9062949E+05  0.1601781E+01
  0.8857143E+00  0.7734108E+05 -0.1528497E+01  0.5167361E+05 -0.2827519E+01  0.9759691E+05  0.1608417E+01
  0.9166667E+00  0.8322422E+05 -0.1519937E+01  0.5403894E+05 -0.2816181E+01  0.1048305E+06  0.1616113E+01
  0.9476191E+00  0.8933490E+05 -0.1510100E+01  0.5625343E+05 -0.2804678E+01  0.1123198E+06  0.1624982E+01
  0.9785714E+00  0.9577326E+05 -0.1498916E+01  0.5827902E+05 -0.2792682E+01  0.1201592E+06  0.1635099E+01
  0.1009524E+01  0.1023655E+06 -0.1486213E+01  0.6026166E+05 -0.2781427E+01  0.1283333E+06  0.1646572E+01
  0.1040476E+01  0.1090062E+06 -0.1471843E+01  0.6218629E+05 -0.2771068E+01  0.1364973E+06  0.1659583E+01
  0.1071429E+01  0.1158257E+06 -0.1455757E+01  0.6408173E+05 -0.2761835E+01  0.1449674E+06  0.1674142E+01
  0.1102381E+01  0.1228279E+06 -0.1437894E+01  0.6567734E+05 -0.2751472E+01  0.1534143E+06  0.1690398E+01
  0.1133333E+01  0.1302565E+06 -0.1418302E+01  0.6714753E+05 -0.2741357E+01  0.1623782E+06  0.1708266E+01
  0.1164286E+01  0.1377427E+06 -0.1396708E+01  0.6854855E+05 -0.2731979E+01  0.1714354E+06  0.1727972E+01
  0.1195238E+01  0.1450917E+06 -0.1372971E+01  0.6986482E+05 -0.2723381E+01  0.1801938E+06  0.1749703E+01
  0.1226190E+01  0.1524016E+06 -0.1347153E+01  0.7112596E+05 -0.2715739E+01  0.1889579E+06  0.1773334E+01
  0.1257143E+01  0.1593284E+06 -0.1319126E+01  0.7218748E+05 -0.2707694E+01  0.1971568E+06  0.1799015E+01
  0.1288095E+01  0.1665110E+06 -0.1289281E+01  0.7297454E+05 -0.2699321E+01  0.2054564E+06  0.1826500E+01
  0.1319048E+01  0.1733809E+06 -0.1257469E+01  0.7369524E+05 -0.2691212E+01  0.2137997E+06  0.1855602E+01
  0.1350000E+01  0.1795492E+06 -0.1223557E+01  0.7431605E+05 -0.2683656E+01  0.2211657E+06  0.1886613E+01
  0.1380952E+01  0.1851645E+06 -0.1187850E+01  0.7485193E+05 -0.2676830E+01  0.2276660E+06  0.1919301E+01
  0.1411905E+01  0.1898473E+06 -0.1150237E+01  0.7530757E+05 -0.2670610E+01  0.2333061E+06  0.1953452E+01
  0.1442857E+01  0.1944633E+06 -0.1111817E+01  0.7561288E+05 -0.2664735E+01  0.2384329E+06  0.1988579E+01
  0.1473810E+01  0.1982871E+06 -0.1072297E+01  0.7561030E+05 -0.2657594E+01  0.2422935E+06  0.2024755E+01
  0.1504762E+01  0.2013957E+06 -0.1031866E+01  0.7552295E+05 -0.2650775E+01  0.2455846E+06  0.2061608E+01
  0.1535714E+01  0.2035920E+06 -0.9908555E+00  0.7534296E+05 -0.2644071E+01  0.2479273E+06  0.2098733E+01
  0.1566667E+01  0.2045668E+06 -0.9493016E+00  0.7507395E+05 -0.2637745E+01  0.2486108E+06  0.2136235E+01
  0.1597619E+01  0.2044350E+06 -0.9076941E+00  0.7472327E+05 -0.2631937E+01  0.2478384E+06  0.2173616E+01
  0.1628572E+01  0.2034445E+06 -0.8663635E+00  0.7430048E+05 -0.2626543E+01  0.2462200E+06  0.2210417E+01
  0.1659524E+01  0.2016009E+06 -0.8256949E+00  0.7377092E+05 -0.2621551E+01  0.2435447E+06  0.2246288E+01
  0.1690476E+01  0.1987986E+06 -0.7859049E+00  0.7292462E+05 -0.2614865E+01  0.2393931E+06  0.2281219E+01
  0.1721429E+01  0.1952119E+06 -0.7471082E+00  0.7198066E+05 -0.2608225E+01  0.2343967E+06  0.2314904E+01
  0.1752381E+01  0.1910160E+06 -0.7094809E+00  0.7096622E+05 -0.2601574E+01  0.2290873E+06  0.2346984E+01
  0.1783333E+01  0.1858228E+06 -0.6727502E+00  0.6986338E+05 -0.2594899E+01  0.2225195E+06  0.2377743E+01
  0.1814286E+01  0.1799586E+06 -0.6374171E+00  0.6866160E+05 -0.2588348E+01  0.2150932E+06  0.2406747E+01
  0.1845238E+01  0.1734370E+06 -0.6034796E+00  0.6737348E+05 -0.2582133E+01  0.2067828E+06  0.2433988E+01
  0.1876190E+01  0.1665009E+06 -0.5708963E+00  0.6600323E+05 -0.2576278E+01  0.1982016E+06  0.2459313E+01
  0.1907143E+01  0.1591076E+06 -0.5394455E+00  0.6455137E+05 -0.2570766E+01  0.1891849E+06  0.2482918E+01
  0.1938095E+01  0.1513305E+06 -0.5095419E+00  0.6285888E+05 -0.2564163E+01  0.1795221E+06  0.2504344E+01
  0.1969048E+01  0.1432501E+06 -0.4811244E+00  0.6102586E+05 -0.2557516E+01  0.1694503E+06  0.2523573E+01
  0.2000000E+01  0.1350316E+06 -0.4541753E+00  0.5914316E+05 -0.2551908E+01  0.1595246E+06  0.2540416E+01
