VARIABLES="w (rad/s)"
"abs(F   1   1)" "angle(F   1   1)"
"abs(F   1   2)" "angle(F   1   2)"
"abs(F   1   3)" "angle(F   1   3)"
Zone t="Diffraction force - beta =   0.000 deg",I=    64,F=POINT
  0.5000000E-01  0.9774127E+03 -0.1570767E+01  0.1045324E+06 -0.7171159E-05  0.2047797E+04  0.1570792E+01
  0.8095238E-01  0.1597101E+04 -0.1570787E+01  0.1043791E+06 -0.1929877E-04  0.3344538E+04  0.1570803E+01
  0.1119048E+00  0.2229132E+04 -0.1570808E+01  0.1041537E+06 -0.3833714E-04  0.4664328E+04  0.1570772E+01
  0.1428571E+00  0.2881481E+04 -0.1570808E+01  0.1038560E+06 -0.6578228E-04  0.6021548E+04  0.1570799E+01
  0.1738095E+00  0.3563385E+04 -0.1570787E+01  0.1034863E+06 -0.1038641E-03  0.7431418E+04  0.1570791E+01
  0.2047619E+00  0.4275771E+04 -0.1570799E+01  0.1030444E+06 -0.1558352E-03  0.8903067E+04  0.1570816E+01
  0.2357143E+00  0.5034924E+04 -0.1570786E+01  0.1025304E+06 -0.2265158E-03  0.1045953E+05  0.1570806E+01
  0.2666667E+00  0.5847898E+04 -0.1570778E+01  0.1019448E+06 -0.3217600E-03  0.1212053E+05  0.1570806E+01
  0.2976190E+00  0.6722085E+04 -0.1570768E+01  0.1012875E+06 -0.4515945E-03  0.1390049E+05  0.1570811E+01
  0.3285715E+00  0.7683497E+04 -0.1570771E+01  0.1005592E+06 -0.6262301E-03  0.1583529E+05  0.1570825E+01
  0.3595238E+00  0.8733502E+04 -0.1570754E+01  0.9976218E+05 -0.8620484E-03  0.1794084E+05  0.1570838E+01
  0.3904762E+00  0.9889656E+04 -0.1570735E+01  0.9889679E+05 -0.1177209E-02  0.2024311E+05  0.1570860E+01
  0.4214286E+00  0.1116010E+05 -0.1570706E+01  0.9796711E+05 -0.1584699E-02  0.2276474E+05  0.1570885E+01
  0.4523810E+00  0.1255937E+05 -0.1570658E+01  0.9697548E+05 -0.2116076E-02  0.2550969E+05  0.1570928E+01
  0.4833333E+00  0.1409269E+05 -0.1570605E+01  0.9592647E+05 -0.2760136E-02  0.2849054E+05  0.1570990E+01
  0.5142857E+00  0.1572748E+05 -0.1570519E+01  0.9482340E+05 -0.3554346E-02  0.3165679E+05  0.1571074E+01
  0.5452381E+00  0.1748436E+05 -0.1570407E+01  0.9366846E+05 -0.4489857E-02  0.3501750E+05  0.1571184E+01
  0.5761905E+00  0.1933864E+05 -0.1570261E+01  0.9246723E+05 -0.5572406E-02  0.3852607E+05  0.1571331E+01
  0.6071429E+00  0.2128282E+05 -0.1570073E+01  0.9122166E+05 -0.6834063E-02  0.4216485E+05  0.1571520E+01
  0.6380953E+00  0.2332213E+05 -0.1569838E+01  0.8993054E+05 -0.8252278E-02  0.4592779E+05  0.1571757E+01
  0.6690477E+00  0.2539742E+05 -0.1569543E+01  0.8860148E+05 -0.9859126E-02  0.4973628E+05  0.1572051E+01
  0.7000000E+00  0.2755169E+05 -0.1569181E+01  0.8723730E+05 -0.1167645E-01  0.5362388E+05  0.1572412E+01
  0.7309524E+00  0.2980834E+05 -0.1568743E+01  0.8583827E+05 -0.1369682E-01  0.5759858E+05  0.1572849E+01
  0.7619048E+00  0.3208392E+05 -0.1568214E+01  0.8441110E+05 -0.1594310E-01  0.6157231E+05  0.1573380E+01
  0.7928572E+00  0.3440689E+05 -0.1567582E+01  0.8295669E+05 -0.1842977E-01  0.6556995E+05  0.1574010E+01
  0.8238096E+00  0.3677282E+05 -0.1566837E+01  0.8147914E+05 -0.2116826E-01  0.6955620E+05  0.1574756E+01
  0.8547620E+00  0.3919451E+05 -0.1565962E+01  0.7997961E+05 -0.2416621E-01  0.7358669E+05  0.1575630E+01
  0.8857143E+00  0.4164004E+05 -0.1564945E+01  0.7846652E+05 -0.2743993E-01  0.7755459E+05  0.1576649E+01
  0.9166667E+00  0.4413966E+05 -0.1563768E+01  0.7693888E+05 -0.3099553E-01  0.8153047E+05  0.1577824E+01
  0.9476191E+00  0.4666222E+05 -0.1562417E+01  0.7540392E+05 -0.3484491E-01  0.8543159E+05  0.1579174E+01
  0.9785714E+00  0.4924071E+05 -0.1560877E+01  0.7385942E+05 -0.3899247E-01  0.8934535E+05  0.1580716E+01
  0.1009524E+01  0.5178971E+05 -0.1559127E+01  0.7231177E+05 -0.4345638E-01  0.9313527E+05  0.1582465E+01
  0.1040476E+01  0.5433561E+05 -0.1557156E+01  0.7076230E+05 -0.4824473E-01  0.9682738E+05  0.1584435E+01
  0.1071429E+01  0.5689405E+05 -0.1554945E+01  0.6921351E+05 -0.5336410E-01  0.1004582E+06  0.1586645E+01
  0.1102381E+01  0.5949840E+05 -0.1552481E+01  0.6766909E+05 -0.5882443E-01  0.1040007E+06  0.1589109E+01
  0.1133333E+01  0.6213904E+05 -0.1549745E+01  0.6613080E+05 -0.6462601E-01  0.1075093E+06  0.1591845E+01
  0.1164286E+01  0.6473525E+05 -0.1546720E+01  0.6460386E+05 -0.7078779E-01  0.1108392E+06  0.1594869E+01
  0.1195238E+01  0.6730291E+05 -0.1543394E+01  0.6308929E+05 -0.7731175E-01  0.1140050E+06  0.1598196E+01
  0.1226190E+01  0.6986166E+05 -0.1539748E+01  0.6158432E+05 -0.8419952E-01  0.1170848E+06  0.1601841E+01
  0.1257143E+01  0.7235949E+05 -0.1535788E+01  0.6009777E+05 -0.9152797E-01  0.1199293E+06  0.1605801E+01
  0.1288095E+01  0.7492805E+05 -0.1531473E+01  0.5861952E+05 -0.9909921E-01  0.1227529E+06  0.1610111E+01
  0.1319048E+01  0.7739225E+05 -0.1526814E+01  0.5716098E+05 -0.1071358E+00  0.1253769E+06  0.1614765E+01
  0.1350000E+01  0.7978265E+05 -0.1521808E+01  0.5572495E+05 -0.1155729E+00  0.1277618E+06  0.1619761E+01
  0.1380952E+01  0.8214071E+05 -0.1516450E+01  0.5430905E+05 -0.1244157E+00  0.1299538E+06  0.1625111E+01
  0.1411905E+01  0.8421176E+05 -0.1510961E+01  0.5294073E+05 -0.1333397E+00  0.1318782E+06  0.1630600E+01
  0.1442857E+01  0.8645704E+05 -0.1504924E+01  0.5157596E+05 -0.1429643E+00  0.1336683E+06  0.1636631E+01
  0.1473810E+01  0.8866998E+05 -0.1498536E+01  0.5023059E+05 -0.1529864E+00  0.1353241E+06  0.1643018E+01
  0.1504762E+01  0.9081700E+05 -0.1491805E+01  0.4890733E+05 -0.1634107E+00  0.1368319E+06  0.1649750E+01
  0.1535714E+01  0.9280605E+05 -0.1484747E+01  0.4761262E+05 -0.1742871E+00  0.1380310E+06  0.1656813E+01
  0.1566667E+01  0.9467038E+05 -0.1477405E+01  0.4634802E+05 -0.1855503E+00  0.1389226E+06  0.1664132E+01
  0.1597619E+01  0.9642955E+05 -0.1469771E+01  0.4510430E+05 -0.1972681E+00  0.1396009E+06  0.1671750E+01
  0.1628572E+01  0.9808102E+05 -0.1461850E+01  0.4388210E+05 -0.2094384E+00  0.1401172E+06  0.1679658E+01
  0.1659524E+01  0.9956994E+05 -0.1453750E+01  0.4269439E+05 -0.2220048E+00  0.1402707E+06  0.1687695E+01
  0.1690476E+01  0.1009659E+06 -0.1445465E+01  0.4152779E+05 -0.2350230E+00  0.1402462E+06  0.1695921E+01
  0.1721429E+01  0.1022706E+06 -0.1437039E+01  0.4038654E+05 -0.2484729E+00  0.1400618E+06  0.1704283E+01
  0.1752381E+01  0.1034042E+06 -0.1428507E+01  0.3927505E+05 -0.2624199E+00  0.1396252E+06  0.1712786E+01
  0.1783333E+01  0.1043711E+06 -0.1419949E+01  0.3819452E+05 -0.2767964E+00  0.1389129E+06  0.1721313E+01
  0.1814286E+01  0.1051515E+06 -0.1411463E+01  0.3714757E+05 -0.2915505E+00  0.1378678E+06  0.1729717E+01
  0.1845238E+01  0.1057899E+06 -0.1403017E+01  0.3612247E+05 -0.3067981E+00  0.1366547E+06  0.1738129E+01
  0.1876190E+01  0.1062694E+06 -0.1394651E+01  0.3512041E+05 -0.3225439E+00  0.1352895E+06  0.1746496E+01
  0.1907143E+01  0.1065631E+06 -0.1386572E+01  0.3415129E+05 -0.3386059E+00  0.1336085E+06  0.1754465E+01
  0.1938095E+01  0.1067096E+06 -0.1378759E+01  0.3320356E+05 -0.3551271E+00  0.1317459E+06  0.1762159E+01
  0.1969048E+01  0.1067328E+06 -0.1371270E+01  0.3227723E+05 -0.3720861E+00  0.1297556E+06  0.1769530E+01
  0.2000000E+01  0.1066355E+06 -0.1364138E+01  0.3137069E+05 -0.3895593E+00  0.1276774E+06  0.1776610E+01
