VARIABLES="w (rad/s)"
"abs(F   1   1)" "angle(F   1   1)"
"abs(F   1   2)" "angle(F   1   2)"
"abs(F   1   3)" "angle(F   1   3)"
Zone t="Diffraction force - beta =   0.000 deg",I=    64,F=POINT
  0.5000000E-01  0.4408179E+04 -0.1570794E+01  0.6811079E+06 -0.4940140E-04  0.6014933E+04 -0.1570796E+01
  0.8095238E-01  0.7188257E+04 -0.1570794E+01  0.6795465E+06 -0.1328480E-03  0.9794706E+04 -0.1570792E+01
  0.1119048E+00  0.1002433E+05 -0.1570788E+01  0.6772564E+06 -0.2636442E-03  0.1367038E+05 -0.1570789E+01
  0.1428571E+00  0.1294975E+05 -0.1570785E+01  0.6742331E+06 -0.4516814E-03  0.1768471E+05 -0.1570784E+01
  0.1738095E+00  0.1599290E+05 -0.1570778E+01  0.6704771E+06 -0.7119066E-03  0.2188303E+05 -0.1570780E+01
  0.2047619E+00  0.1918938E+05 -0.1570770E+01  0.6659663E+06 -0.1065728E-02  0.2631198E+05 -0.1570770E+01
  0.2357143E+00  0.2257559E+05 -0.1570757E+01  0.6607019E+06 -0.1545007E-02  0.3103947E+05 -0.1570757E+01
  0.2666667E+00  0.2620480E+05 -0.1570737E+01  0.6546709E+06 -0.2187910E-02  0.3614112E+05 -0.1570739E+01
  0.2976190E+00  0.3011980E+05 -0.1570710E+01  0.6478519E+06 -0.3059692E-02  0.4167482E+05 -0.1570710E+01
  0.3285715E+00  0.3437802E+05 -0.1570668E+01  0.6402485E+06 -0.4225424E-02  0.4774179E+05 -0.1570668E+01
  0.3595238E+00  0.3905000E+05 -0.1570606E+01  0.6318956E+06 -0.5789673E-02  0.5446459E+05 -0.1570606E+01
  0.3904762E+00  0.4418368E+05 -0.1570513E+01  0.6227469E+06 -0.7866937E-02  0.6189232E+05 -0.1570513E+01
  0.4214286E+00  0.4982264E+05 -0.1570380E+01  0.6129314E+06 -0.1052711E-01  0.7011591E+05 -0.1570379E+01
  0.4523810E+00  0.5599268E+05 -0.1570185E+01  0.6024559E+06 -0.1397307E-01  0.7921344E+05 -0.1570185E+01
  0.4833333E+00  0.6271150E+05 -0.1569920E+01  0.5914438E+06 -0.1810059E-01  0.8922270E+05 -0.1569919E+01
  0.5142857E+00  0.6992283E+05 -0.1569555E+01  0.5799057E+06 -0.2314473E-01  0.1000201E+06 -0.1569554E+01
  0.5452381E+00  0.7756424E+05 -0.1569076E+01  0.5679109E+06 -0.2901894E-01  0.1115560E+06 -0.1569075E+01
  0.5761905E+00  0.8561936E+05 -0.1568464E+01  0.5555666E+06 -0.3573525E-01  0.1239248E+06 -0.1568463E+01
  0.6071429E+00  0.9402759E+05 -0.1567690E+01  0.5429148E+06 -0.4348421E-01  0.1369903E+06 -0.1567688E+01
  0.6380953E+00  0.1027122E+06 -0.1566745E+01  0.5298424E+06 -0.5205858E-01  0.1506144E+06 -0.1566742E+01
  0.6690477E+00  0.1115997E+06 -0.1565600E+01  0.5165210E+06 -0.6164582E-01  0.1646988E+06 -0.1565595E+01
  0.7000000E+00  0.1206689E+06 -0.1564230E+01  0.5030508E+06 -0.7236308E-01  0.1793036E+06 -0.1564223E+01
  0.7309524E+00  0.1298907E+06 -0.1562630E+01  0.4893703E+06 -0.8411058E-01  0.1944153E+06 -0.1562620E+01
  0.7619048E+00  0.1392236E+06 -0.1560779E+01  0.4755455E+06 -0.9698833E-01  0.2099604E+06 -0.1560766E+01
  0.7928572E+00  0.1485890E+06 -0.1558667E+01  0.4616115E+06 -0.1110503E+00  0.2257817E+06 -0.1558647E+01
  0.8238096E+00  0.1579059E+06 -0.1556290E+01  0.4476010E+06 -0.1263236E+00  0.2417070E+06 -0.1556263E+01
  0.8547620E+00  0.1671528E+06 -0.1553663E+01  0.4335323E+06 -0.1428343E+00  0.2577908E+06 -0.1553626E+01
  0.8857143E+00  0.1762728E+06 -0.1550804E+01  0.4195019E+06 -0.1606337E+00  0.2740074E+06 -0.1550756E+01
  0.9166667E+00  0.1852047E+06 -0.1547748E+01  0.4055098E+06 -0.1797521E+00  0.2902270E+06 -0.1547688E+01
  0.9476191E+00  0.1938753E+06 -0.1544537E+01  0.3916008E+06 -0.2002149E+00  0.3063033E+06 -0.1544460E+01
  0.9785714E+00  0.2022286E+06 -0.1541233E+01  0.3777159E+06 -0.2220454E+00  0.3221261E+06 -0.1541132E+01
  0.1009524E+01  0.2101584E+06 -0.1537909E+01  0.3638768E+06 -0.2452782E+00  0.3375105E+06 -0.1537774E+01
  0.1040476E+01  0.2175971E+06 -0.1534661E+01  0.3501091E+06 -0.2699730E+00  0.3523079E+06 -0.1534486E+01
  0.1071429E+01  0.2244956E+06 -0.1531607E+01  0.3364531E+06 -0.2962211E+00  0.3664186E+06 -0.1531386E+01
  0.1102381E+01  0.2307597E+06 -0.1528877E+01  0.3229313E+06 -0.3241325E+00  0.3797559E+06 -0.1528605E+01
  0.1133333E+01  0.2363758E+06 -0.1526632E+01  0.3095313E+06 -0.3537537E+00  0.3922010E+06 -0.1526306E+01
  0.1164286E+01  0.2412665E+06 -0.1525022E+01  0.2962384E+06 -0.3852207E+00  0.4036115E+06 -0.1524641E+01
  0.1195238E+01  0.2454084E+06 -0.1524234E+01  0.2830453E+06 -0.4186714E+00  0.4139277E+06 -0.1523796E+01
  0.1226190E+01  0.2487685E+06 -0.1524444E+01  0.2699633E+06 -0.4544035E+00  0.4230320E+06 -0.1523953E+01
  0.1257143E+01  0.2513217E+06 -0.1525786E+01  0.2570726E+06 -0.4929462E+00  0.4308610E+06 -0.1525246E+01
  0.1288095E+01  0.2530701E+06 -0.1528589E+01  0.2442597E+06 -0.5336316E+00  0.4373151E+06 -0.1528024E+01
  0.1319048E+01  0.2540191E+06 -0.1532905E+01  0.2316514E+06 -0.5778000E+00  0.4424316E+06 -0.1532336E+01
  0.1350000E+01  0.2541913E+06 -0.1538945E+01  0.2192380E+06 -0.6255640E+00  0.4461589E+06 -0.1538409E+01
  0.1380952E+01  0.2536162E+06 -0.1546888E+01  0.2069905E+06 -0.6776327E+00  0.4485329E+06 -0.1546434E+01
  0.1411905E+01  0.2529213E+06 -0.1555603E+01  0.1948625E+06 -0.7299719E+00  0.4510456E+06 -0.1555276E+01
  0.1442857E+01  0.2510698E+06 -0.1567527E+01  0.1831799E+06 -0.7931636E+00  0.4510175E+06 -0.1567430E+01
  0.1473810E+01  0.2486279E+06 -0.1581746E+01  0.1719319E+06 -0.8637515E+00  0.4497788E+06 -0.1582000E+01
  0.1504762E+01  0.2456445E+06 -0.1598397E+01  0.1612307E+06 -0.9428603E+00  0.4474361E+06 -0.1599110E+01
  0.1535714E+01  0.2421889E+06 -0.1617535E+01  0.1513592E+06 -0.1031712E+01  0.4440258E+06 -0.1618894E+01
  0.1566667E+01  0.2383252E+06 -0.1639255E+01  0.1425501E+06 -0.1131880E+01  0.4396581E+06 -0.1641462E+01
  0.1597619E+01  0.2341186E+06 -0.1663658E+01  0.1350951E+06 -0.1243441E+01  0.4344928E+06 -0.1666957E+01
  0.1628572E+01  0.2296452E+06 -0.1690804E+01  0.1293115E+06 -0.1365794E+01  0.4286594E+06 -0.1695476E+01
  0.1659524E+01  0.2249675E+06 -0.1720707E+01  0.1254775E+06 -0.1496472E+01  0.4222450E+06 -0.1727135E+01
  0.1690476E+01  0.2201378E+06 -0.1753379E+01  0.1238081E+06 -0.1631116E+01  0.4153466E+06 -0.1761963E+01
  0.1721429E+01  0.2152034E+06 -0.1788873E+01  0.1242914E+06 -0.1764702E+01  0.4080906E+06 -0.1800037E+01
  0.1752381E+01  0.2102076E+06 -0.1827157E+01  0.1267508E+06 -0.1891828E+01  0.4005513E+06 -0.1841402E+01
  0.1783333E+01  0.2052236E+06 -0.1868158E+01  0.1308402E+06 -0.2007992E+01  0.3928585E+06 -0.1886121E+01
  0.1814286E+01  0.2002747E+06 -0.1911926E+01  0.1361226E+06 -0.2111909E+01  0.3851479E+06 -0.1934231E+01
  0.1845238E+01  0.1954026E+06 -0.1958421E+01  0.1420851E+06 -0.2202698E+01  0.3775239E+06 -0.1985736E+01
  0.1876190E+01  0.1906440E+06 -0.2007610E+01  0.1483045E+06 -0.2281871E+01  0.3701425E+06 -0.2040528E+01
  0.1907143E+01  0.1860398E+06 -0.2059326E+01  0.1543877E+06 -0.2351098E+01  0.3630459E+06 -0.2098601E+01
  0.1938095E+01  0.1816140E+06 -0.2113399E+01  0.1600317E+06 -0.2412266E+01  0.3563217E+06 -0.2159918E+01
  0.1969048E+01  0.1773621E+06 -0.2169800E+01  0.1649629E+06 -0.2467603E+01  0.3500191E+06 -0.2224132E+01
  0.2000000E+01  0.1732937E+06 -0.2228446E+01  0.1691292E+06 -0.2519131E+01  0.3442233E+06 -0.2290999E+01
