VARIABLES="w (rad/s)"
"abs(F   1   1)" "angle(F   1   1)"
"abs(F   1   2)" "angle(F   1   2)"
"abs(F   1   3)" "angle(F   1   3)"
Zone t="Diffraction force - beta =   0.000 deg",I=    64,F=POINT
  0.5000000E-01  0.1009690E+04 -0.1570794E+01  0.1501669E+03 -0.3105964E+01  0.1873002E+04  0.1570798E+01
  0.8095238E-01  0.1655048E+04 -0.1570791E+01  0.3906042E+03 -0.3104878E+01  0.3067766E+04  0.1570801E+01
  0.1119048E+00  0.2316360E+04 -0.1570786E+01  0.7412342E+03 -0.3103380E+01  0.4294041E+04  0.1570805E+01
  0.1428571E+00  0.2994953E+04 -0.1570778E+01  0.1204292E+04 -0.3101538E+01  0.5551896E+04  0.1570811E+01
  0.1738095E+00  0.3705808E+04 -0.1570766E+01  0.1776243E+04 -0.3099129E+01  0.6875967E+04  0.1570821E+01
  0.2047619E+00  0.4462323E+04 -0.1570748E+01  0.2460073E+04 -0.3096107E+01  0.8270126E+04  0.1570835E+01
  0.2357143E+00  0.5245036E+04 -0.1570723E+01  0.3261762E+04 -0.3092389E+01  0.9740781E+04  0.1570855E+01
  0.2666667E+00  0.6110934E+04 -0.1570686E+01  0.4162714E+04 -0.3087675E+01  0.1134537E+05  0.1570884E+01
  0.2976190E+00  0.7048732E+04 -0.1570632E+01  0.5189735E+04 -0.3081933E+01  0.1308277E+05  0.1570928E+01
  0.3285715E+00  0.8058973E+04 -0.1570551E+01  0.6305966E+04 -0.3074827E+01  0.1498008E+05  0.1570993E+01
  0.3595238E+00  0.9188839E+04 -0.1570430E+01  0.7551383E+04 -0.3066476E+01  0.1708614E+05  0.1571089E+01
  0.3904762E+00  0.1044708E+05 -0.1570250E+01  0.8861161E+04 -0.3056195E+01  0.1942684E+05  0.1571233E+01
  0.4214286E+00  0.1181675E+05 -0.1569987E+01  0.1027773E+05 -0.3045000E+01  0.2200069E+05  0.1571444E+01
  0.4523810E+00  0.1332787E+05 -0.1569601E+01  0.1174969E+05 -0.3031690E+01  0.2485072E+05  0.1571753E+01
  0.4833333E+00  0.1501905E+05 -0.1569071E+01  0.1327509E+05 -0.3018407E+01  0.2799552E+05  0.1572178E+01
  0.5142857E+00  0.1684983E+05 -0.1568337E+01  0.1485863E+05 -0.3004113E+01  0.3138890E+05  0.1572769E+01
  0.5452381E+00  0.1878379E+05 -0.1567359E+01  0.1642688E+05 -0.2989426E+01  0.3502724E+05  0.1573555E+01
  0.5761905E+00  0.2081316E+05 -0.1566089E+01  0.1806631E+05 -0.2975663E+01  0.3889744E+05  0.1574574E+01
  0.6071429E+00  0.2308039E+05 -0.1564478E+01  0.1965079E+05 -0.2960812E+01  0.4308130E+05  0.1575877E+01
  0.6380953E+00  0.2539479E+05 -0.1562467E+01  0.2124080E+05 -0.2947019E+01  0.4737561E+05  0.1577504E+01
  0.6690477E+00  0.2779013E+05 -0.1559977E+01  0.2288184E+05 -0.2934042E+01  0.5188246E+05  0.1579517E+01
  0.7000000E+00  0.3028853E+05 -0.1556934E+01  0.2440368E+05 -0.2920002E+01  0.5658443E+05  0.1581981E+01
  0.7309524E+00  0.3284052E+05 -0.1553278E+01  0.2590626E+05 -0.2906666E+01  0.6137000E+05  0.1584943E+01
  0.7619048E+00  0.3557450E+05 -0.1548976E+01  0.2742707E+05 -0.2894182E+01  0.6645799E+05  0.1588441E+01
  0.7928572E+00  0.3838090E+05 -0.1543900E+01  0.2887043E+05 -0.2881763E+01  0.7158780E+05  0.1592594E+01
  0.8238096E+00  0.4125031E+05 -0.1537968E+01  0.3018325E+05 -0.2868734E+01  0.7693801E+05  0.1597441E+01
  0.8547620E+00  0.4409180E+05 -0.1531052E+01  0.3146604E+05 -0.2856472E+01  0.8221759E+05  0.1603101E+01
  0.8857143E+00  0.4696490E+05 -0.1523097E+01  0.3273400E+05 -0.2845157E+01  0.8765018E+05  0.1609599E+01
  0.9166667E+00  0.4992436E+05 -0.1514119E+01  0.3387410E+05 -0.2833847E+01  0.9311316E+05  0.1616965E+01
  0.9476191E+00  0.5302296E+05 -0.1504188E+01  0.3485373E+05 -0.2821975E+01  0.9876531E+05  0.1625130E+01
  0.9785714E+00  0.5603739E+05 -0.1492974E+01  0.3576591E+05 -0.2810786E+01  0.1042035E+06  0.1634396E+01
  0.1009524E+01  0.5903873E+05 -0.1480482E+01  0.3664211E+05 -0.2800473E+01  0.1097605E+06  0.1644691E+01
  0.1040476E+01  0.6196137E+05 -0.1466612E+01  0.3747123E+05 -0.2791298E+01  0.1150560E+06  0.1656182E+01
  0.1071429E+01  0.6487722E+05 -0.1451433E+01  0.3800039E+05 -0.2780448E+01  0.1203665E+06  0.1668757E+01
  0.1102381E+01  0.6759705E+05 -0.1434708E+01  0.3847140E+05 -0.2770338E+01  0.1254240E+06  0.1682571E+01
  0.1133333E+01  0.7011252E+05 -0.1416492E+01  0.3885160E+05 -0.2760759E+01  0.1300257E+06  0.1697612E+01
  0.1164286E+01  0.7257267E+05 -0.1397304E+01  0.3917843E+05 -0.2752039E+01  0.1345760E+06  0.1713357E+01
  0.1195238E+01  0.7483637E+05 -0.1376989E+01  0.3945193E+05 -0.2744541E+01  0.1385406E+06  0.1730096E+01
  0.1226190E+01  0.7692478E+05 -0.1355413E+01  0.3944309E+05 -0.2735997E+01  0.1421937E+06  0.1747893E+01
  0.1257143E+01  0.7863316E+05 -0.1332267E+01  0.3932649E+05 -0.2727422E+01  0.1453142E+06  0.1766831E+01
  0.1288095E+01  0.8005330E+05 -0.1308004E+01  0.3913160E+05 -0.2719809E+01  0.1478096E+06  0.1786717E+01
  0.1319048E+01  0.8108536E+05 -0.1282499E+01  0.3886452E+05 -0.2712476E+01  0.1497168E+06  0.1807407E+01
  0.1350000E+01  0.8178971E+05 -0.1256687E+01  0.3854043E+05 -0.2706050E+01  0.1510435E+06  0.1828066E+01
  0.1380952E+01  0.8206247E+05 -0.1230165E+01  0.3817790E+05 -0.2700914E+01  0.1514717E+06  0.1849209E+01
  0.1411905E+01  0.8177490E+05 -0.1202237E+01  0.3754396E+05 -0.2694864E+01  0.1510936E+06  0.1870996E+01
  0.1442857E+01  0.8121170E+05 -0.1174360E+01  0.3680908E+05 -0.2689256E+01  0.1501555E+06  0.1892627E+01
  0.1473810E+01  0.8011820E+05 -0.1145924E+01  0.3602796E+05 -0.2684495E+01  0.1482796E+06  0.1914321E+01
  0.1504762E+01  0.7852205E+05 -0.1117752E+01  0.3518816E+05 -0.2680587E+01  0.1454307E+06  0.1935239E+01
  0.1535714E+01  0.7651984E+05 -0.1089769E+01  0.3431052E+05 -0.2677365E+01  0.1420921E+06  0.1955376E+01
  0.1566667E+01  0.7402477E+05 -0.1061678E+01  0.3341254E+05 -0.2675046E+01  0.1378880E+06  0.1974977E+01
  0.1597619E+01  0.7106909E+05 -0.1033844E+01  0.3250582E+05 -0.2673919E+01  0.1328441E+06  0.1993494E+01
  0.1628572E+01  0.6776500E+05 -0.1006743E+01  0.3137534E+05 -0.2673470E+01  0.1271803E+06  0.2010313E+01
  0.1659524E+01  0.6411337E+05 -0.9808953E+00  0.3020541E+05 -0.2673912E+01  0.1210626E+06  0.2024884E+01
  0.1690476E+01  0.6002891E+05 -0.9553716E+00  0.2903695E+05 -0.2675487E+01  0.1142725E+06  0.2037757E+01
  0.1721429E+01  0.5553960E+05 -0.9304205E+00  0.2786574E+05 -0.2678357E+01  0.1067460E+06  0.2048213E+01
  0.1752381E+01  0.5079994E+05 -0.9064245E+00  0.2669047E+05 -0.2682170E+01  0.9896413E+05  0.2055733E+01
  0.1783333E+01  0.4584612E+05 -0.8837785E+00  0.2553613E+05 -0.2687421E+01  0.9099948E+05  0.2059431E+01
  0.1814286E+01  0.4062789E+05 -0.8623130E+00  0.2441694E+05 -0.2693983E+01  0.8260971E+05  0.2058280E+01
  0.1845238E+01  0.3521456E+05 -0.8419716E+00  0.2333806E+05 -0.2701614E+01  0.7399504E+05  0.2051205E+01
  0.1876190E+01  0.2968423E+05 -0.8231189E+00  0.2217774E+05 -0.2712328E+01  0.6524597E+05  0.2035680E+01
  0.1907143E+01  0.2406941E+05 -0.8064740E+00  0.2103640E+05 -0.2724341E+01  0.5655225E+05  0.2008889E+01
  0.1938095E+01  0.1833365E+05 -0.7908518E+00  0.1996204E+05 -0.2736830E+01  0.4791440E+05  0.1966876E+01
  0.1969048E+01  0.1251583E+05 -0.7776539E+00  0.1893699E+05 -0.2749951E+01  0.3940679E+05  0.1899065E+01
  0.2000000E+01  0.6663129E+04 -0.7704336E+00  0.1795804E+05 -0.2763377E+01  0.3129947E+05  0.1787682E+01
