VARIABLES="w (rad/s)"
"abs(F   1   1)" "angle(F   1   1)"
"abs(F   1   2)" "angle(F   1   2)"
"abs(F   1   3)" "angle(F   1   3)"
Zone t="Diffraction force - beta =   0.000 deg",I=    64,F=POINT
  0.5000000E-01  0.2486997E+04 -0.1570796E+01  0.1598150E+06 -0.1081204E-04  0.6021262E+04  0.1570801E+01
  0.8095238E-01  0.4066578E+04 -0.1570802E+01  0.1593660E+06 -0.2905738E-04  0.9841632E+04  0.1570803E+01
  0.1119048E+00  0.5679869E+04 -0.1570792E+01  0.1587058E+06 -0.5761003E-04  0.1373698E+05  0.1570795E+01
  0.1428571E+00  0.7340959E+04 -0.1570792E+01  0.1578356E+06 -0.9861874E-04  0.1774071E+05  0.1570800E+01
  0.1738095E+00  0.9072387E+04 -0.1570787E+01  0.1567558E+06 -0.1551749E-03  0.2191425E+05  0.1570806E+01
  0.2047619E+00  0.1089642E+05 -0.1570783E+01  0.1554662E+06 -0.2319759E-03  0.2628769E+05  0.1570813E+01
  0.2357143E+00  0.1282124E+05 -0.1570775E+01  0.1539745E+06 -0.3357627E-03  0.3090969E+05  0.1570816E+01
  0.2666667E+00  0.1489046E+05 -0.1570766E+01  0.1522748E+06 -0.4743695E-03  0.3586525E+05  0.1570831E+01
  0.2976190E+00  0.1713252E+05 -0.1570752E+01  0.1503800E+06 -0.6622147E-03  0.4120038E+05  0.1570840E+01
  0.3285715E+00  0.1957701E+05 -0.1570724E+01  0.1482840E+06 -0.9122579E-03  0.4701536E+05  0.1570866E+01
  0.3595238E+00  0.2225131E+05 -0.1570693E+01  0.1460098E+06 -0.1247433E-02  0.5337334E+05  0.1570900E+01
  0.3904762E+00  0.2521152E+05 -0.1570641E+01  0.1435429E+06 -0.1690771E-02  0.6036260E+05  0.1570952E+01
  0.4214286E+00  0.2846534E+05 -0.1570567E+01  0.1409313E+06 -0.2257471E-02  0.6802805E+05  0.1571026E+01
  0.4523810E+00  0.3204865E+05 -0.1570457E+01  0.1381510E+06 -0.2993000E-02  0.7644662E+05  0.1571136E+01
  0.4833333E+00  0.3592962E+05 -0.1570303E+01  0.1352438E+06 -0.3867827E-02  0.8554115E+05  0.1571288E+01
  0.5142857E+00  0.4014360E+05 -0.1570090E+01  0.1322141E+06 -0.4939873E-02  0.9533320E+05  0.1571502E+01
  0.5452381E+00  0.4464962E+05 -0.1569808E+01  0.1290578E+06 -0.6185080E-02  0.1057781E+06  0.1571784E+01
  0.5761905E+00  0.4939223E+05 -0.1569439E+01  0.1258317E+06 -0.7605068E-02  0.1167615E+06  0.1572153E+01
  0.6071429E+00  0.5440656E+05 -0.1568960E+01  0.1224976E+06 -0.9250737E-02  0.1282661E+06  0.1572632E+01
  0.6380953E+00  0.5959752E+05 -0.1568363E+01  0.1190867E+06 -0.1106102E-01  0.1400868E+06  0.1573230E+01
  0.6690477E+00  0.6499494E+05 -0.1567618E+01  0.1156279E+06 -0.1309301E-01  0.1523279E+06  0.1573974E+01
  0.7000000E+00  0.7059961E+05 -0.1566700E+01  0.1120952E+06 -0.1537018E-01  0.1649185E+06  0.1574892E+01
  0.7309524E+00  0.7631388E+05 -0.1565589E+01  0.1085116E+06 -0.1785985E-01  0.1777481E+06  0.1576003E+01
  0.7619048E+00  0.8220345E+05 -0.1564252E+01  0.1049273E+06 -0.2060085E-01  0.1908675E+06  0.1577340E+01
  0.7928572E+00  0.8822684E+05 -0.1562660E+01  0.1013049E+06 -0.2360528E-01  0.2040486E+06  0.1578934E+01
  0.8238096E+00  0.9443443E+05 -0.1560776E+01  0.9764121E+05 -0.2688870E-01  0.2175604E+06  0.1580815E+01
  0.8547620E+00  0.1006680E+06 -0.1558572E+01  0.9401870E+05 -0.3042302E-01  0.2309836E+06  0.1583020E+01
  0.8857143E+00  0.1070514E+06 -0.1556007E+01  0.9041006E+05 -0.3426122E-01  0.2446901E+06  0.1585585E+01
  0.9166667E+00  0.1135008E+06 -0.1553049E+01  0.8679609E+05 -0.3840433E-01  0.2583397E+06  0.1588544E+01
  0.9476191E+00  0.1200882E+06 -0.1549661E+01  0.8318666E+05 -0.4288404E-01  0.2721936E+06  0.1591931E+01
  0.9785714E+00  0.1266545E+06 -0.1545809E+01  0.7964784E+05 -0.4763058E-01  0.2857068E+06  0.1595782E+01
  0.1009524E+01  0.1333130E+06 -0.1541449E+01  0.7617094E+05 -0.5271814E-01  0.2992753E+06  0.1600142E+01
  0.1040476E+01  0.1399737E+06 -0.1536549E+01  0.7273397E+05 -0.5815963E-01  0.3126145E+06  0.1605042E+01
  0.1071429E+01  0.1467052E+06 -0.1531071E+01  0.6933507E+05 -0.6399883E-01  0.3258911E+06  0.1610518E+01
  0.1102381E+01  0.1533989E+06 -0.1524978E+01  0.6597216E+05 -0.7028794E-01  0.3389926E+06  0.1616611E+01
  0.1133333E+01  0.1599516E+06 -0.1518249E+01  0.6274539E+05 -0.7674707E-01  0.3515187E+06  0.1623339E+01
  0.1164286E+01  0.1664828E+06 -0.1510842E+01  0.5959462E+05 -0.8365689E-01  0.3639458E+06  0.1630747E+01
  0.1195238E+01  0.1729079E+06 -0.1502777E+01  0.5651691E+05 -0.9099678E-01  0.3757964E+06  0.1638809E+01
  0.1226190E+01  0.1792621E+06 -0.1494041E+01  0.5350576E+05 -0.9884333E-01  0.3871241E+06  0.1647541E+01
  0.1257143E+01  0.1854365E+06 -0.1484628E+01  0.5056782E+05 -0.1073158E+00  0.3979543E+06  0.1656950E+01
  0.1288095E+01  0.1915036E+06 -0.1474466E+01  0.4771909E+05 -0.1161212E+00  0.4081917E+06  0.1667106E+01
  0.1319048E+01  0.1971542E+06 -0.1463652E+01  0.4502356E+05 -0.1249740E+00  0.4173112E+06  0.1677912E+01
  0.1350000E+01  0.2026408E+06 -0.1452118E+01  0.4241835E+05 -0.1344318E+00  0.4260506E+06  0.1689448E+01
  0.1380952E+01  0.2077538E+06 -0.1439963E+01  0.3989807E+05 -0.1444489E+00  0.4336387E+06  0.1701597E+01
  0.1411905E+01  0.2122382E+06 -0.1427350E+01  0.3746591E+05 -0.1550942E+00  0.4400436E+06  0.1714204E+01
  0.1442857E+01  0.2167355E+06 -0.1414042E+01  0.3512239E+05 -0.1665504E+00  0.4460719E+06  0.1727507E+01
  0.1473810E+01  0.2206370E+06 -0.1400259E+01  0.3286236E+05 -0.1789252E+00  0.4507927E+06  0.1741292E+01
  0.1504762E+01  0.2240099E+06 -0.1386249E+01  0.3074611E+05 -0.1907044E+00  0.4539940E+06  0.1755265E+01
  0.1535714E+01  0.2269483E+06 -0.1371955E+01  0.2873954E+05 -0.2030110E+00  0.4561802E+06  0.1769543E+01
  0.1566667E+01  0.2294703E+06 -0.1357414E+01  0.2682820E+05 -0.2159126E+00  0.4575364E+06  0.1784096E+01
  0.1597619E+01  0.2312892E+06 -0.1342970E+01  0.2500060E+05 -0.2296061E+00  0.4570336E+06  0.1798496E+01
  0.1628572E+01  0.2326500E+06 -0.1328533E+01  0.2325947E+05 -0.2441575E+00  0.4555938E+06  0.1812906E+01
  0.1659524E+01  0.2335496E+06 -0.1314221E+01  0.2160896E+05 -0.2595557E+00  0.4532679E+06  0.1827191E+01
  0.1690476E+01  0.2337250E+06 -0.1300228E+01  0.2004294E+05 -0.2759932E+00  0.4495512E+06  0.1841186E+01
  0.1721429E+01  0.2333056E+06 -0.1286820E+01  0.1856612E+05 -0.2925706E+00  0.4445221E+06  0.1854540E+01
  0.1752381E+01  0.2323006E+06 -0.1274171E+01  0.1718736E+05 -0.3087114E+00  0.4381790E+06  0.1867086E+01
  0.1783333E+01  0.2308719E+06 -0.1262074E+01  0.1590349E+05 -0.3250793E+00  0.4312351E+06  0.1879193E+01
  0.1814286E+01  0.2289987E+06 -0.1250773E+01  0.1469431E+05 -0.3421575E+00  0.4235194E+06  0.1890516E+01
  0.1845238E+01  0.2265429E+06 -0.1240664E+01  0.1355082E+05 -0.3604233E+00  0.4144859E+06  0.1900498E+01
  0.1876190E+01  0.2237432E+06 -0.1231488E+01  0.1247605E+05 -0.3798093E+00  0.4049579E+06  0.1909589E+01
  0.1907143E+01  0.2206273E+06 -0.1223321E+01  0.1147606E+05 -0.3996769E+00  0.3950541E+06  0.1917691E+01
  0.1938095E+01  0.2171509E+06 -0.1216366E+01  0.1054080E+05 -0.4205496E+00  0.3846651E+06  0.1924676E+01
  0.1969048E+01  0.2133038E+06 -0.1210893E+01  0.9663120E+04 -0.4431896E+00  0.3736303E+06  0.1930092E+01
  0.2000000E+01  0.2091520E+06 -0.1206922E+01  0.8842821E+04 -0.4652711E+00  0.3620745E+06  0.1933825E+01
