VARIABLES="w (rad/s)"
"A   1   1" "B   1   1"
"A   1   2" "B   1   2"
"A   1   3" "B   1   3"
Zone t="Motion of body    1 in DoF   1",I=    64,F=POINT
  0.5000000E-01  0.7124879E+05  0.4316695E-02 -0.2632141E-02 -0.1391030E-04 -0.1719081E+06 -0.1044675E-01
  0.8095238E-01  0.7188407E+05  0.1901632E-01 -0.1884909E-03 -0.1920640E-04 -0.1733805E+06 -0.4609263E-01
  0.1119048E+00  0.7213459E+05  0.5330605E-01  0.3255479E-02  0.9033538E-06 -0.1738651E+06 -0.1289243E+00
  0.1428571E+00  0.7222720E+05  0.1198667E+00  0.7183074E-02  0.4878803E-04 -0.1739662E+06 -0.2896316E+00
  0.1738095E+00  0.7234521E+05  0.2383024E+00  0.1382697E-02  0.7435214E-05 -0.1742787E+06 -0.5755931E+00
  0.2047619E+00  0.7251586E+05  0.4396442E+00 -0.1639433E-02 -0.5483814E-04 -0.1744765E+06 -0.1060670E+01
  0.2357143E+00  0.7253763E+05  0.7723997E+00  0.1472704E-02  0.2791174E-05 -0.1745630E+06 -0.1862122E+01
  0.2666667E+00  0.7265895E+05  0.1315448E+01 -0.4291534E-03 -0.2579950E-04 -0.1748488E+06 -0.3168490E+01
  0.2976190E+00  0.7282995E+05  0.2203741E+01 -0.1743164E-02 -0.1034848E-03 -0.1750492E+06 -0.5300209E+01
  0.3285715E+00  0.7300790E+05  0.3639734E+01  0.1857591E-03 -0.6320328E-04 -0.1753958E+06 -0.8741567E+01
  0.3595238E+00  0.7313877E+05  0.5963107E+01  0.4668583E-03 -0.3494695E-04 -0.1757278E+06 -0.1430381E+02
  0.3904762E+00  0.7338228E+05  0.9700520E+01  0.4513438E-02  0.2085865E-03 -0.1761349E+06 -0.2322514E+02
  0.4214286E+00  0.7359641E+05  0.1557081E+02  0.2063816E-02  0.6517768E-04 -0.1765188E+06 -0.3720935E+02
  0.4523810E+00  0.7389182E+05  0.2478159E+02 -0.2512882E-02 -0.3809780E-03 -0.1771158E+06 -0.5911089E+02
  0.4833333E+00  0.7409985E+05  0.3843129E+02  0.1262796E-03  0.1039803E-03 -0.1775455E+06 -0.9148987E+02
  0.5142857E+00  0.7443849E+05  0.5867632E+02  0.4153782E-03 -0.2637506E-04 -0.1781013E+06 -0.1393392E+03
  0.5452381E+00  0.7481815E+05  0.8745401E+02  0.8955377E-03 -0.2505183E-03 -0.1788312E+06 -0.2071773E+03
  0.5761905E+00  0.7514566E+05  0.1271962E+03 -0.7150192E-03 -0.3513098E-03 -0.1795767E+06 -0.3006737E+03
  0.6071429E+00  0.7561985E+05  0.1817504E+03 -0.2412684E-02 -0.8556843E-03 -0.1804992E+06 -0.4284833E+03
  0.6380953E+00  0.7602033E+05  0.2538105E+03 -0.4663040E-02 -0.1558185E-02 -0.1812009E+06 -0.5965783E+03
  0.6690477E+00  0.7649844E+05  0.3484784E+03 -0.8438490E-03 -0.1721382E-03 -0.1821469E+06 -0.8166997E+03
  0.7000000E+00  0.7707968E+05  0.4715233E+03 -0.2376011E-02 -0.1082182E-02 -0.1832339E+06 -0.1101455E+04
  0.7309524E+00  0.7758296E+05  0.6277000E+03 -0.1711768E-02 -0.6198883E-03 -0.1843164E+06 -0.1462012E+04
  0.7619048E+00  0.7817855E+05  0.8249427E+03 -0.1201630E-02 -0.3690720E-03 -0.1855758E+06 -0.1915401E+04
  0.7928572E+00  0.7878884E+05  0.1071042E+04  0.9045299E-03 -0.2508163E-03 -0.1866270E+06 -0.2477027E+04
  0.8238096E+00  0.7953633E+05  0.1375900E+04  0.1555867E-02 -0.6675720E-05 -0.1880463E+06 -0.3169762E+04
  0.8547620E+00  0.8016287E+05  0.1747224E+04 -0.3213271E-03 -0.5588531E-03 -0.1891668E+06 -0.4008905E+04
  0.8857143E+00  0.8090563E+05  0.2198533E+04 -0.1722766E-03 -0.1277924E-02 -0.1906689E+06 -0.5025146E+04
  0.9166667E+00  0.8163614E+05  0.2740308E+04  0.1930930E-02 -0.6809235E-03 -0.1920438E+06 -0.6237149E+04
  0.9476191E+00  0.8248462E+05  0.3387685E+04 -0.3864537E-02 -0.4085541E-02 -0.1937223E+06 -0.7678418E+04
  0.9785714E+00  0.8322966E+05  0.4150121E+04  0.2806726E-03 -0.3356934E-03 -0.1950003E+06 -0.9361252E+04
  0.1009524E+01  0.8405170E+05  0.5047398E+04  0.1934699E-02 -0.2246857E-02 -0.1964748E+06 -0.1133024E+05
  0.1040476E+01  0.8484558E+05  0.6092063E+04  0.2023797E-02  0.5378723E-03 -0.1978140E+06 -0.1360495E+05
  0.1071429E+01  0.8570813E+05  0.7304365E+04  0.8544922E-04 -0.2094269E-02 -0.1992528E+06 -0.1622459E+05
  0.1102381E+01  0.8653869E+05  0.8697900E+04 -0.4706166E-03 -0.8697510E-03 -0.2007165E+06 -0.1921983E+05
  0.1133333E+01  0.8723306E+05  0.1028135E+05 -0.1965691E-02 -0.1277924E-02 -0.2017930E+06 -0.2259246E+05
  0.1164286E+01  0.8795230E+05  0.1208174E+05  0.3066736E-02 -0.7629395E-04 -0.2030511E+06 -0.2640985E+05
  0.1195238E+01  0.8859816E+05  0.1410078E+05  0.3063916E-03 -0.7019043E-03 -0.2039989E+06 -0.3064336E+05
  0.1226190E+01  0.8921434E+05  0.1635524E+05  0.1319070E-02  0.1060486E-02 -0.2047354E+06 -0.3531427E+05
  0.1257143E+01  0.8973566E+05  0.1884833E+05  0.4126809E-03 -0.1350403E-02 -0.2053366E+06 -0.4044144E+05
  0.1288095E+01  0.9021688E+05  0.2161218E+05  0.2843042E-03  0.1411438E-02 -0.2057285E+06 -0.4605575E+05
  0.1319048E+01  0.9041742E+05  0.2460084E+05  0.1596389E-02 -0.1419067E-02 -0.2055085E+06 -0.5205629E+05
  0.1350000E+01  0.9058710E+05  0.2786452E+05  0.3842954E-03 -0.1708984E-02 -0.2053605E+06 -0.5856988E+05
  0.1380952E+01  0.9053488E+05  0.3135675E+05  0.1060749E-02 -0.1556396E-02 -0.2046242E+06 -0.6543087E+05
  0.1411905E+01  0.9013966E+05  0.3500447E+05 -0.3026026E-03  0.2899170E-03 -0.2033923E+06 -0.7255441E+05
  0.1442857E+01  0.8984860E+05  0.3895566E+05  0.8037303E-03  0.8087158E-03 -0.2022195E+06 -0.8014859E+05
  0.1473810E+01  0.8924528E+05  0.4306084E+05  0.4555451E-03 -0.4974365E-02 -0.2005066E+06 -0.8795204E+05
  0.1504762E+01  0.8836949E+05  0.4725183E+05  0.1379085E-02  0.1296997E-02 -0.1980652E+06 -0.9571365E+05
  0.1535714E+01  0.8733097E+05  0.5155559E+05 -0.1013467E-02 -0.1312256E-02 -0.1953604E+06 -0.1035708E+06
  0.1566667E+01  0.8617483E+05  0.5596232E+05  0.2941375E-02  0.6591797E-02 -0.1925450E+06 -0.1115254E+06
  0.1597619E+01  0.8466745E+05  0.6028332E+05  0.7640765E-03  0.1998901E-02 -0.1888763E+06 -0.1190413E+06
  0.1628572E+01  0.8304237E+05  0.6460093E+05 -0.8245099E-03  0.1983643E-03 -0.1850754E+06 -0.1264122E+06
  0.1659524E+01  0.8131209E+05  0.6886901E+05  0.1268866E-02 -0.1861572E-02 -0.1811560E+06 -0.1335399E+06
  0.1690476E+01  0.7932588E+05  0.7294732E+05  0.1570581E-02  0.8239746E-03 -0.1768897E+06 -0.1401857E+06
  0.1721429E+01  0.7716502E+05  0.7677096E+05  0.1772805E-02  0.1724243E-02 -0.1722752E+06 -0.1461146E+06
  0.1752381E+01  0.7484902E+05  0.8028066E+05  0.9578208E-03  0.2136230E-03 -0.1673587E+06 -0.1512086E+06
  0.1783333E+01  0.7251876E+05  0.8359590E+05  0.1214999E-02  0.1083374E-02 -0.1626288E+06 -0.1559315E+06
  0.1814286E+01  0.7015968E+05  0.8662510E+05  0.2253975E-02  0.4882812E-03 -0.1579391E+06 -0.1599914E+06
  0.1845238E+01  0.6766021E+05  0.8916930E+05  0.1008852E-02 -0.2288818E-03 -0.1529473E+06 -0.1628649E+06
  0.1876190E+01  0.6520629E+05  0.9142428E+05  0.1333789E-02  0.2288818E-02 -0.1481784E+06 -0.1651558E+06
  0.1907143E+01  0.6281196E+05  0.9337016E+05  0.5440587E-03  0.7781982E-03 -0.1436312E+06 -0.1668060E+06
  0.1938095E+01  0.6046137E+05  0.9496224E+05  0.2220210E-02  0.1144409E-02 -0.1393248E+06 -0.1678359E+06
  0.1969048E+01  0.5812155E+05  0.9609465E+05 -0.1286388E-02  0.4577637E-03 -0.1350942E+06 -0.1679216E+06
  0.2000000E+01  0.5581437E+05  0.9676828E+05  0.2517700E-02  0.4272461E-03 -0.1309261E+06 -0.1669561E+06
Zone t="Motion of body    1 in DoF   2",I=    64,F=POINT
  0.5000000E-01  0.2746582E-02  0.1180172E-04  0.2746399E+05  0.3451930E+02 -0.9307861E-02 -0.2002716E-04
  0.8095238E-01  0.1225191E-02 -0.8106232E-05  0.2725585E+05  0.5713331E+02 -0.3392837E-02  0.1239777E-04
  0.1119048E+00 -0.4431542E-03 -0.1406670E-04  0.2716862E+05  0.8159056E+02  0.1022664E-01 -0.1811981E-04
  0.1428571E+00 -0.5340576E-04 -0.1382828E-04  0.2710610E+05  0.1087847E+03  0.1708984E-02  0.2813339E-04
  0.1738095E+00  0.1075431E-02  0.3814697E-05  0.2708201E+05  0.1396839E+03  0.2809289E-02  0.4100800E-04
  0.2047619E+00 -0.2012031E-02  0.3147125E-04  0.2711742E+05  0.1757385E+03  0.3725983E-02  0.1039505E-03
  0.2357143E+00  0.3430915E-02  0.2765656E-04  0.2706919E+05  0.2187424E+03 -0.1294685E-01 -0.3242493E-04
  0.2666667E+00 -0.8583068E-04  0.1811981E-04  0.2711860E+05  0.2699966E+03 -0.5035400E-02  0.1144409E-03
  0.2976190E+00  0.1333008E-02  0.1907349E-04  0.2710639E+05  0.3332779E+03 -0.2050781E-02 -0.2307892E-03
  0.3285715E+00  0.2229110E-02 -0.1678467E-03  0.2717343E+05  0.4096929E+03 -0.9938114E-02  0.3490448E-03
  0.3595238E+00  0.1039821E-02 -0.3433228E-04  0.2714437E+05  0.5035595E+03  0.3565100E-02 -0.3280640E-03
  0.3904762E+00  0.1250476E-02  0.7820129E-04  0.2722471E+05  0.6168950E+03 -0.7971786E-02 -0.8735657E-03
  0.4214286E+00 -0.8689750E-03  0.1144409E-03  0.2713158E+05  0.7479033E+03  0.3186242E-02  0.1907349E-03
  0.4523810E+00  0.3507915E-02 -0.1831055E-03  0.2712201E+05  0.9035547E+03 -0.2023797E-02  0.7743835E-03
  0.4833333E+00  0.3819959E-02  0.7247925E-04  0.2702030E+05  0.1066808E+04 -0.2146754E-02 -0.2059937E-03
  0.5142857E+00 -0.1394484E-02  0.1525879E-03  0.2688997E+05  0.1247646E+04 -0.1186795E-03 -0.1335144E-02
  0.5452381E+00  0.2798555E-04  0.2822876E-03  0.2679878E+05  0.1432484E+04  0.2798555E-02 -0.1152039E-02
  0.5761905E+00  0.8209480E-03 -0.3433228E-03  0.2656953E+05  0.1617257E+04  0.2012647E-02 -0.8239746E-03
  0.6071429E+00  0.6283030E-03 -0.5950928E-03  0.2640321E+05  0.1807723E+04  0.1708984E-02  0.4882812E-03
  0.6380953E+00  0.2989128E-02  0.2746582E-03  0.2621432E+05  0.1986087E+04 -0.8608690E-02 -0.9765625E-03
  0.6690477E+00  0.1824538E-02 -0.4119873E-03  0.2596292E+05  0.2161079E+04 -0.1368404E-02  0.1815796E-02
  0.7000000E+00  0.3945487E-02  0.2136230E-03  0.2576185E+05  0.2331358E+04 -0.4882812E-02  0.2990723E-02
  0.7309524E+00  0.8350086E-04 -0.1113892E-02  0.2556680E+05  0.2487139E+04  0.3841039E-02  0.1663208E-02
  0.7619048E+00 -0.9012222E-03 -0.1159668E-02  0.2528835E+05  0.2633085E+04  0.3684997E-02  0.2441406E-02
  0.7928572E+00  0.2020758E-02 -0.7934570E-03  0.2505300E+05  0.2766094E+04 -0.3541138E-02  0.7629395E-04
  0.8238096E+00  0.1000200E-02  0.6866455E-03  0.2488795E+05  0.2885168E+04 -0.1629956E-02  0.5477905E-02
  0.8547620E+00  0.1428121E-03 -0.1159668E-02  0.2462333E+05  0.2984176E+04  0.1856557E-02  0.2426147E-02
  0.8857143E+00 -0.6201959E-03  0.3814697E-03  0.2436410E+05  0.3068912E+04 -0.3307712E-02 -0.8087158E-03
  0.9166667E+00  0.2330433E-03  0.4577637E-04  0.2416192E+05  0.3135299E+04 -0.1598011E-02  0.3448486E-02
  0.9476191E+00  0.5635784E-03 -0.3204346E-03  0.2401664E+05  0.3186300E+04  0.3864537E-03  0.6408691E-03
  0.9785714E+00  0.2260974E-02  0.1312256E-02  0.2380434E+05  0.3210668E+04 -0.7235116E-02 -0.6866455E-03
  0.1009524E+01 -0.1005137E-02  0.5798340E-03  0.2358271E+05  0.3219447E+04  0.4232155E-02 -0.2700806E-02
  0.1040476E+01  0.1789154E-02 -0.6103516E-04  0.2339533E+05  0.3210618E+04 -0.8212510E-02  0.4318237E-02
  0.1071429E+01  0.3667196E-02  0.1342773E-02  0.2326162E+05  0.3189273E+04 -0.6038412E-02  0.1129150E-02
  0.1102381E+01  0.1529504E-02  0.8239746E-03  0.2319401E+05  0.3159550E+04 -0.4540066E-02 -0.4547119E-02
  0.1133333E+01  0.2544628E-02  0.7324219E-03  0.2301216E+05  0.3086092E+04 -0.5816292E-02  0.1876831E-02
  0.1164286E+01  0.2719434E-03 -0.1281738E-02  0.2286489E+05  0.3008377E+04  0.3145370E-03 -0.3005981E-02
  0.1195238E+01  0.3383074E-03  0.2441406E-03  0.2274442E+05  0.2918958E+04 -0.1327697E-02  0.2166748E-02
  0.1226190E+01 -0.2022160E-03 -0.8544922E-03  0.2267267E+05  0.2828001E+04 -0.1991050E-03 -0.2258301E-02
  0.1257143E+01  0.1601414E-02  0.4272461E-03  0.2264761E+05  0.2742400E+04 -0.4272461E-02 -0.7476807E-03
  0.1288095E+01  0.1296028E-02 -0.7019043E-03  0.2263093E+05  0.2641352E+04 -0.4643636E-02  0.7629395E-03
  0.1319048E+01  0.3651161E-03 -0.1434326E-02  0.2252051E+05  0.2482987E+04 -0.1758341E-02  0.6973267E-02
  0.1350000E+01  0.1282869E-02  0.1281738E-02  0.2245725E+05  0.2344292E+04 -0.3164786E-02  0.7934570E-03
  0.1380952E+01  0.9668284E-03 -0.1861572E-02  0.2241837E+05  0.2204999E+04 -0.3977809E-02  0.1998901E-02
  0.1411905E+01  0.1513013E-02 -0.6103516E-04  0.2241389E+05  0.2081871E+04 -0.3458316E-02  0.8544922E-03
  0.1442857E+01  0.6926886E-03 -0.1312256E-02  0.2244171E+05  0.1979405E+04 -0.1099841E-02  0.3456116E-02
  0.1473810E+01  0.3675421E-03 -0.1770020E-02  0.2251037E+05  0.1907455E+04  0.2567618E-02  0.1350403E-02
  0.1504762E+01  0.3244907E-03 -0.9155273E-04  0.2247883E+05  0.1716221E+04 -0.6489814E-03  0.1510620E-02
  0.1535714E+01  0.1043275E-02  0.2746582E-03  0.2246906E+05  0.1555568E+04 -0.2066679E-02 -0.2822876E-03
  0.1566667E+01  0.3652369E-03 -0.1373291E-02  0.2247215E+05  0.1409149E+04 -0.3038771E-02  0.3433228E-03
  0.1597619E+01  0.4202421E-03  0.4577637E-03  0.2249376E+05  0.1277825E+04 -0.2292229E-03 -0.1502991E-02
  0.1628572E+01  0.1442892E-02  0.3417969E-02  0.2253415E+05  0.1175927E+04 -0.4347416E-02 -0.2975464E-02
  0.1659524E+01  0.1066583E-02 -0.5493164E-03  0.2258651E+05  0.1103800E+04 -0.1765378E-02 -0.9994507E-03
  0.1690476E+01  0.5596321E-03  0.2593994E-02  0.2265840E+05  0.1074701E+04 -0.1805265E-02 -0.2326965E-02
  0.1721429E+01  0.1108003E-02  0.1556396E-02  0.2270737E+05  0.9802499E+03 -0.4254733E-03 -0.2170563E-02
  0.1752381E+01  0.8620387E-03  0.1129150E-02  0.2272536E+05  0.8050409E+03 -0.3065027E-02 -0.2208710E-02
  0.1783333E+01  0.5903868E-03  0.3662109E-03  0.2275799E+05  0.6942194E+03 -0.2738026E-03 -0.2155304E-02
  0.1814286E+01  0.9924221E-03 -0.3662109E-03  0.2279065E+05  0.5876420E+03 -0.3095011E-02 -0.1342773E-02
  0.1845238E+01  0.1265200E-02  0.4272461E-03  0.2283285E+05  0.5078829E+03 -0.6218498E-02  0.1300812E-02
  0.1876190E+01  0.9678100E-03  0.7781982E-03  0.2287970E+05  0.4568197E+03 -0.6506286E-03  0.2441406E-03
  0.1907143E+01  0.0000000E+00 -0.9307861E-03  0.2292426E+05  0.4290483E+03 -0.3584387E-02  0.5168915E-03
  0.1938095E+01  0.6613391E-03  0.1373291E-03  0.2297150E+05  0.4338489E+03 -0.1259694E-03  0.5168915E-03
  0.1969048E+01  0.2154312E-02  0.1113892E-02  0.2302191E+05  0.4688980E+03 -0.6819406E-02 -0.5245209E-03
  0.2000000E+01  0.3814697E-04  0.1831055E-03  0.2306145E+05  0.3451276E+03  0.2197266E-02 -0.1430511E-03
Zone t="Motion of body    1 in DoF   3",I=    64,F=POINT
  0.5000000E-01 -0.1720394E+06 -0.1043076E-01  0.8964539E-03  0.9307878E-05  0.5074493E+06  0.2533310E-01
  0.8095238E-01 -0.1734965E+06 -0.4607043E-01 -0.1069686E-01 -0.1435401E-04  0.5102855E+06  0.1117667E+00
  0.1119048E+00 -0.1739914E+06 -0.1288841E+00 -0.2212362E-01 -0.1520268E-03  0.5111026E+06  0.3116227E+00
  0.1428571E+00 -0.1740947E+06 -0.2896313E+00 -0.3444671E-02 -0.5889684E-05  0.5112769E+06  0.6996346E+00
  0.1738095E+00 -0.1744050E+06 -0.5755417E+00 -0.2405454E-01 -0.2398575E-03  0.5119038E+06  0.1390132E+01
  0.2047619E+00 -0.1746110E+06 -0.1060981E+01  0.6669510E-02  0.2088482E-03  0.5122212E+06  0.2559913E+01
  0.2357143E+00 -0.1746958E+06 -0.1862248E+01 -0.7250236E-02  0.5820673E-04  0.5124282E+06  0.4489933E+01
  0.2666667E+00 -0.1749605E+06 -0.3167946E+01 -0.8554459E-02 -0.1492277E-03  0.5129552E+06  0.7631317E+01
  0.2976190E+00 -0.1751855E+06 -0.5301385E+01  0.8049317E-02  0.4643872E-03  0.5133307E+06  0.1275095E+02
  0.3285715E+00 -0.1755231E+06 -0.8743473E+01 -0.5270916E-02  0.4878268E-03  0.5139833E+06  0.2099972E+02
  0.3595238E+00 -0.1758616E+06 -0.1430302E+02  0.1498191E-01  0.6834790E-03  0.5147331E+06  0.3430877E+02
  0.3904762E+00 -0.1762677E+06 -0.2322918E+02 -0.4357128E-02  0.2520829E-03  0.5154988E+06  0.5561501E+02
  0.4214286E+00 -0.1766644E+06 -0.3721618E+02 -0.2787961E-02  0.1522601E-03  0.5162187E+06  0.8893355E+02
  0.4523810E+00 -0.1772614E+06 -0.5912247E+02 -0.1507729E-01 -0.7840097E-03  0.5174338E+06  0.1410242E+03
  0.4833333E+00 -0.1776726E+06 -0.9149304E+02 -0.1243854E-01 -0.4420877E-03  0.5182886E+06  0.2178081E+03
  0.5142857E+00 -0.1782442E+06 -0.1393857E+03  0.1513163E-02 -0.1591444E-03  0.5193412E+06  0.3310004E+03
  0.5452381E+00 -0.1789627E+06 -0.2072581E+03 -0.4449703E-02 -0.5214214E-03  0.5207548E+06  0.4909933E+03
  0.5761905E+00 -0.1797248E+06 -0.3006911E+03 -0.5879047E-02 -0.1187801E-02  0.5223835E+06  0.7107903E+03
  0.6071429E+00 -0.1806419E+06 -0.4285529E+03  0.5830652E-02  0.1935720E-02  0.5241568E+06  0.1010352E+04
  0.6380953E+00 -0.1813231E+06 -0.5967598E+03  0.1989564E-01  0.5355358E-02  0.5254628E+06  0.1402669E+04
  0.6690477E+00 -0.1822972E+06 -0.8169111E+03  0.1277177E-02  0.8440018E-03  0.5274418E+06  0.1914522E+04
  0.7000000E+00 -0.1833871E+06 -0.1101953E+04  0.7520403E-02  0.2703190E-02  0.5295359E+06  0.2574136E+04
  0.7309524E+00 -0.1844390E+06 -0.1462185E+04  0.1381939E-01  0.4149437E-02  0.5317814E+06  0.3405643E+04
  0.7619048E+00 -0.1857149E+06 -0.1915084E+04 -0.2943992E-02  0.1391411E-02  0.5343969E+06  0.4446535E+04
  0.7928572E+00 -0.1867649E+06 -0.2477385E+04  0.1308682E-02  0.3297806E-02  0.5363646E+06  0.5729498E+04
  0.8238096E+00 -0.1881900E+06 -0.3170537E+04 -0.5630758E-02 -0.4444122E-03  0.5390999E+06  0.7304183E+04
  0.8547620E+00 -0.1892915E+06 -0.4010253E+04 -0.3855926E-02 -0.2624512E-02  0.5411189E+06  0.9201222E+04
  0.8857143E+00 -0.1908167E+06 -0.5025528E+04 -0.1119798E-01  0.1478195E-02  0.5441804E+06  0.1148667E+05
  0.9166667E+00 -0.1921822E+06 -0.6237490E+04 -0.1091974E-01  0.1525879E-04  0.5468294E+06  0.1419704E+05
  0.9476191E+00 -0.1938553E+06 -0.7677160E+04  0.1542594E-01  0.1131058E-01  0.5500226E+06  0.1740072E+05
  0.9785714E+00 -0.1951053E+06 -0.9360628E+04 -0.4085346E-02  0.3425598E-02  0.5521742E+06  0.2111393E+05
  0.1009524E+01 -0.1966061E+06 -0.1132955E+05 -0.1925630E-01 -0.5340576E-02  0.5549079E+06  0.2543182E+05
  0.1040476E+01 -0.1979525E+06 -0.1360570E+05 -0.3519647E-03  0.2044678E-02  0.5572102E+06  0.3038435E+05
  0.1071429E+01 -0.1993958E+06 -0.1622813E+05  0.4813639E-02  0.3669739E-02  0.5595806E+06  0.3604586E+05
  0.1102381E+01 -0.2008508E+06 -0.1922097E+05  0.2159300E-02  0.2006531E-02  0.5621430E+06  0.4247222E+05
  0.1133333E+01 -0.2019008E+06 -0.2259296E+05  0.7620419E-02  0.4936218E-02  0.5636131E+06  0.4964402E+05
  0.1164286E+01 -0.2031710E+06 -0.2640120E+05  0.7077082E-03  0.3128052E-02  0.5657320E+06  0.5770956E+05
  0.1195238E+01 -0.2041186E+06 -0.3062990E+05 -0.6970409E-02 -0.1602173E-02  0.5669316E+06  0.6656175E+05
  0.1226190E+01 -0.2048524E+06 -0.3530438E+05 -0.6296695E-02 -0.8331299E-02  0.5675520E+06  0.7622810E+05
  0.1257143E+01 -0.2054552E+06 -0.4042718E+05  0.5826083E-03 -0.4577637E-03  0.5678798E+06  0.8673762E+05
  0.1288095E+01 -0.2058332E+06 -0.4604477E+05  0.9239888E-03  0.5950928E-03  0.5676456E+06  0.9811625E+05
  0.1319048E+01 -0.2056074E+06 -0.5205104E+05 -0.9161883E-02  0.7019043E-03  0.5660586E+06  0.1101315E+06
  0.1350000E+01 -0.2054804E+06 -0.5855266E+05  0.2237956E-02  0.5187988E-02  0.5648947E+06  0.1230637E+06
  0.1380952E+01 -0.2047433E+06 -0.6541245E+05 -0.1900509E-02  0.1495361E-02  0.5623072E+06  0.1364823E+06
  0.1411905E+01 -0.2035038E+06 -0.7251252E+05 -0.6419498E-02 -0.3234863E-02  0.5589605E+06  0.1502940E+06
  0.1442857E+01 -0.2023313E+06 -0.8009004E+05  0.2601548E-02  0.4364014E-02  0.5554244E+06  0.1647624E+06
  0.1473810E+01 -0.2006035E+06 -0.8785853E+05 -0.1116085E-01  0.3234863E-02  0.5511024E+06  0.1794379E+06
  0.1504762E+01 -0.1981297E+06 -0.9560402E+05 -0.1241177E-01 -0.1068115E-02  0.5449079E+06  0.1936126E+06
  0.1535714E+01 -0.1954424E+06 -0.1034495E+06 -0.4391692E-02  0.3967285E-02  0.5385109E+06  0.2077789E+06
  0.1566667E+01 -0.1926566E+06 -0.1113712E+06 -0.4382844E-02 -0.3723145E-02  0.5320724E+06  0.2218867E+06
  0.1597619E+01 -0.1889838E+06 -0.1188890E+06 -0.5424943E-02 -0.7720947E-02  0.5237982E+06  0.2347172E+06
  0.1628572E+01 -0.1851799E+06 -0.1262544E+06 -0.6989596E-02 -0.4791260E-02  0.5154779E+06  0.2470280E+06
  0.1659524E+01 -0.1812666E+06 -0.1333566E+06 -0.5976541E-02  0.2349854E-02  0.5068818E+06  0.2585022E+06
  0.1690476E+01 -0.1770066E+06 -0.1399605E+06 -0.4350689E-02 -0.2838135E-02  0.4980995E+06  0.2688880E+06
  0.1721429E+01 -0.1723752E+06 -0.1458454E+06 -0.3900172E-03 -0.5096436E-02  0.4885462E+06  0.2774606E+06
  0.1752381E+01 -0.1674490E+06 -0.1509357E+06 -0.5416041E-02 -0.3997803E-02  0.4784522E+06  0.2840861E+06
  0.1783333E+01 -0.1627625E+06 -0.1556609E+06 -0.1309119E-02  0.9155273E-04  0.4692967E+06  0.2901911E+06
  0.1814286E+01 -0.1581118E+06 -0.1597020E+06 -0.8906567E-02 -0.3814697E-02  0.4602608E+06  0.2947095E+06
  0.1845238E+01 -0.1531162E+06 -0.1625800E+06 -0.5035991E-02  0.1129150E-02  0.4507163E+06  0.2967237E+06
  0.1876190E+01 -0.1483446E+06 -0.1648644E+06 -0.4050163E-02 -0.4150391E-02  0.4418812E+06  0.2976848E+06
  0.1907143E+01 -0.1438116E+06 -0.1664850E+06  0.1576170E-02  0.4699707E-02  0.4334407E+06  0.2971364E+06
  0.1938095E+01 -0.1395282E+06 -0.1674829E+06 -0.1089635E-01 -0.2532959E-02  0.4258838E+06  0.2956753E+06
  0.1969048E+01 -0.1353009E+06 -0.1675356E+06  0.7687330E-02  0.9155273E-04  0.4186452E+06  0.2925076E+06
  0.2000000E+01 -0.1311111E+06 -0.1665249E+06 -0.8537292E-02 -0.3417969E-02  0.4113030E+06  0.2867787E+06
