VARIABLES="w (rad/s)"
"abs(F   1   1)" "angle(F   1   1)"
"abs(F   1   2)" "angle(F   1   2)"
"abs(F   1   3)" "angle(F   1   3)"
Zone t="Diffraction force - beta =   0.000 deg",I=    64,F=POINT
  0.5000000E-01  0.8105222E+03 -0.1570795E+01  0.2222011E+03 -0.3091013E+01  0.1408665E+02 -0.1570794E+01
  0.8095238E-01  0.1325380E+04 -0.1570792E+01  0.5761761E+03 -0.3089217E+01  0.2287336E+02 -0.1570791E+01
  0.1119048E+00  0.1854059E+04 -0.1570788E+01  0.1094160E+04 -0.3086976E+01  0.3216642E+02 -0.1570786E+01
  0.1428571E+00  0.2402920E+04 -0.1570782E+01  0.1777538E+04 -0.3084159E+01  0.4142096E+02 -0.1570778E+01
  0.1738095E+00  0.2966031E+04 -0.1570773E+01  0.2628990E+04 -0.3080607E+01  0.5172114E+02 -0.1570766E+01
  0.2047619E+00  0.3567695E+04 -0.1570760E+01  0.3654082E+04 -0.3076188E+01  0.6206736E+02 -0.1570750E+01
  0.2357143E+00  0.4208545E+04 -0.1570741E+01  0.4854216E+04 -0.3070574E+01  0.7423907E+02 -0.1570725E+01
  0.2666667E+00  0.4884792E+04 -0.1570713E+01  0.6237950E+04 -0.3063777E+01  0.8633158E+02 -0.1570689E+01
  0.2976190E+00  0.5630365E+04 -0.1570672E+01  0.7808224E+04 -0.3055214E+01  0.1002204E+03 -0.1570636E+01
  0.3285715E+00  0.6453407E+04 -0.1570610E+01  0.9570279E+04 -0.3044957E+01  0.1165144E+03 -0.1570559E+01
  0.3595238E+00  0.7335554E+04 -0.1570517E+01  0.1152133E+05 -0.3032474E+01  0.1342249E+03 -0.1570442E+01
  0.3904762E+00  0.8321249E+04 -0.1570378E+01  0.1367391E+05 -0.3017732E+01  0.1531480E+03 -0.1570265E+01
  0.4214286E+00  0.9438414E+04 -0.1570175E+01  0.1598245E+05 -0.3001071E+01  0.1785581E+03 -0.1570018E+01
  0.4523810E+00  0.1065069E+05 -0.1569876E+01  0.1847549E+05 -0.2981845E+01  0.2033748E+03 -0.1569647E+01
  0.4833333E+00  0.1193494E+05 -0.1569458E+01  0.2109696E+05 -0.2962263E+01  0.2281653E+03 -0.1569112E+01
  0.5142857E+00  0.1338671E+05 -0.1568881E+01  0.2385126E+05 -0.2941020E+01  0.2622024E+03 -0.1568414E+01
  0.5452381E+00  0.1495922E+05 -0.1568113E+01  0.2671479E+05 -0.2919700E+01  0.2986992E+03 -0.1567480E+01
  0.5761905E+00  0.1659134E+05 -0.1567107E+01  0.2966802E+05 -0.2898620E+01  0.3373878E+03 -0.1566260E+01
  0.6071429E+00  0.1827290E+05 -0.1565797E+01  0.3271040E+05 -0.2876968E+01  0.3723212E+03 -0.1564609E+01
  0.6380953E+00  0.2008228E+05 -0.1564171E+01  0.3584185E+05 -0.2856495E+01  0.4164436E+03 -0.1562630E+01
  0.6690477E+00  0.2201453E+05 -0.1562161E+01  0.3902813E+05 -0.2836057E+01  0.4702433E+03 -0.1560285E+01
  0.7000000E+00  0.2402153E+05 -0.1559687E+01  0.4225521E+05 -0.2815406E+01  0.5247115E+03 -0.1557369E+01
  0.7309524E+00  0.2603266E+05 -0.1556676E+01  0.4553479E+05 -0.2795481E+01  0.5731840E+03 -0.1553661E+01
  0.7619048E+00  0.2806162E+05 -0.1553041E+01  0.4884595E+05 -0.2775853E+01  0.6271407E+03 -0.1549268E+01
  0.7928572E+00  0.3022332E+05 -0.1548763E+01  0.5217314E+05 -0.2756449E+01  0.6905657E+03 -0.1544246E+01
  0.8238096E+00  0.3248330E+05 -0.1543760E+01  0.5549466E+05 -0.2737258E+01  0.7571036E+03 -0.1538357E+01
  0.8547620E+00  0.3478955E+05 -0.1537934E+01  0.5880004E+05 -0.2718373E+01  0.8311686E+03 -0.1531650E+01
  0.8857143E+00  0.3713703E+05 -0.1531200E+01  0.6208671E+05 -0.2699928E+01  0.9132692E+03 -0.1524085E+01
  0.9166667E+00  0.3946268E+05 -0.1523432E+01  0.6534690E+05 -0.2681988E+01  0.9857234E+03 -0.1514906E+01
  0.9476191E+00  0.4174705E+05 -0.1514530E+01  0.6855441E+05 -0.2664386E+01  0.1054401E+04 -0.1504168E+01
  0.9785714E+00  0.4408111E+05 -0.1504536E+01  0.7170296E+05 -0.2647152E+01  0.1135498E+04 -0.1492566E+01
  0.1009524E+01  0.4646092E+05 -0.1493419E+01  0.7478184E+05 -0.2630293E+01  0.1228840E+04 -0.1480176E+01
  0.1040476E+01  0.4887600E+05 -0.1481139E+01  0.7778708E+05 -0.2613936E+01  0.1329167E+04 -0.1466618E+01
  0.1071429E+01  0.5125639E+05 -0.1467577E+01  0.8069814E+05 -0.2597940E+01  0.1427166E+04 -0.1451440E+01
  0.1102381E+01  0.5356158E+05 -0.1452645E+01  0.8351414E+05 -0.2582414E+01  0.1523868E+04 -0.1434595E+01
  0.1133333E+01  0.5573358E+05 -0.1436226E+01  0.8621641E+05 -0.2567205E+01  0.1619949E+04 -0.1416002E+01
  0.1164286E+01  0.5774128E+05 -0.1418257E+01  0.8882234E+05 -0.2552619E+01  0.1712037E+04 -0.1395418E+01
  0.1195238E+01  0.5960090E+05 -0.1398814E+01  0.9132265E+05 -0.2538655E+01  0.1807270E+04 -0.1373599E+01
  0.1226190E+01  0.6134261E+05 -0.1378143E+01  0.9370927E+05 -0.2525204E+01  0.1898453E+04 -0.1350259E+01
  0.1257143E+01  0.6287379E+05 -0.1355990E+01  0.9599160E+05 -0.2511865E+01  0.1982205E+04 -0.1325149E+01
  0.1288095E+01  0.6428169E+05 -0.1333084E+01  0.9808084E+05 -0.2499353E+01  0.2071385E+04 -0.1299578E+01
  0.1319048E+01  0.6537728E+05 -0.1308622E+01  0.1000531E+06 -0.2486894E+01  0.2157154E+04 -0.1272442E+01
  0.1350000E+01  0.6620012E+05 -0.1282968E+01  0.1018911E+06 -0.2475003E+01  0.2239821E+04 -0.1244416E+01
  0.1380952E+01  0.6672687E+05 -0.1256245E+01  0.1035899E+06 -0.2463813E+01  0.2316604E+04 -0.1215740E+01
  0.1411905E+01  0.6653950E+05 -0.1228850E+01  0.1050558E+06 -0.2452645E+01  0.2332940E+04 -0.1181893E+01
  0.1442857E+01  0.6637458E+05 -0.1200468E+01  0.1064534E+06 -0.2442123E+01  0.2372273E+04 -0.1149554E+01
  0.1473810E+01  0.6585324E+05 -0.1171445E+01  0.1076983E+06 -0.2432023E+01  0.2400144E+04 -0.1116266E+01
  0.1504762E+01  0.6494740E+05 -0.1141769E+01  0.1087837E+06 -0.2422190E+01  0.2419956E+04 -0.1082579E+01
  0.1535714E+01  0.6364927E+05 -0.1111515E+01  0.1097181E+06 -0.2412850E+01  0.2428754E+04 -0.1049019E+01
  0.1566667E+01  0.6197885E+05 -0.1081093E+01  0.1105003E+06 -0.2403997E+01  0.2425946E+04 -0.1016220E+01
  0.1597619E+01  0.5992745E+05 -0.1050537E+01  0.1111247E+06 -0.2395616E+01  0.2404166E+04 -0.9831287E+00
  0.1628572E+01  0.5750329E+05 -0.1019893E+01  0.1115885E+06 -0.2387655E+01  0.2357347E+04 -0.9488488E+00
  0.1659524E+01  0.5469948E+05 -0.9889918E+00  0.1118941E+06 -0.2380059E+01  0.2287861E+04 -0.9128013E+00
  0.1690476E+01  0.5154312E+05 -0.9579612E+00  0.1120436E+06 -0.2372859E+01  0.2198585E+04 -0.8762786E+00
  0.1721429E+01  0.4806442E+05 -0.9269603E+00  0.1120337E+06 -0.2365999E+01  0.2093886E+04 -0.8403125E+00
  0.1752381E+01  0.4426937E+05 -0.8956272E+00  0.1118663E+06 -0.2359441E+01  0.1973909E+04 -0.8054290E+00
  0.1783333E+01  0.4019273E+05 -0.8638231E+00  0.1115496E+06 -0.2353368E+01  0.1834423E+04 -0.7697974E+00
  0.1814286E+01  0.3585792E+05 -0.8311303E+00  0.1110780E+06 -0.2347743E+01  0.1676180E+04 -0.7324918E+00
  0.1845238E+01  0.3130634E+05 -0.7970666E+00  0.1104492E+06 -0.2342640E+01  0.1497784E+04 -0.6924123E+00
  0.1876190E+01  0.2656074E+05 -0.7602364E+00  0.1096634E+06 -0.2337980E+01  0.1296326E+04 -0.6456553E+00
  0.1907143E+01  0.2164417E+05 -0.7176651E+00  0.1087282E+06 -0.2333705E+01  0.1074420E+04 -0.5892838E+00
  0.1938095E+01  0.1659268E+05 -0.6633618E+00  0.1076521E+06 -0.2329818E+01  0.8337401E+03 -0.5108020E+00
  0.1969048E+01  0.1145629E+05 -0.5801745E+00  0.1064315E+06 -0.2326390E+01  0.5833849E+03 -0.3850155E+00
  0.2000000E+01  0.6348294E+04 -0.3954341E+00  0.1050679E+06 -0.2323159E+01  0.3375009E+03 -0.1054191E+00
