VARIABLES="w (rad/s)"
"abs(F   1   1)" "angle(F   1   1)"
"abs(F   1   2)" "angle(F   1   2)"
"abs(F   1   3)" "angle(F   1   3)"
Zone t="Diffraction force - beta =   0.000 deg",I=    64,F=POINT
  0.5000000E-01  0.3544568E+03 -0.1570796E+01  0.1855270E+02 -0.3100343E+01  0.5782167E+03  0.1570797E+01
  0.8095238E-01  0.5811539E+03 -0.1570795E+01  0.4832983E+02 -0.3099023E+01  0.9489426E+03  0.1570797E+01
  0.1119048E+00  0.8126734E+03 -0.1570794E+01  0.9201129E+02 -0.3097241E+01  0.1325693E+04  0.1570798E+01
  0.1428571E+00  0.1051206E+04 -0.1570793E+01  0.1498287E+03 -0.3094951E+01  0.1713170E+04  0.1570799E+01
  0.1738095E+00  0.1301328E+04 -0.1570791E+01  0.2219318E+03 -0.3091996E+01  0.2116216E+04  0.1570801E+01
  0.2047619E+00  0.1563745E+04 -0.1570788E+01  0.3089503E+03 -0.3088298E+01  0.2538782E+04  0.1570804E+01
  0.2357143E+00  0.1840496E+04 -0.1570783E+01  0.4111050E+03 -0.3083580E+01  0.2984944E+04  0.1570809E+01
  0.2666667E+00  0.2142672E+04 -0.1570776E+01  0.5290908E+03 -0.3077811E+01  0.3463910E+04  0.1570815E+01
  0.2976190E+00  0.2463184E+04 -0.1570766E+01  0.6634013E+03 -0.3070522E+01  0.3977082E+04  0.1570825E+01
  0.3285715E+00  0.2815519E+04 -0.1570751E+01  0.8149675E+03 -0.3061759E+01  0.4538077E+04  0.1570838E+01
  0.3595238E+00  0.3205319E+04 -0.1570729E+01  0.9831614E+03 -0.3050997E+01  0.5150399E+04  0.1570859E+01
  0.3904762E+00  0.3637647E+04 -0.1570695E+01  0.1169863E+04 -0.3038227E+01  0.5822744E+04  0.1570891E+01
  0.4214286E+00  0.4103963E+04 -0.1570646E+01  0.1373033E+04 -0.3023789E+01  0.6558093E+04  0.1570937E+01
  0.4523810E+00  0.4629552E+04 -0.1570573E+01  0.1593507E+04 -0.3006979E+01  0.7365344E+04  0.1571005E+01
  0.4833333E+00  0.5200605E+04 -0.1570472E+01  0.1827910E+04 -0.2989627E+01  0.8243101E+04  0.1571099E+01
  0.5142857E+00  0.5812791E+04 -0.1570331E+01  0.2078093E+04 -0.2970795E+01  0.9182533E+04  0.1571231E+01
  0.5452381E+00  0.6471355E+04 -0.1570142E+01  0.2343837E+04 -0.2951862E+01  0.1018856E+05  0.1571406E+01
  0.5761905E+00  0.7169724E+04 -0.1569896E+01  0.2620682E+04 -0.2932791E+01  0.1123880E+05  0.1571636E+01
  0.6071429E+00  0.7912972E+04 -0.1569576E+01  0.2909777E+04 -0.2913030E+01  0.1233858E+05  0.1571934E+01
  0.6380953E+00  0.8687559E+04 -0.1569175E+01  0.3214028E+04 -0.2894117E+01  0.1348474E+05  0.1572307E+01
  0.6690477E+00  0.9472633E+04 -0.1568672E+01  0.3530456E+04 -0.2875134E+01  0.1465210E+05  0.1572773E+01
  0.7000000E+00  0.1029856E+05 -0.1568051E+01  0.3857176E+04 -0.2855771E+01  0.1584516E+05  0.1573351E+01
  0.7309524E+00  0.1117246E+05 -0.1567300E+01  0.4195871E+04 -0.2836756E+01  0.1708867E+05  0.1574049E+01
  0.7619048E+00  0.1205348E+05 -0.1566391E+01  0.4542593E+04 -0.2817572E+01  0.1833210E+05  0.1574894E+01
  0.7928572E+00  0.1296017E+05 -0.1565302E+01  0.4899335E+04 -0.2798427E+01  0.1959788E+05  0.1575904E+01
  0.8238096E+00  0.1390166E+05 -0.1564015E+01  0.5267362E+04 -0.2779544E+01  0.2089172E+05  0.1577097E+01
  0.8547620E+00  0.1483428E+05 -0.1562494E+01  0.5642851E+04 -0.2760714E+01  0.2218227E+05  0.1578502E+01
  0.8857143E+00  0.1579974E+05 -0.1560723E+01  0.6024788E+04 -0.2741930E+01  0.2347912E+05  0.1580140E+01
  0.9166667E+00  0.1680167E+05 -0.1558678E+01  0.6411526E+04 -0.2723180E+01  0.2478669E+05  0.1582034E+01
  0.9476191E+00  0.1784197E+05 -0.1556335E+01  0.6803264E+04 -0.2704606E+01  0.2611787E+05  0.1584205E+01
  0.9785714E+00  0.1887691E+05 -0.1553646E+01  0.7198927E+04 -0.2686182E+01  0.2744363E+05  0.1586688E+01
  0.1009524E+01  0.1990758E+05 -0.1550581E+01  0.7597718E+04 -0.2667915E+01  0.2873158E+05  0.1589517E+01
  0.1040476E+01  0.2095170E+05 -0.1547114E+01  0.8001795E+04 -0.2650085E+01  0.3003607E+05  0.1592702E+01
  0.1071429E+01  0.2200352E+05 -0.1543219E+01  0.8407590E+04 -0.2632451E+01  0.3130761E+05  0.1596284E+01
  0.1102381E+01  0.2310142E+05 -0.1538895E+01  0.8815232E+04 -0.2615141E+01  0.3260136E+05  0.1600264E+01
  0.1133333E+01  0.2419219E+05 -0.1534073E+01  0.9220064E+04 -0.2597819E+01  0.3386131E+05  0.1604695E+01
  0.1164286E+01  0.2528324E+05 -0.1528732E+01  0.9622760E+04 -0.2580636E+01  0.3507623E+05  0.1609607E+01
  0.1195238E+01  0.2638991E+05 -0.1522853E+01  0.1002523E+05 -0.2563889E+01  0.3630732E+05  0.1614995E+01
  0.1226190E+01  0.2748179E+05 -0.1516393E+01  0.1042387E+05 -0.2547284E+01  0.3746199E+05  0.1620923E+01
  0.1257143E+01  0.2857145E+05 -0.1509349E+01  0.1082392E+05 -0.2530807E+01  0.3859427E+05  0.1627370E+01
  0.1288095E+01  0.2968558E+05 -0.1501692E+01  0.1121886E+05 -0.2515665E+01  0.3973231E+05  0.1634364E+01
  0.1319048E+01  0.3073035E+05 -0.1493329E+01  0.1160962E+05 -0.2500174E+01  0.4076991E+05  0.1641963E+01
  0.1350000E+01  0.3175661E+05 -0.1484294E+01  0.1199697E+05 -0.2485076E+01  0.4175154E+05  0.1650155E+01
  0.1380952E+01  0.3279698E+05 -0.1474627E+01  0.1238083E+05 -0.2470488E+01  0.4271934E+05  0.1658914E+01
  0.1411905E+01  0.3358741E+05 -0.1464542E+01  0.1271101E+05 -0.2455039E+01  0.4346985E+05  0.1667857E+01
  0.1442857E+01  0.3460224E+05 -0.1453610E+01  0.1307790E+05 -0.2440774E+01  0.4430131E+05  0.1677770E+01
  0.1473810E+01  0.3559661E+05 -0.1442001E+01  0.1343758E+05 -0.2426895E+01  0.4510454E+05  0.1688250E+01
  0.1504762E+01  0.3651532E+05 -0.1429618E+01  0.1378826E+05 -0.2413102E+01  0.4579740E+05  0.1699386E+01
  0.1535714E+01  0.3736848E+05 -0.1416507E+01  0.1412807E+05 -0.2399415E+01  0.4636537E+05  0.1711145E+01
  0.1566667E+01  0.3818475E+05 -0.1402707E+01  0.1446350E+05 -0.2386393E+01  0.4688264E+05  0.1723469E+01
  0.1597619E+01  0.3895347E+05 -0.1388237E+01  0.1479131E+05 -0.2373897E+01  0.4732992E+05  0.1736315E+01
  0.1628572E+01  0.3963636E+05 -0.1373074E+01  0.1510883E+05 -0.2361589E+01  0.4762612E+05  0.1749734E+01
  0.1659524E+01  0.4027216E+05 -0.1357321E+01  0.1541951E+05 -0.2349879E+01  0.4785842E+05  0.1763589E+01
  0.1690476E+01  0.4085555E+05 -0.1341036E+01  0.1572127E+05 -0.2338656E+01  0.4803061E+05  0.1777797E+01
  0.1721429E+01  0.4132590E+05 -0.1324067E+01  0.1601342E+05 -0.2327454E+01  0.4806992E+05  0.1792510E+01
  0.1752381E+01  0.4171977E+05 -0.1306636E+01  0.1629298E+05 -0.2316384E+01  0.4798507E+05  0.1807571E+01
  0.1783333E+01  0.4202040E+05 -0.1288733E+01  0.1656019E+05 -0.2305420E+01  0.4777502E+05  0.1822973E+01
  0.1814286E+01  0.4225525E+05 -0.1270440E+01  0.1681972E+05 -0.2294997E+01  0.4751121E+05  0.1838600E+01
  0.1845238E+01  0.4240489E+05 -0.1251797E+01  0.1706682E+05 -0.2284891E+01  0.4715993E+05  0.1854360E+01
  0.1876190E+01  0.4242991E+05 -0.1232822E+01  0.1729925E+05 -0.2274848E+01  0.4664107E+05  0.1870252E+01
  0.1907143E+01  0.4237926E+05 -0.1213697E+01  0.1752239E+05 -0.2265383E+01  0.4605273E+05  0.1886103E+01
  0.1938095E+01  0.4223888E+05 -0.1194449E+01  0.1773337E+05 -0.2256402E+01  0.4539064E+05  0.1901768E+01
  0.1969048E+01  0.4199216E+05 -0.1175048E+01  0.1793509E+05 -0.2247762E+01  0.4464865E+05  0.1917323E+01
  0.2000000E+01  0.4162366E+05 -0.1155571E+01  0.1812517E+05 -0.2239237E+01  0.4378176E+05  0.1932751E+01
