VARIABLES="w (rad/s)"
"abs(F   1   1)" "angle(F   1   1)"
"abs(F   1   2)" "angle(F   1   2)"
"abs(F   1   3)" "angle(F   1   3)"
Zone t="Diffraction force - beta =   0.000 deg",I=    64,F=POINT
  0.5000000E-01  0.7568637E+03 -0.1570777E+01  0.1056342E+06 -0.7242602E-05  0.1154448E+04  0.1570814E+01
  0.8095238E-01  0.1236735E+04 -0.1570833E+01  0.1055024E+06 -0.1949431E-04  0.1887180E+04  0.1570809E+01
  0.1119048E+00  0.1727351E+04 -0.1570787E+01  0.1053086E+06 -0.3873878E-04  0.2633648E+04  0.1570794E+01
  0.1428571E+00  0.2233474E+04 -0.1570806E+01  0.1050525E+06 -0.6649704E-04  0.3401909E+04  0.1570797E+01
  0.1738095E+00  0.2762566E+04 -0.1570794E+01  0.1047344E+06 -0.1050522E-03  0.4200566E+04  0.1570799E+01
  0.2047619E+00  0.3318614E+04 -0.1570786E+01  0.1043537E+06 -0.1577084E-03  0.5037857E+04  0.1570808E+01
  0.2357143E+00  0.3907460E+04 -0.1570781E+01  0.1039105E+06 -0.2293906E-03  0.5922811E+04  0.1570806E+01
  0.2666667E+00  0.4544570E+04 -0.1570786E+01  0.1034046E+06 -0.3261279E-03  0.6870325E+04  0.1570806E+01
  0.2976190E+00  0.5227861E+04 -0.1570781E+01  0.1028361E+06 -0.4580930E-03  0.7888280E+04  0.1570811E+01
  0.3285715E+00  0.5976369E+04 -0.1570773E+01  0.1022048E+06 -0.6359065E-03  0.8997408E+04  0.1570814E+01
  0.3595238E+00  0.6801600E+04 -0.1570764E+01  0.1015124E+06 -0.8762348E-03  0.1020861E+05  0.1570820E+01
  0.3904762E+00  0.7714261E+04 -0.1570750E+01  0.1007585E+06 -0.1197996E-02  0.1153752E+05  0.1570844E+01
  0.4214286E+00  0.8710522E+04 -0.1570726E+01  0.9994632E+05 -0.1614608E-02  0.1299254E+05  0.1570869E+01
  0.4523810E+00  0.9818570E+04 -0.1570688E+01  0.9907714E+05 -0.2158522E-02  0.1458530E+05  0.1570905E+01
  0.4833333E+00  0.1102513E+05 -0.1570644E+01  0.9815614E+05 -0.2819093E-02  0.1631372E+05  0.1570948E+01
  0.5142857E+00  0.1232407E+05 -0.1570576E+01  0.9718351E+05 -0.3634470E-02  0.1816493E+05  0.1571014E+01
  0.5452381E+00  0.1371709E+05 -0.1570486E+01  0.9616104E+05 -0.4596838E-02  0.2013735E+05  0.1571105E+01
  0.5761905E+00  0.1519329E+05 -0.1570372E+01  0.9509489E+05 -0.5712604E-02  0.2220109E+05  0.1571222E+01
  0.6071429E+00  0.1675346E+05 -0.1570220E+01  0.9398606E+05 -0.7014820E-02  0.2435399E+05  0.1571374E+01
  0.6380953E+00  0.1838028E+05 -0.1570032E+01  0.9283262E+05 -0.8480941E-02  0.2658621E+05  0.1571564E+01
  0.6690477E+00  0.2004968E+05 -0.1569793E+01  0.9163981E+05 -0.1014452E-01  0.2886663E+05  0.1571800E+01
  0.7000000E+00  0.2178939E+05 -0.1569498E+01  0.9041171E+05 -0.1202878E-01  0.3119471E+05  0.1572095E+01
  0.7309524E+00  0.2360425E+05 -0.1569143E+01  0.8914801E+05 -0.1412683E-01  0.3359067E+05  0.1572452E+01
  0.7619048E+00  0.2545135E+05 -0.1568710E+01  0.8785517E+05 -0.1646276E-01  0.3599977E+05  0.1572883E+01
  0.7928572E+00  0.2734733E+05 -0.1568192E+01  0.8653298E+05 -0.1905144E-01  0.3844050E+05  0.1573400E+01
  0.8238096E+00  0.2929952E+05 -0.1567578E+01  0.8518215E+05 -0.2190364E-01  0.4091484E+05  0.1574014E+01
  0.8547620E+00  0.3126239E+05 -0.1566857E+01  0.8380855E+05 -0.2503175E-01  0.4338768E+05  0.1574735E+01
  0.8857143E+00  0.3327586E+05 -0.1566014E+01  0.8241540E+05 -0.2844867E-01  0.4586501E+05  0.1575579E+01
  0.9166667E+00  0.3534175E+05 -0.1565035E+01  0.8100626E+05 -0.3216441E-01  0.4834772E+05  0.1576557E+01
  0.9476191E+00  0.3746014E+05 -0.1563909E+01  0.7958273E+05 -0.3618684E-01  0.5084521E+05  0.1577684E+01
  0.9785714E+00  0.3958554E+05 -0.1562618E+01  0.7814780E+05 -0.4052807E-01  0.5332520E+05  0.1578975E+01
  0.1009524E+01  0.4171716E+05 -0.1561150E+01  0.7670408E+05 -0.4519930E-01  0.5575190E+05  0.1580442E+01
  0.1040476E+01  0.4387094E+05 -0.1559487E+01  0.7525066E+05 -0.5020662E-01  0.5817653E+05  0.1582105E+01
  0.1071429E+01  0.4603927E+05 -0.1557618E+01  0.7379316E+05 -0.5556352E-01  0.6054656E+05  0.1583975E+01
  0.1102381E+01  0.4825876E+05 -0.1555527E+01  0.7233280E+05 -0.6127444E-01  0.6291418E+05  0.1586064E+01
  0.1133333E+01  0.5047431E+05 -0.1553198E+01  0.7087680E+05 -0.6735330E-01  0.6522056E+05  0.1588394E+01
  0.1164286E+01  0.5269147E+05 -0.1550617E+01  0.6942544E+05 -0.7380469E-01  0.6745173E+05  0.1590975E+01
  0.1195238E+01  0.5492380E+05 -0.1547767E+01  0.6797730E+05 -0.8062587E-01  0.6966637E+05  0.1593825E+01
  0.1226190E+01  0.5713891E+05 -0.1544640E+01  0.6653815E+05 -0.8783254E-01  0.7176925E+05  0.1596953E+01
  0.1257143E+01  0.5934761E+05 -0.1541228E+01  0.6510566E+05 -0.9549230E-01  0.7381227E+05  0.1600366E+01
  0.1288095E+01  0.6157467E+05 -0.1537501E+01  0.6367760E+05 -0.1034004E+00  0.7582130E+05  0.1604091E+01
  0.1319048E+01  0.6372421E+05 -0.1533467E+01  0.6226603E+05 -0.1117930E+00  0.7768800E+05  0.1608121E+01
  0.1350000E+01  0.6584521E+05 -0.1529117E+01  0.6086622E+05 -0.1205968E+00  0.7945498E+05  0.1612466E+01
  0.1380952E+01  0.6796843E+05 -0.1524447E+01  0.5947836E+05 -0.1298069E+00  0.8116254E+05  0.1617133E+01
  0.1411905E+01  0.6982863E+05 -0.1519763E+01  0.5814979E+05 -0.1390066E+00  0.8260656E+05  0.1621814E+01
  0.1442857E+01  0.7189677E+05 -0.1514496E+01  0.5680080E+05 -0.1490206E+00  0.8408201E+05  0.1627080E+01
  0.1473810E+01  0.7392661E+05 -0.1508911E+01  0.5546966E+05 -0.1594434E+00  0.8547915E+05  0.1632670E+01
  0.1504762E+01  0.7586078E+05 -0.1503015E+01  0.5416122E+05 -0.1703060E+00  0.8671451E+05  0.1638574E+01
  0.1535714E+01  0.7770752E+05 -0.1496827E+01  0.5287721E+05 -0.1815860E+00  0.8777264E+05  0.1644759E+01
  0.1566667E+01  0.7949346E+05 -0.1490347E+01  0.5160794E+05 -0.1932993E+00  0.8872681E+05  0.1651241E+01
  0.1597619E+01  0.8120604E+05 -0.1483601E+01  0.5035709E+05 -0.2054302E+00  0.8955715E+05  0.1657983E+01
  0.1628572E+01  0.8280508E+05 -0.1476629E+01  0.4913044E+05 -0.2179993E+00  0.9018212E+05  0.1664931E+01
  0.1659524E+01  0.8432762E+05 -0.1469446E+01  0.4792131E+05 -0.2310053E+00  0.9068881E+05  0.1672081E+01
  0.1690476E+01  0.8576679E+05 -0.1462095E+01  0.4673213E+05 -0.2444418E+00  0.9108116E+05  0.1679391E+01
  0.1721429E+01  0.8705991E+05 -0.1454601E+01  0.4556987E+05 -0.2583832E+00  0.9128617E+05  0.1686854E+01
  0.1752381E+01  0.8824280E+05 -0.1447037E+01  0.4443468E+05 -0.2727600E+00  0.9131352E+05  0.1694376E+01
  0.1783333E+01  0.8929737E+05 -0.1439442E+01  0.4332710E+05 -0.2875815E+00  0.9116278E+05  0.1701932E+01
  0.1814286E+01  0.9024997E+05 -0.1431826E+01  0.4223850E+05 -0.3028793E+00  0.9090627E+05  0.1709539E+01
  0.1845238E+01  0.9108055E+05 -0.1424261E+01  0.4117419E+05 -0.3185968E+00  0.9051200E+05  0.1717092E+01
  0.1876190E+01  0.9174957E+05 -0.1416850E+01  0.4013882E+05 -0.3347240E+00  0.8990185E+05  0.1724446E+01
  0.1907143E+01  0.9230590E+05 -0.1409611E+01  0.3912192E+05 -0.3513050E+00  0.8917562E+05  0.1731637E+01
  0.1938095E+01  0.9273574E+05 -0.1402605E+01  0.3812564E+05 -0.3682970E+00  0.8833173E+05  0.1738569E+01
  0.1969048E+01  0.9302237E+05 -0.1395884E+01  0.3715109E+05 -0.3858004E+00  0.8736537E+05  0.1745252E+01
  0.2000000E+01  0.9315162E+05 -0.1389553E+01  0.3620277E+05 -0.4037938E+00  0.8623424E+05  0.1751560E+01
