VARIABLES="w (rad/s)"
"abs(F   1   1)" "angle(F   1   1)"
"abs(F   1   2)" "angle(F   1   2)"
"abs(F   1   3)" "angle(F   1   3)"
Zone t="Diffraction force - beta =   0.000 deg",I=    64,F=POINT
  0.5000000E-01  0.3997486E+04 -0.1570798E+01  0.5768059E+06 -0.3963796E-04  0.7890705E+02 -0.1571224E+01
  0.8095238E-01  0.6518423E+04 -0.1570796E+01  0.5755371E+06 -0.1065872E-03  0.1289640E+03 -0.1571071E+01
  0.1119048E+00  0.9090035E+04 -0.1570789E+01  0.5736757E+06 -0.2115206E-03  0.1798823E+03 -0.1570991E+01
  0.1428571E+00  0.1175554E+05 -0.1570786E+01  0.5712207E+06 -0.3623867E-03  0.2346877E+03 -0.1570943E+01
  0.1738095E+00  0.1453270E+05 -0.1570780E+01  0.5681675E+06 -0.5711133E-03  0.2910027E+03 -0.1570895E+01
  0.2047619E+00  0.1746243E+05 -0.1570773E+01  0.5645112E+06 -0.8549690E-03  0.3532177E+03 -0.1570878E+01
  0.2357143E+00  0.2055711E+05 -0.1570766E+01  0.5602470E+06 -0.1239430E-02  0.4184298E+03 -0.1570850E+01
  0.2666667E+00  0.2390471E+05 -0.1570751E+01  0.5553661E+06 -0.1755032E-02  0.4914181E+03 -0.1570816E+01
  0.2976190E+00  0.2752910E+05 -0.1570722E+01  0.5498722E+06 -0.2454420E-02  0.5730565E+03 -0.1570781E+01
  0.3285715E+00  0.3146238E+05 -0.1570685E+01  0.5437524E+06 -0.3389406E-02  0.6626159E+03 -0.1570737E+01
  0.3595238E+00  0.3581980E+05 -0.1570633E+01  0.5370370E+06 -0.4644145E-02  0.7645005E+03 -0.1570676E+01
  0.3904762E+00  0.4064502E+05 -0.1570548E+01  0.5297158E+06 -0.6310286E-02  0.8844456E+03 -0.1570587E+01
  0.4214286E+00  0.4592562E+05 -0.1570432E+01  0.5218822E+06 -0.8444655E-02  0.1008601E+04 -0.1570463E+01
  0.4523810E+00  0.5172823E+05 -0.1570255E+01  0.5135185E+06 -0.1120990E-01  0.1156203E+04 -0.1570284E+01
  0.4833333E+00  0.5814026E+05 -0.1570014E+01  0.5047372E+06 -0.1452055E-01  0.1322671E+04 -0.1570037E+01
  0.5142857E+00  0.6505934E+05 -0.1569678E+01  0.4955880E+06 -0.1856861E-01  0.1510993E+04 -0.1569698E+01
  0.5452381E+00  0.7237991E+05 -0.1569229E+01  0.4860733E+06 -0.2328087E-01  0.1705420E+04 -0.1569247E+01
  0.5761905E+00  0.8016431E+05 -0.1568647E+01  0.4762723E+06 -0.2866443E-01  0.1920949E+04 -0.1568663E+01
  0.6071429E+00  0.8843220E+05 -0.1567898E+01  0.4662471E+06 -0.3487834E-01  0.2169679E+04 -0.1567913E+01
  0.6380953E+00  0.9708618E+05 -0.1566965E+01  0.4559394E+06 -0.4174673E-01  0.2437423E+04 -0.1566979E+01
  0.6690477E+00  0.1059710E+06 -0.1565810E+01  0.4454718E+06 -0.4942483E-01  0.2707219E+04 -0.1565820E+01
  0.7000000E+00  0.1150660E+06 -0.1564392E+01  0.4348745E+06 -0.5799895E-01  0.2998539E+04 -0.1564401E+01
  0.7309524E+00  0.1245612E+06 -0.1562692E+01  0.4241051E+06 -0.6737939E-01  0.3321327E+04 -0.1562704E+01
  0.7619048E+00  0.1343635E+06 -0.1560667E+01  0.4132748E+06 -0.7765529E-01  0.3662942E+04 -0.1560680E+01
  0.7928572E+00  0.1443662E+06 -0.1558273E+01  0.4024432E+06 -0.8886768E-01  0.4037241E+04 -0.1558287E+01
  0.8238096E+00  0.1545372E+06 -0.1555477E+01  0.3915798E+06 -0.1010161E+00  0.4432954E+04 -0.1555486E+01
  0.8547620E+00  0.1647263E+06 -0.1552240E+01  0.3807111E+06 -0.1141108E+00  0.4817373E+04 -0.1552235E+01
  0.8857143E+00  0.1750107E+06 -0.1548539E+01  0.3698873E+06 -0.1281755E+00  0.5228703E+04 -0.1548539E+01
  0.9166667E+00  0.1854430E+06 -0.1544360E+01  0.3591411E+06 -0.1432310E+00  0.5685293E+04 -0.1544391E+01
  0.9476191E+00  0.1959979E+06 -0.1539684E+01  0.3485047E+06 -0.1592759E+00  0.6173071E+04 -0.1539725E+01
  0.9785714E+00  0.2065319E+06 -0.1534492E+01  0.3380041E+06 -0.1763080E+00  0.6671429E+04 -0.1534543E+01
  0.1009524E+01  0.2169401E+06 -0.1528776E+01  0.3276469E+06 -0.1943344E+00  0.7183697E+04 -0.1528826E+01
  0.1040476E+01  0.2270925E+06 -0.1522533E+01  0.3174610E+06 -0.2133596E+00  0.7709441E+04 -0.1522552E+01
  0.1071429E+01  0.2369089E+06 -0.1515787E+01  0.3074231E+06 -0.2333785E+00  0.8240255E+04 -0.1515730E+01
  0.1102381E+01  0.2463910E+06 -0.1508602E+01  0.2975271E+06 -0.2543972E+00  0.8788860E+04 -0.1508534E+01
  0.1133333E+01  0.2555479E+06 -0.1501082E+01  0.2878400E+06 -0.2764377E+00  0.9341415E+04 -0.1501039E+01
  0.1164286E+01  0.2642592E+06 -0.1493298E+01  0.2783466E+06 -0.2994936E+00  0.9897572E+04 -0.1493342E+01
  0.1195238E+01  0.2724113E+06 -0.1485332E+01  0.2690944E+06 -0.3235702E+00  0.1046764E+05 -0.1485331E+01
  0.1226190E+01  0.2798997E+06 -0.1477286E+01  0.2600452E+06 -0.3486453E+00  0.1104188E+05 -0.1477236E+01
  0.1257143E+01  0.2866458E+06 -0.1469221E+01  0.2512046E+06 -0.3748962E+00  0.1161515E+05 -0.1469132E+01
  0.1288095E+01  0.2926906E+06 -0.1461583E+01  0.2425692E+06 -0.4017951E+00  0.1217359E+05 -0.1461507E+01
  0.1319048E+01  0.2978455E+06 -0.1454306E+01  0.2341767E+06 -0.4298755E+00  0.1269740E+05 -0.1454316E+01
  0.1350000E+01  0.3021253E+06 -0.1447639E+01  0.2260085E+06 -0.4589562E+00  0.1319889E+05 -0.1447680E+01
  0.1380952E+01  0.3054857E+06 -0.1441742E+01  0.2180743E+06 -0.4890065E+00  0.1368963E+05 -0.1441665E+01
  0.1411905E+01  0.3073989E+06 -0.1437423E+01  0.2104833E+06 -0.5194010E+00  0.1409379E+05 -0.1437320E+01
  0.1442857E+01  0.3089577E+06 -0.1433703E+01  0.2029786E+06 -0.5514247E+00  0.1454878E+05 -0.1433567E+01
  0.1473810E+01  0.3096283E+06 -0.1431335E+01  0.1956798E+06 -0.5844365E+00  0.1496377E+05 -0.1431244E+01
  0.1504762E+01  0.3094312E+06 -0.1430465E+01  0.1886092E+06 -0.6184249E+00  0.1533771E+05 -0.1430422E+01
  0.1535714E+01  0.3083866E+06 -0.1431230E+01  0.1817576E+06 -0.6534472E+00  0.1566648E+05 -0.1431177E+01
  0.1566667E+01  0.3065921E+06 -0.1433794E+01  0.1751130E+06 -0.6894756E+00  0.1597018E+05 -0.1433787E+01
  0.1597619E+01  0.3040871E+06 -0.1438263E+01  0.1687091E+06 -0.7264891E+00  0.1625414E+05 -0.1438257E+01
  0.1628572E+01  0.3009485E+06 -0.1444718E+01  0.1624863E+06 -0.7645269E+00  0.1650638E+05 -0.1444716E+01
  0.1659524E+01  0.2972404E+06 -0.1453243E+01  0.1564520E+06 -0.8035721E+00  0.1672706E+05 -0.1453113E+01
  0.1690476E+01  0.2930594E+06 -0.1463884E+01  0.1505930E+06 -0.8436247E+00  0.1691313E+05 -0.1463626E+01
  0.1721429E+01  0.2884639E+06 -0.1476672E+01  0.1449250E+06 -0.8846592E+00  0.1705954E+05 -0.1476401E+01
  0.1752381E+01  0.2835049E+06 -0.1491620E+01  0.1394469E+06 -0.9267440E+00  0.1717283E+05 -0.1491549E+01
  0.1783333E+01  0.2782558E+06 -0.1508749E+01  0.1341494E+06 -0.9698983E+00  0.1725993E+05 -0.1508964E+01
  0.1814286E+01  0.2727837E+06 -0.1528043E+01  0.1290274E+06 -0.1014089E+01  0.1732941E+05 -0.1528452E+01
  0.1845238E+01  0.2671329E+06 -0.1549484E+01  0.1241028E+06 -0.1059281E+01  0.1738866E+05 -0.1549894E+01
  0.1876190E+01  0.2613506E+06 -0.1573041E+01  0.1193197E+06 -0.1105608E+01  0.1743255E+05 -0.1573436E+01
  0.1907143E+01  0.2554805E+06 -0.1598691E+01  0.1146805E+06 -0.1153049E+01  0.1746485E+05 -0.1598826E+01
  0.1938095E+01  0.2495653E+06 -0.1626360E+01  0.1101667E+06 -0.1201654E+01  0.1747557E+05 -0.1626294E+01
  0.1969048E+01  0.2436290E+06 -0.1656015E+01  0.1057822E+06 -0.1251373E+01  0.1746894E+05 -0.1655922E+01
  0.2000000E+01  0.2376950E+06 -0.1687610E+01  0.1015050E+06 -0.1302266E+01  0.1744739E+05 -0.1687664E+01
