VARIABLES="w (rad/s)"
"abs(F   1   1)" "angle(F   1   1)"
"abs(F   1   2)" "angle(F   1   2)"
"abs(F   1   3)" "angle(F   1   3)"
Zone t="Diffraction force - beta =   0.000 deg",I=    64,F=POINT
  0.5000000E-01  0.9783671E+03 -0.1570782E+01  0.2262938E+06 -0.1548848E-04  0.1608748E+02 -0.1569893E+01
  0.8095238E-01  0.1594884E+04 -0.1570814E+01  0.2259830E+06 -0.4168221E-04  0.2633539E+02 -0.1570270E+01
  0.1119048E+00  0.2225058E+04 -0.1570803E+01  0.2255262E+06 -0.8282034E-04  0.3671901E+02 -0.1570428E+01
  0.1428571E+00  0.2879816E+04 -0.1570797E+01  0.2249229E+06 -0.1421119E-03  0.4770723E+02 -0.1570512E+01
  0.1738095E+00  0.3561882E+04 -0.1570786E+01  0.2241720E+06 -0.2244394E-03  0.5898862E+02 -0.1570554E+01
  0.2047619E+00  0.4284050E+04 -0.1570793E+01  0.2232722E+06 -0.3367854E-03  0.7131013E+02 -0.1570595E+01
  0.2357143E+00  0.5047073E+04 -0.1570789E+01  0.2222220E+06 -0.4895883E-03  0.8428416E+02 -0.1570626E+01
  0.2666667E+00  0.5875689E+04 -0.1570786E+01  0.2210197E+06 -0.6956593E-03  0.9842531E+02 -0.1570647E+01
  0.2976190E+00  0.6773931E+04 -0.1570780E+01  0.2196642E+06 -0.9763995E-03  0.1142654E+03 -0.1570658E+01
  0.3285715E+00  0.7751345E+04 -0.1570766E+01  0.2181530E+06 -0.1354286E-02  0.1312918E+03 -0.1570657E+01
  0.3595238E+00  0.8834021E+04 -0.1570756E+01  0.2164888E+06 -0.1864223E-02  0.1504763E+03 -0.1570663E+01
  0.3904762E+00  0.1003770E+05 -0.1570740E+01  0.2146697E+06 -0.2546292E-02  0.1722489E+03 -0.1570654E+01
  0.4214286E+00  0.1136104E+05 -0.1570703E+01  0.2127095E+06 -0.3427107E-02  0.1965829E+03 -0.1570637E+01
  0.4523810E+00  0.1281873E+05 -0.1570660E+01  0.2106010E+06 -0.4575025E-02  0.2232955E+03 -0.1570600E+01
  0.4833333E+00  0.1442947E+05 -0.1570597E+01  0.2083673E+06 -0.5965251E-02  0.2538649E+03 -0.1570547E+01
  0.5142857E+00  0.1618192E+05 -0.1570510E+01  0.2060092E+06 -0.7676903E-02  0.2882176E+03 -0.1570463E+01
  0.5452381E+00  0.1803639E+05 -0.1570392E+01  0.2035327E+06 -0.9691154E-02  0.3224026E+03 -0.1570352E+01
  0.5761905E+00  0.2001453E+05 -0.1570238E+01  0.2009468E+06 -0.1201826E-01  0.3616439E+03 -0.1570201E+01
  0.6071429E+00  0.2213047E+05 -0.1570037E+01  0.1982604E+06 -0.1472685E-01  0.4043133E+03 -0.1570005E+01
  0.6380953E+00  0.2434885E+05 -0.1569786E+01  0.1954721E+06 -0.1776024E-01  0.4501177E+03 -0.1569758E+01
  0.6690477E+00  0.2664570E+05 -0.1569470E+01  0.1925941E+06 -0.2118894E-01  0.4979610E+03 -0.1569445E+01
  0.7000000E+00  0.2901407E+05 -0.1569078E+01  0.1896340E+06 -0.2505563E-01  0.5463838E+03 -0.1569055E+01
  0.7309524E+00  0.3149068E+05 -0.1568601E+01  0.1865920E+06 -0.2933893E-01  0.5994987E+03 -0.1568579E+01
  0.7619048E+00  0.3406963E+05 -0.1568022E+01  0.1834841E+06 -0.3408476E-01  0.6577916E+03 -0.1568004E+01
  0.7928572E+00  0.3673944E+05 -0.1567330E+01  0.1803171E+06 -0.3931718E-01  0.7196262E+03 -0.1567314E+01
  0.8238096E+00  0.3947166E+05 -0.1566505E+01  0.1770999E+06 -0.4505222E-01  0.7824999E+03 -0.1566490E+01
  0.8547620E+00  0.4223910E+05 -0.1565534E+01  0.1738382E+06 -0.5130425E-01  0.8457468E+03 -0.1565517E+01
  0.8857143E+00  0.4507264E+05 -0.1564397E+01  0.1705336E+06 -0.5808969E-01  0.9142579E+03 -0.1564383E+01
  0.9166667E+00  0.4800291E+05 -0.1563081E+01  0.1671963E+06 -0.6542388E-01  0.9875313E+03 -0.1563071E+01
  0.9476191E+00  0.5101096E+05 -0.1561567E+01  0.1638453E+06 -0.7332145E-01  0.1063943E+04 -0.1561560E+01
  0.9785714E+00  0.5407703E+05 -0.1559835E+01  0.1604859E+06 -0.8179212E-01  0.1144523E+04 -0.1559832E+01
  0.1009524E+01  0.5718891E+05 -0.1557867E+01  0.1571201E+06 -0.9084428E-01  0.1230050E+04 -0.1557863E+01
  0.1040476E+01  0.6033605E+05 -0.1555643E+01  0.1537484E+06 -0.1004809E+00  0.1318062E+04 -0.1555637E+01
  0.1071429E+01  0.6348916E+05 -0.1553146E+01  0.1503806E+06 -0.1107143E+00  0.1404271E+04 -0.1553133E+01
  0.1102381E+01  0.6665327E+05 -0.1550360E+01  0.1470203E+06 -0.1215516E+00  0.1493030E+04 -0.1550348E+01
  0.1133333E+01  0.6985956E+05 -0.1547283E+01  0.1436807E+06 -0.1330071E+00  0.1588420E+04 -0.1547278E+01
  0.1164286E+01  0.7309817E+05 -0.1543904E+01  0.1403600E+06 -0.1450821E+00  0.1689726E+04 -0.1543923E+01
  0.1195238E+01  0.7636584E+05 -0.1540214E+01  0.1370634E+06 -0.1577708E+00  0.1796215E+04 -0.1540238E+01
  0.1226190E+01  0.7962879E+05 -0.1536204E+01  0.1337973E+06 -0.1710784E+00  0.1903330E+04 -0.1536234E+01
  0.1257143E+01  0.8283721E+05 -0.1531854E+01  0.1305679E+06 -0.1851588E+00  0.2010924E+04 -0.1531889E+01
  0.1288095E+01  0.8606309E+05 -0.1527205E+01  0.1273775E+06 -0.1995573E+00  0.2123383E+04 -0.1527236E+01
  0.1319048E+01  0.8917691E+05 -0.1522216E+01  0.1242321E+06 -0.2147384E+00  0.2235464E+04 -0.1522218E+01
  0.1350000E+01  0.9221579E+05 -0.1516915E+01  0.1211198E+06 -0.2305328E+00  0.2348424E+04 -0.1516871E+01
  0.1380952E+01  0.9517630E+05 -0.1511332E+01  0.1180377E+06 -0.2469229E+00  0.2464274E+04 -0.1511268E+01
  0.1411905E+01  0.9786745E+05 -0.1505804E+01  0.1150331E+06 -0.2637890E+00  0.2563340E+04 -0.1505738E+01
  0.1442857E+01  0.1006504E+06 -0.1499838E+01  0.1120507E+06 -0.2814603E+00  0.2679440E+04 -0.1499825E+01
  0.1473810E+01  0.1033200E+06 -0.1493721E+01  0.1091211E+06 -0.2997616E+00  0.2795552E+04 -0.1493752E+01
  0.1504762E+01  0.1058523E+06 -0.1487496E+01  0.1062497E+06 -0.3187022E+00  0.2913126E+04 -0.1487501E+01
  0.1535714E+01  0.1082227E+06 -0.1481206E+01  0.1034303E+06 -0.3382643E+00  0.3030895E+04 -0.1481172E+01
  0.1566667E+01  0.1104274E+06 -0.1474919E+01  0.1006602E+06 -0.3584506E+00  0.3148218E+04 -0.1474834E+01
  0.1597619E+01  0.1124508E+06 -0.1468717E+01  0.9793822E+05 -0.3792505E+00  0.3264328E+04 -0.1468649E+01
  0.1628572E+01  0.1142892E+06 -0.1462713E+01  0.9527050E+05 -0.4006841E+00  0.3375045E+04 -0.1462646E+01
  0.1659524E+01  0.1159152E+06 -0.1456981E+01  0.9266059E+05 -0.4227450E+00  0.3480693E+04 -0.1456967E+01
  0.1690476E+01  0.1173300E+06 -0.1451606E+01  0.9010777E+05 -0.4454316E+00  0.3581282E+04 -0.1451659E+01
  0.1721429E+01  0.1185308E+06 -0.1446670E+01  0.8761129E+05 -0.4687374E+00  0.3679279E+04 -0.1446686E+01
  0.1752381E+01  0.1194962E+06 -0.1442247E+01  0.8517633E+05 -0.4926722E+00  0.3775188E+04 -0.1442157E+01
  0.1783333E+01  0.1202398E+06 -0.1438447E+01  0.8279005E+05 -0.5172373E+00  0.3867316E+04 -0.1438355E+01
  0.1814286E+01  0.1207672E+06 -0.1435390E+01  0.8045452E+05 -0.5424278E+00  0.3955809E+04 -0.1435274E+01
  0.1845238E+01  0.1210756E+06 -0.1433153E+01  0.7817109E+05 -0.5682332E+00  0.4038178E+04 -0.1433038E+01
  0.1876190E+01  0.1211721E+06 -0.1431811E+01  0.7594033E+05 -0.5946452E+00  0.4112346E+04 -0.1431768E+01
  0.1907143E+01  0.1210542E+06 -0.1431429E+01  0.7376519E+05 -0.6216751E+00  0.4180057E+04 -0.1431376E+01
  0.1938095E+01  0.1207322E+06 -0.1432081E+01  0.7164313E+05 -0.6493554E+00  0.4239738E+04 -0.1432028E+01
  0.1969048E+01  0.1202243E+06 -0.1433848E+01  0.6957184E+05 -0.6776602E+00  0.4295312E+04 -0.1433829E+01
  0.2000000E+01  0.1195415E+06 -0.1436790E+01  0.6756153E+05 -0.7065805E+00  0.4346750E+04 -0.1436774E+01
