VARIABLES="w (rad/s)"
"A   1   1" "B   1   1"
"A   1   2" "B   1   2"
"A   1   3" "B   1   3"
Zone t="Motion of body    1 in DoF   1",I=    64,F=POINT
  0.5000000E-01  0.1350181E+06  0.1231365E-01  0.4920959E-02 -0.2392859E-05 -0.1974041E+06 -0.1659442E-01
  0.8095238E-01  0.1356355E+06  0.5443725E-01  0.4947887E-02  0.2958346E-04 -0.1982639E+06 -0.7350346E-01
  0.1119048E+00  0.1361746E+06  0.1530906E+00  0.4431542E-03  0.1664733E-04 -0.1990512E+06 -0.2068053E+00
  0.1428571E+00  0.1363638E+06  0.3449597E+00 -0.4325867E-02 -0.4834146E-04 -0.1993387E+06 -0.4661923E+00
  0.1738095E+00  0.1367902E+06  0.6879531E+00 -0.5157680E-02 -0.7508369E-04 -0.1999420E+06 -0.9300101E+00
  0.2047619E+00  0.1372648E+06  0.1272369E+01  0.6222392E-02  0.1072017E-03 -0.2004708E+06 -0.1719346E+01
  0.2357143E+00  0.1373605E+06  0.2242826E+01 -0.1278501E-01 -0.1773611E-03 -0.2006857E+06 -0.3031629E+01
  0.2666667E+00  0.1379581E+06  0.3838308E+01  0.1204491E-01  0.3877580E-03 -0.2014107E+06 -0.5186751E+01
  0.2976190E+00  0.1384290E+06  0.6455988E+01  0.5639648E-03  0.3255904E-04 -0.2018563E+06 -0.8719385E+01
  0.3285715E+00  0.1389851E+06  0.1071757E+02 -0.9264737E-02 -0.3576316E-03 -0.2028035E+06 -0.1448386E+02
  0.3595238E+00  0.1396193E+06  0.1766298E+02  0.7172641E-02  0.4095733E-03 -0.2034214E+06 -0.2385526E+02
  0.3904762E+00  0.1404242E+06  0.2891697E+02  0.3321578E-02  0.2869219E-03 -0.2044663E+06 -0.3905046E+02
  0.4214286E+00  0.1410561E+06  0.4671404E+02  0.7205251E-02  0.3922582E-03 -0.2054006E+06 -0.6309935E+02
  0.4523810E+00  0.1421236E+06  0.7491653E+02 -0.1393047E-01 -0.1824021E-02 -0.2067755E+06 -0.1011758E+03
  0.4833333E+00  0.1431303E+06  0.1171959E+03 -0.6061422E-02 -0.4404187E-03 -0.2079003E+06 -0.1581722E+03
  0.5142857E+00  0.1441852E+06  0.1803837E+03 -0.1453824E-02  0.3688335E-03 -0.2091073E+06 -0.2433114E+03
  0.5452381E+00  0.1453949E+06  0.2712404E+03 -0.1276141E-01 -0.1725554E-02 -0.2110089E+06 -0.3661190E+03
  0.5761905E+00  0.1465347E+06  0.3982004E+03  0.1403556E-02  0.3862381E-03 -0.2124789E+06 -0.5373747E+03
  0.6071429E+00  0.1483592E+06  0.5754581E+03  0.1507927E-02  0.1418114E-02 -0.2146081E+06 -0.7758670E+03
  0.6380953E+00  0.1498480E+06  0.8124182E+03  0.7460864E-02  0.2098083E-03 -0.2165056E+06 -0.1094931E+04
  0.6690477E+00  0.1513576E+06  0.1127541E+04 -0.5747296E-02 -0.2372265E-02 -0.2185703E+06 -0.1519652E+04
  0.7000000E+00  0.1532675E+06  0.1543653E+04 -0.2920968E-02 -0.1505852E-02 -0.2211159E+06 -0.2080113E+04
  0.7309524E+00  0.1553416E+06  0.2082479E+04 -0.4884800E-02  0.7438660E-04 -0.2238174E+06 -0.2805073E+04
  0.7619048E+00  0.1575144E+06  0.2774364E+04 -0.2002716E-02 -0.1834869E-02 -0.2265019E+06 -0.3734113E+04
  0.7928572E+00  0.1598723E+06  0.3654041E+04  0.6543408E-02  0.2012253E-02 -0.2292444E+06 -0.4911758E+04
  0.8238096E+00  0.1625100E+06  0.4763539E+04  0.6297558E-03 -0.1579285E-02 -0.2329273E+06 -0.6404149E+04
  0.8547620E+00  0.1648918E+06  0.6138699E+04 -0.3248974E-02 -0.7591248E-02 -0.2360614E+06 -0.8249539E+04
  0.8857143E+00  0.1674791E+06  0.7839254E+04  0.5512853E-02  0.9765625E-03 -0.2395256E+06 -0.1053169E+05
  0.9166667E+00  0.1704802E+06  0.9932907E+04  0.6392045E-02  0.2544403E-02 -0.2430735E+06 -0.1332383E+05
  0.9476191E+00  0.1738280E+06  0.1249429E+05 -0.4186582E-03 -0.2613068E-02 -0.2474635E+06 -0.1674957E+05
  0.9785714E+00  0.1769176E+06  0.1557318E+05 -0.8732037E-02 -0.5088806E-02 -0.2512620E+06 -0.2085152E+05
  0.1009524E+01  0.1799358E+06  0.1925740E+05 -0.1511484E-02  0.4745483E-02 -0.2551101E+06 -0.2576207E+05
  0.1040476E+01  0.1829840E+06  0.2363405E+05  0.4751524E-02  0.5470276E-02 -0.2589104E+06 -0.3158246E+05
  0.1071429E+01  0.1861066E+06  0.2880371E+05  0.3133138E-02  0.4478455E-02 -0.2628837E+06 -0.3845400E+05
  0.1102381E+01  0.1890637E+06  0.3484422E+05 -0.4152500E-02 -0.3601074E-02 -0.2668578E+06 -0.4649793E+05
  0.1133333E+01  0.1916732E+06  0.4181384E+05 -0.5924000E-03 -0.1098633E-02 -0.2700131E+06 -0.5572083E+05
  0.1164286E+01  0.1941437E+06  0.4984784E+05  0.3669598E-02  0.4669189E-02 -0.2729073E+06 -0.6631973E+05
  0.1195238E+01  0.1961824E+06  0.5897477E+05  0.1276632E-02  0.4074097E-02 -0.2751160E+06 -0.7831584E+05
  0.1226190E+01  0.1977832E+06  0.6923631E+05  0.3982100E-03  0.4699707E-02 -0.2766145E+06 -0.9174000E+05
  0.1257143E+01  0.1985365E+06  0.8057113E+05  0.1553622E-02  0.8087158E-02 -0.2775238E+06 -0.1066614E+06
  0.1288095E+01  0.1987480E+06  0.9307862E+05  0.2227050E-02  0.2319336E-02 -0.2774909E+06 -0.1230255E+06
  0.1319048E+01  0.1976317E+06  0.1063689E+06  0.2915145E-02  0.5157471E-02 -0.2755994E+06 -0.1403336E+06
  0.1350000E+01  0.1955193E+06  0.1204414E+06 -0.4973235E-03  0.3601074E-02 -0.2725868E+06 -0.1586701E+06
  0.1380952E+01  0.1924228E+06  0.1350944E+06 -0.2165696E-02  0.4699707E-02 -0.2680729E+06 -0.1776054E+06
  0.1411905E+01  0.1878825E+06  0.1498268E+06 -0.5619763E-03  0.1037598E-02 -0.2617962E+06 -0.1965957E+06
  0.1442857E+01  0.1830673E+06  0.1650767E+06  0.8037303E-03 -0.7324219E-02 -0.2552458E+06 -0.2162315E+06
  0.1473810E+01  0.1769577E+06  0.1799060E+06  0.0000000E+00 -0.1464844E-02 -0.2468322E+06 -0.2350816E+06
  0.1504762E+01  0.1698190E+06  0.1940313E+06  0.4238660E-02  0.1153564E-01 -0.2369860E+06 -0.2528273E+06
  0.1535714E+01  0.1618765E+06  0.2072676E+06 -0.7750045E-03  0.4272461E-02 -0.2261829E+06 -0.2693329E+06
  0.1566667E+01  0.1533018E+06  0.2193381E+06  0.4149092E-02  0.8544922E-03 -0.2147086E+06 -0.2842968E+06
  0.1597619E+01  0.1443465E+06  0.2300320E+06  0.1528153E-02 -0.1037598E-02 -0.2026156E+06 -0.2971562E+06
  0.1628572E+01  0.1352553E+06  0.2393191E+06  0.3485428E-02 -0.2685547E-02 -0.1903844E+06 -0.3080390E+06
  0.1659524E+01  0.1262740E+06  0.2473777E+06 -0.1489538E-02 -0.1501465E-01 -0.1786505E+06 -0.3176000E+06
  0.1690476E+01  0.1172279E+06  0.2537404E+06  0.2482239E-02  0.1074219E-01 -0.1668528E+06 -0.3248342E+06
  0.1721429E+01  0.1083552E+06  0.2584502E+06 -0.4582702E-02  0.1147461E-01 -0.1552490E+06 -0.3297048E+06
  0.1752381E+01  0.9972388E+05  0.2615045E+06 -0.4414683E-02  0.8544922E-03 -0.1439165E+06 -0.3322643E+06
  0.1783333E+01  0.9157280E+05  0.2633564E+06  0.1155105E-02 -0.3479004E-02 -0.1333816E+06 -0.3334145E+06
  0.1814286E+01  0.8391845E+05  0.2640174E+06  0.1425555E-02 -0.1245117E-01 -0.1235781E+06 -0.3330477E+06
  0.1845238E+01  0.7679109E+05  0.2635429E+06  0.3597137E-03 -0.1019287E-01 -0.1143619E+06 -0.3308506E+06
  0.1876190E+01  0.7028231E+05  0.2622792E+06 -0.1777029E-02 -0.6103516E-04 -0.1059728E+06 -0.3275234E+06
  0.1907143E+01  0.6429859E+05  0.2604275E+06  0.2020218E-03 -0.5798340E-02 -0.9849220E+05 -0.3239641E+06
  0.1938095E+01  0.5880902E+05  0.2578476E+06  0.3955241E-02 -0.2746582E-02 -0.9174761E+05 -0.3196128E+06
  0.1969048E+01  0.5374432E+05  0.2543066E+06  0.1824482E-02 -0.5096436E-02 -0.8549699E+05 -0.3137849E+06
  0.2000000E+01  0.4918203E+05  0.2502120E+06  0.1299381E-02 -0.1147461E-01 -0.7988296E+05 -0.3071403E+06
Zone t="Motion of body    1 in DoF   2",I=    64,F=POINT
  0.5000000E-01  0.5264282E-02 -0.1430511E-05  0.1013979E+06  0.1975561E+03  0.1678467E-02 -0.2574921E-04
  0.8095238E-01 -0.3581327E-02 -0.4720688E-04  0.1006085E+06  0.3271963E+03  0.1319436E-02 -0.8201599E-04
  0.1119048E+00 -0.4567897E-02 -0.8583069E-05  0.9998141E+05  0.4677664E+03  0.8181308E-02  0.2574921E-04
  0.1428571E+00  0.4112244E-02  0.1239777E-04  0.9971669E+05  0.6244461E+03 -0.1281738E-01  0.8010864E-04
  0.1738095E+00  0.7023223E-03 -0.1811981E-04  0.9961833E+05  0.8033056E+03 -0.5091837E-02 -0.1220703E-03
  0.2047619E+00  0.2980787E-02  0.5722046E-05  0.9948443E+05  0.1012630E+04 -0.3427905E-02  0.6484985E-04
  0.2357143E+00 -0.4401929E-02 -0.2403259E-03  0.9965817E+05  0.1263172E+04  0.6473425E-02  0.1564026E-03
  0.2666667E+00 -0.2975464E-02  0.3204346E-03  0.9971141E+05  0.1563711E+04  0.9155273E-03 -0.3166199E-03
  0.2976190E+00 -0.3691406E-02 -0.2288818E-04  0.9997997E+05  0.1935403E+04  0.6357422E-02 -0.2593994E-03
  0.3285715E+00 -0.6873088E-02 -0.2708435E-03  0.1001166E+06  0.2387500E+04  0.1393194E-01 -0.6866455E-04
  0.3595238E+00  0.4880791E-02 -0.3395081E-03  0.1004207E+06  0.2944082E+04 -0.1358133E-02 -0.1678467E-03
  0.3904762E+00 -0.1484941E-02 -0.2975464E-03  0.1004283E+06  0.3621598E+04 -0.1031643E-01  0.3051758E-04
  0.4214286E+00  0.3041412E-02  0.5569458E-03  0.1006114E+06  0.4407498E+04  0.2317267E-02  0.5035400E-03
  0.4523810E+00 -0.6071391E-03  0.7629395E-04  0.1002305E+06  0.5346729E+04 -0.4047594E-02  0.9918213E-03
  0.4833333E+00  0.3851529E-02  0.1373291E-03  0.9994336E+05  0.6343287E+04 -0.8334455E-02 -0.8850098E-03
  0.5142857E+00  0.7832846E-02 -0.3204346E-03  0.9930236E+05  0.7452837E+04 -0.8544923E-02  0.3799438E-02
  0.5452381E+00  0.1567191E-02 -0.6713867E-03  0.9850846E+05  0.8604512E+04 -0.4029919E-02 -0.1739502E-02
  0.5761905E+00  0.3919364E-02  0.2273560E-02  0.9786628E+05  0.9764479E+04  0.1355888E-01 -0.9155273E-04
  0.6071429E+00 -0.3317440E-02 -0.4119873E-03  0.9657514E+05  0.1098318E+05  0.8444392E-02  0.1678467E-02
  0.6380953E+00 -0.1099999E-02  0.1525879E-02  0.9551308E+05  0.1214927E+05  0.6886952E-02 -0.3570557E-02
  0.6690477E+00 -0.9122692E-03  0.1281738E-02  0.9453789E+05  0.1330057E+05 -0.1368404E-01  0.5493164E-03
  0.7000000E+00 -0.7411411E-03  0.3967285E-03  0.9304521E+05  0.1446033E+05  0.1621791E-01 -0.1525879E-03
  0.7309524E+00  0.2672028E-02 -0.2258301E-02  0.9176589E+05  0.1555808E+05 -0.2171022E-02  0.3540039E-02
  0.7619048E+00 -0.4365921E-02  0.1007080E-02  0.9070238E+05  0.1659694E+05  0.7369994E-02  0.5737305E-02
  0.7928572E+00 -0.7698127E-03 -0.3417969E-02  0.8916080E+05  0.1759763E+05 -0.1539625E-03 -0.4272461E-02
  0.8238096E+00  0.7594114E-02  0.3112793E-02  0.8772446E+05  0.1853719E+05  0.4297157E-02 -0.7934570E-03
  0.8547620E+00 -0.7854663E-03 -0.4028320E-02  0.8643494E+05  0.1938414E+05  0.1513808E-01 -0.2563477E-02
  0.8857143E+00  0.5237210E-02  0.4089355E-02  0.8533095E+05  0.2013560E+05 -0.1185263E-01 -0.1892090E-02
  0.9166667E+00 -0.6924716E-02  0.7995605E-02  0.8380550E+05  0.2082028E+05 -0.6924716E-02 -0.9643555E-02
  0.9476191E+00  0.2608563E-02 -0.6103516E-02  0.8244464E+05  0.2142130E+05  0.1159361E-02  0.6958008E-02
  0.9785714E+00 -0.7796462E-03  0.1342773E-02  0.8119939E+05  0.2190734E+05 -0.1010421E-01 -0.7629395E-02
  0.1009524E+01  0.3113657E-02  0.7080078E-02  0.8019614E+05  0.2228029E+05 -0.8222473E-02 -0.3295898E-02
  0.1040476E+01 -0.4428890E-02  0.6103516E-03  0.7900003E+05  0.2255144E+05  0.6218044E-02  0.6774902E-02
  0.1071429E+01 -0.4842123E-02 -0.3295898E-02  0.7772827E+05  0.2273209E+05  0.2734375E-02  0.2990723E-02
  0.1102381E+01  0.1218067E-02 -0.1953125E-02  0.7665119E+05  0.2282693E+05 -0.3432733E-02  0.6652832E-02
  0.1133333E+01  0.2585018E-02  0.2441406E-02  0.7571402E+05  0.2280890E+05 -0.4308364E-02 -0.9155273E-03
  0.1164286E+01 -0.9829281E-03  0.3173828E-02  0.7501862E+05  0.2270349E+05  0.6710122E-02 -0.1605225E-01
  0.1195238E+01  0.2400068E-02  0.3662109E-03  0.7420886E+05  0.2249177E+05 -0.1021305E-02  0.7324219E-03
  0.1226190E+01  0.1095077E-02  0.3173828E-02  0.7323477E+05  0.2217671E+05 -0.1692392E-02 -0.2075195E-02
  0.1257143E+01 -0.9831515E-03  0.7934570E-03  0.7247860E+05  0.2184102E+05 -0.2330433E-02  0.4699707E-02
  0.1288095E+01  0.6752225E-03  0.8300781E-02  0.7185077E+05  0.2140376E+05 -0.4264564E-02  0.4943848E-02
  0.1319048E+01 -0.3181209E-04 -0.7812500E-02  0.7137786E+05  0.2090860E+05 -0.1295620E-02 -0.1403809E-02
  0.1350000E+01  0.1299823E-03 -0.6469727E-02  0.7111503E+05  0.2038637E+05 -0.2350984E-02  0.1953125E-01
  0.1380952E+01  0.4934623E-02  0.6408691E-02  0.7067265E+05  0.1973762E+05 -0.3182247E-02 -0.1586914E-01
  0.1411905E+01 -0.1737263E-02  0.6103516E-03  0.7011612E+05  0.1898241E+05 -0.3285400E-02  0.1562500E-01
  0.1442857E+01 -0.3833582E-02 -0.5126953E-02  0.6975643E+05  0.1829361E+05  0.6429842E-02  0.5065918E-02
  0.1473810E+01  0.2598678E-02  0.7629395E-02  0.6950050E+05  0.1758211E+05 -0.9110902E-03 -0.1562500E-01
  0.1504762E+01 -0.1835400E-02  0.3601074E-02  0.6934566E+05  0.1683899E+05  0.7138795E-02  0.1098633E-02
  0.1535714E+01  0.9935955E-05 -0.5615234E-02  0.6933695E+05  0.1615186E+05  0.3497456E-02  0.1354980E-01
  0.1566667E+01  0.1519386E-02 -0.5493164E-03  0.6945591E+05  0.1550342E+05  0.1090841E-02 -0.1373291E-01
  0.1597619E+01  0.1814682E-02  0.3356934E-02  0.6931930E+05  0.1461839E+05 -0.1833784E-02 -0.1831055E-01
  0.1628572E+01 -0.1143071E-02  0.5859375E-02  0.6917004E+05  0.1365362E+05  0.4497327E-02 -0.6896973E-02
  0.1659524E+01  0.5149020E-03 -0.2563477E-02  0.6914560E+05  0.1285008E+05  0.2206723E-02 -0.6774902E-02
  0.1690476E+01 -0.5235269E-03  0.4760742E-02  0.6918301E+05  0.1209041E+05  0.1877476E-02  0.3356934E-03
  0.1721429E+01  0.1116867E-02 -0.1220703E-03  0.6928153E+05  0.1135534E+05 -0.1560069E-02  0.5798340E-03
  0.1752381E+01  0.1428024E-02  0.6103516E-02  0.6944843E+05  0.1066233E+05  0.3343665E-02 -0.1025391E-01
  0.1783333E+01 -0.1163661E-02  0.8544922E-02  0.6967556E+05  0.1009221E+05  0.1505914E-02 -0.8209229E-02
  0.1814286E+01  0.2556748E-02 -0.1159668E-02  0.6995407E+05  0.9591215E+04 -0.6324588E-02 -0.7019043E-03
  0.1845238E+01 -0.1290008E-02 -0.3662109E-02  0.7005298E+05  0.8723128E+04  0.7806200E-02  0.1342773E-02
  0.1876190E+01 -0.4554400E-03 -0.7934570E-03  0.7017674E+05  0.7847931E+04  0.2212137E-02 -0.6103516E-03
  0.1907143E+01  0.3008325E-02  0.3112793E-02  0.7035473E+05  0.7192375E+04  0.1536166E-02 -0.7019043E-02
  0.1938095E+01  0.2928788E-02 -0.2502441E-02  0.7054169E+05  0.6619087E+04 -0.3275204E-02  0.5889893E-02
  0.1969048E+01 -0.1503369E-02 -0.2502441E-02  0.7075749E+05  0.6072068E+04 -0.2603773E-02 -0.5569458E-02
  0.2000000E+01 -0.1983643E-03  0.6103516E-03  0.7099540E+05  0.5571673E+04  0.1708984E-02 -0.7171631E-02
Zone t="Motion of body    1 in DoF   3",I=    64,F=POINT
  0.5000000E-01 -0.1962622E+06 -0.1650722E-01 -0.8087158E-02 -0.1229953E-04  0.3761712E+06  0.2228585E-01
  0.8095238E-01 -0.1971676E+06 -0.7275811E-01 -0.1218123E-01 -0.2430601E-04  0.3775060E+06  0.9835479E-01
  0.1119048E+00 -0.1980348E+06 -0.2044140E+00 -0.2546432E-01 -0.1366246E-03  0.3783137E+06  0.2760824E+00
  0.1428571E+00 -0.1983039E+06 -0.4608665E+00  0.3871917E-03 -0.5796552E-04  0.3788839E+06  0.6227866E+00
  0.1738095E+00 -0.1988955E+06 -0.9193580E+00  0.2295716E-01  0.2746624E-03  0.3797839E+06  0.1242758E+01
  0.2047619E+00 -0.1994980E+06 -0.1699532E+01 -0.2002716E-01 -0.3896281E-03  0.3803192E+06  0.2296617E+01
  0.2357143E+00 -0.1996274E+06 -0.2996527E+01 -0.2270554E-01 -0.5313698E-03  0.3806558E+06  0.4050272E+01
  0.2666667E+00 -0.2004063E+06 -0.5127339E+01 -0.4076958E-02 -0.1877919E-03  0.3814710E+06  0.6928315E+01
  0.2976190E+00 -0.2008299E+06 -0.8622975E+01  0.1051025E-01  0.3972799E-03  0.3819695E+06  0.1164564E+02
  0.3285715E+00 -0.2017872E+06 -0.1431488E+02 -0.6002342E-02 -0.5859807E-03  0.3833677E+06  0.1934638E+02
  0.3595238E+00 -0.2023630E+06 -0.2359070E+02 -0.1464237E-02  0.1599342E-03  0.3840815E+06  0.3186235E+02
  0.3904762E+00 -0.2034799E+06 -0.3861697E+02 -0.1844453E-01 -0.8800477E-03  0.3853514E+06  0.5214989E+02
  0.4214286E+00 -0.2042788E+06 -0.6237826E+02 -0.1448292E-01 -0.7415712E-03  0.3869660E+06  0.8425697E+02
  0.4523810E+00 -0.2057459E+06 -0.1000241E+03  0.1128267E-01  0.2914071E-03  0.3883237E+06  0.1350815E+03
  0.4833333E+00 -0.2068449E+06 -0.1564558E+03  0.7261079E-03 -0.5143881E-04  0.3898019E+06  0.2111553E+03
  0.5142857E+00 -0.2080576E+06 -0.2407735E+03  0.5993314E-02  0.1779795E-03  0.3909713E+06  0.3247674E+03
  0.5452381E+00 -0.2099417E+06 -0.3619760E+03  0.2139495E-01  0.1927376E-02  0.3938398E+06  0.4885938E+03
  0.5761905E+00 -0.2112907E+06 -0.5313315E+03  0.2084149E-01  0.4444599E-02  0.3960102E+06  0.7170366E+03
  0.6071429E+00 -0.2135485E+06 -0.7676703E+03 -0.2455408E-01 -0.4477024E-02  0.3981270E+06  0.1035021E+04
  0.6380953E+00 -0.2154203E+06 -0.1083451E+04 -0.1010325E-01 -0.2050400E-03  0.4006532E+06  0.1460221E+04
  0.6690477E+00 -0.2173527E+06 -0.1503299E+04  0.3140487E-01  0.8714676E-02  0.4037061E+06  0.2026087E+04
  0.7000000E+00 -0.2199402E+06 -0.2057248E+04  0.4326956E-02  0.3575325E-02  0.4066223E+06  0.2772216E+04
  0.7309524E+00 -0.2226387E+06 -0.2774251E+04  0.1948701E-01  0.9977341E-02  0.4101756E+06  0.3736884E+04
  0.7619048E+00 -0.2252343E+06 -0.3694805E+04 -0.1496029E-01 -0.6778717E-02  0.4139074E+06  0.4972987E+04
  0.7928572E+00 -0.2280433E+06 -0.4863703E+04  0.3416044E-02 -0.1907349E-04  0.4167003E+06  0.6537792E+04
  0.8238096E+00 -0.2317041E+06 -0.6337034E+04  0.4445335E-03  0.2347946E-02  0.4218044E+06  0.8519644E+04
  0.8547620E+00 -0.2347451E+06 -0.8161394E+04  0.1284416E-01  0.8392334E-02  0.4258664E+06  0.1096783E+05
  0.8857143E+00 -0.2380619E+06 -0.1041664E+05 -0.2556586E-01 -0.1303101E-01  0.4307800E+06  0.1399449E+05
  0.9166667E+00 -0.2417008E+06 -0.1318800E+05 -0.1578036E-01 -0.4806519E-02  0.4344514E+06  0.1768976E+05
  0.9476191E+00 -0.2461177E+06 -0.1657671E+05 -0.6517381E-02 -0.3486633E-02  0.4402905E+06  0.2222224E+05
  0.9785714E+00 -0.2499006E+06 -0.2064423E+05  0.3161465E-02  0.7957458E-02  0.4449941E+06  0.2764125E+05
  0.1009524E+01 -0.2536393E+06 -0.2550819E+05 -0.2259668E-02 -0.7118225E-02  0.4502042E+06  0.3412490E+05
  0.1040476E+01 -0.2573977E+06 -0.3127405E+05 -0.1573026E-01 -0.1905823E-01  0.4547714E+06  0.4179227E+05
  0.1071429E+01 -0.2613566E+06 -0.3807060E+05 -0.1554464E-01 -0.1425171E-01  0.4594434E+06  0.5082501E+05
  0.1102381E+01 -0.2652674E+06 -0.4600257E+05 -0.5909202E-02  0.1396179E-01  0.4647530E+06  0.6138894E+05
  0.1133333E+01 -0.2683781E+06 -0.5513363E+05  0.1440336E-01  0.1049805E-01  0.4684733E+06  0.7347047E+05
  0.1164286E+01 -0.2712484E+06 -0.6565090E+05  0.2887966E-02 -0.1153564E-01  0.4722015E+06  0.8734671E+05
  0.1195238E+01 -0.2734795E+06 -0.7756682E+05 -0.1422248E-03  0.1129150E-02  0.4745746E+06  0.1030060E+06
  0.1226190E+01 -0.2750751E+06 -0.9091412E+05 -0.4460418E-02  0.1831055E-03  0.4754860E+06  0.1204568E+06
  0.1257143E+01 -0.2759745E+06 -0.1056392E+06 -0.2022288E-01 -0.1242065E-01  0.4766338E+06  0.1398468E+06
  0.1288095E+01 -0.2759261E+06 -0.1218281E+06  0.2345510E-02 -0.7019043E-03  0.4762359E+06  0.1610248E+06
  0.1319048E+01 -0.2739928E+06 -0.1389674E+06 -0.7929888E-02 -0.2624512E-02  0.4732740E+06  0.1833468E+06
  0.1350000E+01 -0.2708994E+06 -0.1570783E+06  0.5487512E-02 -0.2258301E-02  0.4693398E+06  0.2069583E+06
  0.1380952E+01 -0.2664062E+06 -0.1758161E+06  0.1523722E-01  0.8544922E-02  0.4627890E+06  0.2311565E+06
  0.1411905E+01 -0.2601236E+06 -0.1945001E+06 -0.1945303E-02 -0.7690430E-02  0.4535459E+06  0.2551855E+06
  0.1442857E+01 -0.2536982E+06 -0.2138519E+06  0.4124405E-03 -0.1037598E-02  0.4447915E+06  0.2801044E+06
  0.1473810E+01 -0.2454240E+06 -0.2325211E+06  0.7599320E-02  0.2325439E-01  0.4335741E+06  0.3038236E+06
  0.1504762E+01 -0.2356789E+06 -0.2501235E+06 -0.1143830E-01 -0.2484131E-01  0.4202330E+06  0.3259030E+06
  0.1535714E+01 -0.2249574E+06 -0.2665105E+06  0.4530795E-02  0.4211426E-02  0.4060320E+06  0.3463431E+06
  0.1566667E+01 -0.2135404E+06 -0.2813350E+06 -0.3759506E-02 -0.1464844E-02  0.3913131E+06  0.3647602E+06
  0.1597619E+01 -0.2015752E+06 -0.2941046E+06  0.4278828E-02  0.1556396E-01  0.3749332E+06  0.3799541E+06
  0.1628572E+01 -0.1894936E+06 -0.3049140E+06  0.7495545E-03  0.1464844E-02  0.3581943E+06  0.3923490E+06
  0.1659524E+01 -0.1779566E+06 -0.3142846E+06  0.5296135E-02  0.2160645E-01  0.3431277E+06  0.4034092E+06
  0.1690476E+01 -0.1663463E+06 -0.3214030E+06  0.1047054E-02  0.5432129E-02  0.3281765E+06  0.4114338E+06
  0.1721429E+01 -0.1548776E+06 -0.3262402E+06  0.4361101E-02 -0.1190186E-01  0.3132645E+06  0.4161498E+06
  0.1752381E+01 -0.1435986E+06 -0.3288087E+06  0.1316568E-01 -0.2868652E-02  0.2985891E+06  0.4177621E+06
  0.1783333E+01 -0.1331330E+06 -0.3299669E+06  0.6981966E-02  0.4272461E-03  0.2855169E+06  0.4179059E+06
  0.1814286E+01 -0.1233762E+06 -0.3296380E+06 -0.2691314E-03 -0.3662109E-03  0.2735927E+06  0.4162446E+06
  0.1845238E+01 -0.1142506E+06 -0.3275083E+06  0.2183090E-02  0.8666992E-02  0.2614041E+06  0.4112459E+06
  0.1876190E+01 -0.1059393E+06 -0.3243289E+06  0.1275232E-01  0.5493164E-03  0.2501450E+06  0.4045982E+06
  0.1907143E+01 -0.9861227E+05 -0.3207887E+06  0.6080656E-02 -0.6958008E-02  0.2410169E+06  0.3986935E+06
  0.1938095E+01 -0.9205284E+05 -0.3164726E+06 -0.8376963E-02 -0.1196289E-01  0.2331828E+06  0.3921557E+06
  0.1969048E+01 -0.8588513E+05 -0.3107023E+06 -0.2417789E-02  0.2929688E-02  0.2257046E+06  0.3832711E+06
  0.2000000E+01 -0.8029729E+05 -0.3041293E+06  0.5004883E-02  0.1034546E-01  0.2189195E+06  0.3731789E+06
