VARIABLES="w (rad/s)"
"A   1   1" "B   1   1"
"A   1   2" "B   1   2"
"A   1   3" "B   1   3"
Zone t="Motion of body    1 in DoF   1",I=    64,F=POINT
  0.5000000E-01  0.1007240E+06  0.1415063E-01  0.5378723E-02  0.5828068E-05  0.1564961E+04  0.2910749E-03
  0.8095238E-01  0.1010095E+06  0.6223413E-01 -0.1149795E-01 -0.1048897E-03  0.1546012E+04  0.1284764E-02
  0.1119048E+00  0.1010720E+06  0.1745730E+00  0.7431355E-02  0.4499243E-04  0.1523353E+04  0.3606338E-02
  0.1428571E+00  0.1011336E+06  0.3928713E+00 -0.2349854E-02  0.2873270E-04  0.1549508E+04  0.8173039E-02
  0.1738095E+00  0.1014690E+06  0.7823988E+00  0.9261875E-02  0.1141280E-03  0.1545859E+04  0.1632089E-01
  0.2047619E+00  0.1017173E+06  0.1443142E+01  0.8756061E-02  0.9207707E-04  0.1575634E+04  0.3047203E-01
  0.2357143E+00  0.1017842E+06  0.2539490E+01 -0.1961448E-01 -0.2168147E-03  0.1568403E+04  0.5388298E-01
  0.2666667E+00  0.1022652E+06  0.4334787E+01 -0.1533508E-01 -0.4539946E-03  0.1593792E+04  0.9306493E-01
  0.2976190E+00  0.1025656E+06  0.7267530E+01 -0.1066406E-01 -0.1366958E-03  0.1620105E+04  0.1580247E+00
  0.3285715E+00  0.1028065E+06  0.1201579E+02 -0.4249241E-02 -0.5566068E-03  0.1632595E+04  0.2644022E+00
  0.3595238E+00  0.1033950E+06  0.1973415E+02  0.9485711E-02  0.6840006E-04  0.1673330E+04  0.4410491E+00
  0.3904762E+00  0.1040153E+06  0.3218047E+02 -0.1975362E-01 -0.1533307E-02  0.1725146E+04  0.7324253E+00
  0.4214286E+00  0.1042752E+06  0.5169921E+02  0.7494909E-02  0.5388707E-03  0.1710591E+04  0.1188390E+01
  0.4523810E+00  0.1049396E+06  0.8243580E+02 -0.1733720E-01 -0.5799830E-03  0.1760576E+04  0.1930466E+01
  0.4833333E+00  0.1058680E+06  0.1282806E+03 -0.1294366E-01 -0.5469918E-03  0.1812347E+04  0.3061735E+01
  0.5142857E+00  0.1066166E+06  0.1962112E+03  0.1005809E-01  0.1731217E-02  0.1867105E+04  0.4778930E+01
  0.5452381E+00  0.1071484E+06  0.2927084E+03  0.1281738E-01  0.1224756E-02  0.1864939E+04  0.7225225E+01
  0.5761905E+00  0.1080618E+06  0.4267630E+03 -0.1784900E-01 -0.2344966E-02  0.1919290E+04  0.1075225E+02
  0.6071429E+00  0.1092909E+06  0.6111735E+03  0.7740693E-02  0.2000332E-03  0.2008030E+04  0.1577498E+02
  0.6380953E+00  0.1104919E+06  0.8556993E+03 -0.3849997E-02 -0.3618717E-02  0.2072761E+04  0.2256786E+02
  0.6690477E+00  0.1113581E+06  0.1176095E+04  0.3626270E-02  0.1924992E-02  0.2094099E+04  0.3156944E+02
  0.7000000E+00  0.1124328E+06  0.1592330E+04  0.6103515E-02  0.1780272E-02  0.2160718E+04  0.4372055E+02
  0.7309524E+00  0.1138647E+06  0.2123270E+04 -0.6366940E-02 -0.2421856E-02  0.2237256E+04  0.5960327E+02
  0.7619048E+00  0.1154080E+06  0.2793633E+04 -0.1005363E-01 -0.4776955E-02  0.2329522E+04  0.8034241E+02
  0.7928572E+00  0.1169874E+06  0.3630201E+04 -0.3406421E-02 -0.4532814E-02  0.2445461E+04  0.1072779E+03
  0.8238096E+00  0.1184465E+06  0.4660218E+04  0.1035393E-01 -0.4072189E-03  0.2517462E+04  0.1408718E+03
  0.8547620E+00  0.1197393E+06  0.5912646E+04  0.1153207E-01  0.8454323E-02  0.2570392E+04  0.1824444E+03
  0.8857143E+00  0.1211923E+06  0.7422650E+04 -0.6649879E-02 -0.2479553E-03  0.2661055E+04  0.2345534E+03
  0.9166667E+00  0.1228538E+06  0.9225807E+04  0.4494407E-02  0.2222061E-02  0.2788690E+04  0.2994271E+03
  0.9476191E+00  0.1245566E+06  0.1135612E+05 -0.1391234E-01 -0.5565643E-02  0.2909424E+04  0.3783022E+03
  0.9785714E+00  0.1261759E+06  0.1384803E+05 -0.4896178E-02 -0.9180069E-02  0.3028925E+04  0.4732218E+03
  0.1009524E+01  0.1276166E+06  0.1673286E+05  0.1587058E-01  0.2685547E-02  0.3144522E+04  0.5869442E+03
  0.1040476E+01  0.1287524E+06  0.2003373E+05  0.1965137E-02 -0.8327484E-02  0.3237760E+04  0.7211480E+03
  0.1071429E+01  0.1296630E+06  0.2377319E+05 -0.2008057E-01 -0.2615738E-01  0.3334721E+04  0.8785557E+03
  0.1102381E+01  0.1304490E+06  0.2795512E+05 -0.2676978E-01 -0.2594757E-01  0.3425164E+04  0.1059275E+04
  0.1133333E+01  0.1310350E+06  0.3257931E+05  0.3527473E-02  0.1022339E-02  0.3508457E+04  0.1263956E+04
  0.1164286E+01  0.1313619E+06  0.3763905E+05  0.9357476E-02  0.1110840E-01  0.3594769E+04  0.1498683E+04
  0.1195238E+01  0.1313169E+06  0.4311004E+05 -0.1562597E-01 -0.5889893E-02  0.3675527E+04  0.1764025E+04
  0.1226190E+01  0.1309249E+06  0.4896242E+05 -0.9706368E-02 -0.2616882E-02  0.3751828E+04  0.2060190E+04
  0.1257143E+01  0.1301209E+06  0.5515941E+05 -0.1089963E-01 -0.1445007E-01  0.3799406E+04  0.2382668E+04
  0.1288095E+01  0.1289714E+06  0.6151752E+05  0.2084898E-02 -0.3395081E-02  0.3829479E+04  0.2725363E+04
  0.1319048E+01  0.1273890E+06  0.6807438E+05 -0.1235466E-01 -0.7774353E-02  0.3829097E+04  0.3090808E+04
  0.1350000E+01  0.1253809E+06  0.7471664E+05 -0.3119575E-02  0.9834290E-02  0.3815937E+04  0.3483117E+04
  0.1380952E+01  0.1230003E+06  0.8135609E+05  0.1460740E-01 -0.3189087E-02  0.3790460E+04  0.3896084E+04
  0.1411905E+01  0.1198259E+06  0.8745325E+05  0.2485664E-02 -0.1231384E-01  0.3681681E+04  0.4290402E+04
  0.1442857E+01  0.1168571E+06  0.9377409E+05 -0.9390954E-02 -0.1319885E-01  0.3619129E+04  0.4723342E+04
  0.1473810E+01  0.1136221E+06  0.9982778E+05 -0.6543284E-02  0.3555298E-02  0.3531546E+04  0.5159004E+04
  0.1504762E+01  0.1101360E+06  0.1055522E+06  0.2960978E-02  0.8071899E-02  0.3416942E+04  0.5595065E+04
  0.1535714E+01  0.1065112E+06  0.1108889E+06 -0.8743641E-03  0.9613037E-03  0.3293207E+04  0.6030201E+04
  0.1566667E+01  0.1027419E+06  0.1157900E+06 -0.2064806E-02 -0.1042175E-01  0.3165592E+04  0.6465425E+04
  0.1597619E+01  0.9892630E+05  0.1202250E+06  0.4584459E-03  0.5844116E-02  0.3021578E+04  0.6892089E+04
  0.1628572E+01  0.9510037E+05  0.1241690E+06  0.6202564E-02 -0.6713867E-03  0.2866176E+04  0.7309329E+04
  0.1659524E+01  0.9131579E+05  0.1276225E+06 -0.5847816E-02  0.5783081E-02  0.2699404E+04  0.7712863E+04
  0.1690476E+01  0.8759998E+05  0.1305860E+06  0.5596321E-03  0.4074097E-02  0.2519413E+04  0.8093805E+04
  0.1721429E+01  0.8395112E+05  0.1330749E+06  0.3137866E-02 -0.7461548E-02  0.2334146E+04  0.8451010E+04
  0.1752381E+01  0.8043577E+05  0.1351185E+06  0.4493050E-02  0.7217407E-02  0.2146280E+04  0.8786596E+04
  0.1783333E+01  0.7704791E+05  0.1367349E+06  0.4996897E-02 -0.1846313E-02  0.1958229E+04  0.9112451E+04
  0.1814286E+01  0.7378675E+05  0.1379488E+06  0.5046214E-03 -0.5569458E-02  0.1774289E+04  0.9427552E+04
  0.1845238E+01  0.7070110E+05  0.1387856E+06 -0.5871188E-02  0.9994507E-02  0.1590997E+04  0.9727008E+04
  0.1876190E+01  0.6779834E+05  0.1392790E+06 -0.6099643E-02  0.8926392E-02  0.1413856E+04  0.1001639E+05
  0.1907143E+01  0.6505934E+05  0.1394598E+06  0.4592496E-02 -0.9643555E-02  0.1238312E+04  0.1028785E+05
  0.1938095E+01  0.6249750E+05  0.1393460E+06  0.8660394E-03  0.1170349E-01  0.1059508E+04  0.1053215E+05
  0.1969048E+01  0.6009306E+05  0.1389659E+06 -0.3099730E-04 -0.2487183E-02  0.8922262E+03  0.1075755E+05
  0.2000000E+01  0.5784646E+05  0.1383702E+06 -0.4547119E-02  0.4013062E-02  0.7213053E+03  0.1096379E+05
Zone t="Motion of body    1 in DoF   2",I=    64,F=POINT
  0.5000000E-01  0.1979828E-01 -0.4452467E-04  0.1740903E+06  0.5392535E+03  0.1274109E-01  0.2419949E-04
  0.8095238E-01  0.8340723E-02  0.5674362E-04  0.1714707E+06  0.8934898E+03  0.1635159E-01  0.9536743E-04
  0.1119048E+00  0.7158645E-03  0.1536608E-03  0.1700637E+06  0.1278141E+04  0.1677168E-01  0.1001358E-03
  0.1428571E+00 -0.9933472E-02 -0.3910065E-04  0.1692548E+06  0.1707347E+04  0.1367187E-01  0.2255440E-03
  0.1738095E+00 -0.2677604E-02  0.4553795E-04  0.1689502E+06  0.2198620E+04  0.1584615E-01  0.2326965E-03
  0.2047619E+00  0.1695322E-02  0.2412796E-03  0.1690185E+06  0.2774197E+04  0.1225848E-01  0.2908707E-03
  0.2357143E+00  0.1210530E-01 -0.7629395E-04  0.1693170E+06  0.3464794E+04  0.1767245E-01  0.3271103E-03
  0.2666667E+00 -0.1350403E-01 -0.1316071E-03  0.1698745E+06  0.4295202E+04  0.1178741E-01  0.4386902E-03
  0.2976190E+00 -0.6588135E-02  0.7433891E-03  0.1705085E+06  0.5323861E+04  0.1630371E-01  0.5187988E-03
  0.3285715E+00 -0.1023997E-01 -0.3213882E-03  0.1713225E+06  0.6577809E+04  0.1351398E-01  0.4596710E-03
  0.3595238E+00 -0.3098241E-02  0.2565384E-03  0.1719450E+06  0.8125210E+04  0.1544876E-01  0.7781982E-03
  0.3904762E+00 -0.7424703E-03 -0.3261566E-03  0.1725997E+06  0.1001202E+05  0.1500572E-01  0.9136200E-03
  0.4214286E+00 -0.6281965E-02 -0.9927750E-03  0.1726437E+06  0.1221153E+05  0.9993212E-02  0.1052856E-02
  0.4523810E+00  0.4401759E-02 -0.1506805E-03  0.1725106E+06  0.1483405E+05  0.1780942E-01  0.1377106E-02
  0.4833333E+00  0.1063906E-01  0.1222610E-02  0.1716853E+06  0.1764286E+05  0.1502728E-01  0.1522064E-02
  0.5142857E+00  0.1433055E-01  0.7629395E-03  0.1703172E+06  0.2077680E+05  0.1020643E-01  0.8010864E-03
  0.5452381E+00  0.1180990E-01  0.3578186E-02  0.1686006E+06  0.2404526E+05  0.1589579E-01  0.2128601E-02
  0.5761905E+00 -0.7918176E-02 -0.1274109E-02  0.1664045E+06  0.2738477E+05  0.1276442E-01  0.2967834E-02
  0.6071429E+00 -0.1937686E-01  0.1663208E-02  0.1638320E+06  0.3087779E+05  0.1422478E-01  0.2830505E-02
  0.6380953E+00  0.1398912E-01  0.2555847E-02  0.1611560E+06  0.3429161E+05  0.1554347E-01  0.3318787E-02
  0.6690477E+00 -0.1482437E-02 -0.4276276E-02  0.1581822E+06  0.3771929E+05  0.1605594E-01  0.3250122E-02
  0.7000000E+00 -0.1085554E-01  0.2410889E-02  0.1550164E+06  0.4116772E+05  0.1425607E-01  0.3967285E-02
  0.7309524E+00  0.2045771E-02 -0.2555847E-02  0.1518213E+06  0.4451554E+05  0.1440390E-01  0.4394531E-02
  0.7619048E+00  0.1954651E-01  0.3776550E-03  0.1484652E+06  0.4779167E+05  0.1297760E-01  0.4219055E-02
  0.7928572E+00  0.1732079E-03 -0.2876282E-02  0.1450129E+06  0.5097804E+05  0.1551173E-01  0.4302979E-02
  0.8238096E+00 -0.1426212E-02  0.1122284E-01  0.1415419E+06  0.5403933E+05  0.1218763E-01  0.4470825E-02
  0.8547620E+00  0.2829464E-01 -0.1388550E-02  0.1380708E+06  0.5695116E+05  0.1253176E-01  0.4867554E-02
  0.8857143E+00  0.8837792E-02  0.7629395E-04  0.1345825E+06  0.5970611E+05  0.1223164E-01  0.6088257E-02
  0.9166667E+00  0.5476518E-02 -0.1282501E-01  0.1311548E+06  0.6228068E+05  0.1108620E-01  0.4379272E-02
  0.9476191E+00  0.2866199E-02 -0.1222229E-01  0.1277465E+06  0.6466911E+05  0.1107834E-01  0.4791260E-02
  0.9785714E+00  0.3586372E-03  0.7934570E-03  0.1243742E+06  0.6685720E+05  0.1047844E-01  0.6515503E-02
  0.1009524E+01  0.1927142E-01  0.1161957E-01  0.1210555E+06  0.6884119E+05  0.9733956E-02  0.6973267E-02
  0.1040476E+01 -0.1246542E-02  0.8247375E-02  0.1178372E+06  0.7060995E+05  0.1275872E-01  0.6561279E-02
  0.1071429E+01 -0.5539958E-02 -0.1348877E-01  0.1147412E+06  0.7215414E+05  0.9342448E-02  0.7766724E-02
  0.1102381E+01  0.1051967E-02 -0.6660461E-02  0.1117718E+06  0.7347794E+05  0.9190866E-02  0.5813599E-02
  0.1133333E+01 -0.1171337E-02  0.9666443E-02  0.1089028E+06  0.7459342E+05  0.7728128E-02  0.5767822E-02
  0.1164286E+01  0.3224004E-02  0.7133484E-02  0.1061531E+06  0.7550210E+05  0.6028626E-02  0.8300781E-02
  0.1195238E+01 -0.3766064E-02 -0.1133728E-01  0.1035263E+06  0.7620706E+05  0.8655563E-02  0.7873535E-02
  0.1226190E+01 -0.1804389E-02 -0.7575989E-02  0.1010548E+06  0.7670155E+05  0.7391772E-02  0.7690430E-02
  0.1257143E+01 -0.7986588E-02 -0.1106262E-01  0.9873526E+05  0.7703238E+05  0.9710138E-02  0.8972168E-02
  0.1288095E+01  0.3281345E-02  0.1524353E-01  0.9651833E+05  0.7709868E+05  0.7652523E-02  0.5798340E-02
  0.1319048E+01  0.5668337E-02  0.7934570E-02  0.9444262E+05  0.7702745E+05  0.7264725E-02  0.6851196E-02
  0.1350000E+01  0.4634151E-02  0.8293152E-02  0.9248393E+05  0.7679710E+05  0.6962529E-02  0.5371094E-02
  0.1380952E+01  0.1504938E-01 -0.4531860E-02  0.9067805E+05  0.7638316E+05  0.7292649E-02  0.7095337E-02
  0.1411905E+01  0.1562726E-01  0.1255035E-01  0.8899306E+05  0.7594076E+05  0.7954126E-02  0.5249023E-02
  0.1442857E+01 -0.4526271E-02  0.9307861E-02  0.8746733E+05  0.7524217E+05  0.5160795E-02  0.7354736E-02
  0.1473810E+01 -0.8883129E-02  0.1892090E-02  0.8604852E+05  0.7441830E+05  0.7040242E-02  0.6698608E-02
  0.1504762E+01 -0.5060027E-02  0.8731842E-02  0.8475805E+05  0.7347266E+05  0.6408691E-02  0.7247925E-02
  0.1535714E+01  0.2016999E-02 -0.6587982E-02  0.8357730E+05  0.7241629E+05  0.7153888E-02  0.4318237E-02
  0.1566667E+01 -0.2045327E-03 -0.1686096E-02  0.8248435E+05  0.7126410E+05  0.5882750E-02  0.4913330E-02
  0.1597619E+01  0.3820382E-02 -0.8647919E-02  0.8152100E+05  0.7001802E+05  0.6991300E-02  0.4348755E-02
  0.1628572E+01 -0.1049376E-02 -0.8598328E-02  0.8067241E+05  0.6869430E+05  0.7458067E-02  0.5897522E-02
  0.1659524E+01  0.0000000E+00 -0.1777649E-02  0.7992451E+05  0.6728767E+05  0.5480029E-02  0.6820679E-02
  0.1690476E+01 -0.1787212E-02 -0.2494812E-02  0.7925432E+05  0.6582761E+05  0.5199163E-02  0.7125854E-02
  0.1721429E+01 -0.5779346E-02 -0.1201630E-02  0.7867504E+05  0.6430405E+05  0.7197590E-02  0.8232117E-02
  0.1752381E+01  0.6722161E-02 -0.1907349E-04  0.7817095E+05  0.6273281E+05  0.5990734E-02  0.7789612E-02
  0.1783333E+01 -0.4432179E-02  0.5756378E-02  0.7773004E+05  0.6113014E+05  0.7016191E-02  0.8216858E-02
  0.1814286E+01 -0.3263218E-02 -0.5329132E-02  0.7735770E+05  0.5948800E+05  0.4238820E-02  0.3166199E-02
  0.1845238E+01 -0.1141160E-02  0.8613586E-02  0.7706223E+05  0.5782745E+05  0.4432334E-02  0.3555298E-02
  0.1876190E+01  0.4912246E-02  0.3147125E-02  0.7682876E+05  0.5614414E+05  0.7091851E-02  0.5569458E-02
  0.1907143E+01 -0.5248567E-02  0.6355286E-02  0.7664935E+05  0.5442371E+05  0.6304680E-02  0.5928040E-02
  0.1938095E+01  0.8062040E-02 -0.9597778E-02  0.7651095E+05  0.5268122E+05  0.6109514E-02  0.4600525E-02
  0.1969048E+01  0.3254717E-03 -0.1615906E-01  0.7640934E+05  0.5090620E+05  0.6943395E-02  0.6103516E-03
  0.2000000E+01 -0.1182556E-01 -0.6462097E-02  0.7634891E+05  0.4911997E+05  0.6103516E-02  0.4440308E-02
Zone t="Motion of body    1 in DoF   3",I=    64,F=POINT
  0.5000000E-01  0.1533965E+04  0.2907579E-03  0.1056194E-01  0.1958563E-04  0.4730321E+04  0.4414000E-05
  0.8095238E-01  0.1512627E+04  0.1286920E-02  0.2161166E-01  0.8511179E-04  0.4726264E+04  0.2756082E-04
  0.1119048E+00  0.1481807E+04  0.3620264E-02  0.1963514E-01  0.1104126E-03  0.4666352E+04  0.8267618E-04
  0.1428571E+00  0.1516283E+04  0.8180279E-02  0.1328468E-01  0.9466889E-04  0.4716302E+04  0.1604423E-03
  0.1738095E+00  0.1505941E+04  0.1641846E-01  0.1453478E-01  0.1414789E-03  0.4693037E+04  0.3788761E-03
  0.2047619E+00  0.1539148E+04  0.3054677E-01  0.1084727E-01  0.8992040E-04  0.4693170E+04  0.6660488E-03
  0.2357143E+00  0.1530474E+04  0.5422072E-01  0.1471086E-01  0.2271033E-03  0.4696558E+04  0.1184463E-02
  0.2666667E+00  0.1554322E+04  0.9353891E-01  0.2980113E-01  0.6647849E-03  0.4689765E+04  0.1963870E-02
  0.2976190E+00  0.1583699E+04  0.1586217E+00  0.1264435E-01  0.2753059E-03  0.4699982E+04  0.3371543E-02
  0.3285715E+00  0.1596210E+04  0.2658438E+00  0.2009101E-01  0.6688197E-03  0.4698470E+04  0.5804741E-02
  0.3595238E+00  0.1638456E+04  0.4425625E+00  0.1514106E-01  0.5451211E-03  0.4710982E+04  0.9938475E-02
  0.3904762E+00  0.1693234E+04  0.7330889E+00  0.2443313E-01  0.1188560E-02  0.4705403E+04  0.1662626E-01
  0.4214286E+00  0.1675413E+04  0.1196864E+01  0.2407785E-01  0.1435499E-02  0.4714283E+04  0.2742285E-01
  0.4523810E+00  0.1725118E+04  0.1938852E+01  0.1497188E-01  0.1034754E-02  0.4700262E+04  0.4541304E-01
  0.4833333E+00  0.1778791E+04  0.3072415E+01  0.1929711E-01  0.1654368E-02  0.4723049E+04  0.7323581E-01
  0.5142857E+00  0.1834502E+04  0.4783626E+01  0.1974530E-01  0.2140590E-02  0.4715503E+04  0.1162286E+00
  0.5452381E+00  0.1828891E+04  0.7281210E+01  0.9766958E-02  0.8545164E-03  0.4709814E+04  0.1800012E+00
  0.5761905E+00  0.1885303E+04  0.1082697E+02  0.6759580E-02 -0.2349336E-03  0.4729431E+04  0.2731043E+00
  0.6071429E+00  0.1973174E+04  0.1580412E+02  0.1262889E-01  0.1392402E-02  0.4717508E+04  0.4086733E+00
  0.6380953E+00  0.2041093E+04  0.2262493E+02  0.2257390E-01  0.3865194E-02  0.4738697E+04  0.5968342E+00
  0.6690477E+00  0.2060444E+04  0.3181794E+02  0.1451648E-01  0.2207130E-02  0.4741293E+04  0.8542960E+00
  0.7000000E+00  0.2125581E+04  0.4402556E+02  0.1360757E-01  0.2301358E-02  0.4723882E+04  0.1207255E+01
  0.7309524E+00  0.2204435E+04  0.6007367E+02  0.5192710E-02 -0.6913394E-03  0.4736737E+04  0.1683662E+01
  0.7619048E+00  0.2296709E+04  0.8086217E+02  0.1665759E-01  0.4908562E-02  0.4757609E+04  0.2330021E+01
  0.7928572E+00  0.2414079E+04  0.1075498E+03  0.9993131E-02  0.2010137E-02  0.4758954E+04  0.3178411E+01
  0.8238096E+00  0.2483354E+04  0.1416021E+03  0.1447049E-01  0.3516287E-02  0.4747805E+04  0.4283123E+01
  0.8547620E+00  0.2541021E+04  0.1845016E+03  0.1101884E-01  0.3028184E-02  0.4769731E+04  0.5709190E+01
  0.8857143E+00  0.2631694E+04  0.2372719E+03  0.1088358E-01  0.2512217E-02  0.4779787E+04  0.7479636E+01
  0.9166667E+00  0.2758604E+04  0.3019174E+03  0.7174405E-02 -0.4904270E-03  0.4775473E+04  0.9765130E+01
  0.9476191E+00  0.2875172E+04  0.3809313E+03  0.1592511E-01  0.8268714E-02  0.4773558E+04  0.1264965E+02
  0.9785714E+00  0.3001413E+04  0.4769278E+03  0.2175993E-01  0.1211035E-01  0.4801333E+04  0.1630090E+02
  0.1009524E+01  0.3117811E+04  0.5915563E+03  0.1545492E-01  0.7186532E-02  0.4820116E+04  0.2082642E+02
  0.1040476E+01  0.3208860E+04  0.7278981E+03  0.1736359E-01  0.9217143E-02  0.4822213E+04  0.2633249E+02
  0.1071429E+01  0.3305620E+04  0.8876436E+03  0.1686910E-01  0.1185215E-01  0.4812164E+04  0.3274627E+02
  0.1102381E+01  0.3397746E+04  0.1072238E+04  0.1311498E-01  0.9679556E-02  0.4813680E+04  0.4037557E+02
  0.1133333E+01  0.3490459E+04  0.1283488E+04  0.1429165E-01  0.1077366E-01  0.4839268E+04  0.4981332E+02
  0.1164286E+01  0.3576444E+04  0.1522766E+04  0.1028798E-01  0.3158569E-02  0.4856097E+04  0.6081200E+02
  0.1195238E+01  0.3654856E+04  0.1791091E+04  0.8585349E-02  0.6380081E-03  0.4869045E+04  0.7362669E+02
  0.1226190E+01  0.3732566E+04  0.2090218E+04  0.1465288E-01  0.9134293E-02  0.4866248E+04  0.8755624E+02
  0.1257143E+01  0.3780462E+04  0.2419040E+04  0.8065484E-02  0.4134178E-03  0.4866460E+04  0.1038779E+03
  0.1288095E+01  0.3815799E+04  0.2770822E+04  0.1486082E-01  0.1288748E-01  0.4878612E+04  0.1217276E+03
  0.1319048E+01  0.3817611E+04  0.3149724E+04  0.1028977E-01  0.2466679E-02  0.4902899E+04  0.1439473E+03
  0.1350000E+01  0.3800345E+04  0.3551178E+04  0.8109763E-02  0.8735657E-02  0.4912006E+04  0.1670455E+03
  0.1380952E+01  0.3768622E+04  0.3967221E+04  0.9911373E-02  0.6201267E-02  0.4919133E+04  0.1915698E+03
  0.1411905E+01  0.3474697E+04  0.4217517E+04  0.1621085E-01  0.8739948E-02  0.4868366E+04  0.2060330E+03
  0.1442857E+01  0.3409916E+04  0.4642524E+04  0.9126569E-02 -0.1319933E-01  0.4858389E+04  0.2291078E+03
  0.1473810E+01  0.3327727E+04  0.5079801E+04  0.1174582E-01  0.8022785E-02  0.4862327E+04  0.2588694E+03
  0.1504762E+01  0.3220922E+04  0.5526640E+04  0.1224952E-01  0.1256371E-01  0.4882292E+04  0.2913918E+03
  0.1535714E+01  0.3098632E+04  0.5962724E+04  0.8997007E-02 -0.1379967E-02  0.4906336E+04  0.3289728E+03
  0.1566667E+01  0.2973287E+04  0.6387112E+04  0.1303652E-01  0.1225281E-01  0.4914254E+04  0.3629257E+03
  0.1597619E+01  0.2831304E+04  0.6801918E+04  0.1168082E-01  0.1217175E-01  0.4914071E+04  0.3959582E+03
  0.1628572E+01  0.2675430E+04  0.7210751E+04  0.1001124E-01  0.4812241E-02  0.4886452E+04  0.4197478E+03
  0.1659524E+01  0.2501815E+04  0.7602854E+04  0.1143358E-01  0.5172729E-02  0.4862086E+04  0.4460919E+03
  0.1690476E+01  0.2320047E+04  0.7987773E+04  0.1012754E-01  0.5224228E-02  0.4853087E+04  0.4780933E+03
  0.1721429E+01  0.2139243E+04  0.8364532E+04  0.1164733E-01  0.2180099E-02  0.4859856E+04  0.5187065E+03
  0.1752381E+01  0.1950567E+04  0.8710963E+04  0.1004841E-01  0.5747795E-02  0.4879773E+04  0.5703556E+03
  0.1783333E+01  0.1757130E+04  0.9037238E+04  0.1102055E-01  0.8316994E-02  0.4883200E+04  0.6198480E+03
  0.1814286E+01  0.1570843E+04  0.9335827E+04  0.9566780E-02  0.2434731E-02  0.4884113E+04  0.6606202E+03
  0.1845238E+01  0.1387401E+04  0.9620538E+04  0.1321017E-01  0.2618790E-02  0.4875579E+04  0.6939376E+03
  0.1876190E+01  0.1212212E+04  0.9899241E+04  0.1019454E-01  0.2774239E-02  0.4842826E+04  0.7013512E+03
  0.1907143E+01  0.1035683E+04  0.1015275E+05  0.1140123E-01  0.4271507E-02  0.4821410E+04  0.7123742E+03
  0.1938095E+01  0.8547152E+03  0.1039789E+05  0.9876786E-02  0.6361961E-02  0.4810181E+04  0.7348481E+03
  0.1969048E+01  0.6909954E+03  0.1063514E+05  0.7524594E-02  0.4508018E-02  0.4806115E+04  0.7741166E+03
  0.2000000E+01  0.5191548E+03  0.1086554E+05  0.8617401E-02  0.7715225E-03  0.4815410E+04  0.8320839E+03
