VARIABLES="w (rad/s)"
"A   1   1" "B   1   1"
"A   1   2" "B   1   2"
"A   1   3" "B   1   3"
Zone t="Motion of body    1 in DoF   1",I=    64,F=POINT
  0.5000000E-01  0.7320613E+05  0.2302820E-02 -0.4253387E-02 -0.8222244E-05 -0.9752408E+05 -0.2613116E-02
  0.8095238E-01  0.7353170E+05  0.9814697E-02  0.3145442E-02  0.2316204E-04 -0.9807443E+05 -0.1142882E-01
  0.1119048E+00  0.7370105E+05  0.2784169E-01  0.8044953E-02  0.3960107E-04 -0.9830959E+05 -0.3224353E-01
  0.1428571E+00  0.7385251E+05  0.6257077E-01  0.7183074E-02  0.2483570E-04 -0.9845299E+05 -0.7247174E-01
  0.1738095E+00  0.7398123E+05  0.1244671E+00  0.2271574E-02  0.1357548E-05 -0.9851967E+05 -0.1436626E+00
  0.2047619E+00  0.7408682E+05  0.2301186E+00  0.6054723E-02  0.2819061E-04 -0.9861162E+05 -0.2654234E+00
  0.2357143E+00  0.7413630E+05  0.4056101E+00  0.1035748E-02  0.5589775E-04 -0.9865448E+05 -0.4676699E+00
  0.2666667E+00  0.7428947E+05  0.6932054E+00 -0.3590584E-02 -0.4633400E-04 -0.9873501E+05 -0.7976948E+00
  0.2976190E+00  0.7436727E+05  0.1163602E+01 -0.1190735E-01 -0.1258217E-03 -0.9884500E+05 -0.1337438E+01
  0.3285715E+00  0.7452078E+05  0.1928562E+01  0.2705118E-02  0.1470046E-04 -0.9894581E+05 -0.2212004E+01
  0.3595238E+00  0.7466534E+05  0.3171194E+01  0.2599552E-02  0.2240688E-03 -0.9905344E+05 -0.3630477E+01
  0.3904762E+00  0.7483329E+05  0.5178636E+01 -0.1660789E-02 -0.9693392E-04 -0.9920792E+05 -0.5916859E+01
  0.4214286E+00  0.7499405E+05  0.8348427E+01  0.5394887E-02  0.4469641E-03 -0.9938346E+05 -0.9520308E+01
  0.4523810E+00  0.7524413E+05  0.1334831E+02 -0.3710295E-03  0.1835190E-03 -0.9953747E+05 -0.1517598E+02
  0.4833333E+00  0.7549193E+05  0.2081803E+02 -0.4388217E-02 -0.9088218E-04 -0.9970380E+05 -0.2359788E+02
  0.5142857E+00  0.7574898E+05  0.3194113E+02 -0.2551609E-02  0.1452789E-03 -0.9993191E+05 -0.3610617E+02
  0.5452381E+00  0.7600234E+05  0.4784418E+02  0.1893223E-01  0.8870959E-03 -0.1002066E+06 -0.5395020E+02
  0.5761905E+00  0.7630118E+05  0.7000787E+02 -0.5005135E-02 -0.1779646E-03 -0.1004649E+06 -0.7869731E+02
  0.6071429E+00  0.7670634E+05  0.1006630E+03  0.1960305E-02  0.1419842E-02 -0.1007224E+06 -0.1126927E+03
  0.6380953E+00  0.7705136E+05  0.1414894E+03  0.1267390E-02  0.1194656E-02 -0.1010482E+06 -0.1578826E+03
  0.6690477E+00  0.7740209E+05  0.1955028E+03  0.7298153E-02  0.8133054E-03 -0.1014194E+06 -0.2174865E+03
  0.7000000E+00  0.7781749E+05  0.2662334E+03 -0.2408709E-02 -0.2278328E-02 -0.1017723E+06 -0.2950344E+03
  0.7309524E+00  0.7827883E+05  0.3571127E+03  0.5615433E-02  0.1494050E-02 -0.1021694E+06 -0.3941481E+03
  0.7619048E+00  0.7881328E+05  0.4730900E+03  0.6568908E-02  0.3360868E-02 -0.1025990E+06 -0.5197905E+03
  0.7928572E+00  0.7933275E+05  0.6191951E+03  0.8718129E-02  0.2225161E-02 -0.1030311E+06 -0.6772670E+03
  0.8238096E+00  0.7990211E+05  0.8016960E+03 -0.5871546E-02  0.1704693E-03 -0.1035503E+06 -0.8730921E+03
  0.8547620E+00  0.8041407E+05  0.1026619E+04 -0.2267141E-02  0.1672506E-02 -0.1040318E+06 -0.1113311E+04
  0.8857143E+00  0.8104483E+05  0.1303102E+04 -0.2325735E-02  0.5464554E-03 -0.1045989E+06 -0.1406552E+04
  0.9166667E+00  0.8169385E+05  0.1639169E+04 -0.1203502E-01 -0.2882481E-02 -0.1051147E+06 -0.1759853E+04
  0.9476191E+00  0.8244525E+05  0.2045963E+04  0.7165496E-02  0.7295609E-03 -0.1057054E+06 -0.2184162E+04
  0.9785714E+00  0.8316321E+05  0.2532847E+04 -0.8233064E-02 -0.5408287E-02 -0.1062803E+06 -0.2688738E+04
  0.1009524E+01  0.8391230E+05  0.3112845E+04  0.1133613E-02 -0.1620293E-02 -0.1069289E+06 -0.3286708E+04
  0.1040476E+01  0.8464604E+05  0.3797627E+04  0.1099890E-01  0.4716873E-02 -0.1075462E+06 -0.3987379E+04
  0.1071429E+01  0.8541520E+05  0.4602052E+04 -0.8886719E-02 -0.5163193E-02 -0.1081768E+06 -0.4803891E+04
  0.1102381E+01  0.8622231E+05  0.5541624E+04 -0.4152500E-03  0.1716614E-02 -0.1088379E+06 -0.5750211E+04
  0.1133333E+01  0.8698882E+05  0.6628564E+04  0.2275355E-02  0.3065109E-02 -0.1094131E+06 -0.6834210E+04
  0.1164286E+01  0.8781128E+05  0.7884961E+04 -0.2359027E-02 -0.3379822E-02 -0.1100266E+06 -0.8076053E+04
  0.1195238E+01  0.8861059E+05  0.9323217E+04 -0.3983091E-02 -0.6523132E-02 -0.1105682E+06 -0.9482032E+04
  0.1226190E+01  0.8939912E+05  0.1096167E+05  0.6022925E-02  0.5287170E-02 -0.1110798E+06 -0.1106728E+05
  0.1257143E+01  0.9007808E+05  0.1280274E+05  0.1942028E-02 -0.4592896E-02 -0.1115329E+06 -0.1283696E+05
  0.1288095E+01  0.9084205E+05  0.1489800E+05 -0.5662393E-02 -0.4421234E-02 -0.1120343E+06 -0.1482886E+05
  0.1319048E+01  0.9138656E+05  0.1721188E+05 -0.7449814E-02 -0.6298065E-02 -0.1123322E+06 -0.1700769E+05
  0.1350000E+01  0.9190698E+05  0.1978096E+05  0.9720413E-03 -0.3257751E-02 -0.1126149E+06 -0.1940463E+05
  0.1380952E+01  0.9229970E+05  0.2259667E+05 -0.8552289E-02  0.8010864E-03 -0.1127167E+06 -0.2199323E+05
  0.1411905E+01  0.9211421E+05  0.2540798E+05  0.1383326E-02 -0.4119873E-03 -0.1124462E+06 -0.2457313E+05
  0.1442857E+01  0.9231092E+05  0.2869159E+05  0.1205595E-02  0.2311707E-02 -0.1122999E+06 -0.2751221E+05
  0.1473810E+01  0.9234338E+05  0.3221618E+05 -0.4845343E-02 -0.9834290E-02 -0.1120361E+06 -0.3063425E+05
  0.1504762E+01  0.9216331E+05  0.3594414E+05  0.3265188E-02 -0.1068115E-02 -0.1115202E+06 -0.3387307E+05
  0.1535714E+01  0.9183241E+05  0.3987666E+05 -0.1927575E-02 -0.9368896E-02 -0.1108820E+06 -0.3724125E+05
  0.1566667E+01  0.9135985E+05  0.4399487E+05  0.0000000E+00 -0.2075195E-02 -0.1101572E+06 -0.4072733E+05
  0.1597619E+01  0.9060243E+05  0.4820481E+05 -0.1432643E-02 -0.4394531E-02 -0.1091428E+06 -0.4420857E+05
  0.1628572E+01  0.8967161E+05  0.5250440E+05 -0.2379836E-02 -0.6881714E-02 -0.1079906E+06 -0.4769700E+05
  0.1659524E+01  0.8856094E+05  0.5683703E+05 -0.2831961E-02 -0.5996704E-02 -0.1066844E+06 -0.5113307E+05
  0.1690476E+01  0.8724895E+05  0.6116371E+05  0.1083159E-03 -0.5355835E-02 -0.1052598E+06 -0.5450530E+05
  0.1721429E+01  0.8573366E+05  0.6539663E+05  0.2694664E-02  0.4913330E-02 -0.1036518E+06 -0.5770003E+05
  0.1752381E+01  0.8402413E+05  0.6947790E+05 -0.1166800E-02  0.2227783E-02 -0.1018696E+06 -0.6065988E+05
  0.1783333E+01  0.8223023E+05  0.7343913E+05  0.3816123E-02 -0.1983643E-02 -0.1000811E+06 -0.6346555E+05
  0.1814286E+01  0.8034198E+05  0.7720334E+05  0.5483552E-02  0.6866455E-02 -0.9822679E+05 -0.6601898E+05
  0.1845238E+01  0.7828738E+05  0.8066065E+05  0.1207315E-02 -0.1525879E-03 -0.9622566E+05 -0.6819993E+05
  0.1876190E+01  0.7620205E+05  0.8388027E+05 -0.3415800E-03 -0.2441406E-03 -0.9424886E+05 -0.7012390E+05
  0.1907143E+01  0.7408055E+05  0.8680506E+05  0.8640933E-03  0.4180908E-02 -0.9226788E+05 -0.7172672E+05
  0.1938095E+01  0.7196183E+05  0.8945381E+05 -0.3149234E-03 -0.8666992E-02 -0.9035861E+05 -0.7307127E+05
  0.1969048E+01  0.6981185E+05  0.9178440E+05 -0.3363207E-02  0.7629395E-03 -0.8848566E+05 -0.7412535E+05
  0.2000000E+01  0.6764392E+05  0.9372838E+05  0.2563477E-02  0.8148193E-02 -0.8659170E+05 -0.7476087E+05
Zone t="Motion of body    1 in DoF   2",I=    64,F=POINT
  0.5000000E-01 -0.1811981E-02 -0.1788139E-05  0.2586108E+05  0.5392143E+02  0.9059906E-03 -0.6794930E-05
  0.8095238E-01  0.1239328E-01  0.1430511E-04  0.2567314E+05  0.8951522E+02 -0.2002716E-03  0.1072884E-04
  0.1119048E+00  0.2386215E-03 -0.8583069E-05  0.2556474E+05  0.1284197E+03  0.7610321E-02  0.2610683E-04
  0.1428571E+00  0.7236480E-02 -0.6175041E-04  0.2552887E+05  0.1721836E+03  0.5968093E-02 -0.2849102E-04
  0.1738095E+00 -0.3928616E-02 -0.4291534E-05  0.2553732E+05  0.2228044E+03  0.2150862E-02 -0.7545948E-04
  0.2047619E+00 -0.9668927E-02  0.2455711E-04  0.2559908E+05  0.2827267E+03  0.1769842E-03 -0.1049042E-04
  0.2357143E+00  0.6052652E-02 -0.1144409E-04  0.2568972E+05  0.3554663E+03 -0.1295494E-01 -0.2145767E-04
  0.2666667E+00  0.6208419E-02  0.2717972E-04  0.2580871E+05  0.4441960E+03 -0.2303123E-02 -0.1502037E-04
  0.2976190E+00 -0.2819824E-03  0.1430511E-03  0.2595284E+05  0.5554176E+03  0.8010864E-02  0.3647804E-04
  0.3285715E+00  0.1300314E-02 -0.4863739E-04  0.2612963E+05  0.6933112E+03 -0.3552644E-02 -0.9441376E-04
  0.3595238E+00  0.3013358E-02  0.3156662E-03  0.2628477E+05  0.8660048E+03  0.1162902E-01 -0.1873970E-03
  0.3904762E+00 -0.1367708E-03  0.3814697E-05  0.2645699E+05  0.1080510E+04  0.4405975E-02  0.4520416E-03
  0.4214286E+00  0.5648337E-02  0.2212524E-03  0.2658492E+05  0.1335960E+04 -0.1457343E-02  0.4930496E-03
  0.4523810E+00  0.8668598E-02 -0.5130768E-03  0.2669425E+05  0.1646079E+04  0.9225142E-02  0.3747940E-03
  0.4833333E+00  0.2651872E-02  0.4920959E-03  0.2672850E+05  0.1988891E+04 -0.1262796E-02  0.1554489E-03
  0.5142857E+00 -0.2195570E-02 -0.3356934E-03  0.2671693E+05  0.2380004E+04  0.1105203E-01  0.1142502E-02
  0.5452381E+00  0.5960923E-02  0.8773804E-04  0.2666506E+05  0.2801886E+04 -0.6128836E-02 -0.3662109E-03
  0.5761905E+00  0.2118576E-03  0.6866455E-04  0.2655698E+05  0.3248750E+04 -0.4051776E-02  0.2994537E-03
  0.6071429E+00  0.7011862E-02 -0.9727478E-03  0.2639970E+05  0.3730127E+04  0.2383782E-01  0.1161575E-02
  0.6380953E+00 -0.8369559E-02 -0.1945496E-03  0.2622409E+05  0.4223478E+04  0.3563041E-02  0.1104355E-02
  0.6690477E+00  0.3033295E-02  0.1052856E-02  0.2601795E+05  0.4738560E+04 -0.6146414E-02 -0.2117157E-03
  0.7000000E+00 -0.3117152E-02 -0.8163452E-03  0.2577634E+05  0.5277309E+04  0.8174351E-03  0.1831055E-03
  0.7309524E+00  0.4884800E-02 -0.6790161E-03  0.2551091E+05  0.5827622E+04 -0.2765966E-02 -0.6637573E-03
  0.7619048E+00  0.1251697E-01 -0.7629395E-03  0.2521966E+05  0.6391578E+04  0.8801936E-02 -0.7019043E-03
  0.7928572E+00  0.6851333E-02 -0.1274109E-02  0.2490357E+05  0.6967710E+04  0.1111417E-01  0.2418518E-02
  0.8238096E+00 -0.3537746E-02 -0.1884460E-02  0.2456919E+05  0.7551868E+04  0.4713907E-02  0.1506805E-02
  0.8547620E+00  0.3034756E-03 -0.2677917E-02  0.2421715E+05  0.8141126E+04  0.1374566E-02  0.3967285E-03
  0.8857143E+00  0.1171481E-01 -0.1678467E-03  0.2385152E+05  0.8731914E+04 -0.7235619E-02 -0.3467560E-02
  0.9166667E+00  0.2696644E-02  0.4882812E-03  0.2346634E+05  0.9322387E+04  0.1140248E-02  0.2532959E-02
  0.9476191E+00  0.4766263E-02  0.1281738E-02  0.2306350E+05  0.9908769E+04  0.1843706E-02 -0.9002686E-03
  0.9785714E+00  0.5675824E-02 -0.7934570E-03  0.2264861E+05  0.1048856E+05  0.8529329E-02  0.5340576E-04
  0.1009524E+01 -0.5894787E-02  0.2029419E-02  0.2222748E+05  0.1105824E+05 -0.8313162E-03  0.1800537E-02
  0.1040476E+01  0.3754291E-02 -0.1373291E-02  0.2180026E+05  0.1161649E+05 -0.1065427E-01  0.5035400E-02
  0.1071429E+01  0.1481120E-02 -0.4882812E-03  0.2137267E+05  0.1216044E+05 -0.3994751E-02 -0.2441406E-03
  0.1102381E+01  0.2962116E-02 -0.1464844E-02  0.2094227E+05  0.1268814E+05  0.2906750E-02 -0.4455566E-02
  0.1133333E+01  0.2504237E-02 -0.1449585E-02  0.2050411E+05  0.1319976E+05 -0.9491864E-03 -0.5516052E-02
  0.1164286E+01  0.1231937E-02 -0.5859375E-02  0.2006878E+05  0.1369108E+05 -0.8236937E-02 -0.4722595E-02
  0.1195238E+01 -0.2936253E-02  0.7781982E-03  0.1963332E+05  0.1416169E+05  0.2400068E-02 -0.3646851E-02
  0.1226190E+01  0.3633666E-02  0.3967285E-03  0.1920681E+05  0.1460900E+05 -0.3527891E-02 -0.1602173E-02
  0.1257143E+01  0.1407970E-02 -0.1968384E-02  0.1878387E+05  0.1504367E+05 -0.2518567E-02  0.1075745E-02
  0.1288095E+01 -0.3790723E-03  0.4486084E-02  0.1836882E+05  0.1543212E+05 -0.5626855E-03 -0.2891541E-02
  0.1319048E+01  0.1503845E-02  0.6774902E-02  0.1795944E+05  0.1581032E+05 -0.2967201E-02 -0.1060486E-02
  0.1350000E+01  0.1017253E-02 -0.9460449E-03  0.1756345E+05  0.1616071E+05  0.5148428E-02 -0.3601074E-02
  0.1380952E+01 -0.1834212E-02  0.3540039E-02  0.1717729E+05  0.1648689E+05  0.1027600E-02 -0.8239746E-03
  0.1411905E+01 -0.1059109E-02  0.1007080E-02  0.1680750E+05  0.1681654E+05  0.3420490E-02  0.3356934E-03
  0.1442857E+01  0.4230159E-04  0.6408691E-02  0.1644115E+05  0.1709652E+05  0.3770130E-02 -0.2136230E-03
  0.1473810E+01  0.5331948E-02  0.2105713E-02  0.1608705E+05  0.1735370E+05 -0.2055130E-02 -0.6256104E-03
  0.1504762E+01  0.2007786E-02  0.9765625E-03  0.1573928E+05  0.1758902E+05 -0.5496061E-02  0.7293701E-02
  0.1535714E+01 -0.2980786E-04  0.4669189E-02  0.1541021E+05  0.1780113E+05 -0.1371162E-02  0.7873535E-02
  0.1566667E+01  0.3525754E-02 -0.7324219E-03  0.1509529E+05  0.1798704E+05  0.5517513E-02 -0.9155273E-03
  0.1597619E+01  0.5004701E-02 -0.0000000E+00  0.1479049E+05  0.1815675E+05  0.5558657E-02  0.1342773E-02
  0.1628572E+01 -0.2604702E-02  0.3295898E-02  0.1450370E+05  0.1830268E+05 -0.2923263E-02 -0.1098633E-02
  0.1659524E+01  0.1986051E-02  0.7629395E-03  0.1422901E+05  0.1842802E+05 -0.4252539E-02 -0.1724243E-02
  0.1690476E+01 -0.6002506E-02  0.3356934E-02  0.1396874E+05  0.1853757E+05  0.1021329E-01  0.3417969E-02
  0.1721429E+01 -0.5850258E-03 -0.2838135E-02  0.1371965E+05  0.1863316E+05  0.4502926E-02  0.1586914E-02
  0.1752381E+01 -0.8620387E-03 -0.3234863E-02  0.1348068E+05  0.1871612E+05 -0.4162167E-02 -0.4165649E-02
  0.1783333E+01  0.4842883E-02  0.2746582E-02  0.1326088E+05  0.1878554E+05 -0.3024663E-02 -0.4684448E-02
  0.1814286E+01  0.1682071E-03  0.3051758E-02  0.1304892E+05  0.1883932E+05 -0.2388541E-02 -0.2746582E-02
  0.1845238E+01  0.1463662E-02 -0.1464844E-02  0.1284421E+05  0.1888999E+05  0.1141160E-02  0.3814697E-03
  0.1876190E+01 -0.1626572E-02 -0.6103516E-04  0.1265538E+05  0.1893104E+05 -0.2452056E-02 -0.2502441E-02
  0.1907143E+01  0.1552168E-02 -0.4669189E-02  0.1247525E+05  0.1895975E+05 -0.2708292E-02 -0.2563477E-02
  0.1938095E+01  0.7873085E-04 -0.3356934E-03  0.1230670E+05  0.1897870E+05  0.4180608E-02  0.2090454E-02
  0.1969048E+01  0.5726751E-02 -0.2258301E-02  0.1214898E+05  0.1900156E+05  0.5943732E-02  0.1068115E-02
  0.2000000E+01  0.6713867E-03  0.1159668E-02  0.1199204E+05  0.1902052E+05 -0.1903534E-02  0.2777100E-02
Zone t="Motion of body    1 in DoF   3",I=    64,F=POINT
  0.5000000E-01 -0.9698727E+05 -0.2559979E-02 -0.3075600E-02  0.2584448E-05  0.1907990E+06  0.2943968E-02
  0.8095238E-01 -0.9757474E+05 -0.1118047E-01 -0.1762390E-01 -0.3595202E-04  0.1916919E+06  0.1311768E-01
  0.1119048E+00 -0.9785071E+05 -0.3160311E-01 -0.1597912E-01 -0.7074213E-04  0.1919304E+06  0.3653627E-01
  0.1428571E+00 -0.9801930E+05 -0.7081786E-01 -0.2656936E-02 -0.4965990E-04  0.1920162E+06  0.8197057E-01
  0.1738095E+00 -0.9810013E+05 -0.1405144E+00  0.1050740E-01  0.1164527E-03  0.1920749E+06  0.1620104E+00
  0.2047619E+00 -0.9820241E+05 -0.2596824E+00  0.8616337E-02  0.2646970E-04  0.1921373E+06  0.2992263E+00
  0.2357143E+00 -0.9822833E+05 -0.4574190E+00 -0.1216195E-01 -0.1206688E-03  0.1921904E+06  0.5274757E+00
  0.2666667E+00 -0.9832307E+05 -0.7805486E+00  0.1074314E-01  0.1226764E-03  0.1922450E+06  0.8985527E+00
  0.2976190E+00 -0.9841950E+05 -0.1308306E+01  0.3467102E-02 -0.4470116E-04  0.1923341E+06  0.1503892E+01
  0.3285715E+00 -0.9851902E+05 -0.2164599E+01 -0.8028278E-02 -0.3858590E-03  0.1924311E+06  0.2483096E+01
  0.3595238E+00 -0.9862300E+05 -0.3552650E+01  0.5246851E-02 -0.3962591E-04  0.1925222E+06  0.4067575E+01
  0.3904762E+00 -0.9878310E+05 -0.5788068E+01  0.1379920E-01  0.9538271E-03  0.1926450E+06  0.6613000E+01
  0.4214286E+00 -0.9893841E+05 -0.9309157E+01  0.1164064E-01  0.1031123E-02  0.1927878E+06  0.1061596E+02
  0.4523810E+00 -0.9909513E+05 -0.1485001E+02  0.9435955E-02  0.2259389E-04  0.1929341E+06  0.1688384E+02
  0.4833333E+00 -0.9926156E+05 -0.2309908E+02  0.4759164E-02  0.2511218E-03  0.1930886E+06  0.2618150E+02
  0.5142857E+00 -0.9948179E+05 -0.3534121E+02  0.5563101E-03 -0.5698279E-03  0.1932865E+06  0.3995163E+02
  0.5452381E+00 -0.9974018E+05 -0.5277890E+02 -0.4120873E-02 -0.2686083E-03  0.1935103E+06  0.5951500E+02
  0.5761905E+00 -0.9999146E+05 -0.7698379E+02  0.2893180E-02 -0.8509457E-03  0.1937586E+06  0.8653781E+02
  0.6071429E+00 -0.1002648E+06 -0.1103360E+03  0.1878626E-02 -0.9917617E-03  0.1939743E+06  0.1235301E+03
  0.6380953E+00 -0.1005752E+06 -0.1545355E+03 -0.5751083E-02 -0.4193485E-03  0.1942634E+06  0.1724402E+03
  0.6690477E+00 -0.1009246E+06 -0.2127227E+03  0.3187241E-02  0.3892183E-03  0.1945905E+06  0.2366420E+03
  0.7000000E+00 -0.1012703E+06 -0.2885789E+03  0.1344953E-01  0.4211664E-02  0.1948918E+06  0.3198054E+03
  0.7309524E+00 -0.1016562E+06 -0.3855351E+03 -0.2676203E-01 -0.7143736E-02  0.1952598E+06  0.4255215E+03
  0.7619048E+00 -0.1020913E+06 -0.5085823E+03 -0.2967023E-01 -0.8646846E-02  0.1956382E+06  0.5587820E+03
  0.7928572E+00 -0.1025095E+06 -0.6627128E+03 -0.1724380E-01 -0.5604982E-02  0.1960308E+06  0.7248644E+03
  0.8238096E+00 -0.1030195E+06 -0.8540254E+03 -0.1194684E-01 -0.7122040E-02  0.1964482E+06  0.9300797E+03
  0.8547620E+00 -0.1034658E+06 -0.1088384E+04 -0.2365325E-02  0.3120899E-03  0.1968627E+06  0.1180302E+04
  0.8857143E+00 -0.1040209E+06 -0.1374653E+04  0.2058706E-02  0.6494522E-03  0.1973552E+06  0.1483773E+04
  0.9166667E+00 -0.1045233E+06 -0.1720479E+04 -0.1539750E-02 -0.6175041E-03  0.1978218E+06  0.1847143E+04
  0.9476191E+00 -0.1051208E+06 -0.2135998E+04 -0.2020831E-02 -0.3101349E-02  0.1982970E+06  0.2280268E+04
  0.9785714E+00 -0.1056837E+06 -0.2629731E+04 -0.4576523E-02 -0.5426407E-03  0.1987714E+06  0.2791522E+04
  0.1009524E+01 -0.1063105E+06 -0.3213264E+04 -0.4897208E-02 -0.5118370E-02  0.1993059E+06  0.3392725E+04
  0.1040476E+01 -0.1069015E+06 -0.3896835E+04 -0.1577975E-01 -0.1152134E-01  0.1997918E+06  0.4091436E+04
  0.1071429E+01 -0.1075077E+06 -0.4693424E+04  0.3341777E-01  0.2175903E-01  0.2002818E+06  0.4899266E+04
  0.1102381E+01 -0.1081511E+06 -0.5616200E+04 -0.2145458E-01 -0.1232147E-01  0.2007861E+06  0.5827406E+04
  0.1133333E+01 -0.1087068E+06 -0.6675036E+04 -0.2156875E-01 -0.2032089E-01  0.2012164E+06  0.6881946E+04
  0.1164286E+01 -0.1093116E+06 -0.7888149E+04  0.1077289E-01  0.6549835E-02  0.2016761E+06  0.8078956E+04
  0.1195238E+01 -0.1098488E+06 -0.9263654E+04  0.5719310E-02  0.1911163E-02  0.2020383E+06  0.9421113E+04
  0.1226190E+01 -0.1103589E+06 -0.1081568E+05  0.8312633E-02  0.3074646E-02  0.2023660E+06  0.1091908E+05
  0.1257143E+01 -0.1107986E+06 -0.1253976E+05  0.9224631E-03 -0.2567291E-02  0.2025955E+06  0.1257272E+05
  0.1288095E+01 -0.1112772E+06 -0.1448168E+05 -0.3992105E-02 -0.6832123E-02  0.2028649E+06  0.1441358E+05
  0.1319048E+01 -0.1115494E+06 -0.1660260E+05  0.4742894E-03  0.5332947E-02  0.2029373E+06  0.1640448E+05
  0.1350000E+01 -0.1118054E+06 -0.1893009E+05 -0.1268175E-01 -0.4356384E-02  0.2029927E+06  0.1856937E+05
  0.1380952E+01 -0.1118992E+06 -0.2145256E+05  0.6839621E-02  0.5531311E-02  0.2028714E+06  0.2087809E+05
  0.1411905E+01 -0.1119798E+06 -0.2410642E+05  0.1482753E-01  0.1139069E-01  0.2027294E+06  0.2331297E+05
  0.1442857E+01 -0.1118470E+06 -0.2699481E+05 -0.1417103E-01 -0.1136017E-01  0.2023406E+06  0.2588216E+05
  0.1473810E+01 -0.1115876E+06 -0.3005518E+05  0.3230229E-02  0.5889893E-02  0.2018921E+06  0.2857622E+05
  0.1504762E+01 -0.1110875E+06 -0.3324068E+05  0.9298687E-02  0.2053833E-01  0.2011768E+06  0.3132080E+05
  0.1535714E+01 -0.1104663E+06 -0.3654976E+05 -0.7640749E-02 -0.4974365E-02  0.2003669E+06  0.3412602E+05
  0.1566667E+01 -0.1097439E+06 -0.3994961E+05 -0.2064806E-02 -0.1373291E-02  0.1994676E+06  0.3697421E+05
  0.1597619E+01 -0.1087465E+06 -0.4336324E+05  0.1559671E-01  0.1339722E-01  0.1983390E+06  0.3976091E+05
  0.1628572E+01 -0.1076154E+06 -0.4678129E+05  0.8207622E-02  0.4882812E-02  0.1971062E+06  0.4249025E+05
  0.1659524E+01 -0.1063284E+06 -0.5013523E+05 -0.6316744E-02  0.5661011E-02  0.1957011E+06  0.4509272E+05
  0.1690476E+01 -0.1049161E+06 -0.5340931E+05 -0.6661428E-02 -0.5142212E-02  0.1942552E+06  0.4758435E+05
  0.1721429E+01 -0.1033353E+06 -0.5652674E+05 -0.4848623E-02 -0.1213074E-01  0.1926860E+06  0.4986517E+05
  0.1752381E+01 -0.1015974E+06 -0.5943958E+05 -0.1057957E-01 -0.1081848E-01  0.1909783E+06  0.5187869E+05
  0.1783333E+01 -0.9984585E+05 -0.6218102E+05 -0.9309287E-02 -0.2557373E-01  0.1893346E+06  0.5371671E+05
  0.1814286E+01 -0.9802670E+05 -0.6466257E+05  0.7485217E-03  0.8728027E-02  0.1876200E+06  0.5527118E+05
  0.1845238E+01 -0.9607739E+05 -0.6683180E+05  0.1645587E-02  0.7324219E-03  0.1858500E+06  0.5648283E+05
  0.1876190E+01 -0.9414891E+05 -0.6874043E+05 -0.1569642E-02  0.6866455E-02  0.1841418E+06  0.5743513E+05
  0.1907143E+01 -0.9221195E+05 -0.7031236E+05 -0.1704184E-02 -0.4119873E-02  0.1824039E+06  0.5805480E+05
  0.1938095E+01 -0.9033850E+05 -0.7160273E+05  0.4755344E-02  0.1620483E-01  0.1807678E+06  0.5842935E+05
  0.1969048E+01 -0.8850384E+05 -0.7261758E+05  0.3870788E-02 -0.3784180E-02  0.1792650E+06  0.5858842E+05
  0.2000000E+01 -0.8665563E+05 -0.7325012E+05 -0.6042480E-02 -0.1147461E-01  0.1777125E+06  0.5835240E+05
