VARIABLES="w (rad/s)"
"A   1   1" "B   1   1"
"A   1   2" "B   1   2"
"A   1   3" "B   1   3"
Zone t="Motion of body    1 in DoF   1",I=    64,F=POINT
  0.5000000E-01  0.2183947E+06  0.1542964E-01 -0.2670288E-02 -0.6723612E-05 -0.6195648E+06 -0.4051206E-01
  0.8095238E-01  0.2200895E+06  0.6756303E-01  0.1691706E-01  0.1021567E-03 -0.6227119E+06 -0.1780157E+00
  0.1119048E+00  0.2204043E+06  0.1893796E+00  0.1857839E-01  0.1249815E-03 -0.6232967E+06 -0.4949577E+00
  0.1428571E+00  0.2208401E+06  0.4251477E+00  0.1142883E-01  0.1575586E-03 -0.6240318E+06 -0.1110344E+01
  0.1738095E+00  0.2212724E+06  0.8459601E+00  0.1095184E-01  0.1525938E-03 -0.6246511E+06 -0.2208716E+01
  0.2047619E+00  0.2214202E+06  0.1559155E+01  0.2617503E-01  0.4476516E-03 -0.6251012E+06 -0.4064105E+01
  0.2357143E+00  0.2219294E+06  0.2744532E+01  0.2149177E-01  0.4579723E-03 -0.6258465E+06 -0.7143159E+01
  0.2666667E+00  0.2222126E+06  0.4673159E+01  0.1193046E-01  0.5584005E-03 -0.6265310E+06 -0.1214500E+02
  0.2976190E+00  0.2226512E+06  0.7824781E+01  0.1594482E-01  0.5081464E-03 -0.6274668E+06 -0.2029911E+02
  0.3285715E+00  0.2231269E+06  0.1291863E+02  0.7500025E-02  0.7955879E-03 -0.6283751E+06 -0.3343897E+02
  0.3595238E+00  0.2239316E+06  0.2118769E+02  0.1672201E-01  0.7392094E-03 -0.6297563E+06 -0.5468557E+02
  0.3904762E+00  0.2243303E+06  0.3443202E+02  0.2346597E-01  0.6001554E-03 -0.6306584E+06 -0.8866003E+02
  0.4214286E+00  0.2252281E+06  0.5531750E+02 -0.6227654E-02 -0.7237941E-03 -0.6324302E+06 -0.1419971E+03
  0.4523810E+00  0.2260160E+06  0.8804882E+02  0.2465660E-01  0.3471360E-02 -0.6340195E+06 -0.2253541E+03
  0.4833333E+00  0.2270626E+06  0.1367613E+03  0.3415864E-01  0.3501445E-02 -0.6359006E+06 -0.3487274E+03
  0.5142857E+00  0.2279930E+06  0.2088784E+03  0.5103217E-02  0.1146525E-02 -0.6378641E+06 -0.5308580E+03
  0.5452381E+00  0.2290326E+06  0.3114498E+03  0.8423652E-02 -0.9185076E-04 -0.6401697E+06 -0.7888592E+03
  0.5761905E+00  0.2304904E+06  0.4539197E+03  0.3151381E-02 -0.1207232E-02 -0.6428749E+06 -0.1144602E+04
  0.6071429E+00  0.2318127E+06  0.6492476E+03 -0.2616254E-01 -0.3537416E-02 -0.6455619E+06 -0.1630453E+04
  0.6380953E+00  0.2332315E+06  0.9082923E+03 -0.2123477E-01 -0.2919436E-02 -0.6483801E+06 -0.2270867E+04
  0.6690477E+00  0.2349559E+06  0.1249973E+04 -0.1514367E-01 -0.4611731E-02 -0.6519281E+06 -0.3110818E+04
  0.7000000E+00  0.2364968E+06  0.1693175E+04 -0.2493722E-01 -0.5743265E-02 -0.6551408E+06 -0.4194602E+04
  0.7309524E+00  0.2384201E+06  0.2260833E+04 -0.1903819E-01 -0.7751942E-02 -0.6587746E+06 -0.5570721E+04
  0.7619048E+00  0.2406727E+06  0.2982437E+04 -0.1365852E-01 -0.3147602E-02 -0.6630568E+06 -0.7306735E+04
  0.7928572E+00  0.2426300E+06  0.3882976E+04  0.1886041E-02  0.3280640E-03 -0.6669699E+06 -0.9462012E+04
  0.8238096E+00  0.2448642E+06  0.5002949E+04  0.2593112E-03  0.1210213E-02 -0.6714752E+06 -0.1212330E+05
  0.8547620E+00  0.2470960E+06  0.6376124E+04  0.1638768E-01  0.5183220E-02 -0.6757791E+06 -0.1535900E+05
  0.8857143E+00  0.2497115E+06  0.8056833E+04  0.1312748E-01  0.5310059E-02 -0.6807176E+06 -0.1928355E+05
  0.9166667E+00  0.2521983E+06  0.1008227E+05  0.1081987E-01  0.8554459E-02 -0.6852504E+06 -0.2397096E+05
  0.9476191E+00  0.2549651E+06  0.1252184E+05 -0.1313943E-01 -0.1457214E-02 -0.6904222E+06 -0.2957082E+05
  0.9785714E+00  0.2575663E+06  0.1541545E+05  0.3960602E-02  0.1098633E-02 -0.6950172E+06 -0.3614617E+05
  0.1009524E+01  0.2603846E+06  0.1884275E+05  0.1813781E-02 -0.9414673E-02 -0.6998551E+06 -0.4385245E+05
  0.1040476E+01  0.2630337E+06  0.2285236E+05  0.1390261E-01  0.5676270E-02 -0.7045318E+06 -0.5280014E+05
  0.1071429E+01  0.2654059E+06  0.2749241E+05  0.4842123E-02  0.4653931E-03 -0.7085001E+06 -0.6305160E+05
  0.1102381E+01  0.2679074E+06  0.3286987E+05 -0.4706166E-03 -0.3097534E-02 -0.7125374E+06 -0.7480038E+05
  0.1133333E+01  0.2701784E+06  0.3901336E+05 -0.7270364E-02 -0.3189087E-02 -0.7156367E+06 -0.8803175E+05
  0.1164286E+01  0.2725045E+06  0.4603110E+05 -0.5137437E-02 -0.1359558E-01 -0.7184841E+06 -0.1029331E+06
  0.1195238E+01  0.2743613E+06  0.5393047E+05  0.6434224E-02 -0.1118469E-01 -0.7206751E+06 -0.1195707E+06
  0.1226190E+01  0.2755032E+06  0.6266597E+05 -0.2389260E-02 -0.1557922E-01 -0.7210820E+06 -0.1376932E+06
  0.1257143E+01  0.2760159E+06  0.7222612E+05 -0.4855069E-03 -0.6820679E-02 -0.7204084E+06 -0.1573323E+06
  0.1288095E+01  0.2764864E+06  0.8289265E+05 -0.1563673E-01 -0.9048462E-02 -0.7190294E+06 -0.1788106E+06
  0.1319048E+01  0.2760906E+06  0.9429020E+05 -0.3239050E-02 -0.1312256E-02 -0.7159354E+06 -0.2014347E+06
  0.1350000E+01  0.2751028E+06  0.1064816E+06  0.8770978E-02 -0.3662109E-02 -0.7115365E+06 -0.2252240E+06
  0.1380952E+01  0.2731812E+06  0.1192857E+06 -0.1038650E-01 -0.6317139E-02 -0.7054224E+06 -0.2498293E+06
  0.1411905E+01  0.2690287E+06  0.1311710E+06  0.1988532E-02 -0.2441406E-03 -0.6956135E+06 -0.2723520E+06
  0.1442857E+01  0.2654869E+06  0.1445996E+06 -0.3511032E-02  0.5859375E-02 -0.6861621E+06 -0.2970776E+06
  0.1473810E+01  0.2611210E+06  0.1581176E+06  0.1014623E-01  0.2960205E-02 -0.6750484E+06 -0.3212802E+06
  0.1504762E+01  0.2558652E+06  0.1714494E+06 -0.3609959E-02 -0.8148193E-02 -0.6623201E+06 -0.3444410E+06
  0.1535714E+01  0.2499493E+06  0.1844555E+06  0.9498773E-02  0.1129150E-02 -0.6484501E+06 -0.3662806E+06
  0.1566667E+01  0.2433890E+06  0.1969154E+06 -0.4675033E-03 -0.1080322E-01 -0.6337363E+06 -0.3865334E+06
  0.1597619E+01  0.2361150E+06  0.2084221E+06 -0.2521452E-02 -0.1086426E-01 -0.6180498E+06 -0.4044310E+06
  0.1628572E+01  0.2282032E+06  0.2185773E+06 -0.2361097E-02 -0.1116943E-01 -0.6013116E+06 -0.4189568E+06
  0.1659524E+01  0.2201949E+06  0.2278392E+06  0.4670897E-02  0.1885986E-01 -0.5849570E+06 -0.4315533E+06
  0.1690476E+01  0.2121188E+06  0.2359197E+06  0.5560216E-02  0.3051758E-02 -0.5687906E+06 -0.4414589E+06
  0.1721429E+01  0.2038081E+06  0.2422378E+06  0.3900172E-02 -0.2136230E-02 -0.5524086E+06 -0.4474069E+06
  0.1752381E+01  0.1957637E+06  0.2474401E+06 -0.3134686E-03  0.1495361E-01 -0.5369131E+06 -0.4510616E+06
  0.1783333E+01  0.1880282E+06  0.2514744E+06  0.6365910E-02 -0.6042480E-02 -0.5222492E+06 -0.4522170E+06
  0.1814286E+01  0.1805314E+06  0.2543270E+06 -0.6391871E-03  0.9460449E-02 -0.5085702E+06 -0.4513862E+06
  0.1845238E+01  0.1733506E+06  0.2559199E+06  0.6615424E-04 -0.3417969E-02 -0.4958010E+06 -0.4481844E+06
  0.1876190E+01  0.1664307E+06  0.2559781E+06 -0.6018314E-03  0.3845215E-02 -0.4836799E+06 -0.4417891E+06
  0.1907143E+01  0.1600429E+06  0.2553768E+06 -0.1648178E-02  0.9460449E-02 -0.4729541E+06 -0.4346829E+06
  0.1938095E+01  0.1541729E+06  0.2541358E+06  0.2456403E-02  0.2380371E-02 -0.4634689E+06 -0.4267224E+06
  0.1969048E+01  0.1486868E+06  0.2517624E+06  0.7377357E-02 -0.2624512E-02 -0.4547986E+06 -0.4165818E+06
  0.2000000E+01  0.1436695E+06  0.2486714E+06  0.4135132E-02  0.6713867E-02 -0.4471416E+06 -0.4053119E+06
Zone t="Motion of body    1 in DoF   2",I=    64,F=POINT
  0.5000000E-01  0.6866455E-02  0.1370907E-04  0.2425299E+05  0.6875569E+02 -0.1069278E-01  0.6177463E-04
  0.8095238E-01 -0.1163931E-01  0.5960464E-05  0.2396327E+05  0.1140301E+03  0.1986297E-01 -0.2726354E-04
  0.1119048E+00  0.8522196E-02  0.3814697E-04  0.2379590E+05  0.1633474E+03 -0.4235158E-01  0.1400933E-03
  0.1428571E+00  0.1228333E-02  0.2384186E-04  0.2372505E+05  0.2186193E+03  0.6199032E-02  0.1250580E-03
  0.1738095E+00  0.2633709E-02  0.1244545E-03  0.2370783E+05  0.2821826E+03 -0.2445200E-01  0.1736879E-03
  0.2047619E+00 -0.7750046E-02 -0.2002716E-04  0.2374739E+05  0.3570915E+03 -0.2044430E-01  0.5192235E-03
  0.2357143E+00  0.3495650E-02  0.3719330E-04  0.2382505E+05  0.4475172E+03 -0.2331748E-01  0.8118823E-03
  0.2666667E+00  0.2746582E-02  0.4768372E-04  0.2392870E+05  0.5570096E+03  0.1961231E-01 -0.2203211E-03
  0.2976190E+00 -0.5024414E-02  0.2288818E-04  0.2406236E+05  0.6936223E+03  0.2341375E-01 -0.6361604E-03
  0.3285715E+00  0.1574309E-01 -0.1411438E-03  0.2421612E+05  0.8615892E+03  0.1756367E-02 -0.1084059E-02
  0.3595238E+00  0.5602299E-02  0.2861023E-04  0.2435883E+05  0.1070672E+04 -0.2056100E-01  0.3893822E-03
  0.3904762E+00 -0.1836637E-02  0.3013611E-03  0.2450184E+05  0.1328119E+04 -0.2658911E-01  0.8386225E-03
  0.4214286E+00  0.1629328E-02  0.2098083E-03  0.2458645E+05  0.1631964E+04 -0.3494852E-02 -0.1247108E-02
  0.4523810E+00 -0.2563476E-02  0.4081726E-03  0.2463281E+05  0.1998095E+04  0.1102495E-01  0.1870275E-02
  0.4833333E+00 -0.2778152E-02  0.5111694E-03  0.2459729E+05  0.2397251E+04  0.1757334E-01  0.1635879E-02
  0.5142857E+00 -0.3797743E-02 -0.3662109E-03  0.2449551E+05  0.2848434E+04 -0.2062288E-01 -0.1702666E-02
  0.5452381E+00  0.2182873E-02 -0.1220703E-03  0.2434050E+05  0.3327822E+04  0.6988955E-02 -0.2660692E-02
  0.5761905E+00  0.1588932E-03  0.1556396E-02  0.2412244E+05  0.3827324E+04 -0.7846591E-02 -0.2026320E-02
  0.6071429E+00 -0.1598403E-01  0.4272461E-03  0.2384143E+05  0.4358189E+04  0.7581261E-02 -0.6004155E-02
  0.6380953E+00 -0.1195651E-02  0.1525879E-02  0.2354554E+05  0.4892313E+04 -0.1020040E-03  0.2283812E-02
  0.6690477E+00  0.7298153E-03  0.1281738E-02  0.2321450E+05  0.5439647E+04 -0.5905161E-02 -0.5920529E-02
  0.7000000E+00 -0.7629394E-02  0.1281738E-02  0.2283094E+05  0.6002543E+04  0.1924889E-01 -0.8994341E-03
  0.7309524E+00 -0.8517087E-02  0.2731323E-02  0.2243367E+05  0.6565244E+04  0.2039345E-01 -0.3684521E-02
  0.7619048E+00 -0.2247047E-01 -0.2319336E-02  0.2201679E+05  0.7129284E+04 -0.1298104E-01 -0.7076025E-02
  0.7928572E+00 -0.8852846E-03 -0.7629395E-04  0.2156988E+05  0.7693753E+04 -0.1956317E-01 -0.9790659E-02
  0.8238096E+00  0.3408090E-02 -0.6256104E-03  0.2111279E+05  0.8252604E+04 -0.2533494E-02 -0.8022666E-02
  0.8547620E+00  0.5034125E-02 -0.2227783E-02  0.2064265E+05  0.8802128E+04 -0.6449973E-02 -0.8843422E-02
  0.8857143E+00  0.8028092E-02  0.7873535E-02  0.2016245E+05  0.9338492E+04 -0.2930318E-01 -0.5025506E-02
  0.9166667E+00 -0.5293413E-02  0.1983643E-02  0.1966848E+05  0.9859647E+04  0.7612922E-03 -0.2359390E-02
  0.9476191E+00 -0.1481406E-02  0.3509521E-02  0.1917118E+05  0.1036058E+05  0.1812559E-01 -0.1239562E-01
  0.9785714E+00  0.1465735E-02  0.2655029E-02  0.1866877E+05  0.1084132E+05  0.4059277E-02 -0.9223938E-02
  0.1009524E+01 -0.5532031E-02 -0.1922607E-02  0.1817043E+05  0.1129707E+05  0.2466742E-01  0.4854202E-02
  0.1040476E+01  0.2405092E-02  0.6713867E-03  0.1767826E+05  0.1172731E+05 -0.2811823E-02  0.3683567E-02
  0.1071429E+01  0.3446452E-02  0.4577637E-03  0.1718734E+05  0.1213079E+05 -0.2282162E-01  0.1793432E-01
  0.1102381E+01  0.8498782E-02 -0.1892090E-02  0.1670647E+05  0.1250425E+05 -0.4888271E-02 -0.3537178E-02
  0.1133333E+01  0.6112491E-02  0.3356934E-03  0.1623242E+05  0.1284912E+05 -0.3365068E-02 -0.1228070E-01
  0.1164286E+01 -0.8204173E-02  0.1220703E-02  0.1577310E+05  0.1316192E+05  0.2127015E-02 -0.1275778E-02
  0.1195238E+01 -0.2706459E-02  0.4821777E-02  0.1533016E+05  0.1344379E+05  0.4898476E-02  0.1305032E-01
  0.1226190E+01  0.1468399E-02 -0.5065918E-02  0.1489392E+05  0.1369774E+05 -0.3508059E-02 -0.3083467E-02
  0.1257143E+01 -0.4199635E-02 -0.6103516E-04  0.1447825E+05  0.1392579E+05 -0.3828298E-02  0.9870291E-02
  0.1288095E+01  0.3079963E-03 -0.4882812E-02  0.1407917E+05  0.1411105E+05  0.5321079E-02 -0.2443743E-01
  0.1319048E+01 -0.1064259E-02  0.2441406E-03  0.1370183E+05  0.1427528E+05  0.5475115E-02 -0.7013083E-02
  0.1350000E+01 -0.1514576E-02  0.2380371E-02  0.1334096E+05  0.1440810E+05 -0.3739286E-02 -0.1282692E-02
  0.1380952E+01  0.9281553E-03 -0.4394531E-02  0.1300235E+05  0.1451632E+05 -0.1341595E-01 -0.1722813E-02
  0.1411905E+01  0.3782533E-02  0.5126953E-02  0.1267442E+05  0.1465346E+05  0.4782202E-03  0.4786491E-02
  0.1442857E+01 -0.3045715E-02  0.2197266E-02  0.1236807E+05  0.1471633E+05  0.1702656E-01 -0.2403736E-02
  0.1473810E+01 -0.2401965E-02 -0.7751465E-02  0.1207634E+05  0.1475588E+05 -0.4045875E-03  0.1609898E-01
  0.1504762E+01 -0.3204346E-02  0.1892090E-02  0.1180419E+05  0.1477685E+05  0.3579063E-02 -0.1846695E-01
  0.1535714E+01 -0.2861555E-02 -0.7934570E-03  0.1154988E+05  0.1477602E+05 -0.2406209E-02 -0.2190351E-02
  0.1566667E+01 -0.4480240E-03 -0.7324219E-03  0.1131388E+05  0.1475611E+05  0.2466186E-02  0.6541491E-02
  0.1597619E+01 -0.3094510E-02 -0.7568359E-02  0.1109606E+05  0.1472835E+05 -0.8683162E-03 -0.8152962E-02
  0.1628572E+01 -0.5996436E-03 -0.7934570E-03  0.1088620E+05  0.1468535E+05 -0.7982243E-02  0.9869576E-02
  0.1659524E+01  0.5424860E-02 -0.7263184E-02  0.1070133E+05  0.1463296E+05 -0.2044882E-02  0.1411295E-01
  0.1690476E+01 -0.2175344E-02 -0.3051758E-03  0.1052791E+05  0.1456491E+05 -0.5279695E-03  0.1424503E-01
  0.1721429E+01 -0.2065318E-02 -0.1953125E-02  0.1036180E+05  0.1449545E+05 -0.6446294E-02 -0.1014566E-01
  0.1752381E+01  0.6103931E-02 -0.7324219E-03  0.1021300E+05  0.1442028E+05 -0.2629925E-02 -0.1184464E-01
  0.1783333E+01  0.3422532E-04 -0.7080078E-02  0.1007402E+05  0.1433352E+05  0.9756356E-02  0.4286289E-02
  0.1814286E+01  0.1010925E-01 -0.1220703E-03  0.9947633E+04  0.1424684E+05 -0.1692702E-01 -0.2221298E-01
  0.1845238E+01 -0.3489636E-02  0.3967285E-02  0.9828980E+04  0.1416193E+05  0.2217588E-02  0.1772642E-01
  0.1876190E+01  0.2895297E-02  0.3967285E-02  0.9708107E+04  0.1407027E+05 -0.1835348E-01 -0.7835865E-02
  0.1907143E+01 -0.1000108E-02  0.4028320E-02  0.9602054E+04  0.1398108E+05  0.2298561E-02 -0.6035805E-02
  0.1938095E+01 -0.3936543E-05  0.3662109E-03  0.9504704E+04  0.1388561E+05  0.2226238E-02 -0.1235008E-03
  0.1969048E+01  0.6017351E-02  0.2319336E-02  0.9405374E+04  0.1379340E+05  0.3944285E-02 -0.1422501E-01
  0.2000000E+01  0.5084991E-02 -0.2746582E-02  0.9308972E+04  0.1369955E+05  0.4768908E-02  0.2017021E-02
Zone t="Motion of body    1 in DoF   3",I=    64,F=POINT
  0.5000000E-01 -0.6182325E+06 -0.4014281E-01  0.2490997E-01  0.1013020E-03  0.2249258E+07  0.1055632E+00
  0.8095238E-01 -0.6223244E+06 -0.1748895E+00 -0.1045653E+00 -0.5347494E-03  0.2255354E+07  0.4601459E+00
  0.1119048E+00 -0.6230259E+06 -0.4892500E+00 -0.6640495E-01 -0.7731314E-03  0.2256392E+07  0.1278805E+01
  0.1428571E+00 -0.6238514E+06 -0.1094906E+01 -0.1575470E-02 -0.7104618E-04  0.2257688E+07  0.2858326E+01
  0.1738095E+00 -0.6245726E+06 -0.2179379E+01 -0.1128544E+00 -0.1870150E-02  0.2258840E+07  0.5689476E+01
  0.2047619E+00 -0.6249438E+06 -0.4013690E+01 -0.1014958E+00 -0.1322767E-02  0.2259857E+07  0.1046650E+02
  0.2357143E+00 -0.6257749E+06 -0.7050265E+01 -0.9842843E-01 -0.1984616E-02  0.2261272E+07  0.1835340E+02
  0.2666667E+00 -0.6263771E+06 -0.1198708E+02 -0.6494522E-01 -0.1308855E-02  0.2262720E+07  0.3115263E+02
  0.2976190E+00 -0.6272817E+06 -0.2003033E+02 -0.3429932E-01 -0.6489754E-03  0.2264521E+07  0.5195861E+02
  0.3285715E+00 -0.6281434E+06 -0.3299532E+02 -0.4602183E-01 -0.1635917E-02  0.2266433E+07  0.8539954E+02
  0.3595238E+00 -0.6296293E+06 -0.5398894E+02 -0.1242692E+00 -0.6276198E-02  0.2269089E+07  0.1393395E+03
  0.3904762E+00 -0.6304146E+06 -0.8750682E+02 -0.1637733E+00 -0.9414956E-02  0.2271069E+07  0.2253364E+03
  0.4214286E+00 -0.6321782E+06 -0.1401520E+03 -0.1064494E-01 -0.3816575E-02  0.2274527E+07  0.3597546E+03
  0.4523810E+00 -0.6337168E+06 -0.2224046E+03 -0.6253533E-01 -0.7570624E-02  0.2277834E+07  0.5692346E+03
  0.4833333E+00 -0.6356338E+06 -0.3442757E+03 -0.1576601E+00 -0.1797527E-01  0.2281569E+07  0.8778416E+03
  0.5142857E+00 -0.6374975E+06 -0.5239605E+03 -0.2023485E-01 -0.6297708E-02  0.2285596E+07  0.1331608E+04
  0.5452381E+00 -0.6396815E+06 -0.7782454E+03 -0.1432860E-01 -0.6220341E-02  0.2290411E+07  0.1971148E+04
  0.5761905E+00 -0.6424976E+06 -0.1129701E+04  0.1964979E-01  0.2348900E-02  0.2295781E+07  0.2848636E+04
  0.6071429E+00 -0.6451108E+06 -0.1609097E+04  0.7006835E-01  0.1006579E-01  0.2301339E+07  0.4041093E+04
  0.6380953E+00 -0.6478488E+06 -0.2241011E+04  0.3338259E-01  0.3705025E-02  0.2307105E+07  0.5602958E+04
  0.6690477E+00 -0.6513970E+06 -0.3069466E+04 -0.7343767E-02  0.5722046E-03  0.2314204E+07  0.7638922E+04
  0.7000000E+00 -0.6544581E+06 -0.4137568E+04  0.4167829E-01  0.1464081E-01  0.2320734E+07  0.1025042E+05
  0.7309524E+00 -0.6581046E+06 -0.5496281E+04  0.7707129E-01  0.2755451E-01  0.2327980E+07  0.1354288E+05
  0.7619048E+00 -0.6624543E+06 -0.7211219E+04  0.8459472E-01  0.3233719E-01  0.2336250E+07  0.1766678E+05
  0.7928572E+00 -0.6662083E+06 -0.9335639E+04  0.1115459E+00  0.4578590E-01  0.2344018E+07  0.2274890E+05
  0.8238096E+00 -0.6706276E+06 -0.1195773E+05 -0.5182520E-01 -0.2600670E-01  0.2352854E+07  0.2897588E+05
  0.8547620E+00 -0.6748138E+06 -0.1514749E+05 -0.5641076E-01 -0.2882385E-01  0.2361148E+07  0.3648757E+05
  0.8857143E+00 -0.6797588E+06 -0.1901928E+05 -0.4141531E-01 -0.8769989E-02  0.2370300E+07  0.4552083E+05
  0.9166667E+00 -0.6842374E+06 -0.2364504E+05 -0.6145685E-01 -0.4338455E-01  0.2378673E+07  0.5621627E+05
  0.9476191E+00 -0.6893698E+06 -0.2916553E+05  0.2898403E-02  0.8010864E-03  0.2388131E+07  0.6887360E+05
  0.9785714E+00 -0.6938753E+06 -0.3565219E+05 -0.2351413E-01 -0.2437592E-01  0.2396308E+07  0.8359502E+05
  0.1009524E+01 -0.6986949E+06 -0.4325774E+05  0.1038087E+00  0.4438782E-01  0.2404278E+07  0.1006706E+06
  0.1040476E+01 -0.7032643E+06 -0.5206827E+05  0.3367129E-01  0.2395630E-01  0.2412044E+07  0.1202975E+06
  0.1071429E+01 -0.7070591E+06 -0.6215594E+05 -0.1965332E-01 -0.3633118E-01  0.2418139E+07  0.1425458E+06
  0.1102381E+01 -0.7110112E+06 -0.7371984E+05  0.4041766E-02 -0.1171875E-01  0.2423919E+07  0.1677531E+06
  0.1133333E+01 -0.7141344E+06 -0.8678424E+05  0.5008473E-02  0.8483887E-02  0.2427589E+07  0.1958129E+06
  0.1164286E+01 -0.7170989E+06 -0.1015190E+06  0.1944887E-01  0.9567261E-02  0.2429926E+07  0.2269974E+06
  0.1195238E+01 -0.7192394E+06 -0.1179011E+06  0.7404464E-02  0.1742554E-01  0.2431139E+07  0.2613800E+06
  0.1226190E+01 -0.7195823E+06 -0.1357593E+06  0.1607773E-01  0.4058838E-02  0.2428338E+07  0.2982732E+06
  0.1257143E+01 -0.7188158E+06 -0.1550479E+06  0.1961448E-01  0.4577637E-02  0.2423399E+07  0.3377173E+06
  0.1288095E+01 -0.7174540E+06 -0.1762260E+06  0.2463970E-01  0.2124023E-01  0.2416365E+07  0.3800926E+06
  0.1319048E+01 -0.7144251E+06 -0.1985210E+06  0.4627214E-02  0.2453613E-01  0.2406034E+07  0.4240411E+06
  0.1350000E+01 -0.7101006E+06 -0.2219430E+06 -0.3029152E-01 -0.3540039E-01  0.2392653E+07  0.4693700E+06
  0.1380952E+01 -0.7040321E+06 -0.2461248E+06  0.3031974E-01  0.4046631E-01  0.2376378E+07  0.5153949E+06
  0.1411905E+01 -0.6947880E+06 -0.2685955E+06 -0.2005823E-01 -0.1525879E-01  0.2354480E+07  0.5575792E+06
  0.1442857E+01 -0.6855038E+06 -0.2929926E+06  0.1142143E-02  0.1440430E-01  0.2331934E+07  0.6018175E+06
  0.1473810E+01 -0.6745863E+06 -0.3168878E+06  0.7785680E-02 -0.1068115E-01  0.2306109E+07  0.6437021E+06
  0.1504762E+01 -0.6620771E+06 -0.3397899E+06 -0.1297963E-02 -0.3259277E-01  0.2277758E+07  0.6823941E+06
  0.1535714E+01 -0.6484326E+06 -0.3613792E+06 -0.1391034E-02 -0.7202148E-02  0.2247460E+07  0.7173431E+06
  0.1566667E+01 -0.6338947E+06 -0.3812882E+06  0.1632366E-01  0.2294922E-01  0.2216058E+07  0.7481151E+06
  0.1597619E+01 -0.6183969E+06 -0.3988505E+06  0.2555836E-01  0.2014160E-01  0.2183869E+07  0.7735505E+06
  0.1628572E+01 -0.6018949E+06 -0.4132025E+06 -0.1277990E-01 -0.1953125E-01  0.2150220E+07  0.7915167E+06
  0.1659524E+01 -0.5857715E+06 -0.4255633E+06 -0.5774259E-02  0.1049805E-01  0.2118388E+07  0.8055375E+06
  0.1690476E+01 -0.5698365E+06 -0.4352070E+06  0.4332636E-03 -0.2844238E-01  0.2087217E+07  0.8136832E+06
  0.1721429E+01 -0.5537087E+06 -0.4411811E+06 -0.2010361E-01 -0.1147461E-01  0.2056650E+07  0.8141031E+06
  0.1752381E+01 -0.5384737E+06 -0.4449389E+06 -0.3000591E-01 -0.4052734E-01  0.2028479E+07  0.8102844E+06
  0.1783333E+01 -0.5240604E+06 -0.4462129E+06 -0.1001091E-01 -0.2380371E-01  0.2002003E+07  0.8013731E+06
  0.1814286E+01 -0.5105961E+06 -0.4453589E+06 -0.7552500E-02 -0.3833008E-01  0.1978216E+07  0.7891268E+06
  0.1845238E+01 -0.4980276E+06 -0.4422118E+06  0.9484863E-02 -0.2404785E-01  0.1956902E+07  0.7730393E+06
  0.1876190E+01 -0.4860827E+06 -0.4360774E+06 -0.3627254E-02 -0.2038574E-01  0.1937043E+07  0.7509814E+06
  0.1907143E+01 -0.4755196E+06 -0.4291246E+06  0.1700984E-01 -0.1708984E-02  0.1920416E+07  0.7287038E+06
  0.1938095E+01 -0.4661903E+06 -0.4211577E+06 -0.9065858E-02 -0.1977539E-01  0.1906120E+07  0.7050182E+06
  0.1969048E+01 -0.4576429E+06 -0.4112616E+06 -0.2349934E-01 -0.1135254E-01  0.1893712E+07  0.6781602E+06
  0.2000000E+01 -0.4500785E+06 -0.4003377E+06  0.1129150E-02  0.1586914E-02  0.1883429E+07  0.6499479E+06
