VARIABLES="w (rad/s)"
"abs(F   1   1)" "angle(F   1   1)"
"abs(F   1   2)" "angle(F   1   2)"
"abs(F   1   3)" "angle(F   1   3)"
Zone t="Diffraction force - beta =   0.000 deg",I=    64,F=POINT
  0.5000000E-01  0.1048789E+05 -0.1570795E+01  0.4422462E+06 -0.2966015E-04  0.3839163E+05  0.1570785E+01
  0.8095238E-01  0.1711262E+05 -0.1570787E+01  0.4403300E+06 -0.7960032E-04  0.6259425E+05  0.1570789E+01
  0.1119048E+00  0.2385585E+05 -0.1570780E+01  0.4375200E+06 -0.1574918E-03  0.8720971E+05  0.1570811E+01
  0.1428571E+00  0.3082084E+05 -0.1570775E+01  0.4338177E+06 -0.2688698E-03  0.1125359E+06  0.1570820E+01
  0.1738095E+00  0.3803363E+05 -0.1570759E+01  0.4292354E+06 -0.4214954E-03  0.1387951E+06  0.1570835E+01
  0.2047619E+00  0.4560011E+05 -0.1570741E+01  0.4237811E+06 -0.6276980E-03  0.1661823E+06  0.1570854E+01
  0.2357143E+00  0.5361641E+05 -0.1570711E+01  0.4174558E+06 -0.9042462E-03  0.1951458E+06  0.1570879E+01
  0.2666667E+00  0.6216137E+05 -0.1570669E+01  0.4103090E+06 -0.1270184E-02  0.2258763E+06  0.1570924E+01
  0.2976190E+00  0.7139444E+05 -0.1570606E+01  0.4023239E+06 -0.1762574E-02  0.2589214E+06  0.1570985E+01
  0.3285715E+00  0.8138937E+05 -0.1570514E+01  0.3935883E+06 -0.2410932E-02  0.2946426E+06  0.1571079E+01
  0.3595238E+00  0.9236723E+05 -0.1570375E+01  0.3840829E+06 -0.3272516E-02  0.3336757E+06  0.1571220E+01
  0.3904762E+00  0.1043586E+06 -0.1570171E+01  0.3739655E+06 -0.4400778E-02  0.3760436E+06  0.1571422E+01
  0.4214286E+00  0.1176090E+06 -0.1569872E+01  0.3632138E+06 -0.5822840E-02  0.4226086E+06  0.1571720E+01
  0.4523810E+00  0.1319900E+06 -0.1569438E+01  0.3520099E+06 -0.7662153E-02  0.4731401E+06  0.1572156E+01
  0.4833333E+00  0.1476980E+06 -0.1568840E+01  0.3403813E+06 -0.9809883E-02  0.5276518E+06  0.1572753E+01
  0.5142857E+00  0.1645372E+06 -0.1568015E+01  0.3284197E+06 -0.1242516E-01  0.5857559E+06  0.1573577E+01
  0.5452381E+00  0.1824392E+06 -0.1566925E+01  0.3162546E+06 -0.1543107E-01  0.6472846E+06  0.1574668E+01
  0.5761905E+00  0.2013464E+06 -0.1565520E+01  0.3037942E+06 -0.1881327E-01  0.7119769E+06  0.1576072E+01
  0.6071429E+00  0.2209816E+06 -0.1563720E+01  0.2913586E+06 -0.2271577E-01  0.7782154E+06  0.1577873E+01
  0.6380953E+00  0.2414141E+06 -0.1561494E+01  0.2787821E+06 -0.2695313E-01  0.8463384E+06  0.1580098E+01
  0.6690477E+00  0.2625394E+06 -0.1558756E+01  0.2660497E+06 -0.3167909E-01  0.9163008E+06  0.1582836E+01
  0.7000000E+00  0.2839441E+06 -0.1555417E+01  0.2535745E+06 -0.3692611E-01  0.9864797E+06  0.1586176E+01
  0.7309524E+00  0.3058566E+06 -0.1551428E+01  0.2410913E+06 -0.4263633E-01  0.1057724E+07  0.1590165E+01
  0.7619048E+00  0.3284059E+06 -0.1546702E+01  0.2286184E+06 -0.4891443E-01  0.1129590E+07  0.1594890E+01
  0.7928572E+00  0.3509195E+06 -0.1541150E+01  0.2164092E+06 -0.5570901E-01  0.1200003E+07  0.1600440E+01
  0.8238096E+00  0.3737615E+06 -0.1534687E+01  0.2044812E+06 -0.6310181E-01  0.1270929E+07  0.1606904E+01
  0.8547620E+00  0.3964960E+06 -0.1527252E+01  0.1927156E+06 -0.7112323E-01  0.1339827E+07  0.1614339E+01
  0.8857143E+00  0.4193838E+06 -0.1518760E+01  0.1811295E+06 -0.7989907E-01  0.1408609E+07  0.1622830E+01
  0.9166667E+00  0.4416363E+06 -0.1509175E+01  0.1699835E+06 -0.8912984E-01  0.1473901E+07  0.1632413E+01
  0.9476191E+00  0.4638438E+06 -0.1498470E+01  0.1592525E+06 -0.9906773E-01  0.1537620E+07  0.1643116E+01
  0.9785714E+00  0.4853472E+06 -0.1486619E+01  0.1488262E+06 -0.1097821E+00  0.1596655E+07  0.1654961E+01
  0.1009524E+01  0.5064658E+06 -0.1473587E+01  0.1387055E+06 -0.1214476E+00  0.1653316E+07  0.1667988E+01
  0.1040476E+01  0.5262451E+06 -0.1459391E+01  0.1289478E+06 -0.1339723E+00  0.1704538E+07  0.1682181E+01
  0.1071429E+01  0.5445659E+06 -0.1444085E+01  0.1198235E+06 -0.1466376E+00  0.1749346E+07  0.1697478E+01
  0.1102381E+01  0.5617480E+06 -0.1427695E+01  0.1110851E+06 -0.1603195E+00  0.1789994E+07  0.1713872E+01
  0.1133333E+01  0.5770048E+06 -0.1410427E+01  0.1027158E+06 -0.1751025E+00  0.1822692E+07  0.1731139E+01
  0.1164286E+01  0.5907805E+06 -0.1392452E+01  0.9472962E+05 -0.1911288E+00  0.1849753E+07  0.1749099E+01
  0.1195238E+01  0.6021469E+06 -0.1374023E+01  0.8711739E+05 -0.2085601E+00  0.1867918E+07  0.1767514E+01
  0.1226190E+01  0.6109513E+06 -0.1355379E+01  0.8010791E+05 -0.2252077E+00  0.1876163E+07  0.1786104E+01
  0.1257143E+01  0.6175231E+06 -0.1336472E+01  0.7354480E+05 -0.2430736E+00  0.1878045E+07  0.1805024E+01
  0.1288095E+01  0.6216991E+06 -0.1317939E+01  0.6733355E+05 -0.2620147E+00  0.1870970E+07  0.1823528E+01
  0.1319048E+01  0.6232754E+06 -0.1299839E+01  0.6150370E+05 -0.2824910E+00  0.1855631E+07  0.1841597E+01
  0.1350000E+01  0.6227539E+06 -0.1282552E+01  0.5604744E+05 -0.3044408E+00  0.1834012E+07  0.1858866E+01
  0.1380952E+01  0.6194727E+06 -0.1266465E+01  0.5093200E+05 -0.3281391E+00  0.1803712E+07  0.1874921E+01
  0.1411905E+01  0.6126688E+06 -0.1252383E+01  0.4625365E+05 -0.3501801E+00  0.1763519E+07  0.1888850E+01
  0.1442857E+01  0.6049899E+06 -0.1239195E+01  0.4195955E+05 -0.3731085E+00  0.1720776E+07  0.1902060E+01
  0.1473810E+01  0.5953937E+06 -0.1227808E+01  0.3797809E+05 -0.3974725E+00  0.1672823E+07  0.1913423E+01
  0.1504762E+01  0.5840949E+06 -0.1218639E+01  0.3427361E+05 -0.4238328E+00  0.1619632E+07  0.1922467E+01
  0.1535714E+01  0.5717291E+06 -0.1211522E+01  0.3087841E+05 -0.4510794E+00  0.1564538E+07  0.1929471E+01
  0.1566667E+01  0.5581924E+06 -0.1206521E+01  0.2775902E+05 -0.4801394E+00  0.1507501E+07  0.1934508E+01
  0.1597619E+01  0.5434288E+06 -0.1204059E+01  0.2488457E+05 -0.5114393E+00  0.1447639E+07  0.1936895E+01
  0.1628572E+01  0.5277570E+06 -0.1204239E+01  0.2225592E+05 -0.5423391E+00  0.1385681E+07  0.1936380E+01
  0.1659524E+01  0.5118298E+06 -0.1206523E+01  0.1989449E+05 -0.5716092E+00  0.1324826E+07  0.1934105E+01
  0.1690476E+01  0.4957492E+06 -0.1211026E+01  0.1774883E+05 -0.6013207E+00  0.1264998E+07  0.1929784E+01
  0.1721429E+01  0.4793175E+06 -0.1218384E+01  0.1577504E+05 -0.6356410E+00  0.1204281E+07  0.1922056E+01
  0.1752381E+01  0.4630408E+06 -0.1227869E+01  0.1398602E+05 -0.6723746E+00  0.1145434E+07  0.1912373E+01
  0.1783333E+01  0.4470216E+06 -0.1239375E+01  0.1237604E+05 -0.7089040E+00  0.1088836E+07  0.1900858E+01
  0.1814286E+01  0.4310349E+06 -0.1253167E+01  0.1092573E+05 -0.7473812E+00  0.1033513E+07  0.1887198E+01
  0.1845238E+01  0.4152522E+06 -0.1269270E+01  0.9617748E+04 -0.7900501E+00  0.9797224E+06  0.1871054E+01
  0.1876190E+01  0.3997336E+06 -0.1287775E+01  0.8440306E+04 -0.8363235E+00  0.9274259E+06  0.1852087E+01
  0.1907143E+01  0.3846901E+06 -0.1308009E+01  0.7384226E+04 -0.8784897E+00  0.8777114E+06  0.1831849E+01
  0.1938095E+01  0.3701107E+06 -0.1329951E+01  0.6437521E+04 -0.9180595E+00  0.8304122E+06  0.1810275E+01
  0.1969048E+01  0.3559623E+06 -0.1354006E+01  0.5600045E+04 -0.9677821E+00  0.7850193E+06  0.1786169E+01
  0.2000000E+01  0.3423055E+06 -0.1379875E+01  0.4861365E+04 -0.1029353E+01  0.7417344E+06  0.1760146E+01
