VARIABLES="w (rad/s)"
"A   1   1" "B   1   1"
"A   1   2" "B   1   2"
"A   1   3" "B   1   3"
Zone t="Motion of body    1 in DoF   1",I=    64,F=POINT
  0.5000000E-01  0.7064060E+05  0.4218656E-02 -0.7209778E-02 -0.1565880E-04 -0.1322209E+06 -0.7274208E-02
  0.8095238E-01  0.7108532E+05  0.1836539E-01 -0.6597182E-03 -0.1428465E-04 -0.1330538E+06 -0.3126384E-01
  0.1119048E+00  0.7118888E+05  0.5149394E-01  0.2795280E-02 -0.6039132E-05 -0.1331924E+06 -0.8711959E-01
  0.1428571E+00  0.7126152E+05  0.1157906E+00  0.1137543E-01  0.7936626E-04 -0.1332857E+06 -0.1957635E+00
  0.1738095E+00  0.7141837E+05  0.2302707E+00  0.4257829E-02  0.4986953E-04 -0.1333753E+06 -0.3884951E+00
  0.2047619E+00  0.7145148E+05  0.4243192E+00  0.3725983E-02  0.1495099E-04 -0.1334486E+06 -0.7149950E+00
  0.2357143E+00  0.7157066E+05  0.7457668E+00  0.7379705E-02  0.1160284E-03 -0.1334937E+06 -0.1252705E+01
  0.2666667E+00  0.7171191E+05  0.1269933E+01 -0.7324218E-02 -0.1364239E-03 -0.1336651E+06 -0.2126285E+01
  0.2976190E+00  0.7176337E+05  0.2124608E+01  0.1338135E-01  0.2511367E-03 -0.1337700E+06 -0.3548171E+01
  0.3285715E+00  0.7194847E+05  0.3507675E+01  0.1286382E-01  0.3095735E-03 -0.1338397E+06 -0.5831292E+01
  0.3595238E+00  0.7212470E+05  0.5744583E+01  0.9888907E-02  0.2682880E-03 -0.1339992E+06 -0.9507742E+01
  0.3904762E+00  0.7230945E+05  0.9337337E+01  0.2930804E-02  0.1601875E-04 -0.1341416E+06 -0.1537973E+02
  0.4214286E+00  0.7242141E+05  0.1496617E+02  0.6589727E-02  0.5317181E-03 -0.1343285E+06 -0.2453965E+02
  0.4523810E+00  0.7266577E+05  0.2379298E+02  0.2968236E-02 -0.4944205E-04 -0.1345221E+06 -0.3879747E+02
  0.4833333E+00  0.7301912E+05  0.3690263E+02  0.2967571E-02  0.2484918E-03 -0.1348698E+06 -0.5980253E+02
  0.5142857E+00  0.7323329E+05  0.5624498E+02 -0.1305474E-02 -0.2428889E-03 -0.1351383E+06 -0.9062629E+02
  0.5452381E+00  0.7348666E+05  0.8367458E+02  0.6772504E-02  0.8248091E-03 -0.1353980E+06 -0.1339602E+03
  0.5761905E+00  0.7379901E+05  0.1215595E+03  0.5402368E-02  0.6991625E-03 -0.1356839E+06 -0.1932443E+03
  0.6071429E+00  0.7420432E+05  0.1734249E+03 -0.2513212E-03 -0.2369881E-03 -0.1360923E+06 -0.2736767E+03
  0.6380953E+00  0.7465862E+05  0.2419814E+03 -0.5356518E-02 -0.5867481E-03 -0.1365606E+06 -0.3789122E+03
  0.6690477E+00  0.7493106E+05  0.3313969E+03 -0.7845515E-02 -0.8854866E-03 -0.1369289E+06 -0.5151097E+03
  0.7000000E+00  0.7532515E+05  0.4472245E+03 -0.3487723E-02 -0.9675026E-03 -0.1373465E+06 -0.6894662E+03
  0.7309524E+00  0.7592201E+05  0.5947399E+03 -0.1181537E-01 -0.3441811E-02 -0.1378758E+06 -0.9084097E+03
  0.7619048E+00  0.7643556E+05  0.7799981E+03  0.1361847E-02  0.6790161E-03 -0.1383883E+06 -0.1180544E+04
  0.7928572E+00  0.7699134E+05  0.1010667E+04  0.2463401E-02  0.3637314E-02 -0.1389915E+06 -0.1515496E+04
  0.8238096E+00  0.7749430E+05  0.1294060E+04 -0.4445335E-03  0.1163483E-03 -0.1394569E+06 -0.1921333E+04
  0.8547620E+00  0.7804484E+05  0.1639109E+04 -0.7140603E-03  0.1716614E-04 -0.1400606E+06 -0.2409689E+04
  0.8857143E+00  0.7859009E+05  0.2055073E+04 -0.5099389E-02 -0.2393723E-02 -0.1405302E+06 -0.2989074E+04
  0.9166667E+00  0.7927076E+05  0.2554053E+04 -0.1997514E-02  0.3395081E-03 -0.1411602E+06 -0.3674080E+04
  0.9476191E+00  0.7993458E+05  0.3145512E+04 -0.2833994E-02 -0.2784729E-02 -0.1416631E+06 -0.4472121E+04
  0.9785714E+00  0.8066230E+05  0.3842370E+04  0.7484603E-02  0.5500793E-02 -0.1422856E+06 -0.5398583E+04
  0.1009524E+01  0.8127423E+05  0.4653346E+04 -0.4836748E-03 -0.4081726E-03 -0.1427769E+06 -0.6459767E+04
  0.1040476E+01  0.8183407E+05  0.5590980E+04 -0.6394026E-02 -0.6114960E-02 -0.1432322E+06 -0.7667163E+04
  0.1071429E+01  0.8238212E+05  0.6666804E+04 -0.3361003E-02 -0.6271362E-02 -0.1436238E+06 -0.9026908E+04
  0.1102381E+01  0.8296777E+05  0.7893199E+04 -0.9855266E-02 -0.1055908E-01 -0.1439111E+06 -0.1054289E+05
  0.1133333E+01  0.8358977E+05  0.9281926E+04  0.4793055E-02 -0.1945496E-02 -0.1442418E+06 -0.1222866E+05
  0.1164286E+01  0.8411352E+05  0.1083830E+05 -0.8492499E-02  0.2212524E-03 -0.1444256E+06 -0.1408031E+05
  0.1195238E+01  0.8456143E+05  0.1257052E+05 -0.1429828E-02 -0.2990723E-02 -0.1444985E+06 -0.1609803E+05
  0.1226190E+01  0.8497027E+05  0.1448665E+05  0.2488812E-02  0.7904053E-02 -0.1445480E+06 -0.1828441E+05
  0.1257143E+01  0.8520230E+05  0.1658239E+05  0.2864491E-02  0.9140015E-02 -0.1443142E+06 -0.2061248E+05
  0.1288095E+01  0.8545866E+05  0.1886005E+05 -0.1326753E-02  0.2868652E-02 -0.1440582E+06 -0.2307292E+05
  0.1319048E+01  0.8550518E+05  0.2131246E+05 -0.2776328E-03  0.2288818E-03 -0.1436838E+06 -0.2566730E+05
  0.1350000E+01  0.8537468E+05  0.2392016E+05 -0.6465205E-02 -0.1281738E-01 -0.1430206E+06 -0.2833458E+05
  0.1380952E+01  0.8515205E+05  0.2668184E+05 -0.2121498E-02 -0.3784180E-02 -0.1422330E+06 -0.3107621E+05
  0.1411905E+01  0.8435860E+05  0.2928205E+05  0.6743716E-02  0.1434326E-01 -0.1411762E+06 -0.3359851E+05
  0.1442857E+01  0.8388067E+05  0.3225499E+05  0.2622699E-02  0.1525879E-03 -0.1400481E+06 -0.3635260E+05
  0.1473810E+01  0.8330919E+05  0.3532223E+05 -0.4141319E-03 -0.2685547E-02 -0.1388738E+06 -0.3909934E+05
  0.1504762E+01  0.8261523E+05  0.3845360E+05  0.1297963E-02 -0.1159668E-02 -0.1376523E+06 -0.4180413E+05
  0.1535714E+01  0.8171831E+05  0.4160732E+05 -0.1589753E-03  0.4150391E-02 -0.1362722E+06 -0.4441578E+05
  0.1566667E+01  0.8063703E+05  0.4473098E+05  0.6155460E-02  0.1495361E-01 -0.1346228E+06 -0.4682184E+05
  0.1597619E+01  0.7947493E+05  0.4783176E+05  0.9932994E-03  0.8544922E-03 -0.1329940E+06 -0.4911001E+05
  0.1628572E+01  0.7824028E+05  0.5087351E+05  0.1649020E-02 -0.1159668E-02 -0.1313662E+06 -0.5122989E+05
  0.1659524E+01  0.7683445E+05  0.5378038E+05 -0.8826892E-03  0.4699707E-02 -0.1295065E+06 -0.5303917E+05
  0.1690476E+01  0.7539045E+05  0.5657476E+05 -0.7221060E-03  0.6774902E-02 -0.1277015E+06 -0.5464203E+05
  0.1721429E+01  0.7389949E+05  0.5921685E+05 -0.4041996E-02 -0.2136230E-02 -0.1259272E+06 -0.5598819E+05
  0.1752381E+01  0.7232520E+05  0.6169205E+05 -0.2647068E-02  0.9155273E-03 -0.1241977E+06 -0.5711784E+05
  0.1783333E+01  0.7069049E+05  0.6395994E+05  0.5612953E-02  0.7324219E-03 -0.1224505E+06 -0.5794652E+05
  0.1814286E+01  0.6899119E+05  0.6599255E+05  0.0000000E+00 -0.1647949E-02 -0.1206435E+06 -0.5842363E+05
  0.1845238E+01  0.6732816E+05  0.6784923E+05  0.1720010E-02 -0.7324219E-03 -0.1190173E+06 -0.5874825E+05
  0.1876190E+01  0.6570556E+05  0.6951240E+05 -0.2147074E-02 -0.4272461E-02 -0.1175296E+06 -0.5886428E+05
  0.1907143E+01  0.6403584E+05  0.7089163E+05 -0.4288463E-02  0.3356934E-02 -0.1159539E+06 -0.5857480E+05
  0.1938095E+01  0.6243757E+05  0.7208022E+05 -0.2582372E-02 -0.1708984E-02 -0.1145370E+06 -0.5814005E+05
  0.1969048E+01  0.6090387E+05  0.7304977E+05 -0.1952830E-02 -0.6347656E-02 -0.1132125E+06 -0.5745471E+05
  0.2000000E+01  0.5945114E+05  0.7384682E+05 -0.3662109E-02  0.3295898E-02 -0.1120604E+06 -0.5665511E+05
Zone t="Motion of body    1 in DoF   2",I=    64,F=POINT
  0.5000000E-01  0.9002686E-02  0.1716614E-04  0.3592436E+05  0.1043357E+03  0.3738403E-02 -0.3409386E-04
  0.8095238E-01  0.1884909E-02 -0.5245209E-04  0.3548185E+05  0.1730632E+03 -0.3487082E-02 -0.1275539E-03
  0.1119048E+00 -0.8931261E-02 -0.2622604E-04  0.3524555E+05  0.2479678E+03  0.3817944E-02  0.1907349E-05
  0.1428571E+00  0.2456665E-02 -0.6294250E-04  0.3514302E+05  0.3319388E+03 -0.1452637E-01 -0.1077652E-03
  0.1738095E+00  0.8691239E-02 -0.1049042E-04  0.3511490E+05  0.4286038E+03  0.1286128E-01 -0.9870529E-04
  0.2047619E+00 -0.2757228E-02  0.1201630E-03  0.3518137E+05  0.5425638E+03  0.5328156E-02  0.2708435E-03
  0.2357143E+00 -0.4013523E-02 -0.1182556E-03  0.3531137E+05  0.6802299E+03  0.2291593E-01  0.5245209E-04
  0.2666667E+00 -0.9155273E-02 -0.1335144E-04  0.3546750E+05  0.8470970E+03 -0.8239746E-02  0.7724762E-04
  0.2976190E+00 -0.8203125E-02  0.6484985E-04  0.3568078E+05  0.1055348E+04  0.5178223E-02  0.2136230E-03
  0.3285715E+00  0.1114555E-02  0.8392334E-04  0.3593712E+05  0.1311655E+04 -0.1142419E-01  0.2403259E-03
  0.3595238E+00 -0.6620899E-02  0.1335144E-03  0.3614655E+05  0.1630922E+04  0.8615658E-02 -0.2307892E-03
  0.3904762E+00  0.4923750E-02  0.7171631E-03  0.3637897E+05  0.2024377E+04  0.1101982E-01 -0.9536743E-04
  0.4214286E+00 -0.7241459E-03  0.1831055E-03  0.3652069E+05  0.2489067E+04  0.1317945E-01  0.1087189E-02
  0.4523810E+00  0.2428557E-02  0.9460449E-03  0.3660778E+05  0.3049138E+04 -0.1639276E-01 -0.9193420E-03
  0.4833333E+00  0.6313981E-02  0.2899170E-03  0.3655934E+05  0.3661171E+04 -0.4167228E-02  0.3089905E-03
  0.5142857E+00  0.8663602E-02  0.1083374E-02  0.3641803E+05  0.4353112E+04  0.2219306E-01 -0.3356934E-03
  0.5452381E+00 -0.3694093E-02 -0.5645752E-03  0.3620848E+05  0.5089410E+04 -0.3246324E-02 -0.6179810E-03
  0.5761905E+00 -0.5826083E-02 -0.6408691E-03  0.3588001E+05  0.5858837E+04  0.3389721E-02  0.2738953E-02
  0.6071429E+00  0.7439108E-02 -0.2441406E-03  0.3545829E+05  0.6677137E+04 -0.5529067E-02  0.7476807E-03
  0.6380953E+00  0.1559129E-01  0.7171631E-03  0.3502607E+05  0.7502150E+04  0.9086950E-03  0.1342773E-02
  0.6690477E+00  0.9852507E-02 -0.2746582E-03  0.3453028E+05  0.8349896E+04 -0.3694690E-02 -0.1770020E-02
  0.7000000E+00  0.4621233E-02 -0.7324219E-03  0.3397168E+05  0.9223168E+04  0.2886091E-01  0.1068115E-03
  0.7309524E+00 -0.7515077E-03  0.1068115E-02  0.3338488E+05  0.1009908E+05  0.4342045E-02  0.3875732E-02
  0.7619048E+00 -0.6889343E-02  0.3356934E-02  0.3274416E+05  0.1098121E+05  0.3244400E-02  0.3326416E-02
  0.7928572E+00 -0.6543408E-02  0.1373291E-02  0.3207769E+05  0.1186448E+05  0.2590420E-01  0.3341675E-02
  0.8238096E+00 -0.1037245E-02  0.2258301E-02  0.3139035E+05  0.1274302E+05  0.1333600E-02 -0.7324219E-03
  0.8547620E+00 -0.5998106E-02 -0.2532959E-02  0.3069257E+05  0.1360899E+05  0.1617347E-01 -0.9307861E-02
  0.8857143E+00 -0.1791677E-02 -0.2197266E-02  0.2996280E+05  0.1446152E+05 -0.5168300E-03  0.3234863E-02
  0.9166667E+00  0.5060369E-02  0.2258301E-02  0.2922196E+05  0.1529212E+05  0.1531427E-02  0.1007080E-02
  0.9476191E+00 -0.3542493E-02 -0.2990723E-02  0.2845609E+05  0.1609940E+05  0.3188243E-02 -0.7324219E-02
  0.9785714E+00  0.2058266E-02 -0.1037598E-02  0.2769018E+05  0.1687401E+05 -0.5738196E-02 -0.2258301E-02
  0.1009524E+01  0.2297455E-02 -0.4272461E-02  0.2692437E+05  0.1761592E+05  0.1269646E-02 -0.3692627E-02
  0.1040476E+01 -0.3812951E-02 -0.1220703E-03  0.2616831E+05  0.1832063E+05  0.9708361E-02  0.7995605E-02
  0.1071429E+01  0.5924480E-02 -0.7934570E-03  0.2541783E+05  0.1898629E+05  0.9826660E-02  0.2075195E-02
  0.1102381E+01 -0.1146090E-01  0.1403809E-02  0.2467893E+05  0.1961154E+05  0.1015978E-01  0.4333496E-02
  0.1133333E+01  0.5223891E-02  0.2990723E-02  0.2394525E+05  0.2019375E+05  0.3608255E-02  0.3021240E-02
  0.1164286E+01 -0.9436110E-03  0.8239746E-02  0.2322211E+05  0.2073487E+05  0.5766511E-02 -0.3326416E-02
  0.1195238E+01 -0.7149138E-02  0.4821777E-02  0.2251291E+05  0.2123184E+05  0.6740616E-02 -0.3662109E-02
  0.1226190E+01 -0.3733218E-02  0.3173828E-02  0.2182854E+05  0.2167889E+05  0.2638141E-02 -0.4058838E-02
  0.1257143E+01 -0.6797097E-03  0.6103516E-04  0.2116541E+05  0.2209398E+05  0.8496371E-02 -0.1162720E-01
  0.1288095E+01  0.4833172E-02 -0.6408691E-02  0.2052725E+05  0.2243086E+05 -0.6681150E-02 -0.2746582E-02
  0.1319048E+01 -0.3331594E-02 -0.5493164E-03  0.1991745E+05  0.2273708E+05  0.1781477E-02 -0.1165771E-01
  0.1350000E+01  0.6329571E-03  0.1953125E-02  0.1932527E+05  0.2300291E+05  0.8138021E-02  0.7507324E-02
  0.1380952E+01 -0.4419787E-03  0.4028320E-02  0.1876521E+05  0.2322412E+05  0.4309292E-02 -0.4882812E-03
  0.1411905E+01  0.1988532E-02 -0.6103516E-03  0.1817138E+05  0.2339308E+05 -0.5403618E-02  0.1379395E-01
  0.1442857E+01  0.1480556E-02 -0.5371094E-02  0.1765251E+05  0.2354110E+05 -0.6641350E-02 -0.2075195E-02
  0.1473810E+01  0.1822180E-02 -0.2807617E-02  0.1716415E+05  0.2364653E+05  0.8075572E-03 -0.5920410E-02
  0.1504762E+01 -0.3407152E-02  0.2441406E-03  0.1670186E+05  0.2370961E+05 -0.1723857E-02  0.2685547E-02
  0.1535714E+01 -0.4650027E-02  0.5249023E-02  0.1626658E+05  0.2374574E+05  0.2980786E-03  0.7934570E-03
  0.1566667E+01  0.2882937E-02  0.6103516E-03  0.1584444E+05  0.2374634E+05  0.1850534E-02 -0.5493164E-03
  0.1597619E+01  0.3170917E-02 -0.6103516E-03  0.1545883E+05  0.2371536E+05  0.1159486E-01 -0.2441406E-03
  0.1628572E+01 -0.3522906E-02  0.4516602E-02  0.1509891E+05  0.2365107E+05  0.1223648E-01 -0.1000977E-01
  0.1659524E+01  0.2280280E-02  0.3662109E-03  0.1475147E+05  0.2356650E+05 -0.5884594E-03 -0.7446289E-02
  0.1690476E+01 -0.2058002E-02  0.4028320E-02  0.1443304E+05  0.2345058E+05  0.1805265E-03 -0.6103516E-03
  0.1721429E+01  0.1276420E-02  0.3784180E-02  0.1413721E+05  0.2330298E+05 -0.6009811E-02  0.3540039E-02
  0.1752381E+01 -0.5572775E-03  0.1220703E-03  0.1386473E+05  0.2314215E+05  0.1100623E-01  0.1037598E-02
  0.1783333E+01  0.3525208E-02  0.3906250E-02  0.1360960E+05  0.2296491E+05  0.3799011E-02 -0.3906250E-02
  0.1814286E+01 -0.1715713E-02 -0.5493164E-02  0.1336567E+05  0.2276971E+05  0.9015902E-02 -0.3662109E-02
  0.1845238E+01 -0.2183090E-02  0.1220703E-03  0.1314995E+05  0.2256194E+05 -0.6466576E-02  0.9155273E-03
  0.1876190E+01  0.3057954E-02  0.4272461E-02  0.1295520E+05  0.2233295E+05 -0.5953251E-02  0.2929688E-02
  0.1907143E+01  0.2880311E-03  0.5371094E-02  0.1276560E+05  0.2209487E+05  0.4416477E-02  0.4150391E-02
  0.1938095E+01 -0.8502932E-03 -0.4760742E-02  0.1259816E+05  0.2184254E+05  0.3700350E-02  0.5187988E-02
  0.1969048E+01 -0.3533692E-02  0.1220703E-03  0.1244594E+05  0.2156826E+05  0.5564015E-02  0.1831055E-03
  0.2000000E+01 -0.2258301E-02 -0.4272461E-02  0.1231367E+05  0.2127886E+05  0.5294800E-02 -0.4272461E-03
Zone t="Motion of body    1 in DoF   3",I=    64,F=POINT
  0.5000000E-01 -0.1319729E+06 -0.7235225E-02  0.3297806E-01  0.1070365E-03  0.4523696E+06  0.1281572E-01
  0.8095238E-01 -0.1328677E+06 -0.3108573E-01 -0.1227547E-01 -0.1224549E-03  0.4533186E+06  0.5322303E-01
  0.1119048E+00 -0.1330126E+06 -0.8666196E-01 -0.7516577E-02  0.2610206E-05  0.4534758E+06  0.1464386E+00
  0.1428571E+00 -0.1331068E+06 -0.1946653E+00  0.4245758E-02  0.3890239E-04  0.4535763E+06  0.3290258E+00
  0.1738095E+00 -0.1332089E+06 -0.3865901E+00 -0.2589814E-02 -0.3242795E-04  0.4536164E+06  0.6511586E+00
  0.2047619E+00 -0.1332799E+06 -0.7113116E+00 -0.6408691E-02  0.3813766E-05  0.4536912E+06  0.1198243E+01
  0.2357143E+00 -0.1333146E+06 -0.1246633E+01  0.3139611E-02  0.1110313E-03  0.4538293E+06  0.2093956E+01
  0.2666667E+00 -0.1334993E+06 -0.2115702E+01  0.8854866E-02  0.1191534E-03  0.4538993E+06  0.3542920E+01
  0.2976190E+00 -0.1335946E+06 -0.3529221E+01  0.7049561E-02 -0.6550550E-04  0.4540505E+06  0.5894718E+01
  0.3285715E+00 -0.1336564E+06 -0.5803189E+01 -0.1026319E-01 -0.7919706E-03  0.4541749E+06  0.9647593E+01
  0.3595238E+00 -0.1338174E+06 -0.9463005E+01  0.1693422E-01  0.4687011E-03  0.4543476E+06  0.1565963E+02
  0.3904762E+00 -0.1339601E+06 -0.1530861E+02 -0.4005432E-02 -0.3635883E-03  0.4545032E+06  0.2521445E+02
  0.4214286E+00 -0.1341334E+06 -0.2441364E+02 -0.2588821E-02 -0.3734529E-03  0.4547160E+06  0.4002821E+02
  0.4523810E+00 -0.1343233E+06 -0.3860987E+02  0.1706736E-01  0.1693696E-02  0.4549953E+06  0.6296669E+02
  0.4833333E+00 -0.1346875E+06 -0.5953034E+02  0.2953365E-01  0.2984345E-02  0.4553044E+06  0.9646828E+02
  0.5142857E+00 -0.1349475E+06 -0.9018446E+02 -0.7625157E-02 -0.2425313E-03  0.4556319E+06  0.1453073E+03
  0.5452381E+00 -0.1351984E+06 -0.1332933E+03  0.3862006E-02 -0.3026724E-03  0.4559276E+06  0.2134067E+03
  0.5761905E+00 -0.1354808E+06 -0.1923083E+03  0.1324110E-03  0.4476309E-03  0.4562863E+06  0.3057112E+03
  0.6071429E+00 -0.1358937E+06 -0.2723900E+03  0.1905015E-01  0.2636671E-02  0.4567468E+06  0.4299095E+03
  0.6380953E+00 -0.1363695E+06 -0.3771613E+03  0.3407606E-01  0.6688118E-02  0.4572172E+06  0.5905737E+03
  0.6690477E+00 -0.1367182E+06 -0.5123463E+03  0.1934011E-01  0.4396439E-02  0.4576701E+06  0.7963738E+03
  0.7000000E+00 -0.1371223E+06 -0.6856705E+03  0.1759120E-01  0.4821777E-02  0.4582094E+06  0.1057134E+04
  0.7309524E+00 -0.1376657E+06 -0.9039073E+03  0.4801299E-02  0.7371902E-03  0.4587104E+06  0.1380584E+04
  0.7619048E+00 -0.1381780E+06 -0.1174620E+04  0.1273727E-01  0.4870415E-02  0.4592390E+06  0.1777695E+04
  0.7928572E+00 -0.1387764E+06 -0.1507429E+04 -0.1116228E-01 -0.3764153E-02  0.4599001E+06  0.2260251E+04
  0.8238096E+00 -0.1392319E+06 -0.1910906E+04  0.6279035E-02  0.5037308E-02  0.4603916E+06  0.2837172E+04
  0.8547620E+00 -0.1398232E+06 -0.2395262E+04  0.8747239E-02  0.7589340E-02  0.4609606E+06  0.3521429E+04
  0.8857143E+00 -0.1402839E+06 -0.2971256E+04  0.2270606E-01  0.8829117E-02  0.4614225E+06  0.4321584E+04
  0.9166667E+00 -0.1409133E+06 -0.3652071E+04  0.3961736E-02  0.6389618E-02  0.4620178E+06  0.5252981E+04
  0.9476191E+00 -0.1414216E+06 -0.4446857E+04  0.3188243E-02  0.4341125E-02  0.4624301E+06  0.6321095E+04
  0.9785714E+00 -0.1420457E+06 -0.5367498E+04  0.5145665E-02  0.1716614E-03  0.4628406E+06  0.7539714E+04
  0.1009524E+01 -0.1425274E+06 -0.6420554E+04 -0.5562261E-02  0.3242493E-02  0.4631902E+06  0.8911501E+04
  0.1040476E+01 -0.1429652E+06 -0.7615931E+04  0.2874379E-01  0.2108002E-01  0.4635058E+06  0.1044363E+05
  0.1071429E+01 -0.1433404E+06 -0.8962367E+04  0.1125081E-01  0.7278442E-02  0.4636826E+06  0.1213539E+05
  0.1102381E+01 -0.1436279E+06 -0.1047063E+05  0.1403545E-01  0.1811218E-01  0.4637375E+06  0.1398489E+05
  0.1133333E+01 -0.1439575E+06 -0.1214436E+05  0.9262983E-02 -0.6713867E-03  0.4636848E+06  0.1599502E+05
  0.1164286E+01 -0.1441416E+06 -0.1398208E+05 -0.6972237E-02 -0.2716064E-02  0.4634922E+06  0.1815510E+05
  0.1195238E+01 -0.1442153E+06 -0.1598422E+05  0.1161735E-01  0.7095337E-02  0.4631827E+06  0.2045616E+05
  0.1226190E+01 -0.1442551E+06 -0.1814626E+05  0.1177208E-01  0.5569458E-02  0.4627949E+06  0.2288617E+05
  0.1257143E+01 -0.1440180E+06 -0.2045103E+05 -0.2233332E-02  0.4638672E-02  0.4621319E+06  0.2540437E+05
  0.1288095E+01 -0.1437678E+06 -0.2289507E+05  0.1087464E-01  0.7354736E-02  0.4613072E+06  0.2799529E+05
  0.1319048E+01 -0.1433760E+06 -0.2544647E+05  0.5737745E-02  0.7385254E-02  0.4604300E+06  0.3063890E+05
  0.1350000E+01 -0.1427125E+06 -0.2808327E+05  0.7233796E-02 -0.1129150E-02  0.4592460E+06  0.3326238E+05
  0.1380952E+01 -0.1419301E+06 -0.3079938E+05 -0.3005455E-02 -0.6958008E-02  0.4579965E+06  0.3586633E+05
  0.1411905E+01 -0.1413570E+06 -0.3356237E+05 -0.8645789E-04 -0.1586914E-02  0.4567893E+06  0.3848757E+05
  0.1442857E+01 -0.1402445E+06 -0.3632710E+05  0.1818969E-02  0.5157471E-02  0.4551382E+06  0.4090541E+05
  0.1473810E+01 -0.1390772E+06 -0.3906892E+05  0.8406878E-02  0.7385254E-02  0.4534307E+06  0.4319870E+05
  0.1504762E+01 -0.1378489E+06 -0.4174078E+05  0.6165323E-02  0.8331299E-02  0.4516247E+06  0.4530239E+05
  0.1535714E+01 -0.1364695E+06 -0.4432303E+05  0.6895553E-02  0.6958008E-02  0.4498855E+06  0.4724017E+05
  0.1566667E+01 -0.1348415E+06 -0.4673797E+05  0.1599251E-01  0.1171875E-01  0.4478166E+06  0.4882071E+05
  0.1597619E+01 -0.1332264E+06 -0.4902607E+05  0.4374338E-02  0.1147461E-01  0.4459562E+06  0.5021812E+05
  0.1628572E+01 -0.1315990E+06 -0.5111849E+05  0.3860206E-02  0.3662109E-02  0.4440761E+06  0.5130394E+05
  0.1659524E+01 -0.1297616E+06 -0.5295660E+05 -0.4339889E-02 -0.5249023E-02  0.4420675E+06  0.5202606E+05
  0.1690476E+01 -0.1279667E+06 -0.5457424E+05  0.8051482E-02  0.6347656E-02  0.4402036E+06  0.5249015E+05
  0.1721429E+01 -0.1261926E+06 -0.5589968E+05  0.4751118E-02  0.3906250E-02  0.4383049E+06  0.5256998E+05
  0.1752381E+01 -0.1244634E+06 -0.5699819E+05  0.1734526E-01  0.2313232E-01  0.4366422E+06  0.5243926E+05
  0.1783333E+01 -0.1227227E+06 -0.5781008E+05  0.1081520E-01  0.9948730E-02  0.4350452E+06  0.5200320E+05
  0.1814286E+01 -0.1209363E+06 -0.5832091E+05  0.1009243E-02  0.5615234E-02  0.4334202E+06  0.5119108E+05
  0.1845238E+01 -0.1193232E+06 -0.5864095E+05  0.4018870E-02  0.3051758E-02  0.4321171E+06  0.5031660E+05
  0.1876190E+01 -0.1178417E+06 -0.5870712E+05  0.1195530E-02 -0.1953125E-02  0.4309148E+06  0.4914781E+05
  0.1907143E+01 -0.1162880E+06 -0.5845910E+05  0.6384689E-02 -0.6103516E-02  0.4296998E+06  0.4768788E+05
  0.1938095E+01 -0.1148846E+06 -0.5805130E+05  0.4101878E-02  0.1098633E-02  0.4287414E+06  0.4618935E+05
  0.1969048E+01 -0.1135717E+06 -0.5737759E+05  0.5773247E-03  0.5493164E-02  0.4277895E+06  0.4439215E+05
  0.2000000E+01 -0.1124253E+06 -0.5653593E+05  0.1806259E-02 -0.5981445E-02  0.4269978E+06  0.4243744E+05
