VARIABLES="w (rad/s)"
"A   1   1" "B   1   1"
"A   1   2" "B   1   2"
"A   1   3" "B   1   3"
Zone t="Motion of body    1 in DoF   1",I=    64,F=POINT
  0.5000000E-01  0.7589609E+05  0.4809316E-02  0.1152039E-01  0.3766137E-04 -0.1532496E+06 -0.9030292E-02
  0.8095238E-01  0.7640738E+05  0.2090938E-01  0.1465517E-01  0.4657557E-04 -0.1541953E+06 -0.3860098E-01
  0.1119048E+00  0.7657693E+05  0.5867172E-01 -0.2658925E-02 -0.1623316E-04 -0.1543337E+06 -0.1077129E+00
  0.1428571E+00  0.7663104E+05  0.1318540E+00 -0.1922607E-02  0.9632087E-05 -0.1544133E+06 -0.2419412E+00
  0.1738095E+00  0.7678372E+05  0.2621610E+00  0.1044704E-01  0.8926354E-04 -0.1545498E+06 -0.4800251E+00
  0.2047619E+00  0.7687206E+05  0.4831103E+00  0.2608188E-03  0.2402347E-05 -0.1546702E+06 -0.8834457E+00
  0.2357143E+00  0.7694071E+05  0.8485613E+00  0.6991299E-02  0.1298180E-03 -0.1547176E+06 -0.1547174E+01
  0.2666667E+00  0.7710323E+05  0.1444456E+01  0.5035400E-02  0.9241793E-04 -0.1549310E+06 -0.2625507E+01
  0.2976190E+00  0.7717250E+05  0.2416341E+01 -0.2204590E-02  0.6952137E-04 -0.1549962E+06 -0.4378838E+01
  0.3285715E+00  0.7736862E+05  0.3987437E+01  0.8498481E-02  0.1789257E-03 -0.1551636E+06 -0.7194712E+01
  0.3595238E+00  0.7756567E+05  0.6527887E+01 -0.2122083E-03 -0.1153946E-03 -0.1553389E+06 -0.1172551E+02
  0.3904762E+00  0.7778391E+05  0.1060675E+02 -0.1211399E-02 -0.1178756E-03 -0.1555439E+06 -0.1896012E+02
  0.4214286E+00  0.7787889E+05  0.1698983E+02 -0.3584522E-02 -0.2206862E-03 -0.1557358E+06 -0.3023313E+02
  0.4523810E+00  0.7819728E+05  0.2700480E+02  0.8769787E-03  0.2185106E-03 -0.1559706E+06 -0.4777055E+02
  0.4833333E+00  0.7849134E+05  0.4184119E+02  0.5998282E-02  0.2288818E-03 -0.1562937E+06 -0.7357290E+02
  0.5142857E+00  0.7874241E+05  0.6374415E+02  0.8604262E-02  0.1646876E-03 -0.1566177E+06 -0.1114318E+03
  0.5452381E+00  0.7904541E+05  0.9478915E+02 -0.6156822E-03 -0.4035830E-03 -0.1570444E+06 -0.1646713E+03
  0.5761905E+00  0.7940355E+05  0.1376386E+03  0.2277469E-02  0.1137257E-03 -0.1574050E+06 -0.2374052E+03
  0.6071429E+00  0.7986446E+05  0.1962663E+03  0.2261891E-02  0.4382133E-03 -0.1578360E+06 -0.3359256E+03
  0.6380953E+00  0.8030023E+05  0.2735953E+03 -0.9947819E-02 -0.2645493E-02 -0.1583813E+06 -0.4647779E+03
  0.6690477E+00  0.8063345E+05  0.3745124E+03 -0.7070086E-02 -0.1620770E-02 -0.1589061E+06 -0.6315672E+03
  0.7000000E+00  0.8108712E+05  0.5051262E+03  0.3880092E-02  0.6589890E-03 -0.1593197E+06 -0.8444437E+03
  0.7309524E+00  0.8171127E+05  0.6712124E+03 -0.1586516E-02  0.4911423E-03 -0.1600107E+06 -0.1112072E+04
  0.7619048E+00  0.8225664E+05  0.8796262E+03  0.1201629E-03  0.4730225E-03 -0.1605905E+06 -0.1443989E+04
  0.7928572E+00  0.8283829E+05  0.1138799E+04  0.3926045E-02  0.7543564E-03 -0.1612048E+06 -0.1851559E+04
  0.8238096E+00  0.8346500E+05  0.1457576E+04 -0.2444934E-02  0.2717972E-03 -0.1619126E+06 -0.2346673E+04
  0.8547620E+00  0.8398482E+05  0.1844093E+04  0.3141865E-02  0.3677368E-02 -0.1625151E+06 -0.2939685E+04
  0.8857143E+00  0.8461614E+05  0.2310777E+04  0.3238801E-02  0.1752853E-02 -0.1631605E+06 -0.3644638E+04
  0.9166667E+00  0.8532760E+05  0.2869192E+04 -0.5659624E-02 -0.3253937E-02 -0.1637828E+06 -0.4474058E+04
  0.9476191E+00  0.8613153E+05  0.3532122E+04 -0.3156039E-02 -0.4653931E-03 -0.1645134E+06 -0.5443509E+04
  0.9785714E+00  0.8683989E+05  0.4309673E+04 -0.1340991E-01 -0.9929657E-02 -0.1652025E+06 -0.6565125E+04
  0.1009524E+01  0.8746889E+05  0.5214080E+04 -0.1070131E-01 -0.5878448E-02 -0.1657161E+06 -0.7846778E+04
  0.1040476E+01  0.8809009E+05  0.6259545E+04 -0.5279471E-03  0.7324219E-03 -0.1662880E+06 -0.9305884E+04
  0.1071429E+01  0.8869195E+05  0.7457051E+04 -0.3816732E-02  0.2716064E-02 -0.1666768E+06 -0.1094186E+05
  0.1102381E+01  0.8936480E+05  0.8821899E+04  0.7751333E-02  0.5142212E-02 -0.1671317E+06 -0.1277260E+05
  0.1133333E+01  0.8995206E+05  0.1036074E+05  0.2746582E-02  0.2365112E-02 -0.1674152E+06 -0.1479606E+05
  0.1164286E+01  0.9047563E+05  0.1208432E+05  0.2621141E-02  0.3417969E-02 -0.1675633E+06 -0.1701563E+05
  0.1195238E+01  0.9097983E+05  0.1400358E+05  0.3574569E-03 -0.4287720E-02 -0.1677375E+06 -0.1944180E+05
  0.1226190E+01  0.9135040E+05  0.1611508E+05 -0.1124943E-01 -0.9628296E-02 -0.1676089E+06 -0.2204038E+05
  0.1257143E+01  0.9162526E+05  0.1842648E+05  0.1650724E-02 -0.8438110E-02 -0.1673785E+06 -0.2482058E+05
  0.1288095E+01  0.9183037E+05  0.2093071E+05  0.3601187E-02  0.1052856E-02 -0.1670985E+06 -0.2776208E+05
  0.1319048E+01  0.9176771E+05  0.2361072E+05 -0.1943430E-02 -0.5462646E-02 -0.1664535E+06 -0.3081804E+05
  0.1350000E+01  0.9159194E+05  0.2646439E+05  0.5244502E-02  0.4089355E-02 -0.1656666E+06 -0.3398292E+05
  0.1380952E+01  0.9133812E+05  0.2948120E+05 -0.2121498E-02 -0.7293701E-02 -0.1647787E+06 -0.3723243E+05
  0.1411905E+01  0.9039304E+05  0.3230275E+05 -0.2074989E-02  0.8300781E-02 -0.1633094E+06 -0.4016583E+05
  0.1442857E+01  0.8988452E+05  0.3553374E+05 -0.3976350E-02  0.2441406E-03 -0.1620360E+06 -0.4340975E+05
  0.1473810E+01  0.8922688E+05  0.3885390E+05 -0.4141319E-03 -0.8514404E-02 -0.1607060E+06 -0.4664368E+05
  0.1504762E+01  0.8834887E+05  0.4221619E+05  0.1622453E-02  0.5096436E-02 -0.1591563E+06 -0.4978398E+05
  0.1535714E+01  0.8725449E+05  0.4557347E+05  0.1510265E-02  0.2258301E-02 -0.1573145E+06 -0.5273640E+05
  0.1566667E+01  0.8608100E+05  0.4892788E+05 -0.1246675E-02 -0.1342773E-02 -0.1555006E+06 -0.5557546E+05
  0.1597619E+01  0.8478470E+05  0.5222242E+05 -0.3361936E-02 -0.2075195E-02 -0.1535726E+06 -0.5819180E+05
  0.1628572E+01  0.8333741E+05  0.5540488E+05  0.9744209E-03 -0.9582520E-02 -0.1514511E+06 -0.6050999E+05
  0.1659524E+01  0.8183380E+05  0.5847427E+05  0.1397591E-02 -0.7751465E-02 -0.1493532E+06 -0.6258206E+05
  0.1690476E+01  0.8027353E+05  0.6140539E+05  0.1877476E-02 -0.8789062E-02 -0.1473153E+06 -0.6439551E+05
  0.1721429E+01  0.7858442E+05  0.6415551E+05 -0.2198279E-02  0.3051758E-03 -0.1452535E+06 -0.6593213E+05
  0.1752381E+01  0.7680256E+05  0.6666867E+05 -0.8359163E-03  0.2319336E-02 -0.1430880E+06 -0.6704491E+05
  0.1783333E+01  0.7498393E+05  0.6896591E+05  0.1095210E-02 -0.2563477E-02 -0.1409732E+06 -0.6785588E+05
  0.1814286E+01  0.7319958E+05  0.7107424E+05 -0.2960446E-02 -0.2441406E-03 -0.1390478E+06 -0.6846607E+05
  0.1845238E+01  0.7140796E+05  0.7293430E+05 -0.5953881E-03  0.1153564E-01 -0.1371647E+06 -0.6872518E+05
  0.1876190E+01  0.6959624E+05  0.7451724E+05 -0.1171132E-02  0.3967285E-02 -0.1352678E+06 -0.6858785E+05
  0.1907143E+01  0.6785821E+05  0.7588367E+05 -0.3072332E-02 -0.3417969E-02 -0.1335420E+06 -0.6823361E+05
  0.1938095E+01  0.6619339E+05  0.7702871E+05 -0.2519387E-03 -0.1000977E-01 -0.1319702E+06 -0.6763238E+05
  0.1969048E+01  0.6456765E+05  0.7797054E+05  0.6199460E-03 -0.3173828E-02 -0.1305493E+06 -0.6689203E+05
  0.2000000E+01  0.6297940E+05  0.7868988E+05 -0.2807617E-02  0.8666992E-02 -0.1292183E+06 -0.6594866E+05
Zone t="Motion of body    1 in DoF   2",I=    64,F=POINT
  0.5000000E-01 -0.1602173E-02 -0.4768372E-06  0.3568412E+05  0.1064098E+03 -0.1544952E-01  0.1118183E-03
  0.8095238E-01 -0.2073400E-02 -0.5912781E-04  0.3523076E+05  0.1764853E+03 -0.1211054E-01  0.3266335E-04
  0.1119048E+00  0.2045327E-02 -0.1335144E-04  0.3498959E+05  0.2528312E+03  0.9544860E-02 -0.3576279E-05
  0.1428571E+00  0.4379272E-02  0.5626678E-04  0.3488068E+05  0.3383846E+03 -0.1174927E-01  0.6818771E-04
  0.1738095E+00  0.3687192E-02  0.1468658E-03  0.3484572E+05  0.4368106E+03  0.2370338E-02  0.1926422E-03
  0.2047619E+00 -0.3204346E-02  0.1144409E-03  0.3491578E+05  0.5527888E+03 -0.5812534E-02 -0.4768372E-05
  0.2357143E+00  0.5049272E-02  0.1087189E-03  0.3503277E+05  0.6928183E+03 -0.3301447E-02  0.4539490E-03
  0.2666667E+00  0.1029968E-02  0.1373291E-03  0.3519015E+05  0.8624056E+03  0.6294250E-02 -0.1525879E-04
  0.2976190E+00  0.9638672E-02 -0.1945496E-03  0.3540157E+05  0.1073956E+04 -0.8356933E-02  0.1602173E-03
  0.3285715E+00 -0.1764712E-02 -0.1907349E-03  0.3565311E+05  0.1334083E+04  0.1871523E-01 -0.3051758E-03
  0.3595238E+00  0.3819750E-02  0.2326965E-03  0.3585637E+05  0.1657914E+04  0.2992137E-01  0.4501343E-03
  0.3904762E+00  0.3360655E-02  0.1754761E-03  0.3608688E+05  0.2056596E+04 -0.1367708E-02  0.1640320E-03
  0.4214286E+00  0.5648337E-02  0.2212524E-03  0.3621928E+05  0.2527045E+04  0.2407785E-01  0.1068115E-03
  0.4523810E+00 -0.2023797E-02 -0.1228333E-02  0.3629511E+05  0.3093557E+04  0.1673006E-01 -0.2326965E-03
  0.4833333E+00  0.2020474E-02  0.4501343E-03  0.3622770E+05  0.3711909E+04 -0.2923374E-01  0.1441956E-02
  0.5142857E+00 -0.6527371E-02  0.6408691E-03  0.3607807E+05  0.4410130E+04 -0.3323025E-02  0.1754761E-02
  0.5452381E+00 -0.6156822E-02 -0.7629395E-03  0.3585667E+05  0.5151891E+04  0.1449652E-01  0.1708984E-02
  0.5761905E+00 -0.8686160E-02  0.3662109E-03  0.3550982E+05  0.5925800E+04  0.1165217E-01  0.2212524E-03
  0.6071429E+00 -0.6031709E-02  0.5798340E-03  0.3507110E+05  0.6747671E+04  0.1367187E-01  0.2685547E-02
  0.6380953E+00 -0.6121735E-02 -0.1525879E-03  0.3461860E+05  0.7574861E+04  0.1253043E-01 -0.1106262E-02
  0.6690477E+00 -0.1915765E-02  0.7629395E-03  0.3411079E+05  0.8422775E+04 -0.1195073E-01  0.6469727E-02
  0.7000000E+00  0.1918248E-02 -0.1220703E-03  0.3353134E+05  0.9295216E+04 -0.8719307E-03 -0.4730225E-03
  0.7309524E+00 -0.2421525E-02 -0.1800537E-02  0.3292589E+05  0.1016814E+05 -0.2630277E-02  0.4714966E-02
  0.7619048E+00 -0.1201630E-02  0.2014160E-02  0.3226851E+05  0.1104528E+05 -0.1241684E-02  0.2182007E-02
  0.7928572E+00  0.5157745E-02  0.1037598E-02  0.3158289E+05  0.1192201E+05  0.8352468E-02 -0.1373291E-03
  0.8238096E+00 -0.6593913E-02  0.1464844E-02  0.3088725E+05  0.1279035E+05  0.1118743E-01  0.2029419E-02
  0.8547620E+00  0.3641707E-02  0.3845215E-02  0.3016907E+05  0.1364639E+05 -0.4605689E-02  0.4013062E-02
  0.8857143E+00  0.2480784E-02  0.4028320E-02  0.2943185E+05  0.1448487E+05 -0.3135435E-02 -0.6286621E-02
  0.9166667E+00  0.6059126E-02 -0.6103516E-04  0.2867407E+05  0.1530115E+05  0.5992542E-02  0.7324219E-03
  0.9476191E+00 -0.1288179E-02  0.8544922E-03  0.2790412E+05  0.1608882E+05  0.1262416E-01 -0.7110596E-02
  0.9785714E+00 -0.2744355E-02 -0.1770020E-02  0.2712936E+05  0.1684482E+05 -0.1471972E-01  0.1098633E-01
  0.1009524E+01 -0.4836748E-03  0.4089355E-02  0.2635662E+05  0.1756583E+05  0.1012694E-01  0.1037598E-02
  0.1040476E+01 -0.3812951E-02 -0.2441406E-03  0.2559716E+05  0.1824652E+05  0.9972334E-03  0.5706787E-02
  0.1071429E+01 -0.2164714E-02  0.2990723E-02  0.2484515E+05  0.1888768E+05 -0.1033936E-01 -0.8544922E-03
  0.1102381E+01 -0.1550267E-02 -0.4333496E-02  0.2410562E+05  0.1948486E+05  0.8858666E-02 -0.1953125E-02
  0.1133333E+01  0.2369600E-02  0.7080078E-02  0.2336854E+05  0.2004255E+05  0.5735510E-02  0.5920410E-02
  0.1164286E+01  0.1572685E-03  0.1220703E-02  0.2264597E+05  0.2055583E+05 -0.3879289E-02  0.3936768E-02
  0.1195238E+01 -0.8170443E-03 -0.7934570E-03  0.2194451E+05  0.2102013E+05  0.8451303E-02 -0.4699707E-02
  0.1226190E+01 -0.4131428E-02  0.3295898E-02  0.2126201E+05  0.2143889E+05  0.6072702E-02 -0.1007080E-01
  0.1257143E+01  0.3738403E-02 -0.2929688E-02  0.2060861E+05  0.2181838E+05 -0.3349998E-02  0.8453369E-02
  0.1288095E+01  0.1516289E-02  0.3540039E-02  0.1998193E+05  0.2212549E+05 -0.8529127E-03  0.1126099E-01
  0.1319048E+01  0.1573253E-02  0.4882812E-03  0.1937229E+05  0.2240416E+05 -0.1781477E-02 -0.1159668E-02
  0.1350000E+01  0.9042245E-04 -0.1831055E-02  0.1879603E+05  0.2263899E+05 -0.3571687E-02  0.6774902E-02
  0.1380952E+01 -0.2872862E-02 -0.3540039E-02  0.1824847E+05  0.2282613E+05 -0.1259639E-02  0.8483887E-02
  0.1411905E+01 -0.9078078E-03  0.6958008E-02  0.1766288E+05  0.2297037E+05  0.1130437E-01  0.7568359E-02
  0.1442857E+01 -0.1395953E-02 -0.2929688E-02  0.1716189E+05  0.2308267E+05  0.1072345E-01  0.6713867E-02
  0.1473810E+01  0.9110902E-03  0.9765625E-03  0.1668861E+05  0.2315421E+05  0.7702853E-02 -0.7324219E-03
  0.1504762E+01 -0.5070167E-02  0.1953125E-02  0.1623980E+05  0.2319640E+05  0.1417619E-01  0.3784180E-02
  0.1535714E+01  0.8346202E-03 -0.7202148E-02  0.1580720E+05  0.2320505E+05  0.9459029E-02  0.1275635E-01
  0.1566667E+01 -0.3428358E-02  0.7446289E-02  0.1541354E+05  0.2317787E+05  0.6817757E-03 -0.3295898E-02
  0.1597619E+01 -0.1871987E-02  0.4760742E-02  0.1504223E+05  0.2311698E+05 -0.5062006E-02 -0.6713867E-03
  0.1628572E+01  0.2511008E-02 -0.6958008E-02  0.1468974E+05  0.2303326E+05 -0.9744209E-03  0.6713867E-03
  0.1659524E+01  0.8459105E-03  0.3295898E-02  0.1436501E+05  0.2291891E+05 -0.2390617E-03  0.4333496E-02
  0.1690476E+01  0.0000000E+00 -0.2685547E-02  0.1406513E+05  0.2277118E+05 -0.7221060E-03 -0.1220703E-03
  0.1721429E+01  0.4609294E-03  0.8056641E-02  0.1378748E+05  0.2261618E+05  0.2198279E-02  0.7873535E-02
  0.1752381E+01 -0.2507749E-02  0.7324219E-03  0.1352158E+05  0.2243691E+05 -0.1288704E-02 -0.7202148E-02
  0.1783333E+01 -0.8316753E-02  0.1342773E-02  0.1327743E+05  0.2224367E+05  0.1204731E-01  0.7324219E-03
  0.1814286E+01 -0.2052127E-02  0.9033203E-02  0.1306087E+05  0.2203179E+05  0.1291831E-01 -0.1342773E-02
  0.1845238E+01  0.5920804E-02  0.4516602E-02  0.1285910E+05  0.2180367E+05  0.1091545E-02 -0.9643555E-02
  0.1876190E+01 -0.9759429E-04  0.6713867E-02  0.1266877E+05  0.2156304E+05  0.7449697E-02 -0.4028320E-02
  0.1907143E+01 -0.2144231E-02  0.2197266E-02  0.1250047E+05  0.2130561E+05 -0.1008109E-02 -0.4882812E-03
  0.1938095E+01 -0.3149234E-03  0.3662109E-03  0.1235092E+05  0.2102823E+05  0.7873086E-03  0.2014160E-02
  0.1969048E+01 -0.1084905E-02  0.2929688E-02  0.1221726E+05  0.2075104E+05  0.4122641E-02  0.3295898E-02
  0.2000000E+01  0.1647949E-02  0.5493164E-02  0.1209527E+05  0.2047344E+05  0.6362915E-02  0.1159668E-02
Zone t="Motion of body    1 in DoF   3",I=    64,F=POINT
  0.5000000E-01 -0.1529512E+06 -0.8957548E-02 -0.2487183E-01 -0.3478216E-04  0.5499131E+06  0.1724060E-01
  0.8095238E-01 -0.1539698E+06 -0.3838078E-01 -0.9400984E-02 -0.5768705E-04  0.5510250E+06  0.7119416E-01
  0.1119048E+00 -0.1541260E+06 -0.1072009E+00 -0.3037311E-01 -0.2091167E-03  0.5511539E+06  0.1967563E+00
  0.1428571E+00 -0.1541962E+06 -0.2407445E+00 -0.2013397E-01 -0.1607852E-03  0.5513020E+06  0.4416990E+00
  0.1738095E+00 -0.1543500E+06 -0.4777586E+00  0.4323672E-02  0.2437225E-04  0.5513737E+06  0.8736736E+00
  0.2047619E+00 -0.1544705E+06 -0.8790344E+00 -0.2775858E-02  0.1347964E-03  0.5515115E+06  0.1606752E+01
  0.2357143E+00 -0.1545052E+06 -0.1539591E+01  0.4337195E-02  0.2435744E-03  0.5516416E+06  0.2806980E+01
  0.2666667E+00 -0.1547315E+06 -0.2612549E+01  0.1690865E-01  0.1935940E-03  0.5518064E+06  0.4749385E+01
  0.2976190E+00 -0.1547821E+06 -0.4356158E+01  0.7767334E-02  0.2861060E-03  0.5519360E+06  0.7895587E+01
  0.3285715E+00 -0.1549462E+06 -0.7159244E+01 -0.1460531E-01 -0.6368235E-03  0.5521861E+06  0.1291770E+02
  0.3595238E+00 -0.1551228E+06 -0.1166938E+02  0.1423918E-01  0.8706301E-03  0.5523667E+06  0.2095769E+02
  0.3904762E+00 -0.1553326E+06 -0.1887164E+02 -0.1426324E-02 -0.9237230E-04  0.5525762E+06  0.3373383E+02
  0.4214286E+00 -0.1555021E+06 -0.3007431E+02  0.1133288E-01  0.9533167E-03  0.5528906E+06  0.5351318E+02
  0.4523810E+00 -0.1557437E+06 -0.4754956E+02 -0.1254754E-01 -0.1216382E-02  0.5531419E+06  0.8412685E+02
  0.4833333E+00 -0.1560714E+06 -0.7323375E+02 -0.1471158E-01 -0.1554728E-02  0.5535064E+06  0.1287672E+03
  0.5142857E+00 -0.1563859E+06 -0.1108952E+03  0.3708734E-02  0.6836653E-03  0.5539730E+06  0.1938490E+03
  0.5452381E+00 -0.1568055E+06 -0.1638188E+03 -0.1931003E-02 -0.2683401E-03  0.5545232E+06  0.2845987E+03
  0.5761905E+00 -0.1571643E+06 -0.2362168E+03  0.6858888E-02  0.2434969E-02  0.5549768E+06  0.4074261E+03
  0.6071429E+00 -0.1576046E+06 -0.3344014E+03  0.6986729E-02 -0.1054525E-02  0.5554653E+06  0.5724293E+03
  0.6380953E+00 -0.1581495E+06 -0.4625565E+03  0.2419998E-01  0.6252766E-02  0.5560988E+06  0.7857673E+03
  0.6690477E+00 -0.1586517E+06 -0.6280024E+03  0.2691194E-02  0.1399994E-02  0.5568108E+06  0.1059040E+04
  0.7000000E+00 -0.1590586E+06 -0.8399663E+03  0.1022339E-01  0.3962517E-02  0.5573580E+06  0.1404287E+04
  0.7309524E+00 -0.1597598E+06 -0.1106336E+04 -0.7723829E-02 -0.3273964E-02  0.5581188E+06  0.1832920E+04
  0.7619048E+00 -0.1603367E+06 -0.1436518E+04 -0.7890700E-02 -0.5366325E-02  0.5587899E+06  0.2358029E+04
  0.7928572E+00 -0.1609462E+06 -0.1841913E+04 -0.4233970E-03  0.9803772E-03  0.5594909E+06  0.2994571E+04
  0.8238096E+00 -0.1616490E+06 -0.2333741E+04  0.4371246E-02  0.5474091E-03  0.5601936E+06  0.3757263E+04
  0.8547620E+00 -0.1622295E+06 -0.2921875E+04  0.4284362E-02  0.6412506E-02  0.5608828E+06  0.4657869E+04
  0.8857143E+00 -0.1628650E+06 -0.3622241E+04 -0.1619400E-02 -0.2937317E-03  0.5616142E+06  0.5712950E+04
  0.9166667E+00 -0.1634926E+06 -0.4448059E+04  0.4194780E-02  0.4234314E-03  0.5622024E+06  0.6935224E+04
  0.9476191E+00 -0.1642332E+06 -0.5412979E+04  0.2972473E-01  0.1504135E-01  0.5627613E+06  0.8340571E+04
  0.9785714E+00 -0.1649122E+06 -0.6525949E+04  0.1811898E-01  0.1179504E-01  0.5633768E+06  0.9939201E+04
  0.1009524E+01 -0.1654153E+06 -0.7798432E+04  0.4413533E-02  0.2693176E-02  0.5637612E+06  0.1173423E+05
  0.1040476E+01 -0.1659643E+06 -0.9241807E+04  0.1859547E-01  0.5546570E-02  0.5641544E+06  0.1373881E+05
  0.1071429E+01 -0.1663458E+06 -0.1086655E+05  0.1011149E-01  0.3982544E-02  0.5643194E+06  0.1594477E+05
  0.1102381E+01 -0.1667950E+06 -0.1268293E+05 -0.1176542E-01  0.1144409E-02  0.5643828E+06  0.1836042E+05
  0.1133333E+01 -0.1670765E+06 -0.1469218E+05 -0.2288818E-02 -0.4730225E-03  0.5642946E+06  0.2097523E+05
  0.1164286E+01 -0.1672285E+06 -0.1689686E+05  0.8282808E-02  0.5859375E-02  0.5639858E+06  0.2378017E+05
  0.1195238E+01 -0.1673922E+06 -0.1929738E+05  0.1271525E-01  0.9490967E-02  0.5636619E+06  0.2677303E+05
  0.1226190E+01 -0.1672698E+06 -0.2187921E+05 -0.1194630E-02 -0.8010864E-02  0.5629842E+06  0.2990291E+05
  0.1257143E+01 -0.1670298E+06 -0.2462712E+05  0.1874057E-01  0.3070068E-01  0.5620474E+06  0.3315111E+05
  0.1288095E+01 -0.1667421E+06 -0.2753616E+05  0.3553803E-02  0.5737305E-02  0.5611302E+06  0.3650518E+05
  0.1319048E+01 -0.1660916E+06 -0.3055263E+05 -0.9994782E-02 -0.1861572E-02  0.5597512E+06  0.3986798E+05
  0.1350000E+01 -0.1653052E+06 -0.3368173E+05  0.1175492E-01  0.1831055E-01  0.5583188E+06  0.4324498E+05
  0.1380952E+01 -0.1644129E+06 -0.3688715E+05  0.4463985E-02  0.2365112E-01  0.5566913E+06  0.4656871E+05
  0.1411905E+01 -0.1634551E+06 -0.4009440E+05 -0.3631231E-02 -0.1040649E-01  0.5548846E+06  0.4982342E+05
  0.1442857E+01 -0.1621907E+06 -0.4333478E+05  0.8460319E-02  0.1406860E-01  0.5527714E+06  0.5288962E+05
  0.1473810E+01 -0.1608531E+06 -0.4653002E+05  0.9814925E-02  0.1074219E-01  0.5505956E+06  0.5577675E+05
  0.1504762E+01 -0.1593043E+06 -0.4963566E+05  0.1346636E-01  0.1446533E-01  0.5483589E+06  0.5844284E+05
  0.1535714E+01 -0.1574847E+06 -0.5258294E+05  0.1434752E-01  0.2075195E-01  0.5458102E+06  0.6073869E+05
  0.1566667E+01 -0.1556831E+06 -0.5540532E+05  0.2676456E-01  0.3778076E-01  0.5434814E+06  0.6280456E+05
  0.1597619E+01 -0.1537657E+06 -0.5800352E+05  0.1413541E-01  0.1336670E-01  0.5410157E+06  0.6446170E+05
  0.1628572E+01 -0.1516699E+06 -0.6034582E+05  0.8057711E-02  0.2227783E-01  0.5384582E+06  0.6569541E+05
  0.1659524E+01 -0.1495853E+06 -0.6242333E+05  0.2390617E-02 -0.2441406E-03  0.5359847E+06  0.6656898E+05
  0.1690476E+01 -0.1475461E+06 -0.6419455E+05  0.5145005E-02  0.7995605E-02  0.5335432E+06  0.6699288E+05
  0.1721429E+01 -0.1454904E+06 -0.6570204E+05  0.1710757E-01  0.1947021E-01  0.5313947E+06  0.6717928E+05
  0.1752381E+01 -0.1433420E+06 -0.6681827E+05  0.1295670E-01 -0.9033203E-02  0.5290917E+06  0.6677422E+05
  0.1783333E+01 -0.1412481E+06 -0.6765090E+05  0.1475111E-01  0.1831055E-02  0.5270138E+06  0.6609630E+05
  0.1814286E+01 -0.1393340E+06 -0.6823498E+05  0.1200999E-01  0.1330566E-01  0.5252424E+06  0.6519467E+05
  0.1845238E+01 -0.1374658E+06 -0.6847074E+05  0.4266948E-02 -0.2380371E-02  0.5235192E+06  0.6389807E+05
  0.1876190E+01 -0.1355935E+06 -0.6837270E+05  0.1219929E-02  0.6469727E-02  0.5218714E+06  0.6224820E+05
  0.1907143E+01 -0.1338829E+06 -0.6803648E+05  0.1186528E-01  0.3417969E-02  0.5204697E+06  0.6045296E+05
  0.1938095E+01 -0.1323239E+06 -0.6739979E+05  0.1817895E-01  0.2307129E-01  0.5191426E+06  0.5827030E+05
  0.1969048E+01 -0.1309163E+06 -0.6662319E+05  0.6249831E-02 -0.4211426E-02  0.5181406E+06  0.5611537E+05
  0.2000000E+01 -0.1296007E+06 -0.6567148E+05  0.6580353E-02 -0.6713867E-03  0.5173613E+06  0.5401568E+05
