VARIABLES="w (rad/s)"
"abs(F   1   1)" "angle(F   1   1)"
"abs(F   1   2)" "angle(F   1   2)"
"abs(F   1   3)" "angle(F   1   3)"
Zone t="Diffraction force - beta =   0.000 deg",I=    64,F=POINT
  0.5000000E-01  0.4960184E+03 -0.1570795E+01  0.7375603E+02 -0.3113742E+01  0.7068790E+03  0.1570797E+01
  0.8095238E-01  0.8123430E+03 -0.1570794E+01  0.1923536E+03 -0.3112935E+01  0.1156035E+04  0.1570798E+01
  0.1119048E+00  0.1141772E+04 -0.1570791E+01  0.3656946E+03 -0.3111770E+01  0.1623686E+04  0.1570800E+01
  0.1428571E+00  0.1478191E+04 -0.1570787E+01  0.5947464E+03 -0.3110293E+01  0.2102997E+04  0.1570803E+01
  0.1738095E+00  0.1829229E+04 -0.1570782E+01  0.8790485E+03 -0.3108382E+01  0.2602385E+04  0.1570808E+01
  0.2047619E+00  0.2196967E+04 -0.1570774E+01  0.1217795E+04 -0.3105909E+01  0.3128542E+04  0.1570815E+01
  0.2357143E+00  0.2594898E+04 -0.1570762E+01  0.1615503E+04 -0.3102858E+01  0.3693001E+04  0.1570824E+01
  0.2666667E+00  0.3021324E+04 -0.1570744E+01  0.2064993E+04 -0.3099013E+01  0.4300067E+04  0.1570838E+01
  0.2976190E+00  0.3476340E+04 -0.1570718E+01  0.2575436E+04 -0.3094253E+01  0.4956721E+04  0.1570859E+01
  0.3285715E+00  0.3988037E+04 -0.1570679E+01  0.3135223E+04 -0.3088397E+01  0.5683763E+04  0.1570890E+01
  0.3595238E+00  0.4551458E+04 -0.1570621E+01  0.3758070E+04 -0.3081415E+01  0.6483963E+04  0.1570937E+01
  0.3904762E+00  0.5161510E+04 -0.1570534E+01  0.4419468E+04 -0.3072846E+01  0.7364731E+04  0.1571007E+01
  0.4214286E+00  0.5852450E+04 -0.1570406E+01  0.5144396E+04 -0.3063511E+01  0.8352876E+04  0.1571110E+01
  0.4523810E+00  0.6625482E+04 -0.1570219E+01  0.5890541E+04 -0.3052198E+01  0.9453299E+04  0.1571261E+01
  0.4833333E+00  0.7450938E+04 -0.1569959E+01  0.6684645E+04 -0.3040961E+01  0.1064286E+05  0.1571471E+01
  0.5142857E+00  0.8348280E+04 -0.1569595E+01  0.7504259E+04 -0.3028617E+01  0.1193728E+05  0.1571764E+01
  0.5452381E+00  0.9332212E+04 -0.1569113E+01  0.8339973E+04 -0.3016059E+01  0.1333857E+05  0.1572154E+01
  0.5761905E+00  0.1038007E+05 -0.1568484E+01  0.9229301E+04 -0.3004241E+01  0.1483388E+05  0.1572663E+01
  0.6071429E+00  0.1149278E+05 -0.1567670E+01  0.1008043E+05 -0.2991083E+01  0.1643352E+05  0.1573322E+01
  0.6380953E+00  0.1262488E+05 -0.1566645E+01  0.1096784E+05 -0.2978989E+01  0.1807780E+05  0.1574150E+01
  0.6690477E+00  0.1383417E+05 -0.1565376E+01  0.1189309E+05 -0.2967458E+01  0.1981285E+05  0.1575179E+01
  0.7000000E+00  0.1513818E+05 -0.1563825E+01  0.1275788E+05 -0.2954717E+01  0.2166768E+05  0.1576441E+01
  0.7309524E+00  0.1645955E+05 -0.1561938E+01  0.1364567E+05 -0.2942752E+01  0.2354751E+05  0.1577978E+01
  0.7619048E+00  0.1782037E+05 -0.1559667E+01  0.1456318E+05 -0.2931516E+01  0.2550873E+05  0.1579827E+01
  0.7928572E+00  0.1923540E+05 -0.1556966E+01  0.1542175E+05 -0.2919595E+01  0.2753891E+05  0.1582031E+01
  0.8238096E+00  0.2066466E+05 -0.1553767E+01  0.1626076E+05 -0.2907711E+01  0.2961262E+05  0.1584636E+01
  0.8547620E+00  0.2218833E+05 -0.1550074E+01  0.1710404E+05 -0.2896418E+01  0.3177980E+05  0.1587657E+01
  0.8857143E+00  0.2375070E+05 -0.1545791E+01  0.1795807E+05 -0.2885989E+01  0.3398373E+05  0.1591177E+01
  0.9166667E+00  0.2537893E+05 -0.1540884E+01  0.1871402E+05 -0.2874556E+01  0.3627578E+05  0.1595221E+01
  0.9476191E+00  0.2699722E+05 -0.1535240E+01  0.1944424E+05 -0.2863394E+01  0.3858402E+05  0.1599866E+01
  0.9785714E+00  0.2861736E+05 -0.1528805E+01  0.2015738E+05 -0.2852753E+01  0.4089800E+05  0.1605167E+01
  0.1009524E+01  0.3025380E+05 -0.1521537E+01  0.2086648E+05 -0.2842946E+01  0.4326424E+05  0.1611147E+01
  0.1040476E+01  0.3192579E+05 -0.1513437E+01  0.2151153E+05 -0.2833134E+01  0.4562991E+05  0.1617839E+01
  0.1071429E+01  0.3369189E+05 -0.1504615E+01  0.2206187E+05 -0.2822593E+01  0.4809447E+05  0.1625140E+01
  0.1102381E+01  0.3541821E+05 -0.1494792E+01  0.2258369E+05 -0.2812666E+01  0.5048456E+05  0.1633307E+01
  0.1133333E+01  0.3713973E+05 -0.1483965E+01  0.2308016E+05 -0.2803253E+01  0.5289441E+05  0.1642303E+01
  0.1164286E+01  0.3883932E+05 -0.1472076E+01  0.2355979E+05 -0.2794716E+01  0.5528549E+05  0.1652194E+01
  0.1195238E+01  0.4050989E+05 -0.1459106E+01  0.2397839E+05 -0.2786488E+01  0.5759305E+05  0.1663026E+01
  0.1226190E+01  0.4216968E+05 -0.1445075E+01  0.2426719E+05 -0.2777135E+01  0.5991698E+05  0.1674728E+01
  0.1257143E+01  0.4368207E+05 -0.1429703E+01  0.2452624E+05 -0.2768229E+01  0.6207614E+05  0.1687498E+01
  0.1288095E+01  0.4516655E+05 -0.1413326E+01  0.2474129E+05 -0.2760065E+01  0.6412761E+05  0.1701155E+01
  0.1319048E+01  0.4657702E+05 -0.1395961E+01  0.2492956E+05 -0.2752307E+01  0.6614438E+05  0.1715521E+01
  0.1350000E+01  0.4792005E+05 -0.1377922E+01  0.2508870E+05 -0.2745497E+01  0.6794857E+05  0.1730474E+01
  0.1380952E+01  0.4916190E+05 -0.1358782E+01  0.2517385E+05 -0.2738921E+01  0.6960465E+05  0.1746403E+01
  0.1411905E+01  0.5019706E+05 -0.1338284E+01  0.2512409E+05 -0.2731144E+01  0.7108876E+05  0.1763230E+01
  0.1442857E+01  0.5114111E+05 -0.1316947E+01  0.2505070E+05 -0.2724028E+01  0.7239612E+05  0.1780828E+01
  0.1473810E+01  0.5188291E+05 -0.1294545E+01  0.2493404E+05 -0.2717445E+01  0.7338491E+05  0.1799275E+01
  0.1504762E+01  0.5246307E+05 -0.1271338E+01  0.2478538E+05 -0.2711212E+01  0.7420469E+05  0.1818229E+01
  0.1535714E+01  0.5288218E+05 -0.1247892E+01  0.2460829E+05 -0.2705681E+01  0.7480645E+05  0.1837157E+01
  0.1566667E+01  0.5307225E+05 -0.1223942E+01  0.2440912E+05 -0.2701085E+01  0.7502470E+05  0.1856397E+01
  0.1597619E+01  0.5307377E+05 -0.1199427E+01  0.2411741E+05 -0.2696562E+01  0.7498563E+05  0.1876008E+01
  0.1628572E+01  0.5289147E+05 -0.1174594E+01  0.2371697E+05 -0.2691545E+01  0.7471943E+05  0.1895614E+01
  0.1659524E+01  0.5242251E+05 -0.1149121E+01  0.2330292E+05 -0.2687114E+01  0.7411002E+05  0.1915416E+01
  0.1690476E+01  0.5169300E+05 -0.1123451E+01  0.2285995E+05 -0.2683402E+01  0.7311212E+05  0.1935067E+01
  0.1721429E+01  0.5074033E+05 -0.1098179E+01  0.2238946E+05 -0.2680262E+01  0.7181046E+05  0.1953929E+01
  0.1752381E+01  0.4957555E+05 -0.1072971E+01  0.2190261E+05 -0.2677633E+01  0.7031004E+05  0.1972225E+01
  0.1783333E+01  0.4817374E+05 -0.1047727E+01  0.2140737E+05 -0.2675645E+01  0.6848630E+05  0.1990100E+01
  0.1814286E+01  0.4653970E+05 -0.1022679E+01  0.2090668E+05 -0.2674520E+01  0.6633052E+05  0.2007164E+01
  0.1845238E+01  0.4471882E+05 -0.9981314E+00  0.2032420E+05 -0.2674166E+01  0.6392331E+05  0.2023009E+01
  0.1876190E+01  0.4274618E+05 -0.9747297E+00  0.1967043E+05 -0.2674295E+01  0.6133992E+05  0.2036983E+01
  0.1907143E+01  0.4054726E+05 -0.9516197E+00  0.1902703E+05 -0.2675241E+01  0.5852645E+05  0.2049708E+01
  0.1938095E+01  0.3816374E+05 -0.9290832E+00  0.1837915E+05 -0.2677094E+01  0.5547036E+05  0.2060760E+01
  0.1969048E+01  0.3558168E+05 -0.9069207E+00  0.1773091E+05 -0.2679940E+01  0.5213716E+05  0.2069895E+01
  0.2000000E+01  0.3289439E+05 -0.8855914E+00  0.1708228E+05 -0.2683396E+01  0.4874949E+05  0.2076701E+01
