VARIABLES="w (rad/s)"
"A   1   1" "B   1   1"
"A   1   2" "B   1   2"
"A   1   3" "B   1   3"
Zone t="Motion of body    1 in DoF   1",I=    64,F=POINT
  0.5000000E-01  0.1501751E+06  0.7869791E-02 -0.4463196E-02 -0.1105525E-04 -0.4640731E+06 -0.2236011E-01
  0.8095238E-01  0.1511440E+06  0.3403132E-01  0.2014497E-01  0.8952741E-04 -0.4660720E+06 -0.9726393E-01
  0.1119048E+00  0.1515464E+06  0.9512232E-01 -0.4653119E-02 -0.1714955E-04 -0.4666589E+06 -0.2696766E+00
  0.1428571E+00  0.1517681E+06  0.2125752E+00  0.3898620E-02 -0.2102461E-06 -0.4670264E+06 -0.6015116E+00
  0.1738095E+00  0.1519725E+06  0.4236437E+00  0.3610376E-02  0.9209733E-04 -0.4673759E+06 -0.1198196E+01
  0.2047619E+00  0.1521635E+06  0.7814192E+00  0.1732582E-02 -0.7191300E-04 -0.4677308E+06 -0.2208148E+01
  0.2357143E+00  0.1522361E+06  0.1371562E+01  0.8205066E-02  0.1861770E-03 -0.4679766E+06 -0.3868636E+01
  0.2666667E+00  0.1525758E+06  0.2333469E+01  0.1592159E-01  0.2911191E-03 -0.4684326E+06 -0.6564509E+01
  0.2976190E+00  0.1527252E+06  0.3902998E+01  0.2028992E-01  0.3498346E-03 -0.4688765E+06 -0.1096236E+02
  0.3285715E+00  0.1529547E+06  0.6435856E+01  0.3297225E-02  0.2792552E-03 -0.4694113E+06 -0.1803569E+02
  0.3595238E+00  0.1533021E+06  0.1053148E+02 -0.1566097E-01 -0.4436504E-03 -0.4700015E+06 -0.2942941E+02
  0.3904762E+00  0.1536870E+06  0.1710222E+02  0.5881146E-02  0.4506744E-03 -0.4707115E+06 -0.4764323E+02
  0.4214286E+00  0.1539983E+06  0.2739920E+02  0.6390587E-02  0.4246384E-03 -0.4714764E+06 -0.7610954E+02
  0.4523810E+00  0.1544812E+06  0.4353440E+02  0.2799586E-02  0.1771450E-03 -0.4723782E+06 -0.1205118E+03
  0.4833333E+00  0.1549563E+06  0.6742986E+02 -0.3693679E-02  0.3334880E-04 -0.4733328E+06 -0.1859659E+03
  0.5142857E+00  0.1554921E+06  0.1027625E+03  0.4643335E-02  0.6270856E-03 -0.4744147E+06 -0.2823219E+03
  0.5452381E+00  0.1560479E+06  0.1528326E+03 -0.2560678E-02 -0.8404255E-05 -0.4756431E+06 -0.4182444E+03
  0.5761905E+00  0.1566405E+06  0.2218892E+03 -0.1635275E-01 -0.2902776E-02 -0.4769421E+06 -0.6047016E+03
  0.6071429E+00  0.1574750E+06  0.3165836E+03 -0.5114386E-02 -0.1738071E-03 -0.4784468E+06 -0.8584008E+03
  0.6380953E+00  0.1581779E+06  0.4413793E+03 -0.3981519E-02 -0.7333159E-03 -0.4799418E+06 -0.1191200E+04
  0.6690477E+00  0.1589358E+06  0.6048275E+03  0.2828035E-02 -0.6603003E-03 -0.4816358E+06 -0.1624551E+04
  0.7000000E+00  0.1598297E+06  0.8167346E+03 -0.1336234E-01 -0.3587604E-02 -0.4834199E+06 -0.2181952E+04
  0.7309524E+00  0.1607570E+06  0.1085819E+04 -0.1828669E-01 -0.7288575E-02 -0.4853446E+06 -0.2884958E+04
  0.7619048E+00  0.1618350E+06  0.1425485E+04 -0.1626205E-01 -0.7525206E-02 -0.4875052E+06 -0.3764968E+04
  0.7928572E+00  0.1628735E+06  0.1848290E+04 -0.1882192E-01 -0.6369114E-02 -0.4895381E+06 -0.4851739E+04
  0.8238096E+00  0.1640636E+06  0.2370968E+04 -0.1828144E-01 -0.9963989E-02 -0.4919002E+06 -0.6184048E+04
  0.8547620E+00  0.1651027E+06  0.3006561E+04 -0.1667331E-01 -0.9210587E-02 -0.4940482E+06 -0.7793068E+04
  0.8857143E+00  0.1663151E+06  0.3778133E+04 -0.2441160E-01 -0.9038448E-02 -0.4965082E+06 -0.9728383E+04
  0.9166667E+00  0.1675947E+06  0.4704920E+04 -0.2603427E-01 -0.1108170E-01 -0.4988907E+06 -0.1202739E+05
  0.9476191E+00  0.1690459E+06  0.5813250E+04 -0.1503949E-01 -0.8979797E-02 -0.5015012E+06 -0.1474609E+05
  0.9785714E+00  0.1703603E+06  0.7119934E+04  0.4755842E-02  0.1609802E-02 -0.5039013E+06 -0.1792348E+05
  0.1009524E+01  0.1717418E+06  0.8656565E+04  0.2267226E-02  0.4829407E-02 -0.5064374E+06 -0.2162269E+05
  0.1040476E+01  0.1730617E+06  0.1044448E+05  0.6701995E-02  0.7684708E-02 -0.5087592E+06 -0.2587973E+05
  0.1071429E+01  0.1744436E+06  0.1251728E+05  0.5283610E-02  0.2977371E-02 -0.5110587E+06 -0.3075350E+05
  0.1102381E+01  0.1758028E+06  0.1490131E+05  0.5010683E-02  0.3395081E-02 -0.5133166E+06 -0.3629890E+05
  0.1133333E+01  0.1769861E+06  0.1761083E+05 -0.3231273E-03  0.2300262E-02 -0.5150761E+06 -0.4252167E+05
  0.1164286E+01  0.1782591E+06  0.2069917E+05  0.3643387E-02  0.2811432E-02 -0.5168836E+06 -0.4951857E+05
  0.1195238E+01  0.1793908E+06  0.2417331E+05  0.7659791E-03 -0.1190186E-02 -0.5182327E+06 -0.5727533E+05
  0.1226190E+01  0.1804489E+06  0.2806747E+05  0.3957212E-02  0.1182556E-03 -0.5192991E+06 -0.6584198E+05
  0.1257143E+01  0.1812079E+06  0.3234647E+05 -0.6165938E-02  0.4776001E-02 -0.5197136E+06 -0.7512474E+05
  0.1288095E+01  0.1820505E+06  0.3715524E+05  0.3956567E-02  0.4859924E-02 -0.5201887E+06 -0.8539795E+05
  0.1319048E+01  0.1823543E+06  0.4232312E+05  0.6987093E-02  0.6668091E-02 -0.5195498E+06 -0.9627218E+05
  0.1350000E+01  0.1825439E+06  0.4795620E+05  0.2102322E-02  0.3669739E-02 -0.5186162E+06 -0.1079348E+06
  0.1380952E+01  0.1823420E+06  0.5396889E+05 -0.7248451E-02 -0.1084137E-01 -0.5167334E+06 -0.1201330E+06
  0.1411905E+01  0.1813297E+06  0.5997328E+05  0.2010146E-02  0.4226685E-02 -0.5136463E+06 -0.1321945E+06
  0.1442857E+01  0.1806588E+06  0.6669957E+05 -0.1163294E-02 -0.9460449E-03 -0.5105465E+06 -0.1452710E+06
  0.1473810E+01  0.1796143E+06  0.7373470E+05 -0.3934253E-02 -0.6011963E-02 -0.5068490E+06 -0.1587204E+06
  0.1504762E+01  0.1780215E+06  0.8089641E+05  0.2494522E-02 -0.1937866E-02 -0.5019176E+06 -0.1719869E+06
  0.1535714E+01  0.1761475E+06  0.8827166E+05  0.4173101E-03 -0.5493164E-03 -0.4965775E+06 -0.1853742E+06
  0.1566667E+01  0.1739715E+06  0.9575354E+05 -0.5298371E-02 -0.4135132E-02 -0.4906900E+06 -0.1985772E+06
  0.1597619E+01  0.1712366E+06  0.1030432E+06 -0.1413541E-02  0.6286621E-02 -0.4837298E+06 -0.2109226E+06
  0.1628572E+01  0.1682740E+06  0.1102703E+06  0.1686498E-02  0.3936768E-02 -0.4764610E+06 -0.2227577E+06
  0.1659524E+01  0.1650317E+06  0.1172570E+06 -0.4431835E-02 -0.7263184E-02 -0.4687182E+06 -0.2336478E+06
  0.1690476E+01  0.1614504E+06  0.1238780E+06  0.2707898E-03  0.1220703E-03 -0.4606529E+06 -0.2435599E+06
  0.1721429E+01  0.1575742E+06  0.1299731E+06 -0.7800344E-03 -0.2014160E-02 -0.4521733E+06 -0.2520382E+06
  0.1752381E+01  0.1534555E+06  0.1354587E+06 -0.4022847E-02  0.7324219E-03 -0.4434086E+06 -0.2589640E+06
  0.1783333E+01  0.1493514E+06  0.1405554E+06  0.2002181E-02 -0.5249023E-02 -0.4349662E+06 -0.2649801E+06
  0.1814286E+01  0.1452020E+06  0.1450292E+06 -0.1345657E-03  0.5645752E-02 -0.4265766E+06 -0.2694526E+06
  0.1845238E+01  0.1409401E+06  0.1486916E+06 -0.3142326E-02 -0.4882812E-03 -0.4181471E+06 -0.2720708E+06
  0.1876190E+01  0.1368014E+06  0.1518662E+06 -0.1252460E-02 -0.2288818E-02 -0.4102049E+06 -0.2736927E+06
  0.1907143E+01  0.1327477E+06  0.1543901E+06  0.3232349E-02  0.6866455E-02 -0.4025948E+06 -0.2738926E+06
  0.1938095E+01  0.1288068E+06  0.1563218E+06 -0.3905050E-02 -0.2288818E-02 -0.3954796E+06 -0.2730325E+06
  0.1969048E+01  0.1249910E+06  0.1576668E+06  0.1782345E-02  0.8300781E-02 -0.3889132E+06 -0.2713627E+06
  0.2000000E+01  0.1212344E+06  0.1580309E+06 -0.2487183E-02 -0.5798340E-03 -0.3824712E+06 -0.2673895E+06
Zone t="Motion of body    1 in DoF   2",I=    64,F=POINT
  0.5000000E-01  0.2098083E-03 -0.4529953E-05  0.1316570E+05  0.3470304E+02 -0.2172209E-01 -0.9921845E-05
  0.8095238E-01  0.2379698E-02 -0.3576279E-06  0.1302403E+05  0.5755624E+02  0.8046114E-02  0.5161110E-04
  0.1119048E+00  0.7499533E-03 -0.1144409E-04  0.1294704E+05  0.8245148E+02 -0.2870315E-02 -0.1642229E-03
  0.1428571E+00  0.8544921E-03  0.7390976E-05  0.1291113E+05  0.1103619E+03 -0.1941174E-01 -0.1067980E-03
  0.1738095E+00 -0.7242699E-02 -0.3671646E-04  0.1290329E+05  0.1424611E+03  0.3020179E-01 -0.8205883E-05
  0.2047619E+00  0.6222392E-02 -0.6484985E-04  0.1292550E+05  0.1803030E+03 -0.1111391E-02  0.1563663E-03
  0.2357143E+00 -0.3657485E-02  0.1096725E-04  0.1296266E+05  0.2260004E+03  0.4031540E-02 -0.2961960E-03
  0.2666667E+00 -0.1001358E-01 -0.9012222E-04  0.1301939E+05  0.2813448E+03 -0.1328772E-01  0.6167255E-03
  0.2976190E+00  0.3947754E-02 -0.1525879E-04  0.1308655E+05  0.3504400E+03 -0.1087230E-01  0.7142127E-03
  0.3285715E+00 -0.3459764E-02  0.4386902E-04  0.1316574E+05  0.4354279E+03 -0.2096738E-01  0.2007075E-03
  0.3595238E+00 -0.1761329E-02 -0.1087189E-03  0.1323790E+05  0.5413086E+03 -0.3223162E-02  0.9068772E-03
  0.3904762E+00  0.2383720E-02  0.1907349E-03  0.1331523E+05  0.6717188E+03  0.1206858E-01  0.1651376E-02
  0.4214286E+00  0.1303463E-02  0.1163483E-03  0.1335744E+05  0.8258242E+03 -0.1102533E-01  0.2780892E-03
  0.4523810E+00  0.1011899E-03  0.2708435E-03  0.1338568E+05  0.1011682E+04  0.4559538E-02 -0.9053610E-03
  0.4833333E+00 -0.6976950E-02 -0.5187988E-03  0.1336931E+05  0.1214560E+04 -0.6331370E-02  0.2563447E-03
  0.5142857E+00  0.5073548E-02 -0.1220703E-03  0.1332016E+05  0.1444128E+04  0.3557197E-02 -0.2117351E-02
  0.5452381E+00 -0.5429197E-02 -0.1602173E-03  0.1324410E+05  0.1688375E+04  0.1194037E-01 -0.1582287E-02
  0.5761905E+00  0.5058099E-02  0.2441406E-03  0.1313551E+05  0.1943292E+04  0.6072491E-02  0.3645569E-03
  0.6071429E+00 -0.6634880E-02 -0.9613037E-03  0.1299604E+05  0.2214594E+04 -0.1781352E-01  0.1279816E-02
  0.6380953E+00 -0.2415216E-02  0.1144409E-03  0.1284702E+05  0.2488090E+04 -0.7551379E-02 -0.4584134E-02
  0.6690477E+00  0.4082405E-02 -0.8392334E-04  0.1267823E+05  0.2768849E+04  0.1592400E-01  0.9821951E-03
  0.7000000E+00  0.2942766E-02 -0.1136780E-02  0.1248828E+05  0.3057865E+04 -0.6069626E-02 -0.2311587E-02
  0.7309524E+00 -0.3110407E-02 -0.2899170E-03  0.1228860E+05  0.3347630E+04  0.1784912E-01  0.7849857E-02
  0.7619048E+00 -0.4966735E-02  0.1159668E-02  0.1207628E+05  0.3638706E+04 -0.5662288E-02 -0.5638495E-02
  0.7928572E+00 -0.2925288E-02 -0.4577637E-03  0.1184933E+05  0.3930205E+04  0.6886215E-02 -0.3583133E-03
  0.8238096E+00  0.1852223E-02  0.1525879E-02  0.1161605E+05  0.4219399E+04  0.3046979E-02 -0.9228289E-03
  0.8547620E+00  0.7497633E-03  0.7629395E-04  0.1137446E+05  0.4504219E+04 -0.2612178E-02 -0.7081985E-02
  0.8857143E+00  0.6891066E-04 -0.1449585E-02  0.1112831E+05  0.4782742E+04  0.4291048E-01 -0.2181023E-02
  0.9166667E+00  0.3595525E-02 -0.5187988E-03  0.1087643E+05  0.5053732E+04 -0.1235806E-01  0.5564302E-02
  0.9476191E+00  0.5732397E-02 -0.1220703E-02  0.1061856E+05  0.5315038E+04  0.2242595E-01  0.6151825E-02
  0.9785714E+00 -0.5114479E-02 -0.1815796E-02  0.1035796E+05  0.5565426E+04 -0.1109613E-01  0.1489013E-02
  0.1009524E+01  0.1299876E-02  0.8697510E-03  0.1009954E+05  0.5802953E+04 -0.9488281E-02  0.1106319E-01
  0.1040476E+01  0.2874379E-02  0.3585815E-02  0.9841620E+04  0.6027333E+04 -0.6992321E-02 -0.9783685E-02
  0.1071429E+01  0.4956055E-02  0.1129150E-02  0.9587451E+04  0.6236993E+04 -0.5899056E-02 -0.6650567E-02
  0.1102381E+01  0.1522583E-02  0.6103516E-03  0.9337588E+04  0.6431188E+04  0.3496697E-02 -0.4126430E-02
  0.1133333E+01 -0.1050164E-02  0.1266479E-02  0.9088790E+04  0.6610927E+04 -0.2697724E-02 -0.9135664E-02
  0.1164286E+01  0.3014313E-02 -0.1251221E-02  0.8848045E+04  0.6773463E+04 -0.1938232E-01 -0.1049572E-01
  0.1195238E+01  0.1174501E-02  0.2410889E-02  0.8611382E+04  0.6919870E+04 -0.4417296E-02  0.3006697E-02
  0.1226190E+01  0.8710843E-03  0.1525879E-03  0.8385264E+04  0.7048799E+04 -0.5504504E-02 -0.2338111E-02
  0.1257143E+01  0.7525357E-03  0.2471924E-02  0.8164350E+04  0.7164165E+04  0.7222721E-02 -0.9168446E-02
  0.1288095E+01 -0.1279369E-02  0.8880615E-02  0.7956229E+04  0.7256249E+04  0.4264517E-02  0.1777261E-01
  0.1319048E+01 -0.3007689E-03 -0.1281738E-02  0.7754066E+04  0.7336969E+04 -0.3728432E-03 -0.1351857E-01
  0.1350000E+01 -0.1785843E-02 -0.4882812E-03  0.7562605E+04  0.7400210E+04  0.5046394E-02  0.6037116E-02
  0.1380952E+01  0.8618585E-03 -0.1800537E-02  0.7380319E+04  0.7449116E+04  0.1691432E-02 -0.2834678E-02
  0.1411905E+01 -0.6041245E-02  0.3540039E-02  0.7216915E+04  0.7512677E+04  0.1092941E-01 -0.4170716E-02
  0.1442857E+01 -0.7402779E-03 -0.1861572E-02  0.7054745E+04  0.7534615E+04  0.2069473E-02  0.5169213E-02
  0.1473810E+01  0.3064576E-02  0.2319336E-02  0.6903396E+04  0.7544502E+04 -0.1931173E-02 -0.1066017E-01
  0.1504762E+01  0.2129470E-02 -0.3173828E-02  0.6755885E+04  0.7542195E+04 -0.4143574E-02 -0.7100940E-02
  0.1535714E+01  0.3179506E-03 -0.3112793E-02  0.6623293E+04  0.7528583E+04  0.1803551E-02  0.1043081E-02
  0.1566667E+01  0.3506275E-03  0.4760742E-02  0.6499839E+04  0.7502453E+04 -0.9368252E-02 -0.1880169E-02
  0.1597619E+01 -0.2063006E-02 -0.3112793E-02  0.6383590E+04  0.7468756E+04  0.3868883E-02 -0.3528535E-02
  0.1628572E+01 -0.2810829E-04 -0.7354736E-02  0.6280272E+04  0.7427129E+04  0.1144322E-01 -0.1426530E-01
  0.1659524E+01 -0.2050414E-02 -0.1220703E-03  0.6185319E+04  0.7376527E+04  0.5929023E-02 -0.5342305E-02
  0.1690476E+01  0.5776848E-03 -0.1495361E-02  0.6098321E+04  0.7319918E+04  0.7570495E-02  0.4942775E-02
  0.1721429E+01  0.1622117E-02  0.1220703E-03  0.6018244E+04  0.7259070E+04 -0.1301606E-01  0.1505357E-01
  0.1752381E+01 -0.7314268E-03 -0.3784180E-02  0.5944716E+04  0.7195168E+04 -0.9154893E-02  0.1145184E-02
  0.1783333E+01  0.1146548E-02  0.3906250E-02  0.5881900E+04  0.7126107E+04 -0.3149799E-03 -0.1127034E-01
  0.1814286E+01 -0.1682071E-03  0.1922607E-02  0.5823767E+04  0.7054760E+04  0.9817285E-02 -0.5460560E-02
  0.1845238E+01  0.1083276E-02  0.4882812E-03  0.5769403E+04  0.6982141E+04  0.8119673E-02 -0.4032433E-02
  0.1876190E+01 -0.2805836E-02  0.2136230E-02  0.5723821E+04  0.6907942E+04  0.6309001E-02 -0.2049863E-02
  0.1907143E+01 -0.1296140E-02 -0.2075195E-02  0.5683270E+04  0.6832233E+04  0.2729013E-02 -0.1954496E-02
  0.1938095E+01 -0.1728142E-02 -0.7019043E-03  0.5648526E+04  0.6755013E+04  0.1071785E-02  0.1163006E-02
  0.1969048E+01 -0.2692890E-02  0.3387451E-02  0.5619872E+04  0.6686101E+04 -0.3166916E-02 -0.3589392E-02
  0.2000000E+01 -0.4867554E-02 -0.8728027E-02  0.5588444E+04  0.6611448E+04 -0.2689049E-02 -0.2588272E-02
Zone t="Motion of body    1 in DoF   3",I=    64,F=POINT
  0.5000000E-01 -0.4627475E+06 -0.2192757E-01 -0.2704620E-01 -0.6482257E-04  0.1853170E+07  0.6240886E-01
  0.8095238E-01 -0.4652875E+06 -0.9533790E-01 -0.6554772E-01 -0.2120922E-03  0.1857250E+07  0.2717056E+00
  0.1119048E+00 -0.4660557E+06 -0.2657200E+00 -0.1668646E-01 -0.1690824E-03  0.1858218E+07  0.7512731E+00
  0.1428571E+00 -0.4664663E+06 -0.5910939E+00 -0.7372665E-01 -0.5971510E-03  0.1858899E+07  0.1671568E+01
  0.1738095E+00 -0.4668485E+06 -0.1179311E+01 -0.2837821E-01 -0.3914092E-03  0.1859569E+07  0.3336611E+01
  0.2047619E+00 -0.4672220E+06 -0.2168885E+01 -0.1043275E-02 -0.2104924E-03  0.1860291E+07  0.6125292E+01
  0.2357143E+00 -0.4674065E+06 -0.3805591E+01 -0.5371325E-01 -0.1351816E-02  0.1860842E+07  0.1073742E+02
  0.2666667E+00 -0.4679255E+06 -0.6460857E+01 -0.8015155E-01 -0.1732298E-02  0.1861717E+07  0.1817534E+02
  0.2976190E+00 -0.4683078E+06 -0.1077628E+02 -0.6060059E-01 -0.1832258E-02  0.1862698E+07  0.3025952E+02
  0.3285715E+00 -0.4688045E+06 -0.1772534E+02 -0.4613793E-01 -0.1864625E-02  0.1863784E+07  0.4966999E+02
  0.3595238E+00 -0.4694069E+06 -0.2894067E+02 -0.7036828E-01 -0.2791017E-02  0.1865035E+07  0.8086541E+02
  0.3904762E+00 -0.4701508E+06 -0.4686456E+02 -0.3700628E-01 -0.1640275E-02  0.1866517E+07  0.1305397E+03
  0.4214286E+00 -0.4708237E+06 -0.7482914E+02 -0.9667347E-02 -0.8378923E-03  0.1868161E+07  0.2078604E+03
  0.4523810E+00 -0.4717361E+06 -0.1185117E+03 -0.8452726E-01 -0.5743057E-02  0.1869993E+07  0.3280742E+03
  0.4833333E+00 -0.4726738E+06 -0.1828814E+03 -0.6670722E-01 -0.4631400E-02  0.1872066E+07  0.5043814E+03
  0.5142857E+00 -0.4737268E+06 -0.2776363E+03  0.4762014E-02  0.3354818E-02  0.1874364E+07  0.7627328E+03
  0.5452381E+00 -0.4749022E+06 -0.4112014E+03 -0.1785478E-01 -0.2890408E-02  0.1876932E+07  0.1125297E+04
  0.5761905E+00 -0.4761677E+06 -0.5944116E+03  0.1530671E-01  0.1857638E-02  0.1879755E+07  0.1619883E+04
  0.6071429E+00 -0.4777198E+06 -0.8442496E+03  0.3822596E-01  0.9697914E-02  0.1882799E+07  0.2289256E+04
  0.6380953E+00 -0.4791587E+06 -0.1171333E+04 -0.2685433E-01 -0.7502556E-02  0.1885989E+07  0.3161172E+04
  0.6690477E+00 -0.4807837E+06 -0.1596876E+04  0.4223806E-01  0.9471416E-02  0.1889622E+07  0.4289179E+04
  0.7000000E+00 -0.4825532E+06 -0.2144941E+04  0.7300240E-01  0.2060151E-01  0.1893285E+07  0.5730399E+04
  0.7309524E+00 -0.4844421E+06 -0.2835752E+04  0.4803387E-01  0.1434803E-01  0.1897291E+07  0.7534318E+04
  0.7619048E+00 -0.4866024E+06 -0.3701023E+04  0.9058284E-01  0.2477503E-01  0.1901701E+07  0.9775107E+04
  0.7928572E+00 -0.4885931E+06 -0.4769476E+04  0.9907489E-01  0.3164387E-01  0.1905859E+07  0.1251975E+05
  0.8238096E+00 -0.4909354E+06 -0.6079178E+04  0.1082624E+00  0.3635502E-01  0.1910504E+07  0.1585581E+05
  0.8547620E+00 -0.4929733E+06 -0.7657925E+04  0.2012757E+00  0.6560230E-01  0.1914807E+07  0.1984923E+05
  0.8857143E+00 -0.4953762E+06 -0.9557164E+04  0.1192499E+00  0.5553627E-01  0.1919595E+07  0.2460840E+05
  0.9166667E+00 -0.4977408E+06 -0.1181744E+05  0.1500799E+00  0.7080269E-01  0.1924146E+07  0.3020877E+05
  0.9476191E+00 -0.5003731E+06 -0.1449310E+05  0.1161616E+00  0.5476379E-01  0.1928841E+07  0.3676254E+05
  0.9785714E+00 -0.5027167E+06 -0.1761466E+05  0.3683048E-01  0.1908875E-01  0.1933150E+07  0.4434078E+05
  0.1009524E+01 -0.5051962E+06 -0.2124592E+05 -0.6327072E-01 -0.3285980E-01  0.1937584E+07  0.5306654E+05
  0.1040476E+01 -0.5074458E+06 -0.2542401E+05 -0.2202713E-01 -0.1532745E-01  0.1941448E+07  0.6299349E+05
  0.1071429E+01 -0.5097086E+06 -0.3021249E+05 -0.2312826E-01 -0.1560974E-01  0.1945036E+07  0.7422525E+05
  0.1102381E+01 -0.5119206E+06 -0.3565358E+05 -0.2917823E-01 -0.1739502E-01  0.1948332E+07  0.8684431E+05
  0.1133333E+01 -0.5136226E+06 -0.4176012E+05  0.2426147E-01 -0.6088257E-02  0.1950454E+07  0.1008217E+06
  0.1164286E+01 -0.5154236E+06 -0.4863264E+05  0.6526642E-02 -0.5340576E-03  0.1952478E+07  0.1163333E+06
  0.1195238E+01 -0.5167668E+06 -0.5625524E+05 -0.1465573E-01 -0.1407623E-01  0.1953324E+07  0.1332746E+06
  0.1226190E+01 -0.5178504E+06 -0.6468025E+05 -0.2782492E-01 -0.1770020E-01  0.1953427E+07  0.1517097E+06
  0.1257143E+01 -0.5182768E+06 -0.7379741E+05 -0.1553622E-01 -0.2087402E-01  0.1951893E+07  0.1713674E+06
  0.1288095E+01 -0.5187286E+06 -0.8387982E+05  0.3731493E-01  0.1507568E-01  0.1950340E+07  0.1927528E+06
  0.1319048E+01 -0.5180532E+06 -0.9453782E+05  0.5062172E-01  0.2040100E-01  0.1946531E+07  0.2150032E+06
  0.1350000E+01 -0.5171023E+06 -0.1059560E+06 -0.2174660E-01 -0.1652527E-01  0.1941866E+07  0.2384232E+06
  0.1380952E+01 -0.5152344E+06 -0.1179190E+06 -0.2055201E-01 -0.2798462E-01  0.1935288E+07  0.2624200E+06
  0.1411905E+01 -0.5124228E+06 -0.1298554E+06 -0.4582268E-02  0.3784180E-02  0.1927126E+07  0.2861441E+06
  0.1442857E+01 -0.5094444E+06 -0.1427470E+06  0.1298659E-01  0.1107788E-01  0.1917850E+07  0.3107961E+06
  0.1473810E+01 -0.5058286E+06 -0.1559567E+06  0.5010996E-02  0.9918213E-02  0.1907670E+07  0.3355819E+06
  0.1504762E+01 -0.5009919E+06 -0.1690097E+06  0.1443984E-01  0.4791260E-02  0.1894942E+07  0.3591491E+06
  0.1535714E+01 -0.4957490E+06 -0.1821543E+06 -0.1840139E-01 -0.1150513E-01  0.1881747E+07  0.3823252E+06
  0.1566667E+01 -0.4899573E+06 -0.1950858E+06  0.1005132E-01  0.1315308E-01  0.1867502E+07  0.4043294E+06
  0.1597619E+01 -0.4831226E+06 -0.2072289E+06 -0.5348535E-03 -0.1409912E-01  0.1851604E+07  0.4238916E+06
  0.1628572E+01 -0.4760013E+06 -0.2188745E+06  0.2406070E-01 -0.1831055E-02  0.1835436E+07  0.4417985E+06
  0.1659524E+01 -0.4684154E+06 -0.2296042E+06 -0.1243121E-01 -0.7019043E-02  0.1818524E+07  0.4571219E+06
  0.1690476E+01 -0.4604780E+06 -0.2392892E+06 -0.2682624E-01 -0.2484131E-01  0.1801537E+07  0.4699936E+06
  0.1721429E+01 -0.4521438E+06 -0.2475981E+06 -0.1203735E-01 -0.6286621E-02  0.1784239E+07  0.4795707E+06
  0.1752381E+01 -0.4435466E+06 -0.2544408E+06 -0.1248650E-01 -0.1953125E-02  0.1766904E+07  0.4857858E+06
  0.1783333E+01 -0.4352720E+06 -0.2603342E+06 -0.3131617E-02 -0.1623535E-01  0.1750601E+07  0.4899988E+06
  0.1814286E+01 -0.4270542E+06 -0.2647534E+06  0.4894827E-02 -0.5187988E-02  0.1734750E+07  0.4910208E+06
  0.1845238E+01 -0.4187998E+06 -0.2674416E+06  0.3258096E-02  0.8239746E-02  0.1719367E+07  0.4883730E+06
  0.1876190E+01 -0.4110223E+06 -0.2691268E+06  0.1455781E-01 -0.2014160E-02  0.1705308E+07  0.4838895E+06
  0.1907143E+01 -0.4035601E+06 -0.2694022E+06 -0.3344361E-02  0.5859375E-02  0.1692138E+07  0.4767137E+06
  0.1938095E+01 -0.3965768E+06 -0.2685417E+06  0.3046884E-02  0.5737305E-02  0.1680122E+07  0.4674741E+06
  0.1969048E+01 -0.3901352E+06 -0.2668580E+06 -0.1501044E-01  0.3051758E-02  0.1669833E+07  0.4576490E+06
  0.2000000E+01 -0.3838054E+06 -0.2630548E+06  0.8811951E-02  0.1000977E-01  0.1659740E+07  0.4431190E+06
