VARIABLES="w (rad/s)"
"abs(F   1   1)" "angle(F   1   1)"
"abs(F   1   2)" "angle(F   1   2)"
"abs(F   1   3)" "angle(F   1   3)"
Zone t="Diffraction force - beta =   0.000 deg",I=    64,F=POINT
  0.5000000E-01  0.2429886E+04 -0.1570794E+01  0.7690686E+02 -0.3111940E+01  0.1043330E+05  0.1570799E+01
  0.8095238E-01  0.3983759E+04 -0.1570790E+01  0.1997537E+03 -0.3111085E+01  0.1705576E+05  0.1570803E+01
  0.1119048E+00  0.5560377E+04 -0.1570783E+01  0.3793734E+03 -0.3110011E+01  0.2377547E+05  0.1570809E+01
  0.1428571E+00  0.7184100E+04 -0.1570774E+01  0.6150820E+03 -0.3108618E+01  0.3067211E+05  0.1570819E+01
  0.1738095E+00  0.8872174E+04 -0.1570760E+01  0.9064642E+03 -0.3106889E+01  0.3781543E+05  0.1570834E+01
  0.2047619E+00  0.1063529E+05 -0.1570740E+01  0.1252855E+04 -0.3104671E+01  0.4526519E+05  0.1570854E+01
  0.2357143E+00  0.1249701E+05 -0.1570710E+01  0.1650684E+04 -0.3101819E+01  0.5310895E+05  0.1570884E+01
  0.2666667E+00  0.1449586E+05 -0.1570668E+01  0.2103541E+04 -0.3098501E+01  0.6145027E+05  0.1570928E+01
  0.2976190E+00  0.1662960E+05 -0.1570605E+01  0.2599550E+04 -0.3094132E+01  0.7034030E+05  0.1570992E+01
  0.3285715E+00  0.1896962E+05 -0.1570513E+01  0.3148124E+04 -0.3089144E+01  0.8002535E+05  0.1571086E+01
  0.3595238E+00  0.2150135E+05 -0.1570376E+01  0.3726086E+04 -0.3082885E+01  0.9047132E+05  0.1571225E+01
  0.3904762E+00  0.2429658E+05 -0.1570174E+01  0.4347014E+04 -0.3075657E+01  0.1018690E+06  0.1571431E+01
  0.4214286E+00  0.2734962E+05 -0.1569882E+01  0.4980676E+04 -0.3067591E+01  0.1143009E+06  0.1571729E+01
  0.4523810E+00  0.3070600E+05 -0.1569459E+01  0.5635271E+04 -0.3058120E+01  0.1278547E+06  0.1572160E+01
  0.4833333E+00  0.3432782E+05 -0.1568881E+01  0.6291712E+04 -0.3048961E+01  0.1423524E+06  0.1572749E+01
  0.5142857E+00  0.3822674E+05 -0.1568089E+01  0.6934366E+04 -0.3038747E+01  0.1578431E+06  0.1573557E+01
  0.5452381E+00  0.4242521E+05 -0.1567052E+01  0.7586243E+04 -0.3029059E+01  0.1743500E+06  0.1574614E+01
  0.5761905E+00  0.4676654E+05 -0.1565723E+01  0.8185935E+04 -0.3019305E+01  0.1913905E+06  0.1575964E+01
  0.6071429E+00  0.5133774E+05 -0.1564036E+01  0.8773950E+04 -0.3009287E+01  0.2089330E+06  0.1577683E+01
  0.6380953E+00  0.5610139E+05 -0.1561971E+01  0.9349222E+04 -0.3000389E+01  0.2270235E+06  0.1579785E+01
  0.6690477E+00  0.6097168E+05 -0.1559451E+01  0.9862988E+04 -0.2991229E+01  0.2454015E+06  0.1582347E+01
  0.7000000E+00  0.6597436E+05 -0.1556405E+01  0.1035125E+05 -0.2982054E+01  0.2639244E+06  0.1585443E+01
  0.7309524E+00  0.7115757E+05 -0.1552808E+01  0.1082550E+05 -0.2973651E+01  0.2829214E+06  0.1589095E+01
  0.7619048E+00  0.7632919E+05 -0.1548564E+01  0.1121168E+05 -0.2964970E+01  0.3014707E+06  0.1593404E+01
  0.7928572E+00  0.8162615E+05 -0.1543623E+01  0.1156407E+05 -0.2956395E+01  0.3200848E+06  0.1598421E+01
  0.8238096E+00  0.8710683E+05 -0.1537940E+01  0.1188824E+05 -0.2948082E+01  0.3388892E+06  0.1604194E+01
  0.8547620E+00  0.9249746E+05 -0.1531413E+01  0.1215694E+05 -0.2939957E+01  0.3572028E+06  0.1610807E+01
  0.8857143E+00  0.9793313E+05 -0.1524000E+01  0.1235034E+05 -0.2931748E+01  0.3753836E+06  0.1618307E+01
  0.9166667E+00  0.1033813E+06 -0.1515652E+01  0.1250772E+05 -0.2923678E+01  0.3930659E+06  0.1626752E+01
  0.9476191E+00  0.1089752E+06 -0.1506370E+01  0.1262756E+05 -0.2915649E+01  0.4104848E+06  0.1636160E+01
  0.9785714E+00  0.1144338E+06 -0.1496019E+01  0.1270196E+05 -0.2907661E+01  0.4271552E+06  0.1646628E+01
  0.1009524E+01  0.1197287E+06 -0.1484552E+01  0.1268606E+05 -0.2899983E+01  0.4426774E+06  0.1658222E+01
  0.1040476E+01  0.1250475E+06 -0.1471974E+01  0.1263017E+05 -0.2892175E+01  0.4579436E+06  0.1670917E+01
  0.1071429E+01  0.1302533E+06 -0.1458240E+01  0.1253609E+05 -0.2884240E+01  0.4720385E+06  0.1684794E+01
  0.1102381E+01  0.1354849E+06 -0.1443371E+01  0.1241742E+05 -0.2876260E+01  0.4858199E+06  0.1699791E+01
  0.1133333E+01  0.1403374E+06 -0.1427201E+01  0.1224679E+05 -0.2868385E+01  0.4980129E+06  0.1716054E+01
  0.1164286E+01  0.1449186E+06 -0.1409859E+01  0.1201216E+05 -0.2861253E+01  0.5084872E+06  0.1733517E+01
  0.1195238E+01  0.1494165E+06 -0.1391349E+01  0.1174151E+05 -0.2853854E+01  0.5183539E+06  0.1752120E+01
  0.1226190E+01  0.1535400E+06 -0.1371664E+01  0.1144505E+05 -0.2846357E+01  0.5259151E+06  0.1771969E+01
  0.1257143E+01  0.1574201E+06 -0.1350853E+01  0.1113041E+05 -0.2838515E+01  0.5323586E+06  0.1792902E+01
  0.1288095E+01  0.1611661E+06 -0.1328839E+01  0.1079777E+05 -0.2830745E+01  0.5379468E+06  0.1815043E+01
  0.1319048E+01  0.1642018E+06 -0.1305624E+01  0.1042337E+05 -0.2824040E+01  0.5407360E+06  0.1838340E+01
  0.1350000E+01  0.1668733E+06 -0.1281252E+01  0.1002355E+05 -0.2817620E+01  0.5421367E+06  0.1862791E+01
  0.1380952E+01  0.1692443E+06 -0.1255825E+01  0.9606602E+04 -0.2811131E+01  0.5425168E+06  0.1888211E+01
  0.1411905E+01  0.1705282E+06 -0.1229092E+01  0.9177535E+04 -0.2804461E+01  0.5395954E+06  0.1914700E+01
  0.1442857E+01  0.1719269E+06 -0.1201973E+01  0.8750521E+04 -0.2797799E+01  0.5359929E+06  0.1941783E+01
  0.1473810E+01  0.1728911E+06 -0.1174228E+01  0.8325408E+04 -0.2790847E+01  0.5309943E+06  0.1969435E+01
  0.1504762E+01  0.1731215E+06 -0.1145732E+01  0.7893551E+04 -0.2784326E+01  0.5235791E+06  0.1997833E+01
  0.1535714E+01  0.1726350E+06 -0.1116839E+01  0.7466985E+04 -0.2779221E+01  0.5134742E+06  0.2026615E+01
  0.1566667E+01  0.1717882E+06 -0.1087289E+01  0.7022270E+04 -0.2774620E+01  0.5028909E+06  0.2056044E+01
  0.1597619E+01  0.1704574E+06 -0.1057439E+01  0.6588236E+04 -0.2769819E+01  0.4910466E+06  0.2085643E+01
  0.1628572E+01  0.1684510E+06 -0.1027538E+01  0.6161748E+04 -0.2765538E+01  0.4767670E+06  0.2115299E+01
  0.1659524E+01  0.1661207E+06 -0.9976177E+00  0.5753110E+04 -0.2761228E+01  0.4619603E+06  0.2144917E+01
  0.1690476E+01  0.1634928E+06 -0.9679803E+00  0.5366573E+04 -0.2756157E+01  0.4467662E+06  0.2174167E+01
  0.1721429E+01  0.1601504E+06 -0.9383295E+00  0.4981437E+04 -0.2752243E+01  0.4299843E+06  0.2203480E+01
  0.1752381E+01  0.1562935E+06 -0.9092239E+00  0.4623554E+04 -0.2748694E+01  0.4117618E+06  0.2232013E+01
  0.1783333E+01  0.1520288E+06 -0.8805165E+00  0.4288192E+04 -0.2745127E+01  0.3928443E+06  0.2260224E+01
  0.1814286E+01  0.1475399E+06 -0.8518292E+00  0.3937428E+04 -0.2744641E+01  0.3744548E+06  0.2288471E+01
  0.1845238E+01  0.1427661E+06 -0.8237626E+00  0.3611622E+04 -0.2743325E+01  0.3557568E+06  0.2315912E+01
  0.1876190E+01  0.1376117E+06 -0.7968500E+00  0.3306497E+04 -0.2743630E+01  0.3359024E+06  0.2341945E+01
  0.1907143E+01  0.1324119E+06 -0.7707571E+00  0.3023309E+04 -0.2743816E+01  0.3167006E+06  0.2367232E+01
  0.1938095E+01  0.1271752E+06 -0.7453772E+00  0.2766350E+04 -0.2741560E+01  0.2982445E+06  0.2391626E+01
  0.1969048E+01  0.1216684E+06 -0.7204633E+00  0.2516087E+04 -0.2742093E+01  0.2799546E+06  0.2415766E+01
  0.2000000E+01  0.1159577E+06 -0.6964573E+00  0.2287195E+04 -0.2742940E+01  0.2615378E+06  0.2438809E+01
