VARIABLES="w (rad/s)"
"A   1   1" "B   1   1"
"A   1   2" "B   1   2"
"A   1   3" "B   1   3"
Zone t="Motion of body    1 in DoF   1",I=    64,F=POINT
  0.5000000E-01  0.3598602E+05  0.1519891E-02  0.2918243E-02  0.1874581E-04 -0.2435114E+05 -0.3022862E-03
  0.8095238E-01  0.3616891E+05  0.6643752E-02  0.5572263E-02  0.1900523E-04 -0.2457161E+05 -0.1317906E-02
  0.1119048E+00  0.3624166E+05  0.1866013E-01  0.4192920E-02  0.2952729E-05 -0.2455174E+05 -0.3593707E-02
  0.1428571E+00  0.3625805E+05  0.4188252E-01 -0.2883911E-02  0.4325848E-05 -0.2456204E+05 -0.7824274E-02
  0.1738095E+00  0.3631030E+05  0.8335460E-01  0.2381312E-02  0.4881312E-04 -0.2453606E+05 -0.1541550E-01
  0.2047619E+00  0.3631901E+05  0.1536851E+00  0.3306810E-02  0.5869684E-04 -0.2454767E+05 -0.2830972E-01
  0.2357143E+00  0.3637538E+05  0.2703933E+00 -0.1229951E-02  0.3586255E-04 -0.2450178E+05 -0.4907295E-01
  0.2666667E+00  0.3641458E+05  0.4607612E+00  0.2861023E-03  0.8225208E-05 -0.2450891E+05 -0.8229262E-01
  0.2976190E+00  0.3644509E+05  0.7715276E+00  0.6754761E-02  0.1054290E-03 -0.2450027E+05 -0.1350618E+00
  0.3285715E+00  0.3650955E+05  0.1274908E+01  0.2345209E-02  0.5604047E-04 -0.2445437E+05 -0.2176334E+00
  0.3595238E+00  0.3658040E+05  0.2090436E+01  0.4350270E-03  0.7336959E-04 -0.2443685E+05 -0.3487118E+00
  0.3904762E+00  0.3661719E+05  0.3400795E+01  0.2452106E-02  0.7263571E-04 -0.2444241E+05 -0.5526706E+00
  0.4214286E+00  0.3669564E+05  0.5459521E+01  0.6861282E-02  0.3079511E-03 -0.2440277E+05 -0.8582713E+00
  0.4523810E+00  0.3680654E+05  0.8690380E+01  0.3440455E-02  0.1965724E-03 -0.2434653E+05 -0.1317909E+01
  0.4833333E+00  0.3689361E+05  0.1348557E+02  0.1420646E-02  0.5912185E-03 -0.2434748E+05 -0.1972382E+01
  0.5142857E+00  0.3697431E+05  0.2057718E+02  0.2803803E-02  0.4346371E-03 -0.2433086E+05 -0.2891804E+01
  0.5452381E+00  0.3709245E+05  0.3065394E+02  0.1301328E-02  0.5345494E-03 -0.2427476E+05 -0.4105627E+01
  0.5761905E+00  0.3724051E+05  0.4459612E+02  0.7904935E-02  0.9660125E-03 -0.2420501E+05 -0.5654481E+01
  0.6071429E+00  0.3737912E+05  0.6367004E+02  0.2513212E-02  0.2335012E-03 -0.2419867E+05 -0.7655900E+01
  0.6380953E+00  0.3749044E+05  0.8884624E+02 -0.3443476E-02 -0.2599359E-03 -0.2420609E+05 -0.1008178E+02
  0.6690477E+00  0.3763957E+05  0.1218532E+03  0.3580657E-02  0.6731153E-03 -0.2415067E+05 -0.1288318E+02
  0.7000000E+00  0.3782489E+05  0.1646212E+03  0.5983625E-02  0.8289814E-03 -0.2407278E+05 -0.1605166E+02
  0.7309524E+00  0.3801567E+05  0.2189089E+03 -0.8203959E-02 -0.4541874E-03 -0.2401055E+05 -0.1951344E+02
  0.7619048E+00  0.3820235E+05  0.2871923E+03 -0.1802444E-03 -0.2121925E-04 -0.2398037E+05 -0.2321285E+02
  0.7928572E+00  0.3838489E+05  0.3720823E+03  0.2867552E-02  0.1335859E-02 -0.2395714E+05 -0.2691814E+02
  0.8238096E+00  0.3857752E+05  0.4764541E+03  0.3926713E-02  0.3427744E-02 -0.2390663E+05 -0.3020789E+02
  0.8547620E+00  0.3879793E+05  0.6034770E+03  0.3606004E-02  0.2254486E-02 -0.2382078E+05 -0.3251030E+02
  0.8857143E+00  0.3903665E+05  0.7566602E+03  0.6839383E-02  0.3862858E-02 -0.2371974E+05 -0.3327997E+02
  0.9166667E+00  0.3928521E+05  0.9396766E+03  0.3462358E-02  0.3576756E-02 -0.2361829E+05 -0.3180890E+02
  0.9476191E+00  0.3952390E+05  0.1156334E+04  0.5281535E-02  0.3306389E-02 -0.2354865E+05 -0.2748791E+02
  0.9785714E+00  0.3975096E+05  0.1410587E+04  0.3446036E-02  0.3081322E-02 -0.2349321E+05 -0.1918073E+02
  0.1009524E+01  0.3997155E+05  0.1706278E+04  0.3808939E-02  0.1222610E-02 -0.2341394E+05 -0.5236683E+01
  0.1040476E+01  0.4020190E+05  0.2047462E+04  0.5000832E-02  0.2475739E-02 -0.2330397E+05  0.1603074E+02
  0.1071429E+01  0.4043268E+05  0.2437883E+04  0.3702800E-02  0.4028320E-02 -0.2316644E+05  0.4652043E+02
  0.1102381E+01  0.4065644E+05  0.2881333E+04  0.4567750E-03  0.1974106E-02 -0.2302583E+05  0.8785555E+02
  0.1133333E+01  0.4087737E+05  0.3381344E+04  0.5641264E-02  0.4201889E-02 -0.2288348E+05  0.1424207E+03
  0.1164286E+01  0.4107515E+05  0.3940706E+04  0.4167615E-02  0.6484985E-02 -0.2274263E+05  0.2127935E+03
  0.1195238E+01  0.4124790E+05  0.4561868E+04 -0.1072371E-02  0.3910065E-02 -0.2261277E+05  0.3014588E+03
  0.1226190E+01  0.4138600E+05  0.5245860E+04  0.2165267E-02  0.7064819E-02 -0.2248667E+05  0.4112995E+03
  0.1257143E+01  0.4147781E+05  0.5995634E+04  0.1723550E-02  0.5527496E-02 -0.2238019E+05  0.5438195E+03
  0.1288095E+01  0.4155575E+05  0.6802063E+04  0.4217179E-02  0.6958008E-02 -0.2223989E+05  0.7032818E+03
  0.1319048E+01  0.4159489E+05  0.7671104E+04 -0.3516682E-02  0.4714966E-02 -0.2209216E+05  0.8920237E+03
  0.1350000E+01  0.4159262E+05  0.8597552E+04  0.1401548E-02  0.6080627E-02 -0.2194599E+05  0.1111858E+04
  0.1380952E+01  0.4155775E+05  0.9577808E+04  0.2894961E-02  0.7064819E-02 -0.2180319E+05  0.1365260E+04
  0.1411905E+01  0.4137300E+05  0.1056246E+05 -0.3674460E-03  0.7881165E-02 -0.2175121E+05  0.1643641E+04
  0.1442857E+01  0.4125552E+05  0.1163080E+05  0.2326588E-02  0.4844666E-02 -0.2163528E+05  0.1966117E+04
  0.1473810E+01  0.4107181E+05  0.1273231E+05 -0.2691857E-02  0.4074097E-02 -0.2151275E+05  0.2327708E+04
  0.1504762E+01  0.4085685E+05  0.1386101E+05  0.1825260E-03  0.9155273E-03 -0.2141532E+05  0.2723823E+04
  0.1535714E+01  0.4059388E+05  0.1500661E+05  0.1351290E-02  0.5691528E-02 -0.2132732E+05  0.3156938E+04
  0.1566667E+01  0.4028065E+05  0.1616026E+05 -0.3019292E-02  0.2639771E-02 -0.2125502E+05  0.3625532E+04
  0.1597619E+01  0.3993121E+05  0.1731259E+05 -0.5921592E-02  0.2487183E-02 -0.2120369E+05  0.4126296E+04
  0.1628572E+01  0.3953712E+05  0.1845204E+05 -0.4890843E-02  0.3143311E-02 -0.2116339E+05  0.4659404E+04
  0.1659524E+01  0.3911394E+05  0.1957342E+05 -0.5958152E-02  0.4608154E-02 -0.2115544E+05  0.5217020E+04
  0.1690476E+01  0.3864636E+05  0.2066520E+05 -0.2039950E-02  0.2517700E-02 -0.2116166E+05  0.5802027E+04
  0.1721429E+01  0.3815799E+05  0.2172331E+05 -0.7055765E-02  0.9918213E-03 -0.2120117E+05  0.6403910E+04
  0.1752381E+01  0.3764444E+05  0.2273449E+05 -0.1741492E-03  0.2197266E-02 -0.2124803E+05  0.7028840E+04
  0.1783333E+01  0.3711306E+05  0.2369819E+05  0.5476052E-03  0.2975464E-02 -0.2132395E+05  0.7662913E+04
  0.1814286E+01  0.3656323E+05  0.2460615E+05 -0.8410357E-03  0.1388550E-02 -0.2141396E+05  0.8308191E+04
  0.1845238E+01  0.3600783E+05  0.2545548E+05 -0.1356162E-02 -0.2349854E-02 -0.2152546E+05  0.8957953E+04
  0.1876190E+01  0.3544259E+05  0.2623998E+05  0.1528977E-02  0.2166748E-02 -0.2164838E+05  0.9612588E+04
  0.1907143E+01  0.3487937E+05  0.2696446E+05 -0.2608282E-02 -0.1983643E-02 -0.2179583E+05  0.1026285E+05
  0.1938095E+01  0.3431761E+05  0.2762600E+05 -0.2708341E-02 -0.1617432E-02 -0.2196385E+05  0.1090443E+05
  0.1969048E+01  0.3375166E+05  0.2822132E+05  0.3409703E-03 -0.3051758E-04 -0.2213925E+05  0.1154267E+05
  0.2000000E+01  0.3320388E+05  0.2875529E+05  0.4318237E-02 -0.9155273E-04 -0.2233670E+05  0.1216098E+05
Zone t="Motion of body    1 in DoF   2",I=    64,F=POINT
  0.5000000E-01  0.6217957E-02  0.1209974E-04  0.3392291E+05  0.7178239E+02 -0.3929138E-02  0.5841255E-05
  0.8095238E-01 -0.2120523E-03  0.2038479E-04  0.3363205E+05  0.1191128E+03 -0.5183500E-03 -0.1025200E-04
  0.1119048E+00 -0.2113505E-02 -0.2276897E-04  0.3346952E+05  0.1707624E+03  0.5829182E-02  0.2193451E-04
  0.1428571E+00 -0.1174927E-02 -0.1192093E-06  0.3341367E+05  0.2287804E+03 -0.4539490E-02  0.1668930E-04
  0.1738095E+00  0.4718728E-02 -0.4625320E-04  0.3340504E+05  0.2957183E+03  0.8866820E-02  0.4720688E-04
  0.2047619E+00  0.1043275E-02 -0.5412102E-04  0.3347285E+05  0.3747771E+03 -0.2235590E-02  0.1907349E-04
  0.2357143E+00  0.2751206E-02 -0.1244545E-03  0.3355938E+05  0.4705120E+03 -0.1942028E-02  0.9155273E-04
  0.2666667E+00  0.1173019E-02  0.9059906E-05  0.3369697E+05  0.5869072E+03 -0.8583068E-03 -0.1268387E-03
  0.2976190E+00  0.4614258E-03  0.3814697E-04  0.3386814E+05  0.7324761E+03  0.6511230E-02  0.4482269E-04
  0.3285715E+00 -0.1648612E-02  0.9393692E-04  0.3404581E+05  0.9122908E+03  0.2414869E-02 -0.2613068E-03
  0.3595238E+00 -0.1867433E-02 -0.1239777E-04  0.3421909E+05  0.1136787E+04 -0.2122083E-03 -0.4196167E-04
  0.3904762E+00  0.4650209E-02  0.1173019E-03  0.3441757E+05  0.1414399E+04 -0.9691191E-02  0.1163483E-03
  0.4214286E+00  0.2516407E-02  0.1649857E-03  0.3453295E+05  0.1743839E+04 -0.1158633E-02  0.4577637E-04
  0.4523810E+00  0.3204345E-03 -0.2326965E-03  0.3461259E+05  0.2142149E+04 -0.4519814E-02 -0.1144409E-04
  0.4833333E+00 -0.2304603E-02 -0.2956390E-03  0.3461720E+05  0.2579359E+04 -0.1022865E-01 -0.8773804E-04
  0.5142857E+00 -0.2432929E-02 -0.4024506E-03  0.3456050E+05  0.3075934E+04  0.1174927E-01 -0.5302429E-03
  0.5452381E+00 -0.2546685E-02  0.1430511E-03  0.3442619E+05  0.3607864E+04 -0.2574671E-02  0.7476807E-03
  0.5761905E+00 -0.4104740E-02  0.1373291E-03  0.3421891E+05  0.4166644E+04  0.2648219E-02  0.3433228E-03
  0.6071429E+00 -0.5277745E-03 -0.7629395E-05  0.3396241E+05  0.4764469E+04 -0.1105813E-02 -0.7629395E-05
  0.6380953E+00 -0.4591301E-02 -0.4577637E-04  0.3368844E+05  0.5371258E+04  0.8608690E-03 -0.3051758E-04
  0.6690477E+00 -0.2166639E-02 -0.7896423E-03  0.3336054E+05  0.5999444E+04  0.3056102E-02  0.1342773E-02
  0.7000000E+00  0.1743862E-03 -0.7553101E-03  0.3297722E+05  0.6650695E+04  0.7237025E-02 -0.2288818E-03
  0.7309524E+00  0.7097573E-03  0.5340576E-03  0.3257154E+05  0.7308753E+04  0.4884800E-02  0.6103516E-03
  0.7619048E+00 -0.3444671E-02  0.9765625E-03  0.3214425E+05  0.7975533E+04  0.1281738E-02  0.1296997E-02
  0.7928572E+00 -0.9045299E-02  0.9536743E-03  0.3169348E+05  0.8648697E+04 -0.3964535E-02  0.8392334E-03
  0.8238096E+00  0.3611834E-02 -0.8316040E-03  0.3121428E+05  0.9324047E+04 -0.6668002E-02  0.1586914E-02
  0.8547620E+00  0.5141234E-02 -0.1525879E-03  0.3071157E+05  0.9996081E+04  0.1356715E-02 -0.3509521E-03
  0.8857143E+00 -0.1860588E-02 -0.4425049E-03  0.3018608E+05  0.1066092E+05  0.4858201E-02 -0.3662109E-03
  0.9166667E+00  0.2163974E-03  0.7171631E-03  0.2964876E+05  0.1131486E+05  0.2363725E-02 -0.7019043E-03
  0.9476191E+00  0.5667988E-02 -0.1754761E-03  0.2909745E+05  0.1195382E+05 -0.4959490E-02 -0.1220703E-02
  0.9785714E+00 -0.5145665E-03  0.8087158E-03  0.2854200E+05  0.1257348E+05  0.1060319E-02  0.3356934E-03
  0.1009524E+01 -0.1602173E-02  0.2288818E-03  0.2798210E+05  0.1317191E+05 -0.2206767E-02  0.3051758E-04
  0.1040476E+01 -0.2229110E-02 -0.4730225E-03  0.2741777E+05  0.1374612E+05 -0.1730493E-02 -0.1342773E-02
  0.1071429E+01  0.2164714E-02 -0.9155273E-03  0.2684860E+05  0.1429402E+05 -0.1110840E-02  0.2136230E-03
  0.1102381E+01 -0.1937833E-03  0.4272461E-03  0.2627719E+05  0.1481273E+05 -0.3986400E-02 -0.2471924E-02
  0.1133333E+01 -0.2531164E-02 -0.1495361E-02  0.2570900E+05  0.1529929E+05  0.5681655E-02  0.1892090E-02
  0.1164286E+01 -0.3931712E-03  0.2746582E-02  0.2515063E+05  0.1575259E+05 -0.9960338E-03 -0.6103516E-03
  0.1195238E+01 -0.9447075E-03  0.2456665E-02  0.2460290E+05  0.1616895E+05  0.3472438E-02  0.8544922E-03
  0.1226190E+01 -0.2028382E-02  0.3219604E-02  0.2407221E+05  0.1654720E+05 -0.8959724E-03 -0.1159668E-02
  0.1257143E+01  0.1942028E-02 -0.1770020E-02  0.2355060E+05  0.1689702E+05 -0.8544922E-02  0.2014160E-02
  0.1288095E+01 -0.2321818E-02  0.6561279E-03  0.2304666E+05  0.1719342E+05  0.2013822E-02  0.2349854E-02
  0.1319048E+01 -0.8907386E-03 -0.1159668E-02  0.2255477E+05  0.1745904E+05  0.6200466E-02  0.1892090E-02
  0.1350000E+01 -0.5594889E-02  0.1144409E-02  0.2207579E+05  0.1768688E+05 -0.3842954E-03 -0.1159668E-02
  0.1380952E+01 -0.2806565E-02 -0.1968384E-02  0.2161832E+05  0.1787156E+05  0.7071660E-03 -0.1861572E-02
  0.1411905E+01  0.1404941E-03 -0.1831055E-02  0.2119379E+05  0.1805416E+05 -0.2615351E-02  0.1251221E-02
  0.1442857E+01 -0.6768255E-03 -0.0000000E+00  0.2077449E+05  0.1816760E+05 -0.1755516E-02 -0.2777100E-02
  0.1473810E+01  0.1128509E-02 -0.5645752E-03  0.2036771E+05  0.1824844E+05  0.4555451E-02  0.3967285E-03
  0.1504762E+01  0.2819013E-02 -0.1907349E-02  0.1998546E+05  0.1828984E+05 -0.3163784E-02  0.2075195E-02
  0.1535714E+01 -0.2642964E-02  0.1159668E-02  0.1962478E+05  0.1829583E+05 -0.3775663E-03  0.1892090E-02
  0.1566667E+01  0.4967223E-03 -0.1907349E-02  0.1928221E+05  0.1826921E+05 -0.5395767E-02  0.3112793E-02
  0.1597619E+01 -0.4393440E-02 -0.3051758E-03  0.1896295E+05  0.1820701E+05  0.3438344E-03 -0.8544922E-03
  0.1628572E+01 -0.1817670E-02  0.1052856E-02  0.1866682E+05  0.1811307E+05 -0.1255504E-02  0.1831055E-02
  0.1659524E+01 -0.1471149E-03  0.1296997E-02  0.1839490E+05  0.1798686E+05 -0.9930254E-03 -0.1892090E-02
  0.1690476E+01  0.1832344E-02  0.1541138E-02  0.1814131E+05  0.1783516E+05  0.2545424E-02 -0.2990723E-02
  0.1721429E+01 -0.4343373E-03 -0.4272461E-03  0.1791541E+05  0.1765457E+05  0.3900172E-03 -0.1770020E-02
  0.1752381E+01  0.2960537E-03  0.2029419E-02  0.1771153E+05  0.1744342E+05 -0.2786388E-03 -0.1953125E-02
  0.1783333E+01  0.1694153E-02 -0.4516602E-02  0.1753303E+05  0.1721425E+05  0.3593659E-02  0.1098633E-02
  0.1814286E+01  0.1682071E-02 -0.1190186E-02  0.1737737E+05  0.1697401E+05 -0.1782996E-02 -0.6103516E-03
  0.1845238E+01 -0.2629631E-02 -0.2227783E-02  0.1724519E+05  0.1671584E+05 -0.4961567E-03 -0.0000000E+00
  0.1876190E+01 -0.1667236E-02 -0.1129150E-02  0.1713764E+05  0.1644725E+05  0.1870557E-02  0.4272461E-03
  0.1907143E+01 -0.6320682E-03 -0.3051758E-03  0.1705271E+05  0.1617226E+05 -0.7264784E-02 -0.1953125E-02
  0.1938095E+01  0.1865921E-02 -0.1663208E-02  0.1698979E+05  0.1589600E+05  0.4676613E-02 -0.1098633E-02
  0.1969048E+01 -0.1697102E-02  0.5340576E-03  0.1694309E+05  0.1562459E+05  0.5269541E-02  0.3662109E-03
  0.2000000E+01  0.6942749E-03 -0.8087158E-03  0.1692206E+05  0.1535534E+05 -0.4455566E-02  0.4272461E-03
Zone t="Motion of body    1 in DoF   3",I=    64,F=POINT
  0.5000000E-01 -0.2391127E+05 -0.2290827E-03 -0.1160622E-01 -0.1954027E-04  0.1041730E+06  0.1455042E-03
  0.8095238E-01 -0.2415973E+05 -0.1023532E-02 -0.1030810E-01 -0.5219049E-04  0.1043132E+06  0.3499695E-03
  0.1119048E+00 -0.2414717E+05 -0.2770955E-02 -0.5437161E-02 -0.3148708E-04  0.1043189E+06  0.6494547E-03
  0.1428571E+00 -0.2414738E+05 -0.6011469E-02  0.2523422E-02 -0.1369879E-04  0.1043761E+06  0.8252670E-03
  0.1738095E+00 -0.2413074E+05 -0.1185105E-01 -0.7736519E-02 -0.2778865E-04  0.1043379E+06  0.1777091E-02
  0.2047619E+00 -0.2413402E+05 -0.2166091E-01  0.1639433E-02  0.1296627E-04  0.1043653E+06  0.3948823E-02
  0.2357143E+00 -0.2408637E+05 -0.3742860E-01 -0.1764008E-02 -0.1842809E-04  0.1044191E+06  0.7024543E-02
  0.2666667E+00 -0.2410089E+05 -0.6229141E-01 -0.6952285E-02 -0.1109538E-03  0.1043414E+06  0.1146971E-01
  0.2976190E+00 -0.2408153E+05 -0.1018000E+00 -0.1666260E-03  0.1054343E-03  0.1044016E+06  0.1805928E-01
  0.3285715E+00 -0.2403174E+05 -0.1636171E+00  0.6965968E-03 -0.3469805E-04  0.1044503E+06  0.2772978E-01
  0.3595238E+00 -0.2402312E+05 -0.2602946E+00 -0.1036638E-01 -0.4913950E-03  0.1043871E+06  0.4373997E-01
  0.3904762E+00 -0.2402161E+05 -0.4082877E+00 -0.6252381E-02 -0.2657543E-03  0.1043907E+06  0.6694587E-01
  0.4214286E+00 -0.2397082E+05 -0.6293246E+00 -0.9730710E-02 -0.6138617E-03  0.1044750E+06  0.9760708E-01
  0.4523810E+00 -0.2391900E+05 -0.9593344E+00  0.1079359E-02 -0.1691598E-03  0.1044813E+06  0.1443052E+00
  0.4833333E+00 -0.2392632E+05 -0.1414900E+01 -0.2746582E-02 -0.2635298E-03  0.1044008E+06  0.2067602E+00
  0.5142857E+00 -0.2389601E+05 -0.2046195E+01 -0.8648767E-02 -0.1477661E-02  0.1044631E+06  0.2881395E+00
  0.5452381E+00 -0.2382788E+05 -0.2867841E+01 -0.8605557E-02 -0.1509326E-02  0.1045768E+06  0.3845241E+00
  0.5761905E+00 -0.2375908E+05 -0.3888006E+01 -0.9440902E-02 -0.1538333E-02  0.1046146E+06  0.4908981E+00
  0.6071429E+00 -0.2376071E+05 -0.5129141E+01  0.6207634E-02  0.7774979E-03  0.1045237E+06  0.6332259E+00
  0.6380953E+00 -0.2376026E+05 -0.6536566E+01  0.9888036E-02  0.4933961E-03  0.1044983E+06  0.7440525E+00
  0.6690477E+00 -0.2368872E+05 -0.8100105E+01 -0.6887632E-02 -0.1268648E-02  0.1046254E+06  0.8496900E+00
  0.7000000E+00 -0.2360418E+05 -0.9728431E+01  0.1656668E-02 -0.6110668E-03  0.1047086E+06  0.9488605E+00
  0.7309524E+00 -0.2354417E+05 -0.1121614E+02  0.7348076E-02  0.1290545E-02  0.1047078E+06  0.9889737E+00
  0.7619048E+00 -0.2351577E+05 -0.1232009E+02  0.5447387E-02 -0.2396852E-04  0.1046522E+06  0.1011979E+01
  0.7928572E+00 -0.2348574E+05 -0.1279539E+02  0.6947560E-02  0.1038074E-02  0.1046355E+06  0.9554576E+00
  0.8238096E+00 -0.2342159E+05 -0.1231037E+02 -0.5186224E-02 -0.2734028E-02  0.1047045E+06  0.7707804E+00
  0.8547620E+00 -0.2332383E+05 -0.1032289E+02 -0.1083586E-01 -0.4869036E-02  0.1048102E+06  0.4576465E+00
  0.8857143E+00 -0.2321661E+05 -0.6088833E+01 -0.1371322E-01 -0.6312761E-02  0.1048934E+06  0.7792827E-01
  0.9166667E+00 -0.2311513E+05  0.1371053E+01 -0.7057883E-02 -0.3205218E-02  0.1049173E+06 -0.2362697E+00
  0.9476191E+00 -0.2304627E+05  0.1328720E+02 -0.5313739E-03 -0.1332179E-02  0.1048799E+06 -0.3074774E+00
  0.9785714E+00 -0.2298677E+05  0.3074694E+02 -0.2900284E-02 -0.4414245E-02  0.1048443E+06 -0.1494136E+00
  0.1009524E+01 -0.2289691E+05  0.5457570E+02  0.2796245E-02 -0.2275109E-02  0.1048919E+06  0.4957068E-01
  0.1040476E+01 -0.2277539E+05  0.8627362E+02  0.1701163E-02 -0.2255142E-02  0.1049992E+06  0.3959401E+00
  0.1071429E+01 -0.2262904E+05  0.1278634E+03 -0.3375244E-02 -0.5536318E-02  0.1051073E+06  0.1414829E+01
  0.1102381E+01 -0.2248421E+05  0.1816592E+03 -0.8221949E-02 -0.8832216E-02  0.1051965E+06  0.3784485E+01
  0.1133333E+01 -0.2234145E+05  0.2505569E+03  0.4416073E-02  0.1404524E-02  0.1052525E+06  0.8386121E+01
  0.1164286E+01 -0.2220146E+05  0.3370963E+03 -0.4180721E-02 -0.7788420E-02  0.1052971E+06  0.1656270E+02
  0.1195238E+01 -0.2207208E+05  0.4446046E+03 -0.2144741E-02 -0.3344536E-02  0.1053164E+06  0.2962448E+02
  0.1226190E+01 -0.2194527E+05  0.5750545E+03 -0.2302151E-02 -0.7801533E-02  0.1053341E+06  0.4792709E+02
  0.1257143E+01 -0.2183346E+05  0.7317131E+03 -0.1893477E-02 -0.4034042E-02  0.1053767E+06  0.7129223E+02
  0.1288095E+01 -0.2169147E+05  0.9099341E+03 -0.1049556E-01 -0.1394844E-01  0.1054816E+06  0.1001634E+03
  0.1319048E+01 -0.2154087E+05  0.1119223E+04  0.6246739E-02  0.2459526E-02  0.1055928E+06  0.1362679E+03
  0.1350000E+01 -0.2139384E+05  0.1359876E+04 -0.2452709E-02 -0.4021645E-02  0.1057163E+06  0.1828177E+03
  0.1380952E+01 -0.2125122E+05  0.1635829E+04 -0.2961257E-02 -0.8767128E-02  0.1058228E+06  0.2414826E+03
  0.1411905E+01 -0.2146612E+05  0.1809924E+04 -0.4647112E-03 -0.8193970E-02  0.1056102E+06  0.2907318E+03
  0.1442857E+01 -0.2135363E+05  0.2144587E+04  0.3553334E-02 -0.2441406E-02  0.1056855E+06  0.3699687E+03
  0.1473810E+01 -0.2124204E+05  0.2511728E+04  0.2857510E-02 -0.1331329E-02  0.1057692E+06  0.4629380E+03
  0.1504762E+01 -0.2115194E+05  0.2916060E+04 -0.3995292E-02 -0.4600525E-02  0.1058482E+06  0.5708915E+03
  0.1535714E+01 -0.2107227E+05  0.3354350E+04 -0.6200036E-02 -0.1117516E-01  0.1059385E+06  0.6983643E+03
  0.1566667E+01 -0.2100950E+05  0.3825141E+04  0.3506275E-02 -0.1342773E-02  0.1060320E+06  0.8461033E+03
  0.1597619E+01 -0.2096413E+05  0.4328320E+04 -0.8977898E-03 -0.6530762E-02  0.1061214E+06  0.1012544E+04
  0.1628572E+01 -0.2092981E+05  0.4859247E+04  0.5022015E-02 -0.3421783E-02  0.1062201E+06  0.1201726E+04
  0.1659524E+01 -0.2092365E+05  0.5418591E+04  0.5240967E-02 -0.3227234E-02  0.1063052E+06  0.1410224E+04
  0.1690476E+01 -0.2093492E+05  0.5998846E+04  0.2762055E-02 -0.4070282E-02  0.1063955E+06  0.1647537E+04
  0.1721429E+01 -0.2097594E+05  0.6598326E+04  0.6027538E-02 -0.1846313E-02  0.1064900E+06  0.1909298E+04
  0.1752381E+01 -0.2102227E+05  0.7220009E+04 -0.6443522E-03 -0.8850098E-03  0.1065516E+06  0.2186029E+04
  0.1783333E+01 -0.2109690E+05  0.7848878E+04  0.7700697E-03 -0.7415771E-02  0.1066287E+06  0.2485346E+04
  0.1814286E+01 -0.2118560E+05  0.8485090E+04  0.6223664E-02  0.4577637E-03  0.1066987E+06  0.2805076E+04
  0.1845238E+01 -0.2129216E+05  0.9129005E+04  0.1620779E-02 -0.9231567E-03  0.1067471E+06  0.3139193E+04
  0.1876190E+01 -0.2141054E+05  0.9772634E+04  0.5253826E-02 -0.1136780E-02  0.1068005E+06  0.3498719E+04
  0.1907143E+01 -0.2155012E+05  0.1042050E+05 -0.2512271E-02 -0.1131439E-01  0.1068235E+06  0.3867949E+04
  0.1938095E+01 -0.2170913E+05  0.1105951E+05  0.2283195E-02  0.6332397E-03  0.1068513E+06  0.4261645E+04
  0.1969048E+01 -0.2187854E+05  0.1168819E+05  0.1720350E-02 -0.6179810E-03  0.1068712E+06  0.4672944E+04
  0.2000000E+01 -0.2206284E+05  0.1230978E+05 -0.2746582E-02 -0.9155273E-03  0.1068812E+06  0.5091899E+04
