VARIABLES="w (rad/s)"
"abs(F   1   1)" "angle(F   1   1)"
"abs(F   1   2)" "angle(F   1   2)"
"abs(F   1   3)" "angle(F   1   3)"
Zone t="Diffraction force - beta =   0.000 deg",I=    64,F=POINT
  0.5000000E-01  0.1530609E+04 -0.1570794E+01  0.5331139E+03 -0.3095212E+01  0.1309790E+04  0.1570797E+01
  0.8095238E-01  0.2492834E+04 -0.1570789E+01  0.1379413E+04 -0.3093537E+01  0.2112038E+04  0.1570799E+01
  0.1119048E+00  0.3486683E+04 -0.1570781E+01  0.2618771E+04 -0.3091583E+01  0.2964465E+04  0.1570801E+01
  0.1428571E+00  0.4504845E+04 -0.1570769E+01  0.4248677E+04 -0.3089096E+01  0.3842108E+04  0.1570805E+01
  0.1738095E+00  0.5599045E+04 -0.1570751E+01  0.6274027E+04 -0.3085985E+01  0.4791807E+04  0.1570810E+01
  0.2047619E+00  0.6717583E+04 -0.1570726E+01  0.8708206E+04 -0.3082149E+01  0.5769772E+04  0.1570818E+01
  0.2357143E+00  0.7939604E+04 -0.1570689E+01  0.1152733E+05 -0.3077163E+01  0.6868093E+04  0.1570829E+01
  0.2666667E+00  0.9272300E+04 -0.1570634E+01  0.1477370E+05 -0.3071266E+01  0.8050614E+04  0.1570845E+01
  0.2976190E+00  0.1068659E+05 -0.1570553E+01  0.1840904E+05 -0.3063718E+01  0.9342334E+04  0.1570870E+01
  0.3285715E+00  0.1226009E+05 -0.1570433E+01  0.2248120E+05 -0.3054870E+01  0.1079458E+05  0.1570908E+01
  0.3595238E+00  0.1405890E+05 -0.1570255E+01  0.2690582E+05 -0.3043937E+01  0.1247852E+05  0.1570966E+01
  0.3904762E+00  0.1597969E+05 -0.1569986E+01  0.3178671E+05 -0.3031329E+01  0.1427381E+05  0.1571053E+01
  0.4214286E+00  0.1812258E+05 -0.1569593E+01  0.3688131E+05 -0.3016897E+01  0.1633495E+05  0.1571182E+01
  0.4523810E+00  0.2056421E+05 -0.1569020E+01  0.4239350E+05 -0.3000585E+01  0.1870234E+05  0.1571375E+01
  0.4833333E+00  0.2329587E+05 -0.1568229E+01  0.4801884E+05 -0.2983924E+01  0.2132291E+05  0.1571646E+01
  0.5142857E+00  0.2616135E+05 -0.1567122E+01  0.5387170E+05 -0.2966050E+01  0.2418227E+05  0.1572029E+01
  0.5452381E+00  0.2922419E+05 -0.1565643E+01  0.5990474E+05 -0.2948560E+01  0.2726930E+05  0.1572550E+01
  0.5761905E+00  0.3274593E+05 -0.1563755E+01  0.6591970E+05 -0.2931096E+01  0.3085311E+05  0.1573238E+01
  0.6071429E+00  0.3641520E+05 -0.1561310E+01  0.7210413E+05 -0.2913678E+01  0.3459980E+05  0.1574143E+01
  0.6380953E+00  0.4024949E+05 -0.1558257E+01  0.7827930E+05 -0.2897428E+01  0.3851024E+05  0.1575297E+01
  0.6690477E+00  0.4417442E+05 -0.1554446E+01  0.8439727E+05 -0.2881212E+01  0.4273963E+05  0.1576756E+01
  0.7000000E+00  0.4843786E+05 -0.1549820E+01  0.9057689E+05 -0.2865484E+01  0.4732783E+05  0.1578562E+01
  0.7309524E+00  0.5304470E+05 -0.1544311E+01  0.9667395E+05 -0.2850510E+01  0.5225976E+05  0.1580779E+01
  0.7619048E+00  0.5792514E+05 -0.1537765E+01  0.1025684E+06 -0.2835485E+01  0.5756167E+05  0.1583494E+01
  0.7928572E+00  0.6280663E+05 -0.1529940E+01  0.1084220E+06 -0.2821289E+01  0.6298054E+05  0.1586785E+01
  0.8238096E+00  0.6766434E+05 -0.1520672E+01  0.1142492E+06 -0.2808249E+01  0.6853555E+05  0.1590730E+01
  0.8547620E+00  0.7280370E+05 -0.1510035E+01  0.1196179E+06 -0.2794424E+01  0.7429891E+05  0.1595317E+01
  0.8857143E+00  0.7838552E+05 -0.1498058E+01  0.1248353E+06 -0.2781277E+01  0.8084782E+05  0.1600612E+01
  0.9166667E+00  0.8406352E+05 -0.1484418E+01  0.1299699E+06 -0.2769410E+01  0.8753066E+05  0.1606757E+01
  0.9476191E+00  0.8976652E+05 -0.1468937E+01  0.1349124E+06 -0.2758527E+01  0.9441723E+05  0.1613889E+01
  0.9785714E+00  0.9557966E+05 -0.1451616E+01  0.1393171E+06 -0.2746882E+01  0.1012979E+06  0.1622030E+01
  0.1009524E+01  0.1014169E+06 -0.1432314E+01  0.1434272E+06 -0.2735730E+01  0.1085578E+06  0.1631275E+01
  0.1040476E+01  0.1068705E+06 -0.1410612E+01  0.1473246E+06 -0.2725539E+01  0.1157890E+06  0.1641680E+01
  0.1071429E+01  0.1121728E+06 -0.1386873E+01  0.1509878E+06 -0.2716439E+01  0.1229684E+06  0.1652970E+01
  0.1102381E+01  0.1174888E+06 -0.1361514E+01  0.1543915E+06 -0.2708201E+01  0.1304227E+06  0.1664997E+01
  0.1133333E+01  0.1227163E+06 -0.1334462E+01  0.1571455E+06 -0.2698857E+01  0.1375931E+06  0.1678054E+01
  0.1164286E+01  0.1276873E+06 -0.1305555E+01  0.1596147E+06 -0.2690261E+01  0.1449968E+06  0.1692146E+01
  0.1195238E+01  0.1319447E+06 -0.1274290E+01  0.1618059E+06 -0.2682511E+01  0.1520785E+06  0.1707339E+01
  0.1226190E+01  0.1355599E+06 -0.1241089E+01  0.1637188E+06 -0.2675832E+01  0.1586264E+06  0.1723169E+01
  0.1257143E+01  0.1385511E+06 -0.1206517E+01  0.1653802E+06 -0.2669934E+01  0.1648793E+06  0.1739029E+01
  0.1288095E+01  0.1410503E+06 -0.1171567E+01  0.1664514E+06 -0.2663953E+01  0.1707244E+06  0.1754961E+01
  0.1319048E+01  0.1427409E+06 -0.1135465E+01  0.1670413E+06 -0.2657476E+01  0.1756282E+06  0.1770903E+01
  0.1350000E+01  0.1436735E+06 -0.1098522E+01  0.1673733E+06 -0.2651749E+01  0.1805679E+06  0.1786995E+01
  0.1380952E+01  0.1434921E+06 -0.1060808E+01  0.1674181E+06 -0.2646931E+01  0.1845176E+06  0.1802270E+01
  0.1411905E+01  0.1419335E+06 -0.1021754E+01  0.1671336E+06 -0.2642918E+01  0.1872466E+06  0.1816352E+01
  0.1442857E+01  0.1397845E+06 -0.9837108E+00  0.1665967E+06 -0.2639867E+01  0.1895440E+06  0.1829355E+01
  0.1473810E+01  0.1366717E+06 -0.9459545E+00  0.1657014E+06 -0.2636955E+01  0.1910517E+06  0.1840738E+01
  0.1504762E+01  0.1326846E+06 -0.9093991E+00  0.1642303E+06 -0.2633159E+01  0.1912259E+06  0.1849790E+01
  0.1535714E+01  0.1278793E+06 -0.8742920E+00  0.1624650E+06 -0.2629911E+01  0.1907151E+06  0.1856118E+01
  0.1566667E+01  0.1222877E+06 -0.8403183E+00  0.1605020E+06 -0.2627329E+01  0.1900406E+06  0.1860611E+01
  0.1597619E+01  0.1157464E+06 -0.8069149E+00  0.1582795E+06 -0.2625468E+01  0.1884266E+06  0.1862556E+01
  0.1628572E+01  0.1084605E+06 -0.7749369E+00  0.1558186E+06 -0.2624429E+01  0.1860955E+06  0.1861094E+01
  0.1659524E+01  0.1005407E+06 -0.7444648E+00  0.1531247E+06 -0.2624287E+01  0.1832194E+06  0.1856202E+01
  0.1690476E+01  0.9205148E+05 -0.7157729E+00  0.1502298E+06 -0.2624589E+01  0.1800641E+06  0.1848090E+01
  0.1721429E+01  0.8309328E+05 -0.6906052E+00  0.1468373E+06 -0.2623831E+01  0.1757360E+06  0.1834855E+01
  0.1752381E+01  0.7376923E+05 -0.6688259E+00  0.1432177E+06 -0.2623576E+01  0.1710205E+06  0.1816840E+01
  0.1783333E+01  0.6421859E+05 -0.6510408E+00  0.1394460E+06 -0.2623913E+01  0.1665187E+06  0.1795585E+01
  0.1814286E+01  0.5435624E+05 -0.6371166E+00  0.1355599E+06 -0.2624856E+01  0.1619831E+06  0.1770854E+01
  0.1845238E+01  0.4427905E+05 -0.6293048E+00  0.1315255E+06 -0.2626508E+01  0.1573633E+06  0.1741550E+01
  0.1876190E+01  0.3406878E+05 -0.6322725E+00  0.1273500E+06 -0.2628973E+01  0.1527417E+06  0.1707328E+01
  0.1907143E+01  0.2379806E+05 -0.6572027E+00  0.1230303E+06 -0.2632283E+01  0.1481957E+06  0.1668846E+01
  0.1938095E+01  0.1362518E+05 -0.7529879E+00  0.1185797E+06 -0.2635834E+01  0.1439202E+06  0.1626081E+01
  0.1969048E+01  0.4680069E+04 -0.1387259E+01  0.1139756E+06 -0.2639343E+01  0.1397782E+06  0.1577296E+01
  0.2000000E+01  0.8377655E+04 -0.3100452E+01  0.1092674E+06 -0.2643091E+01  0.1357117E+06  0.1521942E+01
