VARIABLES="w (rad/s)"
"A   1   1" "B   1   1"
"A   1   2" "B   1   2"
"A   1   3" "B   1   3"
Zone t="Motion of body    1 in DoF   1",I=    64,F=POINT
  0.5000000E-01  0.3931032E+05  0.1236110E-02 -0.7247925E-03 -0.5333587E-05 -0.8742360E+05 -0.2644562E-02
  0.8095238E-01  0.3960781E+05  0.5147952E-02 -0.1743541E-02 -0.8952486E-05 -0.8805311E+05 -0.1090727E-01
  0.1119048E+00  0.3973649E+05  0.1450043E-01 -0.1533995E-02 -0.1641853E-04 -0.8818441E+05 -0.3034385E-01
  0.1428571E+00  0.3980134E+05  0.3247688E-01 -0.6542205E-03 -0.1437211E-04 -0.8827082E+05 -0.6792266E-01
  0.1738095E+00  0.3986449E+05  0.6461383E-01  0.2128914E-02  0.1619564E-04 -0.8832803E+05 -0.1348639E+00
  0.2047619E+00  0.3988807E+05  0.1193405E+00 -0.1117795E-03  0.7922063E-06 -0.8837758E+05 -0.2487462E+00
  0.2357143E+00  0.3995106E+05  0.2098890E+00 -0.2751206E-03 -0.2503465E-04 -0.8843196E+05 -0.4367222E+00
  0.2666667E+00  0.3996956E+05  0.3571818E+00 -0.2746582E-02 -0.7596030E-04 -0.8848187E+05 -0.7414427E+00
  0.2976190E+00  0.3998570E+05  0.5975129E+00 -0.1409912E-02 -0.8065789E-04 -0.8851090E+05 -0.1237515E+01
  0.3285715E+00  0.4011364E+05  0.9871438E+00 -0.9520156E-03 -0.4986860E-04 -0.8861399E+05 -0.2036905E+01
  0.3595238E+00  0.4013970E+05  0.1616226E+01 -0.1336912E-02 -0.1011994E-03 -0.8865499E+05 -0.3323990E+01
  0.3904762E+00  0.4019127E+05  0.2626325E+01  0.1484941E-02 -0.7405877E-05 -0.8872548E+05 -0.5380851E+01
  0.4214286E+00  0.4027334E+05  0.4212623E+01  0.2081919E-02  0.4389882E-04 -0.8880948E+05 -0.8593380E+01
  0.4523810E+00  0.4037559E+05  0.6698815E+01 -0.2293637E-02 -0.2261326E-03 -0.8891769E+05 -0.1360454E+02
  0.4833333E+00  0.4045843E+05  0.1038388E+02 -0.1562710E-02 -0.5139410E-04 -0.8904787E+05 -0.2099252E+02
  0.5142857E+00  0.4050365E+05  0.1582261E+02  0.1824697E-02  0.2293065E-03 -0.8913812E+05 -0.3184509E+02
  0.5452381E+00  0.4070429E+05  0.2357321E+02 -0.6296749E-03 -0.9800494E-04 -0.8936683E+05 -0.4716645E+02
  0.5761905E+00  0.4080418E+05  0.3424656E+02  0.1271145E-02  0.2919286E-03 -0.8949090E+05 -0.6814230E+02
  0.6071429E+00  0.4092076E+05  0.4884207E+02 -0.3518497E-03 -0.3482401E-03 -0.8964259E+05 -0.9662492E+02
  0.6380953E+00  0.4106261E+05  0.6812724E+02  0.1339130E-02 -0.1015663E-03 -0.8988901E+05 -0.1340016E+03
  0.6690477E+00  0.4120023E+05  0.9337427E+02  0.5222741E-02  0.8546114E-03 -0.9005259E+05 -0.1824638E+03
  0.7000000E+00  0.4139352E+05  0.1261328E+03  0.1874651E-02  0.2185106E-03 -0.9027833E+05 -0.2447531E+03
  0.7309524E+00  0.4162494E+05  0.1678024E+03  0.7097573E-03  0.4231930E-03 -0.9058397E+05 -0.3232690E+03
  0.7619048E+00  0.4177307E+05  0.2200566E+03  0.3104210E-02  0.4496574E-03 -0.9077478E+05 -0.4208872E+03
  0.7928572E+00  0.4192162E+05  0.2850639E+03  0.4657367E-02  0.1400709E-02 -0.9102034E+05 -0.5413669E+03
  0.8238096E+00  0.4216403E+05  0.3654491E+03  0.5519624E-02  0.1911402E-02 -0.9130818E+05 -0.6883590E+03
  0.8547620E+00  0.4243172E+05  0.4636461E+03  0.1713745E-02  0.2934933E-03 -0.9165702E+05 -0.8660878E+03
  0.8857143E+00  0.4265570E+05  0.5821703E+03  0.1826133E-02 -0.3857613E-03 -0.9191234E+05 -0.1078137E+04
  0.9166667E+00  0.4289688E+05  0.7244006E+03  0.2913042E-02  0.1137733E-02 -0.9221744E+05 -0.1329876E+04
  0.9476191E+00  0.4317355E+05  0.8938825E+03  0.3220448E-03  0.5741119E-03 -0.9252841E+05 -0.1625741E+04
  0.9785714E+00  0.4343788E+05  0.1093834E+04  0.2338938E-02  0.6580353E-03 -0.9288596E+05 -0.1971422E+04
  0.1009524E+01  0.4365115E+05  0.1327321E+04 -0.1027809E-02 -0.1412392E-02 -0.9313636E+05 -0.2369758E+04
  0.1040476E+01  0.4392805E+05  0.1600105E+04  0.4986167E-03 -0.9126663E-03 -0.9346956E+05 -0.2828883E+04
  0.1071429E+01  0.4421723E+05  0.1915844E+04  0.5240886E-02  0.1617432E-02 -0.9374403E+05 -0.3351513E+04
  0.1102381E+01  0.4456642E+05  0.2280375E+04  0.5536666E-04 -0.3509521E-03 -0.9410016E+05 -0.3946226E+04
  0.1133333E+01  0.4486959E+05  0.2696002E+04  0.2423455E-03 -0.5054474E-03 -0.9443150E+05 -0.4616250E+04
  0.1164286E+01  0.4512252E+05  0.3166334E+04 -0.9960338E-03  0.3623962E-04 -0.9463995E+05 -0.5361490E+04
  0.1195238E+01  0.4538236E+05  0.3698009E+04 -0.1302164E-02 -0.3683090E-02 -0.9488380E+05 -0.6192397E+04
  0.1226190E+01  0.4561497E+05  0.4293534E+04 -0.1742169E-02 -0.3326416E-02 -0.9506171E+05 -0.7107144E+04
  0.1257143E+01  0.4582454E+05  0.4955961E+04 -0.2985867E-02 -0.4005432E-02 -0.9519678E+05 -0.8107766E+04
  0.1288095E+01  0.4613162E+05  0.5698902E+04 -0.1776902E-02 -0.4161835E-02 -0.9543891E+05 -0.9209596E+04
  0.1319048E+01  0.4634693E+05  0.6513226E+04  0.2915145E-02 -0.5073547E-03 -0.9554397E+05 -0.1039694E+05
  0.1350000E+01  0.4652440E+05  0.7404537E+04  0.6781684E-03 -0.2975464E-03 -0.9553553E+05 -0.1166788E+05
  0.1380952E+01  0.4670612E+05  0.8380905E+04  0.1524827E-02 -0.7247925E-03 -0.9557155E+05 -0.1304027E+05
  0.1411905E+01  0.4660632E+05  0.9368334E+04  0.1296868E-03 -0.6942749E-03 -0.9535202E+05 -0.1441253E+05
  0.1442857E+01  0.4671242E+05  0.1049730E+05 -0.1628611E-02 -0.4737854E-02 -0.9521907E+05 -0.1593187E+05
  0.1473810E+01  0.4681161E+05  0.1171015E+05  0.4369092E-02  0.1907349E-02 -0.9508437E+05 -0.1753066E+05
  0.1504762E+01  0.4681340E+05  0.1299543E+05  0.4056134E-03  0.7019043E-03 -0.9484631E+05 -0.1919238E+05
  0.1535714E+01  0.4673727E+05  0.1434674E+05  0.2543604E-02 -0.1876831E-02 -0.9447339E+05 -0.2088898E+05
  0.1566667E+01  0.4659379E+05  0.1576148E+05  0.1850534E-02  0.9613037E-03 -0.9400756E+05 -0.2261846E+05
  0.1597619E+01  0.4642391E+05  0.1724368E+05 -0.2807981E-02 -0.2120972E-02 -0.9354752E+05 -0.2439571E+05
  0.1628572E+01  0.4619582E+05  0.1877154E+05  0.1780192E-02 -0.2059937E-02 -0.9295552E+05 -0.2615946E+05
  0.1659524E+01  0.4593293E+05  0.2034673E+05  0.3677872E-03 -0.1831055E-02 -0.9231588E+05 -0.2792546E+05
  0.1690476E+01  0.4564706E+05  0.2196156E+05  0.2888424E-03  0.7171631E-03 -0.9165467E+05 -0.2967933E+05
  0.1721429E+01  0.4530473E+05  0.2360348E+05  0.7977624E-03 -0.3814697E-02 -0.9097549E+05 -0.3142340E+05
  0.1752381E+01  0.4486178E+05  0.2524032E+05  0.1358364E-02 -0.3204346E-03 -0.9018475E+05 -0.3309757E+05
  0.1783333E+01  0.4433300E+05  0.2685043E+05  0.8214077E-03 -0.6103516E-04 -0.8925546E+05 -0.3463679E+05
  0.1814286E+01  0.4376280E+05  0.2844800E+05  0.1345657E-03  0.3662109E-03 -0.8832050E+05 -0.3611294E+05
  0.1845238E+01  0.4316596E+05  0.3002808E+05  0.1918473E-02 -0.1800537E-02 -0.8741202E+05 -0.3752845E+05
  0.1876190E+01  0.4251420E+05  0.3154333E+05  0.1789229E-02 -0.3021240E-02 -0.8641037E+05 -0.3876959E+05
  0.1907143E+01  0.4183130E+05  0.3299993E+05  0.1088117E-02 -0.1678467E-02 -0.8538395E+05 -0.3987420E+05
  0.1938095E+01  0.4114388E+05  0.3440094E+05  0.1606109E-02 -0.3448486E-02 -0.8438877E+05 -0.4086628E+05
  0.1969048E+01  0.4045879E+05  0.3574362E+05  0.1704852E-02 -0.1007080E-02 -0.8345218E+05 -0.4175879E+05
  0.2000000E+01  0.3969935E+05  0.3697776E+05  0.4882812E-03  0.2136230E-03 -0.8247387E+05 -0.4249350E+05
Zone t="Motion of body    1 in DoF   2",I=    64,F=POINT
  0.5000000E-01  0.7629395E-04 -0.1287460E-04  0.1009950E+05  0.2545998E+02 -0.1217723E-01  0.1067296E-04
  0.8095238E-01 -0.3062977E-02  0.7033348E-05  0.1000350E+05  0.4224648E+02  0.3840502E-02  0.5271286E-05
  0.1119048E+00 -0.2829369E-02  0.9059906E-05  0.9945175E+04  0.6056311E+02 -0.2364909E-02 -0.1101196E-04
  0.1428571E+00  0.1121521E-02 -0.1502037E-04  0.9924797E+04  0.8113863E+02 -0.1660585E-02 -0.8046627E-06
  0.1738095E+00 -0.2853184E-02  0.3719330E-04  0.9923418E+04  0.1048661E+03  0.5264674E-02 -0.3390014E-04
  0.2047619E+00  0.5216377E-02  0.3719330E-04  0.9947382E+04  0.1329048E+03 -0.3870365E-02  0.4296005E-04
  0.2357143E+00 -0.1553622E-02 -0.2622604E-04  0.9980872E+04  0.1668592E+03 -0.3843596E-02  0.1251698E-04
  0.2666667E+00  0.4863739E-03  0.1029968E-03  0.1003118E+05  0.2081279E+03  0.1535118E-02 -0.1005232E-03
  0.2976190E+00  0.1025391E-02  0.4863739E-04  0.1009143E+05  0.2597878E+03  0.8211136E-02  0.1978874E-04
  0.3285715E+00  0.1811152E-02  0.6675720E-05  0.1015961E+05  0.3235846E+03  0.9118162E-02 -0.9030104E-04
  0.3595238E+00 -0.2122083E-02  0.1144409E-04  0.1022481E+05  0.4033235E+03  0.1002154E-01  0.6307364E-03
  0.3904762E+00 -0.1602173E-02  0.2155304E-03  0.1029659E+05  0.5019662E+03  0.7515069E-02 -0.2894998E-03
  0.4214286E+00 -0.1520706E-02 -0.1144409E-03  0.1033971E+05  0.6191286E+03  0.2792487E-02 -0.3268719E-03
  0.4523810E+00 -0.2327367E-02 -0.1411438E-03  0.1037278E+05  0.7609056E+03  0.1032664E-01 -0.5686283E-04
  0.4833333E+00 -0.8839574E-03 -0.1525879E-04  0.1038006E+05  0.9168928E+03  0.1760022E-02 -0.3923178E-03
  0.5142857E+00  0.5340577E-03  0.3662109E-03  0.1036102E+05  0.1094327E+04  0.4255772E-02 -0.2255440E-03
  0.5452381E+00 -0.3582151E-02 -0.5722046E-04  0.1032039E+05  0.1284582E+04  0.5612853E-02 -0.1402617E-02
  0.5761905E+00 -0.4501973E-02  0.2822876E-03  0.1025147E+05  0.1484919E+04  0.8672918E-02 -0.1582623E-02
  0.6071429E+00 -0.3367704E-02  0.3967285E-03  0.1016631E+05  0.1699553E+04 -0.5263608E-02  0.6988049E-03
  0.6380953E+00  0.7173908E-03 -0.6027222E-03  0.1007687E+05  0.1918390E+04 -0.6205430E-02  0.2460480E-03
  0.6690477E+00  0.1824538E-02 -0.4272461E-03  0.9962264E+04  0.2145537E+04  0.5855628E-02  0.9584427E-03
  0.7000000E+00  0.8719307E-03  0.4959106E-03  0.9831073E+04  0.2381502E+04 -0.5108969E-03  0.1001596E-02
  0.7309524E+00 -0.2421525E-02  0.9307861E-03  0.9695808E+04  0.2620711E+04 -0.2668113E-02 -0.3048897E-02
  0.7619048E+00 -0.1962662E-02 -0.4577637E-04  0.9548492E+04  0.2864247E+04 -0.2612293E-02 -0.4868507E-03
  0.7928572E+00 -0.3849063E-03  0.3051758E-03  0.9391969E+04  0.3111165E+04  0.4432437E-02  0.1029491E-02
  0.8238096E+00 -0.5927113E-03 -0.2899170E-03  0.9225973E+04  0.3359760E+04  0.9411607E-03 -0.2617836E-03
  0.8547620E+00 -0.1463824E-02  0.4119873E-03  0.9052253E+04  0.3608049E+04 -0.9712336E-02 -0.4568100E-03
  0.8857143E+00  0.1205937E-02 -0.1678467E-03  0.8867300E+04  0.3855212E+04 -0.6471142E-03 -0.3791809E-02
  0.9166667E+00 -0.4327947E-03 -0.2288818E-03  0.8679070E+04  0.4099206E+04  0.1715573E-02 -0.3093719E-02
  0.9476191E+00 -0.1867860E-02  0.3051758E-03  0.8487045E+04  0.4338828E+04  0.6723691E-02  0.5054474E-04
  0.9785714E+00 -0.2183009E-03 -0.1220703E-03  0.8293343E+04  0.4572752E+04  0.7324776E-02 -0.1013756E-02
  0.1009524E+01 -0.2267226E-02 -0.6103516E-03  0.8092469E+04  0.4800828E+04  0.9477949E-02  0.2870560E-02
  0.1040476E+01 -0.2639736E-02  0.3662109E-03  0.7892721E+04  0.5020962E+04 -0.1359281E-02 -0.1497269E-02
  0.1071429E+01 -0.2193197E-02  0.1098633E-02  0.7687564E+04  0.5232913E+04  0.2914174E-02 -0.9250641E-04
  0.1102381E+01  0.1107333E-03 -0.6408691E-03  0.7485337E+04  0.5434266E+04  0.6936405E-02  0.3105164E-02
  0.1133333E+01 -0.8886001E-03 -0.9765625E-03  0.7284044E+04  0.5625475E+04 -0.7279621E-02  0.2130508E-02
  0.1164286E+01 -0.3119158E-02  0.4577637E-03  0.7081102E+04  0.5806109E+04 -0.1933092E-03 -0.6875992E-03
  0.1195238E+01 -0.1659621E-02 -0.1190186E-02  0.6885799E+04  0.5974571E+04  0.3726967E-02 -0.4024506E-03
  0.1226190E+01  0.4977625E-03  0.5493164E-03  0.6692250E+04  0.6131304E+04  0.4594970E-02  0.4356384E-02
  0.1257143E+01 -0.1213767E-02 -0.3082275E-02  0.6503057E+04  0.6279568E+04  0.1904097E-02 -0.4613876E-02
  0.1288095E+01  0.1895362E-02  0.8850098E-03  0.6320683E+04  0.6406769E+04 -0.1319349E-02 -0.4398346E-02
  0.1319048E+01 -0.2892009E-02 -0.4272461E-02  0.6139909E+04  0.6527147E+04  0.3704663E-02 -0.4859924E-02
  0.1350000E+01 -0.1039858E-02 -0.1281738E-02  0.5960736E+04  0.6635395E+04  0.2093845E-02  0.9632111E-03
  0.1380952E+01  0.1149145E-02 -0.1770020E-02  0.5792356E+04  0.6729637E+04 -0.4778895E-02  0.3926277E-02
  0.1411905E+01 -0.1621085E-02 -0.2990723E-02  0.5613700E+04  0.6807119E+04 -0.3731874E-02 -0.3309250E-03
  0.1442857E+01  0.9729366E-03 -0.3967285E-03  0.5455753E+04  0.6877396E+04 -0.3682222E-02 -0.8068085E-02
  0.1473810E+01 -0.1325222E-02 -0.7019043E-03  0.5305690E+04  0.6933663E+04 -0.1153099E-02 -0.2536774E-03
  0.1504762E+01  0.1014033E-03 -0.1434326E-02  0.5163080E+04  0.6980161E+04 -0.6914440E-03 -0.1767159E-02
  0.1535714E+01 -0.1013467E-02  0.1281738E-02  0.5024295E+04  0.7015537E+04  0.4681698E-02 -0.1585007E-02
  0.1566667E+01 -0.7012550E-03 -0.1464844E-02  0.4892699E+04  0.7041158E+04 -0.5003746E-03  0.1216888E-02
  0.1597619E+01 -0.9168918E-03 -0.5493164E-03  0.4770583E+04  0.7056150E+04 -0.1894671E-02 -0.7648468E-03
  0.1628572E+01 -0.8619877E-03  0.9765625E-03  0.4651535E+04  0.7061975E+04  0.3965026E-02  0.2382278E-02
  0.1659524E+01 -0.1121751E-02  0.1586914E-02  0.4539964E+04  0.7058724E+04  0.6706369E-03  0.6879807E-02
  0.1690476E+01  0.1065106E-02 -0.1525879E-02  0.4434606E+04  0.7044474E+04  0.3088132E-02  0.6828308E-03
  0.1721429E+01 -0.4786575E-03  0.1525879E-02  0.4337471E+04  0.7022189E+04 -0.9384789E-03 -0.1882553E-02
  0.1752381E+01 -0.5224477E-04  0.2075195E-02  0.4245278E+04  0.6995475E+04  0.1142854E-04 -0.1979828E-02
  0.1783333E+01 -0.3764785E-03 -0.1831055E-03  0.4154599E+04  0.6958782E+04 -0.3463709E-02 -0.1657486E-02
  0.1814286E+01 -0.8746771E-03  0.1708984E-02  0.4072940E+04  0.6917528E+04  0.5151869E-02  0.5702972E-03
  0.1845238E+01 -0.3473097E-03 -0.4211426E-02  0.3999293E+04  0.6869811E+04  0.4838562E-02  0.3150940E-02
  0.1876190E+01  0.4391743E-03 -0.1220703E-03  0.3928215E+04  0.6815408E+04  0.2317864E-03 -0.3814697E-05
  0.1907143E+01  0.4640501E-03  0.8544922E-03  0.3862474E+04  0.6755759E+04 -0.9751053E-04  0.7343292E-03
  0.1938095E+01 -0.1889540E-03  0.1342773E-02  0.3802744E+04  0.6690562E+04  0.1100264E-02  0.1575470E-02
  0.1969048E+01 -0.8214284E-03  0.1037598E-02  0.3749797E+04  0.6618637E+04  0.6131653E-03  0.1201630E-02
  0.2000000E+01 -0.1068115E-02 -0.6713867E-03  0.3699632E+04  0.6548648E+04  0.2947330E-02  0.2161026E-02
Zone t="Motion of body    1 in DoF   3",I=    64,F=POINT
  0.5000000E-01 -0.8726581E+05 -0.2642955E-02  0.4587173E-02  0.1176771E-04  0.3092449E+06  0.5754312E-02
  0.8095238E-01 -0.8792605E+05 -0.1083810E-01 -0.3522424E-02 -0.5994101E-05  0.3101951E+06  0.2316527E-01
  0.1119048E+00 -0.8807195E+05 -0.3020397E-01  0.9919836E-02  0.7507284E-04  0.3103229E+06  0.6269722E-01
  0.1428571E+00 -0.8816155E+05 -0.6758694E-01  0.2563477E-02  0.3922972E-04  0.3104315E+06  0.1413577E+00
  0.1738095E+00 -0.8822469E+05 -0.1342730E+00 -0.1042510E-02  0.1782569E-04  0.3104651E+06  0.2801460E+00
  0.2047619E+00 -0.8827352E+05 -0.2476817E+00 -0.6352801E-02 -0.4491291E-04  0.3105286E+06  0.5160013E+00
  0.2357143E+00 -0.8832920E+05 -0.4349821E+00 -0.3366181E-02 -0.1020867E-03  0.3106243E+06  0.9046981E+00
  0.2666667E+00 -0.8837684E+05 -0.7381580E+00  0.1845360E-02  0.8123228E-04  0.3106758E+06  0.1532147E+01
  0.2976190E+00 -0.8840039E+05 -0.1231512E+01  0.1020264E-01  0.2660356E-03  0.3107434E+06  0.2550856E+01
  0.3285715E+00 -0.8851171E+05 -0.2028301E+01 -0.5224476E-03  0.5386863E-04  0.3108456E+06  0.4186350E+01
  0.3595238E+00 -0.8854686E+05 -0.3309235E+01  0.1485458E-03 -0.1312047E-03  0.3109361E+06  0.6805500E+01
  0.3904762E+00 -0.8861708E+05 -0.5356395E+01 -0.1934330E-02 -0.7174909E-04  0.3110096E+06  0.1097367E+02
  0.4214286E+00 -0.8869911E+05 -0.8555902E+01 -0.4326771E-02 -0.1753829E-03  0.3111372E+06  0.1745329E+02
  0.4523810E+00 -0.8880849E+05 -0.1354770E+02  0.1011899E-03  0.3667399E-03  0.3112880E+06  0.2751784E+02
  0.4833333E+00 -0.8893636E+05 -0.2090023E+02  0.1436431E-01  0.9119511E-03  0.3114661E+06  0.4225251E+02
  0.5142857E+00 -0.8901802E+05 -0.3169103E+02 -0.6037818E-02 -0.5866140E-03  0.3116359E+06  0.6377789E+02
  0.5452381E+00 -0.8925670E+05 -0.4696473E+02  0.6926424E-02  0.6480217E-03  0.3119058E+06  0.9396731E+02
  0.5761905E+00 -0.8937720E+05 -0.6784466E+02  0.1324110E-03  0.2331436E-03  0.3121096E+06  0.1349938E+03
  0.6071429E+00 -0.8952497E+05 -0.9619321E+02  0.4662008E-02  0.1076400E-02  0.3123446E+06  0.1903194E+03
  0.6380953E+00 -0.8976870E+05 -0.1333460E+03  0.1410869E-02  0.3846288E-03  0.3126883E+06  0.2622830E+03
  0.6690477E+00 -0.8992975E+05 -0.1815771E+03 -0.7070086E-03  0.4270077E-03  0.3129296E+06  0.3548188E+03
  0.7000000E+00 -0.9015774E+05 -0.2436234E+03  0.2386910E-02  0.6841421E-03  0.3132411E+06  0.4727479E+03
  0.7309524E+00 -0.9046680E+05 -0.3218071E+03 -0.2150147E-02  0.2163172E-02  0.3136328E+06  0.6199412E+03
  0.7619048E+00 -0.9065075E+05 -0.4188912E+03  0.6548881E-02  0.3272772E-02  0.3139135E+06  0.8011661E+03
  0.7928572E+00 -0.9088613E+05 -0.5384553E+03 -0.1014228E-01 -0.1390934E-02  0.3142842E+06  0.1022574E+04
  0.8238096E+00 -0.9117715E+05 -0.6848154E+03  0.7038447E-02  0.3313065E-02  0.3146352E+06  0.1289910E+04
  0.8547620E+00 -0.9152732E+05 -0.8616519E+03  0.3570301E-03 -0.1094818E-02  0.3150933E+06  0.1609513E+04
  0.8857143E+00 -0.9178080E+05 -0.1072661E+04 -0.6201959E-03 -0.7686615E-03  0.3154190E+06  0.1986388E+04
  0.9166667E+00 -0.9208127E+05 -0.1322870E+04 -0.1095304E-01 -0.5233765E-02  0.3158200E+06  0.2428393E+04
  0.9476191E+00 -0.9239289E+05 -0.1617406E+04  0.3816231E-02  0.5760193E-03  0.3161786E+06  0.2941447E+04
  0.9785714E+00 -0.9274332E+05 -0.1960396E+04  0.4147718E-02  0.5356789E-02  0.3166132E+06  0.3533053E+04
  0.1009524E+01 -0.9298584E+05 -0.2355648E+04 -0.3083427E-02  0.1506805E-03  0.3168867E+06  0.4205568E+04
  0.1040476E+01 -0.9331456E+05 -0.2811441E+04 -0.2507749E-02 -0.7820129E-04  0.3172887E+06  0.4970131E+04
  0.1071429E+01 -0.9359135E+05 -0.3331687E+04 -0.1922608E-02 -0.2176285E-02  0.3175441E+06  0.5827706E+04
  0.1102381E+01 -0.9395155E+05 -0.3923673E+04  0.1494900E-02  0.1197815E-02  0.3178512E+06  0.6788811E+04
  0.1133333E+01 -0.9427737E+05 -0.4588581E+04  0.7283828E-02  0.4623413E-02  0.3181815E+06  0.7855153E+04
  0.1164286E+01 -0.9448184E+05 -0.5328870E+04  0.6146577E-02  0.3921509E-02  0.3182937E+06  0.9021080E+04
  0.1195238E+01 -0.9471825E+05 -0.6152659E+04  0.4187352E-02  0.3238678E-02  0.3184842E+06  0.1030024E+05
  0.1226190E+01 -0.9488978E+05 -0.7059419E+04  0.3882547E-02  0.3833771E-02  0.3185321E+06  0.1168302E+05
  0.1257143E+01 -0.9502135E+05 -0.8050824E+04  0.4151084E-02  0.7400513E-02  0.3184958E+06  0.1316880E+05
  0.1288095E+01 -0.9526130E+05 -0.9144173E+04  0.4075028E-02  0.2693176E-02  0.3185423E+06  0.1477375E+05
  0.1319048E+01 -0.9536296E+05 -0.1032092E+05  0.6640052E-02  0.9002686E-02  0.3184377E+06  0.1647016E+05
  0.1350000E+01 -0.9535768E+05 -0.1158445E+05  0.1898872E-02  0.2113342E-02  0.3181403E+06  0.1824645E+05
  0.1380952E+01 -0.9538999E+05 -0.1294352E+05 -0.2099399E-02  0.9078979E-03  0.3179251E+06  0.2012715E+05
  0.1411905E+01 -0.9526688E+05 -0.1433264E+05 -0.4560654E-02 -0.4882812E-02  0.3175052E+06  0.2203362E+05
  0.1442857E+01 -0.9513709E+05 -0.1584509E+05  0.9940874E-03  0.5615234E-02  0.3170157E+06  0.2402976E+05
  0.1473810E+01 -0.9500088E+05 -0.1743169E+05 -0.5818553E-02 -0.2059937E-02  0.3164651E+06  0.2607302E+05
  0.1504762E+01 -0.9475726E+05 -0.1907590E+05 -0.4907922E-02  0.1220703E-03  0.3158582E+06  0.2814786E+05
  0.1535714E+01 -0.9438290E+05 -0.2075665E+05  0.9538517E-03  0.4150391E-02  0.3150417E+06  0.3019591E+05
  0.1566667E+01 -0.9391973E+05 -0.2247203E+05 -0.1266155E-02 -0.1052856E-02  0.3141315E+06  0.3222477E+05
  0.1597619E+01 -0.9345799E+05 -0.2422676E+05  0.2693370E-02  0.2441406E-02  0.3132597E+06  0.3424681E+05
  0.1628572E+01 -0.9287242E+05 -0.2597859E+05  0.1442892E-02  0.5157471E-02  0.3121877E+06  0.3616845E+05
  0.1659524E+01 -0.9224098E+05 -0.2773459E+05 -0.1967661E-02  0.2212524E-02  0.3110754E+06  0.3802486E+05
  0.1690476E+01 -0.9158458E+05 -0.2947218E+05 -0.5596322E-02 -0.3662109E-03  0.3098958E+06  0.3977131E+05
  0.1721429E+01 -0.9090462E+05 -0.3118677E+05  0.1471429E-02  0.2105713E-02  0.3087589E+06  0.4143712E+05
  0.1752381E+01 -0.9011735E+05 -0.3283352E+05  0.4005432E-03  0.5401611E-02  0.3075640E+06  0.4296914E+05
  0.1783333E+01 -0.8919927E+05 -0.3436015E+05  0.3182955E-02  0.4028320E-02  0.3061646E+06  0.4421493E+05
  0.1814286E+01 -0.8827580E+05 -0.3582370E+05  0.3078190E-02 -0.5798340E-03  0.3048536E+06  0.4536267E+05
  0.1845238E+01 -0.8737455E+05 -0.3721324E+05 -0.6615424E-04  0.2685547E-02  0.3036259E+06  0.4637262E+05
  0.1876190E+01 -0.8638584E+05 -0.3844686E+05  0.6343629E-03  0.3631592E-02  0.3022853E+06  0.4709817E+05
  0.1907143E+01 -0.8537377E+05 -0.3955129E+05 -0.1280138E-03 -0.2685547E-02  0.3009544E+06  0.4761823E+05
  0.1938095E+01 -0.8438932E+05 -0.4053358E+05  0.1417155E-02 -0.3112793E-02  0.2996777E+06  0.4795575E+05
  0.1969048E+01 -0.8345750E+05 -0.4139213E+05  0.2107816E-02  0.5340576E-02  0.2984815E+06  0.4810034E+05
  0.2000000E+01 -0.8248866E+05 -0.4210362E+05  0.2105713E-02  0.9460449E-03  0.2973637E+06  0.4810504E+05
