VARIABLES="w (rad/s)"
"abs(F   1   1)" "angle(F   1   1)"
"abs(F   1   2)" "angle(F   1   2)"
"abs(F   1   3)" "angle(F   1   3)"
Zone t="Diffraction force - beta =   0.000 deg",I=    64,F=POINT
  0.5000000E-01  0.4175701E+04 -0.1570794E+01  0.2941967E+03 -0.3076040E+01  0.9095052E+04  0.1570799E+01
  0.8095238E-01  0.6827662E+04 -0.1570789E+01  0.7591542E+03 -0.3073433E+01  0.1484141E+05  0.1570802E+01
  0.1119048E+00  0.9527828E+04 -0.1570781E+01  0.1438295E+04 -0.3070441E+01  0.2068377E+05  0.1570809E+01
  0.1428571E+00  0.1231315E+05 -0.1570770E+01  0.2333691E+04 -0.3066793E+01  0.2668397E+05  0.1570818E+01
  0.1738095E+00  0.1520885E+05 -0.1570753E+01  0.3450398E+04 -0.3062307E+01  0.3291048E+05  0.1570832E+01
  0.2047619E+00  0.1823616E+05 -0.1570729E+01  0.4794025E+04 -0.3056730E+01  0.3940932E+05  0.1570852E+01
  0.2357143E+00  0.2146779E+05 -0.1570693E+01  0.6370924E+04 -0.3049732E+01  0.4625565E+05  0.1570881E+01
  0.2666667E+00  0.2489168E+05 -0.1570641E+01  0.8193117E+04 -0.3041351E+01  0.5356400E+05  0.1570923E+01
  0.2976190E+00  0.2860427E+05 -0.1570565E+01  0.1026308E+05 -0.3030787E+01  0.6138344E+05  0.1570986E+01
  0.3285715E+00  0.3267270E+05 -0.1570451E+01  0.1259390E+05 -0.3018285E+01  0.6984427E+05  0.1571079E+01
  0.3595238E+00  0.3709446E+05 -0.1570282E+01  0.1518181E+05 -0.3003134E+01  0.7907061E+05  0.1571217E+01
  0.3904762E+00  0.4193777E+05 -0.1570028E+01  0.1804266E+05 -0.2985388E+01  0.8912717E+05  0.1571424E+01
  0.4214286E+00  0.4735576E+05 -0.1569661E+01  0.2111230E+05 -0.2965458E+01  0.1001401E+06  0.1571724E+01
  0.4523810E+00  0.5323867E+05 -0.1569122E+01  0.2442726E+05 -0.2942530E+01  0.1121187E+06  0.1572162E+01
  0.4833333E+00  0.5961727E+05 -0.1568379E+01  0.2792443E+05 -0.2919580E+01  0.1250281E+06  0.1572765E+01
  0.5142857E+00  0.6649554E+05 -0.1567351E+01  0.3157924E+05 -0.2894637E+01  0.1388045E+06  0.1573599E+01
  0.5452381E+00  0.7391635E+05 -0.1565990E+01  0.3537714E+05 -0.2869942E+01  0.1533565E+06  0.1574703E+01
  0.5761905E+00  0.8173441E+05 -0.1564230E+01  0.3929506E+05 -0.2845892E+01  0.1686452E+06  0.1576126E+01
  0.6071429E+00  0.8984464E+05 -0.1561966E+01  0.4332296E+05 -0.2821365E+01  0.1844272E+06  0.1577954E+01
  0.6380953E+00  0.9829487E+05 -0.1559161E+01  0.4747466E+05 -0.2798600E+01  0.2005487E+06  0.1580213E+01
  0.6690477E+00  0.1071410E+06 -0.1555711E+01  0.5167618E+05 -0.2776044E+01  0.2170278E+06  0.1582991E+01
  0.7000000E+00  0.1162180E+06 -0.1551496E+01  0.5591821E+05 -0.2753421E+01  0.2337422E+06  0.1586378E+01
  0.7309524E+00  0.1254820E+06 -0.1546447E+01  0.6025343E+05 -0.2732173E+01  0.2506015E+06  0.1590422E+01
  0.7619048E+00  0.1349547E+06 -0.1540450E+01  0.6464143E+05 -0.2711713E+01  0.2675804E+06  0.1595212E+01
  0.7928572E+00  0.1444787E+06 -0.1533388E+01  0.6902093E+05 -0.2691503E+01  0.2843735E+06  0.1600834E+01
  0.8238096E+00  0.1542364E+06 -0.1525190E+01  0.7339567E+05 -0.2671834E+01  0.3010394E+06  0.1607350E+01
  0.8547620E+00  0.1640914E+06 -0.1515757E+01  0.7776857E+05 -0.2652996E+01  0.3173478E+06  0.1614831E+01
  0.8857143E+00  0.1740063E+06 -0.1504989E+01  0.8211551E+05 -0.2634943E+01  0.3335682E+06  0.1623335E+01
  0.9166667E+00  0.1836511E+06 -0.1492764E+01  0.8642812E+05 -0.2617637E+01  0.3490314E+06  0.1632932E+01
  0.9476191E+00  0.1932130E+06 -0.1479071E+01  0.9070096E+05 -0.2601204E+01  0.3640153E+06  0.1643625E+01
  0.9785714E+00  0.2024751E+06 -0.1463844E+01  0.9492443E+05 -0.2585650E+01  0.3780624E+06  0.1655440E+01
  0.1009524E+01  0.2114871E+06 -0.1447121E+01  0.9906641E+05 -0.2570745E+01  0.3911560E+06  0.1668338E+01
  0.1040476E+01  0.2199788E+06 -0.1428835E+01  0.1031035E+06 -0.2556379E+01  0.4029691E+06  0.1682323E+01
  0.1071429E+01  0.2280052E+06 -0.1409055E+01  0.1070474E+06 -0.2542869E+01  0.4136260E+06  0.1697313E+01
  0.1102381E+01  0.2353160E+06 -0.1387810E+01  0.1108943E+06 -0.2530239E+01  0.4227532E+06  0.1713224E+01
  0.1133333E+01  0.2418017E+06 -0.1365181E+01  0.1146584E+06 -0.2518687E+01  0.4303633E+06  0.1729924E+01
  0.1164286E+01  0.2473367E+06 -0.1341331E+01  0.1183413E+06 -0.2508164E+01  0.4362558E+06  0.1747208E+01
  0.1195238E+01  0.2516697E+06 -0.1316335E+01  0.1219201E+06 -0.2498500E+01  0.4401758E+06  0.1764912E+01
  0.1226190E+01  0.2547878E+06 -0.1290449E+01  0.1254050E+06 -0.2489771E+01  0.4421063E+06  0.1782773E+01
  0.1257143E+01  0.2566646E+06 -0.1263869E+01  0.1287888E+06 -0.2481432E+01  0.4420614E+06  0.1800564E+01
  0.1288095E+01  0.2572427E+06 -0.1237322E+01  0.1320437E+06 -0.2474402E+01  0.4396771E+06  0.1817693E+01
  0.1319048E+01  0.2564643E+06 -0.1210616E+01  0.1352054E+06 -0.2467891E+01  0.4353015E+06  0.1834152E+01
  0.1350000E+01  0.2543453E+06 -0.1184139E+01  0.1382705E+06 -0.2462193E+01  0.4291973E+06  0.1849541E+01
  0.1380952E+01  0.2507534E+06 -0.1158087E+01  0.1412280E+06 -0.2457317E+01  0.4211684E+06  0.1863561E+01
  0.1411905E+01  0.2447874E+06 -0.1134092E+01  0.1439714E+06 -0.2453232E+01  0.4111399E+06  0.1874463E+01
  0.1442857E+01  0.2386652E+06 -0.1110001E+01  0.1468084E+06 -0.2449912E+01  0.4002747E+06  0.1884689E+01
  0.1473810E+01  0.2311455E+06 -0.1087254E+01  0.1495719E+06 -0.2447010E+01  0.3877542E+06  0.1892526E+01
  0.1504762E+01  0.2225798E+06 -0.1066312E+01  0.1523232E+06 -0.2444782E+01  0.3743648E+06  0.1897715E+01
  0.1535714E+01  0.2130072E+06 -0.1047583E+01  0.1550387E+06 -0.2443111E+01  0.3600938E+06  0.1899818E+01
  0.1566667E+01  0.2025411E+06 -0.1031013E+01  0.1577236E+06 -0.2441398E+01  0.3455413E+06  0.1898989E+01
  0.1597619E+01  0.1911527E+06 -0.1017167E+01  0.1603431E+06 -0.2439571E+01  0.3302887E+06  0.1894575E+01
  0.1628572E+01  0.1791161E+06 -0.1006421E+01  0.1629603E+06 -0.2437499E+01  0.3150209E+06  0.1886682E+01
  0.1659524E+01  0.1666118E+06 -0.9994516E+00  0.1655661E+06 -0.2435216E+01  0.2999841E+06  0.1875099E+01
  0.1690476E+01  0.1535772E+06 -0.9968094E+00  0.1681225E+06 -0.2432262E+01  0.2849811E+06  0.1859517E+01
  0.1721429E+01  0.1402425E+06 -0.9993996E+00  0.1706474E+06 -0.2428711E+01  0.2704672E+06  0.1840100E+01
  0.1752381E+01  0.1266832E+06 -0.1008719E+01  0.1730772E+06 -0.2424169E+01  0.2563726E+06  0.1816485E+01
  0.1783333E+01  0.1130726E+06 -0.1026537E+01  0.1753823E+06 -0.2418409E+01  0.2429626E+06  0.1788866E+01
  0.1814286E+01  0.9952130E+05 -0.1055095E+01  0.1774557E+06 -0.2410786E+01  0.2304568E+06  0.1758018E+01
  0.1845238E+01  0.8606990E+05 -0.1099361E+01  0.1791971E+06 -0.2401602E+01  0.2184498E+06  0.1722782E+01
  0.1876190E+01  0.7306798E+05 -0.1165989E+01  0.1805184E+06 -0.2390864E+01  0.2074053E+06  0.1684584E+01
  0.1907143E+01  0.6084230E+05 -0.1266818E+01  0.1813891E+06 -0.2378910E+01  0.1972866E+06  0.1643475E+01
  0.1938095E+01  0.4983762E+05 -0.1421341E+01  0.1817152E+06 -0.2365998E+01  0.1879000E+06  0.1599303E+01
  0.1969048E+01  0.4099263E+05 -0.1655777E+01  0.1814340E+06 -0.2352315E+01  0.1793829E+06  0.1553305E+01
  0.2000000E+01  0.3581513E+05 -0.1985308E+01  0.1805346E+06 -0.2338458E+01  0.1716775E+06  0.1506087E+01
