VARIABLES="w (rad/s)"
"A   1   1" "B   1   1"
"A   1   2" "B   1   2"
"A   1   3" "B   1   3"
Zone t="Motion of body    1 in DoF   1",I=    64,F=POINT
  0.5000000E-01  0.7526555E+05  0.1053752E-01 -0.3967285E-02  0.1687018E-05  0.1790041E+05  0.1795142E-01
  0.8095238E-01  0.7532643E+05  0.4634973E-01  0.1064974E-01  0.8274463E-04  0.1760387E+05  0.7888059E-01
  0.1119048E+00  0.7579268E+05  0.1301743E+00 -0.7669976E-02 -0.1401571E-03  0.1742039E+05  0.2202969E+00
  0.1428571E+00  0.7588818E+05  0.2935887E+00  0.3476715E-01  0.4364606E-03  0.1715631E+05  0.4958273E+00
  0.1738095E+00  0.7623685E+05  0.5858790E+00  0.5311313E-02  0.1718691E-03  0.1729964E+05  0.9855955E+00
  0.2047619E+00  0.7622685E+05  0.1082269E+01 -0.4284881E-02 -0.1336001E-03  0.1759358E+05  0.1815038E+01
  0.2357143E+00  0.7671158E+05  0.1912058E+01  0.1780192E-02  0.6719306E-04  0.1749758E+05  0.3187519E+01
  0.2666667E+00  0.7693756E+05  0.3270646E+01 -0.1613617E-01 -0.4447587E-03  0.1805118E+05  0.5428526E+01
  0.2976190E+00  0.7709287E+05  0.5498157E+01  0.1943115E-01  0.1000240E-02  0.1804987E+05  0.9073413E+01
  0.3285715E+00  0.7779925E+05  0.9141464E+01  0.9102198E-02  0.5884171E-03  0.1835448E+05  0.1496311E+02
  0.3595238E+00  0.7819666E+05  0.1506361E+02  0.1209587E-01  0.8279979E-03  0.1873967E+05  0.2448453E+02
  0.3904762E+00  0.7823112E+05  0.2461930E+02  0.3024589E-01  0.2350837E-02  0.1952777E+05  0.3981284E+02
  0.4214286E+00  0.7906580E+05  0.3982138E+02  0.4344875E-03  0.4765391E-03  0.1921129E+05  0.6364537E+02
  0.4523810E+00  0.7989103E+05  0.6384852E+02 -0.1436896E-01 -0.1288772E-02  0.2019735E+05  0.1011701E+03
  0.4833333E+00  0.8033939E+05  0.9974673E+02  0.3662109E-01  0.4906535E-02  0.2066162E+05  0.1565250E+03
  0.5142857E+00  0.8064835E+05  0.1531377E+03  0.3109402E-01  0.5488157E-02  0.2141257E+05  0.2383067E+03
  0.5452381E+00  0.8181180E+05  0.2302315E+03  0.9515088E-02  0.1667976E-02  0.2177154E+05  0.3535846E+03
  0.5761905E+00  0.8293095E+05  0.3380218E+03 -0.9533589E-03  0.5254745E-03  0.2214251E+05  0.5117901E+03
  0.6071429E+00  0.8369184E+05  0.4863464E+03  0.1533059E-01  0.5159378E-02  0.2354490E+05  0.7290460E+03
  0.6380953E+00  0.8433188E+05  0.6839694E+03  0.1209999E-01  0.4487991E-02  0.2426845E+05  0.1012930E+04
  0.6690477E+00  0.8553052E+05  0.9467450E+03 -0.8849011E-02 -0.4203796E-02  0.2443941E+05  0.1380071E+04
  0.7000000E+00  0.8702953E+05  0.1291676E+04  0.5580357E-02  0.2733231E-02  0.2559769E+05  0.1854935E+04
  0.7309524E+00  0.8839273E+05  0.1734208E+04 -0.1010360E-01 -0.3370285E-02  0.2660314E+05  0.2451136E+04
  0.7619048E+00  0.8962075E+05  0.2296193E+04 -0.3284454E-02 -0.4730225E-03  0.2728570E+05  0.3189752E+04
  0.7928572E+00  0.9069412E+05  0.2999663E+04 -0.5465670E-02  0.3433228E-03  0.2864804E+05  0.4107826E+04
  0.8238096E+00  0.9196154E+05  0.3872915E+04 -0.2370845E-02 -0.1945496E-03  0.2979144E+05  0.5222001E+04
  0.8547620E+00  0.9387923E+05  0.4951038E+04 -0.1728026E-01 -0.1064301E-01  0.3003629E+05  0.6539056E+04
  0.8857143E+00  0.9569184E+05  0.6263549E+04 -0.1591836E-01 -0.1548767E-01  0.3055206E+05  0.8092799E+04
  0.9166667E+00  0.9737138E+05  0.7842732E+04  0.8589311E-02  0.9063721E-02  0.3173054E+05  0.9937279E+04
  0.9476191E+00  0.9883229E+05  0.9721605E+04  0.1610224E-02  0.2639771E-02  0.3286303E+05  0.1207887E+05
  0.9785714E+00  0.1001899E+06  0.1194026E+05  0.2164298E-01  0.1498413E-01  0.3330655E+05  0.1450735E+05
  0.1009524E+01  0.1014730E+06  0.1453003E+05 -0.9008444E-02  0.4272461E-03  0.3322791E+05  0.1722635E+05
  0.1040476E+01  0.1026764E+06  0.1750596E+05  0.2229110E-02  0.7476807E-02  0.3343949E+05  0.2031787E+05
  0.1071429E+01  0.1041375E+06  0.2090258E+05 -0.6038412E-02 -0.7324219E-03  0.3331839E+05  0.2373529E+05
  0.1102381E+01  0.1052597E+06  0.2474751E+05  0.6477899E-02  0.4882812E-02  0.3297806E+05  0.2739965E+05
  0.1133333E+01  0.1062461E+06  0.2906553E+05  0.8509018E-02  0.3036499E-01  0.3194620E+05  0.3127600E+05
  0.1164286E+01  0.1068408E+06  0.3383822E+05  0.1090395E-01  0.1892090E-01  0.3042532E+05  0.3528838E+05
  0.1195238E+01  0.1070534E+06  0.3901247E+05 -0.2349002E-02 -0.5004883E-02  0.2910787E+05  0.3958095E+05
  0.1226190E+01  0.1071320E+06  0.4455115E+05 -0.3683442E-02 -0.1214600E-01  0.2750134E+05  0.4405847E+05
  0.1257143E+01  0.1067088E+06  0.5046234E+05  0.2573187E-02 -0.1226807E-01  0.2567514E+05  0.4849472E+05
  0.1288095E+01  0.1060651E+06  0.5670135E+05  0.1440475E-01  0.1873779E-01  0.2313907E+05  0.5272247E+05
  0.1319048E+01  0.1050275E+06  0.6321033E+05  0.1013360E-01  0.1171875E-01  0.2003083E+05  0.5670096E+05
  0.1350000E+01  0.1035718E+06  0.6987084E+05  0.3888165E-02 -0.1190186E-01  0.1648856E+05  0.6028433E+05
  0.1380952E+01  0.1017808E+06  0.7652757E+05  0.8088211E-02  0.2655029E-01  0.1328859E+05  0.6388206E+05
  0.1411905E+01  0.9918843E+05  0.8326117E+05  0.7392150E-02 -0.2954102E-01  0.1030305E+05  0.6727935E+05
  0.1442857E+01  0.9665988E+05  0.8986098E+05  0.1374802E-01 -0.1397705E-01  0.7039201E+04  0.7006058E+05
  0.1473810E+01  0.9382723E+05  0.9632939E+05  0.9856340E-02  0.1245117E-01  0.3355071E+04  0.7212048E+05
  0.1504762E+01  0.9087097E+05  0.1025953E+06  0.7301041E-02  0.1831055E-02 -0.5990629E+03  0.7346223E+05
  0.1535714E+01  0.8768103E+05  0.1086322E+06  0.6915424E-02 -0.1110840E-01 -0.4587071E+04  0.7386825E+05
  0.1566667E+01  0.8429655E+05  0.1143579E+06  0.1160967E-01 -0.2697754E-01 -0.8441478E+04  0.7366155E+05
  0.1597619E+01  0.8080408E+05  0.1196276E+06  0.1642764E-02 -0.2636719E-01 -0.1169074E+05  0.7355755E+05
  0.1628572E+01  0.7729386E+05  0.1245161E+06  0.3991378E-02  0.1232910E-01 -0.1470601E+05  0.7303204E+05
  0.1659524E+01  0.7372498E+05  0.1290182E+06  0.6473054E-02  0.4760742E-02 -0.1742232E+05  0.7194701E+05
  0.1690476E+01  0.7008630E+05  0.1331703E+06  0.7266192E-02  0.1928711E-01 -0.2012627E+05  0.7010899E+05
  0.1721429E+01  0.6655272E+05  0.1370608E+06 -0.2765576E-02  0.1953125E-02 -0.2289178E+05  0.6748132E+05
  0.1752381E+01  0.6305777E+05  0.1406321E+06  0.7440526E-02  0.5737305E-02 -0.2544769E+05  0.6399029E+05
  0.1783333E+01  0.5951271E+05  0.1437838E+06 -0.4410788E-02  0.2233887E-01 -0.2760377E+05  0.5983854E+05
  0.1814286E+01  0.5607348E+05  0.1465625E+06  0.9596743E-02  0.1696777E-01 -0.2947778E+05  0.5566930E+05
  0.1845238E+01  0.5275059E+05  0.1489174E+06  0.1712981E-01 -0.1708984E-02 -0.3098381E+05  0.5201292E+05
  0.1876190E+01  0.4945364E+05  0.1509178E+06  0.2728574E-02  0.2478027E-01 -0.3207167E+05  0.4819303E+05
  0.1907143E+01  0.4624543E+05  0.1526462E+06  0.2400259E-02  0.1702881E-01 -0.3293197E+05  0.4409668E+05
  0.1938095E+01  0.4307118E+05  0.1540182E+06  0.1952525E-02  0.3527832E-01 -0.3359268E+05  0.3967841E+05
  0.1969048E+01  0.3994039E+05  0.1550561E+06  0.6958894E-02 -0.2557373E-01 -0.3400606E+05  0.3461962E+05
  0.2000000E+01  0.3690185E+05  0.1557559E+06  0.6134033E-02 -0.8789062E-02 -0.3413435E+05  0.2919308E+05
Zone t="Motion of body    1 in DoF   2",I=    64,F=POINT
  0.5000000E-01 -0.8392334E-02 -0.0000000E+00  0.3629572E+06  0.9577310E+03  0.6103516E-02 -0.4959106E-04
  0.8095238E-01 -0.2073400E-02 -0.2479553E-04  0.3577452E+06  0.1586231E+04 -0.3769818E-02  0.4577637E-04
  0.1119048E+00 -0.5045140E-02 -0.9536743E-05  0.3550463E+06  0.2267911E+04  0.6545046E-02 -0.1068115E-03
  0.1428571E+00  0.6195068E-02  0.7247925E-04  0.3534310E+06  0.3026301E+04  0.2307129E-01 -0.1831055E-03
  0.1738095E+00 -0.1755806E-03  0.9155273E-04  0.3528501E+06  0.3892897E+04  0.4284166E-01 -0.1678467E-03
  0.2047619E+00 -0.9538517E-02 -0.1907349E-03  0.3526042E+06  0.4905385E+04  0.4173101E-01  0.3662109E-03
  0.2357143E+00 -0.1294685E-03  0.1831055E-03  0.3530670E+06  0.6116380E+04  0.4142992E-01 -0.2136230E-03
  0.2666667E+00 -0.7438659E-02  0.1373291E-03  0.3538002E+06  0.7568494E+04  0.5126953E-01  0.5798340E-03
  0.2976190E+00  0.1845703E-02 -0.6179810E-03  0.3547231E+06  0.9360156E+04 -0.1640625E-01  0.7629395E-03
  0.3285715E+00 -0.1857591E-03 -0.2746582E-03  0.3558104E+06  0.1153646E+05  0.3195057E-01 -0.9155273E-03
  0.3595238E+00  0.7130199E-02 -0.4730225E-03  0.3567968E+06  0.1420920E+05  0.5975786E-01 -0.9765625E-03
  0.3904762E+00  0.3907738E-02 -0.6408691E-03  0.3575088E+06  0.1745884E+05  0.2250857E-01  0.7324219E-03
  0.4214286E+00 -0.8834579E-02 -0.8850098E-03  0.3573903E+06  0.2121858E+05  0.3939353E-01  0.1770020E-02
  0.4523810E+00 -0.1214278E-02  0.6408691E-03  0.3565900E+06  0.2567669E+05  0.1726974E-01 -0.1220703E-02
  0.4833333E+00 -0.8334455E-02 -0.6408691E-03  0.3549581E+06  0.3041506E+05  0.1010237E-02 -0.1220703E-03
  0.5142857E+00 -0.2373589E-02 -0.2441406E-03  0.3520882E+06  0.3567043E+05  0.3987630E-01  0.2441406E-03
  0.5452381E+00 -0.6716533E-03 -0.8544922E-03  0.3486467E+06  0.4110229E+05  0.1164199E-01 -0.1708984E-02
  0.5761905E+00  0.5296438E-02  0.6713867E-03  0.3447252E+06  0.4659488E+05  0.1271145E-01  0.7324219E-03
  0.6071429E+00 -0.5026424E-02  0.1525879E-02  0.3397300E+06  0.5230655E+05 -0.1206342E-01  0.4882812E-02
  0.6380953E+00 -0.1166956E-01 -0.2441406E-02  0.3348424E+06  0.5780284E+05  0.1530434E-01  0.1513672E-01
  0.6690477E+00 -0.6020977E-02 -0.1098633E-02  0.3295477E+06  0.6326719E+05  0.1605594E-01 -0.2441406E-03
  0.7000000E+00 -0.1220703E-02  0.2014160E-02  0.3236582E+06  0.6872486E+05  0.5231585E-01  0.6103516E-02
  0.7309524E+00 -0.2839029E-02 -0.3662109E-03  0.3180248E+06  0.7391594E+05  0.3340034E-01  0.9521484E-02
  0.7619048E+00 -0.3845214E-02 -0.1586914E-02  0.3123791E+06  0.7891056E+05  0.2114868E-01 -0.7324219E-02
  0.7928572E+00 -0.1062342E-01 -0.2319336E-02  0.3061768E+06  0.8374586E+05  0.4249366E-01  0.3417969E-02
  0.8238096E+00  0.2222667E-02 -0.1953125E-02  0.3000182E+06  0.8831655E+05  0.4148979E-02 -0.2441406E-02
  0.8547620E+00 -0.4855610E-02  0.4760742E-02  0.2941865E+06  0.9256669E+05  0.2284993E-01 -0.1269531E-01
  0.8857143E+00  0.2067320E-02  0.2563477E-02  0.2883587E+06  0.9649134E+05  0.2315398E-01 -0.9277344E-02
  0.9166667E+00 -0.7191051E-02  0.3295898E-02  0.2825281E+06  0.1000848E+06  0.3835227E-01  0.1416016E-01
  0.9476191E+00 -0.7471439E-02 -0.4272461E-02  0.2767259E+06  0.1033270E+06  0.1442761E-01  0.1611328E-01
  0.9785714E+00 -0.3742302E-02  0.1208496E-01  0.2712093E+06  0.1062027E+06  0.4640454E-01  0.1904297E-01
  0.1009524E+01 -0.4353074E-02  0.3173828E-02  0.2659900E+06  0.1086856E+06  0.6287773E-01 -0.2880859E-01
  0.1040476E+01 -0.6628669E-02 -0.6591797E-02  0.2606455E+06  0.1108682E+06  0.5631436E-02  0.1562500E-01
  0.1071429E+01 -0.9000652E-02 -0.3051758E-02  0.2554952E+06  0.1126571E+06  0.1276042E-01  0.2001953E-01
  0.1102381E+01 -0.2657600E-02  0.6469727E-02  0.2506589E+06  0.1140409E+06 -0.2391840E-01  0.3417969E-02
  0.1133333E+01 -0.4308364E-02 -0.1110840E-01  0.2461682E+06  0.1150684E+06  0.2585018E-02  0.2441406E-02
  0.1164286E+01 -0.7339196E-02 -0.1379395E-01  0.2420887E+06  0.1156934E+06 -0.2935678E-02  0.3369141E-01
  0.1195238E+01  0.1123436E-02  0.4638672E-02  0.2379433E+06  0.1160430E+06  0.3063916E-01 -0.2539062E-01
  0.1226190E+01 -0.5326058E-02 -0.1562500E-01  0.2339870E+06  0.1160512E+06  0.5973150E-02 -0.7812500E-02
  0.1257143E+01  0.1529347E-02  0.3662109E-02  0.2303620E+06  0.1157930E+06  0.3961736E-01  0.5859375E-02
  0.1288095E+01 -0.1428629E-01 -0.0000000E+00  0.2269877E+06  0.1150382E+06 -0.3184208E-01  0.1318359E-01
  0.1319048E+01 -0.3215914E-02 -0.1782227E-01  0.2240127E+06  0.1141692E+06  0.2517204E-01  0.2734375E-01
  0.1350000E+01 -0.4758481E-02  0.8056641E-02  0.2213955E+06  0.1129853E+06  0.1953125E-01 -0.1953125E-01
  0.1380952E+01 -0.7458391E-02  0.4638672E-02  0.2186714E+06  0.1115523E+06  0.2581156E-01  0.1953125E-02
  0.1411905E+01 -0.7246252E-02 -0.3906250E-02  0.2160215E+06  0.1095476E+06  0.2317072E-01  0.5126953E-01
  0.1442857E+01 -0.7487547E-02 -0.6835938E-02  0.2137667E+06  0.1075594E+06  0.7783493E-02  0.2148438E-01
  0.1473810E+01  0.3266465E-02 -0.1074219E-01  0.2118760E+06  0.1054580E+06  0.4638277E-02 -0.2246094E-01
  0.1504762E+01 -0.7655953E-02 -0.5126953E-02  0.2102603E+06  0.1032633E+06 -0.1395310E-01  0.4394531E-02
  0.1535714E+01 -0.9935955E-03 -0.1708984E-02  0.2089083E+06  0.1008887E+06  0.7630813E-02  0.2392578E-01
  0.1566667E+01 -0.4947743E-02 -0.6591797E-02  0.2077578E+06  0.9842227E+05  0.6233377E-03 -0.2929688E-02
  0.1597619E+01 -0.5692370E-02 -0.3417969E-02  0.2065112E+06  0.9574269E+05  0.2414482E-01  0.3906250E-02
  0.1628572E+01 -0.5865264E-02 -0.1220703E-01  0.2054366E+06  0.9293554E+05  0.1379180E-01  0.3076172E-01
  0.1659524E+01 -0.3493978E-02 -0.1708984E-02  0.2045485E+06  0.8996383E+05  0.2118454E-01 -0.5664062E-01
  0.1690476E+01 -0.3357793E-02 -0.3662109E-02  0.2039004E+06  0.8701723E+05 -0.1155370E-02  0.2880859E-01
  0.1721429E+01 -0.1772805E-03 -0.1074219E-01  0.2034515E+06  0.8411983E+05  0.9927711E-02 -0.2929688E-01
  0.1752381E+01 -0.2298770E-02  0.1391602E-01  0.2031522E+06  0.8128152E+05 -0.1281738E-01  0.3564453E-01
  0.1783333E+01  0.4107039E-03  0.1330566E-01  0.2029756E+06  0.7840283E+05 -0.6571262E-02  0.1538086E-01
  0.1814286E+01 -0.4911648E-02 -0.4882812E-02  0.2028602E+06  0.7544716E+05 -0.1480223E-01 -0.1684570E-01
  0.1845238E+01  0.1025391E-02  0.1831055E-01  0.2027703E+06  0.7244591E+05 -0.1852319E-02  0.3662109E-02
  0.1876190E+01 -0.3708583E-02  0.7324219E-03  0.2027716E+06  0.6944333E+05  0.8848549E-02 -0.1953125E-01
  0.1907143E+01 -0.7680829E-03  0.5859375E-02  0.2028476E+06  0.6644007E+05  0.9216995E-02 -0.2001953E-01
  0.1938095E+01 -0.3842066E-02 -0.1635742E-01  0.2030092E+06  0.6351305E+05  0.1713183E-01 -0.3100586E-01
  0.1969048E+01  0.1301887E-02  0.9277344E-02  0.2032507E+06  0.6071392E+05  0.5455525E-02  0.2954102E-01
  0.2000000E+01  0.1159668E-02  0.1660156E-01  0.2035737E+06  0.5803550E+05  0.7080078E-02  0.1757812E-01
Zone t="Motion of body    1 in DoF   3",I=    64,F=POINT
  0.5000000E-01  0.1896393E+05  0.1786239E-01  0.1373291E-01 -0.1065999E-03  0.8297981E+06  0.3053233E-01
  0.8095238E-01  0.1863819E+05  0.7903368E-01 -0.5277746E-01 -0.4387809E-03  0.8295845E+06  0.1338901E+00
  0.1119048E+00  0.1795085E+05  0.2217908E+00  0.2263495E-01  0.6780610E-04  0.8292580E+06  0.3773380E+00
  0.1428571E+00  0.1781695E+05  0.4986975E+00  0.0000000E+00 -0.2659988E-03  0.8303291E+06  0.8412494E+00
  0.1738095E+00  0.1789675E+05  0.9921636E+00  0.1931386E-01  0.3162529E-03  0.8313161E+06  0.1667726E+01
  0.2047619E+00  0.1826913E+05  0.1824981E+01 -0.6259652E-02  0.3769882E-03  0.8294746E+06  0.3060133E+01
  0.2357143E+00  0.1801103E+05  0.3212162E+01 -0.5178740E-02 -0.8579716E-04  0.8309505E+06  0.5350734E+01
  0.2666667E+00  0.1860262E+05  0.5465863E+01  0.6729126E-01  0.1248859E-02  0.8300456E+06  0.9067786E+01
  0.2976190E+00  0.1881274E+05  0.9137560E+01 -0.6726562E-01 -0.2459943E-02  0.8311668E+06  0.1507169E+02
  0.3285715E+00  0.1876883E+05  0.1509336E+02 -0.4829738E-02 -0.8426607E-03  0.8304514E+06  0.2471194E+02
  0.3595238E+00  0.1926925E+05  0.2470298E+02  0.8692052E-01  0.3881663E-02  0.8319223E+06  0.4017470E+02
  0.3904762E+00  0.2027651E+05  0.4006987E+02 -0.2250857E-01 -0.7435083E-03  0.8301639E+06  0.6481528E+02
  0.4214286E+00  0.1992947E+05  0.6427296E+02  0.7473185E-01  0.3301263E-02  0.8337235E+06  0.1027138E+03
  0.4523810E+00  0.2049999E+05  0.1021668E+03  0.7987253E-01  0.3402948E-02  0.8307761E+06  0.1618775E+03
  0.4833333E+00  0.2135020E+05  0.1580068E+03 -0.2879176E-01 -0.4076004E-02  0.8335214E+06  0.2479366E+03
  0.5142857E+00  0.2233838E+05  0.2401412E+03 -0.4699707E-01 -0.1115322E-01  0.8326649E+06  0.3736912E+03
  0.5452381E+00  0.2235553E+05  0.3572705E+03 -0.5328449E-01 -0.6911278E-02  0.8330484E+06  0.5484916E+03
  0.5761905E+00  0.2276730E+05  0.5184365E+03  0.8008216E-01  0.6987572E-02  0.8362062E+06  0.7850385E+03
  0.6071429E+00  0.2411938E+05  0.7368731E+03 -0.4061351E-01 -0.1119709E-01  0.8337349E+06  0.1105425E+04
  0.6380953E+00  0.2530250E+05  0.1022885E+04 -0.4667823E-01 -0.1211357E-01  0.8354377E+06  0.1515585E+04
  0.6690477E+00  0.2557678E+05  0.1398022E+04 -0.4050475E-01 -0.7461548E-02  0.8386238E+06  0.2035695E+04
  0.7000000E+00  0.2629008E+05  0.1881830E+04  0.9068079E-02  0.4577637E-03  0.8366945E+06  0.2701851E+04
  0.7309524E+00  0.2734067E+05  0.2488500E+04  0.3874440E-01 -0.4501343E-03  0.8376564E+06  0.3518765E+04
  0.7619048E+00  0.2848076E+05  0.3241183E+04  0.4165649E-02 -0.6267548E-02  0.8416509E+06  0.4508295E+04
  0.7928572E+00  0.2998983E+05  0.4166520E+04  0.2401816E-01  0.6080627E-02  0.8398976E+06  0.5715455E+04
  0.8238096E+00  0.3124352E+05  0.5292042E+04  0.1807770E-01  0.1146698E-01  0.8390669E+06  0.7138032E+04
  0.8547620E+00  0.3142103E+05  0.6662978E+04 -0.6569355E-02  0.3417969E-02  0.8418134E+06  0.8776721E+04
  0.8857143E+00  0.3205742E+05  0.8275239E+04  0.5926317E-01  0.2704620E-01  0.8443741E+06  0.1068335E+05
  0.9166667E+00  0.3310617E+05  0.1016222E+05  0.7990057E-02 -0.1220703E-03  0.8423236E+06  0.1288978E+05
  0.9476191E+00  0.3431303E+05  0.1232967E+05 -0.1932269E-01 -0.2357483E-01  0.8408984E+06  0.1536363E+05
  0.9785714E+00  0.3516706E+05  0.1480452E+05  0.2494868E-02 -0.1486206E-01  0.8418838E+06  0.1807255E+05
  0.1009524E+01  0.3567227E+05  0.1759741E+05  0.6239406E-01  0.5142212E-02  0.8443160E+06  0.2099910E+05
  0.1040476E+01  0.3603901E+05  0.2075345E+05  0.7273938E-02 -0.9948730E-02  0.8425034E+06  0.2416308E+05
  0.1071429E+01  0.3567321E+05  0.2429905E+05  0.1139323E-01  0.1531982E-01  0.8401109E+06  0.2747249E+05
  0.1102381E+01  0.3535502E+05  0.2807793E+05 -0.3897813E-01 -0.4818726E-01  0.8383662E+06  0.3101390E+05
  0.1133333E+01  0.3451589E+05  0.3212996E+05 -0.1766429E-01 -0.4034424E-01  0.8379156E+06  0.3454518E+05
  0.1164286E+01  0.3340802E+05  0.3634968E+05 -0.2516296E-01 -0.2886963E-01  0.8387898E+06  0.3809737E+05
  0.1195238E+01  0.3222461E+05  0.4079197E+05 -0.1511532E-01 -0.5139160E-01  0.8359964E+06  0.4157098E+05
  0.1226190E+01  0.3045905E+05  0.4547043E+05 -0.1672482E-01 -0.3961182E-01  0.8319835E+06  0.4473977E+05
  0.1257143E+01  0.2864015E+05  0.5012748E+05  0.4622026E-01  0.4095459E-01  0.8278998E+06  0.4803200E+05
  0.1288095E+01  0.2609094E+05  0.5451847E+05 -0.5269105E-01 -0.4211426E-01  0.8252372E+06  0.5065714E+05
  0.1319048E+01  0.2315467E+05  0.5886180E+05 -0.2221063E-01 -0.1123047E-01  0.8236702E+06  0.5290148E+05
  0.1350000E+01  0.1989637E+05  0.6287932E+05 -0.2350984E-01 -0.2404785E-01  0.8233593E+06  0.5470786E+05
  0.1380952E+01  0.1661392E+05  0.6683530E+05 -0.3889413E-02 -0.4272461E-02  0.8190183E+06  0.5583840E+05
  0.1411905E+01  0.1348017E+05  0.6943567E+05  0.7262463E-02  0.1153564E-01  0.8134724E+06  0.5613179E+05
  0.1442857E+01  0.1010690E+05  0.7231276E+05  0.4399366E-02 -0.2313232E-01  0.8085561E+06  0.5618750E+05
  0.1473810E+01  0.6471760E+04  0.7457115E+05  0.0000000E+00 -0.6225586E-02  0.8058340E+06  0.5569446E+05
  0.1504762E+01  0.2571940E+04  0.7635909E+05 -0.1427759E-01 -0.7080078E-02  0.8044606E+06  0.5457816E+05
  0.1535714E+01 -0.1244930E+04  0.7735868E+05 -0.3274891E-01  0.1287842E-01  0.8043154E+06  0.5364029E+05
  0.1566667E+01 -0.4948702E+04  0.7772949E+05 -0.1558344E-01  0.1953125E-01  0.8044210E+06  0.5206856E+05
  0.1597619E+01 -0.8278485E+04  0.7797430E+05 -0.9780179E-02  0.1843262E-01  0.8011531E+06  0.4954159E+05
  0.1628572E+01 -0.1144814E+05  0.7770427E+05 -0.1619038E-01  0.1525879E-01  0.7978307E+06  0.4636585E+05
  0.1659524E+01 -0.1432659E+05  0.7683143E+05 -0.1235765E-01  0.4565430E-01  0.7945642E+06  0.4309465E+05
  0.1690476E+01 -0.1705586E+05  0.7522350E+05 -0.1588633E-01 -0.9765625E-02  0.7931412E+06  0.3977782E+05
  0.1721429E+01 -0.1987600E+05  0.7298364E+05  0.2836489E-01 -0.1385498E-01  0.7936258E+06  0.3655796E+05
  0.1752381E+01 -0.2248179E+05  0.7025571E+05 -0.3594440E-01  0.1843262E-01  0.7952003E+06  0.3452891E+05
  0.1783333E+01 -0.2461376E+05  0.6692653E+05 -0.6187938E-01  0.1031494E-01  0.7973606E+06  0.3363284E+05
  0.1814286E+01 -0.2651522E+05  0.6339099E+05 -0.2368356E-01 -0.2069092E-01  0.7987898E+06  0.3169256E+05
  0.1845238E+01 -0.2817214E+05  0.6017949E+05 -0.1534778E-01  0.5676270E-02  0.7979588E+06  0.2752145E+05
  0.1876190E+01 -0.2940785E+05  0.5676450E+05  0.5465280E-02  0.4510498E-01  0.7968220E+06  0.2363726E+05
  0.1907143E+01 -0.3042941E+05  0.5295592E+05 -0.1484960E-01  0.6378174E-02  0.7960078E+06  0.1978430E+05
  0.1938095E+01 -0.3108842E+05  0.4869094E+05 -0.4031020E-02  0.3244019E-01  0.7960489E+06  0.1607916E+05
  0.1969048E+01 -0.3158188E+05  0.4392739E+05 -0.1487870E-01  0.4696655E-01  0.7973246E+06  0.1479146E+05
  0.2000000E+01 -0.3187287E+05  0.3923409E+05 -0.3173828E-02  0.1229858E-01  0.7989655E+06  0.1541461E+05
