VARIABLES="w (rad/s)"
"A   1   1" "B   1   1"
"A   1   2" "B   1   2"
"A   1   3" "B   1   3"
Zone t="Motion of body    1 in DoF   1",I=    64,F=POINT
  0.5000000E-01  0.2499887E+05  0.1407329E-02  0.1152039E-01  0.2200295E-04  0.7015629E+05  0.4544362E-02
  0.8095238E-01  0.2502734E+05  0.6152134E-02 -0.5843218E-02 -0.2947239E-04  0.7016497E+05  0.1988170E-01
  0.1119048E+00  0.2506959E+05  0.1730113E-01 -0.3408878E-03  0.7977011E-05  0.7024032E+05  0.5585317E-01
  0.1428571E+00  0.2508393E+05  0.3889986E-01  0.2296448E-02  0.7648545E-04  0.7029230E+05  0.1256322E+00
  0.1738095E+00  0.2511565E+05  0.7743893E-01  0.1558278E-01  0.1038993E-03  0.7039188E+05  0.2502452E+00
  0.2047619E+00  0.2513513E+05  0.1428159E+00 -0.3539684E-02  0.5653128E-06  0.7046826E+05  0.4616949E+00
  0.2357143E+00  0.2518966E+05  0.2514759E+00  0.8803858E-02  0.1406120E-03  0.7067916E+05  0.8134751E+00
  0.2666667E+00  0.2520920E+05  0.4289206E+00  0.6294250E-02  0.1124553E-03  0.7071901E+05  0.1388184E+01
  0.2976190E+00  0.2525048E+05  0.7189922E+00  0.1789307E-01  0.3658701E-03  0.7087945E+05  0.2328572E+01
  0.3285715E+00  0.2531784E+05  0.1189510E+01  0.8405602E-02  0.2249554E-03  0.7112891E+05  0.3855472E+01
  0.3595238E+00  0.2537646E+05  0.1952318E+01 -0.1570342E-02 -0.1487136E-03  0.7132424E+05  0.6332696E+01
  0.3904762E+00  0.2541471E+05  0.3181215E+01  0.1848360E-01  0.9772107E-03  0.7145927E+05  0.1032776E+02
  0.4214286E+00  0.2548895E+05  0.5111968E+01  0.4779363E-02  0.5020201E-04  0.7172622E+05  0.1661206E+02
  0.4523810E+00  0.2559429E+05  0.8146278E+01  0.4722193E-02  0.9595156E-03  0.7211574E+05  0.2650135E+02
  0.4833333E+00  0.2565555E+05  0.1265497E+02  0.1218598E-01  0.9756684E-03  0.7230100E+05  0.4121069E+02
  0.5142857E+00  0.2573646E+05  0.1933027E+02  0.1703051E-01  0.2134025E-02  0.7259323E+05  0.6302089E+02
  0.5452381E+00  0.2583981E+05  0.2882598E+02  0.1057854E-01  0.1088381E-02  0.7296320E+05  0.9409562E+02
  0.5761905E+00  0.2597860E+05  0.4198667E+02  0.1726639E-01  0.1473546E-02  0.7347371E+05  0.1372452E+03
  0.6071429E+00  0.2608431E+05  0.5998649E+02 -0.7338579E-02 -0.5679131E-03  0.7382815E+05  0.1963291E+03
  0.6380953E+00  0.2620871E+05  0.8378790E+02  0.1009130E-01  0.1376867E-02  0.7429316E+05  0.2746273E+03
  0.6690477E+00  0.2634777E+05  0.1149974E+03  0.5017480E-02  0.8411407E-03  0.7480263E+05  0.3774890E+03
  0.7000000E+00  0.2649004E+05  0.1554223E+03  0.1835414E-01  0.2825737E-02  0.7528159E+05  0.5109354E+03
  0.7309524E+00  0.2665218E+05  0.2067399E+03 -0.7181074E-02 -0.2050400E-02  0.7583505E+05  0.6806849E+03
  0.7619048E+00  0.2681679E+05  0.2712375E+03  0.2186966E-01  0.4662514E-02  0.7641902E+05  0.8944777E+03
  0.7928572E+00  0.2698671E+05  0.3513363E+03 -0.1454946E-01 -0.4854202E-02  0.7703389E+05  0.1160549E+04
  0.8238096E+00  0.2715539E+05  0.4496627E+03  0.1215058E-01  0.2975464E-02  0.7764331E+05  0.1487892E+04
  0.8547620E+00  0.2734178E+05  0.5690974E+03  0.8925754E-02  0.2054214E-02  0.7830941E+05  0.1886472E+04
  0.8857143E+00  0.2754113E+05  0.7127862E+03  0.9785314E-02 -0.5989075E-03  0.7901350E+05  0.2367169E+04
  0.9166667E+00  0.2774262E+05  0.8838649E+03  0.1531427E-02  0.6103516E-04  0.7971615E+05  0.2940775E+04
  0.9476191E+00  0.2793096E+05  0.1085478E+04  0.2061087E-02 -0.1583099E-02  0.8038652E+05  0.3618331E+04
  0.9785714E+00  0.2812184E+05  0.1320742E+04  0.3617558E-02  0.2189636E-02  0.8108372E+05  0.4410879E+04
  0.1009524E+01  0.2831845E+05  0.1592720E+04  0.1553805E-01  0.8293152E-02  0.8182893E+05  0.5329630E+04
  0.1040476E+01  0.2849950E+05  0.1904471E+04  0.2815718E-02  0.1968384E-02  0.8250105E+05  0.6385563E+04
  0.1071429E+01  0.2867454E+05  0.2258939E+04  0.1401367E-01  0.5836487E-02  0.8314815E+05  0.7589899E+04
  0.1102381E+01  0.2884060E+05  0.2658706E+04 -0.5425933E-02 -0.6706238E-02  0.8376085E+05  0.8952640E+04
  0.1133333E+01  0.2899443E+05  0.3105599E+04  0.5870146E-02  0.6179810E-02  0.8433814E+05  0.1048099E+05
  0.1164286E+01  0.2913185E+05  0.3600539E+04  0.1394447E-01  0.8209229E-02  0.8487359E+05  0.1217883E+05
  0.1195238E+01  0.2923647E+05  0.4144008E+04 -0.4136287E-02 -0.5950928E-02  0.8528978E+05  0.1404862E+05
  0.1226190E+01  0.2931160E+05  0.4735708E+04  0.2986575E-03  0.2166748E-02  0.8560214E+05  0.1609071E+05
  0.1257143E+01  0.2935444E+05  0.5381842E+04 -0.3689853E-02 -0.5737305E-02  0.8582130E+05  0.1832833E+05
  0.1288095E+01  0.2936743E+05  0.6058186E+04  0.1326753E-02 -0.4272461E-02  0.8593703E+05  0.2068034E+05
  0.1319048E+01  0.2934795E+05  0.6784101E+04  0.9346972E-02  0.7202148E-02  0.8594038E+05  0.2321359E+05
  0.1350000E+01  0.2930170E+05  0.7546600E+04  0.9946470E-02  0.8728027E-02  0.8586327E+05  0.2588447E+05
  0.1380952E+01  0.2922521E+05  0.8340995E+04  0.1944706E-02 -0.4974365E-02  0.8568327E+05  0.2867838E+05
  0.1411905E+01  0.2866321E+05  0.8988887E+04  0.1296868E-02  0.3143311E-02  0.8368550E+05  0.3099411E+05
  0.1442857E+01  0.2853834E+05  0.9832266E+04 -0.1692064E-03  0.2014160E-02  0.8335206E+05  0.3398765E+05
  0.1473810E+01  0.2838411E+05  0.1069311E+05  0.1076743E-02  0.2258301E-02  0.8290576E+05  0.3705658E+05
  0.1504762E+01  0.2819392E+05  0.1156580E+05  0.9166862E-02  0.7446289E-02  0.8233120E+05  0.4018193E+05
  0.1535714E+01  0.2797207E+05  0.1244422E+05  0.3100018E-02  0.3601074E-02  0.8164680E+05  0.4334305E+05
  0.1566667E+01  0.2772195E+05  0.1332166E+05  0.4441281E-02  0.1660156E-01  0.8085416E+05  0.4651637E+05
  0.1597619E+01  0.2744162E+05  0.1419274E+05 -0.6418242E-02 -0.4882812E-02  0.7995684E+05  0.4968622E+05
  0.1628572E+01  0.2713590E+05  0.1505413E+05  0.3298040E-02 -0.2319336E-02  0.7895103E+05  0.5283971E+05
  0.1659524E+01  0.2680634E+05  0.1590007E+05 -0.2500953E-02  0.1672363E-01  0.7786744E+05  0.5595701E+05
  0.1690476E+01  0.2646124E+05  0.1672297E+05  0.6210112E-02  0.2014160E-02  0.7672019E+05  0.5900888E+05
  0.1721429E+01  0.2610198E+05  0.1751722E+05  0.9218588E-03  0.7446289E-02  0.7552188E+05  0.6197436E+05
  0.1752381E+01  0.2573085E+05  0.1828264E+05  0.4597540E-02  0.2441406E-02  0.7427620E+05  0.6485052E+05
  0.1783333E+01  0.2535185E+05  0.1901294E+05  0.3833236E-02  0.6591797E-02  0.7300015E+05  0.6761531E+05
  0.1814286E+01  0.2496729E+05  0.1970748E+05  0.7804811E-02  0.9155273E-03  0.7169580E+05  0.7026487E+05
  0.1845238E+01  0.2457718E+05  0.2036652E+05 -0.2646169E-03  0.7568359E-02  0.7036875E+05  0.7280573E+05
  0.1876190E+01  0.2418592E+05  0.2099208E+05  0.7156914E-03 -0.3784180E-02  0.6901984E+05  0.7523974E+05
  0.1907143E+01  0.2379264E+05  0.2158273E+05  0.2112228E-02  0.8911133E-02  0.6766324E+05  0.7756356E+05
  0.1938095E+01  0.2340211E+05  0.2213704E+05  0.1952525E-02  0.3967285E-02  0.6630730E+05  0.7976544E+05
  0.1969048E+01  0.2301642E+05  0.2265170E+05  0.6199460E-04 -0.1831055E-03  0.6495891E+05  0.8183441E+05
  0.2000000E+01  0.2263541E+05  0.2312640E+05  0.4821777E-02  0.5493164E-02  0.6362548E+05  0.8376834E+05
Zone t="Motion of body    1 in DoF   2",I=    64,F=POINT
  0.5000000E-01  0.1678467E-02  0.1001358E-04  0.1810740E+06  0.4615508E+03  0.1342773E-01 -0.1907349E-05
  0.8095238E-01  0.6314446E-02 -0.4768372E-04  0.1791084E+06  0.7657203E+03  0.3694422E-01  0.1144409E-03
  0.1119048E+00  0.3681589E-02 -0.5722046E-05  0.1781016E+06  0.1097518E+04  0.2345308E-01  0.2365112E-03
  0.1428571E+00 -0.4913330E-02  0.6961823E-04  0.1775139E+06  0.1469289E+04 -0.2136230E-01  0.6866455E-04
  0.1738095E+00  0.1211506E-01 -0.2288818E-04  0.1775692E+06  0.1898069E+04  0.2739057E-01 -0.4577637E-04
  0.2047619E+00  0.1579817E-01 -0.1296997E-03  0.1778351E+06  0.2403327E+04  0.2384629E-01  0.2517700E-03
  0.2357143E+00  0.6732362E-02  0.4196167E-04  0.1783919E+06  0.3013807E+04  0.7768110E-02  0.4348755E-03
  0.2666667E+00  0.1007080E-01  0.1430511E-03  0.1792492E+06  0.3754930E+04  0.1373291E-01 -0.6103516E-04
  0.2976190E+00 -0.3486328E-02 -0.2593994E-03  0.1801226E+06  0.4678481E+04  0.3773437E-01  0.1052856E-02
  0.3285715E+00 -0.1263162E-01 -0.2517700E-03  0.1811893E+06  0.5816650E+04  0.2823539E-01 -0.6103516E-04
  0.3595238E+00  0.2376733E-02  0.2555847E-03  0.1823193E+06  0.7231171E+04 -0.1765573E-01  0.8239746E-03
  0.3904762E+00  0.1086351E-01 -0.6256104E-03  0.1833808E+06  0.8977562E+04  0.2751048E-01  0.1831055E-03
  0.4214286E+00 -0.1882779E-02  0.4348755E-03  0.1838335E+06  0.1103546E+05  0.1506223E-01  0.5187988E-03
  0.4523810E+00  0.2563476E-02 -0.1419067E-02  0.1843566E+06  0.1351058E+05  0.1403166E-01  0.6103516E-04
  0.4833333E+00  0.1262796E-02  0.4730225E-03  0.1842940E+06  0.1621443E+05  0.5000673E-01  0.1525879E-02
  0.5142857E+00  0.3204346E-02 -0.4577637E-04  0.1836656E+06  0.1926725E+05  0.2610948E-01  0.2929688E-02
  0.5452381E+00  0.7947897E-02  0.4730225E-03  0.1826299E+06  0.2251759E+05  0.1880629E-01  0.7324219E-03
  0.5761905E+00  0.9851376E-02  0.1586914E-02  0.1814252E+06  0.2590625E+05  0.1144031E-01 -0.4882812E-03
  0.6071429E+00 -0.6433823E-02 -0.1541138E-02  0.1798067E+06  0.2950778E+05  0.6031709E-02  0.1708984E-02
  0.6380953E+00  0.8034777E-02 -0.1159668E-02  0.1780240E+06  0.3313581E+05  0.4361736E-01 -0.3173828E-02
  0.6690477E+00  0.7389381E-02  0.8239746E-03  0.1758643E+06  0.3687440E+05  0.5181689E-01  0.4272461E-02
  0.7000000E+00  0.5929129E-02  0.1190186E-02  0.1734847E+06  0.4072732E+05 -0.1325335E-01 -0.1342773E-02
  0.7309524E+00  0.2588527E-02  0.2624512E-02  0.1711462E+06  0.4457915E+05  0.3874440E-01 -0.4882812E-02
  0.7619048E+00  0.5126953E-02  0.2929688E-02  0.1686697E+06  0.4846019E+05 -0.1986694E-01  0.9277344E-02
  0.7928572E+00  0.1693588E-02  0.2929688E-02  0.1659842E+06  0.5237135E+05  0.2340231E-01 -0.3417969E-02
  0.8238096E+00  0.1237285E-01 -0.1495361E-02  0.1631247E+06  0.5629024E+05  0.7705247E-02  0.5371094E-02
  0.8547620E+00  0.6212324E-02  0.3051758E-03  0.1602063E+06  0.6018265E+05  0.1142496E-01  0.1708984E-02
  0.8857143E+00  0.5581764E-02  0.1464844E-02  0.1572805E+06  0.6401410E+05  0.1764113E-01  0.1391602E-01
  0.9166667E+00 -0.2330433E-02  0.3540039E-02  0.1543532E+06  0.6776924E+05  0.1225142E-01 -0.5371094E-02
  0.9476191E+00  0.1043425E-01 -0.2380371E-02  0.1513705E+06  0.7145037E+05  0.1030543E-01  0.5371094E-02
  0.9785714E+00  0.8732037E-03  0.2868652E-02  0.1483617E+06  0.7504149E+05  0.2644560E-01  0.4638672E-02
  0.1009524E+01  0.1704954E-01  0.4455566E-02  0.1453350E+06  0.7853881E+05  0.1257555E-01 -0.4882812E-02
  0.1040476E+01 -0.1994467E-02 -0.1953125E-02  0.1422713E+06  0.8194799E+05  0.3895076E-01 -0.5126953E-02
  0.1071429E+01 -0.3873698E-02  0.1220703E-02  0.1392291E+06  0.8524129E+05  0.3326823E-01 -0.3417969E-02
  0.1102381E+01  0.4540066E-02 -0.1892090E-02  0.1362473E+06  0.8839433E+05  0.1904613E-01  0.1464844E-02
  0.1133333E+01 -0.7216510E-02  0.1892090E-02  0.1333303E+06  0.9139291E+05  0.2541935E-01 -0.2929688E-02
  0.1164286E+01 -0.5451974E-02 -0.4882812E-03  0.1304964E+06  0.9423026E+05 -0.8387653E-03 -0.9277344E-02
  0.1195238E+01  0.1021305E-02  0.4394531E-02  0.1277044E+06  0.9693155E+05 -0.1756645E-01 -0.3417969E-02
  0.1226190E+01 -0.1035346E-01  0.2807617E-02  0.1249755E+06  0.9949176E+05  0.5574939E-02  0.9765625E-02
  0.1257143E+01  0.1068115E-02  0.3967285E-02  0.1223460E+06  0.1019907E+06 -0.2291593E-01  0.1074219E-01
  0.1288095E+01  0.1326753E-02  0.1403809E-02  0.1196902E+06  0.1042187E+06  0.1137217E-02 -0.4003906E-01
  0.1319048E+01  0.1850885E-02  0.1586914E-02  0.1171454E+06  0.1063833E+06  0.2443169E-01  0.1367188E-01
  0.1350000E+01  0.2350984E-02 -0.5615234E-02  0.1146822E+06  0.1083941E+06  0.1265914E-01 -0.7324219E-02
  0.1380952E+01  0.7513638E-02  0.9765625E-03  0.1122970E+06  0.1102506E+06 -0.1060749E-02 -0.0000000E+00
  0.1411905E+01  0.3026026E-02  0.2563477E-02  0.1083294E+06  0.1119602E+06  0.4841642E-02  0.1708984E-01
  0.1442857E+01  0.3722540E-02 -0.9765625E-03  0.1061146E+06  0.1136501E+06  0.3384128E-02 -0.3906250E-02
  0.1473810E+01  0.1780767E-02  0.3051758E-02  0.1039754E+06  0.1152057E+06  0.1225830E-01  0.4882812E-02
  0.1504762E+01 -0.1216840E-02 -0.6103516E-03  0.1019040E+06  0.1166531E+06  0.9085740E-02 -0.9277344E-02
  0.1535714E+01  0.4411564E-02  0.8911133E-02  0.9990534E+05  0.1179853E+06 -0.6359011E-03  0.1318359E-01
  0.1566667E+01  0.3506275E-02 -0.3173828E-02  0.9797745E+05  0.1192010E+06  0.3116689E-02  0.6835938E-02
  0.1597619E+01  0.9168918E-03 -0.8544922E-03  0.9611712E+05  0.1203211E+06 -0.3667567E-02 -0.1855469E-01
  0.1628572E+01  0.8020233E-02 -0.2319336E-02  0.9432822E+05  0.1213656E+06  0.4497327E-02  0.1025391E-01
  0.1659524E+01  0.9010785E-02  0.9887695E-02  0.9260730E+05  0.1223212E+06  0.3148258E-01  0.7812500E-02
  0.1690476E+01  0.4513163E-02 -0.3540039E-02  0.9095673E+05  0.1231703E+06  0.1184254E-01 -0.1660156E-01
  0.1721429E+01  0.7233046E-02  0.3173828E-02  0.8936891E+05  0.1239139E+06  0.1361515E-01 -0.2246094E-01
  0.1752381E+01  0.2542579E-02  0.1220703E-03  0.8784290E+05  0.1245576E+06 -0.1058827E-01  0.3710938E-01
  0.1783333E+01  0.5441826E-02 -0.1220703E-02  0.8637691E+05  0.1250974E+06  0.1533294E-01 -0.1660156E-01
  0.1814286E+01  0.7535679E-02 -0.1550293E-01  0.8496752E+05  0.1255468E+06  0.1776267E-01 -0.2294922E-01
  0.1845238E+01  0.1091545E-02 -0.6347656E-02  0.8361450E+05  0.1259286E+06  0.9261593E-02 -0.7324219E-02
  0.1876190E+01  0.1171132E-02 -0.8544922E-02  0.8232583E+05  0.1262584E+06  0.7287040E-02 -0.1171875E-01
  0.1907143E+01  0.9281002E-02  0.2441406E-03  0.8109048E+05  0.1265323E+06 -0.5632608E-02  0.3125000E-01
  0.1938095E+01  0.4062512E-02 -0.6347656E-02  0.7991119E+05  0.1267429E+06  0.1562020E-01 -0.2978516E-01
  0.1969048E+01  0.1456873E-02  0.2441406E-02  0.7877725E+05  0.1268756E+06  0.1661455E-01 -0.5371094E-02
  0.2000000E+01  0.5798340E-03  0.6103516E-02  0.7768591E+05  0.1269376E+06  0.1342773E-01  0.4638672E-01
Zone t="Motion of body    1 in DoF   3",I=    64,F=POINT
  0.5000000E-01  0.6774242E+05  0.4326663E-02  0.3250122E-01  0.7013987E-04  0.2379188E+06  0.1399631E-01
  0.8095238E-01  0.6778599E+05  0.1890437E-01  0.1017851E-01  0.6183574E-05  0.2382480E+06  0.6103177E-01
  0.1119048E+00  0.6785563E+05  0.5310528E-01  0.3081626E-01  0.1409516E-03  0.2383958E+06  0.1714683E+00
  0.1428571E+00  0.6791467E+05  0.1194629E+00  0.3268433E-01  0.2398407E-03  0.2386555E+06  0.3858505E+00
  0.1738095E+00  0.6801085E+05  0.2379686E+00  0.4424630E-01  0.3263019E-03  0.2389743E+06  0.7688790E+00
  0.2047619E+00  0.6809375E+05  0.4390323E+00  0.1490393E-02 -0.4029647E-04  0.2393290E+06  0.1419271E+01
  0.2357143E+00  0.6829727E+05  0.7735077E+00  0.4945697E-01  0.7504821E-03  0.2400998E+06  0.2502153E+01
  0.2666667E+00  0.6832281E+05  0.1320085E+01  0.2082825E-01  0.7868782E-03  0.2400712E+06  0.4272294E+01
  0.2976190E+00  0.6848033E+05  0.2214212E+01  0.2604492E-01  0.1241565E-02  0.2406774E+06  0.7170897E+01
  0.3285715E+00  0.6871022E+05  0.3665836E+01  0.9845234E-02  0.1157299E-03  0.2414884E+06  0.1188142E+02
  0.3595238E+00  0.6889234E+05  0.6021334E+01 -0.8658099E-02  0.9365380E-04  0.2420756E+06  0.1953046E+02
  0.3904762E+00  0.6902062E+05  0.9820103E+01  0.7158977E-01  0.4469812E-02  0.2425556E+06  0.3187980E+02
  0.4214286E+00  0.6925656E+05  0.1579479E+02  0.1535189E-01  0.3839731E-03  0.2433192E+06  0.5132742E+02
  0.4523810E+00  0.6963248E+05  0.2519468E+02  0.2266653E-01  0.6871819E-03  0.2447136E+06  0.8196265E+02
  0.4833333E+00  0.6979844E+05  0.3918197E+02  0.2045730E-01  0.2213120E-02  0.2451818E+06  0.1275937E+03
  0.5142857E+00  0.7007994E+05  0.5991338E+02  0.5601671E-01  0.7238150E-02  0.2462329E+06  0.1953284E+03
  0.5452381E+00  0.7041184E+05  0.8945237E+02  0.2709001E-01  0.4453421E-02  0.2473324E+06  0.2919961E+03
  0.5761905E+00  0.7091084E+05  0.1304568E+03 -0.3029563E-01 -0.3398895E-02  0.2492070E+06  0.4264369E+03
  0.6071429E+00  0.7124788E+05  0.1866205E+03 -0.2412684E-02 -0.1006603E-02  0.2503615E+06  0.6107903E+03
  0.6380953E+00  0.7171297E+05  0.2609988E+03  0.3500867E-01  0.3313065E-02  0.2522205E+06  0.8554498E+03
  0.6690477E+00  0.7219875E+05  0.3587114E+03  0.1751557E-01  0.6749153E-02  0.2539978E+06  0.1177495E+04
  0.7000000E+00  0.7262005E+05  0.4855696E+03  0.2249581E-01  0.8523941E-02  0.2552729E+06  0.1596297E+04
  0.7309524E+00  0.7313260E+05  0.6469239E+03  0.2338024E-01  0.7041931E-02  0.2569834E+06  0.2130012E+04
  0.7619048E+00  0.7370435E+05  0.8500228E+03  0.5014801E-01  0.1816750E-01  0.2591059E+06  0.2803152E+04
  0.7928572E+00  0.7430366E+05  0.1102691E+04 -0.1077738E-01 -0.6370544E-02  0.2613638E+06  0.3642354E+04
  0.8238096E+00  0.7487774E+05  0.1413559E+04 -0.2963557E-02 -0.1937866E-02  0.2634424E+06  0.4677208E+04
  0.8547620E+00  0.7549302E+05  0.1792200E+04  0.3341802E-01  0.1766968E-01  0.2655797E+06  0.5940893E+04
  0.8857143E+00  0.7614749E+05  0.2248977E+04  0.3969254E-01  0.9971619E-02  0.2678314E+06  0.7469194E+04
  0.9166667E+00  0.7680227E+05  0.2794095E+04 -0.2663352E-02 -0.4188538E-02  0.2700797E+06  0.9296814E+04
  0.9476191E+00  0.7743557E+05  0.3437612E+04 -0.7729075E-03 -0.2822876E-03  0.2723475E+06  0.1145887E+05
  0.9785714E+00  0.7810937E+05  0.4189833E+04  0.2020843E-01  0.7659912E-02  0.2748836E+06  0.1399201E+05
  0.1009524E+01  0.7883434E+05  0.5061146E+04  0.1088268E-01  0.9063721E-02  0.2777143E+06  0.1693446E+05
  0.1040476E+01  0.7946578E+05  0.6063268E+04  0.3449254E-01  0.2632141E-01  0.2800384E+06  0.2032835E+05
  0.1071429E+01  0.8005840E+05  0.7207079E+04  0.2255859E-01  0.1293945E-01  0.2821643E+06  0.2421519E+05
  0.1102381E+01  0.8061600E+05  0.8502204E+04  0.6643999E-03 -0.1422119E-01  0.2841411E+06  0.2863195E+05
  0.1133333E+01  0.8115091E+05  0.9954581E+04  0.7927389E-01  0.5032349E-01  0.2860994E+06  0.3360065E+05
  0.1164286E+01  0.8165752E+05  0.1156658E+05  0.2138852E-01  0.2111816E-01  0.2880640E+06  0.3913062E+05
  0.1195238E+01  0.8205285E+05  0.1334132E+05 -0.7557660E-02 -0.5676270E-02  0.2896315E+06  0.4523501E+05
  0.1226190E+01  0.8234927E+05  0.1527966E+05  0.2070692E-01  0.1599121E-01  0.2908775E+06  0.5192235E+05
  0.1257143E+01  0.8255099E+05  0.1740189E+05 -0.8350719E-02 -0.7019043E-02  0.2918368E+06  0.5927057E+05
  0.1288095E+01  0.8266053E+05  0.1963470E+05  0.3335837E-01 -0.7629395E-02  0.2924672E+06  0.6703303E+05
  0.1319048E+01  0.8265627E+05  0.2203875E+05 -0.5552656E-02  0.3161621E-01  0.2926899E+06  0.7541877E+05
  0.1350000E+01  0.8258052E+05  0.2457164E+05  0.7414641E-02  0.1483154E-01  0.2927196E+06  0.8428386E+05
  0.1380952E+01  0.8240123E+05  0.2722073E+05 -0.2475081E-02 -0.9643555E-02  0.2923669E+06  0.9359220E+05
  0.1411905E+01  0.7863188E+05  0.2842037E+05  0.2939568E-02 -0.1123047E-01  0.2785559E+06  0.9799383E+05
  0.1442857E+01  0.7831323E+05  0.3116004E+05 -0.8798731E-02 -0.2441406E-02  0.2777630E+06  0.1077088E+06
  0.1473810E+01  0.7789555E+05  0.3396961E+05  0.1755919E-01  0.3686523E-01  0.2766170E+06  0.1177147E+06
  0.1504762E+01  0.7736466E+05  0.3682912E+05  0.2498578E-01 -0.1428223E-01  0.2750680E+06  0.1279413E+06
  0.1535714E+01  0.7673202E+05  0.3972000E+05  0.1780523E-01  0.2404785E-01  0.2731749E+06  0.1383311E+06
  0.1566667E+01  0.7600402E+05  0.4262259E+05  0.2805020E-02  0.2502441E-01  0.2709382E+06  0.1488162E+06
  0.1597619E+01  0.7517571E+05  0.4551957E+05  0.7946395E-02 -0.2697754E-01  0.2683215E+06  0.1593408E+06
  0.1628572E+01  0.7423965E+05  0.4840550E+05  0.1049376E-01  0.1037598E-01  0.2652619E+06  0.1698858E+06
  0.1659524E+01  0.7322630E+05  0.5125335E+05  0.2000762E-01  0.6738281E-01  0.2619303E+06  0.1803567E+06
  0.1690476E+01  0.7215742E+05  0.5404090E+05  0.1097601E-01  0.1464844E-02  0.2583966E+06  0.1906673E+06
  0.1721429E+01  0.7104870E+05  0.5674630E+05  0.4226368E-01  0.6250000E-01  0.2547179E+06  0.2007340E+06
  0.1752381E+01  0.6989780E+05  0.5936521E+05  0.4179582E-02  0.3979492E-01  0.2508988E+06  0.2105436E+06
  0.1783333E+01  0.6872352E+05  0.6187858E+05  0.1232112E-01  0.5541992E-01  0.2469913E+06  0.2200202E+06
  0.1814286E+01  0.6752363E+05  0.6428435E+05  0.3821666E-01  0.3466797E-01  0.2429743E+06  0.2291617E+06
  0.1845238E+01  0.6629883E+05  0.6658690E+05  0.1058468E-01 -0.0000000E+00  0.2388317E+06  0.2379888E+06
  0.1876190E+01  0.6505180E+05  0.6879815E+05  0.2134062E-01  0.2026367E-01  0.2345603E+06  0.2465396E+06
  0.1907143E+01  0.6379542E+05  0.7090023E+05  0.1203330E-01  0.3491211E-01  0.2302443E+06  0.2547472E+06
  0.1938095E+01  0.6254122E+05  0.7289004E+05  0.8817855E-02  0.2319336E-01  0.2259190E+06  0.2625849E+06
  0.1969048E+01  0.6130006E+05  0.7476105E+05  0.9671157E-02 -0.3662109E-02  0.2216111E+06  0.2700256E+06
  0.2000000E+01  0.6007542E+05  0.7650405E+05  0.1147461E-01  0.4370117E-01  0.2173558E+06  0.2770333E+06
