VARIABLES="w (rad/s)"
"abs(F   1   1)" "angle(F   1   1)"
"abs(F   1   2)" "angle(F   1   2)"
"abs(F   1   3)" "angle(F   1   3)"
Zone t="Diffraction force - beta =   0.000 deg",I=    64,F=POINT
  0.5000000E-01  0.9656473E+03 -0.1570802E+01  0.2243317E+06 -0.1535337E-04  0.1580206E+02 -0.1570387E+01
  0.8095238E-01  0.1574174E+04 -0.1570785E+01  0.2240250E+06 -0.4132068E-04  0.2587328E+02 -0.1570570E+01
  0.1119048E+00  0.2196099E+04 -0.1570799E+01  0.2235741E+06 -0.8210212E-04  0.3608765E+02 -0.1570625E+01
  0.1428571E+00  0.2842514E+04 -0.1570796E+01  0.2229785E+06 -0.1408827E-03  0.4688237E+02 -0.1570663E+01
  0.1738095E+00  0.3515565E+04 -0.1570788E+01  0.2222373E+06 -0.2225004E-03  0.5796855E+02 -0.1570696E+01
  0.2047619E+00  0.4228581E+04 -0.1570795E+01  0.2213492E+06 -0.3338822E-03  0.7007901E+02 -0.1570706E+01
  0.2357143E+00  0.4981654E+04 -0.1570784E+01  0.2203128E+06 -0.4853796E-03  0.8283102E+02 -0.1570718E+01
  0.2666667E+00  0.5799553E+04 -0.1570787E+01  0.2191259E+06 -0.6896977E-03  0.9671324E+02 -0.1570724E+01
  0.2976190E+00  0.6686286E+04 -0.1570779E+01  0.2177880E+06 -0.9680556E-03  0.1122897E+03 -0.1570723E+01
  0.3285715E+00  0.7651304E+04 -0.1570768E+01  0.2162963E+06 -0.1342756E-02  0.1290173E+03 -0.1570721E+01
  0.3595238E+00  0.8719607E+04 -0.1570756E+01  0.2146537E+06 -0.1848411E-02  0.1478605E+03 -0.1570712E+01
  0.3904762E+00  0.9907838E+04 -0.1570733E+01  0.2128582E+06 -0.2524798E-02  0.1692367E+03 -0.1570697E+01
  0.4214286E+00  0.1121474E+05 -0.1570706E+01  0.2109231E+06 -0.3398327E-02  0.1931304E+03 -0.1570675E+01
  0.4523810E+00  0.1265339E+05 -0.1570660E+01  0.2088418E+06 -0.4536787E-02  0.2194055E+03 -0.1570636E+01
  0.4833333E+00  0.1424318E+05 -0.1570601E+01  0.2066364E+06 -0.5915676E-02  0.2493942E+03 -0.1570576E+01
  0.5142857E+00  0.1597358E+05 -0.1570513E+01  0.2043082E+06 -0.7613486E-02  0.2831774E+03 -0.1570492E+01
  0.5452381E+00  0.1780586E+05 -0.1570397E+01  0.2018630E+06 -0.9611549E-02  0.3167974E+03 -0.1570379E+01
  0.5761905E+00  0.1975734E+05 -0.1570247E+01  0.1993097E+06 -0.1192020E-01  0.3552332E+03 -0.1570230E+01
  0.6071429E+00  0.2184601E+05 -0.1570049E+01  0.1966565E+06 -0.1460747E-01  0.3972054E+03 -0.1570032E+01
  0.6380953E+00  0.2403680E+05 -0.1569800E+01  0.1939023E+06 -0.1761730E-01  0.4421600E+03 -0.1569787E+01
  0.6690477E+00  0.2630585E+05 -0.1569487E+01  0.1910599E+06 -0.2101972E-01  0.4892845E+03 -0.1569476E+01
  0.7000000E+00  0.2864458E+05 -0.1569101E+01  0.1881360E+06 -0.2485693E-01  0.5368972E+03 -0.1569088E+01
  0.7309524E+00  0.3108909E+05 -0.1568628E+01  0.1851300E+06 -0.2910800E-01  0.5888670E+03 -0.1568618E+01
  0.7619048E+00  0.3363463E+05 -0.1568057E+01  0.1820593E+06 -0.3381866E-01  0.6460371E+03 -0.1568048E+01
  0.7928572E+00  0.3627139E+05 -0.1567371E+01  0.1789294E+06 -0.3901281E-01  0.7067961E+03 -0.1567363E+01
  0.8238096E+00  0.3897125E+05 -0.1566557E+01  0.1757498E+06 -0.4470653E-01  0.7688092E+03 -0.1566549E+01
  0.8547620E+00  0.4170684E+05 -0.1565596E+01  0.1725257E+06 -0.5091381E-01  0.8309654E+03 -0.1565589E+01
  0.8857143E+00  0.4450371E+05 -0.1564473E+01  0.1692594E+06 -0.5765143E-01  0.8980080E+03 -0.1564465E+01
  0.9166667E+00  0.4739674E+05 -0.1563172E+01  0.1659595E+06 -0.6493447E-01  0.9698834E+03 -0.1563168E+01
  0.9476191E+00  0.5036768E+05 -0.1561674E+01  0.1626458E+06 -0.7277763E-01  0.1045031E+04 -0.1561674E+01
  0.9785714E+00  0.5339768E+05 -0.1559961E+01  0.1593231E+06 -0.8119088E-01  0.1123994E+04 -0.1559963E+01
  0.1009524E+01  0.5647248E+05 -0.1558014E+01  0.1559943E+06 -0.9018250E-01  0.1207915E+04 -0.1558016E+01
  0.1040476E+01  0.5958441E+05 -0.1555815E+01  0.1526592E+06 -0.9975639E-01  0.1294752E+04 -0.1555815E+01
  0.1071429E+01  0.6270348E+05 -0.1553344E+01  0.1493275E+06 -0.1099227E+00  0.1379683E+04 -0.1553335E+01
  0.1102381E+01  0.6582995E+05 -0.1550586E+01  0.1460028E+06 -0.1206900E+00  0.1466505E+04 -0.1550577E+01
  0.1133333E+01  0.6899899E+05 -0.1547539E+01  0.1426974E+06 -0.1320720E+00  0.1559964E+04 -0.1547537E+01
  0.1164286E+01  0.7220005E+05 -0.1544192E+01  0.1394109E+06 -0.1440706E+00  0.1659361E+04 -0.1544213E+01
  0.1195238E+01  0.7543153E+05 -0.1540536E+01  0.1361480E+06 -0.1566814E+00  0.1764105E+04 -0.1540564E+01
  0.1226190E+01  0.7865960E+05 -0.1536562E+01  0.1329141E+06 -0.1699073E+00  0.1869297E+04 -0.1536595E+01
  0.1257143E+01  0.8183668E+05 -0.1532251E+01  0.1297169E+06 -0.1839024E+00  0.1975209E+04 -0.1532288E+01
  0.1288095E+01  0.8503209E+05 -0.1527641E+01  0.1265566E+06 -0.1982135E+00  0.2086005E+04 -0.1527676E+01
  0.1319048E+01  0.8812024E+05 -0.1522691E+01  0.1234423E+06 -0.2133054E+00  0.2196249E+04 -0.1522700E+01
  0.1350000E+01  0.9113346E+05 -0.1517431E+01  0.1203605E+06 -0.2290071E+00  0.2307258E+04 -0.1517394E+01
  0.1380952E+01  0.9406943E+05 -0.1511884E+01  0.1173082E+06 -0.2453028E+00  0.2421185E+04 -0.1511821E+01
  0.1411905E+01  0.9673888E+05 -0.1506386E+01  0.1143314E+06 -0.2620698E+00  0.2518502E+04 -0.1506319E+01
  0.1442857E+01  0.9950275E+05 -0.1500450E+01  0.1113762E+06 -0.2796391E+00  0.2633143E+04 -0.1500432E+01
  0.1473810E+01  0.1021551E+06 -0.1494361E+01  0.1084733E+06 -0.2978375E+00  0.2747285E+04 -0.1494397E+01
  0.1504762E+01  0.1046767E+06 -0.1488158E+01  0.1056264E+06 -0.3166690E+00  0.2862986E+04 -0.1488170E+01
  0.1535714E+01  0.1070380E+06 -0.1481886E+01  0.1028328E+06 -0.3361226E+00  0.2978964E+04 -0.1481856E+01
  0.1566667E+01  0.1092374E+06 -0.1475609E+01  0.1000874E+06 -0.3561982E+00  0.3094628E+04 -0.1475532E+01
  0.1597619E+01  0.1112596E+06 -0.1469405E+01  0.9738915E+05 -0.3768839E+00  0.3209308E+04 -0.1469335E+01
  0.1628572E+01  0.1130995E+06 -0.1463388E+01  0.9474379E+05 -0.3981988E+00  0.3318789E+04 -0.1463321E+01
  0.1659524E+01  0.1147328E+06 -0.1457633E+01  0.9215591E+05 -0.4201383E+00  0.3423802E+04 -0.1457611E+01
  0.1690476E+01  0.1161565E+06 -0.1452224E+01  0.8962416E+05 -0.4427036E+00  0.3523125E+04 -0.1452276E+01
  0.1721429E+01  0.1173706E+06 -0.1447242E+01  0.8714660E+05 -0.4658825E+00  0.3619802E+04 -0.1447268E+01
  0.1752381E+01  0.1183538E+06 -0.1442762E+01  0.8473206E+05 -0.4896913E+00  0.3714817E+04 -0.1442686E+01
  0.1783333E+01  0.1191160E+06 -0.1438884E+01  0.8236565E+05 -0.5141230E+00  0.3805877E+04 -0.1438789E+01
  0.1814286E+01  0.1196649E+06 -0.1435735E+01  0.8004941E+05 -0.5391815E+00  0.3893594E+04 -0.1435626E+01
  0.1845238E+01  0.1199978E+06 -0.1433394E+01  0.7778384E+05 -0.5648530E+00  0.3975607E+04 -0.1433274E+01
  0.1876190E+01  0.1201205E+06 -0.1431934E+01  0.7557044E+05 -0.5911254E+00  0.4049679E+04 -0.1431882E+01
  0.1907143E+01  0.1200322E+06 -0.1431422E+01  0.7341100E+05 -0.6180121E+00  0.4117461E+04 -0.1431372E+01
  0.1938095E+01  0.1197400E+06 -0.1431928E+01  0.7130478E+05 -0.6455476E+00  0.4176840E+04 -0.1431876E+01
  0.1969048E+01  0.1192613E+06 -0.1433534E+01  0.6924975E+05 -0.6737055E+00  0.4232252E+04 -0.1433513E+01
  0.2000000E+01  0.1186104E+06 -0.1436304E+01  0.6725209E+05 -0.7024769E+00  0.4283326E+04 -0.1436285E+01
