VARIABLES="w (rad/s)"
"A   1   1" "B   1   1"
"A   1   2" "B   1   2"
"A   1   3" "B   1   3"
Zone t="Motion of body    1 in DoF   1",I=    64,F=POINT
  0.5000000E-01  0.2134968E+05  0.6536165E-03 -0.5598068E-02 -0.1338516E-04  0.2713114E+03  0.1048061E-04
  0.8095238E-01  0.2137838E+05  0.2812991E-02 -0.3363385E-02 -0.1766064E-04  0.2751975E+03  0.4699660E-04
  0.1119048E+00  0.2135771E+05  0.7922224E-02 -0.3114863E-02 -0.2774340E-04  0.2731571E+03  0.1297789E-03
  0.1428571E+00  0.2142366E+05  0.1785171E-01 -0.2409935E-02 -0.1256198E-04  0.2760117E+03  0.2948644E-03
  0.1738095E+00  0.2144033E+05  0.3558281E-01 -0.2853184E-03 -0.5525879E-05  0.2735977E+03  0.5872723E-03
  0.2047619E+00  0.2150741E+05  0.6580010E-01 -0.2454492E-02 -0.4170185E-04  0.2769429E+03  0.1089284E-02
  0.2357143E+00  0.2148703E+05  0.1159513E+00 -0.4450480E-03 -0.2107519E-04  0.2765439E+03  0.1925898E-02
  0.2666667E+00  0.2156259E+05  0.1983698E+00 -0.3923178E-02 -0.7299526E-04  0.2769523E+03  0.3310222E-02
  0.2976190E+00  0.2161994E+05  0.3334605E+00  0.2371216E-02  0.2731656E-04  0.2808032E+03  0.5605254E-02
  0.3285715E+00  0.2162907E+05  0.5527964E+00 -0.1375779E-02 -0.1125325E-03  0.2803193E+03  0.9324771E-02
  0.3595238E+00  0.2167983E+05  0.9101256E+00 -0.3448385E-03 -0.2769055E-04  0.2816814E+03  0.1543721E-01
  0.3904762E+00  0.2177328E+05  0.1489009E+01 -0.4786979E-03 -0.1049750E-03  0.2851408E+03  0.2542946E-01
  0.4214286E+00  0.2182053E+05  0.2402491E+01 -0.3679566E-02 -0.2617054E-03  0.2882510E+03  0.4137438E-01
  0.4523810E+00  0.2186133E+05  0.3841932E+01 -0.1935256E-02 -0.1092590E-03  0.2894850E+03  0.6661101E-01
  0.4833333E+00  0.2197336E+05  0.6001048E+01  0.1961281E-02 -0.3450364E-04  0.2946804E+03  0.1050706E+00
  0.5142857E+00  0.2210779E+05  0.9222867E+01 -0.3226598E-03 -0.1066625E-03  0.3027399E+03  0.1635361E+00
  0.5452381E+00  0.2214937E+05  0.1382099E+02 -0.2809050E-02 -0.5626120E-03  0.2993720E+03  0.2459644E+00
  0.5761905E+00  0.2220812E+05  0.2023217E+02  0.9997028E-03  0.1069680E-03  0.3032133E+03  0.3638566E+00
  0.6071429E+00  0.2236119E+05  0.2911533E+02 -0.3977158E-02 -0.8495972E-03  0.3093829E+03  0.5293317E+00
  0.6380953E+00  0.2251502E+05  0.4098244E+02  0.4124997E-03 -0.4277304E-03  0.3158768E+03  0.7538765E+00
  0.6690477E+00  0.2263010E+05  0.5667696E+02 -0.2314883E-02 -0.3101826E-03  0.3205166E+03  0.1054258E+01
  0.7000000E+00  0.2271012E+05  0.7717120E+02  0.4468645E-03  0.2397299E-03  0.3203977E+03  0.1446455E+01
  0.7309524E+00  0.2284557E+05  0.1035361E+03  0.2259742E-02  0.4685819E-03  0.3242764E+03  0.1960884E+01
  0.7619048E+00  0.2302681E+05  0.1371858E+03 -0.8060932E-03 -0.1283586E-03  0.3326346E+03  0.2634516E+01
  0.7928572E+00  0.2323616E+05  0.1796697E+03  0.4787273E-02  0.7050633E-03  0.3420602E+03  0.3500401E+01
  0.8238096E+00  0.2342947E+05  0.2326414E+03 -0.1694784E-02 -0.2549291E-03  0.3486703E+03  0.4588868E+01
  0.8547620E+00  0.2357526E+05  0.2978858E+03  0.2677726E-03 -0.2722144E-03  0.3510622E+03  0.5935699E+01
  0.8857143E+00  0.2372539E+05  0.3777248E+03 -0.3785779E-02 -0.2345562E-02  0.3563262E+03  0.7622648E+01
  0.9166667E+00  0.2393310E+05  0.4748716E+03  0.1518943E-02 -0.7855892E-04  0.3644366E+03  0.9715235E+01
  0.9476191E+00  0.2417458E+05  0.5920735E+03 -0.6923963E-03 -0.1229525E-02  0.3732583E+03  0.1227913E+02
  0.9785714E+00  0.2442818E+05  0.7323643E+03 -0.5617351E-02 -0.2095699E-02  0.3828918E+03  0.1540836E+02
  0.1009524E+01  0.2468259E+05  0.8990300E+03 -0.5021906E-02 -0.2450466E-02  0.3943532E+03  0.1922085E+02
  0.1040476E+01  0.2493634E+05  0.1095675E+04 -0.1679165E-02 -0.1818657E-02  0.4055423E+03  0.2380274E+02
  0.1071429E+01  0.2516514E+05  0.1325725E+04 -0.1267497E-02 -0.2150059E-02  0.4119454E+03  0.2917542E+02
  0.1102381E+01  0.2537799E+05  0.1593146E+04  0.2332321E-02  0.1312733E-02  0.4176391E+03  0.3549879E+02
  0.1133333E+01  0.2561454E+05  0.1902414E+04 -0.2181109E-02 -0.1690388E-02  0.4270132E+03  0.4300979E+02
  0.1164286E+01  0.2587222E+05  0.2257814E+04 -0.2011726E-02  0.6451607E-03  0.4389094E+03  0.5184872E+02
  0.1195238E+01  0.2615364E+05  0.2664160E+04  0.3185196E-02 -0.1133919E-02  0.4531608E+03  0.6224907E+02
  0.1226190E+01  0.2643411E+05  0.3125501E+04 -0.5599828E-04  0.7004738E-03  0.4656004E+03  0.7420210E+02
  0.1257143E+01  0.2667709E+05  0.3646150E+04 -0.3720197E-02 -0.7905960E-03  0.4768784E+03  0.8791630E+02
  0.1288095E+01  0.2695315E+05  0.4230518E+04 -0.1178678E-02  0.9956360E-03  0.4901155E+03  0.1036944E+03
  0.1319048E+01  0.2716072E+05  0.4881317E+04 -0.2822600E-02 -0.3099442E-02  0.5007361E+03  0.1216191E+03
  0.1350000E+01  0.2733957E+05  0.5602118E+04 -0.3334328E-03 -0.2069473E-03  0.5102495E+03  0.1418954E+03
  0.1380952E+01  0.2749405E+05  0.6395639E+04  0.3861789E-02 -0.1897812E-03  0.5204877E+03  0.1647521E+03
  0.1411905E+01  0.2750474E+05  0.7222448E+04  0.1615682E-02 -0.2899170E-02  0.5187164E+03  0.1882048E+03
  0.1442857E+01  0.2761975E+05  0.8156081E+04  0.1168582E-02 -0.1791000E-02  0.5282202E+03  0.2159150E+03
  0.1473810E+01  0.2770714E+05  0.9161763E+04 -0.4182732E-02 -0.1007080E-02  0.5366120E+03  0.2463261E+03
  0.1504762E+01  0.2775778E+05  0.1023839E+05 -0.1247261E-02 -0.2477646E-02  0.5451835E+03  0.2800179E+03
  0.1535714E+01  0.2776046E+05  0.1138250E+05 -0.7253247E-03 -0.3618240E-02  0.5530862E+03  0.3168739E+03
  0.1566667E+01  0.2772043E+05  0.1259108E+05 -0.8765687E-03 -0.2779007E-02  0.5602776E+03  0.3569498E+03
  0.1597619E+01  0.2763260E+05  0.1385725E+05 -0.6685669E-03  0.1441956E-02  0.5668529E+03  0.3999857E+03
  0.1628572E+01  0.2749935E+05  0.1517086E+05 -0.1035322E-02 -0.2691269E-02  0.5704549E+03  0.4454540E+03
  0.1659524E+01  0.2731119E+05  0.1652181E+05  0.1986051E-02 -0.2248764E-02  0.5722468E+03  0.4932082E+03
  0.1690476E+01  0.2707204E+05  0.1790193E+05 -0.2694358E-02 -0.4156113E-02  0.5714650E+03  0.5429312E+03
  0.1721429E+01  0.2678658E+05  0.1930213E+05 -0.1396084E-02 -0.1125336E-02  0.5696204E+03  0.5953273E+03
  0.1752381E+01  0.2644220E+05  0.2071171E+05  0.1994009E-02  0.2658844E-02  0.5671204E+03  0.6504979E+03
  0.1783333E+01  0.2605241E+05  0.2211934E+05 -0.5219362E-03 -0.8392334E-02  0.5631278E+03  0.7072620E+03
  0.1814286E+01  0.2562349E+05  0.2351169E+05  0.3784660E-04 -0.3532410E-02  0.5581810E+03  0.7656965E+03
  0.1845238E+01  0.2515488E+05  0.2487644E+05  0.2108666E-03 -0.7781982E-03  0.5515706E+03  0.8248894E+03
  0.1876190E+01  0.2465244E+05  0.2620427E+05  0.2134875E-02 -0.1001358E-01  0.5422311E+03  0.8839456E+03
  0.1907143E+01  0.2411550E+05  0.2748507E+05  0.2880311E-03 -0.5069733E-02  0.5314802E+03  0.9433544E+03
  0.1938095E+01  0.2354644E+05  0.2871219E+05  0.2361926E-04 -0.5645752E-03  0.5181846E+03  0.1002342E+04
  0.1969048E+01  0.2295771E+05  0.2987768E+05 -0.1468497E-02 -0.2330780E-02  0.5043793E+03  0.1061161E+04
  0.2000000E+01  0.2235052E+05  0.3097525E+05  0.9078979E-03 -0.5226135E-03  0.4895196E+03  0.1119611E+04
Zone t="Motion of body    1 in DoF   2",I=    64,F=POINT
  0.5000000E-01 -0.1029968E-02  0.1600385E-04  0.3634193E+05  0.6889022E+02  0.1029968E-02  0.1534820E-05
  0.8095238E-01 -0.3551876E-02  0.1221895E-04  0.3610746E+05  0.1143561E+03  0.7421830E-03  0.3203750E-05
  0.1119048E+00 -0.2940158E-02 -0.2282858E-04  0.3597718E+05  0.1640378E+03  0.7925642E-03  0.5334616E-05
  0.1428571E+00 -0.2219677E-02 -0.3832579E-04  0.3591427E+05  0.2199034E+03  0.6475449E-03  0.7420778E-05
  0.1738095E+00  0.7242699E-03 -0.1952052E-04  0.3592158E+05  0.2845002E+03  0.8998505E-03  0.9059906E-05
  0.2047619E+00 -0.3996117E-02 -0.2264977E-04  0.3598861E+05  0.3609268E+03  0.9547832E-03  0.9775162E-05
  0.2357143E+00 -0.1092391E-02 -0.2795458E-04  0.3609456E+05  0.4536518E+03  0.9143713E-03  0.8344650E-05
  0.2666667E+00  0.3862381E-03 -0.4148483E-04  0.3624407E+05  0.5667058E+03  0.5650520E-03  0.1311302E-04
  0.2976190E+00  0.1403503E-02 -0.8833408E-04  0.3641634E+05  0.7083227E+03  0.7049561E-03  0.2205372E-04
  0.3285715E+00  0.2972146E-02  0.1220703E-03  0.3662075E+05  0.8837982E+03  0.5804973E-03  0.2443790E-04
  0.3595238E+00 -0.7798655E-02 -0.9202957E-04  0.3681929E+05  0.1103364E+04  0.9814635E-03  0.3945827E-04
  0.3904762E+00 -0.6814118E-02 -0.3826618E-04  0.3702659E+05  0.1375922E+04  0.1001358E-02  0.3647804E-04
  0.4214286E+00 -0.8508714E-03  0.1592636E-03  0.3716248E+05  0.1700176E+04  0.7422495E-03  0.5388260E-04
  0.4523810E+00 -0.1665416E-02 -0.8678436E-04  0.3728894E+05  0.2093324E+04  0.1146818E-02  0.7200241E-04
  0.4833333E+00  0.3504260E-02 -0.6287098E-03  0.3731814E+05  0.2527364E+04  0.8681724E-03  0.7486343E-04
  0.5142857E+00 -0.5470382E-02  0.4642010E-03  0.3728321E+05  0.3021937E+04  0.9420183E-03  0.9775162E-04
  0.5452381E+00 -0.4523165E-02  0.2675056E-03  0.3718861E+05  0.3554532E+04  0.5527147E-03  0.7104874E-04
  0.5761905E+00  0.1641896E-02 -0.9737015E-03  0.3703157E+05  0.4117544E+04  0.5362644E-03  0.2112389E-03
  0.6071429E+00  0.2444099E-02 -0.6051064E-03  0.3681764E+05  0.4723286E+04  0.3330006E-03  0.1602173E-03
  0.6380953E+00 -0.5183149E-02 -0.2045631E-03  0.3656961E+05  0.5342117E+04  0.9146733E-03  0.2727509E-03
  0.6690477E+00  0.2599967E-02  0.5240440E-03  0.3627623E+05  0.5987129E+04  0.4846430E-03  0.1373291E-03
  0.7000000E+00 -0.6375994E-03 -0.7457733E-03  0.3594148E+05  0.6660056E+04  0.6866454E-03  0.2326965E-03
  0.7309524E+00 -0.1800487E-02  0.3681183E-03  0.3558473E+05  0.7345017E+04  0.8506650E-03  0.2021790E-03
  0.7619048E+00 -0.1752376E-03  0.3814697E-04  0.3519120E+05  0.8045728E+04  0.7660388E-03  0.3204346E-03
  0.7928572E+00 -0.3757648E-02 -0.1183510E-02  0.3476850E+05  0.8759026E+04  0.1198021E-02  0.2765656E-03
  0.8238096E+00 -0.1574389E-02  0.4663467E-03  0.3431443E+05  0.9480396E+04  0.1069659E-02  0.2803802E-03
  0.8547620E+00  0.1428121E-02 -0.1182556E-03  0.3383533E+05  0.1020513E+05  0.1169274E-02  0.2212524E-03
  0.8857143E+00  0.8355418E-03 -0.7286072E-03  0.3334091E+05  0.1092908E+05  0.1025046E-02  0.4844666E-03
  0.9166667E+00  0.9987571E-04  0.3871918E-03  0.3283484E+05  0.1164818E+05  0.7698752E-03  0.4062653E-03
  0.9476191E+00  0.1569968E-02 -0.6437302E-03  0.3230372E+05  0.1236027E+05  0.6923963E-03  0.2746582E-03
  0.9785714E+00 -0.3348580E-02 -0.1427650E-02  0.3175359E+05  0.1306130E+05  0.7718497E-03  0.2384186E-03
  0.1009524E+01  0.1949814E-02  0.1118660E-02  0.3119192E+05  0.1374741E+05  0.1413237E-02  0.2727509E-03
  0.1040476E+01 -0.3988934E-02  0.2733231E-02  0.3062782E+05  0.1441414E+05  0.5646101E-03  0.6332397E-03
  0.1071429E+01 -0.2734375E-02 -0.9918213E-03  0.3005779E+05  0.1505961E+05  0.6764730E-03  0.3757477E-03
  0.1102381E+01 -0.5619716E-02  0.4522324E-02  0.2948462E+05  0.1568102E+05  0.3875666E-03  0.4329681E-03
  0.1133333E+01 -0.2009448E-02  0.4692078E-03  0.2890705E+05  0.1627729E+05  0.7405001E-03  0.6237030E-03
  0.1164286E+01  0.2234523E-02 -0.1928329E-02  0.2833508E+05  0.1684555E+05  0.6946025E-03  0.7915497E-03
  0.1195238E+01 -0.1442594E-02 -0.6294250E-04  0.2776925E+05  0.1738306E+05  0.4851201E-03  0.5321503E-03
  0.1226190E+01  0.7466437E-03 -0.1173019E-02  0.2720955E+05  0.1788857E+05  0.5599828E-03  0.9670258E-03
  0.1257143E+01 -0.1159148E-02  0.1493454E-02  0.2665661E+05  0.1837578E+05  0.7100538E-03  0.2288818E-03
  0.1288095E+01 -0.2940772E-02 -0.1966476E-02  0.2610520E+05  0.1880009E+05  0.1836132E-03  0.7572174E-03
  0.1319048E+01 -0.1266700E-02 -0.6484985E-04  0.2556150E+05  0.1920631E+05  0.3065529E-03  0.1037598E-02
  0.1350000E+01 -0.1469365E-03  0.9803772E-03  0.2503501E+05  0.1957522E+05  0.8251049E-03  0.5321503E-03
  0.1380952E+01 -0.3803779E-02 -0.3335953E-02  0.2452662E+05  0.1990370E+05  0.5358992E-03  0.1031876E-02
  0.1411905E+01 -0.4698446E-02 -0.4812241E-02  0.2403412E+05  0.2021547E+05  0.3620424E-03  0.5855560E-03
  0.1442857E+01 -0.2316012E-02 -0.8583069E-04  0.2355353E+05  0.2047642E+05  0.1062828E-02  0.7629395E-03
  0.1473810E+01  0.1128509E-02  0.1831055E-03  0.2308699E+05  0.2070287E+05  0.3468355E-03  0.8563995E-03
  0.1504762E+01 -0.2522408E-02 -0.1064301E-02  0.2263347E+05  0.2089640E+05  0.4461747E-03  0.5035400E-03
  0.1535714E+01 -0.5961573E-04 -0.1367569E-02  0.2219659E+05  0.2105556E+05  0.2533669E-03  0.1365662E-02
  0.1566667E+01 -0.2727103E-02 -0.2288818E-02  0.2177871E+05  0.2118125E+05  0.5356809E-03  0.8525848E-03
  0.1597619E+01 -0.1162829E-02 -0.1064301E-02  0.2137993E+05  0.2127095E+05  0.5109761E-03  0.8316040E-03
  0.1628572E+01  0.6230672E-03 -0.1440048E-02  0.2099881E+05  0.2132915E+05  0.4356786E-03  0.7209778E-03
  0.1659524E+01 -0.2487161E-02 -0.1449585E-02  0.2063368E+05  0.2135659E+05  0.4689286E-03  0.4272461E-03
  0.1690476E+01 -0.5068282E-02 -0.8678436E-02  0.2028584E+05  0.2135414E+05  0.1895528E-03  0.7190704E-03
  0.1721429E+01 -0.4434230E-02  0.5970001E-03  0.1995424E+05  0.2132322E+05  0.2747848E-03  0.8640289E-03
  0.1752381E+01 -0.1702309E-02 -0.2021790E-03  0.1963553E+05  0.2126715E+05  0.3004074E-03  0.8773804E-03
  0.1783333E+01 -0.6866455E-03  0.1066208E-02  0.1933738E+05  0.2118275E+05  0.3550877E-03  0.8602142E-03
  0.1814286E+01  0.5025188E-03 -0.3936768E-02  0.1905833E+05  0.2107416E+05  0.2060537E-03  0.7915497E-03
  0.1845238E+01 -0.2501457E-02 -0.5666733E-02  0.1879783E+05  0.2093968E+05  0.1199046E-03  0.9727478E-03
  0.1876190E+01 -0.1061338E-02 -0.1207352E-02  0.1855261E+05  0.2078288E+05  0.3415800E-03  0.1226425E-02
  0.1907143E+01 -0.2212239E-02 -0.7343292E-03  0.1832135E+05  0.2060404E+05  0.2840307E-03  0.6923676E-03
  0.1938095E+01 -0.3125615E-02  0.1543045E-02  0.1810725E+05  0.2040574E+05  0.4408928E-03  0.1235962E-02
  0.1969048E+01 -0.2673517E-02 -0.5416870E-03  0.1790666E+05  0.2018904E+05  0.2053571E-03  0.1167297E-02
  0.2000000E+01  0.3929138E-03 -0.3852844E-03  0.1771753E+05  0.1995660E+05  0.2479553E-03  0.1115799E-02
Zone t="Motion of body    1 in DoF   3",I=    64,F=POINT
  0.5000000E-01  0.2768225E+03  0.1101295E-04 -0.5602837E-04  0.5737654E-06  0.3757963E+03  0.3169297E-06
  0.8095238E-01  0.2815489E+03  0.4850079E-04  0.5058331E-03  0.2739457E-05  0.3752107E+03  0.7141547E-06
  0.1119048E+00  0.2788198E+03  0.1345382E-03  0.1651175E-03  0.2095337E-05  0.3698348E+03  0.1945246E-05
  0.1428571E+00  0.2823031E+03  0.3054635E-03 -0.4380941E-03  0.5825536E-06  0.3722326E+03  0.5290629E-05
  0.1738095E+00  0.2791790E+03  0.6087502E-03  0.2037009E-02  0.2251977E-04  0.3715184E+03  0.1089158E-04
  0.2047619E+00  0.2829768E+03  0.1128653E-02 -0.8354353E-03 -0.4131226E-05  0.3734090E+03  0.1815743E-04
  0.2357143E+00  0.2826326E+03  0.1995634E-02  0.8268789E-03  0.1711922E-04  0.3731890E+03  0.3299494E-04
  0.2666667E+00  0.2825024E+03  0.3434793E-02 -0.4014373E-03 -0.1853907E-05  0.3722777E+03  0.6068210E-04
  0.2976190E+00  0.2865847E+03  0.5803318E-02 -0.3484726E-03  0.7878461E-06  0.3717988E+03  0.9870387E-04
  0.3285715E+00  0.2863299E+03  0.9668473E-02  0.3185479E-03  0.1907658E-04  0.3730918E+03  0.1650064E-03
  0.3595238E+00  0.2872453E+03  0.1601302E-01  0.7725709E-03  0.4211162E-04  0.3713300E+03  0.2729491E-03
  0.3904762E+00  0.2908711E+03  0.2636937E-01 -0.9073280E-03 -0.1589362E-04  0.3724185E+03  0.4441351E-03
  0.4214286E+00  0.2944005E+03  0.4284515E-01  0.1742476E-03  0.2674643E-04  0.3726390E+03  0.7283231E-03
  0.4523810E+00  0.2956176E+03  0.6902560E-01 -0.7720997E-03 -0.2651049E-04  0.3726619E+03  0.1189266E-02
  0.4833333E+00  0.3010613E+03  0.1086855E+00  0.6220258E-03  0.6861694E-04  0.3738254E+03  0.1896068E-02
  0.5142857E+00  0.3094643E+03  0.1684183E+00 -0.2781550E-05  0.3580243E-04  0.3732255E+03  0.2976747E-02
  0.5452381E+00  0.3057302E+03  0.2547448E+00  0.1574187E-04  0.6317097E-04  0.3739685E+03  0.4516951E-02
  0.5761905E+00  0.3097544E+03  0.3763567E+00  0.3972329E-04  0.6150233E-04  0.3734918E+03  0.6761167E-02
  0.6071429E+00  0.3158987E+03  0.5465741E+00 -0.1193776E-03  0.6326381E-04  0.3732437E+03  0.9934292E-02
  0.6380953E+00  0.3228234E+03  0.7771808E+00  0.7719424E-03  0.1959875E-03  0.3750797E+03  0.1429117E-01
  0.6690477E+00  0.3275266E+03  0.1086190E+01  0.1060513E-02  0.3095060E-03  0.3742521E+03  0.2019664E-01
  0.7000000E+00  0.3271322E+03  0.1495892E+01  0.4291534E-04  0.1085412E-03  0.3736931E+03  0.2807316E-01
  0.7309524E+00  0.3312057E+03  0.2029884E+01 -0.1531066E-02 -0.1660688E-03  0.3751282E+03  0.3847425E-01
  0.7619048E+00  0.3396360E+03  0.2719629E+01  0.1019508E-02  0.4428718E-03  0.3749988E+03  0.5226063E-01
  0.7928572E+00  0.3491554E+03  0.3603339E+01 -0.6014162E-03 -0.9239931E-04  0.3747306E+03  0.7023603E-01
  0.8238096E+00  0.3562478E+03  0.4725828E+01  0.6349651E-03  0.2710633E-03  0.3760999E+03  0.9321140E-01
  0.8547620E+00  0.3585296E+03  0.6132101E+01  0.1052681E-02  0.6145220E-03  0.3763506E+03  0.1222774E+00
  0.8857143E+00  0.3638127E+03  0.7878474E+01 -0.5459017E-03 -0.3673322E-04  0.3756195E+03  0.1591312E+00
  0.9166667E+00  0.3719492E+03  0.1003230E+02  0.5623210E-03  0.4367735E-03  0.3754120E+03  0.2048840E+00
  0.9476191E+00  0.3811771E+03  0.1267916E+02  0.6390576E-04  0.2240837E-03  0.3764426E+03  0.2626629E+00
  0.9785714E+00  0.3909303E+03  0.1589554E+02  0.6724448E-04  0.2180114E-03  0.3777190E+03  0.3346420E+00
  0.1009524E+01  0.4026390E+03  0.1978042E+02 -0.4987897E-03 -0.7290766E-04  0.3784513E+03  0.4231698E+00
  0.1040476E+01  0.4138589E+03  0.2445200E+02 -0.5316134E-03 -0.1807623E-03  0.3776977E+03  0.5309532E+00
  0.1071429E+01  0.4203513E+03  0.3005650E+02  0.1383209E-02  0.1257062E-02  0.3775290E+03  0.6620216E+00
  0.1102381E+01  0.4266562E+03  0.3670191E+02  0.5830802E-03  0.7168353E-03  0.3789746E+03  0.8187159E+00
  0.1133333E+01  0.4362183E+03  0.4447750E+02 -0.1156190E-02 -0.5422607E-03  0.3797260E+03  0.1004120E+01
  0.1164286E+01  0.4483296E+03  0.5353138E+02  0.3423866E-03  0.8050576E-03  0.3802014E+03  0.1229202E+01
  0.1195238E+01  0.4623610E+03  0.6408458E+02 -0.6981580E-03 -0.2620965E-03  0.3795546E+03  0.1493323E+01
  0.1226190E+01  0.4746592E+03  0.7633527E+02  0.9776365E-03  0.1765579E-02  0.3797439E+03  0.1808650E+01
  0.1257143E+01  0.4868784E+03  0.9055428E+02 -0.6637790E-03 -0.3530830E-03  0.3811310E+03  0.2184263E+01
  0.1288095E+01  0.5003819E+03  0.1067118E+03 -0.2361798E-03  0.3455728E-03  0.3830199E+03  0.2619788E+01
  0.1319048E+01  0.5110398E+03  0.1251788E+03 -0.4099422E-03 -0.1317561E-03  0.3835625E+03  0.3125442E+01
  0.1350000E+01  0.5205121E+03  0.1461606E+03 -0.6082323E-03 -0.1480281E-03  0.3835147E+03  0.3715212E+01
  0.1380952E+01  0.5308403E+03  0.1697097E+03 -0.3176722E-04  0.1067251E-02  0.3830397E+03  0.4365248E+01
  0.1411905E+01  0.5061404E+03  0.1877708E+03 -0.1471811E-02 -0.1540124E-02  0.3802389E+03  0.4891711E+01
  0.1442857E+01  0.5164650E+03  0.2157613E+03  0.1645796E-03  0.1542985E-02  0.3813542E+03  0.5684081E+01
  0.1473810E+01  0.5253620E+03  0.2465431E+03  0.2944219E-03  0.1681387E-02  0.3830874E+03  0.6641072E+01
  0.1504762E+01  0.5337199E+03  0.2803558E+03 -0.1413309E-03  0.7035136E-03  0.3838676E+03  0.7680389E+01
  0.1535714E+01  0.5412902E+03  0.3171090E+03 -0.7700365E-04  0.9940863E-03  0.3847913E+03  0.8848613E+01
  0.1566667E+01  0.5483513E+03  0.3571122E+03 -0.4084567E-03 -0.3161430E-03  0.3847335E+03  0.1015098E+02
  0.1597619E+01  0.5549059E+03  0.3998227E+03 -0.8452596E-03 -0.5954504E-03  0.3846080E+03  0.1148093E+02
  0.1628572E+01  0.5584445E+03  0.4455771E+03 -0.6781126E-03  0.8304715E-03  0.3846710E+03  0.1301723E+02
  0.1659524E+01  0.5609092E+03  0.4940987E+03 -0.5194994E-03 -0.4651546E-03  0.3853792E+03  0.1463073E+02
  0.1690476E+01  0.5606983E+03  0.5451198E+03 -0.3085875E-03  0.2912879E-03  0.3867943E+03  0.1655391E+02
  0.1721429E+01  0.5586810E+03  0.5984351E+03 -0.7611983E-03 -0.3545284E-03  0.3878439E+03  0.1857749E+02
  0.1752381E+01  0.5555711E+03  0.6535918E+03 -0.4244888E-03  0.8714199E-03  0.3882122E+03  0.2071052E+02
  0.1783333E+01  0.5511375E+03  0.7100797E+03 -0.7379835E-04  0.1316667E-02  0.3885939E+03  0.2285009E+02
  0.1814286E+01  0.5457766E+03  0.7680841E+03 -0.1072320E-03  0.1368761E-02  0.3876777E+03  0.2506005E+02
  0.1845238E+01  0.5386420E+03  0.8266210E+03 -0.1938112E-03 -0.1838207E-03  0.3868834E+03  0.2710888E+02
  0.1876190E+01  0.5290781E+03  0.8861146E+03 -0.1097427E-02 -0.1673460E-02  0.3864937E+03  0.2941245E+02
  0.1907143E+01  0.5186270E+03  0.9464781E+03 -0.8120877E-03  0.1291156E-02  0.3865621E+03  0.3208709E+02
  0.1938095E+01  0.5059051E+03  0.1007801E+04 -0.4207180E-03  0.3635883E-03  0.3875372E+03  0.3493213E+02
  0.1969048E+01  0.4917836E+03  0.1067112E+04 -0.5782933E-03 -0.1069188E-02  0.3891049E+03  0.3817069E+02
  0.2000000E+01  0.4767635E+03  0.1126078E+04 -0.7128716E-03 -0.8082390E-04  0.3895846E+03  0.4126159E+02
