VARIABLES="w (rad/s)"
"abs(F   1   1)" "angle(F   1   1)"
"abs(F   1   2)" "angle(F   1   2)"
"abs(F   1   3)" "angle(F   1   3)"
Zone t="Diffraction force - beta =   0.000 deg",I=    64,F=POINT
  0.5000000E-01  0.3650112E+04 -0.1570800E+01  0.6334236E+06 -0.4468721E-04  0.3433228E+04 -0.1570795E+01
  0.8095238E-01  0.5956024E+04 -0.1570799E+01  0.6321056E+06 -0.1201895E-03  0.5585845E+04 -0.1570794E+01
  0.1119048E+00  0.8310920E+04 -0.1570791E+01  0.6301725E+06 -0.2385913E-03  0.7799132E+04 -0.1570792E+01
  0.1428571E+00  0.1074261E+05 -0.1570785E+01  0.6276229E+06 -0.4088759E-03  0.1009959E+05 -0.1570789E+01
  0.1738095E+00  0.1327233E+05 -0.1570783E+01  0.6244468E+06 -0.6447129E-03  0.1249437E+05 -0.1570784E+01
  0.2047619E+00  0.1593493E+05 -0.1570773E+01  0.6206381E+06 -0.9655904E-03  0.1503786E+05 -0.1570776E+01
  0.2357143E+00  0.1876286E+05 -0.1570763E+01  0.6161876E+06 -0.1400561E-02  0.1775369E+05 -0.1570765E+01
  0.2666667E+00  0.2178839E+05 -0.1570751E+01  0.6110802E+06 -0.1984710E-02  0.2066606E+05 -0.1570749E+01
  0.2976190E+00  0.2506934E+05 -0.1570728E+01  0.6053149E+06 -0.2777455E-02  0.2386467E+05 -0.1570727E+01
  0.3285715E+00  0.2865005E+05 -0.1570692E+01  0.5988749E+06 -0.3838902E-02  0.2737974E+05 -0.1570692E+01
  0.3595238E+00  0.3256966E+05 -0.1570641E+01  0.5917802E+06 -0.5264239E-02  0.3122913E+05 -0.1570640E+01
  0.3904762E+00  0.3689216E+05 -0.1570564E+01  0.5840179E+06 -0.7160324E-02  0.3552645E+05 -0.1570564E+01
  0.4214286E+00  0.4166758E+05 -0.1570453E+01  0.5756982E+06 -0.9591590E-02  0.4033243E+05 -0.1570453E+01
  0.4523810E+00  0.4690164E+05 -0.1570291E+01  0.5667706E+06 -0.1274251E-01  0.4561617E+05 -0.1570291E+01
  0.4833333E+00  0.5258980E+05 -0.1570067E+01  0.5573802E+06 -0.1652482E-01  0.5138916E+05 -0.1570067E+01
  0.5142857E+00  0.5874527E+05 -0.1569759E+01  0.5475581E+06 -0.2115251E-01  0.5776333E+05 -0.1569759E+01
  0.5452381E+00  0.6530660E+05 -0.1569351E+01  0.5373548E+06 -0.2655118E-01  0.6458090E+05 -0.1569349E+01
  0.5761905E+00  0.7222964E+05 -0.1568823E+01  0.5267925E+06 -0.3273097E-01  0.7182180E+05 -0.1568823E+01
  0.6071429E+00  0.7947483E+05 -0.1568149E+01  0.5159501E+06 -0.3986762E-01  0.7949442E+05 -0.1568148E+01
  0.6380953E+00  0.8700883E+05 -0.1567318E+01  0.5047890E+06 -0.4778444E-01  0.8760742E+05 -0.1567316E+01
  0.6690477E+00  0.9481074E+05 -0.1566299E+01  0.4934182E+06 -0.5665204E-01  0.9612670E+05 -0.1566296E+01
  0.7000000E+00  0.1028216E+06 -0.1565062E+01  0.4818914E+06 -0.6657016E-01  0.1049538E+06 -0.1565058E+01
  0.7309524E+00  0.1110055E+06 -0.1563593E+01  0.4701330E+06 -0.7744898E-01  0.1140655E+06 -0.1563587E+01
  0.7619048E+00  0.1193482E+06 -0.1561865E+01  0.4582507E+06 -0.8939333E-01  0.1234898E+06 -0.1561856E+01
  0.7928572E+00  0.1278143E+06 -0.1559853E+01  0.4463132E+06 -0.1024639E+00  0.1332541E+06 -0.1559841E+01
  0.8238096E+00  0.1363921E+06 -0.1557544E+01  0.4343274E+06 -0.1166801E+00  0.1433184E+06 -0.1557528E+01
  0.8547620E+00  0.1449910E+06 -0.1554922E+01  0.4223274E+06 -0.1320691E+00  0.1535433E+06 -0.1554899E+01
  0.8857143E+00  0.1536156E+06 -0.1551981E+01  0.4103049E+06 -0.1486457E+00  0.1639374E+06 -0.1551950E+01
  0.9166667E+00  0.1621950E+06 -0.1548723E+01  0.3982709E+06 -0.1664437E+00  0.1744618E+06 -0.1548681E+01
  0.9476191E+00  0.1706827E+06 -0.1545161E+01  0.3863198E+06 -0.1855142E+00  0.1850546E+06 -0.1545106E+01
  0.9785714E+00  0.1790197E+06 -0.1541314E+01  0.3744711E+06 -0.2058921E+00  0.1956917E+06 -0.1541243E+01
  0.1009524E+01  0.1871843E+06 -0.1537222E+01  0.3627076E+06 -0.2276018E+00  0.2063435E+06 -0.1537131E+01
  0.1040476E+01  0.1950964E+06 -0.1532931E+01  0.3510370E+06 -0.2506806E+00  0.2169322E+06 -0.1532812E+01
  0.1071429E+01  0.2026934E+06 -0.1528501E+01  0.3395096E+06 -0.2751760E+00  0.2273131E+06 -0.1528350E+01
  0.1102381E+01  0.2099285E+06 -0.1524015E+01  0.3280846E+06 -0.3011223E+00  0.2374115E+06 -0.1523824E+01
  0.1133333E+01  0.2166934E+06 -0.1519561E+01  0.3167951E+06 -0.3286062E+00  0.2471769E+06 -0.1519319E+01
  0.1164286E+01  0.2229891E+06 -0.1515266E+01  0.3056028E+06 -0.3576866E+00  0.2565218E+06 -0.1514966E+01
  0.1195238E+01  0.2287161E+06 -0.1511247E+01  0.2945544E+06 -0.3884782E+00  0.2653758E+06 -0.1510880E+01
  0.1226190E+01  0.2338567E+06 -0.1507659E+01  0.2836673E+06 -0.4211105E+00  0.2736616E+06 -0.1507221E+01
  0.1257143E+01  0.2383614E+06 -0.1504590E+01  0.2729932E+06 -0.4560054E+00  0.2813523E+06 -0.1504076E+01
  0.1288095E+01  0.2421994E+06 -0.1502413E+01  0.2624500E+06 -0.4924290E+00  0.2883747E+06 -0.1501821E+01
  0.1319048E+01  0.2453486E+06 -0.1501077E+01  0.2521122E+06 -0.5314977E+00  0.2946618E+06 -0.1500408E+01
  0.1350000E+01  0.2478182E+06 -0.1500849E+01  0.2419774E+06 -0.5730746E+00  0.3001911E+06 -0.1500101E+01
  0.1380952E+01  0.2495752E+06 -0.1501870E+01  0.2320480E+06 -0.6173875E+00  0.3049347E+06 -0.1501050E+01
  0.1411905E+01  0.2509344E+06 -0.1503768E+01  0.2224456E+06 -0.6599478E+00  0.3093366E+06 -0.1502896E+01
  0.1442857E+01  0.2514134E+06 -0.1507612E+01  0.2129813E+06 -0.7106462E+00  0.3126027E+06 -0.1506704E+01
  0.1473810E+01  0.2512732E+06 -0.1513154E+01  0.2038601E+06 -0.7652600E+00  0.3150506E+06 -0.1512240E+01
  0.1504762E+01  0.2505064E+06 -0.1520519E+01  0.1951769E+06 -0.8241879E+00  0.3167475E+06 -0.1519629E+01
  0.1535714E+01  0.2492130E+06 -0.1529840E+01  0.1869591E+06 -0.8878853E+00  0.3176641E+06 -0.1529054E+01
  0.1566667E+01  0.2473965E+06 -0.1541231E+01  0.1792785E+06 -0.9565927E+00  0.3179030E+06 -0.1540589E+01
  0.1597619E+01  0.2451269E+06 -0.1554727E+01  0.1723331E+06 -0.1030719E+01  0.3174469E+06 -0.1554334E+01
  0.1628572E+01  0.2424640E+06 -0.1570445E+01  0.1661421E+06 -0.1110425E+01  0.3163828E+06 -0.1570402E+01
  0.1659524E+01  0.2394569E+06 -0.1588475E+01  0.1609019E+06 -0.1195424E+01  0.3148318E+06 -0.1588888E+01
  0.1690476E+01  0.2361854E+06 -0.1608811E+01  0.1567634E+06 -0.1285041E+01  0.3128091E+06 -0.1609845E+01
  0.1721429E+01  0.2326771E+06 -0.1631477E+01  0.1538773E+06 -0.1377785E+01  0.3103943E+06 -0.1633301E+01
  0.1752381E+01  0.2289949E+06 -0.1656491E+01  0.1522634E+06 -0.1472233E+01  0.3076521E+06 -0.1659311E+01
  0.1783333E+01  0.2251876E+06 -0.1683849E+01  0.1519071E+06 -0.1566619E+01  0.3046205E+06 -0.1687864E+01
  0.1814286E+01  0.2212842E+06 -0.1713513E+01  0.1527676E+06 -0.1658702E+01  0.3013701E+06 -0.1718961E+01
  0.1845238E+01  0.2173497E+06 -0.1745397E+01  0.1547230E+06 -0.1746164E+01  0.2979420E+06 -0.1752638E+01
  0.1876190E+01  0.2134121E+06 -0.1779534E+01  0.1575435E+06 -0.1828365E+01  0.2944312E+06 -0.1788840E+01
  0.1907143E+01  0.2094940E+06 -0.1815901E+01  0.1610272E+06 -0.1904482E+01  0.2909219E+06 -0.1827523E+01
  0.1938095E+01  0.2056497E+06 -0.1854368E+01  0.1648714E+06 -0.1973793E+01  0.2874605E+06 -0.1868636E+01
  0.1969048E+01  0.2018998E+06 -0.1894793E+01  0.1688292E+06 -0.2036894E+01  0.2840479E+06 -0.1912093E+01
  0.2000000E+01  0.1982536E+06 -0.1937092E+01  0.1727183E+06 -0.2094362E+01  0.2807597E+06 -0.1957784E+01
