VARIABLES="w (rad/s)"
"abs(F   1   1)" "angle(F   1   1)"
"abs(F   1   2)" "angle(F   1   2)"
"abs(F   1   3)" "angle(F   1   3)"
Zone t="Diffraction force - beta =   0.000 deg",I=    64,F=POINT
  0.5000000E-01  0.2281959E+04 -0.1570794E+01  0.1365937E+03 -0.3108239E+01  0.6834279E+04  0.1570799E+01
  0.8095238E-01  0.3745852E+04 -0.1570790E+01  0.3549517E+03 -0.3107239E+01  0.1120437E+05  0.1570803E+01
  0.1119048E+00  0.5235021E+04 -0.1570783E+01  0.6740320E+03 -0.3105941E+01  0.1564457E+05  0.1570810E+01
  0.1428571E+00  0.6768321E+04 -0.1570773E+01  0.1093748E+04 -0.3104284E+01  0.2021764E+05  0.1570820E+01
  0.1738095E+00  0.8363214E+04 -0.1570758E+01  0.1614509E+04 -0.3102228E+01  0.2495608E+05  0.1570835E+01
  0.2047619E+00  0.1004882E+05 -0.1570736E+01  0.2232443E+04 -0.3099537E+01  0.2995695E+05  0.1570857E+01
  0.2357143E+00  0.1183639E+05 -0.1570705E+01  0.2949111E+04 -0.3096159E+01  0.3524081E+05  0.1570888E+01
  0.2666667E+00  0.1374987E+05 -0.1570659E+01  0.3765172E+04 -0.3092131E+01  0.4089250E+05  0.1570934E+01
  0.2976190E+00  0.1583714E+05 -0.1570591E+01  0.4669351E+04 -0.3086920E+01  0.4702675E+05  0.1571002E+01
  0.3285715E+00  0.1810351E+05 -0.1570491E+01  0.5670488E+04 -0.3080835E+01  0.5366516E+05  0.1571103E+01
  0.3595238E+00  0.2060796E+05 -0.1570341E+01  0.6746440E+04 -0.3073315E+01  0.6094345E+05  0.1571253E+01
  0.3904762E+00  0.2334661E+05 -0.1570119E+01  0.7901610E+04 -0.3064492E+01  0.6895177E+05  0.1571476E+01
  0.4214286E+00  0.2640190E+05 -0.1569795E+01  0.9115982E+04 -0.3054730E+01  0.7781178E+05  0.1571800E+01
  0.4523810E+00  0.2978163E+05 -0.1569324E+01  0.1036651E+05 -0.3043091E+01  0.8752232E+05  0.1572273E+01
  0.4833333E+00  0.3344167E+05 -0.1568675E+01  0.1167517E+05 -0.3031971E+01  0.9803681E+05  0.1572924E+01
  0.5142857E+00  0.3745229E+05 -0.1567780E+01  0.1294567E+05 -0.3019222E+01  0.1095502E+06  0.1573821E+01
  0.5452381E+00  0.4171730E+05 -0.1566595E+01  0.1426247E+05 -0.3007066E+01  0.1216979E+06  0.1575008E+01
  0.5761905E+00  0.4627977E+05 -0.1565069E+01  0.1554854E+05 -0.2995109E+01  0.1344950E+06  0.1576539E+01
  0.6071429E+00  0.5113123E+05 -0.1563116E+01  0.1679586E+05 -0.2982453E+01  0.1481066E+06  0.1578497E+01
  0.6380953E+00  0.5615788E+05 -0.1560696E+01  0.1808148E+05 -0.2971457E+01  0.1622190E+06  0.1580919E+01
  0.6690477E+00  0.6141024E+05 -0.1557721E+01  0.1926573E+05 -0.2959955E+01  0.1767798E+06  0.1583898E+01
  0.7000000E+00  0.6696454E+05 -0.1554106E+01  0.2040205E+05 -0.2948268E+01  0.1919768E+06  0.1587521E+01
  0.7309524E+00  0.7263359E+05 -0.1549775E+01  0.2154807E+05 -0.2937756E+01  0.2073566E+06  0.1591862E+01
  0.7619048E+00  0.7851319E+05 -0.1544634E+01  0.2260088E+05 -0.2927190E+01  0.2231261E+06  0.1597014E+01
  0.7928572E+00  0.8466608E+05 -0.1538606E+01  0.2355017E+05 -0.2916327E+01  0.2395802E+06  0.1603049E+01
  0.8238096E+00  0.9083025E+05 -0.1531553E+01  0.2446683E+05 -0.2906021E+01  0.2560407E+06  0.1610096E+01
  0.8547620E+00  0.9726757E+05 -0.1523454E+01  0.2537063E+05 -0.2896549E+01  0.2729169E+06  0.1618194E+01
  0.8857143E+00  0.1038177E+06 -0.1514181E+01  0.2608432E+05 -0.2886456E+01  0.2895966E+06  0.1627491E+01
  0.9166667E+00  0.1106208E+06 -0.1503687E+01  0.2672726E+05 -0.2876632E+01  0.3068464E+06  0.1638002E+01
  0.9476191E+00  0.1173352E+06 -0.1491794E+01  0.2731109E+05 -0.2867212E+01  0.3236329E+06  0.1649907E+01
  0.9785714E+00  0.1241914E+06 -0.1478488E+01  0.2785620E+05 -0.2858337E+01  0.3406979E+06  0.1663204E+01
  0.1009524E+01  0.1310072E+06 -0.1463664E+01  0.2825530E+05 -0.2849476E+01  0.3572718E+06  0.1678025E+01
  0.1040476E+01  0.1379499E+06 -0.1447347E+01  0.2851784E+05 -0.2840425E+01  0.3739997E+06  0.1694319E+01
  0.1071429E+01  0.1448520E+06 -0.1429495E+01  0.2870604E+05 -0.2831532E+01  0.3902842E+06  0.1712141E+01
  0.1102381E+01  0.1514752E+06 -0.1409985E+01  0.2884541E+05 -0.2823169E+01  0.4051644E+06  0.1731668E+01
  0.1133333E+01  0.1581309E+06 -0.1388896E+01  0.2893485E+05 -0.2815052E+01  0.4200068E+06  0.1752744E+01
  0.1164286E+01  0.1644118E+06 -0.1366104E+01  0.2887470E+05 -0.2807232E+01  0.4332946E+06  0.1775559E+01
  0.1195238E+01  0.1705616E+06 -0.1341748E+01  0.2868529E+05 -0.2799353E+01  0.4459776E+06  0.1799930E+01
  0.1226190E+01  0.1763805E+06 -0.1315758E+01  0.2842745E+05 -0.2791557E+01  0.4577500E+06  0.1825868E+01
  0.1257143E+01  0.1813892E+06 -0.1288000E+01  0.2812071E+05 -0.2783753E+01  0.4671753E+06  0.1853533E+01
  0.1288095E+01  0.1862021E+06 -0.1258895E+01  0.2777336E+05 -0.2776528E+01  0.4757522E+06  0.1882552E+01
  0.1319048E+01  0.1903808E+06 -0.1228471E+01  0.2739154E+05 -0.2769238E+01  0.4826143E+06  0.1912791E+01
  0.1350000E+01  0.1938235E+06 -0.1197028E+01  0.2683460E+05 -0.2762712E+01  0.4867443E+06  0.1944195E+01
  0.1380952E+01  0.1967824E+06 -0.1164676E+01  0.2622306E+05 -0.2756264E+01  0.4895604E+06  0.1976479E+01
  0.1411905E+01  0.1984395E+06 -0.1131558E+01  0.2555144E+05 -0.2750004E+01  0.4897287E+06  0.2009206E+01
  0.1442857E+01  0.1996516E+06 -0.1097447E+01  0.2486012E+05 -0.2743689E+01  0.4880242E+06  0.2043145E+01
  0.1473810E+01  0.1999089E+06 -0.1062717E+01  0.2415668E+05 -0.2737572E+01  0.4837481E+06  0.2077694E+01
  0.1504762E+01  0.1995021E+06 -0.1027571E+01  0.2341787E+05 -0.2731359E+01  0.4782108E+06  0.2112498E+01
  0.1535714E+01  0.1981874E+06 -0.9926201E+00  0.2265868E+05 -0.2725657E+01  0.4700097E+06  0.2147186E+01
  0.1566667E+01  0.1961315E+06 -0.9579729E+00  0.2180972E+05 -0.2721287E+01  0.4598609E+06  0.2181691E+01
  0.1597619E+01  0.1934072E+06 -0.9236767E+00  0.2093771E+05 -0.2716699E+01  0.4483927E+06  0.2215713E+01
  0.1628572E+01  0.1899422E+06 -0.8896882E+00  0.2004810E+05 -0.2712311E+01  0.4355540E+06  0.2249339E+01
  0.1659524E+01  0.1856174E+06 -0.8561013E+00  0.1916481E+05 -0.2708027E+01  0.4207617E+06  0.2282575E+01
  0.1690476E+01  0.1804616E+06 -0.8231958E+00  0.1830660E+05 -0.2703705E+01  0.4039809E+06  0.2315120E+01
  0.1721429E+01  0.1749246E+06 -0.7912080E+00  0.1743339E+05 -0.2699686E+01  0.3868863E+06  0.2346736E+01
  0.1752381E+01  0.1689952E+06 -0.7603517E+00  0.1657554E+05 -0.2695687E+01  0.3693251E+06  0.2377058E+01
  0.1783333E+01  0.1623821E+06 -0.7305565E+00  0.1572218E+05 -0.2692817E+01  0.3500153E+06  0.2406430E+01
  0.1814286E+01  0.1555442E+06 -0.7019119E+00  0.1487044E+05 -0.2690882E+01  0.3307633E+06  0.2434656E+01
  0.1845238E+01  0.1484807E+06 -0.6743798E+00  0.1401501E+05 -0.2689031E+01  0.3116170E+06  0.2461480E+01
  0.1876190E+01  0.1411875E+06 -0.6478400E+00  0.1316949E+05 -0.2687598E+01  0.2925839E+06  0.2487221E+01
  0.1907143E+01  0.1335861E+06 -0.6223935E+00  0.1235622E+05 -0.2686638E+01  0.2731019E+06  0.2511955E+01
  0.1938095E+01  0.1257445E+06 -0.5982714E+00  0.1159030E+05 -0.2685377E+01  0.2532522E+06  0.2535173E+01
  0.1969048E+01  0.1178702E+06 -0.5752198E+00  0.1085184E+05 -0.2684424E+01  0.2338851E+06  0.2557453E+01
  0.2000000E+01  0.1100273E+06 -0.5529459E+00  0.1012161E+05 -0.2684144E+01  0.2152954E+06  0.2578872E+01
