VARIABLES="w (rad/s)"
"A   1   1" "B   1   1"
"A   1   2" "B   1   2"
"A   1   3" "B   1   3"
Zone t="Motion of body    1 in DoF   1",I=    64,F=POINT
  0.5000000E-01  0.8211052E+05  0.8074315E-02  0.9155273E-03  0.5863651E-05  0.1338604E+06  0.1790844E-01
  0.8095238E-01  0.8236181E+05  0.3554205E-01 -0.9565914E-02 -0.7562261E-04  0.1336621E+06  0.7867133E-01
  0.1119048E+00  0.8246342E+05  0.9981523E-01 -0.7567710E-02 -0.2900604E-04  0.1337619E+06  0.2206003E+00
  0.1428571E+00  0.8254858E+05  0.2245281E+00  0.1425934E-01  0.1146521E-03  0.1339897E+06  0.4970844E+00
  0.1738095E+00  0.8262773E+05  0.4465500E+00 -0.1009588E-01 -0.2127928E-03  0.1341587E+06  0.9891629E+00
  0.2047619E+00  0.8273016E+05  0.8230625E+00 -0.1605899E-01 -0.8633453E-04  0.1344513E+06  0.1824644E+01
  0.2357143E+00  0.8289284E+05  0.1448146E+01 -0.9256998E-02 -0.3646966E-03  0.1348936E+06  0.3213868E+01
  0.2666667E+00  0.8301480E+05  0.2467390E+01 -0.4520416E-02 -0.6709248E-04  0.1351349E+06  0.5482089E+01
  0.2976190E+00  0.8317446E+05  0.4131885E+01 -0.1148438E-01 -0.2565160E-03  0.1356037E+06  0.9193206E+01
  0.3285715E+00  0.8340591E+05  0.6827460E+01  0.1904031E-02 -0.3321543E-03  0.1362016E+06  0.1521420E+02
  0.3595238E+00  0.8361489E+05  0.1118945E+02  0.1451505E-01  0.1419857E-02  0.1366898E+06  0.2497142E+02
  0.3904762E+00  0.8384168E+05  0.1820879E+02 -0.6135149E-02  0.1839846E-03  0.1373347E+06  0.4071302E+02
  0.4214286E+00  0.8414415E+05  0.2921913E+02  0.1223806E-01  0.7549226E-03  0.1380985E+06  0.6545544E+02
  0.4523810E+00  0.8448008E+05  0.4648214E+02 -0.3440455E-02 -0.1150370E-02  0.1390095E+06  0.1043507E+03
  0.4833333E+00  0.8479650E+05  0.7208663E+02  0.1155459E-01  0.1474142E-02  0.1397829E+06  0.1621852E+03
  0.5142857E+00  0.8520257E+05  0.1099432E+03  0.3857083E-02 -0.5010366E-03  0.1409421E+06  0.2479742E+03
  0.5452381E+00  0.8563753E+05  0.1636484E+03  0.7724013E-02 -0.1847744E-04  0.1419919E+06  0.3699604E+03
  0.5761905E+00  0.8606570E+05  0.2377897E+03  0.1816678E-01  0.1535416E-02  0.1430074E+06  0.5388691E+03
  0.6071429E+00  0.8655121E+05  0.3390151E+03 -0.1085708E-01 -0.6065369E-03  0.1442591E+06  0.7702792E+03
  0.6380953E+00  0.8708616E+05  0.4724417E+03 -0.1138260E-01  0.3271103E-03  0.1456671E+06  0.1076502E+04
  0.6690477E+00  0.8765614E+05  0.6468062E+03  0.2782421E-01  0.6656647E-02  0.1471296E+06  0.1478069E+04
  0.7000000E+00  0.8825347E+05  0.8717561E+03 -0.3252302E-01 -0.9896278E-02  0.1486298E+06  0.1997944E+04
  0.7309524E+00  0.8889459E+05  0.1155956E+04 -0.2333849E-01 -0.3754616E-02  0.1501998E+06  0.2657149E+04
  0.7619048E+00  0.8953938E+05  0.1511401E+04 -0.1766395E-01 -0.4299164E-02  0.1518477E+06  0.3485164E+04
  0.7928572E+00  0.9022371E+05  0.1950666E+04 -0.3541138E-02  0.5550385E-03  0.1536795E+06  0.4513191E+04
  0.8238096E+00  0.9094904E+05  0.2486717E+04 -0.3334001E-02 -0.5741119E-03  0.1556440E+06  0.5773500E+04
  0.8547620E+00  0.9167260E+05  0.3133097E+04  0.8568724E-03 -0.6866455E-04  0.1574939E+06  0.7298971E+04
  0.8857143E+00  0.9238209E+05  0.3903811E+04  0.7097798E-02 -0.2632141E-02  0.1593058E+06  0.9125935E+04
  0.9166667E+00  0.9309038E+05  0.4812274E+04  0.4660866E-03  0.1350403E-02  0.1612090E+06  0.1129076E+05
  0.9476191E+00  0.9376548E+05  0.5871444E+04  0.1339706E-01 -0.3570557E-02  0.1630247E+06  0.1382670E+05
  0.9785714E+00  0.9440612E+05  0.7093759E+04  0.7484603E-02 -0.8621216E-03  0.1647630E+06  0.1676752E+05
  0.1009524E+01  0.9497809E+05  0.8488026E+04  0.4171696E-02  0.1678467E-03  0.1664590E+06  0.2014323E+05
  0.1040476E+01  0.9550229E+05  0.1006230E+05 -0.1290537E-02 -0.4623413E-02  0.1680000E+06  0.2397471E+05
  0.1071429E+01  0.9594043E+05  0.1182093E+05  0.9855144E-02  0.3173828E-02  0.1693255E+06  0.2827997E+05
  0.1102381E+01  0.9625288E+05  0.1376408E+05  0.1943370E-01  0.1188660E-01  0.1703392E+06  0.3306721E+05
  0.1133333E+01  0.9645501E+05  0.1588874E+05  0.3231273E-02 -0.3845215E-02  0.1710490E+06  0.3833112E+05
  0.1164286E+01  0.9650696E+05  0.1818432E+05 -0.7077082E-02 -0.1243591E-01  0.1714639E+06  0.4405852E+05
  0.1195238E+01  0.9644546E+05  0.2063653E+05  0.5821441E-02  0.7141113E-02  0.1715483E+06  0.5021237E+05
  0.1226190E+01  0.9621155E+05  0.2322799E+05 -0.8063751E-02 -0.6927490E-02  0.1713011E+06  0.5676372E+05
  0.1257143E+01  0.9584177E+05  0.2596762E+05 -0.1912897E-01 -0.7934570E-02  0.1707212E+06  0.6374134E+05
  0.1288095E+01  0.9531524E+05  0.2872480E+05  0.3316883E-03  0.6713867E-03  0.1697598E+06  0.7082438E+05
  0.1319048E+01  0.9463298E+05  0.3158312E+05 -0.1624152E-01 -0.1538086E-01  0.1683885E+06  0.7822709E+05
  0.1350000E+01  0.9381696E+05  0.3447118E+05  0.1632125E-01 -0.1937866E-01  0.1666807E+06  0.8576920E+05
  0.1380952E+01  0.9288071E+05  0.3735380E+05 -0.9281553E-02 -0.1547241E-01  0.1646459E+06  0.9337093E+05
  0.1411905E+01  0.9140496E+05  0.4010650E+05  0.1262285E-01 -0.1330566E-01  0.1611011E+06  0.1007786E+06
  0.1442857E+01  0.9024107E+05  0.4293779E+05 -0.9306351E-02  0.1336670E-01  0.1584996E+06  0.1084054E+06
  0.1473810E+01  0.8898365E+05  0.4568672E+05  0.3271642E-02  0.1220703E-03  0.1556270E+06  0.1159034E+06
  0.1504762E+01  0.8765380E+05  0.4835232E+05 -0.3001539E-02 -0.5249023E-02  0.1524628E+06  0.1232359E+06
  0.1535714E+01  0.8622504E+05  0.5090032E+05 -0.5842342E-02 -0.1263428E-01  0.1491188E+06  0.1303587E+06
  0.1566667E+01  0.8476719E+05  0.5331564E+05  0.1862222E-01  0.1641846E-01  0.1456001E+06  0.1371853E+06
  0.1597619E+01  0.8327238E+05  0.5557963E+05 -0.1146115E-02 -0.7263184E-02  0.1419678E+06  0.1436823E+06
  0.1628572E+01  0.8174629E+05  0.5769051E+05 -0.1750210E-01  0.8300781E-02  0.1382543E+06  0.1498513E+06
  0.1659524E+01  0.8022382E+05  0.5964128E+05  0.1688143E-01 -0.1135254E-01  0.1344788E+06  0.1556465E+06
  0.1690476E+01  0.7870148E+05  0.6142761E+05 -0.1278128E-01 -0.2514648E-01  0.1306801E+06  0.1610860E+06
  0.1721429E+01  0.7720484E+05  0.6306260E+05 -0.2411015E-02  0.7385254E-02  0.1268652E+06  0.1661423E+06
  0.1752381E+01  0.7572180E+05  0.6454426E+05  0.4353731E-02  0.2020264E-01  0.1230699E+06  0.1708417E+06
  0.1783333E+01  0.7426309E+05  0.6586890E+05  0.1095210E-02 -0.6103516E-03  0.1193361E+06  0.1751778E+06
  0.1814286E+01  0.7286180E+05  0.6704100E+05 -0.8948619E-02  0.9643555E-02  0.1156539E+06  0.1790973E+06
  0.1845238E+01  0.7149776E+05  0.6805985E+05  0.5986958E-02 -0.2807617E-02  0.1120679E+06  0.1826553E+06
  0.1876190E+01  0.7016933E+05  0.6894301E+05  0.4521869E-02 -0.4577637E-02  0.1085741E+06  0.1858796E+06
  0.1907143E+01  0.6890066E+05  0.6970495E+05 -0.2080224E-02  0.2215576E-01  0.1051583E+06  0.1887594E+06
  0.1938095E+01  0.6767420E+05  0.7033595E+05  0.1228201E-02 -0.5371094E-02  0.1018671E+06  0.1913343E+06
  0.1969048E+01  0.6651414E+05  0.7085567E+05  0.1450674E-01  0.1708984E-02  0.9868307E+05  0.1935957E+06
  0.2000000E+01  0.6540955E+05  0.7129113E+05 -0.1516724E-01  0.4150391E-02  0.9559658E+05  0.1955722E+06
Zone t="Motion of body    1 in DoF   2",I=    64,F=POINT
  0.5000000E-01  0.1564026E-01 -0.2789497E-04  0.2794054E+06  0.8122520E+03 -0.6103516E-03  0.2098083E-04
  0.8095238E-01 -0.3873488E-01  0.3433228E-04  0.2756771E+06  0.1346300E+04 -0.4033706E-01 -0.8583069E-04
  0.1119048E+00  0.2249860E-02  0.1621246E-04  0.2736949E+06  0.1927008E+04  0.5999626E-02  0.9536743E-04
  0.1428571E+00 -0.1570129E-01 -0.6961823E-04  0.2725324E+06  0.2575434E+04 -0.1751709E-01  0.3509521E-03
  0.1738095E+00  0.6320901E-02 -0.7247925E-04  0.2722436E+06  0.3319565E+04 -0.1826038E-01  0.2365112E-03
  0.2047619E+00  0.8048124E-02  0.1411438E-03  0.2724198E+06  0.4192244E+04  0.1073083E-01  0.4043579E-03
  0.2357143E+00 -0.6667628E-02 -0.4177094E-03  0.2730946E+06  0.5240971E+04  0.6732362E-02 -0.2212524E-03
  0.2666667E+00  0.2506256E-01 -0.2346039E-03  0.2740731E+06  0.6505816E+04  0.1556396E-01 -0.6408691E-03
  0.2976190E+00 -0.2871094E-02  0.1869202E-03  0.2751935E+06  0.8073435E+04 -0.2050781E-01  0.1983643E-03
  0.3285715E+00 -0.8359161E-03  0.5149841E-03  0.2766504E+06  0.9989900E+04 -0.2489173E-01 -0.6408691E-03
  0.3595238E+00 -0.9676699E-02  0.1728058E-02  0.2778617E+06  0.1235677E+05  0.1969293E-01 -0.5493164E-03
  0.3904762E+00 -0.1492756E-01  0.2517700E-03  0.2790634E+06  0.1525284E+05 -0.2000762E-01  0.2899170E-02
  0.4214286E+00 -0.3475900E-02 -0.1602173E-03  0.2793888E+06  0.1863363E+05 -0.2027608E-01  0.2471924E-02
  0.4523810E+00  0.1065866E-01  0.1304626E-02  0.2795275E+06  0.2266589E+05  0.3453947E-01 -0.1281738E-02
  0.4833333E+00 -0.2778152E-02 -0.1510620E-02  0.2785796E+06  0.2701046E+05  0.1919450E-01  0.2929688E-02
  0.5142857E+00  0.1946343E-01  0.1022339E-02  0.2768629E+06  0.3186467E+05 -0.1424154E-01 -0.3417969E-02
  0.5452381E+00 -0.1779881E-01 -0.7171631E-03  0.2745628E+06  0.3695254E+05  0.1567191E-01 -0.5249023E-02
  0.5761905E+00  0.3167270E-01  0.2166748E-02  0.2716399E+06  0.4217913E+05  0.3008377E-01 -0.3662109E-03
  0.6071429E+00 -0.1005285E-02 -0.2151489E-02  0.2681134E+06  0.4766423E+05  0.4423253E-02 -0.1220703E-02
  0.6380953E+00  0.2027825E-01 -0.3356934E-03  0.2644108E+06  0.5307586E+05  0.1147825E-01  0.6103516E-03
  0.6690477E+00 -0.1030864E-01 -0.2471924E-02  0.2602809E+06  0.5854893E+05 -0.8392877E-02  0.9765625E-03
  0.7000000E+00  0.4185268E-02  0.1281738E-02  0.2558552E+06  0.6409248E+05 -0.1150949E-01  0.2685547E-02
  0.7309524E+00 -0.2922530E-02 -0.1312256E-02  0.2513963E+06  0.6952499E+05 -0.2672027E-01  0.1220703E-03
  0.7619048E+00 -0.1401901E-01 -0.3936768E-02  0.2467107E+06  0.7490018E+05 -0.3076172E-01  0.1489258E-01
  0.7928572E+00  0.1231700E-01  0.2044678E-02  0.2418464E+06  0.8019973E+05 -0.5542651E-02 -0.8544922E-02
  0.8238096E+00 -0.6890269E-02 -0.4211426E-02  0.2369115E+06  0.8537618E+05 -0.1511414E-01 -0.2441406E-02
  0.8547620E+00  0.2027931E-01 -0.3051758E-03  0.2319818E+06  0.9038670E+05  0.2085056E-01  0.8056641E-02
  0.8857143E+00 -0.5788495E-02  0.2227783E-02  0.2270515E+06  0.9520603E+05  0.1653856E-01  0.2929688E-02
  0.9166667E+00  0.1198508E-01  0.4516602E-02  0.2221570E+06  0.9980774E+05  0.2050781E-01  0.4638672E-02
  0.9476191E+00 -0.1223770E-01  0.4089355E-02  0.2172613E+06  0.1042015E+06 -0.4122173E-02  0.7324219E-02
  0.9785714E+00  0.2750592E-01  0.3723145E-02  0.2124066E+06  0.1083637E+06  0.1347229E-01  0.6835938E-02
  0.1009524E+01  0.1813781E-02 -0.2990723E-02  0.2076239E+06  0.1122850E+06  0.2418374E-02  0.7324219E-02
  0.1040476E+01 -0.2299503E-01  0.9033203E-02  0.2029499E+06  0.1159446E+06 -0.1149752E-01  0.1220703E-01
  0.1071429E+01  0.4272461E-02 -0.2319336E-02  0.1984189E+06  0.1193257E+06  0.1116536E-01  0.9765625E-03
  0.1102381E+01 -0.6810099E-02  0.5798340E-02  0.1940341E+06  0.1224274E+06 -0.4429333E-03  0.9765625E-02
  0.1133333E+01  0.4254509E-02 -0.3662109E-03  0.1897841E+06  0.1252500E+06 -0.2369600E-02 -0.2026367E-01
  0.1164286E+01  0.1205725E-01 -0.3845215E-02  0.1856924E+06  0.1278078E+06  0.1467839E-01 -0.6835938E-02
  0.1195238E+01 -0.1148969E-01  0.1953125E-02  0.1817487E+06  0.1300979E+06  0.1205140E-01  0.1708984E-02
  0.1226190E+01 -0.1433556E-01  0.2075195E-02  0.1779933E+06  0.1321314E+06  0.1095077E-01  0.1538086E-01
  0.1257143E+01 -0.1490506E-01  0.5981445E-02  0.1744613E+06  0.1339805E+06  0.7768110E-02 -0.2490234E-01
  0.1288095E+01 -0.3648571E-02 -0.4577637E-02  0.1710258E+06  0.1354025E+06  0.2899903E-01  0.8300781E-02
  0.1319048E+01  0.3239050E-02 -0.2319336E-02  0.1678036E+06  0.1366883E+06 -0.1480708E-02  0.2929688E-02
  0.1350000E+01 -0.7369430E-02  0.2441406E-03  0.1647502E+06  0.1377553E+06 -0.1265914E-01 -0.2294922E-01
  0.1380952E+01 -0.4419787E-02 -0.6896973E-02  0.1618937E+06  0.1385802E+06 -0.9016366E-02  0.1953125E-02
  0.1411905E+01  0.8213500E-02  0.6103516E-04  0.1588696E+06  0.1388530E+06  0.6052053E-02  0.1025391E-01
  0.1442857E+01 -0.1108302E-01  0.7080078E-02  0.1564274E+06  0.1393240E+06 -0.9813970E-02  0.3857422E-01
  0.1473810E+01 -0.7371548E-02  0.5981445E-02  0.1541568E+06  0.1396204E+06  0.1209265E-01 -0.2441406E-01
  0.1504762E+01  0.2932585E-01  0.9704590E-02  0.1520912E+06  0.1398192E+06  0.1119493E-01 -0.1513672E-01
  0.1535714E+01 -0.1669240E-02 -0.8911133E-02  0.1501754E+06  0.1399112E+06 -0.3449764E-01 -0.2148438E-01
  0.1566667E+01  0.9350066E-03 -0.2685547E-02  0.1484572E+06  0.1398917E+06 -0.1558344E-03  0.1708984E-01
  0.1597619E+01 -0.1566357E-02 -0.5676270E-02  0.1469173E+06  0.1397645E+06  0.2429763E-01 -0.9277344E-02
  0.1628572E+01 -0.9219521E-02  0.4028320E-02  0.1455327E+06  0.1396466E+06  0.6446169E-02  0.3613281E-01
  0.1659524E+01 -0.1015093E-01 -0.6713867E-03  0.1443057E+06  0.1395075E+06  0.3236527E-02  0.1757812E-01
  0.1690476E+01 -0.2202423E-02 -0.2746582E-02  0.1432218E+06  0.1393849E+06 -0.2599582E-02  0.6835938E-02
  0.1721429E+01 -0.4254733E-03 -0.1220703E-01  0.1422617E+06  0.1393436E+06  0.9644061E-02 -0.8789062E-02
  0.1752381E+01 -0.1515098E-01  0.2258301E-02  0.1413735E+06  0.1394164E+06  0.9891677E-02  0.5371094E-02
  0.1783333E+01  0.1485379E-01  0.9765625E-02  0.1405639E+06  0.1395896E+06  0.9583090E-02 -0.1171875E-01
  0.1814286E+01  0.1281738E-01  0.4455566E-02  0.1398361E+06  0.1398460E+06  0.3539078E-01  0.2392578E-01
  0.1845238E+01 -0.4862336E-02  0.5615234E-02  0.1390991E+06  0.1402023E+06  0.8732359E-02 -0.1513672E-01
  0.1876190E+01  0.7156914E-03  0.3479004E-02  0.1383785E+06  0.1406879E+06  0.1171131E-01 -0.3906250E-02
  0.1907143E+01  0.1632176E-02  0.1159668E-02  0.1376625E+06  0.1412821E+06 -0.7296788E-02  0.1953125E-01
  0.1938095E+01  0.5826083E-02  0.7019043E-02  0.1369070E+06  0.1419050E+06  0.1939928E-01  0.3417969E-02
  0.1969048E+01 -0.5703503E-02 -0.5737305E-02  0.1361423E+06  0.1425295E+06 -0.5703503E-02  0.1806641E-01
  0.2000000E+01  0.5706787E-02 -0.7263184E-02  0.1353494E+06  0.1432116E+06 -0.4394531E-02 -0.1074219E-01
Zone t="Motion of body    1 in DoF   3",I=    64,F=POINT
  0.5000000E-01  0.1329334E+06  0.1777973E-01 -0.6408691E-02  0.4331116E-05  0.4464072E+06  0.3949187E-01
  0.8095238E-01  0.1328908E+06  0.7816029E-01 -0.4429537E-01 -0.2421106E-03  0.4470446E+06  0.1728590E+00
  0.1119048E+00  0.1329935E+06  0.2191732E+00  0.2413486E-01  0.3607757E-04  0.4471866E+06  0.4846480E+00
  0.1428571E+00  0.1332586E+06  0.4935370E+00  0.6622314E-02  0.6113201E-04  0.4480299E+06  0.1092069E+01
  0.1738095E+00  0.1334284E+06  0.9825815E+00  0.2563477E-01  0.3496306E-03  0.4484495E+06  0.2176061E+01
  0.2047619E+00  0.1337516E+06  0.1812412E+01  0.8942360E-02 -0.1778081E-04  0.4494652E+06  0.4018251E+01
  0.2357143E+00  0.1341721E+06  0.3191908E+01 -0.2563476E-01 -0.4132278E-03  0.4505856E+06  0.7084212E+01
  0.2666667E+00  0.1344051E+06  0.5445124E+01 -0.2082825E-01 -0.3182441E-03  0.4509752E+06  0.1209755E+02
  0.2976190E+00  0.1348753E+06  0.9129586E+01 -0.5106445E-01 -0.1686074E-02  0.4522903E+06  0.2031082E+02
  0.3285715E+00  0.1354446E+06  0.1510728E+02  0.1634680E-01  0.3266335E-03  0.4536660E+06  0.3366278E+02
  0.3595238E+00  0.1359020E+06  0.2479811E+02  0.1884410E-01  0.1595348E-02  0.4545953E+06  0.5534009E+02
  0.3904762E+00  0.1365691E+06  0.4042502E+02 -0.3813953E-01 -0.1886874E-02  0.4565649E+06  0.9038503E+02
  0.4214286E+00  0.1372798E+06  0.6498643E+02 -0.3852456E-01 -0.1605809E-02  0.4581171E+06  0.1455811E+03
  0.4523810E+00  0.1381787E+06  0.1035803E+03  0.2968236E-02  0.3553629E-03  0.4605468E+06  0.2325318E+03
  0.4833333E+00  0.1389523E+06  0.1609817E+03  0.1578495E-01 -0.2311468E-03  0.4625108E+06  0.3621712E+03
  0.5142857E+00  0.1401608E+06  0.2460232E+03 -0.3679064E-02  0.1098871E-02  0.4663243E+06  0.5548836E+03
  0.5452381E+00  0.1411510E+06  0.3670834E+03 -0.8619551E-02 -0.1904011E-02  0.4683706E+06  0.8298647E+03
  0.5761905E+00  0.1421132E+06  0.5347444E+03  0.1038102E-01  0.6452084E-02  0.4703861E+06  0.1211805E+04
  0.6071429E+00  0.1433842E+06  0.7642279E+03 -0.2553423E-01 -0.5235672E-02  0.4739103E+06  0.1736469E+04
  0.6380953E+00  0.1448319E+06  0.1067757E+04 -0.1587825E-01 -0.1848221E-02  0.4780582E+06  0.2432948E+04
  0.6690477E+00  0.1462623E+06  0.1465950E+04  0.1441385E-01 -0.2935410E-02  0.4816288E+06  0.3349966E+04
  0.7000000E+00  0.1477130E+06  0.1981649E+04 -0.4743303E-01 -0.1168823E-01  0.4850310E+06  0.4541781E+04
  0.7309524E+00  0.1492558E+06  0.2635720E+04 -0.2571826E-01 -0.1322746E-01  0.4887363E+06  0.6058580E+04
  0.7619048E+00  0.1508943E+06  0.3456620E+04 -0.8972167E-02 -0.7499695E-02  0.4930144E+06  0.7970521E+04
  0.7928572E+00  0.1527582E+06  0.4474609E+04  0.3079251E-03 -0.1815796E-02  0.4983409E+06  0.1035240E+05
  0.8238096E+00  0.1547267E+06  0.5722465E+04  0.2504205E-01  0.6889343E-02  0.5037582E+06  0.1328564E+05
  0.8547620E+00  0.1565220E+06  0.7235413E+04  0.4098706E-01 -0.2639771E-02  0.5081313E+06  0.1685597E+05
  0.8857143E+00  0.1582872E+06  0.9048104E+04  0.9647493E-03 -0.4577637E-02  0.5124342E+06  0.2115208E+05
  0.9166667E+00  0.1601649E+06  0.1119316E+05  0.1664595E-01  0.1300049E-01  0.5174240E+06  0.2626139E+05
  0.9476191E+00  0.1619805E+06  0.1370559E+05 -0.5023899E-02  0.3753662E-02  0.5223762E+06  0.3227402E+05
  0.9785714E+00  0.1637295E+06  0.1661790E+05  0.5987682E-02 -0.7598877E-02  0.5273828E+06  0.3927827E+05
  0.1009524E+01  0.1654242E+06  0.1995573E+05  0.2128169E-01  0.2276611E-01  0.5324433E+06  0.4735595E+05
  0.1040476E+01  0.1669667E+06  0.2374994E+05  0.9855012E-02 -0.3814697E-02  0.5369368E+06  0.5658820E+05
  0.1071429E+01  0.1682646E+06  0.2801638E+05 -0.9798178E-02  0.5126953E-02  0.5407019E+06  0.6703562E+05
  0.1102381E+01  0.1692628E+06  0.3276701E+05 -0.5979599E-02 -0.3631592E-02  0.5434726E+06  0.7873927E+05
  0.1133333E+01  0.1699698E+06  0.3799098E+05 -0.6677964E-02 -0.1742554E-01  0.5456909E+06  0.9167713E+05
  0.1164286E+01  0.1703759E+06  0.4366568E+05  0.1677531E-01  0.1904297E-01  0.5473214E+06  0.1058197E+06
  0.1195238E+01  0.1704951E+06  0.4977061E+05 -0.1858776E-01 -0.1867676E-01  0.5483299E+06  0.1211249E+06
  0.1226190E+01  0.1702739E+06  0.5624792E+05  0.2389260E-02 -0.2337646E-01  0.5488650E+06  0.1374906E+06
  0.1257143E+01  0.1697224E+06  0.6314841E+05  0.3204346E-01  0.8666992E-02  0.5485293E+06  0.1550429E+06
  0.1288095E+01  0.1688292E+06  0.7015570E+05  0.9287272E-02  0.1116943E-01  0.5473922E+06  0.1730092E+06
  0.1319048E+01  0.1674867E+06  0.7748396E+05  0.4849320E-01  0.1123047E-01  0.5449671E+06  0.1919413E+06
  0.1350000E+01  0.1657997E+06  0.8495229E+05 -0.1320168E-01  0.1477051E-01  0.5416486E+06  0.2113943E+06
  0.1380952E+01  0.1638139E+06  0.9249158E+05 -0.1944706E-02  0.2050781E-01  0.5375179E+06  0.2311994E+06
  0.1411905E+01  0.1573636E+06  0.9760295E+05  0.1729158E-03  0.1599121E-01  0.5202366E+06  0.2452544E+06
  0.1442857E+01  0.1548547E+06  0.1049806E+06  0.3096477E-01  0.2868652E-01  0.5148269E+06  0.2650349E+06
  0.1473810E+01  0.1520902E+06  0.1122530E+06 -0.1987833E-02  0.2722168E-01  0.5085790E+06  0.2847354E+06
  0.1504762E+01  0.1490441E+06  0.1193842E+06  0.3731643E-02  0.3125000E-01  0.5015821E+06  0.3042491E+06
  0.1535714E+01  0.1457983E+06  0.1262694E+06 -0.2305142E-01 -0.4699707E-01  0.4941001E+06  0.3233777E+06
  0.1566667E+01  0.1424200E+06  0.1328858E+06  0.2306350E-01  0.5212402E-01  0.4862357E+06  0.3419127E+06
  0.1597619E+01  0.1389556E+06  0.1391910E+06 -0.6571058E-02 -0.5371094E-02  0.4780547E+06  0.3598176E+06
  0.1628572E+01  0.1353814E+06  0.1451429E+06 -0.1004403E-01  0.3527832E-01  0.4695994E+06  0.3769777E+06
  0.1659524E+01  0.1317541E+06  0.1507633E+06 -0.8826892E-02 -0.3247070E-01  0.4608588E+06  0.3934453E+06
  0.1690476E+01  0.1281089E+06  0.1560564E+06 -0.1704170E-01 -0.5126953E-02  0.4518669E+06  0.4091980E+06
  0.1721429E+01  0.1244442E+06  0.1610050E+06  0.7233046E-02 -0.2539062E-01  0.4427528E+06  0.4241736E+06
  0.1752381E+01  0.1207928E+06  0.1655865E+06  0.2786388E-03 -0.4882812E-03  0.4336302E+06  0.4383399E+06
  0.1783333E+01  0.1171861E+06  0.1698051E+06 -0.5339150E-02 -0.1586914E-01  0.4245262E+06  0.4516434E+06
  0.1814286E+01  0.1136531E+06  0.1736703E+06 -0.1130352E-01  0.2416992E-01  0.4155288E+06  0.4640759E+06
  0.1845238E+01  0.1102210E+06  0.1772042E+06  0.2222782E-01  0.2929688E-02  0.4066233E+06  0.4756917E+06
  0.1876190E+01  0.1068448E+06  0.1803673E+06  0.1132094E-01  0.1147461E-01  0.3978888E+06  0.4864573E+06
  0.1907143E+01  0.1035613E+06  0.1832273E+06  0.7808843E-02  0.2099609E-01  0.3893323E+06  0.4964352E+06
  0.1938095E+01  0.1003927E+06  0.1858149E+06 -0.1650199E-01  0.4101562E-01  0.3809180E+06  0.5057329E+06
  0.1969048E+01  0.9733889E+05  0.1881331E+06  0.1822641E-01 -0.3393555E-01  0.3727030E+06  0.5143166E+06
  0.2000000E+01  0.9436223E+05  0.1901731E+06 -0.6591797E-02 -0.2001953E-01  0.3647117E+06  0.5222410E+06
