VARIABLES="w (rad/s)"
"abs(F   1   1)" "angle(F   1   1)"
"abs(F   1   2)" "angle(F   1   2)"
"abs(F   1   3)" "angle(F   1   3)"
Zone t="Diffraction force - beta =   0.000 deg",I=    64,F=POINT
  0.5000000E-01  0.2025388E+04 -0.1570794E+01  0.5711211E+02 -0.3114965E+01  0.8682579E+04  0.1570798E+01
  0.8095238E-01  0.3315901E+04 -0.1570791E+01  0.1484799E+03 -0.3114217E+01  0.1418036E+05  0.1570802E+01
  0.1119048E+00  0.4626935E+04 -0.1570786E+01  0.2821263E+03 -0.3113260E+01  0.1976005E+05  0.1570807E+01
  0.1428571E+00  0.5978843E+04 -0.1570778E+01  0.4575719E+03 -0.3112008E+01  0.2549015E+05  0.1570815E+01
  0.1738095E+00  0.7380731E+04 -0.1570766E+01  0.6744962E+03 -0.3110449E+01  0.3142383E+05  0.1570827E+01
  0.2047619E+00  0.8843680E+04 -0.1570750E+01  0.9322355E+03 -0.3108441E+01  0.3759737E+05  0.1570844E+01
  0.2357143E+00  0.1039457E+05 -0.1570726E+01  0.1228578E+04 -0.3105864E+01  0.4411125E+05  0.1570869E+01
  0.2666667E+00  0.1204486E+05 -0.1570691E+01  0.1565627E+04 -0.3102851E+01  0.5101305E+05  0.1570904E+01
  0.2976190E+00  0.1382954E+05 -0.1570639E+01  0.1934996E+04 -0.3098888E+01  0.5841511E+05  0.1570957E+01
  0.3285715E+00  0.1575325E+05 -0.1570564E+01  0.2342752E+04 -0.3094336E+01  0.6637804E+05  0.1571034E+01
  0.3595238E+00  0.1787458E+05 -0.1570451E+01  0.2773849E+04 -0.3088651E+01  0.7509791E+05  0.1571149E+01
  0.3904762E+00  0.2016858E+05 -0.1570285E+01  0.3235612E+04 -0.3082045E+01  0.8449030E+05  0.1571318E+01
  0.4214286E+00  0.2272188E+05 -0.1570046E+01  0.3708886E+04 -0.3074691E+01  0.9480126E+05  0.1571563E+01
  0.4523810E+00  0.2547935E+05 -0.1569698E+01  0.4196699E+04 -0.3066018E+01  0.1059511E+06  0.1571918E+01
  0.4833333E+00  0.2848786E+05 -0.1569223E+01  0.4687866E+04 -0.3057616E+01  0.1179797E+06  0.1572402E+01
  0.5142857E+00  0.3171091E+05 -0.1568571E+01  0.5169219E+04 -0.3048240E+01  0.1307445E+06  0.1573067E+01
  0.5452381E+00  0.3512896E+05 -0.1567716E+01  0.5656088E+04 -0.3039269E+01  0.1441827E+06  0.1573938E+01
  0.5761905E+00  0.3876650E+05 -0.1566626E+01  0.6109742E+04 -0.3030300E+01  0.1583015E+06  0.1575050E+01
  0.6071429E+00  0.4250313E+05 -0.1565235E+01  0.6552618E+04 -0.3021019E+01  0.1727645E+06  0.1576465E+01
  0.6380953E+00  0.4639098E+05 -0.1563533E+01  0.6988124E+04 -0.3012734E+01  0.1875004E+06  0.1578199E+01
  0.6690477E+00  0.5044492E+05 -0.1561461E+01  0.7378234E+04 -0.3004204E+01  0.2026290E+06  0.1580309E+01
  0.7000000E+00  0.5451447E+05 -0.1558947E+01  0.7749370E+04 -0.2995629E+01  0.2176952E+06  0.1582865E+01
  0.7309524E+00  0.5870057E+05 -0.1555972E+01  0.8111422E+04 -0.2987715E+01  0.2329585E+06  0.1585888E+01
  0.7619048E+00  0.6303780E+05 -0.1552482E+01  0.8409611E+04 -0.2979577E+01  0.2484538E+06  0.1589435E+01
  0.7928572E+00  0.6733549E+05 -0.1548398E+01  0.8682218E+04 -0.2971491E+01  0.2635611E+06  0.1593582E+01
  0.8238096E+00  0.7173183E+05 -0.1543688E+01  0.8931807E+04 -0.2963569E+01  0.2787070E+06  0.1598363E+01
  0.8547620E+00  0.7613307E+05 -0.1538292E+01  0.9145476E+04 -0.2955845E+01  0.2934540E+06  0.1603841E+01
  0.8857143E+00  0.8065115E+05 -0.1532178E+01  0.9301232E+04 -0.2948086E+01  0.3082956E+06  0.1610045E+01
  0.9166667E+00  0.8506551E+05 -0.1525254E+01  0.9429331E+04 -0.2940390E+01  0.3225322E+06  0.1617056E+01
  0.9476191E+00  0.8952630E+05 -0.1517506E+01  0.9527039E+04 -0.2932636E+01  0.3366812E+06  0.1624886E+01
  0.9785714E+00  0.9392670E+05 -0.1508889E+01  0.9597268E+04 -0.2924913E+01  0.3499770E+06  0.1633607E+01
  0.1009524E+01  0.9842075E+05 -0.1499406E+01  0.9596946E+04 -0.2917573E+01  0.3630227E+06  0.1643216E+01
  0.1040476E+01  0.1027878E+06 -0.1488940E+01  0.9564854E+04 -0.2910022E+01  0.3754411E+06  0.1653792E+01
  0.1071429E+01  0.1069724E+06 -0.1477457E+01  0.9505627E+04 -0.2902376E+01  0.3867211E+06  0.1665393E+01
  0.1102381E+01  0.1111606E+06 -0.1464973E+01  0.9424416E+04 -0.2894625E+01  0.3977137E+06  0.1677981E+01
  0.1133333E+01  0.1152081E+06 -0.1451442E+01  0.9310449E+04 -0.2886840E+01  0.4076144E+06  0.1691634E+01
  0.1164286E+01  0.1192532E+06 -0.1436910E+01  0.9145324E+04 -0.2879946E+01  0.4170201E+06  0.1706295E+01
  0.1195238E+01  0.1230518E+06 -0.1421219E+01  0.8950091E+04 -0.2872684E+01  0.4256081E+06  0.1722057E+01
  0.1226190E+01  0.1265128E+06 -0.1404504E+01  0.8738065E+04 -0.2865317E+01  0.4321986E+06  0.1738876E+01
  0.1257143E+01  0.1297708E+06 -0.1386720E+01  0.8505950E+04 -0.2857528E+01  0.4380245E+06  0.1756713E+01
  0.1288095E+01  0.1329901E+06 -0.1367937E+01  0.8264691E+04 -0.2849852E+01  0.4428133E+06  0.1775632E+01
  0.1319048E+01  0.1359121E+06 -0.1348114E+01  0.7989266E+04 -0.2842971E+01  0.4463302E+06  0.1795578E+01
  0.1350000E+01  0.1386813E+06 -0.1327332E+01  0.7700322E+04 -0.2836573E+01  0.4490135E+06  0.1816461E+01
  0.1380952E+01  0.1410427E+06 -0.1305364E+01  0.7387788E+04 -0.2830202E+01  0.4504496E+06  0.1838486E+01
  0.1411905E+01  0.1425540E+06 -0.1282205E+01  0.7073103E+04 -0.2823497E+01  0.4492514E+06  0.1861464E+01
  0.1442857E+01  0.1441686E+06 -0.1258260E+01  0.6751047E+04 -0.2816767E+01  0.4477881E+06  0.1885387E+01
  0.1473810E+01  0.1454356E+06 -0.1233466E+01  0.6435612E+04 -0.2809679E+01  0.4450441E+06  0.1910087E+01
  0.1504762E+01  0.1462622E+06 -0.1207919E+01  0.6113707E+04 -0.2802524E+01  0.4406008E+06  0.1935551E+01
  0.1535714E+01  0.1468355E+06 -0.1181905E+01  0.5785244E+04 -0.2797626E+01  0.4351503E+06  0.1961495E+01
  0.1566667E+01  0.1470776E+06 -0.1155300E+01  0.5460227E+04 -0.2792392E+01  0.4288320E+06  0.1987954E+01
  0.1597619E+01  0.1467891E+06 -0.1128039E+01  0.5126490E+04 -0.2787817E+01  0.4210578E+06  0.2015105E+01
  0.1628572E+01  0.1459051E+06 -0.1100509E+01  0.4809110E+04 -0.2782652E+01  0.4111094E+06  0.2042397E+01
  0.1659524E+01  0.1447470E+06 -0.1072435E+01  0.4493367E+04 -0.2778202E+01  0.4008521E+06  0.2070268E+01
  0.1690476E+01  0.1433111E+06 -0.1044068E+01  0.4195388E+04 -0.2773007E+01  0.3901695E+06  0.2098279E+01
  0.1721429E+01  0.1412658E+06 -0.1015736E+01  0.3908494E+04 -0.2767836E+01  0.3774433E+06  0.2126225E+01
  0.1752381E+01  0.1390315E+06 -0.9874573E+00  0.3628764E+04 -0.2764220E+01  0.3645848E+06  0.2154182E+01
  0.1783333E+01  0.1365787E+06 -0.9595599E+00  0.3370247E+04 -0.2760321E+01  0.3513395E+06  0.2181614E+01
  0.1814286E+01  0.1337573E+06 -0.9315916E+00  0.3108279E+04 -0.2758122E+01  0.3378068E+06  0.2209136E+01
  0.1845238E+01  0.1305568E+06 -0.9038577E+00  0.2852127E+04 -0.2757695E+01  0.3236157E+06  0.2236492E+01
  0.1876190E+01  0.1269009E+06 -0.8768349E+00  0.2620405E+04 -0.2755626E+01  0.3081032E+06  0.2262653E+01
  0.1907143E+01  0.1230953E+06 -0.8499583E+00  0.2396668E+04 -0.2755649E+01  0.2929290E+06  0.2288886E+01
  0.1938095E+01  0.1191624E+06 -0.8232552E+00  0.2189875E+04 -0.2754006E+01  0.2782218E+06  0.2314893E+01
  0.1969048E+01  0.1149950E+06 -0.7975305E+00  0.2004161E+04 -0.2750658E+01  0.2630612E+06  0.2339704E+01
  0.2000000E+01  0.1106716E+06 -0.7727745E+00  0.1825466E+04 -0.2750506E+01  0.2477779E+06  0.2363509E+01
