VARIABLES="w (rad/s)"
"A   1   1" "B   1   1"
"A   1   2" "B   1   2"
"A   1   3" "B   1   3"
Zone t="Motion of body    1 in DoF   1",I=    64,F=POINT
  0.5000000E-01  0.9277912E+05  0.4708445E-02 -0.2250671E-02  0.1542902E-04 -0.1120483E+06 -0.4402387E-02
  0.8095238E-01  0.9333302E+05  0.2058430E-01  0.8034426E-02  0.1757295E-04 -0.1128798E+06 -0.1933526E-01
  0.1119048E+00  0.9348821E+05  0.5793617E-01  0.1977149E-02 -0.1346225E-04 -0.1130831E+06 -0.5442854E-01
  0.1428571E+00  0.9370088E+05  0.1304164E+00 -0.2323150E-01 -0.1101157E-03 -0.1131511E+06 -0.1221920E+00
  0.1738095E+00  0.9376935E+05  0.2594234E+00 -0.4411462E-02 -0.6873009E-04 -0.1132185E+06 -0.2422992E+00
  0.2047619E+00  0.9393625E+05  0.4789490E+00 -0.1713952E-01 -0.9971973E-04 -0.1132605E+06 -0.4469399E+00
  0.2357143E+00  0.9402524E+05  0.8432046E+00 -0.2605554E-02 -0.1008299E-03 -0.1133236E+06 -0.7853833E+00
  0.2666667E+00  0.9414878E+05  0.1438037E+01 -0.1181602E-01  0.1744526E-03 -0.1133925E+06 -0.1336255E+01
  0.2976190E+00  0.9435319E+05  0.2412963E+01 -0.1717529E-02 -0.4817266E-04 -0.1134846E+06 -0.2236448E+01
  0.3285715E+00  0.9454888E+05  0.3992119E+01 -0.2925707E-02  0.1132488E-04 -0.1135643E+06 -0.3687417E+01
  0.3595238E+00  0.9469539E+05  0.6552867E+01 -0.6238924E-02 -0.2180524E-03 -0.1137025E+06 -0.6034793E+01
  0.3904762E+00  0.9495136E+05  0.1068464E+02  0.3184807E-02  0.3079027E-03 -0.1138147E+06 -0.9802146E+01
  0.4214286E+00  0.9526301E+05  0.1719629E+02  0.1075357E-01  0.5187914E-03 -0.1139729E+06 -0.1570740E+02
  0.4523810E+00  0.9553785E+05  0.2742466E+02  0.7403724E-02 -0.1044199E-03 -0.1141290E+06 -0.2494604E+02
  0.4833333E+00  0.9583650E+05  0.4265751E+02 -0.3472690E-02 -0.3886819E-03 -0.1143094E+06 -0.3862153E+02
  0.5142857E+00  0.9626558E+05  0.6531542E+02 -0.1171960E-01 -0.6361902E-03 -0.1144681E+06 -0.5880551E+02
  0.5452381E+00  0.9667005E+05  0.9760905E+02  0.1399278E-01  0.1559645E-02 -0.1147398E+06 -0.8744207E+02
  0.5761905E+00  0.9704630E+05  0.1423972E+03  0.6964817E-02  0.1638055E-02 -0.1150260E+06 -0.1269239E+03
  0.6071429E+00  0.9752627E+05  0.2040211E+03 -0.8318732E-02 -0.1329541E-02 -0.1152768E+06 -0.1807538E+03
  0.6380953E+00  0.9806034E+05  0.2859261E+03 -0.7269560E-02 -0.7025003E-03 -0.1155484E+06 -0.2516635E+03
  0.6690477E+00  0.9865712E+05  0.3939677E+03  0.6157817E-02  0.1134872E-02 -0.1159065E+06 -0.3444970E+03
  0.7000000E+00  0.9924735E+05  0.5346319E+03  0.1022339E-01  0.2793074E-02 -0.1162772E+06 -0.4644139E+03
  0.7309524E+00  0.9983278E+05  0.7141985E+03  0.6241689E-02  0.3688097E-02 -0.1166818E+06 -0.6162878E+03
  0.7619048E+00  0.1005310E+06  0.9419412E+03  0.7510184E-02  0.2582550E-02 -0.1170982E+06 -0.8067539E+03
  0.7928572E+00  0.1012750E+06  0.1227464E+04  0.2040004E-02 -0.2970695E-02 -0.1174671E+06 -0.1042633E+04
  0.8238096E+00  0.1021133E+06  0.1582063E+04 -0.1185423E-02  0.4858971E-03 -0.1179167E+06 -0.1332517E+04
  0.8547620E+00  0.1028900E+06  0.2016640E+04 -0.5141234E-02 -0.3929138E-02 -0.1183777E+06 -0.1684589E+04
  0.8857143E+00  0.1037290E+06  0.2545786E+04 -0.5409487E-02  0.3205299E-02 -0.1188901E+06 -0.2108615E+04
  0.9166667E+00  0.1045677E+06  0.3183418E+04  0.7557262E-02  0.5670547E-02 -0.1193633E+06 -0.2613109E+04
  0.9476191E+00  0.1054741E+06  0.3946146E+04 -0.4959490E-02  0.2670288E-04 -0.1198354E+06 -0.3208237E+04
  0.9785714E+00  0.1063752E+06  0.4850467E+04  0.6237169E-04  0.2593994E-02 -0.1202595E+06 -0.3903745E+04
  0.1009524E+01  0.1073551E+06  0.5916415E+04  0.5229734E-02 -0.3757477E-03 -0.1207149E+06 -0.4711839E+04
  0.1040476E+01  0.1082979E+06  0.7160188E+04 -0.3812951E-02 -0.4119873E-02 -0.1211224E+06 -0.5640851E+04
  0.1071429E+01  0.1092296E+06  0.8601111E+04 -0.8516439E-02 -0.7511139E-02 -0.1215238E+06 -0.6701608E+04
  0.1102381E+01  0.1101280E+06  0.1025767E+05  0.1320495E-01  0.4131317E-02 -0.1219421E+06 -0.7905212E+04
  0.1133333E+01  0.1109077E+06  0.1214196E+05 -0.1456766E-01 -0.4013062E-02 -0.1221979E+06 -0.9247957E+04
  0.1164286E+01  0.1116838E+06  0.1427530E+05  0.4298672E-02 -0.7453918E-02 -0.1224692E+06 -0.1074486E+05
  0.1195238E+01  0.1123508E+06  0.1666396E+05  0.3370308E-02 -0.4913330E-02 -0.1225727E+06 -0.1238388E+05
  0.1226190E+01  0.1129597E+06  0.1932290E+05 -0.2314596E-02  0.2929688E-02 -0.1225975E+06 -0.1417096E+05
  0.1257143E+01  0.1133936E+06  0.2225134E+05 -0.7768110E-02 -0.1226044E-01 -0.1224860E+06 -0.1609872E+05
  0.1288095E+01  0.1138134E+06  0.2545938E+05 -0.1231985E-02  0.2441406E-03 -0.1223308E+06 -0.1816151E+05
  0.1319048E+01  0.1139733E+06  0.2892876E+05  0.8421529E-02  0.9033203E-02 -0.1220197E+06 -0.2034373E+05
  0.1350000E+01  0.1139909E+06  0.3265539E+05  0.2893518E-02 -0.6759644E-02 -0.1216360E+06 -0.2263421E+05
  0.1380952E+01  0.1137516E+06  0.3660768E+05 -0.6629681E-03 -0.5142212E-02 -0.1210572E+06 -0.2499301E+05
  0.1411905E+01  0.1128688E+06  0.4044294E+05 -0.3328629E-02 -0.2136230E-03 -0.1202801E+06 -0.2723614E+05
  0.1442857E+01  0.1122272E+06  0.4472070E+05  0.3553334E-02  0.4974365E-02 -0.1194181E+06 -0.2963198E+05
  0.1473810E+01  0.1113758E+06  0.4912793E+05 -0.5259475E-02 -0.6500244E-02 -0.1184944E+06 -0.3203294E+05
  0.1504762E+01  0.1102299E+06  0.5357983E+05  0.9815844E-02  0.2105713E-01 -0.1172933E+06 -0.3432848E+05
  0.1535714E+01  0.1089416E+06  0.5807643E+05  0.4252589E-02  0.9460449E-03 -0.1160716E+06 -0.3656421E+05
  0.1566667E+01  0.1074608E+06  0.6254195E+05 -0.3856902E-02 -0.1098633E-02 -0.1147240E+06 -0.3866140E+05
  0.1597619E+01  0.1057521E+06  0.6692333E+05 -0.3629363E-02 -0.8483887E-02 -0.1132520E+06 -0.4058898E+05
  0.1628572E+01  0.1039082E+06  0.7118645E+05  0.6371213E-03  0.1464844E-02 -0.1117570E+06 -0.4234696E+05
  0.1659524E+01  0.1019226E+06  0.7526915E+05  0.3567535E-02 -0.5371094E-02 -0.1101953E+06 -0.4387887E+05
  0.1690476E+01  0.9982026E+05  0.7916379E+05  0.6174006E-02 -0.1983643E-02 -0.1086749E+06 -0.4523342E+05
  0.1721429E+01  0.9758480E+05  0.8278700E+05  0.5672977E-02 -0.3356934E-02 -0.1070834E+06 -0.4631147E+05
  0.1752381E+01  0.9527652E+05  0.8613784E+05 -0.2194280E-02  0.7965088E-02 -0.1055000E+06 -0.4714512E+05
  0.1783333E+01  0.9297337E+05  0.8921934E+05  0.7324219E-02 -0.1647949E-02 -0.1040029E+06 -0.4776829E+05
  0.1814286E+01  0.9063630E+05  0.9197371E+05 -0.2018486E-03  0.1147461E-01 -0.1025171E+06 -0.4811992E+05
  0.1845238E+01  0.8828209E+05  0.9441070E+05  0.3291173E-02 -0.1159668E-02 -0.1010715E+06 -0.4822983E+05
  0.1876190E+01  0.8597560E+05  0.9654330E+05  0.2765172E-03 -0.1342773E-02 -0.9972674E+05 -0.4814025E+05
  0.1907143E+01  0.8370676E+05  0.9833880E+05 -0.1664180E-02 -0.1739502E-01 -0.9842245E+05 -0.4779159E+05
  0.1938095E+01  0.8150955E+05  0.9986603E+05 -0.7243239E-03  0.2441406E-03 -0.9724455E+05 -0.4730115E+05
  0.1969048E+01  0.7938402E+05  0.1011237E+06 -0.2154312E-02 -0.2136230E-02 -0.9618449E+05 -0.4668466E+05
  0.2000000E+01  0.7727821E+05  0.1020441E+06 -0.1281738E-02 -0.1397705E-01 -0.9510658E+05 -0.4578125E+05
Zone t="Motion of body    1 in DoF   2",I=    64,F=POINT
  0.5000000E-01 -0.8201599E-02  0.2276897E-04  0.5354197E+05  0.1272665E+03 -0.1773834E-01 -0.1931190E-04
  0.8095238E-01 -0.4900764E-02 -0.1549721E-04  0.5302240E+05  0.2111562E+03 -0.8246478E-02 -0.3695488E-04
  0.1119048E+00  0.1090841E-02 -0.2145767E-04  0.5275172E+05  0.3026749E+03 -0.1704439E-02 -0.5817413E-04
  0.1428571E+00  0.3150940E-02 -0.7629395E-05  0.5261230E+05  0.4053676E+03 -0.8598328E-02  0.3814697E-05
  0.1738095E+00  0.3774982E-02  0.2050400E-04  0.5261929E+05  0.5237870E+03 -0.9481352E-02  0.4768372E-06
  0.2047619E+00 -0.2272850E-02 -0.6580353E-04  0.5270239E+05  0.6635473E+03  0.1244478E-01  0.3814697E-05
  0.2357143E+00 -0.2071496E-02 -0.0000000E+00  0.5287596E+05  0.8326082E+03 -0.1026038E-01  0.4768372E-04
  0.2666667E+00 -0.1344681E-02 -0.1049042E-03  0.5310809E+05  0.1037981E+04  0.4920959E-02 -0.2479553E-04
  0.2976190E+00  0.5485840E-02  0.6771088E-04  0.5337127E+05  0.1294527E+04  0.3691406E-02  0.4816055E-03
  0.3285715E+00 -0.4272460E-02 -0.1907349E-03  0.5371108E+05  0.1610998E+04  0.9334398E-02  0.7820129E-04
  0.3595238E+00  0.2673825E-02  0.1239777E-03  0.5401721E+05  0.2005601E+04 -0.5772066E-02  0.6866455E-04
  0.3904762E+00 -0.5158214E-02  0.4577637E-04  0.5432154E+05  0.2493240E+04 -0.5080060E-02 -0.1392365E-03
  0.4214286E+00 -0.8110434E-02 -0.9155273E-04  0.5451268E+05  0.3070203E+04  0.9486310E-02  0.1670837E-02
  0.4523810E+00  0.9107087E-02  0.1068115E-03  0.5468161E+05  0.3766669E+04 -0.2158717E-01 -0.1270294E-02
  0.4833333E+00  0.1610065E-02  0.1525879E-04  0.5466641E+05  0.4529780E+04  0.2115184E-02  0.6866455E-04
  0.5142857E+00 -0.3145006E-02  0.1144409E-03  0.5451703E+05  0.5394717E+04  0.1631843E-01 -0.1525879E-03
  0.5452381E+00  0.1242559E-01  0.7629395E-04  0.5427692E+05  0.6318391E+04  0.7276244E-03 -0.2555847E-02
  0.5761905E+00 -0.9533589E-03  0.1167297E-02  0.5393668E+05  0.7286028E+04 -0.1959682E-01  0.1411438E-02
  0.6071429E+00 -0.4574046E-02 -0.3509521E-03  0.5347581E+05  0.8319229E+04 -0.8494657E-02  0.2372742E-02
  0.6380953E+00 -0.9039124E-02  0.3303528E-02  0.5295653E+05  0.9365063E+04  0.1286521E-01  0.7934570E-03
  0.6690477E+00  0.4971867E-02  0.1136780E-02  0.5236829E+05  0.1044412E+05 -0.1742434E-01 -0.2929688E-02
  0.7000000E+00 -0.2049037E-02 -0.1358032E-02  0.5171622E+05  0.1155903E+05  0.1194545E-01  0.3570557E-02
  0.7309524E+00 -0.3089532E-02 -0.9460449E-03  0.5103784E+05  0.1268130E+05 -0.8224835E-02  0.3036499E-02
  0.7619048E+00 -0.7009506E-02 -0.6103516E-04  0.5029813E+05  0.1381678E+05 -0.2763748E-02  0.1083374E-02
  0.7928572E+00 -0.4003026E-02 -0.1342773E-02  0.4949438E+05  0.1496199E+05  0.6697371E-02  0.1525879E-02
  0.8238096E+00 -0.3704446E-04 -0.1647949E-02  0.4866288E+05  0.1610634E+05  0.1226172E-01  0.1388550E-02
  0.8547620E+00 -0.2106478E-02  0.2563477E-02  0.4780712E+05  0.1724203E+05 -0.1610206E-01 -0.3356934E-03
  0.8857143E+00  0.3238801E-02  0.2304077E-02  0.4693506E+05  0.1836127E+05 -0.1385104E-01  0.4425049E-03
  0.9166667E+00  0.3728693E-02  0.2059937E-02  0.4604972E+05  0.1945925E+05 -0.7723721E-02  0.5538940E-02
  0.9476191E+00 -0.3671311E-02 -0.0000000E+00  0.4513364E+05  0.2053306E+05  0.1169023E-01  0.2410889E-02
  0.9785714E+00 -0.6486656E-02 -0.3143311E-02  0.4419341E+05  0.2157769E+05  0.6860886E-02  0.5157471E-02
  0.1009524E+01 -0.5864558E-02 -0.4272461E-02  0.4324897E+05  0.2258468E+05  0.2388145E-02  0.6561279E-02
  0.1040476E+01  0.1495850E-02  0.4699707E-02  0.4230891E+05  0.2355182E+05  0.1319868E-01 -0.7324219E-02
  0.1071429E+01 -0.2848307E-02 -0.4180908E-02  0.4138129E+05  0.2447184E+05 -0.7120769E-02  0.4821777E-02
  0.1102381E+01  0.4318600E-02  0.1678467E-02  0.4046586E+05  0.2534190E+05 -0.1223603E-01  0.6896973E-02
  0.1133333E+01 -0.2531164E-02  0.1159668E-02  0.3955560E+05  0.2616413E+05  0.3796746E-02  0.9460449E-03
  0.1164286E+01  0.1090395E-01 -0.4547119E-02  0.3866689E+05  0.2693227E+05 -0.7758579E-02 -0.3540039E-02
  0.1195238E+01 -0.7149138E-03  0.1464844E-02  0.3778950E+05  0.2765034E+05 -0.9191749E-03  0.6225586E-02
  0.1226190E+01  0.5375835E-02  0.3356934E-03  0.3693580E+05  0.2831304E+05 -0.3434561E-02  0.6164551E-02
  0.1257143E+01  0.3519925E-02 -0.2319336E-02  0.3609839E+05  0.2894104E+05 -0.1611883E-01  0.3631592E-02
  0.1288095E+01  0.3980259E-02 -0.4821777E-02  0.3529003E+05  0.2947518E+05 -0.2369202E-04 -0.2746582E-02
  0.1319048E+01 -0.4650350E-02  0.2075195E-02  0.3450897E+05  0.2997588E+05 -0.2221063E-02  0.7507324E-02
  0.1350000E+01 -0.1582393E-02 -0.4577637E-03  0.3376192E+05  0.3041510E+05  0.9720413E-03  0.3997803E-02
  0.1380952E+01  0.1127046E-02  0.4272461E-03  0.3304728E+05  0.3079863E+05 -0.1520407E-01 -0.1556396E-02
  0.1411905E+01 -0.4928100E-02 -0.0000000E+00  0.3238588E+05  0.3115918E+05  0.5641378E-02  0.1058960E-01
  0.1442857E+01  0.4780080E-02  0.4333496E-02  0.3174179E+05  0.3144168E+05 -0.1438254E-02 -0.3356934E-03
  0.1473810E+01 -0.2691857E-02  0.7324219E-03  0.3113424E+05  0.3167952E+05 -0.1478451E-01 -0.3417969E-02
  0.1504762E+01  0.2271435E-02 -0.1708984E-02  0.3054769E+05  0.3188525E+05 -0.9247985E-02 -0.2746582E-02
  0.1535714E+01 -0.1009493E-01 -0.7904053E-02  0.3000096E+05  0.3204365E+05 -0.4530795E-02 -0.2197266E-02
  0.1566667E+01  0.6720360E-02  0.1354980E-01  0.2948502E+05  0.3216137E+05 -0.1305113E-02  0.3723145E-02
  0.1597619E+01  0.3533854E-02 -0.2227783E-02  0.2899883E+05  0.3224607E+05 -0.5004701E-02 -0.3051758E-02
  0.1628572E+01  0.4647238E-02  0.9155273E-04  0.2855327E+05  0.3229338E+05  0.3672817E-02 -0.3051758E-03
  0.1659524E+01  0.3126191E-03 -0.2075195E-02  0.2814120E+05  0.3231027E+05  0.6160435E-02 -0.3784180E-02
  0.1690476E+01  0.3592477E-02  0.5371094E-02  0.2776388E+05  0.3230931E+05 -0.5108900E-02 -0.9155273E-03
  0.1721429E+01 -0.9218588E-03  0.8544922E-03  0.2740939E+05  0.3229110E+05 -0.3386058E-02 -0.2441406E-02
  0.1752381E+01 -0.1584758E-02 -0.3662109E-02  0.2708610E+05  0.3226309E+05  0.8707462E-02 -0.1708984E-02
  0.1783333E+01  0.2190421E-02 -0.3845215E-02  0.2679604E+05  0.3221711E+05 -0.2156195E-02 -0.2319336E-02
  0.1814286E+01 -0.5231242E-02  0.5126953E-02  0.2653225E+05  0.3216685E+05 -0.1312016E-02  0.3967285E-02
  0.1845238E+01  0.5953881E-03 -0.6103516E-03  0.2628667E+05  0.3212403E+05 -0.5474263E-02 -0.1403809E-02
  0.1876190E+01  0.3334471E-02 -0.4882812E-02  0.2606977E+05  0.3208518E+05 -0.1138600E-01  0.4760742E-02
  0.1907143E+01  0.3424370E-02 -0.0000000E+00  0.2587265E+05  0.3205300E+05 -0.3520380E-03  0.2075195E-02
  0.1938095E+01  0.1212455E-02 -0.3662109E-03  0.2569381E+05  0.3203644E+05 -0.1168366E-01 -0.1892090E-02
  0.1969048E+01  0.6509433E-03  0.3051758E-03  0.2552833E+05  0.3204912E+05  0.3719676E-02 -0.6103516E-04
  0.2000000E+01  0.4425049E-03  0.1770020E-02  0.2535972E+05  0.3208970E+05 -0.4959106E-02  0.7446289E-02
Zone t="Motion of body    1 in DoF   3",I=    64,F=POINT
  0.5000000E-01 -0.1110751E+06 -0.4261306E-02 -0.3085375E-01 -0.6531143E-04  0.2597500E+06  0.4096892E-02
  0.8095238E-01 -0.1120072E+06 -0.1866830E-01 -0.1283211E-01 -0.7589012E-04  0.2609033E+06  0.1790052E-01
  0.1119048E+00 -0.1122448E+06 -0.5254010E-01 -0.1416389E-01 -0.1397491E-03  0.2609911E+06  0.4943470E-01
  0.1428571E+00 -0.1123425E+06 -0.1178716E+00  0.1802444E-03 -0.4204686E-04  0.2610146E+06  0.1103527E+00
  0.1738095E+00 -0.1123996E+06 -0.2342702E+00  0.3862773E-02  0.8188002E-04  0.2610560E+06  0.2183818E+00
  0.2047619E+00 -0.1124569E+06 -0.4318447E+00 -0.5202404E-02  0.8967845E-04  0.2610831E+06  0.4030821E+00
  0.2357143E+00 -0.1125044E+06 -0.7591159E+00  0.9920524E-02  0.1860715E-03  0.2611282E+06  0.7079830E+00
  0.2666667E+00 -0.1125631E+06 -0.1290674E+01 -0.2551675E-02 -0.2717949E-03  0.2611725E+06  0.1199788E+01
  0.2976190E+00 -0.1126626E+06 -0.2159409E+01 -0.6312561E-03  0.2204087E-03  0.2612197E+06  0.2001479E+01
  0.3285715E+00 -0.1127362E+06 -0.3561481E+01  0.1150836E-01  0.2020411E-03  0.2612704E+06  0.3290384E+01
  0.3595238E+00 -0.1128504E+06 -0.5826932E+01 -0.1931096E-02  0.2945177E-03  0.2613497E+06  0.5366641E+01
  0.3904762E+00 -0.1129728E+06 -0.9464686E+01 -0.3048280E-01 -0.1433674E-02  0.2614146E+06  0.8682261E+01
  0.4214286E+00 -0.1131270E+06 -0.1517148E+02 -0.1307083E-01 -0.8207709E-03  0.2614911E+06  0.1385751E+02
  0.4523810E+00 -0.1132659E+06 -0.2409069E+02 -0.1791904E-03 -0.3607422E-03  0.2615957E+06  0.2191561E+02
  0.4833333E+00 -0.1134243E+06 -0.3729269E+02  0.3650665E-01  0.2504021E-02  0.2617692E+06  0.3376551E+02
  0.5142857E+00 -0.1135857E+06 -0.5682690E+02  0.7669661E-02  0.7606000E-03  0.2619085E+06  0.5116279E+02
  0.5452381E+00 -0.1138557E+06 -0.8446922E+02 -0.1180990E-01 -0.9303093E-03  0.2619992E+06  0.7567236E+02
  0.5761905E+00 -0.1141157E+06 -0.1225217E+03 -0.2532360E-02 -0.1106739E-02  0.2621763E+06  0.1092084E+03
  0.6071429E+00 -0.1143505E+06 -0.1745283E+03  0.5745831E-02 -0.3060102E-03  0.2623738E+06  0.1546552E+03
  0.6380953E+00 -0.1146147E+06 -0.2430660E+03  0.1820379E-01  0.4957914E-02  0.2625778E+06  0.2139387E+03
  0.6690477E+00 -0.1149707E+06 -0.3326684E+03 -0.5875299E-01 -0.8835912E-02  0.2627743E+06  0.2908940E+03
  0.7000000E+00 -0.1153263E+06 -0.4482888E+03 -0.2359118E-01 -0.6191015E-02  0.2629617E+06  0.3894390E+03
  0.7309524E+00 -0.1156946E+06 -0.5944767E+03  0.1831800E-01  0.5853653E-02  0.2632232E+06  0.5129870E+03
  0.7619048E+00 -0.1160901E+06 -0.7780814E+03 -0.3408122E-01 -0.1034927E-01  0.2635079E+06  0.6664008E+03
  0.7928572E+00 -0.1164448E+06 -0.1006013E+04  0.3113892E-01  0.1132965E-01  0.2638026E+06  0.8544952E+03
  0.8238096E+00 -0.1168929E+06 -0.1285776E+04  0.2734807E-01  0.1258469E-01  0.2640279E+06  0.1082922E+04
  0.8547620E+00 -0.1173283E+06 -0.1624599E+04 -0.3382861E-02 -0.3511429E-02  0.2642610E+06  0.1357037E+04
  0.8857143E+00 -0.1178122E+06 -0.2032020E+04  0.8398487E-03 -0.4892349E-02  0.2645160E+06  0.1683057E+04
  0.9166667E+00 -0.1182466E+06 -0.2517242E+04  0.5984220E-02  0.2355576E-02  0.2648197E+06  0.2066280E+04
  0.9476191E+00 -0.1186978E+06 -0.3090029E+04 -0.1726563E-01 -0.3153801E-02  0.2650515E+06  0.2512125E+04
  0.9785714E+00 -0.1191004E+06 -0.3760352E+04  0.1114894E-01 -0.1081467E-02  0.2652915E+06  0.3026136E+04
  0.1009524E+01 -0.1195442E+06 -0.4538667E+04 -0.1889355E-03  0.2012253E-02  0.2655056E+06  0.3614051E+04
  0.1040476E+01 -0.1199351E+06 -0.5433181E+04 -0.1016298E-01 -0.5830765E-02  0.2656796E+06  0.4279628E+04
  0.1071429E+01 -0.1203168E+06 -0.6451997E+04  0.1412048E-01  0.1205254E-01  0.2657848E+06  0.5026380E+04
  0.1102381E+01 -0.1207002E+06 -0.7602881E+04 -0.5245991E-02 -0.8159637E-02  0.2658964E+06  0.5858940E+04
  0.1133333E+01 -0.1209289E+06 -0.8890653E+04  0.1248079E-01  0.1404953E-01  0.2658953E+06  0.6770893E+04
  0.1164286E+01 -0.1211687E+06 -0.1032243E+05  0.3011036E-01  0.1942062E-01  0.2659309E+06  0.7769172E+04
  0.1195238E+01 -0.1212604E+06 -0.1189769E+05 -0.1972396E-02 -0.8659363E-03  0.2658665E+06  0.8840389E+04
  0.1226190E+01 -0.1212830E+06 -0.1361668E+05  0.2177711E-03 -0.4127502E-02  0.2657608E+06  0.9983459E+04
  0.1257143E+01 -0.1211679E+06 -0.1546075E+05 -0.1906222E-01 -0.9208679E-02  0.2654560E+06  0.1118110E+05
  0.1288095E+01 -0.1210161E+06 -0.1744260E+05  0.8375129E-02 -0.2555847E-02  0.2651623E+06  0.1243728E+05
  0.1319048E+01 -0.1207054E+06 -0.1952779E+05 -0.4904847E-02  0.5874634E-03  0.2647510E+06  0.1372778E+05
  0.1350000E+01 -0.1203101E+06 -0.2169916E+05  0.1972905E-01  0.1469421E-01  0.2642371E+06  0.1503580E+05
  0.1380952E+01 -0.1197309E+06 -0.2394314E+05  0.3861789E-02  0.1222992E-01  0.2636704E+06  0.1634633E+05
  0.1411905E+01 -0.1196757E+06 -0.2646000E+05 -0.1522740E-01 -0.2593994E-02  0.2631689E+06  0.1781877E+05
  0.1442857E+01 -0.1188219E+06 -0.2877418E+05  0.3288949E-02  0.3326416E-02  0.2623751E+06  0.1906464E+05
  0.1473810E+01 -0.1179084E+06 -0.3108279E+05  0.1079331E-01  0.1376343E-01  0.2616541E+06  0.2026807E+05
  0.1504762E+01 -0.1167488E+06 -0.3332295E+05  0.1035835E-01  0.3097534E-01  0.2607340E+06  0.2134781E+05
  0.1535714E+01 -0.1155600E+06 -0.3548524E+05 -0.2557018E-01 -0.2386475E-01  0.2598644E+06  0.2233458E+05
  0.1566667E+01 -0.1142469E+06 -0.3750544E+05 -0.1553475E-02 -0.7034302E-02  0.2588723E+06  0.2317135E+05
  0.1597619E+01 -0.1128238E+06 -0.3938513E+05 -0.7425868E-02 -0.8102417E-02  0.2578967E+06  0.2386931E+05
  0.1628572E+01 -0.1113734E+06 -0.4108287E+05  0.8568345E-02 -0.4531860E-02  0.2569311E+06  0.2441475E+05
  0.1659524E+01 -0.1098551E+06 -0.4254841E+05  0.4107723E-02  0.4943848E-02  0.2558677E+06  0.2476567E+05
  0.1690476E+01 -0.1083731E+06 -0.4382361E+05  0.1100535E-01  0.1571655E-02  0.2549367E+06  0.2499801E+05
  0.1721429E+01 -0.1068323E+06 -0.4486334E+05  0.2715716E-02  0.2044678E-02  0.2540033E+06  0.2503832E+05
  0.1752381E+01 -0.1053047E+06 -0.4568141E+05 -0.3553733E-03 -0.4394531E-02  0.2531304E+06  0.2492903E+05
  0.1783333E+01 -0.1038523E+06 -0.4625892E+05 -0.3030545E-02 -0.6805420E-02  0.2523220E+06  0.2466487E+05
  0.1814286E+01 -0.1024089E+06 -0.4658111E+05  0.9777039E-02  0.9552002E-02  0.2515390E+06  0.2424407E+05
  0.1845238E+01 -0.1010156E+06 -0.4670109E+05 -0.1582740E-01 -0.1855469E-01  0.2508452E+06  0.2370759E+05
  0.1876190E+01 -0.9971503E+05 -0.4660789E+05  0.3871240E-02  0.3173828E-02  0.2502510E+06  0.2307625E+05
  0.1907143E+01 -0.9844973E+05 -0.4625315E+05 -0.2684290E-02  0.2532959E-02  0.2496276E+06  0.2226987E+05
  0.1938095E+01 -0.9730460E+05 -0.4572820E+05 -0.3696413E-02 -0.9368896E-02  0.2491014E+06  0.2139400E+05
  0.1969048E+01 -0.9627488E+05 -0.4508618E+05  0.1103504E-01  0.1928711E-01  0.2487518E+06  0.2054434E+05
  0.2000000E+01 -0.9523883E+05 -0.4423512E+05 -0.2876282E-02 -0.2777100E-02  0.2483435E+06  0.1952791E+05
