VARIABLES="w (rad/s)"
"abs(F   1   1)" "angle(F   1   1)"
"abs(F   1   2)" "angle(F   1   2)"
"abs(F   1   3)" "angle(F   1   3)"
Zone t="Diffraction force - beta =   0.000 deg",I=    64,F=POINT
  0.5000000E-01  0.1571772E+04 -0.1570765E+01  0.3105301E+06 -0.2125367E-04  0.3047409E+02 -0.1571138E+01
  0.8095238E-01  0.2562550E+04 -0.1570786E+01  0.3100300E+06 -0.5718541E-04  0.4966518E+02 -0.1570993E+01
  0.1119048E+00  0.3580242E+04 -0.1570793E+01  0.3092958E+06 -0.1135842E-03  0.6930817E+02 -0.1570941E+01
  0.1428571E+00  0.4626683E+04 -0.1570795E+01  0.3083264E+06 -0.1948127E-03  0.8964198E+02 -0.1570927E+01
  0.1738095E+00  0.5728045E+04 -0.1570786E+01  0.3071203E+06 -0.3074837E-03  0.1115036E+03 -0.1570891E+01
  0.2047619E+00  0.6877410E+04 -0.1570789E+01  0.3056749E+06 -0.4610810E-03  0.1343172E+03 -0.1570866E+01
  0.2357143E+00  0.8112381E+04 -0.1570790E+01  0.3039883E+06 -0.6697507E-03  0.1589573E+03 -0.1570850E+01
  0.2666667E+00  0.9437306E+04 -0.1570780E+01  0.3020573E+06 -0.9507089E-03  0.1861918E+03 -0.1570832E+01
  0.2976190E+00  0.1086676E+05 -0.1570764E+01  0.2998803E+06 -0.1332989E-02  0.2153819E+03 -0.1570820E+01
  0.3285715E+00  0.1244177E+05 -0.1570750E+01  0.2974543E+06 -0.1846576E-02  0.2480840E+03 -0.1570795E+01
  0.3595238E+00  0.1418175E+05 -0.1570729E+01  0.2947856E+06 -0.2538498E-02  0.2851523E+03 -0.1570770E+01
  0.3904762E+00  0.1608440E+05 -0.1570700E+01  0.2918694E+06 -0.3462087E-02  0.3261885E+03 -0.1570728E+01
  0.4214286E+00  0.1820465E+05 -0.1570649E+01  0.2887294E+06 -0.4652076E-02  0.3718734E+03 -0.1570678E+01
  0.4523810E+00  0.2055450E+05 -0.1570578E+01  0.2853666E+06 -0.6200311E-02  0.4250985E+03 -0.1570604E+01
  0.4833333E+00  0.2311803E+05 -0.1570480E+01  0.2818066E+06 -0.8068832E-02  0.4827322E+03 -0.1570502E+01
  0.5142857E+00  0.2586126E+05 -0.1570341E+01  0.2780633E+06 -0.1036487E-01  0.5431533E+03 -0.1570360E+01
  0.5452381E+00  0.2884385E+05 -0.1570158E+01  0.2741402E+06 -0.1305856E-01  0.6137513E+03 -0.1570175E+01
  0.5761905E+00  0.3203148E+05 -0.1569915E+01  0.2700640E+06 -0.1616008E-01  0.6896014E+03 -0.1569930E+01
  0.6071429E+00  0.3537389E+05 -0.1569603E+01  0.2658534E+06 -0.1976077E-01  0.7714594E+03 -0.1569615E+01
  0.6380953E+00  0.3883964E+05 -0.1569209E+01  0.2614812E+06 -0.2377651E-01  0.8546041E+03 -0.1569220E+01
  0.6690477E+00  0.4246950E+05 -0.1568717E+01  0.2569901E+06 -0.2830183E-01  0.9443577E+03 -0.1568727E+01
  0.7000000E+00  0.4626725E+05 -0.1568109E+01  0.2524053E+06 -0.3339173E-01  0.1044323E+04 -0.1568119E+01
  0.7309524E+00  0.5021975E+05 -0.1567372E+01  0.2477039E+06 -0.3900561E-01  0.1151442E+04 -0.1567381E+01
  0.7619048E+00  0.5427650E+05 -0.1566482E+01  0.2429225E+06 -0.4520168E-01  0.1260862E+04 -0.1566490E+01
  0.7928572E+00  0.5839172E+05 -0.1565417E+01  0.2380789E+06 -0.5201190E-01  0.1371200E+04 -0.1565424E+01
  0.8238096E+00  0.6262442E+05 -0.1564159E+01  0.2331682E+06 -0.5945124E-01  0.1492592E+04 -0.1564165E+01
  0.8547620E+00  0.6700591E+05 -0.1562687E+01  0.2282075E+06 -0.6753359E-01  0.1621481E+04 -0.1562696E+01
  0.8857143E+00  0.7150534E+05 -0.1560975E+01  0.2232203E+06 -0.7627637E-01  0.1755879E+04 -0.1560984E+01
  0.9166667E+00  0.7608594E+05 -0.1559001E+01  0.2182226E+06 -0.8569501E-01  0.1899735E+04 -0.1559011E+01
  0.9476191E+00  0.8074101E+05 -0.1556740E+01  0.2132175E+06 -0.9579746E-01  0.2052229E+04 -0.1556749E+01
  0.9785714E+00  0.8542159E+05 -0.1554168E+01  0.2082111E+06 -0.1065887E+00  0.2202467E+04 -0.1554171E+01
  0.1009524E+01  0.9010831E+05 -0.1551265E+01  0.2032167E+06 -0.1180847E+00  0.2354403E+04 -0.1551262E+01
  0.1040476E+01  0.9485677E+05 -0.1548021E+01  0.1982450E+06 -0.1303009E+00  0.2517072E+04 -0.1548023E+01
  0.1071429E+01  0.9965807E+05 -0.1544427E+01  0.1933089E+06 -0.1432433E+00  0.2691971E+04 -0.1544453E+01
  0.1102381E+01  0.1045096E+06 -0.1540469E+01  0.1884069E+06 -0.1569073E+00  0.2876675E+04 -0.1540502E+01
  0.1133333E+01  0.1093566E+06 -0.1536138E+01  0.1835588E+06 -0.1712942E+00  0.3063032E+04 -0.1536176E+01
  0.1164286E+01  0.1141609E+06 -0.1531425E+01  0.1787640E+06 -0.1864082E+00  0.3252915E+04 -0.1531467E+01
  0.1195238E+01  0.1188979E+06 -0.1526328E+01  0.1740331E+06 -0.2022507E+00  0.3446666E+04 -0.1526361E+01
  0.1226190E+01  0.1234985E+06 -0.1520852E+01  0.1693666E+06 -0.2188241E+00  0.3641916E+04 -0.1520850E+01
  0.1257143E+01  0.1279407E+06 -0.1514987E+01  0.1647568E+06 -0.2362976E+00  0.3837055E+04 -0.1514928E+01
  0.1288095E+01  0.1323253E+06 -0.1508876E+01  0.1602099E+06 -0.2541602E+00  0.4041405E+04 -0.1508818E+01
  0.1319048E+01  0.1365493E+06 -0.1502493E+01  0.1557412E+06 -0.2729499E+00  0.4244035E+04 -0.1502451E+01
  0.1350000E+01  0.1405965E+06 -0.1495909E+01  0.1513557E+06 -0.2924794E+00  0.4445159E+04 -0.1495942E+01
  0.1380952E+01  0.1444537E+06 -0.1489177E+01  0.1470487E+06 -0.3127173E+00  0.4649706E+04 -0.1489202E+01
  0.1411905E+01  0.1477598E+06 -0.1482736E+01  0.1428867E+06 -0.3334557E+00  0.4826990E+04 -0.1482713E+01
  0.1442857E+01  0.1510859E+06 -0.1475925E+01  0.1387569E+06 -0.3551694E+00  0.5031602E+04 -0.1475854E+01
  0.1473810E+01  0.1541250E+06 -0.1469196E+01  0.1347043E+06 -0.3776023E+00  0.5234172E+04 -0.1469129E+01
  0.1504762E+01  0.1568656E+06 -0.1462689E+01  0.1307384E+06 -0.4007753E+00  0.5427259E+04 -0.1462625E+01
  0.1535714E+01  0.1592667E+06 -0.1456501E+01  0.1268655E+06 -0.4246839E+00  0.5610524E+04 -0.1456497E+01
  0.1566667E+01  0.1613284E+06 -0.1450739E+01  0.1230830E+06 -0.4493242E+00  0.5785077E+04 -0.1450795E+01
  0.1597619E+01  0.1630388E+06 -0.1445507E+01  0.1193959E+06 -0.4746940E+00  0.5955118E+04 -0.1445500E+01
  0.1628572E+01  0.1643760E+06 -0.1440903E+01  0.1157996E+06 -0.5007965E+00  0.6119599E+04 -0.1440797E+01
  0.1659524E+01  0.1653609E+06 -0.1437081E+01  0.1122834E+06 -0.5276431E+00  0.6278449E+04 -0.1436998E+01
  0.1690476E+01  0.1659955E+06 -0.1434168E+01  0.1088492E+06 -0.5552126E+00  0.6428136E+04 -0.1434049E+01
  0.1721429E+01  0.1662811E+06 -0.1432259E+01  0.1054987E+06 -0.5834964E+00  0.6563528E+04 -0.1432186E+01
  0.1752381E+01  0.1662280E+06 -0.1431447E+01  0.1022350E+06 -0.6124953E+00  0.6686185E+04 -0.1431408E+01
  0.1783333E+01  0.1658365E+06 -0.1431812E+01  0.9906022E+05 -0.6422496E+00  0.6792844E+04 -0.1431759E+01
  0.1814286E+01  0.1651381E+06 -0.1433461E+01  0.9596830E+05 -0.6727431E+00  0.6891345E+04 -0.1433440E+01
  0.1845238E+01  0.1641582E+06 -0.1436477E+01  0.9296894E+05 -0.7039575E+00  0.6981603E+04 -0.1436460E+01
  0.1876190E+01  0.1629074E+06 -0.1440911E+01  0.9005276E+05 -0.7359065E+00  0.7063771E+04 -0.1440937E+01
  0.1907143E+01  0.1614136E+06 -0.1446817E+01  0.8721133E+05 -0.7686371E+00  0.7135795E+04 -0.1446834E+01
  0.1938095E+01  0.1597004E+06 -0.1454245E+01  0.8444502E+05 -0.8020969E+00  0.7197932E+04 -0.1454142E+01
  0.1969048E+01  0.1578028E+06 -0.1463224E+01  0.8174724E+05 -0.8362755E+00  0.7249733E+04 -0.1463005E+01
  0.2000000E+01  0.1557394E+06 -0.1473773E+01  0.7912063E+05 -0.8711553E+00  0.7289189E+04 -0.1473492E+01
