VARIABLES="w (rad/s)"
"A   1   1" "B   1   1"
"A   1   2" "B   1   2"
"A   1   3" "B   1   3"
Zone t="Motion of body    1 in DoF   1",I=    64,F=POINT
  0.5000000E-01  0.4997004E+05  0.3013420E-02  0.1583099E-02  0.1785884E-05 -0.3988896E+05 -0.1177945E-02
  0.8095238E-01  0.5000687E+05  0.1313448E-01  0.8010864E-03  0.1187458E-04 -0.4002368E+05 -0.5023356E-02
  0.1119048E+00  0.5017599E+05  0.3695810E-01 -0.2147593E-02 -0.1424755E-04 -0.4003653E+05 -0.1404837E-01
  0.1428571E+00  0.5029177E+05  0.8331446E-01  0.6141662E-02  0.4990981E-04 -0.4014982E+05 -0.3182173E-01
  0.1738095E+00  0.5044481E+05  0.1662846E+00  0.1071042E-01  0.1209620E-03 -0.4023020E+05 -0.6371845E-01
  0.2047619E+00  0.5050505E+05  0.3074217E+00 -0.2906267E-02 -0.3266404E-04 -0.4025788E+05 -0.1185395E+00
  0.2357143E+00  0.5070347E+05  0.5427740E+00 -0.8172699E-02 -0.1255372E-03 -0.4042960E+05 -0.2103350E+00
  0.2666667E+00  0.5079245E+05  0.9281825E+00  0.1630783E-02  0.4900247E-04 -0.4044254E+05 -0.3609322E+00
  0.2976190E+00  0.5091453E+05  0.1560988E+01 -0.3050537E-02 -0.1905300E-04 -0.4055310E+05 -0.6105393E+00
  0.3285715E+00  0.5118472E+05  0.2593330E+01  0.3715183E-03  0.1422875E-04 -0.4070689E+05 -0.1020622E+01
  0.3595238E+00  0.5129241E+05  0.4271436E+01 -0.1506679E-02 -0.1406409E-03 -0.4078151E+05 -0.1692123E+01
  0.3904762E+00  0.5141936E+05  0.6986696E+01 -0.4669747E-02 -0.1903996E-03 -0.4079574E+05 -0.2783823E+01
  0.4214286E+00  0.5181314E+05  0.1130350E+02 -0.2226749E-02 -0.3427267E-06 -0.4107492E+05 -0.4545623E+01
  0.4523810E+00  0.5212083E+05  0.1811691E+02  0.6240041E-03  0.1318455E-03 -0.4119607E+05 -0.7337015E+01
  0.4833333E+00  0.5232943E+05  0.2831032E+02  0.4419787E-03  0.1896620E-03 -0.4136386E+05 -0.1157278E+02
  0.5142857E+00  0.5251773E+05  0.4350403E+02 -0.4094442E-02 -0.1527965E-03 -0.4150504E+05 -0.1794506E+02
  0.5452381E+00  0.5311439E+05  0.6547849E+02 -0.9794943E-03 -0.3758669E-03 -0.4185420E+05 -0.2727625E+02
  0.5761905E+00  0.5348096E+05  0.9609496E+02  0.5826083E-03 -0.3576279E-05 -0.4207964E+05 -0.4043184E+02
  0.6071429E+00  0.5378940E+05  0.1383837E+03  0.1507927E-02  0.9679794E-03 -0.4218852E+05 -0.5871695E+02
  0.6380953E+00  0.5414338E+05  0.1949561E+03  0.2008694E-02  0.8015633E-03 -0.4245484E+05 -0.8362509E+02
  0.6690477E+00  0.5471761E+05  0.2704064E+03 -0.1254370E-02 -0.3173351E-03 -0.4281863E+05 -0.1172704E+03
  0.7000000E+00  0.5532599E+05  0.3695901E+03  0.2310616E-02  0.4603863E-03 -0.4313039E+05 -0.1619286E+03
  0.7309524E+00  0.5595539E+05  0.4975312E+03 -0.4467296E-02 -0.1128674E-02 -0.4355356E+05 -0.2206172E+03
  0.7619048E+00  0.5645205E+05  0.6603779E+03  0.2623558E-02  0.5087852E-03 -0.4383464E+05 -0.2960099E+03
  0.7928572E+00  0.5693417E+05  0.8658192E+03  0.4041517E-02  0.1856804E-02 -0.4415995E+05 -0.3926948E+03
  0.8238096E+00  0.5766630E+05  0.1123988E+04  0.5241791E-02  0.2334595E-02 -0.4452161E+05 -0.5147001E+03
  0.8547620E+00  0.5855310E+05  0.1445391E+04 -0.4409322E-02 -0.1411438E-02 -0.4513347E+05 -0.6703665E+03
  0.8857143E+00  0.5936543E+05  0.1839906E+04  0.1274847E-02  0.7801056E-03 -0.4564207E+05 -0.8638033E+03
  0.9166667E+00  0.6014468E+05  0.2320404E+04 -0.1098633E-02  0.2651215E-03 -0.4615975E+05 -0.1103420E+04
  0.9476191E+00  0.6095015E+05  0.2901121E+04  0.2254313E-03 -0.2708435E-03 -0.4656268E+05 -0.1393736E+04
  0.9785714E+00  0.6177059E+05  0.3597453E+04  0.1871151E-02  0.8697510E-03 -0.4715587E+05 -0.1750640E+04
  0.1009524E+01  0.6254025E+05  0.4422962E+04 -0.4987897E-02 -0.1724243E-02 -0.4764683E+05 -0.2177172E+04
  0.1040476E+01  0.6347838E+05  0.5400568E+04  0.7097956E-02  0.7637024E-02 -0.4832075E+05 -0.2690932E+04
  0.1071429E+01  0.6448774E+05  0.6549741E+04 -0.2677409E-02 -0.2346039E-02 -0.4892883E+05 -0.3298079E+04
  0.1102381E+01  0.6551797E+05  0.7892132E+04  0.3238950E-02  0.3311157E-02 -0.4959705E+05 -0.4020588E+04
  0.1133333E+01  0.6647655E+05  0.9445240E+04 -0.2369600E-02 -0.6179810E-02 -0.5032581E+05 -0.4874882E+04
  0.1164286E+01  0.6729513E+05  0.1122295E+05  0.0000000E+00  0.2914429E-02 -0.5090727E+05 -0.5863650E+04
  0.1195238E+01  0.6803821E+05  0.1324665E+05 -0.4187352E-02 -0.7873535E-02 -0.5152559E+05 -0.7012735E+04
  0.1226190E+01  0.6868225E+05  0.1552709E+05 -0.1493287E-03  0.2532959E-02 -0.5202806E+05 -0.8316340E+04
  0.1257143E+01  0.6917304E+05  0.1807080E+05  0.1019564E-02  0.5233765E-02 -0.5234692E+05 -0.9771265E+04
  0.1288095E+01  0.6979827E+05  0.2091210E+05 -0.2298126E-02 -0.4470825E-02 -0.5296080E+05 -0.1144545E+05
  0.1319048E+01  0.7024404E+05  0.2401804E+05  0.1341892E-02  0.4257202E-02 -0.5338688E+05 -0.1327334E+05
  0.1350000E+01  0.7049827E+05  0.2740532E+05 -0.1107675E-02 -0.1586914E-02 -0.5368672E+05 -0.1530383E+05
  0.1380952E+01  0.7057659E+05  0.3107132E+05 -0.1348035E-02 -0.2456665E-02 -0.5398181E+05 -0.1756657E+05
  0.1411905E+01  0.7032375E+05  0.3496376E+05  0.4106750E-03 -0.4791260E-02 -0.5403523E+05 -0.1998738E+05
  0.1442857E+01  0.6996332E+05  0.3908182E+05  0.8460318E-04  0.1373291E-02 -0.5388775E+05 -0.2253716E+05
  0.1473810E+01  0.6943148E+05  0.4340185E+05  0.6833176E-03 -0.1983643E-02 -0.5379426E+05 -0.2530485E+05
  0.1504762E+01  0.6868825E+05  0.4784325E+05  0.2088909E-02  0.3967285E-02 -0.5358582E+05 -0.2818345E+05
  0.1535714E+01  0.6769786E+05  0.5235438E+05  0.2782067E-03 -0.3570557E-02 -0.5315380E+05 -0.3111772E+05
  0.1566667E+01  0.6644095E+05  0.5690435E+05 -0.5648998E-03  0.2716064E-02 -0.5255245E+05 -0.3416491E+05
  0.1597619E+01  0.6497197E+05  0.6144541E+05 -0.4393440E-03  0.4852295E-02 -0.5187171E+05 -0.3730995E+05
  0.1628572E+01  0.6329817E+05  0.6589587E+05 -0.1311720E-03 -0.3662109E-02 -0.5098542E+05 -0.4040159E+05
  0.1659524E+01  0.6144758E+05  0.7018407E+05 -0.6804062E-03 -0.6774902E-02 -0.4984222E+05 -0.4331655E+05
  0.1690476E+01  0.5951745E+05  0.7432227E+05  0.9387378E-03  0.6500244E-02 -0.4872954E+05 -0.4623301E+05
  0.1721429E+01  0.5750098E+05  0.7828124E+05 -0.4077452E-03 -0.1013184E-01 -0.4764527E+05 -0.4916364E+05
  0.1752381E+01  0.5529433E+05  0.8192774E+05 -0.4876179E-03  0.2807617E-02 -0.4635354E+05 -0.5191661E+05
  0.1783333E+01  0.5300166E+05  0.8526556E+05  0.1214999E-02 -0.3967285E-02 -0.4495292E+05 -0.5448901E+05
  0.1814286E+01  0.5066332E+05  0.8830077E+05  0.2279207E-02 -0.2624512E-02 -0.4351361E+05 -0.5692243E+05
  0.1845238E+01  0.4833211E+05  0.9103326E+05 -0.2447707E-02  0.6713867E-03 -0.4208840E+05 -0.5922712E+05
  0.1876190E+01  0.4602258E+05  0.9344858E+05  0.1724166E-02 -0.1373291E-01 -0.4062127E+05 -0.6129929E+05
  0.1907143E+01  0.4375110E+05  0.9551110E+05  0.9761053E-03 -0.9643555E-02 -0.3906525E+05 -0.6297454E+05
  0.1938095E+01  0.4154538E+05  0.9728676E+05  0.2779199E-02  0.2624512E-02 -0.3754773E+05 -0.6448734E+05
  0.1969048E+01  0.3943010E+05  0.9885759E+05  0.5657007E-03 -0.7263184E-02 -0.3617024E+05 -0.6604846E+05
  0.2000000E+01  0.3737587E+05  0.1001476E+06  0.8392334E-04  0.8605957E-02 -0.3481936E+05 -0.6741558E+05
Zone t="Motion of body    1 in DoF   2",I=    64,F=POINT
  0.5000000E-01 -0.4196167E-03 -0.4887581E-05  0.8141015E+05  0.1416614E+03  0.4119873E-02  0.1716614E-04
  0.8095238E-01 -0.3157223E-02  0.8583069E-05  0.8136217E+05  0.2348383E+03 -0.2827364E-02 -0.3623962E-04
  0.1119048E+00 -0.1908972E-02  0.2098083E-04  0.8099373E+05  0.3362013E+03  0.2727103E-02  0.4482269E-04
  0.1428571E+00 -0.2296448E-02  0.2574921E-04  0.8082671E+05  0.4495777E+03  0.1281738E-02  0.2670288E-04
  0.1738095E+00 -0.2589814E-02 -0.5817413E-04  0.8065811E+05  0.5797283E+03 -0.3160450E-02  0.3051758E-04
  0.2047619E+00  0.4955558E-02 -0.2193451E-04  0.8069734E+05  0.7327025E+03  0.3576944E-02 -0.0000000E+00
  0.2357143E+00 -0.5178740E-03  0.3147125E-04  0.8088778E+05  0.9168545E+03 -0.2330433E-02  0.8773804E-04
  0.2666667E+00  0.3261566E-02 -0.1106262E-03  0.8096659E+05  0.1139295E+04  0.3662109E-02  0.7629395E-04
  0.2976190E+00 -0.1384277E-02 -0.1525879E-04  0.8129197E+05  0.1415764E+04  0.1025391E-02  0.1831055E-03
  0.3285715E+00  0.1996911E-02  0.4005432E-04  0.8142110E+05  0.1754858E+04 -0.3529424E-02 -0.7629395E-04
  0.3595238E+00 -0.4244166E-02 -0.5149841E-04  0.8172463E+05  0.2174974E+04  0.1358133E-02 -0.2441406E-03
  0.3904762E+00 -0.9769346E-03 -0.1144409E-03  0.8185838E+05  0.2690678E+04  0.6565000E-02 -0.1373291E-03
  0.4214286E+00 -0.2208645E-02  0.2822876E-03  0.8195570E+05  0.3295831E+04  0.8834579E-02 -0.1220703E-03
  0.4523810E+00 -0.6745990E-03 -0.2212524E-03  0.8195764E+05  0.4021671E+04  0.6206311E-02 -0.1373291E-03
  0.4833333E+00  0.3946238E-02 -0.3280640E-03  0.8173679E+05  0.4806500E+04  0.4293507E-02 -0.5950928E-03
  0.5142857E+00  0.8604262E-03  0.5569458E-03  0.8155030E+05  0.5686551E+04 -0.4747179E-02  0.1525879E-04
  0.5452381E+00  0.2126902E-02 -0.1678467E-03  0.8098453E+05  0.6617050E+04  0.5373226E-02  0.1129150E-02
  0.5761905E+00  0.1694860E-02 -0.4348755E-03  0.8048838E+05  0.7574103E+04  0.1101659E-01 -0.3051758E-04
  0.6071429E+00  0.9550206E-03  0.8392334E-03  0.7981166E+05  0.8584628E+04  0.3417968E-02 -0.2441406E-03
  0.6380953E+00 -0.1099999E-02  0.5798340E-03  0.7902350E+05  0.9584663E+04 -0.5739126E-03  0.3051758E-03
  0.6690477E+00 -0.1185950E-02  0.9918213E-03  0.7831664E+05  0.1059579E+05  0.2371900E-02 -0.3967285E-03
  0.7000000E+00  0.4621233E-02 -0.1678467E-03  0.7742746E+05  0.1162484E+05  0.1046317E-02  0.1708984E-02
  0.7309524E+00 -0.8350086E-03  0.2136230E-03  0.7644760E+05  0.1263717E+05  0.3507036E-02  0.3662109E-03
  0.7619048E+00  0.1241684E-02  0.1220703E-03  0.7553295E+05  0.1363072E+05 -0.1281738E-02  0.9765625E-03
  0.7928572E+00 -0.5003782E-02 -0.1266479E-02  0.7466456E+05  0.1459847E+05 -0.6158501E-03 -0.1220703E-02
  0.8238096E+00 -0.1370645E-02 -0.8544922E-03  0.7350794E+05  0.1555157E+05 -0.1778134E-02 -0.1281738E-02
  0.8547620E+00  0.3534598E-02  0.1617432E-02  0.7245653E+05  0.1646609E+05 -0.9425595E-02 -0.1586914E-02
  0.8857143E+00 -0.9647493E-03 -0.2441406E-03  0.7145812E+05  0.1732529E+05 -0.1378213E-03  0.9155273E-03
  0.9166667E+00 -0.4228072E-02 -0.3051758E-03  0.7052691E+05  0.1812295E+05 -0.6125710E-02  0.3906250E-02
  0.9476191E+00  0.1932269E-03 -0.2075195E-02  0.6934387E+05  0.1888152E+05 -0.6440896E-02  0.1403809E-02
  0.9785714E+00  0.4054160E-03  0.1373291E-02  0.6825723E+05  0.1957770E+05  0.2619611E-02 -0.3234863E-02
  0.1009524E+01 -0.1934699E-02  0.7019043E-03  0.6724344E+05  0.2019444E+05  0.1813781E-02 -0.7385254E-02
  0.1040476E+01 -0.5279471E-03  0.2868652E-02  0.6635699E+05  0.2073148E+05  0.5866079E-03 -0.6713867E-03
  0.1071429E+01  0.2136230E-02 -0.8850098E-03  0.6534181E+05  0.2120968E+05 -0.1595052E-02  0.3784180E-02
  0.1102381E+01 -0.1467217E-02 -0.1129150E-02  0.6428385E+05  0.2162065E+05 -0.1882466E-02 -0.5004883E-02
  0.1133333E+01  0.1669491E-02  0.1037598E-02  0.6332797E+05  0.2195742E+05  0.3231273E-03 -0.1647949E-02
  0.1164286E+01  0.6552854E-04 -0.1281738E-02  0.6245264E+05  0.2219890E+05  0.7339196E-03  0.3967285E-02
  0.1195238E+01 -0.1097903E-02  0.2716064E-02  0.6170717E+05  0.2235616E+05 -0.2655394E-02 -0.5432129E-02
  0.1226190E+01  0.4355421E-03 -0.1037598E-02  0.6093269E+05  0.2243417E+05  0.5674492E-02  0.9887695E-02
  0.1257143E+01 -0.4855069E-03 -0.8544922E-03  0.6004728E+05  0.2246637E+05  0.1942028E-03  0.1647949E-02
  0.1288095E+01 -0.2191512E-02 -0.2380371E-02  0.5927364E+05  0.2240679E+05  0.2937810E-02  0.3784180E-02
  0.1319048E+01  0.2926713E-02  0.4760742E-02  0.5859209E+05  0.2229772E+05  0.5552656E-03 -0.5920410E-02
  0.1350000E+01 -0.6216544E-03  0.1403809E-02  0.5801146E+05  0.2211119E+05  0.1446759E-02 -0.4333496E-02
  0.1380952E+01  0.1961281E-02  0.2990723E-02  0.5754619E+05  0.2185998E+05  0.3359038E-02 -0.4272461E-03
  0.1411905E+01 -0.1275254E-02  0.6164551E-02  0.5706749E+05  0.2153754E+05 -0.2507279E-02 -0.2136230E-02
  0.1442857E+01  0.1385377E-02  0.6286621E-02  0.5645733E+05  0.2114539E+05  0.2368889E-02 -0.4699707E-02
  0.1473810E+01  0.1136274E-02  0.1831055E-02  0.5596186E+05  0.2073153E+05  0.4969583E-03  0.5859375E-02
  0.1504762E+01  0.6540515E-03 -0.2014160E-02  0.5555137E+05  0.2028870E+05 -0.4299502E-02  0.6042480E-02
  0.1535714E+01  0.4942361E-03  0.5798340E-02  0.5521813E+05  0.1980090E+05 -0.2066679E-02 -0.1123047E-01
  0.1566667E+01  0.4796779E-03 -0.2136230E-02  0.5497555E+05  0.1927756E+05 -0.2882937E-02  0.5676270E-02
  0.1597619E+01  0.1547255E-02 -0.6164551E-02  0.5482725E+05  0.1874376E+05 -0.1986599E-02 -0.5737305E-02
  0.1628572E+01 -0.1831724E-02 -0.0000000E+00  0.5465739E+05  0.1815457E+05  0.2098753E-02 -0.5493164E-02
  0.1659524E+01  0.1075777E-02  0.2197266E-02  0.5436837E+05  0.1746832E+05  0.1765378E-02  0.6103516E-03
  0.1690476E+01 -0.5957375E-03 -0.8117676E-02  0.5415823E+05  0.1679203E+05  0.3032845E-02  0.9216309E-02
  0.1721429E+01  0.7357143E-03  0.1770020E-02  0.5402235E+05  0.1617050E+05  0.1843718E-02 -0.5493164E-02
  0.1752381E+01  0.1654418E-02 -0.1220703E-02  0.5393446E+05  0.1552447E+05 -0.5572775E-03 -0.3051758E-03
  0.1783333E+01 -0.1009647E-02 -0.8178711E-02  0.5390229E+05  0.1486254E+05 -0.3559433E-02  0.5615234E-02
  0.1814286E+01 -0.5550835E-03 -0.8728027E-02  0.5393535E+05  0.1424957E+05 -0.2825880E-02 -0.1037598E-02
  0.1845238E+01 -0.8186586E-03 -0.3662109E-02  0.5402245E+05  0.1367093E+05 -0.3969254E-02  0.1098633E-02
  0.1876190E+01  0.1089803E-02  0.2197266E-02  0.5409504E+05  0.1305664E+05  0.1821760E-02 -0.3234863E-02
  0.1907143E+01 -0.8800950E-04  0.1770020E-02  0.5407282E+05  0.1230194E+05  0.3456373E-02 -0.8972168E-02
  0.1938095E+01  0.3621619E-03 -0.6103516E-03  0.5408843E+05  0.1155809E+05 -0.3527142E-02 -0.3906250E-02
  0.1969048E+01  0.8679244E-03 -0.2319336E-02  0.5414891E+05  0.1092806E+05 -0.2727762E-02 -0.6164551E-02
  0.2000000E+01 -0.1464844E-02 -0.1342773E-02  0.5423345E+05  0.1034253E+05 -0.1220703E-02 -0.1892090E-02
Zone t="Motion of body    1 in DoF   3",I=    64,F=POINT
  0.5000000E-01 -0.4043413E+05 -0.1225091E-02  0.6370544E-02  0.1620026E-04  0.1177629E+06  0.5090273E-03
  0.8095238E-01 -0.4032637E+05 -0.5128838E-02 -0.8340723E-02 -0.5394778E-04  0.1190486E+06  0.1948928E-02
  0.1119048E+00 -0.4033068E+05 -0.1439208E-01  0.8863084E-02  0.2211242E-04  0.1189959E+06  0.5498833E-02
  0.1428571E+00 -0.4046019E+05 -0.3258017E-01 -0.2013397E-01 -0.1616908E-03  0.1191933E+06  0.1233409E-01
  0.1738095E+00 -0.4059118E+05 -0.6536141E-01 -0.1847986E-01 -0.1878850E-03  0.1189724E+06  0.2493511E-01
  0.2047619E+00 -0.4061925E+05 -0.1215143E+00  0.1255656E-01  0.1496467E-03  0.1189648E+06  0.4704887E-01
  0.2357143E+00 -0.4076903E+05 -0.2152850E+00  0.1929081E-01  0.2984162E-03  0.1193318E+06  0.8381530E-01
  0.2666667E+00 -0.4081652E+05 -0.3695166E+00 -0.7095336E-02 -0.1496803E-03  0.1190888E+06  0.1436180E+00
  0.2976190E+00 -0.4087336E+05 -0.6245145E+00  0.1609863E-01  0.3955318E-03  0.1194565E+06  0.2440333E+00
  0.3285715E+00 -0.4110749E+05 -0.1043262E+01  0.1068115E-02 -0.1530889E-03  0.1192610E+06  0.4101795E+00
  0.3595238E+00 -0.4111664E+05 -0.1728917E+01 -0.8488332E-03  0.3623217E-04  0.1195244E+06  0.6849663E+00
  0.3904762E+00 -0.4116257E+05 -0.2846648E+01 -0.1172321E-03 -0.1523793E-03  0.1192512E+06  0.1134479E+01
  0.4214286E+00 -0.4146309E+05 -0.4639672E+01  0.6517312E-02 -0.1040399E-03  0.1195512E+06  0.1866546E+01
  0.4523810E+00 -0.4158468E+05 -0.7493533E+01 -0.2023797E-02 -0.3495067E-04  0.1194907E+06  0.3036436E+01
  0.4833333E+00 -0.4176357E+05 -0.1180529E+02  0.3788389E-03 -0.6216466E-03  0.1196046E+06  0.4827912E+01
  0.5142857E+00 -0.4181787E+05 -0.1829253E+02  0.1418220E-01  0.9436607E-03  0.1200225E+06  0.7545047E+01
  0.5452381E+00 -0.4229038E+05 -0.2777040E+02  0.0000000E+00 -0.4804730E-03  0.1199242E+06  0.1156727E+02
  0.5761905E+00 -0.4247459E+05 -0.4113973E+02  0.9692483E-02  0.5252063E-03  0.1202072E+06  0.1731096E+02
  0.6071429E+00 -0.4254627E+05 -0.5980713E+02 -0.1050523E-01 -0.1412153E-02  0.1201298E+06  0.2539042E+02
  0.6380953E+00 -0.4284194E+05 -0.8502259E+02 -0.4830431E-02 -0.1527250E-02  0.1202559E+06  0.3648154E+02
  0.6690477E+00 -0.4319052E+05 -0.1191123E+03  0.8894624E-02  0.2977729E-02  0.1206803E+06  0.5163248E+02
  0.7000000E+00 -0.4351313E+05 -0.1645123E+03  0.1613072E-02  0.2371073E-03  0.1207553E+06  0.7208736E+02
  0.7309524E+00 -0.4398315E+05 -0.2237349E+03  0.7515077E-02  0.2030373E-02  0.1209553E+06  0.9924735E+02
  0.7619048E+00 -0.4421348E+05 -0.3001519E+03  0.2002716E-02  0.1590967E-02  0.1211515E+06  0.1346115E+03
  0.7928572E+00 -0.4444756E+05 -0.3978926E+03 -0.1651248E-01 -0.4438877E-02  0.1216909E+06  0.1805608E+03
  0.8238096E+00 -0.4488414E+05 -0.5216857E+03 -0.1226172E-01 -0.3122807E-02  0.1214432E+06  0.2387533E+03
  0.8547620E+00 -0.4555519E+05 -0.6779252E+03 -0.7854663E-03 -0.1280308E-02  0.1218940E+06  0.3141809E+03
  0.8857143E+00 -0.4603421E+05 -0.8730852E+03  0.3617810E-02  0.3685951E-02  0.1223423E+06  0.4098449E+03
  0.9166667E+00 -0.4648709E+05 -0.1114566E+04 -0.1165217E-01 -0.5544662E-02  0.1229486E+06  0.5304073E+03
  0.9476191E+00 -0.4692346E+05 -0.1408981E+04 -0.1159361E-01 -0.2452850E-02  0.1227243E+06  0.6773904E+03
  0.9785714E+00 -0.4752398E+05 -0.1766032E+04  0.1397126E-01  0.6572723E-02  0.1231506E+06  0.8600843E+03
  0.1009524E+01 -0.4797368E+05 -0.2195106E+04  0.4836748E-02  0.4928589E-02  0.1234609E+06  0.1081245E+04
  0.1040476E+01 -0.4860772E+05 -0.2709639E+04 -0.8212511E-03 -0.1300812E-02  0.1242678E+06  0.1349211E+04
  0.1071429E+01 -0.4925105E+05 -0.3321690E+04  0.6665039E-02 -0.1365662E-02  0.1244883E+06  0.1670216E+04
  0.1102381E+01 -0.4997227E+05 -0.4047499E+04 -0.3155900E-02 -0.4199982E-02  0.1246988E+06  0.2060491E+04
  0.1133333E+01 -0.5071458E+05 -0.4899480E+04  0.7755055E-02  0.8441925E-02  0.1252508E+06  0.2528634E+04
  0.1164286E+01 -0.5125195E+05 -0.5891848E+04  0.4193827E-02 -0.2441406E-03  0.1256531E+06  0.3082215E+04
  0.1195238E+01 -0.5178810E+05 -0.7040178E+04 -0.3574569E-02  0.3959656E-02  0.1263976E+06  0.3735404E+04
  0.1226190E+01 -0.5223913E+05 -0.8348410E+04 -0.2289707E-02 -0.7774353E-02  0.1268152E+06  0.4481533E+04
  0.1257143E+01 -0.5257175E+05 -0.9814268E+04  0.1602173E-02 -0.7972717E-02  0.1266124E+06  0.5313417E+04
  0.1288095E+01 -0.5319573E+05 -0.1147190E+05  0.5638701E-02  0.5523682E-02  0.1271173E+06  0.6283174E+04
  0.1319048E+01 -0.5364684E+05 -0.1329804E+05 -0.1156803E-02 -0.8865356E-02  0.1274525E+06  0.7340931E+04
  0.1350000E+01 -0.5392507E+05 -0.1533372E+05 -0.1582393E-02 -0.5859375E-02  0.1277453E+06  0.8554685E+04
  0.1380952E+01 -0.5415953E+05 -0.1758654E+05  0.9900323E-02  0.1586914E-01  0.1283699E+06  0.9951314E+04
  0.1411905E+01 -0.5416141E+05 -0.2002734E+05 -0.3026026E-02  0.4730225E-03  0.1286251E+06  0.1146013E+05
  0.1442857E+01 -0.5402985E+05 -0.2259452E+05  0.1197135E-01  0.8834839E-02  0.1281572E+06  0.1302331E+05
  0.1473810E+01 -0.5393815E+05 -0.2533781E+05  0.1697941E-02 -0.5233765E-02  0.1281822E+06  0.1477063E+05
  0.1504762E+01 -0.5374208E+05 -0.2818191E+05 -0.7666093E-02  0.2746582E-03  0.1282393E+06  0.1659253E+05
  0.1535714E+01 -0.5331645E+05 -0.3110701E+05  0.1589753E-03  0.8972168E-02  0.1280831E+06  0.1845961E+05
  0.1566667E+01 -0.5266885E+05 -0.3414029E+05  0.4402323E-02  0.4272461E-03  0.1279174E+06  0.2049288E+05
  0.1597619E+01 -0.5193012E+05 -0.3725187E+05  0.3209121E-02  0.3967285E-02  0.1279524E+06  0.2266906E+05
  0.1628572E+01 -0.5101130E+05 -0.4033304E+05  0.2211186E-02  0.7904053E-02  0.1276154E+06  0.2479417E+05
  0.1659524E+01 -0.4988138E+05 -0.4326508E+05 -0.3604314E-02 -0.5554199E-02  0.1264951E+06  0.2667952E+05
  0.1690476E+01 -0.4879771E+05 -0.4617202E+05 -0.8665273E-03 -0.2502441E-02  0.1256999E+06  0.2865178E+05
  0.1721429E+01 -0.4775592E+05 -0.4902659E+05 -0.7800344E-03  0.8239746E-03  0.1252159E+06  0.3073070E+05
  0.1752381E+01 -0.4646258E+05 -0.5171683E+05  0.1393194E-03 -0.1861572E-02  0.1244975E+06  0.3272965E+05
  0.1783333E+01 -0.4503770E+05 -0.5424407E+05 -0.6845064E-03 -0.5340576E-02  0.1236568E+06  0.3464061E+05
  0.1814286E+01 -0.4356621E+05 -0.5663316E+05 -0.7670245E-02 -0.4669189E-02  0.1229296E+06  0.3654294E+05
  0.1845238E+01 -0.4211101E+05 -0.5889971E+05 -0.4366179E-02 -0.7934570E-03  0.1223825E+06  0.3849169E+05
  0.1876190E+01 -0.4062626E+05 -0.6095249E+05  0.8523234E-02  0.1788330E-01  0.1216455E+06  0.4023565E+05
  0.1907143E+01 -0.3907949E+05 -0.6260832E+05  0.1728187E-02  0.1922607E-02  0.1202070E+06  0.4131300E+05
  0.1938095E+01 -0.3757913E+05 -0.6410740E+05 -0.2141479E-02 -0.3601074E-02  0.1188501E+06  0.4231339E+05
  0.1969048E+01 -0.3625880E+05 -0.6559706E+05  0.1921833E-02  0.2410889E-02  0.1180023E+06  0.4366957E+05
  0.2000000E+01 -0.3496373E+05 -0.6691256E+05 -0.4089355E-02 -0.9887695E-02  0.1172234E+06  0.4493696E+05
