VARIABLES="w (rad/s)"
"abs(F   1   1)" "angle(F   1   1)"
"abs(F   1   2)" "angle(F   1   2)"
"abs(F   1   3)" "angle(F   1   3)"
Zone t="Diffraction force - beta =   0.000 deg",I=    64,F=POINT
  0.5000000E-01  0.5598935E+03 -0.1570796E+01  0.6827469E+02 -0.3095329E+01  0.6026248E+03  0.1570797E+01
  0.8095238E-01  0.9185071E+03 -0.1570795E+01  0.1774256E+03 -0.3093743E+01  0.9900603E+03  0.1570798E+01
  0.1119048E+00  0.1283797E+04 -0.1570793E+01  0.3376364E+03 -0.3091733E+01  0.1383225E+04  0.1570799E+01
  0.1428571E+00  0.1663090E+04 -0.1570790E+01  0.5490043E+03 -0.3089115E+01  0.1786367E+04  0.1570802E+01
  0.1738095E+00  0.2054414E+04 -0.1570786E+01  0.8136100E+03 -0.3085854E+01  0.2205556E+04  0.1570805E+01
  0.2047619E+00  0.2469769E+04 -0.1570780E+01  0.1131653E+04 -0.3081695E+01  0.2642471E+04  0.1570810E+01
  0.2357143E+00  0.2906322E+04 -0.1570772E+01  0.1506074E+04 -0.3076466E+01  0.3107916E+04  0.1570817E+01
  0.2666667E+00  0.3374875E+04 -0.1570759E+01  0.1938592E+04 -0.3070080E+01  0.3601710E+04  0.1570828E+01
  0.2976190E+00  0.3892339E+04 -0.1570741E+01  0.2430425E+04 -0.3062004E+01  0.4131592E+04  0.1570844E+01
  0.3285715E+00  0.4443585E+04 -0.1570713E+01  0.2985456E+04 -0.3052320E+01  0.4713084E+04  0.1570867E+01
  0.3595238E+00  0.5050395E+04 -0.1570672E+01  0.3603805E+04 -0.3040524E+01  0.5344995E+04  0.1570902E+01
  0.3904762E+00  0.5729184E+04 -0.1570609E+01  0.4286568E+04 -0.3026442E+01  0.6032427E+04  0.1570955E+01
  0.4214286E+00  0.6485195E+04 -0.1570519E+01  0.5028114E+04 -0.3010581E+01  0.6791892E+04  0.1571033E+01
  0.4523810E+00  0.7293090E+04 -0.1570385E+01  0.5835906E+04 -0.2992255E+01  0.7621690E+04  0.1571146E+01
  0.4833333E+00  0.8190252E+04 -0.1570198E+01  0.6694021E+04 -0.2973437E+01  0.8508232E+04  0.1571303E+01
  0.5142857E+00  0.9163470E+04 -0.1569939E+01  0.7597624E+04 -0.2952793E+01  0.9468511E+04  0.1571523E+01
  0.5452381E+00  0.1020281E+05 -0.1569592E+01  0.8554360E+04 -0.2932121E+01  0.1048979E+05  0.1571816E+01
  0.5761905E+00  0.1129059E+05 -0.1569139E+01  0.9559974E+04 -0.2911699E+01  0.1156523E+05  0.1572196E+01
  0.6071429E+00  0.1243644E+05 -0.1568552E+01  0.1060227E+05 -0.2890479E+01  0.1266753E+05  0.1572690E+01
  0.6380953E+00  0.1365581E+05 -0.1567818E+01  0.1168652E+05 -0.2870074E+01  0.1380608E+05  0.1573307E+01
  0.6690477E+00  0.1492580E+05 -0.1566905E+01  0.1280633E+05 -0.2849628E+01  0.1499327E+05  0.1574073E+01
  0.7000000E+00  0.1620769E+05 -0.1565771E+01  0.1396298E+05 -0.2829011E+01  0.1619564E+05  0.1575018E+01
  0.7309524E+00  0.1752653E+05 -0.1564397E+01  0.1516298E+05 -0.2809048E+01  0.1740936E+05  0.1576160E+01
  0.7619048E+00  0.1890840E+05 -0.1562748E+01  0.1638915E+05 -0.2789092E+01  0.1863885E+05  0.1577532E+01
  0.7928572E+00  0.2032370E+05 -0.1560782E+01  0.1763120E+05 -0.2768925E+01  0.1987267E+05  0.1579165E+01
  0.8238096E+00  0.2178485E+05 -0.1558463E+01  0.1889519E+05 -0.2748906E+01  0.2113335E+05  0.1581084E+01
  0.8547620E+00  0.2326931E+05 -0.1555746E+01  0.2018562E+05 -0.2729307E+01  0.2237791E+05  0.1583329E+01
  0.8857143E+00  0.2476281E+05 -0.1552580E+01  0.2149767E+05 -0.2710107E+01  0.2364816E+05  0.1585922E+01
  0.9166667E+00  0.2624981E+05 -0.1548915E+01  0.2282272E+05 -0.2691131E+01  0.2487660E+05  0.1588911E+01
  0.9476191E+00  0.2778619E+05 -0.1544739E+01  0.2415441E+05 -0.2672357E+01  0.2610806E+05  0.1592313E+01
  0.9785714E+00  0.2935383E+05 -0.1540005E+01  0.2548675E+05 -0.2653736E+01  0.2729322E+05  0.1596176E+01
  0.1009524E+01  0.3095520E+05 -0.1534677E+01  0.2681596E+05 -0.2635317E+01  0.2849012E+05  0.1600505E+01
  0.1040476E+01  0.3253439E+05 -0.1528675E+01  0.2813979E+05 -0.2617121E+01  0.2965252E+05  0.1605347E+01
  0.1071429E+01  0.3410655E+05 -0.1521971E+01  0.2946451E+05 -0.2599468E+01  0.3078130E+05  0.1610724E+01
  0.1102381E+01  0.3565973E+05 -0.1514520E+01  0.3078753E+05 -0.2582357E+01  0.3187790E+05  0.1616649E+01
  0.1133333E+01  0.3718475E+05 -0.1506289E+01  0.3210463E+05 -0.2565752E+01  0.3290862E+05  0.1623155E+01
  0.1164286E+01  0.3870582E+05 -0.1497299E+01  0.3341114E+05 -0.2549576E+01  0.3389747E+05  0.1630224E+01
  0.1195238E+01  0.4018318E+05 -0.1487485E+01  0.3469560E+05 -0.2533529E+01  0.3481623E+05  0.1637896E+01
  0.1226190E+01  0.4162679E+05 -0.1476856E+01  0.3595769E+05 -0.2517736E+01  0.3564625E+05  0.1646177E+01
  0.1257143E+01  0.4302416E+05 -0.1465366E+01  0.3721042E+05 -0.2501958E+01  0.3644971E+05  0.1655020E+01
  0.1288095E+01  0.4439619E+05 -0.1453143E+01  0.3840804E+05 -0.2487140E+01  0.3714162E+05  0.1664410E+01
  0.1319048E+01  0.4568473E+05 -0.1440049E+01  0.3959667E+05 -0.2472560E+01  0.3775973E+05  0.1674335E+01
  0.1350000E+01  0.4688473E+05 -0.1426114E+01  0.4075977E+05 -0.2458587E+01  0.3831249E+05  0.1684716E+01
  0.1380952E+01  0.4795467E+05 -0.1411272E+01  0.4189647E+05 -0.2445191E+01  0.3875950E+05  0.1695564E+01
  0.1411905E+01  0.4844834E+05 -0.1396514E+01  0.4276546E+05 -0.2431012E+01  0.3900106E+05  0.1705504E+01
  0.1442857E+01  0.4926450E+05 -0.1380190E+01  0.4383670E+05 -0.2418481E+01  0.3923821E+05  0.1716919E+01
  0.1473810E+01  0.4994011E+05 -0.1363187E+01  0.4487249E+05 -0.2406258E+01  0.3932441E+05  0.1728613E+01
  0.1504762E+01  0.5048810E+05 -0.1345635E+01  0.4587222E+05 -0.2394389E+01  0.3929509E+05  0.1740458E+01
  0.1535714E+01  0.5090384E+05 -0.1327634E+01  0.4683102E+05 -0.2382906E+01  0.3916100E+05  0.1752297E+01
  0.1566667E+01  0.5115145E+05 -0.1309099E+01  0.4774985E+05 -0.2371723E+01  0.3894704E+05  0.1764042E+01
  0.1597619E+01  0.5120953E+05 -0.1290101E+01  0.4862470E+05 -0.2360750E+01  0.3860236E+05  0.1775605E+01
  0.1628572E+01  0.5107575E+05 -0.1270733E+01  0.4945510E+05 -0.2350131E+01  0.3812833E+05  0.1786853E+01
  0.1659524E+01  0.5077861E+05 -0.1251238E+01  0.5024663E+05 -0.2340169E+01  0.3758297E+05  0.1797552E+01
  0.1690476E+01  0.5029344E+05 -0.1231716E+01  0.5099264E+05 -0.2330642E+01  0.3691419E+05  0.1807614E+01
  0.1721429E+01  0.4960781E+05 -0.1212227E+01  0.5169316E+05 -0.2321465E+01  0.3611754E+05  0.1816929E+01
  0.1752381E+01  0.4874804E+05 -0.1193013E+01  0.5234909E+05 -0.2312788E+01  0.3524217E+05  0.1825230E+01
  0.1783333E+01  0.4770947E+05 -0.1174168E+01  0.5295524E+05 -0.2304470E+01  0.3430164E+05  0.1832299E+01
  0.1814286E+01  0.4647044E+05 -0.1155542E+01  0.5351544E+05 -0.2296422E+01  0.3330004E+05  0.1838131E+01
  0.1845238E+01  0.4504229E+05 -0.1137455E+01  0.5402451E+05 -0.2288692E+01  0.3221251E+05  0.1842437E+01
  0.1876190E+01  0.4342744E+05 -0.1119954E+01  0.5448316E+05 -0.2281117E+01  0.3106267E+05  0.1845081E+01
  0.1907143E+01  0.4166602E+05 -0.1103376E+01  0.5489609E+05 -0.2274132E+01  0.2990904E+05  0.1845893E+01
  0.1938095E+01  0.3976050E+05 -0.1087959E+01  0.5525655E+05 -0.2267590E+01  0.2873413E+05  0.1844592E+01
  0.1969048E+01  0.3767967E+05 -0.1073596E+01  0.5556161E+05 -0.2261098E+01  0.2749413E+05  0.1841007E+01
  0.2000000E+01  0.3548002E+05 -0.1060811E+01  0.5581694E+05 -0.2255129E+01  0.2627413E+05  0.1835067E+01
