VARIABLES="w (rad/s)"
"abs(F   1   1)" "angle(F   1   1)"
"abs(F   1   2)" "angle(F   1   2)"
"abs(F   1   3)" "angle(F   1   3)"
Zone t="Diffraction force - beta =   0.000 deg",I=    64,F=POINT
  0.5000000E-01  0.2143699E+03 -0.1570754E+01  0.6846302E+05 -0.4675636E-05  0.9065396E+02  0.1570724E+01
  0.8095238E-01  0.3499645E+03 -0.1570810E+01  0.6841140E+05 -0.1259102E-04  0.1480012E+03  0.1570745E+01
  0.1119048E+00  0.4890408E+03 -0.1570779E+01  0.6833536E+05 -0.2503853E-04  0.2069743E+03  0.1570805E+01
  0.1428571E+00  0.6331142E+03 -0.1570812E+01  0.6823486E+05 -0.4302029E-04  0.2678192E+03  0.1570799E+01
  0.1738095E+00  0.7834313E+03 -0.1570798E+01  0.6810973E+05 -0.6805259E-04  0.3311354E+03  0.1570810E+01
  0.2047619E+00  0.9420919E+03 -0.1570799E+01  0.6795984E+05 -0.1022989E-03  0.3975765E+03  0.1570781E+01
  0.2357143E+00  0.1111850E+04 -0.1570798E+01  0.6778509E+05 -0.1490295E-03  0.4680276E+03  0.1570797E+01
  0.2666667E+00  0.1292828E+04 -0.1570791E+01  0.6758499E+05 -0.2123073E-03  0.5438885E+03  0.1570791E+01
  0.2976190E+00  0.1490721E+04 -0.1570785E+01  0.6735949E+05 -0.2988072E-03  0.6255450E+03  0.1570800E+01
  0.3285715E+00  0.1707842E+04 -0.1570796E+01  0.6710855E+05 -0.4158234E-03  0.7146696E+03  0.1570784E+01
  0.3595238E+00  0.1946198E+04 -0.1570781E+01  0.6683159E+05 -0.5743771E-03  0.8127156E+03  0.1570798E+01
  0.3904762E+00  0.2209318E+04 -0.1570785E+01  0.6652884E+05 -0.7875165E-03  0.9204747E+03  0.1570812E+01
  0.4214286E+00  0.2503129E+04 -0.1570770E+01  0.6620146E+05 -0.1064562E-02  0.1039203E+04  0.1570825E+01
  0.4523810E+00  0.2828367E+04 -0.1570762E+01  0.6584848E+05 -0.1427343E-02  0.1169088E+04  0.1570830E+01
  0.4833333E+00  0.3179672E+04 -0.1570751E+01  0.6547130E+05 -0.1870380E-02  0.1311904E+04  0.1570838E+01
  0.5142857E+00  0.3564155E+04 -0.1570732E+01  0.6507084E+05 -0.2419160E-02  0.1465410E+04  0.1570864E+01
  0.5452381E+00  0.3979430E+04 -0.1570704E+01  0.6464818E+05 -0.3070506E-02  0.1628750E+04  0.1570888E+01
  0.5761905E+00  0.4422659E+04 -0.1570670E+01  0.6420225E+05 -0.3829597E-02  0.1800574E+04  0.1570920E+01
  0.6071429E+00  0.4885294E+04 -0.1570621E+01  0.6373408E+05 -0.4719631E-02  0.1982604E+04  0.1570968E+01
  0.6380953E+00  0.5372745E+04 -0.1570565E+01  0.6324371E+05 -0.5727658E-02  0.2170875E+04  0.1571024E+01
  0.6690477E+00  0.5886692E+04 -0.1570489E+01  0.6273365E+05 -0.6878118E-02  0.2364638E+04  0.1571097E+01
  0.7000000E+00  0.6420586E+04 -0.1570401E+01  0.6220484E+05 -0.8187415E-02  0.2566044E+04  0.1571193E+01
  0.7309524E+00  0.6972985E+04 -0.1570289E+01  0.6165424E+05 -0.9653311E-02  0.2773433E+04  0.1571301E+01
  0.7619048E+00  0.7540767E+04 -0.1570153E+01  0.6108374E+05 -0.1129447E-01  0.2984137E+04  0.1571440E+01
  0.7928572E+00  0.8129831E+04 -0.1569989E+01  0.6049562E+05 -0.1312384E-01  0.3199688E+04  0.1571603E+01
  0.8238096E+00  0.8737620E+04 -0.1569792E+01  0.5989214E+05 -0.1515178E-01  0.3417254E+04  0.1571800E+01
  0.8547620E+00  0.9366589E+04 -0.1569557E+01  0.5927331E+05 -0.1738686E-01  0.3639803E+04  0.1572032E+01
  0.8857143E+00  0.1001315E+05 -0.1569281E+01  0.5863885E+05 -0.1983977E-01  0.3864226E+04  0.1572311E+01
  0.9166667E+00  0.1067407E+05 -0.1568960E+01  0.5798888E+05 -0.2251987E-01  0.4093475E+04  0.1572633E+01
  0.9476191E+00  0.1134292E+05 -0.1568584E+01  0.5732569E+05 -0.2543828E-01  0.4322791E+04  0.1573008E+01
  0.9785714E+00  0.1203026E+05 -0.1568150E+01  0.5664903E+05 -0.2860360E-01  0.4554270E+04  0.1573442E+01
  0.1009524E+01  0.1273266E+05 -0.1567652E+01  0.5596246E+05 -0.3202722E-01  0.4783132E+04  0.1573940E+01
  0.1040476E+01  0.1345615E+05 -0.1567085E+01  0.5526669E+05 -0.3571581E-01  0.5013652E+04  0.1574507E+01
  0.1071429E+01  0.1419012E+05 -0.1566438E+01  0.5456362E+05 -0.3967855E-01  0.5245210E+04  0.1575155E+01
  0.1102381E+01  0.1493489E+05 -0.1565706E+01  0.5385302E+05 -0.4392193E-01  0.5474926E+04  0.1575888E+01
  0.1133333E+01  0.1569321E+05 -0.1564882E+01  0.5313377E+05 -0.4844989E-01  0.5705600E+04  0.1576710E+01
  0.1164286E+01  0.1645769E+05 -0.1563960E+01  0.5240690E+05 -0.5327221E-01  0.5932535E+04  0.1577634E+01
  0.1195238E+01  0.1723145E+05 -0.1562930E+01  0.5167386E+05 -0.5839460E-01  0.6158192E+04  0.1578664E+01
  0.1226190E+01  0.1801215E+05 -0.1561786E+01  0.5093599E+05 -0.6382591E-01  0.6381906E+04  0.1579806E+01
  0.1257143E+01  0.1879271E+05 -0.1560523E+01  0.5019997E+05 -0.6963729E-01  0.6596220E+04  0.1581069E+01
  0.1288095E+01  0.1960009E+05 -0.1559131E+01  0.4945649E+05 -0.7564766E-01  0.6811202E+04  0.1582462E+01
  0.1319048E+01  0.2040880E+05 -0.1557605E+01  0.4871568E+05 -0.8204532E-01  0.7019638E+04  0.1583989E+01
  0.1350000E+01  0.2122530E+05 -0.1555938E+01  0.4797455E+05 -0.8876925E-01  0.7222701E+04  0.1585659E+01
  0.1380952E+01  0.2204814E+05 -0.1554122E+01  0.4723296E+05 -0.9581751E-01  0.7422062E+04  0.1587476E+01
  0.1411905E+01  0.2278410E+05 -0.1552353E+01  0.4653802E+05 -0.1025966E+00  0.7614713E+04  0.1589247E+01
  0.1442857E+01  0.2359693E+05 -0.1550245E+01  0.4580056E+05 -0.1102723E+00  0.7799840E+04  0.1591355E+01
  0.1473810E+01  0.2440859E+05 -0.1547974E+01  0.4506307E+05 -0.1182837E+00  0.7980111E+04  0.1593626E+01
  0.1504762E+01  0.2521986E+05 -0.1545535E+01  0.4432727E+05 -0.1266351E+00  0.8154442E+04  0.1596061E+01
  0.1535714E+01  0.2602324E+05 -0.1542930E+01  0.4359554E+05 -0.1353427E+00  0.8313735E+04  0.1598662E+01
  0.1566667E+01  0.2682845E+05 -0.1540158E+01  0.4286688E+05 -0.1443990E+00  0.8464781E+04  0.1601434E+01
  0.1597619E+01  0.2763137E+05 -0.1537223E+01  0.4214463E+05 -0.1538113E+00  0.8607632E+04  0.1604371E+01
  0.1628572E+01  0.2842656E+05 -0.1534119E+01  0.4142889E+05 -0.1635829E+00  0.8741937E+04  0.1607484E+01
  0.1659524E+01  0.2921012E+05 -0.1530849E+01  0.4072122E+05 -0.1737152E+00  0.8862912E+04  0.1610763E+01
  0.1690476E+01  0.2998324E+05 -0.1527415E+01  0.4002049E+05 -0.1842066E+00  0.8973918E+04  0.1614206E+01
  0.1721429E+01  0.3074760E+05 -0.1523826E+01  0.3932600E+05 -0.1950433E+00  0.9077177E+04  0.1617808E+01
  0.1752381E+01  0.3149402E+05 -0.1520086E+01  0.3863846E+05 -0.2062326E+00  0.9166288E+04  0.1621556E+01
  0.1783333E+01  0.3222197E+05 -0.1516205E+01  0.3795661E+05 -0.2177691E+00  0.9241507E+04  0.1625441E+01
  0.1814286E+01  0.3293131E+05 -0.1512195E+01  0.3728010E+05 -0.2296494E+00  0.9305029E+04  0.1629449E+01
  0.1845238E+01  0.3361834E+05 -0.1508067E+01  0.3661047E+05 -0.2418806E+00  0.9357853E+04  0.1633561E+01
  0.1876190E+01  0.3427523E+05 -0.1503827E+01  0.3594861E+05 -0.2544796E+00  0.9398833E+04  0.1637779E+01
  0.1907143E+01  0.3490353E+05 -0.1499509E+01  0.3529479E+05 -0.2674439E+00  0.9422939E+04  0.1642067E+01
  0.1938095E+01  0.3550223E+05 -0.1495136E+01  0.3465012E+05 -0.2807844E+00  0.9429588E+04  0.1646410E+01
  0.1969048E+01  0.3607640E+05 -0.1490729E+01  0.3401239E+05 -0.2944891E+00  0.9426000E+04  0.1650796E+01
  0.2000000E+01  0.3662305E+05 -0.1486320E+01  0.3338463E+05 -0.3085653E+00  0.9409328E+04  0.1655187E+01
