VARIABLES="w (rad/s)"
"A   1   1" "B   1   1"
"A   1   2" "B   1   2"
"A   1   3" "B   1   3"
Zone t="Motion of body    1 in DoF   1",I=    64,F=POINT
  0.5000000E-01  0.1166850E+06  0.9312047E-02  0.4005432E-02 -0.3194073E-05 -0.2157042E+06 -0.1327611E-01
  0.8095238E-01  0.1173358E+06  0.4083981E-01 -0.4665150E-02 -0.5457105E-04 -0.2165412E+06 -0.5770484E-01
  0.1119048E+00  0.1176168E+06  0.1145770E+00 -0.1605582E-01 -0.8152361E-04 -0.2166353E+06 -0.1614298E+00
  0.1428571E+00  0.1177151E+06  0.2575377E+00  0.2830505E-02  0.6639399E-05 -0.2167081E+06 -0.3617430E+00
  0.1738095E+00  0.1178941E+06  0.5121645E+00  0.9239928E-02  0.1122125E-03 -0.2168292E+06 -0.7181631E+00
  0.2047619E+00  0.1179556E+06  0.9429032E+00 -0.1937511E-02  0.2815900E-04 -0.2169233E+06 -0.1320287E+01
  0.2357143E+00  0.1182041E+06  0.1657523E+01 -0.7120768E-03  0.1517776E-04 -0.2170054E+06 -0.2313456E+01
  0.2666667E+00  0.1183122E+06  0.2819504E+01  0.1198769E-01  0.9694789E-04 -0.2172330E+06 -0.3923535E+01
  0.2976190E+00  0.1185094E+06  0.4716075E+01  0.6177979E-02  0.3628787E-03 -0.2173087E+06 -0.6537409E+01
  0.3285715E+00  0.1188163E+06  0.7781207E+01  0.1453565E-01  0.3899559E-03 -0.2174738E+06 -0.1073758E+02
  0.3595238E+00  0.1190687E+06  0.1273256E+02 -0.2211211E-01 -0.7759891E-03 -0.2177439E+06 -0.1749476E+02
  0.3904762E+00  0.1192439E+06  0.2066763E+02 -0.7541935E-02 -0.5713403E-03 -0.2179688E+06 -0.2826744E+02
  0.4214286E+00  0.1197081E+06  0.3313138E+02  0.2534510E-02  0.2647489E-03 -0.2181803E+06 -0.4502885E+02
  0.4523810E+00  0.1201580E+06  0.5264103E+02 -0.9275737E-02 -0.2412945E-03 -0.2184708E+06 -0.7111478E+02
  0.4833333E+00  0.1204992E+06  0.8148701E+02 -0.1366977E-01 -0.2130270E-03 -0.2188661E+06 -0.1094299E+03
  0.5142857E+00  0.1208878E+06  0.1240686E+03 -0.9909736E-02 -0.5928278E-03 -0.2192614E+06 -0.1655708E+03
  0.5452381E+00  0.1215011E+06  0.1844960E+03  0.1262148E-01  0.1405120E-02 -0.2196260E+06 -0.2442948E+03
  0.5761905E+00  0.1221684E+06  0.2678694E+03 -0.2070908E-01 -0.2849579E-02 -0.2201189E+06 -0.3518586E+03
  0.6071429E+00  0.1226940E+06  0.3814648E+03 -0.1533059E-02 -0.8900166E-03 -0.2207037E+06 -0.4974333E+03
  0.6380953E+00  0.1232706E+06  0.5310944E+03 -0.2018259E-01 -0.3981352E-02 -0.2212774E+06 -0.6870011E+03
  0.6690477E+00  0.1240492E+06  0.7269436E+03 -0.2134710E-01 -0.3154516E-02 -0.2218475E+06 -0.9316734E+03
  0.7000000E+00  0.1248736E+06  0.9799501E+03 -0.1177107E-02  0.5798340E-03 -0.2223982E+06 -0.1243695E+04
  0.7309524E+00  0.1257352E+06  0.1300303E+04  0.5218803E-02  0.1611233E-02 -0.2230660E+06 -0.1633895E+04
  0.7619048E+00  0.1265618E+06  0.1701719E+04  0.1213646E-01  0.3210068E-02 -0.2238093E+06 -0.2117125E+04
  0.7928572E+00  0.1273571E+06  0.2198816E+04  0.2020758E-01  0.7858276E-02 -0.2245461E+06 -0.2707861E+04
  0.8238096E+00  0.1283041E+06  0.2808767E+04  0.8853626E-02  0.3170013E-02 -0.2252425E+06 -0.3420244E+04
  0.8547620E+00  0.1293174E+06  0.3548527E+04  0.1071090E-01  0.5830765E-02 -0.2258620E+06 -0.4268846E+04
  0.8857143E+00  0.1303972E+06  0.4437728E+04 -0.4065729E-02 -0.4535675E-02 -0.2265103E+06 -0.5271357E+04
  0.9166667E+00  0.1313900E+06  0.5494147E+04  0.3162731E-02  0.1985550E-02 -0.2271362E+06 -0.6443350E+04
  0.9476191E+00  0.1323733E+06  0.6738534E+04  0.3767924E-02  0.3215790E-02 -0.2278148E+06 -0.7801063E+04
  0.9785714E+00  0.1332741E+06  0.8188909E+04 -0.3617558E-02 -0.1255035E-02 -0.2283826E+06 -0.9353876E+04
  0.1009524E+01  0.1341714E+06  0.9863980E+04  0.1024786E-01 -0.1831055E-03 -0.2287929E+06 -0.1110736E+05
  0.1040476E+01  0.1350352E+06  0.1178151E+05 -0.8124519E-02 -0.3082275E-02 -0.2290967E+06 -0.1307132E+05
  0.1071429E+01  0.1358611E+06  0.1395757E+05  0.5354818E-02 -0.5683899E-02 -0.2292660E+06 -0.1524753E+05
  0.1102381E+01  0.1366063E+06  0.1640386E+05  0.1229140E-01  0.2296448E-02 -0.2292732E+06 -0.1763223E+05
  0.1133333E+01  0.1372255E+06  0.1912903E+05 -0.5116182E-02 -0.2777100E-02 -0.2291448E+06 -0.2022127E+05
  0.1164286E+01  0.1376764E+06  0.2213300E+05  0.4980169E-02  0.6599426E-02 -0.2288436E+06 -0.2299636E+05
  0.1195238E+01  0.1379248E+06  0.2541431E+05 -0.1429828E-01 -0.1783752E-01 -0.2284396E+06 -0.2594908E+05
  0.1226190E+01  0.1379201E+06  0.2895588E+05 -0.1458444E-01 -0.1173401E-01 -0.2277636E+06 -0.2903382E+05
  0.1257143E+01  0.1377066E+06  0.3274919E+05 -0.6942749E-02 -0.2838135E-02 -0.2268648E+06 -0.3222598E+05
  0.1288095E+01  0.1373322E+06  0.3673501E+05 -0.2369202E-02  0.5798340E-03 -0.2256848E+06 -0.3543649E+05
  0.1319048E+01  0.1367316E+06  0.4091573E+05  0.2221063E-02 -0.5645752E-03 -0.2243120E+06 -0.3867279E+05
  0.1350000E+01  0.1359022E+06  0.4523623E+05  0.3209997E-02 -0.3723145E-02 -0.2226838E+06 -0.4185299E+05
  0.1380952E+01  0.1348489E+06  0.4966607E+05 -0.2828664E-02 -0.2777100E-02 -0.2209538E+06 -0.4496675E+05
  0.1411905E+01  0.1331828E+06  0.5387930E+05 -0.9510368E-02  0.2777100E-02 -0.2189763E+06 -0.4775330E+05
  0.1442857E+01  0.1316830E+06  0.5834389E+05 -0.4272461E-02  0.2105713E-02 -0.2169279E+06 -0.5052156E+05
  0.1473810E+01  0.1299400E+06  0.6274779E+05 -0.7992745E-02 -0.4058838E-02 -0.2147227E+06 -0.5304555E+05
  0.1504762E+01  0.1280264E+06  0.6704900E+05 -0.6003078E-02 -0.1068115E-01 -0.2124428E+06 -0.5529477E+05
  0.1535714E+01  0.1259380E+06  0.7118625E+05  0.3696175E-02  0.3936768E-02 -0.2100657E+06 -0.5721116E+05
  0.1566667E+01  0.1237246E+06  0.7513246E+05 -0.5181495E-02 -0.1678467E-02 -0.2076921E+06 -0.5879668E+05
  0.1597619E+01  0.1213873E+06  0.7884716E+05 -0.3438344E-02 -0.4699707E-02 -0.2053398E+06 -0.6004258E+05
  0.1628572E+01  0.1189414E+06  0.8229034E+05 -0.1536587E-02 -0.4394531E-02 -0.2029813E+06 -0.6091178E+05
  0.1659524E+01  0.1164888E+06  0.8545771E+05  0.8495883E-02 -0.6042480E-02 -0.2007514E+06 -0.6144545E+05
  0.1690476E+01  0.1139921E+06  0.8830956E+05 -0.2924529E-02  0.1220703E-03 -0.1985771E+06 -0.6161330E+05
  0.1721429E+01  0.1114713E+06  0.9083574E+05 -0.3545611E-02  0.4272461E-03 -0.1964685E+06 -0.6141304E+05
  0.1752381E+01  0.1090010E+06  0.9305251E+05 -0.2786388E-02 -0.1525879E-02 -0.1945345E+06 -0.6092541E+05
  0.1783333E+01  0.1065638E+06  0.9491941E+05  0.2327322E-02  0.6164551E-02 -0.1926607E+06 -0.6005601E+05
  0.1814286E+01  0.1042071E+06  0.9651861E+05  0.1244733E-02 -0.9826660E-02 -0.1910233E+06 -0.5900237E+05
  0.1845238E+01  0.1018982E+06  0.9779919E+05 -0.5623110E-03  0.5493164E-02 -0.1894905E+06 -0.5766902E+05
  0.1876190E+01  0.9964991E+05  0.9878702E+05  0.9434114E-03 -0.1953125E-02 -0.1880724E+06 -0.5609430E+05
  0.1907143E+01  0.9754948E+05  0.9954620E+05  0.1728187E-02 -0.1477051E-01 -0.1868946E+06 -0.5441742E+05
  0.1938095E+01  0.9554031E+05  0.1000180E+06  0.6203991E-02  0.5798340E-02 -0.1858022E+06 -0.5249066E+05
  0.1969048E+01  0.9359280E+05  0.1002552E+06 -0.4494608E-02 -0.2807617E-02 -0.1848293E+06 -0.5044785E+05
  0.2000000E+01  0.9178759E+05  0.1002987E+06  0.3890991E-02  0.2502441E-02 -0.1840390E+06 -0.4834755E+05
Zone t="Motion of body    1 in DoF   2",I=    64,F=POINT
  0.5000000E-01 -0.7553101E-02 -0.5841255E-05  0.5824270E+05  0.1581835E+03  0.3921509E-01 -0.2455711E-04
  0.8095238E-01  0.3015855E-02 -0.1335144E-04  0.5753361E+05  0.2622685E+03  0.1385408E-01  0.7677078E-04
  0.1119048E+00 -0.8828995E-02  0.1430511E-04  0.5714350E+05  0.3755358E+03  0.2106687E-01  0.3337860E-05
  0.1428571E+00  0.8010864E-03  0.1177788E-03  0.5695007E+05  0.5023200E+03  0.2146911E-01 -0.9393692E-04
  0.1738095E+00  0.1185169E-01  0.5245209E-04  0.5690323E+05  0.6479137E+03 -0.1668015E-02  0.2326965E-03
  0.2047619E+00 -0.1229575E-02 -0.9822845E-04  0.5697788E+05  0.8191760E+03  0.1065631E-01  0.2107620E-03
  0.2357143E+00 -0.8739124E-02 -0.5912781E-04  0.5709861E+05  0.1025541E+04  0.1087535E-01 -0.6065369E-03
  0.2666667E+00 -0.1602173E-02  0.8201599E-04  0.5733607E+05  0.1274867E+04  0.6351470E-02  0.1506805E-03
  0.2976190E+00 -0.6767578E-02  0.4768372E-04  0.5760919E+05  0.1585270E+04 -0.8203125E-03  0.1964569E-03
  0.3285715E+00  0.1676476E-01  0.2384186E-03  0.5789137E+05  0.1965934E+04 -0.4625403E-01 -0.7781982E-03
  0.3595238E+00 -0.1150169E-01  0.5264282E-03  0.5817994E+05  0.2438400E+04  0.1137437E-01  0.1029968E-03
  0.3904762E+00 -0.1031643E-01 -0.2784729E-03  0.5848406E+05  0.3018305E+04 -0.2422798E-01 -0.1480103E-02
  0.4214286E+00 -0.1955194E-01  0.4425049E-03  0.5859264E+05  0.3700366E+04 -0.2244852E-02  0.2822876E-03
  0.4523810E+00 -0.7960268E-02  0.3242493E-03  0.5863543E+05  0.4519153E+04  0.1882131E-01  0.7324219E-03
  0.4833333E+00 -0.8839574E-03 -0.4692078E-03  0.5852634E+05  0.5406535E+04  0.1123889E-01 -0.5416870E-03
  0.5142857E+00  0.2195570E-02 -0.6103516E-03  0.5824109E+05  0.6405658E+04 -0.2260844E-01 -0.4425049E-03
  0.5452381E+00  0.7835954E-02  0.1319885E-02  0.5779493E+05  0.7461506E+04 -0.1013077E-01 -0.7629395E-05
  0.5761905E+00 -0.9533589E-03 -0.6103516E-03  0.5723410E+05  0.8553782E+04  0.6493434E-01  0.2822876E-02
  0.6071429E+00  0.1020364E-01 -0.8316040E-03  0.5656197E+05  0.9708027E+04 -0.2658978E-01  0.4379272E-02
  0.6380953E+00  0.5213040E-02 -0.1296997E-02  0.5585713E+05  0.1085915E+05  0.1721738E-01 -0.4150391E-02
  0.6690477E+00  0.1035426E-01 -0.9307861E-03  0.5503100E+05  0.1203190E+05 -0.1158582E-01 -0.1724243E-02
  0.7000000E+00 -0.1831055E-02  0.3356934E-03  0.5409925E+05  0.1322889E+05  0.1229422E-01  0.1922607E-02
  0.7309524E+00  0.1711768E-02 -0.1602173E-02  0.5317028E+05  0.1441281E+05 -0.6513067E-02  0.3326416E-02
  0.7619048E+00 -0.2443313E-02  0.1480103E-02  0.5221043E+05  0.1558887E+05  0.1273727E-01 -0.3753662E-02
  0.7928572E+00  0.5696614E-02  0.6713867E-03  0.5119582E+05  0.1675461E+05  0.1462644E-02 -0.5828857E-02
  0.8238096E+00  0.4889868E-02  0.3814697E-03  0.5013909E+05  0.1790021E+05 -0.1852223E-02  0.6744385E-02
  0.8547620E+00 -0.3606004E-02 -0.7324219E-03  0.4905036E+05  0.1901474E+05  0.9354190E-02  0.5218506E-02
  0.8857143E+00 -0.1236946E-01  0.2441406E-03  0.4795153E+05  0.2008855E+05  0.4134640E-02 -0.1007080E-02
  0.9166667E+00  0.7457386E-02  0.3356934E-02  0.4685112E+05  0.2111744E+05 -0.4261364E-02  0.1220703E-02
  0.9476191E+00  0.3381470E-02  0.2075195E-02  0.4575693E+05  0.2209341E+05 -0.5281535E-02  0.1739502E-02
  0.9785714E+00 -0.9043896E-02  0.4882812E-03  0.4466691E+05  0.2301263E+05 -0.2189246E-01 -0.1281738E-02
  0.1009524E+01  0.1178957E-02  0.2471924E-02  0.4358593E+05  0.2387303E+05  0.4473992E-02  0.4608154E-02
  0.1040476E+01 -0.2053128E-03  0.5493164E-03  0.4250482E+05  0.2467366E+05  0.2715995E-01 -0.2136230E-02
  0.1071429E+01 -0.6351726E-02  0.4272461E-03  0.4143626E+05  0.2540852E+05 -0.4557292E-03 -0.3479004E-02
  0.1102381E+01  0.9689166E-03 -0.4455566E-02  0.4039768E+05  0.2607081E+05  0.1865857E-01 -0.5737305E-02
  0.1133333E+01 -0.4793055E-02  0.1831055E-03  0.3939053E+05  0.2665778E+05  0.1696418E-01 -0.1190186E-01
  0.1164286E+01  0.3092947E-02  0.1007080E-02  0.3843154E+05  0.2717094E+05  0.2201759E-01  0.9582520E-02
  0.1195238E+01 -0.2731992E-02  0.1708984E-02  0.3751120E+05  0.2761064E+05 -0.6893811E-02  0.1513672E-01
  0.1226190E+01 -0.4803407E-02  0.8544922E-03  0.3663191E+05  0.2798021E+05  0.1493287E-03 -0.4394531E-02
  0.1257143E+01 -0.1359419E-02  0.5187988E-03  0.3578807E+05  0.2829176E+05 -0.4418113E-02  0.5187988E-02
  0.1288095E+01 -0.3056271E-02  0.2593994E-02  0.3498855E+05  0.2851289E+05 -0.1018757E-01  0.1708984E-02
  0.1319048E+01  0.1272484E-02 -0.2441406E-03  0.3422627E+05  0.2868058E+05 -0.9578332E-02 -0.1232910E-01
  0.1350000E+01 -0.3051758E-02  0.3448486E-02  0.3350628E+05  0.2878163E+05 -0.9268302E-02  0.6530762E-02
  0.1380952E+01 -0.3027554E-02  0.1007080E-02  0.3283750E+05  0.2881579E+05  0.3093851E-03  0.1953125E-02
  0.1411905E+01 -0.3371858E-02 -0.0000000E+00  0.3224919E+05  0.2884698E+05 -0.4928100E-02 -0.1098633E-02
  0.1442857E+01 -0.4632025E-02 -0.2624512E-02  0.3167794E+05  0.2877100E+05 -0.1412873E-01  0.1324463E-01
  0.1473810E+01 -0.3271642E-02 -0.4028320E-02  0.3115356E+05  0.2864905E+05 -0.7454374E-03  0.5065918E-02
  0.1504762E+01 -0.2474242E-02 -0.9765625E-03  0.3067522E+05  0.2847747E+05  0.8923494E-03  0.5126953E-02
  0.1535714E+01  0.3119890E-02  0.3601074E-02  0.3024776E+05  0.2826504E+05 -0.2702580E-02 -0.3356934E-02
  0.1566667E+01  0.4149092E-02  0.1098633E-02  0.2986187E+05  0.2801061E+05 -0.1254467E-01 -0.5004883E-02
  0.1597619E+01 -0.1489949E-02 -0.3845215E-02  0.2952054E+05  0.2772852E+05  0.4966497E-03 -0.7568359E-02
  0.1628572E+01  0.9369432E-03 -0.2075195E-02  0.2922038E+05  0.2742248E+05  0.8882221E-02 -0.7873535E-02
  0.1659524E+01  0.8679777E-02  0.1464844E-02  0.2897031E+05  0.2709729E+05 -0.1044516E-01  0.1831055E-02
  0.1690476E+01 -0.4152110E-02  0.3967285E-02  0.2876488E+05  0.2676791E+05  0.5054742E-03  0.3112793E-02
  0.1721429E+01  0.2304647E-03 -0.2380371E-02  0.2859099E+05  0.2643223E+05 -0.1081411E-01 -0.5493164E-02
  0.1752381E+01 -0.5921074E-03 -0.2441406E-02  0.2846625E+05  0.2609593E+05  0.5328967E-02 -0.2319336E-02
  0.1783333E+01  0.4979784E-02  0.5004883E-02  0.2838094E+05  0.2576400E+05  0.1519604E-01 -0.5493164E-02
  0.1814286E+01  0.1345657E-02  0.1831055E-02  0.2833042E+05  0.2545904E+05 -0.1426396E-01 -0.2685547E-02
  0.1845238E+01 -0.8930822E-03 -0.5859375E-02  0.2830181E+05  0.2519722E+05 -0.6317729E-02 -0.2685547E-02
  0.1876190E+01  0.4131492E-02 -0.1831055E-02  0.2828966E+05  0.2498710E+05 -0.1984417E-02 -0.1220703E-03
  0.1907143E+01  0.2704292E-02 -0.8544922E-03  0.2830718E+05  0.2481834E+05 -0.2381057E-01  0.5493164E-03
  0.1938095E+01  0.1322678E-02  0.7080078E-02  0.2834227E+05  0.2470585E+05  0.1300634E-01 -0.2624512E-02
  0.1969048E+01  0.3177223E-02  0.3479004E-02  0.2836578E+05  0.2465975E+05  0.2055121E-01  0.3723145E-02
  0.2000000E+01  0.6896973E-02  0.5981445E-02  0.2839863E+05  0.2467063E+05 -0.7873535E-02  0.1953125E-02
Zone t="Motion of body    1 in DoF   3",I=    64,F=POINT
  0.5000000E-01 -0.2137112E+06 -0.1261951E-01  0.1079082E-01 -0.5238326E-06  0.7411564E+06  0.1847600E-01
  0.8095238E-01 -0.2147560E+06 -0.5509548E-01  0.3803688E-01  0.1981241E-03  0.7419386E+06  0.7798661E-01
  0.1119048E+00 -0.2149166E+06 -0.1540150E+00  0.4333750E-01  0.3016418E-03  0.7419974E+06  0.2166348E+00
  0.1428571E+00 -0.2149643E+06 -0.3460607E+00  0.1455641E-01  0.2898742E-03  0.7421776E+06  0.4847559E+00
  0.1738095E+00 -0.2151158E+06 -0.6871253E+00 -0.3617234E-01 -0.3458341E-03  0.7421609E+06  0.9629431E+00
  0.2047619E+00 -0.2151673E+06 -0.1262906E+01  0.9140302E-02  0.1373002E-03  0.7423825E+06  0.1769000E+01
  0.2357143E+00 -0.2152671E+06 -0.2212250E+01 -0.2215125E-02  0.1916997E-03  0.7424422E+06  0.3089000E+01
  0.2666667E+00 -0.2154837E+06 -0.3749009E+01 -0.2154350E-01 -0.7947804E-03  0.7424966E+06  0.5215819E+01
  0.2976190E+00 -0.2155176E+06 -0.6249381E+01  0.6367035E-02 -0.4625246E-03  0.7427527E+06  0.8662090E+01
  0.3285715E+00 -0.2156908E+06 -0.1026711E+02  0.6315811E-02  0.1610816E-04  0.7428772E+06  0.1416980E+02
  0.3595238E+00 -0.2159587E+06 -0.1671972E+02 -0.5665962E-02  0.7102638E-04  0.7429514E+06  0.2296899E+02
  0.3904762E+00 -0.2161290E+06 -0.2699943E+02 -0.6789695E-02  0.2192333E-03  0.7432218E+06  0.3692703E+02
  0.4214286E+00 -0.2163305E+06 -0.4304106E+02  0.1819416E-01 -0.3767014E-04  0.7435635E+06  0.5848938E+02
  0.4523810E+00 -0.2166259E+06 -0.6799052E+02 -0.1977419E-02 -0.1086891E-03  0.7437648E+06  0.9186385E+02
  0.4833333E+00 -0.2169846E+06 -0.1045460E+03 -0.2280926E-02  0.6321371E-03  0.7440415E+06  0.1403869E+03
  0.5142857E+00 -0.2173234E+06 -0.1581202E+03  0.9627873E-02 -0.9456873E-03  0.7445022E+06  0.2110004E+03
  0.5452381E+00 -0.2176786E+06 -0.2334442E+03  0.4794975E-01  0.3965616E-02  0.7449404E+06  0.3091180E+03
  0.5761905E+00 -0.2181797E+06 -0.3362952E+03  0.6872791E-01  0.7280350E-02  0.7453482E+06  0.4417264E+03
  0.6071429E+00 -0.2187218E+06 -0.4750013E+03  0.8492772E-01  0.1229763E-01  0.7456987E+06  0.6195544E+03
  0.6380953E+00 -0.2192270E+06 -0.6556111E+03  0.2732063E-01  0.1431227E-02  0.7463044E+06  0.8480671E+03
  0.6690477E+00 -0.2197712E+06 -0.8893287E+03  0.5238706E-01  0.1295662E-01  0.7469198E+06  0.1139715E+04
  0.7000000E+00 -0.2203075E+06 -0.1187599E+04  0.2708980E-01  0.7951736E-02  0.7474088E+06  0.1507264E+04
  0.7309524E+00 -0.2209501E+06 -0.1559968E+04  0.1535372E-01  0.4405499E-02  0.7479492E+06  0.1960102E+04
  0.7619048E+00 -0.2216443E+06 -0.2019724E+04 -0.6354617E-01 -0.1329708E-01  0.7484088E+06  0.2512777E+04
  0.7928572E+00 -0.2223034E+06 -0.2580977E+04 -0.2354665E-01 -0.1239014E-01  0.7490115E+06  0.3178540E+04
  0.8238096E+00 -0.2229523E+06 -0.3259685E+04 -0.3472918E-03  0.9376526E-02  0.7496327E+06  0.3969020E+04
  0.8547620E+00 -0.2235445E+06 -0.4069931E+04 -0.3115088E-02  0.5039215E-02  0.7501924E+06  0.4895196E+04
  0.8857143E+00 -0.2241769E+06 -0.5026532E+04  0.1770143E-01  0.1457214E-01  0.7505644E+06  0.5969462E+04
  0.9166667E+00 -0.2247645E+06 -0.6141863E+04  0.2089067E-01  0.1493454E-02  0.7508873E+06  0.7201985E+04
  0.9476191E+00 -0.2253903E+06 -0.7428850E+04 -0.1995873E-01 -0.6931305E-02  0.7511052E+06  0.8600067E+04
  0.9785714E+00 -0.2258912E+06 -0.8899556E+04  0.4537540E-02  0.9155273E-03  0.7513089E+06  0.1016618E+05
  0.1009524E+01 -0.2262531E+06 -0.1056476E+05  0.3287477E-02  0.7438660E-02  0.7513621E+06  0.1189550E+05
  0.1040476E+01 -0.2265264E+06 -0.1243166E+05 -0.2269439E-01 -0.1705933E-01  0.7513766E+06  0.1378769E+05
  0.1071429E+01 -0.2266849E+06 -0.1450135E+05 -0.5134074E-02  0.2616882E-02  0.7512029E+06  0.1583167E+05
  0.1102381E+01 -0.2266878E+06 -0.1676887E+05 -0.2901905E-01 -0.1665497E-01  0.7508036E+06  0.1801127E+05
  0.1133333E+01 -0.2265547E+06 -0.1922584E+05  0.1264909E-01  0.2570343E-01  0.7502409E+06  0.2030965E+05
  0.1164286E+01 -0.2262468E+06 -0.2185020E+05  0.6946025E-02  0.5470276E-02  0.7493697E+06  0.2269219E+05
  0.1195238E+01 -0.2258217E+06 -0.2462493E+05 -0.8132144E-02  0.8270264E-02  0.7484312E+06  0.2513989E+05
  0.1226190E+01 -0.2251383E+06 -0.2752342E+05  0.1469644E-01  0.8300781E-02  0.7473145E+06  0.2760532E+05
  0.1257143E+01 -0.2242338E+06 -0.3050690E+05 -0.6178075E-02 -0.6835938E-02  0.7459278E+06  0.3002915E+05
  0.1288095E+01 -0.2231027E+06 -0.3355540E+05  0.3992105E-02 -0.8422852E-02  0.7445093E+06  0.3237410E+05
  0.1319048E+01 -0.2217802E+06 -0.3660920E+05  0.1573253E-01  0.1785278E-02  0.7429552E+06  0.3459975E+05
  0.1350000E+01 -0.2202177E+06 -0.3960204E+05 -0.1456367E-01 -0.9826660E-02  0.7410220E+06  0.3662248E+05
  0.1380952E+01 -0.2185513E+06 -0.4251074E+05  0.4574480E-02  0.3982544E-02  0.7391502E+06  0.3846242E+05
  0.1411905E+01 -0.2174117E+06 -0.4564641E+05 -0.7927108E-02  0.1144409E-01  0.7372445E+06  0.4042592E+05
  0.1442857E+01 -0.2154411E+06 -0.4825752E+05  0.4420517E-02  0.1782227E-01  0.7350968E+06  0.4173040E+05
  0.1473810E+01 -0.2133295E+06 -0.5065405E+05  0.9675156E-02 -0.9429932E-02  0.7330561E+06  0.4274571E+05
  0.1504762E+01 -0.2111473E+06 -0.5278575E+05 -0.2055953E-02  0.2777100E-02  0.7310046E+06  0.4340968E+05
  0.1535714E+01 -0.2088778E+06 -0.5461230E+05 -0.1893545E-01 -0.1785278E-01  0.7290224E+06  0.4374253E+05
  0.1566667E+01 -0.2065984E+06 -0.5609003E+05 -0.2376475E-02 -0.9460449E-02  0.7269794E+06  0.4367352E+05
  0.1597619E+01 -0.2043454E+06 -0.5724892E+05 -0.2581385E-01 -0.1385498E-01  0.7251701E+06  0.4332143E+05
  0.1628572E+01 -0.2020976E+06 -0.5806980E+05  0.4716338E-02  0.9155273E-04  0.7234896E+06  0.4266413E+05
  0.1659524E+01 -0.1999507E+06 -0.5851822E+05  0.1494135E-01 -0.8209229E-02  0.7218912E+06  0.4166388E+05
  0.1690476E+01 -0.1978637E+06 -0.5864116E+05  0.2153681E-01  0.1260376E-01  0.7205474E+06  0.4046379E+05
  0.1721429E+01 -0.1958436E+06 -0.5843189E+05 -0.2738984E-02 -0.2380371E-02  0.7192991E+06  0.3898306E+05
  0.1752381E+01 -0.1939809E+06 -0.5792630E+05  0.1960050E-01  0.2667236E-01  0.7183102E+06  0.3733891E+05
  0.1783333E+01 -0.1921747E+06 -0.5706354E+05 -0.7580909E-02 -0.1434326E-02  0.7173261E+06  0.3541557E+05
  0.1814286E+01 -0.1905968E+06 -0.5597071E+05 -0.1099234E-01 -0.7965088E-02  0.7165660E+06  0.3337296E+05
  0.1845238E+01 -0.1891260E+06 -0.5464205E+05 -0.7797930E-02  0.1834106E-01  0.7159844E+06  0.3126640E+05
  0.1876190E+01 -0.1877771E+06 -0.5311166E+05 -0.4871582E-02 -0.5432129E-02  0.7155438E+06  0.2910955E+05
  0.1907143E+01 -0.1866427E+06 -0.5140136E+05 -0.4800518E-04 -0.2111816E-01  0.7152489E+06  0.2686828E+05
  0.1938095E+01 -0.1855910E+06 -0.4945805E+05  0.1270716E-01  0.2502441E-02  0.7150132E+06  0.2455296E+05
  0.1969048E+01 -0.1846668E+06 -0.4747704E+05 -0.2185310E-02 -0.6835938E-02  0.7150189E+06  0.2240720E+05
  0.2000000E+01 -0.1839018E+06 -0.4537836E+05 -0.1496887E-01 -0.1910400E-01  0.7150989E+06  0.2022413E+05
