VARIABLES="w (rad/s)"
"abs(F   1   1)" "angle(F   1   1)"
"abs(F   1   2)" "angle(F   1   2)"
"abs(F   1   3)" "angle(F   1   3)"
Zone t="Diffraction force - beta =   0.000 deg",I=    64,F=POINT
  0.5000000E-01  0.9225201E+03 -0.1570795E+01  0.2532393E+03 -0.3088887E+01  0.1673138E+02 -0.1570795E+01
  0.8095238E-01  0.1509219E+04 -0.1570792E+01  0.6561391E+03 -0.3086981E+01  0.2710682E+02 -0.1570792E+01
  0.1119048E+00  0.2107521E+04 -0.1570787E+01  0.1245585E+04 -0.3084638E+01  0.3792282E+02 -0.1570786E+01
  0.1428571E+00  0.2734767E+04 -0.1570780E+01  0.2022886E+04 -0.3081699E+01  0.4950901E+02 -0.1570778E+01
  0.1738095E+00  0.3372354E+04 -0.1570770E+01  0.2991581E+04 -0.3078015E+01  0.6124383E+02 -0.1570765E+01
  0.2047619E+00  0.4059394E+04 -0.1570755E+01  0.4156791E+04 -0.3073419E+01  0.7386254E+02 -0.1570746E+01
  0.2357143E+00  0.4785432E+04 -0.1570734E+01  0.5522189E+04 -0.3067610E+01  0.8826824E+02 -0.1570718E+01
  0.2666667E+00  0.5553112E+04 -0.1570702E+01  0.7095704E+04 -0.3060574E+01  0.1024963E+03 -0.1570678E+01
  0.2976190E+00  0.6406613E+04 -0.1570655E+01  0.8881463E+04 -0.3051718E+01  0.1195246E+03 -0.1570619E+01
  0.3285715E+00  0.7333711E+04 -0.1570585E+01  0.1088441E+05 -0.3041117E+01  0.1385644E+03 -0.1570532E+01
  0.3595238E+00  0.8336064E+04 -0.1570479E+01  0.1310430E+05 -0.3028248E+01  0.1591557E+03 -0.1570398E+01
  0.3904762E+00  0.9463390E+04 -0.1570322E+01  0.1554847E+05 -0.3013026E+01  0.1827849E+03 -0.1570200E+01
  0.4214286E+00  0.1073464E+05 -0.1570092E+01  0.1817209E+05 -0.2995881E+01  0.2136676E+03 -0.1569924E+01
  0.4523810E+00  0.1208952E+05 -0.1569753E+01  0.2100151E+05 -0.2976085E+01  0.2397541E+03 -0.1569490E+01
  0.4833333E+00  0.1356228E+05 -0.1569281E+01  0.2397437E+05 -0.2955967E+01  0.2733269E+03 -0.1568906E+01
  0.5142857E+00  0.1522102E+05 -0.1568630E+01  0.2709113E+05 -0.2934128E+01  0.3130156E+03 -0.1568110E+01
  0.5452381E+00  0.1699578E+05 -0.1567762E+01  0.3032490E+05 -0.2912227E+01  0.3577133E+03 -0.1567068E+01
  0.5761905E+00  0.1882121E+05 -0.1566623E+01  0.3366414E+05 -0.2890689E+01  0.3990032E+03 -0.1565647E+01
  0.6071429E+00  0.2074665E+05 -0.1565151E+01  0.3709195E+05 -0.2868514E+01  0.4438276E+03 -0.1563820E+01
  0.6380953E+00  0.2281780E+05 -0.1563325E+01  0.4061175E+05 -0.2847573E+01  0.4998723E+03 -0.1561636E+01
  0.6690477E+00  0.2501590E+05 -0.1561068E+01  0.4419105E+05 -0.2826744E+01  0.5637744E+03 -0.1559000E+01
  0.7000000E+00  0.2726068E+05 -0.1558283E+01  0.4780533E+05 -0.2805681E+01  0.6246435E+03 -0.1555660E+01
  0.7309524E+00  0.2948809E+05 -0.1554888E+01  0.5147441E+05 -0.2785419E+01  0.6811295E+03 -0.1551467E+01
  0.7619048E+00  0.3182729E+05 -0.1550840E+01  0.5517950E+05 -0.2765561E+01  0.7522836E+03 -0.1546702E+01
  0.7928572E+00  0.3429684E+05 -0.1546074E+01  0.5888124E+05 -0.2745834E+01  0.8276660E+03 -0.1541098E+01
  0.8238096E+00  0.3685241E+05 -0.1540499E+01  0.6256591E+05 -0.2726330E+01  0.9087103E+03 -0.1534576E+01
  0.8547620E+00  0.3944357E+05 -0.1534007E+01  0.6623275E+05 -0.2707253E+01  0.1000729E+04 -0.1527227E+01
  0.8857143E+00  0.4205220E+05 -0.1526498E+01  0.6987451E+05 -0.2688710E+01  0.1091671E+04 -0.1518589E+01
  0.9166667E+00  0.4460771E+05 -0.1517831E+01  0.7347434E+05 -0.2670650E+01  0.1170260E+04 -0.1508101E+01
  0.9476191E+00  0.4718482E+05 -0.1508007E+01  0.7700634E+05 -0.2652929E+01  0.1257775E+04 -0.1496473E+01
  0.9785714E+00  0.4981384E+05 -0.1497019E+01  0.8045892E+05 -0.2635558E+01  0.1363605E+04 -0.1484164E+01
  0.1009524E+01  0.5250235E+05 -0.1484846E+01  0.8383060E+05 -0.2618680E+01  0.1480247E+04 -0.1470788E+01
  0.1040476E+01  0.5516939E+05 -0.1471368E+01  0.8710299E+05 -0.2602244E+01  0.1593789E+04 -0.1455700E+01
  0.1071429E+01  0.5775699E+05 -0.1456473E+01  0.9026338E+05 -0.2586221E+01  0.1705784E+04 -0.1438891E+01
  0.1102381E+01  0.6022276E+05 -0.1440078E+01  0.9330764E+05 -0.2570649E+01  0.1818962E+04 -0.1420401E+01
  0.1133333E+01  0.6249279E+05 -0.1422053E+01  0.9622684E+05 -0.2555548E+01  0.1926236E+04 -0.1399760E+01
  0.1164286E+01  0.6459328E+05 -0.1402461E+01  0.9903608E+05 -0.2541173E+01  0.2036522E+04 -0.1377680E+01
  0.1195238E+01  0.6655455E+05 -0.1381545E+01  0.1017145E+06 -0.2527323E+01  0.2142095E+04 -0.1354006E+01
  0.1226190E+01  0.6833278E+05 -0.1359334E+01  0.1042492E+06 -0.2513915E+01  0.2244877E+04 -0.1329074E+01
  0.1257143E+01  0.6985934E+05 -0.1335628E+01  0.1066579E+06 -0.2500664E+01  0.2341477E+04 -0.1302225E+01
  0.1288095E+01  0.7114702E+05 -0.1311017E+01  0.1088414E+06 -0.2488112E+01  0.2445080E+04 -0.1275090E+01
  0.1319048E+01  0.7208875E+05 -0.1284900E+01  0.1109005E+06 -0.2475893E+01  0.2541346E+04 -0.1246517E+01
  0.1350000E+01  0.7268989E+05 -0.1257637E+01  0.1128020E+06 -0.2464288E+01  0.2630948E+04 -0.1217222E+01
  0.1380952E+01  0.7294125E+05 -0.1229559E+01  0.1145368E+06 -0.2453271E+01  0.2700933E+04 -0.1186268E+01
  0.1411905E+01  0.7233818E+05 -0.1200718E+01  0.1160004E+06 -0.2442213E+01  0.2698599E+04 -0.1149848E+01
  0.1442857E+01  0.7175687E+05 -0.1171064E+01  0.1173861E+06 -0.2431894E+01  0.2730938E+04 -0.1115831E+01
  0.1473810E+01  0.7073745E+05 -0.1140725E+01  0.1185905E+06 -0.2421857E+01  0.2753750E+04 -0.1081412E+01
  0.1504762E+01  0.6927309E+05 -0.1109801E+01  0.1196232E+06 -0.2412335E+01  0.2763364E+04 -0.1047169E+01
  0.1535714E+01  0.6738476E+05 -0.1078710E+01  0.1204827E+06 -0.2403329E+01  0.2758946E+04 -0.1013653E+01
  0.1566667E+01  0.6506297E+05 -0.1047476E+01  0.1211620E+06 -0.2394806E+01  0.2731133E+04 -0.9797754E+00
  0.1597619E+01  0.6231767E+05 -0.1016153E+01  0.1216586E+06 -0.2386716E+01  0.2674259E+04 -0.9446678E+00
  0.1628572E+01  0.5914124E+05 -0.9845450E+00  0.1219760E+06 -0.2379002E+01  0.2589156E+04 -0.9074631E+00
  0.1659524E+01  0.5556908E+05 -0.9528375E+00  0.1221155E+06 -0.2371715E+01  0.2482949E+04 -0.8703381E+00
  0.1690476E+01  0.5163185E+05 -0.9211193E+00  0.1220729E+06 -0.2364731E+01  0.2358508E+04 -0.8338391E+00
  0.1721429E+01  0.4734359E+05 -0.8890552E+00  0.1218529E+06 -0.2358143E+01  0.2214234E+04 -0.7981003E+00
  0.1752381E+01  0.4273675E+05 -0.8563743E+00  0.1214634E+06 -0.2352018E+01  0.2047295E+04 -0.7612920E+00
  0.1783333E+01  0.3784975E+05 -0.8227342E+00  0.1208961E+06 -0.2346401E+01  0.1858019E+04 -0.7228410E+00
  0.1814286E+01  0.3272127E+05 -0.7873353E+00  0.1201501E+06 -0.2341334E+01  0.1643946E+04 -0.6803351E+00
  0.1845238E+01  0.2738040E+05 -0.7484323E+00  0.1192257E+06 -0.2336686E+01  0.1403540E+04 -0.6308507E+00
  0.1876190E+01  0.2185515E+05 -0.7021686E+00  0.1181369E+06 -0.2332425E+01  0.1136943E+04 -0.5671516E+00
  0.1907143E+01  0.1619195E+05 -0.6399709E+00  0.1168858E+06 -0.2328600E+01  0.8531719E+03 -0.4764538E+00
  0.1938095E+01  0.1046216E+05 -0.5339531E+00  0.1154694E+06 -0.2325208E+01  0.5606143E+03 -0.3137477E+00
  0.1969048E+01  0.4897970E+04 -0.2260053E+00  0.1138954E+06 -0.2322055E+01  0.2892255E+03  0.1342399E+00
  0.2000000E+01  0.3013500E+04  0.1462064E+01  0.1121644E+06 -0.2319534E+01  0.2486445E+03  0.1506903E+01
