VARIABLES="w (rad/s)"
"abs(F   1   1)" "angle(F   1   1)"
"abs(F   1   2)" "angle(F   1   2)"
"abs(F   1   3)" "angle(F   1   3)"
Zone t="Diffraction force - beta =   0.000 deg",I=    64,F=POINT
  0.5000000E-01  0.2537787E+03 -0.1570796E+01  0.6866280E+02 -0.3106845E+01  0.2984492E+01 -0.1570795E+01
  0.8095238E-01  0.4146299E+03 -0.1570795E+01  0.1787480E+03 -0.3105710E+01  0.4854906E+01 -0.1570794E+01
  0.1119048E+00  0.5786498E+03 -0.1570794E+01  0.3405560E+03 -0.3104234E+01  0.6782300E+01 -0.1570792E+01
  0.1428571E+00  0.7515100E+03 -0.1570792E+01  0.5542504E+03 -0.3102288E+01  0.8838034E+01 -0.1570789E+01
  0.1738095E+00  0.9275742E+03 -0.1570789E+01  0.8208986E+03 -0.3099794E+01  0.1087542E+02 -0.1570785E+01
  0.2047619E+00  0.1118240E+04 -0.1570785E+01  0.1141420E+04 -0.3096629E+01  0.1314378E+02 -0.1570779E+01
  0.2357143E+00  0.1317005E+04 -0.1570779E+01  0.1516906E+04 -0.3092594E+01  0.1564788E+02 -0.1570772E+01
  0.2666667E+00  0.1531306E+04 -0.1570770E+01  0.1949848E+04 -0.3087662E+01  0.1817554E+02 -0.1570759E+01
  0.2976190E+00  0.1768534E+04 -0.1570757E+01  0.2440247E+04 -0.3081405E+01  0.2110954E+02 -0.1570743E+01
  0.3285715E+00  0.2025709E+04 -0.1570737E+01  0.2991242E+04 -0.3073857E+01  0.2446670E+02 -0.1570718E+01
  0.3595238E+00  0.2304237E+04 -0.1570707E+01  0.3601749E+04 -0.3064620E+01  0.2779728E+02 -0.1570679E+01
  0.3904762E+00  0.2619531E+04 -0.1570663E+01  0.4274942E+04 -0.3053592E+01  0.3180206E+02 -0.1570622E+01
  0.4214286E+00  0.2973057E+04 -0.1570597E+01  0.5002385E+04 -0.3041084E+01  0.3663200E+02 -0.1570539E+01
  0.4523810E+00  0.3350156E+04 -0.1570500E+01  0.5789617E+04 -0.3026541E+01  0.4182539E+02 -0.1570418E+01
  0.4833333E+00  0.3768956E+04 -0.1570364E+01  0.6627009E+04 -0.3011588E+01  0.4722230E+02 -0.1570246E+01
  0.5142857E+00  0.4234104E+04 -0.1570175E+01  0.7510286E+04 -0.2995214E+01  0.5419102E+02 -0.1570013E+01
  0.5452381E+00  0.4734366E+04 -0.1569921E+01  0.8441414E+04 -0.2978670E+01  0.6183184E+02 -0.1569706E+01
  0.5761905E+00  0.5242598E+04 -0.1569585E+01  0.9412766E+04 -0.2962117E+01  0.6783852E+02 -0.1569270E+01
  0.6071429E+00  0.5791473E+04 -0.1569148E+01  0.1042406E+05 -0.2944982E+01  0.7630153E+02 -0.1568736E+01
  0.6380953E+00  0.6386242E+04 -0.1568601E+01  0.1147820E+05 -0.2928521E+01  0.8543151E+02 -0.1568068E+01
  0.6690477E+00  0.7006981E+04 -0.1567916E+01  0.1256229E+05 -0.2911860E+01  0.9543251E+02 -0.1567242E+01
  0.7000000E+00  0.7639479E+04 -0.1567060E+01  0.1367713E+05 -0.2894921E+01  0.1055108E+03 -0.1566202E+01
  0.7309524E+00  0.8280566E+04 -0.1566009E+01  0.1482941E+05 -0.2878396E+01  0.1145746E+03 -0.1564879E+01
  0.7619048E+00  0.8959995E+04 -0.1564741E+01  0.1600737E+05 -0.2861852E+01  0.1250594E+03 -0.1563308E+01
  0.7928572E+00  0.9675463E+04 -0.1563226E+01  0.1720365E+05 -0.2845193E+01  0.1379693E+03 -0.1561513E+01
  0.8238096E+00  0.1042525E+05 -0.1561430E+01  0.1842155E+05 -0.2828638E+01  0.1522811E+03 -0.1559426E+01
  0.8547620E+00  0.1119103E+05 -0.1559309E+01  0.1965563E+05 -0.2812198E+01  0.1661867E+03 -0.1556909E+01
  0.8857143E+00  0.1195437E+05 -0.1556806E+01  0.2090109E+05 -0.2795858E+01  0.1785906E+03 -0.1553821E+01
  0.9166667E+00  0.1271764E+05 -0.1553877E+01  0.2215797E+05 -0.2779709E+01  0.1919635E+03 -0.1550252E+01
  0.9476191E+00  0.1352432E+05 -0.1550523E+01  0.2342263E+05 -0.2763772E+01  0.2081043E+03 -0.1546321E+01
  0.9785714E+00  0.1436494E+05 -0.1546700E+01  0.2468751E+05 -0.2747974E+01  0.2247865E+03 -0.1541826E+01
  0.1009524E+01  0.1523241E+05 -0.1542361E+01  0.2594843E+05 -0.2732328E+01  0.2422806E+03 -0.1536719E+01
  0.1040476E+01  0.1610945E+05 -0.1537441E+01  0.2719984E+05 -0.2716793E+01  0.2617872E+03 -0.1531090E+01
  0.1071429E+01  0.1700071E+05 -0.1531904E+01  0.2844622E+05 -0.2701573E+01  0.2830024E+03 -0.1524876E+01
  0.1102381E+01  0.1788577E+05 -0.1525671E+01  0.2968433E+05 -0.2686686E+01  0.3021697E+03 -0.1517582E+01
  0.1133333E+01  0.1875623E+05 -0.1518678E+01  0.3090811E+05 -0.2672060E+01  0.3196246E+03 -0.1509124E+01
  0.1164286E+01  0.1963021E+05 -0.1510928E+01  0.3211805E+05 -0.2657762E+01  0.3386115E+03 -0.1499922E+01
  0.1195238E+01  0.2051972E+05 -0.1502431E+01  0.3330536E+05 -0.2643626E+01  0.3604780E+03 -0.1490187E+01
  0.1226190E+01  0.2142538E+05 -0.1493171E+01  0.3447273E+05 -0.2629821E+01  0.3848387E+03 -0.1479899E+01
  0.1257143E+01  0.2231989E+05 -0.1483043E+01  0.3562517E+05 -0.2615985E+01  0.4099268E+03 -0.1468657E+01
  0.1288095E+01  0.2325156E+05 -0.1472218E+01  0.3673021E+05 -0.2603088E+01  0.4360118E+03 -0.1456634E+01
  0.1319048E+01  0.2413812E+05 -0.1460391E+01  0.3781391E+05 -0.2590114E+01  0.4608662E+03 -0.1443301E+01
  0.1350000E+01  0.2500072E+05 -0.1447626E+01  0.3886593E+05 -0.2577456E+01  0.4859582E+03 -0.1428903E+01
  0.1380952E+01  0.2580972E+05 -0.1433801E+01  0.3988385E+05 -0.2565118E+01  0.5105793E+03 -0.1413229E+01
  0.1411905E+01  0.2641887E+05 -0.1419006E+01  0.4084402E+05 -0.2552971E+01  0.5228967E+03 -0.1394275E+01
  0.1442857E+01  0.2712592E+05 -0.1403133E+01  0.4179684E+05 -0.2541401E+01  0.5471382E+03 -0.1376275E+01
  0.1473810E+01  0.2779598E+05 -0.1386406E+01  0.4271478E+05 -0.2530194E+01  0.5700381E+03 -0.1357103E+01
  0.1504762E+01  0.2842119E+05 -0.1368850E+01  0.4359277E+05 -0.2519243E+01  0.5934677E+03 -0.1337362E+01
  0.1535714E+01  0.2898699E+05 -0.1350443E+01  0.4442896E+05 -0.2508539E+01  0.6151636E+03 -0.1316447E+01
  0.1566667E+01  0.2948971E+05 -0.1331227E+01  0.4522222E+05 -0.2498098E+01  0.6372359E+03 -0.1294705E+01
  0.1597619E+01  0.2990293E+05 -0.1311088E+01  0.4597029E+05 -0.2487858E+01  0.6591342E+03 -0.1272193E+01
  0.1628572E+01  0.3023234E+05 -0.1290137E+01  0.4667651E+05 -0.2477993E+01  0.6803775E+03 -0.1249088E+01
  0.1659524E+01  0.3047036E+05 -0.1268405E+01  0.4733947E+05 -0.2468507E+01  0.7008865E+03 -0.1225487E+01
  0.1690476E+01  0.3061100E+05 -0.1246050E+01  0.4795793E+05 -0.2459371E+01  0.7185396E+03 -0.1201133E+01
  0.1721429E+01  0.3065014E+05 -0.1223172E+01  0.4852938E+05 -0.2450490E+01  0.7327132E+03 -0.1175611E+01
  0.1752381E+01  0.3057082E+05 -0.1199708E+01  0.4905316E+05 -0.2441851E+01  0.7419130E+03 -0.1148673E+01
  0.1783333E+01  0.3038134E+05 -0.1175825E+01  0.4952908E+05 -0.2433500E+01  0.7492317E+03 -0.1121303E+01
  0.1814286E+01  0.3007465E+05 -0.1151526E+01  0.4995536E+05 -0.2425352E+01  0.7547410E+03 -0.1093526E+01
  0.1845238E+01  0.2964173E+05 -0.1126748E+01  0.5033320E+05 -0.2417471E+01  0.7583054E+03 -0.1065652E+01
  0.1876190E+01  0.2909095E+05 -0.1101738E+01  0.5066469E+05 -0.2409947E+01  0.7594800E+03 -0.1038459E+01
  0.1907143E+01  0.2842345E+05 -0.1076652E+01  0.5094767E+05 -0.2402750E+01  0.7578933E+03 -0.1011424E+01
  0.1938095E+01  0.2763657E+05 -0.1051472E+01  0.5118117E+05 -0.2395864E+01  0.7519526E+03 -0.9841452E+00
  0.1969048E+01  0.2673381E+05 -0.1026245E+01  0.5136455E+05 -0.2389274E+01  0.7404021E+03 -0.9559227E+00
  0.2000000E+01  0.2571170E+05 -0.1000856E+01  0.5149763E+05 -0.2382925E+01  0.7246927E+03 -0.9269522E+00
