VARIABLES="w (rad/s)"
"abs(F   1   1)" "angle(F   1   1)"
"abs(F   1   2)" "angle(F   1   2)"
"abs(F   1   3)" "angle(F   1   3)"
Zone t="Diffraction force - beta =   0.000 deg",I=    64,F=POINT
  0.5000000E-01  0.2565341E+04 -0.1570809E+01  0.5286615E+06 -0.3565659E-04  0.1529254E+04 -0.1570820E+01
  0.8095238E-01  0.4185610E+04 -0.1570793E+01  0.5277179E+06 -0.9592502E-04  0.2490119E+04 -0.1570812E+01
  0.1119048E+00  0.5842476E+04 -0.1570796E+01  0.5263338E+06 -0.1904883E-03  0.3480534E+04 -0.1570804E+01
  0.1428571E+00  0.7554352E+04 -0.1570798E+01  0.5245067E+06 -0.3265803E-03  0.4516618E+04 -0.1570796E+01
  0.1738095E+00  0.9332666E+04 -0.1570791E+01  0.5222300E+06 -0.5152323E-03  0.5589870E+04 -0.1570793E+01
  0.2047619E+00  0.1120651E+05 -0.1570785E+01  0.5195002E+06 -0.7721695E-03  0.6739954E+04 -0.1570790E+01
  0.2357143E+00  0.1320085E+05 -0.1570782E+01  0.5163090E+06 -0.1120843E-02  0.7973461E+04 -0.1570780E+01
  0.2666667E+00  0.1532889E+05 -0.1570765E+01  0.5126426E+06 -0.1589771E-02  0.9294408E+04 -0.1570771E+01
  0.2976190E+00  0.1764193E+05 -0.1570748E+01  0.5085075E+06 -0.2226949E-02  0.1076089E+05 -0.1570753E+01
  0.3285715E+00  0.2017268E+05 -0.1570727E+01  0.5038855E+06 -0.3081532E-02  0.1238379E+05 -0.1570730E+01
  0.3595238E+00  0.2293030E+05 -0.1570693E+01  0.4987854E+06 -0.4230740E-02  0.1414496E+05 -0.1570697E+01
  0.3904762E+00  0.2597521E+05 -0.1570643E+01  0.4932055E+06 -0.5762341E-02  0.1613465E+05 -0.1570645E+01
  0.4214286E+00  0.2936103E+05 -0.1570568E+01  0.4872203E+06 -0.7730119E-02  0.1839763E+05 -0.1570570E+01
  0.4523810E+00  0.3305942E+05 -0.1570461E+01  0.4807866E+06 -0.1028366E-01  0.2086205E+05 -0.1570463E+01
  0.4833333E+00  0.3707322E+05 -0.1570312E+01  0.4739934E+06 -0.1335761E-01  0.2357915E+05 -0.1570313E+01
  0.5142857E+00  0.4143125E+05 -0.1570106E+01  0.4668927E+06 -0.1712461E-01  0.2660911E+05 -0.1570107E+01
  0.5452381E+00  0.4608604E+05 -0.1569833E+01  0.4595120E+06 -0.2152915E-01  0.2986457E+05 -0.1569834E+01
  0.5761905E+00  0.5099363E+05 -0.1569479E+01  0.4518400E+06 -0.2658138E-01  0.3332898E+05 -0.1569480E+01
  0.6071429E+00  0.5612519E+05 -0.1569027E+01  0.4439343E+06 -0.3242201E-01  0.3702193E+05 -0.1569028E+01
  0.6380953E+00  0.6147356E+05 -0.1568466E+01  0.4358011E+06 -0.3892231E-01  0.4097427E+05 -0.1568467E+01
  0.6690477E+00  0.6703782E+05 -0.1567778E+01  0.4275257E+06 -0.4621694E-01  0.4517630E+05 -0.1567778E+01
  0.7000000E+00  0.7276116E+05 -0.1566938E+01  0.4191128E+06 -0.5438192E-01  0.4953777E+05 -0.1566939E+01
  0.7309524E+00  0.7859680E+05 -0.1565936E+01  0.4105080E+06 -0.6335044E-01  0.5405750E+05 -0.1565937E+01
  0.7619048E+00  0.8455504E+05 -0.1564751E+01  0.4017906E+06 -0.7320735E-01  0.5879383E+05 -0.1564751E+01
  0.7928572E+00  0.9064417E+05 -0.1563365E+01  0.3930367E+06 -0.8400363E-01  0.6377779E+05 -0.1563367E+01
  0.8238096E+00  0.9682805E+05 -0.1561763E+01  0.3842830E+06 -0.9575971E-01  0.6894130E+05 -0.1561767E+01
  0.8547620E+00  0.1030852E+06 -0.1559932E+01  0.3755154E+06 -0.1084773E+00  0.7426356E+05 -0.1559938E+01
  0.8857143E+00  0.1093780E+06 -0.1557857E+01  0.3667275E+06 -0.1221578E+00  0.7973227E+05 -0.1557863E+01
  0.9166667E+00  0.1156699E+06 -0.1555534E+01  0.3579332E+06 -0.1368199E+00  0.8531649E+05 -0.1555538E+01
  0.9476191E+00  0.1219297E+06 -0.1552961E+01  0.3491989E+06 -0.1524942E+00  0.9101017E+05 -0.1552965E+01
  0.9785714E+00  0.1281520E+06 -0.1550148E+01  0.3405523E+06 -0.1691939E+00  0.9684523E+05 -0.1550157E+01
  0.1009524E+01  0.1343213E+06 -0.1547108E+01  0.3320201E+06 -0.1869374E+00  0.1028163E+06 -0.1547125E+01
  0.1040476E+01  0.1404098E+06 -0.1543863E+01  0.3236085E+06 -0.2057150E+00  0.1088762E+06 -0.1543890E+01
  0.1071429E+01  0.1463542E+06 -0.1540435E+01  0.3153448E+06 -0.2255194E+00  0.1149314E+06 -0.1540470E+01
  0.1102381E+01  0.1521064E+06 -0.1536858E+01  0.3071896E+06 -0.2463301E+00  0.1209644E+06 -0.1536893E+01
  0.1133333E+01  0.1576400E+06 -0.1533179E+01  0.2991440E+06 -0.2681260E+00  0.1269341E+06 -0.1533206E+01
  0.1164286E+01  0.1629039E+06 -0.1529463E+01  0.2912064E+06 -0.2909306E+00  0.1328402E+06 -0.1529477E+01
  0.1195238E+01  0.1678786E+06 -0.1525790E+01  0.2834044E+06 -0.3147536E+00  0.1386559E+06 -0.1525792E+01
  0.1226190E+01  0.1725241E+06 -0.1522251E+01  0.2757756E+06 -0.3396204E+00  0.1443272E+06 -0.1522247E+01
  0.1257143E+01  0.1768091E+06 -0.1518881E+01  0.2683222E+06 -0.3657770E+00  0.1498017E+06 -0.1518872E+01
  0.1288095E+01  0.1807136E+06 -0.1515936E+01  0.2610738E+06 -0.3924874E+00  0.1551003E+06 -0.1515918E+01
  0.1319048E+01  0.1842177E+06 -0.1513379E+01  0.2539904E+06 -0.4204344E+00  0.1601292E+06 -0.1513351E+01
  0.1350000E+01  0.1872810E+06 -0.1511376E+01  0.2470782E+06 -0.4493535E+00  0.1648834E+06 -0.1511337E+01
  0.1380952E+01  0.1899081E+06 -0.1510060E+01  0.2402946E+06 -0.4791754E+00  0.1693367E+06 -0.1510011E+01
  0.1411905E+01  0.1918200E+06 -0.1510093E+01  0.2349873E+06 -0.5031567E+00  0.1731378E+06 -0.1510036E+01
  0.1442857E+01  0.1935987E+06 -0.1510361E+01  0.2285641E+06 -0.5345477E+00  0.1769708E+06 -0.1510303E+01
  0.1473810E+01  0.1948999E+06 -0.1511636E+01  0.2223204E+06 -0.5668964E+00  0.1804586E+06 -0.1511565E+01
  0.1504762E+01  0.1957601E+06 -0.1514039E+01  0.2162356E+06 -0.6002124E+00  0.1835482E+06 -0.1513965E+01
  0.1535714E+01  0.1961748E+06 -0.1517684E+01  0.2103212E+06 -0.6344643E+00  0.1862558E+06 -0.1517604E+01
  0.1566667E+01  0.1961568E+06 -0.1522655E+01  0.2045725E+06 -0.6696585E+00  0.1885728E+06 -0.1522569E+01
  0.1597619E+01  0.1957380E+06 -0.1529059E+01  0.1989754E+06 -0.7057877E+00  0.1904990E+06 -0.1528972E+01
  0.1628572E+01  0.1949400E+06 -0.1536986E+01  0.1935502E+06 -0.7428585E+00  0.1920669E+06 -0.1536893E+01
  0.1659524E+01  0.1937969E+06 -0.1546482E+01  0.1882951E+06 -0.7809204E+00  0.1932650E+06 -0.1546394E+01
  0.1690476E+01  0.1923255E+06 -0.1557611E+01  0.1832056E+06 -0.8198771E+00  0.1941288E+06 -0.1557520E+01
  0.1721429E+01  0.1905650E+06 -0.1570416E+01  0.1782493E+06 -0.8597161E+00  0.1946571E+06 -0.1570336E+01
  0.1752381E+01  0.1885438E+06 -0.1584943E+01  0.1734045E+06 -0.9003950E+00  0.1948762E+06 -0.1584866E+01
  0.1783333E+01  0.1862851E+06 -0.1601195E+01  0.1686903E+06 -0.9419359E+00  0.1947912E+06 -0.1601126E+01
  0.1814286E+01  0.1838198E+06 -0.1619182E+01  0.1641062E+06 -0.9843583E+00  0.1944202E+06 -0.1619138E+01
  0.1845238E+01  0.1811763E+06 -0.1638924E+01  0.1596313E+06 -0.1027666E+01  0.1937878E+06 -0.1638914E+01
  0.1876190E+01  0.1783890E+06 -0.1660465E+01  0.1553084E+06 -0.1071960E+01  0.1929642E+06 -0.1660480E+01
  0.1907143E+01  0.1754938E+06 -0.1683772E+01  0.1511416E+06 -0.1117295E+01  0.1919548E+06 -0.1683826E+01
  0.1938095E+01  0.1725014E+06 -0.1708819E+01  0.1471015E+06 -0.1163515E+01  0.1907642E+06 -0.1708933E+01
  0.1969048E+01  0.1694340E+06 -0.1735561E+01  0.1431944E+06 -0.1210548E+01  0.1894016E+06 -0.1735773E+01
  0.2000000E+01  0.1663050E+06 -0.1764007E+01  0.1393735E+06 -0.1258507E+01  0.1878885E+06 -0.1764302E+01
