VARIABLES="w (rad/s)"
"abs(F   1   1)" "angle(F   1   1)"
"abs(F   1   2)" "angle(F   1   2)"
"abs(F   1   3)" "angle(F   1   3)"
Zone t="Diffraction force - beta =   0.000 deg",I=    64,F=POINT
  0.5000000E-01  0.8743873E+03 -0.1570795E+01  0.1203683E+03 -0.3109772E+01  0.1363745E+04  0.1570797E+01
  0.8095238E-01  0.1434973E+04 -0.1570793E+01  0.3132294E+03 -0.3108794E+01  0.2236159E+04  0.1570799E+01
  0.1119048E+00  0.2007411E+04 -0.1570789E+01  0.5955574E+03 -0.3107488E+01  0.3125583E+04  0.1570802E+01
  0.1428571E+00  0.2602528E+04 -0.1570784E+01  0.9678569E+03 -0.3105806E+01  0.4052323E+04  0.1570807E+01
  0.1738095E+00  0.3221047E+04 -0.1570776E+01  0.1431059E+04 -0.3103685E+01  0.5013667E+04  0.1570814E+01
  0.2047619E+00  0.3869358E+04 -0.1570764E+01  0.1983896E+04 -0.3100948E+01  0.6029627E+04  0.1570824E+01
  0.2357143E+00  0.4576318E+04 -0.1570747E+01  0.2626108E+04 -0.3097450E+01  0.7119574E+04  0.1570838E+01
  0.2666667E+00  0.5314170E+04 -0.1570722E+01  0.3364977E+04 -0.3093288E+01  0.8278260E+04  0.1570859E+01
  0.2976190E+00  0.6128656E+04 -0.1570685E+01  0.4184828E+04 -0.3087847E+01  0.9551845E+04  0.1570891E+01
  0.3285715E+00  0.7030769E+04 -0.1570630E+01  0.5106192E+04 -0.3081498E+01  0.1094794E+05  0.1570937E+01
  0.3595238E+00  0.8022029E+04 -0.1570547E+01  0.6099903E+04 -0.3073557E+01  0.1249287E+05  0.1571007E+01
  0.3904762E+00  0.9094190E+04 -0.1570423E+01  0.7188288E+04 -0.3064271E+01  0.1418573E+05  0.1571112E+01
  0.4214286E+00  0.1033590E+05 -0.1570243E+01  0.8340295E+04 -0.3053768E+01  0.1609794E+05  0.1571266E+01
  0.4523810E+00  0.1168202E+05 -0.1569978E+01  0.9556758E+04 -0.3041457E+01  0.1819151E+05  0.1571491E+01
  0.4833333E+00  0.1314551E+05 -0.1569609E+01  0.1084379E+05 -0.3029302E+01  0.2047592E+05  0.1571804E+01
  0.5142857E+00  0.1473714E+05 -0.1569096E+01  0.1213388E+05 -0.3015552E+01  0.2297636E+05  0.1572240E+01
  0.5452381E+00  0.1649530E+05 -0.1568415E+01  0.1350643E+05 -0.3002361E+01  0.2569468E+05  0.1572820E+01
  0.5761905E+00  0.1837533E+05 -0.1567530E+01  0.1485870E+05 -0.2988913E+01  0.2860130E+05  0.1573576E+01
  0.6071429E+00  0.2031121E+05 -0.1566378E+01  0.1622942E+05 -0.2975016E+01  0.3162511E+05  0.1574558E+01
  0.6380953E+00  0.2234347E+05 -0.1564939E+01  0.1768160E+05 -0.2962774E+01  0.3482006E+05  0.1575783E+01
  0.6690477E+00  0.2456750E+05 -0.1563168E+01  0.1903692E+05 -0.2949409E+01  0.3824148E+05  0.1577300E+01
  0.7000000E+00  0.2685741E+05 -0.1560982E+01  0.2041197E+05 -0.2936244E+01  0.4175502E+05  0.1579176E+01
  0.7309524E+00  0.2922792E+05 -0.1558338E+01  0.2184341E+05 -0.2924371E+01  0.4542575E+05  0.1581443E+01
  0.7619048E+00  0.3170476E+05 -0.1555169E+01  0.2318044E+05 -0.2911795E+01  0.4925077E+05  0.1584165E+01
  0.7928572E+00  0.3420532E+05 -0.1551383E+01  0.2448549E+05 -0.2899274E+01  0.5314240E+05  0.1587415E+01
  0.8238096E+00  0.3684669E+05 -0.1546953E+01  0.2580019E+05 -0.2887431E+01  0.5725325E+05  0.1591220E+01
  0.8547620E+00  0.3961500E+05 -0.1541814E+01  0.2712145E+05 -0.2876563E+01  0.6140620E+05  0.1595670E+01
  0.8857143E+00  0.4250775E+05 -0.1535887E+01  0.2826959E+05 -0.2864367E+01  0.6579823E+05  0.1600806E+01
  0.9166667E+00  0.4539052E+05 -0.1529034E+01  0.2940453E+05 -0.2852943E+01  0.7016180E+05  0.1606751E+01
  0.9476191E+00  0.4832389E+05 -0.1521205E+01  0.3051756E+05 -0.2842143E+01  0.7468472E+05  0.1613530E+01
  0.9785714E+00  0.5127870E+05 -0.1512316E+01  0.3162238E+05 -0.2832401E+01  0.7918605E+05  0.1621246E+01
  0.1009524E+01  0.5435225E+05 -0.1502390E+01  0.3254086E+05 -0.2821541E+01  0.8384045E+05  0.1629881E+01
  0.1040476E+01  0.5747749E+05 -0.1491378E+01  0.3339470E+05 -0.2810948E+01  0.8855763E+05  0.1639461E+01
  0.1071429E+01  0.6062755E+05 -0.1479197E+01  0.3419102E+05 -0.2800951E+01  0.9315588E+05  0.1650129E+01
  0.1102381E+01  0.6380914E+05 -0.1465752E+01  0.3496238E+05 -0.2791797E+01  0.9793906E+05  0.1661876E+01
  0.1133333E+01  0.6692415E+05 -0.1450942E+01  0.3570201E+05 -0.2783744E+01  0.1024891E+06  0.1674878E+01
  0.1164286E+01  0.7006388E+05 -0.1434833E+01  0.3620671E+05 -0.2774278E+01  0.1070805E+06  0.1689042E+01
  0.1195238E+01  0.7306466E+05 -0.1417228E+01  0.3665332E+05 -0.2765213E+01  0.1115660E+06  0.1704467E+01
  0.1226190E+01  0.7589482E+05 -0.1398131E+01  0.3703041E+05 -0.2756697E+01  0.1156883E+06  0.1721233E+01
  0.1257143E+01  0.7855320E+05 -0.1377523E+01  0.3736520E+05 -0.2748520E+01  0.1196941E+06  0.1739220E+01
  0.1288095E+01  0.8119945E+05 -0.1355892E+01  0.3765340E+05 -0.2741558E+01  0.1235588E+06  0.1758157E+01
  0.1319048E+01  0.8366153E+05 -0.1333233E+01  0.3784874E+05 -0.2734998E+01  0.1269404E+06  0.1778031E+01
  0.1350000E+01  0.8599680E+05 -0.1309451E+01  0.3781616E+05 -0.2727222E+01  0.1301541E+06  0.1798892E+01
  0.1380952E+01  0.8799356E+05 -0.1284234E+01  0.3774617E+05 -0.2720111E+01  0.1329678E+06  0.1820931E+01
  0.1411905E+01  0.8943529E+05 -0.1257303E+01  0.3760368E+05 -0.2713378E+01  0.1349947E+06  0.1844249E+01
  0.1442857E+01  0.9074484E+05 -0.1229759E+01  0.3741384E+05 -0.2707186E+01  0.1367790E+06  0.1868154E+01
  0.1473810E+01  0.9171114E+05 -0.1201339E+01  0.3718666E+05 -0.2701717E+01  0.1381069E+06  0.1892671E+01
  0.1504762E+01  0.9226477E+05 -0.1172439E+01  0.3692338E+05 -0.2697236E+01  0.1386582E+06  0.1917508E+01
  0.1535714E+01  0.9251259E+05 -0.1143413E+01  0.3647855E+05 -0.2692512E+01  0.1386865E+06  0.1942291E+01
  0.1566667E+01  0.9240062E+05 -0.1113911E+01  0.3591743E+05 -0.2687369E+01  0.1382976E+06  0.1967299E+01
  0.1597619E+01  0.9176520E+05 -0.1083811E+01  0.3532688E+05 -0.2682847E+01  0.1371786E+06  0.1992575E+01
  0.1628572E+01  0.9061055E+05 -0.1053511E+01  0.3468371E+05 -0.2678988E+01  0.1351870E+06  0.2017759E+01
  0.1659524E+01  0.8906389E+05 -0.1023294E+01  0.3399972E+05 -0.2675419E+01  0.1327278E+06  0.2042483E+01
  0.1690476E+01  0.8715407E+05 -0.9936056E+00  0.3329363E+05 -0.2672587E+01  0.1298488E+06  0.2066264E+01
  0.1721429E+01  0.8477849E+05 -0.9643451E+00  0.3256785E+05 -0.2670690E+01  0.1261942E+06  0.2089195E+01
  0.1752381E+01  0.8203294E+05 -0.9354989E+00  0.3182128E+05 -0.2669560E+01  0.1220230E+06  0.2111291E+01
  0.1783333E+01  0.7897513E+05 -0.9073922E+00  0.3089131E+05 -0.2668528E+01  0.1174172E+06  0.2132027E+01
  0.1814286E+01  0.7558025E+05 -0.8798849E+00  0.2994366E+05 -0.2667818E+01  0.1124561E+06  0.2151488E+01
  0.1845238E+01  0.7183021E+05 -0.8532165E+00  0.2899353E+05 -0.2667982E+01  0.1070185E+06  0.2169291E+01
  0.1876190E+01  0.6774024E+05 -0.8274684E+00  0.2803628E+05 -0.2669221E+01  0.1010485E+06  0.2185188E+01
  0.1907143E+01  0.6342403E+05 -0.8025556E+00  0.2706764E+05 -0.2670804E+01  0.9486263E+05  0.2199213E+01
  0.1938095E+01  0.5891020E+05 -0.7783670E+00  0.2610627E+05 -0.2673019E+01  0.8855859E+05  0.2211168E+01
  0.1969048E+01  0.5419439E+05 -0.7551567E+00  0.2515857E+05 -0.2676078E+01  0.8200409E+05  0.2220339E+01
  0.2000000E+01  0.4930178E+05 -0.7331285E+00  0.2423359E+05 -0.2679986E+01  0.7521471E+05  0.2225976E+01
