VARIABLES="w (rad/s)"
"abs(F   1   1)" "angle(F   1   1)"
"abs(F   1   2)" "angle(F   1   2)"
"abs(F   1   3)" "angle(F   1   3)"
Zone t="Diffraction force - beta =   0.000 deg",I=    64,F=POINT
  0.5000000E-01  0.3073684E+03 -0.1570771E+01  0.1046081E+06 -0.7159370E-05  0.3454305E+01 -0.1570895E+01
  0.8095238E-01  0.5009869E+03 -0.1570816E+01  0.1045107E+06 -0.1927631E-04  0.5626878E+01 -0.1570841E+01
  0.1119048E+00  0.6995322E+03 -0.1570815E+01  0.1043670E+06 -0.3832340E-04  0.7837421E+01 -0.1570821E+01
  0.1428571E+00  0.9045986E+03 -0.1570801E+01  0.1041772E+06 -0.6581825E-04  0.1016569E+02 -0.1570815E+01
  0.1738095E+00  0.1120474E+04 -0.1570782E+01  0.1039410E+06 -0.1040682E-03  0.1258015E+02 -0.1570825E+01
  0.2047619E+00  0.1346906E+04 -0.1570779E+01  0.1036580E+06 -0.1563561E-03  0.1520666E+02 -0.1570818E+01
  0.2357143E+00  0.1588362E+04 -0.1570804E+01  0.1033278E+06 -0.2276373E-03  0.1792657E+02 -0.1570797E+01
  0.2666667E+00  0.1850729E+04 -0.1570785E+01  0.1029497E+06 -0.3240538E-03  0.2097480E+02 -0.1570797E+01
  0.2976190E+00  0.2133092E+04 -0.1570786E+01  0.1025236E+06 -0.4557068E-03  0.2428173E+02 -0.1570799E+01
  0.3285715E+00  0.2443309E+04 -0.1570790E+01  0.1020483E+06 -0.6335588E-03  0.2786679E+02 -0.1570799E+01
  0.3595238E+00  0.2788288E+04 -0.1570783E+01  0.1015249E+06 -0.8742664E-03  0.3190568E+02 -0.1570794E+01
  0.3904762E+00  0.3169061E+04 -0.1570776E+01  0.1009524E+06 -0.1197373E-02  0.3648413E+02 -0.1570785E+01
  0.4214286E+00  0.3588783E+04 -0.1570764E+01  0.1003326E+06 -0.1616528E-02  0.4146186E+02 -0.1570769E+01
  0.4523810E+00  0.4054838E+04 -0.1570754E+01  0.9966541E+05 -0.2164675E-02  0.4707357E+02 -0.1570755E+01
  0.4833333E+00  0.4569664E+04 -0.1570729E+01  0.9895416E+05 -0.2832431E-02  0.5339331E+02 -0.1570737E+01
  0.5142857E+00  0.5124517E+04 -0.1570705E+01  0.9820040E+05 -0.3658004E-02  0.6028857E+02 -0.1570707E+01
  0.5452381E+00  0.5719561E+04 -0.1570666E+01  0.9740261E+05 -0.4635317E-02  0.6772962E+02 -0.1570671E+01
  0.5761905E+00  0.6359492E+04 -0.1570615E+01  0.9656547E+05 -0.5771516E-02  0.7580033E+02 -0.1570614E+01
  0.6071429E+00  0.7040145E+04 -0.1570550E+01  0.9569014E+05 -0.7100949E-02  0.8489773E+02 -0.1570550E+01
  0.6380953E+00  0.7752013E+04 -0.1570465E+01  0.9477395E+05 -0.8600640E-02  0.9407542E+02 -0.1570468E+01
  0.6690477E+00  0.8486925E+04 -0.1570361E+01  0.9382200E+05 -0.1030729E-01  0.1033206E+03 -0.1570364E+01
  0.7000000E+00  0.9259581E+04 -0.1570227E+01  0.9283514E+05 -0.1224451E-01  0.1137934E+03 -0.1570232E+01
  0.7309524E+00  0.1007150E+05 -0.1570068E+01  0.9181252E+05 -0.1440592E-01  0.1249205E+03 -0.1570069E+01
  0.7619048E+00  0.1091425E+05 -0.1569871E+01  0.9075937E+05 -0.1681785E-01  0.1365795E+03 -0.1569874E+01
  0.7928572E+00  0.1178069E+05 -0.1569633E+01  0.8967798E+05 -0.1949690E-01  0.1489285E+03 -0.1569635E+01
  0.8238096E+00  0.1266810E+05 -0.1569348E+01  0.8856663E+05 -0.2245433E-01  0.1612821E+03 -0.1569349E+01
  0.8547620E+00  0.1358019E+05 -0.1569010E+01  0.8742863E+05 -0.2570218E-01  0.1740500E+03 -0.1569011E+01
  0.8857143E+00  0.1452728E+05 -0.1568611E+01  0.8626764E+05 -0.2925481E-01  0.1879542E+03 -0.1568614E+01
  0.9166667E+00  0.1550585E+05 -0.1568145E+01  0.8508545E+05 -0.3312370E-01  0.2029179E+03 -0.1568146E+01
  0.9476191E+00  0.1651439E+05 -0.1567602E+01  0.8388386E+05 -0.3731867E-01  0.2188276E+03 -0.1567604E+01
  0.9785714E+00  0.1754602E+05 -0.1566975E+01  0.8266538E+05 -0.4185055E-01  0.2350602E+03 -0.1566976E+01
  0.1009524E+01  0.1859332E+05 -0.1566252E+01  0.8143209E+05 -0.4672889E-01  0.2512631E+03 -0.1566254E+01
  0.1040476E+01  0.1965008E+05 -0.1565426E+01  0.8018674E+05 -0.5196453E-01  0.2677356E+03 -0.1565427E+01
  0.1071429E+01  0.2073006E+05 -0.1564488E+01  0.7892780E+05 -0.5756455E-01  0.2855536E+03 -0.1564488E+01
  0.1102381E+01  0.2184134E+05 -0.1563428E+01  0.7765827E+05 -0.6353699E-01  0.3043906E+03 -0.1563431E+01
  0.1133333E+01  0.2297813E+05 -0.1562238E+01  0.7638326E+05 -0.6989033E-01  0.3239374E+03 -0.1562242E+01
  0.1164286E+01  0.2413687E+05 -0.1560904E+01  0.7510346E+05 -0.7663011E-01  0.3441340E+03 -0.1560909E+01
  0.1195238E+01  0.2531005E+05 -0.1559417E+01  0.7382305E+05 -0.8376367E-01  0.3654473E+03 -0.1559423E+01
  0.1226190E+01  0.2649842E+05 -0.1557767E+01  0.7253938E+05 -0.9129180E-01  0.3877614E+03 -0.1557774E+01
  0.1257143E+01  0.2768740E+05 -0.1555942E+01  0.7125641E+05 -0.9930479E-01  0.4103528E+03 -0.1555947E+01
  0.1288095E+01  0.2889902E+05 -0.1553933E+01  0.6997043E+05 -0.1075490E+00  0.4329014E+03 -0.1553932E+01
  0.1319048E+01  0.3010016E+05 -0.1551729E+01  0.6868889E+05 -0.1162892E+00  0.4553560E+03 -0.1551722E+01
  0.1350000E+01  0.3131412E+05 -0.1549330E+01  0.6741080E+05 -0.1254417E+00  0.4790569E+03 -0.1549326E+01
  0.1380952E+01  0.3253924E+05 -0.1546728E+01  0.6613884E+05 -0.1350102E+00  0.5043219E+03 -0.1546736E+01
  0.1411905E+01  0.3370982E+05 -0.1544027E+01  0.6488372E+05 -0.1449318E+00  0.5268969E+03 -0.1544053E+01
  0.1442857E+01  0.3495236E+05 -0.1541022E+01  0.6362691E+05 -0.1553377E+00  0.5543575E+03 -0.1541052E+01
  0.1473810E+01  0.3619368E+05 -0.1537801E+01  0.6237947E+05 -0.1661628E+00  0.5816993E+03 -0.1537833E+01
  0.1504762E+01  0.3742986E+05 -0.1534361E+01  0.6114342E+05 -0.1774090E+00  0.6097823E+03 -0.1534398E+01
  0.1535714E+01  0.3865538E+05 -0.1530699E+01  0.5991873E+05 -0.1890752E+00  0.6379981E+03 -0.1530740E+01
  0.1566667E+01  0.3986722E+05 -0.1526816E+01  0.5870626E+05 -0.2011645E+00  0.6667393E+03 -0.1526850E+01
  0.1597619E+01  0.4105017E+05 -0.1522713E+01  0.5750798E+05 -0.2136794E+00  0.6956592E+03 -0.1522723E+01
  0.1628572E+01  0.4221000E+05 -0.1518399E+01  0.5631984E+05 -0.2266147E+00  0.7246851E+03 -0.1518372E+01
  0.1659524E+01  0.4334436E+05 -0.1513886E+01  0.5514295E+05 -0.2399692E+00  0.7543122E+03 -0.1513822E+01
  0.1690476E+01  0.4445500E+05 -0.1509208E+01  0.5397810E+05 -0.2537486E+00  0.7842521E+03 -0.1509149E+01
  0.1721429E+01  0.4554205E+05 -0.1504390E+01  0.5282867E+05 -0.2679667E+00  0.8142240E+03 -0.1504336E+01
  0.1752381E+01  0.4659543E+05 -0.1499449E+01  0.5169534E+05 -0.2826177E+00  0.8441079E+03 -0.1499444E+01
  0.1783333E+01  0.4761382E+05 -0.1494408E+01  0.5057872E+05 -0.2976964E+00  0.8741757E+03 -0.1494446E+01
  0.1814286E+01  0.4859123E+05 -0.1489290E+01  0.4947975E+05 -0.3132064E+00  0.9045610E+03 -0.1489312E+01
  0.1845238E+01  0.4951674E+05 -0.1484116E+01  0.4839888E+05 -0.3291462E+00  0.9350515E+03 -0.1484099E+01
  0.1876190E+01  0.5039245E+05 -0.1478926E+01  0.4733299E+05 -0.3455068E+00  0.9655355E+03 -0.1478882E+01
  0.1907143E+01  0.5121425E+05 -0.1473750E+01  0.4628220E+05 -0.3622883E+00  0.9959288E+03 -0.1473660E+01
  0.1938095E+01  0.5197808E+05 -0.1468647E+01  0.4524702E+05 -0.3794892E+00  0.1025946E+04 -0.1468583E+01
  0.1969048E+01  0.5268462E+05 -0.1463683E+01  0.4422882E+05 -0.3971221E+00  0.1054647E+04 -0.1463617E+01
  0.2000000E+01  0.5332533E+05 -0.1458894E+01  0.4322902E+05 -0.4151785E+00  0.1082604E+04 -0.1458853E+01
