VARIABLES="w (rad/s)"
"A   1   1" "B   1   1"
"A   1   2" "B   1   2"
"A   1   3" "B   1   3"
Zone t="Motion of body    1 in DoF   1",I=    64,F=POINT
  0.5000000E-01  0.2897248E+06  0.7578646E-01  0.1037598E-01  0.7237296E-04 -0.9413140E+06 -0.2412403E+00
  0.8095238E-01  0.2914384E+06  0.3341451E+00 -0.5183500E-02  0.1431485E-03 -0.9461955E+06 -0.1063377E+01
  0.1119048E+00  0.2919502E+06  0.9360118E+00  0.7226822E-02  0.3028000E-03 -0.9480428E+06 -0.2978350E+01
  0.1428571E+00  0.2927603E+06  0.2103422E+01 -0.6835937E-02  0.1600944E-03 -0.9497156E+06 -0.6686282E+01
  0.1738095E+00  0.2933074E+06  0.4177458E+01  0.1202727E-01  0.5881563E-03 -0.9513989E+06 -0.1327117E+02
  0.2047619E+00  0.2941735E+06  0.7690290E+01 -0.2831747E-02  0.4391521E-03 -0.9529504E+06 -0.2440268E+02
  0.2357143E+00  0.2948332E+06  0.1350019E+02  0.2032655E-01  0.1075834E-02 -0.9555224E+06 -0.4281321E+02
  0.2666667E+00  0.2961375E+06  0.2295848E+02  0.1945495E-02  0.3981143E-03 -0.9584235E+06 -0.7269299E+02
  0.2976190E+00  0.2970723E+06  0.3835403E+02 -0.6152344E-02  0.8115172E-03 -0.9609988E+06 -0.1212905E+03
  0.3285715E+00  0.2984217E+06  0.6318791E+02  0.2294125E-01  0.3295541E-02 -0.9649681E+06 -0.1995545E+03
  0.3595238E+00  0.2998151E+06  0.1032855E+03 -0.1493946E-01  0.9272099E-03 -0.9684241E+06 -0.3256197E+03
  0.3904762E+00  0.3014814E+06  0.1675546E+03  0.1750667E-01  0.3046870E-02 -0.9723973E+06 -0.5271570E+03
  0.4214286E+00  0.3034162E+06  0.2682039E+03  0.1448292E-01  0.3533125E-02 -0.9779731E+06 -0.8422603E+03
  0.4523810E+00  0.3053607E+06  0.4255047E+03 -0.5936472E-02  0.2390862E-02 -0.9835566E+06 -0.1333760E+04
  0.4833333E+00  0.3083107E+06  0.6588259E+03  0.4924905E-02  0.5582333E-02 -0.9913710E+06 -0.2059810E+04
  0.5142857E+00  0.3107327E+06  0.1002555E+04 -0.3797743E-02  0.3773689E-02 -0.9979354E+06 -0.3126906E+04
  0.5452381E+00  0.3138993E+06  0.1489902E+04 -0.2462729E-02  0.5465508E-02 -0.1006519E+07 -0.4634519E+04
  0.5761905E+00  0.3168335E+06  0.2159845E+04  0.1377074E-01  0.9288788E-02 -0.1014783E+07 -0.6700644E+04
  0.6071429E+00  0.3203861E+06  0.3075713E+04 -0.6232766E-02  0.5535126E-02 -0.1023982E+07 -0.9511551E+04
  0.6380953E+00  0.3246958E+06  0.4285728E+04 -0.1530434E-02  0.7141113E-02 -0.1035475E+07 -0.1320878E+05
  0.6690477E+00  0.3284912E+06  0.5861935E+04  0.9122692E-02  0.1020813E-01 -0.1045605E+07 -0.1800580E+05
  0.7000000E+00  0.3325142E+06  0.7896050E+04 -0.4882812E-02  0.6622314E-02 -0.1057296E+07 -0.2418042E+05
  0.7309524E+00  0.3376000E+06  0.1047797E+05 -0.2772228E-01 -0.6393433E-02 -0.1070577E+07 -0.3195789E+05
  0.7619048E+00  0.3423507E+06  0.1370667E+05  0.1137543E-01  0.1708984E-01 -0.1082461E+07 -0.4162523E+05
  0.7928572E+00  0.3472991E+06  0.1771024E+05 -0.1077738E-01  0.1831055E-03 -0.1095621E+07 -0.5356314E+05
  0.8238096E+00  0.3521369E+06  0.2260433E+05 -0.2118943E-01 -0.6713867E-02 -0.1107014E+07 -0.6803158E+05
  0.8547620E+00  0.3574012E+06  0.2854142E+05 -0.9425595E-02  0.2288818E-02 -0.1121031E+07 -0.8553207E+05
  0.8857143E+00  0.3617899E+06  0.3560382E+05  0.3583354E-02  0.1383972E-01 -0.1131998E+07 -0.1062019E+06
  0.9166667E+00  0.3663271E+06  0.4395014E+05 -0.1305043E-01 -0.3356934E-03 -0.1143136E+07 -0.1304398E+06
  0.9476191E+00  0.3703483E+06  0.5367261E+05 -0.8759618E-02  0.7904053E-02 -0.1150738E+07 -0.1583249E+06
  0.9785714E+00  0.3744262E+06  0.6495541E+05 -0.5114479E-02  0.9796143E-02 -0.1159455E+07 -0.1905198E+06
  0.1009524E+01  0.3770025E+06  0.7774166E+05 -0.5804098E-02  0.8422852E-02 -0.1163410E+07 -0.2266554E+06
  0.1040476E+01  0.3784663E+06  0.9211078E+05 -0.7039295E-02 -0.1220703E-03 -0.1164273E+07 -0.2669062E+06
  0.1071429E+01  0.3788492E+06  0.1080500E+06 -0.6038412E-02  0.1306152E-01 -0.1162083E+07 -0.3111400E+06
  0.1102381E+01  0.3779198E+06  0.1254368E+06 -0.2214666E-02  0.8483887E-02 -0.1155624E+07 -0.3587908E+06
  0.1133333E+01  0.3759485E+06  0.1441638E+06 -0.6031710E-02  0.1293945E-01 -0.1146917E+07 -0.4096623E+06
  0.1164286E+01  0.3718133E+06  0.1637299E+06 -0.7234351E-02  0.1342773E-01 -0.1131165E+07 -0.4618208E+06
  0.1195238E+01  0.3658741E+06  0.1839655E+06 -0.3370308E-02  0.6408691E-02 -0.1110302E+07 -0.5148658E+06
  0.1226190E+01  0.3584574E+06  0.2046531E+06 -0.1553019E-01 -0.3356934E-02 -0.1086336E+07 -0.5684791E+06
  0.1257143E+01  0.3489306E+06  0.2250768E+06 -0.4175359E-02  0.2185059E-01 -0.1055692E+07 -0.6198921E+06
  0.1288095E+01  0.3388010E+06  0.2452744E+06 -0.1677395E-01  0.1049805E-01 -0.1024281E+07 -0.6698448E+06
  0.1319048E+01  0.3270099E+06  0.2644065E+06 -0.1267857E-01  0.1220703E-03 -0.9892938E+06 -0.7161170E+06
  0.1350000E+01  0.3137833E+06  0.2819029E+06 -0.6781684E-02  0.1184082E-01 -0.9500239E+06 -0.7563357E+06
  0.1380952E+01  0.2997802E+06  0.2977802E+06 -0.9900323E-02 -0.2319336E-02 -0.9095754E+06 -0.7913580E+06
  0.1411905E+01  0.2846980E+06  0.3111102E+06 -0.6570800E-02 -0.4638672E-02 -0.8685626E+06 -0.8198296E+06
  0.1442857E+01  0.2697740E+06  0.3226730E+06 -0.8291112E-02  0.9765625E-03 -0.8264151E+06 -0.8411209E+06
  0.1473810E+01  0.2553541E+06  0.3323390E+06  0.4969583E-03  0.2075195E-02 -0.7866513E+06 -0.8569328E+06
  0.1504762E+01  0.2414625E+06  0.3401682E+06 -0.9247985E-02  0.1708984E-02 -0.7498754E+06 -0.8683586E+06
  0.1535714E+01  0.2276279E+06  0.3454014E+06 -0.1335392E-01  0.5737305E-02 -0.7136488E+06 -0.8723509E+06
  0.1566667E+01  0.2141454E+06  0.3480948E+06  0.3895861E-03 -0.1000977E-01 -0.6785257E+06 -0.8685162E+06
  0.1597619E+01  0.2016207E+06  0.3492070E+06 -0.1084989E-01 -0.1135254E-01 -0.6471845E+06 -0.8613399E+06
  0.1628572E+01  0.1901634E+06  0.3489052E+06  0.1948842E-02 -0.5432129E-02 -0.6195919E+06 -0.8512124E+06
  0.1659524E+01  0.1793575E+06  0.3464033E+06  0.7355743E-03 -0.5004883E-02 -0.5930622E+06 -0.8335414E+06
  0.1690476E+01  0.1696803E+06  0.3428895E+06 -0.3754951E-02 -0.3723145E-02 -0.5700868E+06 -0.8138429E+06
  0.1721429E+01  0.1612262E+06  0.3388811E+06 -0.1155869E-01 -0.3967285E-02 -0.5510816E+06 -0.7941246E+06
  0.1752381E+01  0.1533447E+06  0.3335609E+06 -0.4179582E-02 -0.1141357E-01 -0.5341391E+06 -0.7720926E+06
  0.1783333E+01  0.1462903E+06  0.3272398E+06 -0.3148730E-02 -0.2929688E-02 -0.5193012E+06 -0.7471234E+06
  0.1814286E+01  0.1398588E+06  0.3196553E+06  0.4373386E-02 -0.4333496E-02 -0.5061149E+06 -0.7183415E+06
  0.1845238E+01  0.1342974E+06  0.3121232E+06 -0.2646169E-03 -0.2746582E-02 -0.4957478E+06 -0.6917646E+06
  0.1876190E+01  0.1295850E+06  0.3048107E+06 -0.3253143E-03 -0.5889893E-02 -0.4878942E+06 -0.6676227E+06
  0.1907143E+01  0.1253626E+06  0.2960664E+06 -0.1472159E-02 -0.2349854E-02 -0.4807667E+06 -0.6371782E+06
  0.1938095E+01  0.1218717E+06  0.2874458E+06  0.4156989E-02  0.5187988E-03 -0.4755371E+06 -0.6077284E+06
  0.1969048E+01  0.1190289E+06  0.2793292E+06  0.7749325E-02 -0.1281738E-02 -0.4721635E+06 -0.5811214E+06
  0.2000000E+01  0.1166954E+06  0.2716446E+06 -0.1220703E-02  0.1525879E-02 -0.4701446E+06 -0.5573497E+06
Zone t="Motion of body    1 in DoF   2",I=    64,F=POINT
  0.5000000E-01 -0.9765625E-02  0.5626678E-04  0.1554596E+06  0.3350750E+03  0.1098633E-01 -0.2441406E-03
  0.8095238E-01  0.1696418E-02 -0.1907349E-05  0.1532473E+06  0.5531675E+03  0.8595186E-01  0.3395081E-03
  0.1119048E+00 -0.7772243E-02  0.1220703E-03  0.1523195E+06  0.7869389E+03  0.1963514E-01  0.6637573E-03
  0.1428571E+00  0.6408691E-03 -0.3700256E-03  0.1515380E+06  0.1043914E+04 -0.4101562E-01  0.6866455E-04
  0.1738095E+00 -0.1229064E-01  0.4577637E-04  0.1510310E+06  0.1331504E+04  0.7304152E-01 -0.2899170E-03
  0.2047619E+00  0.4769259E-02 -0.6103516E-04  0.1509394E+06  0.1662470E+04 -0.1550009E-01 -0.6713867E-03
  0.2357143E+00 -0.2446955E-01 -0.7019043E-03  0.1505603E+06  0.2050679E+04  0.1139323E+00 -0.4119873E-03
  0.2666667E+00 -0.2746582E-02 -0.5340576E-04  0.1505287E+06  0.2503661E+04 -0.2288818E-01 -0.9155273E-03
  0.2976190E+00 -0.1968750E-01  0.6103516E-03  0.1503483E+06  0.3053829E+04  0.4921875E-01 -0.1831055E-03
  0.3285715E+00 -0.7616125E-02 -0.1831055E-03  0.1503428E+06  0.3701545E+04  0.3417968E-01  0.2746582E-02
  0.3595238E+00 -0.8488333E-02 -0.2441406E-03  0.1499788E+06  0.4481285E+04  0.3802773E-01  0.2014160E-02
  0.3904762E+00  0.1094167E-02  0.9155273E-04  0.1499426E+06  0.5397208E+04 -0.4876857E-01 -0.2990723E-02
  0.4214286E+00 -0.1375877E-01 -0.6103516E-04  0.1490116E+06  0.6420539E+04  0.2664857E-01  0.3662109E-02
  0.4523810E+00 -0.7015830E-02  0.2471924E-02  0.1486863E+06  0.7610277E+04  0.3993626E-01 -0.6469727E-02
  0.4833333E+00 -0.4167228E-02  0.7324219E-03  0.1471430E+06  0.8792618E+04  0.3333782E-01 -0.7324219E-03
  0.5142857E+00 -0.1412286E-01 -0.1708984E-02  0.1458542E+06  0.1005934E+05  0.5221897E-01  0.1379395E-01
  0.5452381E+00  0.1119422E-03 -0.2136230E-02  0.1443252E+06  0.1127872E+05 -0.1611968E-01  0.9765625E-03
  0.5761905E+00 -0.1652489E-01 -0.4150391E-02  0.1423950E+06  0.1241700E+05  0.2033832E-01  0.7812500E-02
  0.6071429E+00 -0.5428538E-02  0.1342773E-02  0.1409494E+06  0.1353561E+05  0.3538603E-01  0.9399414E-02
  0.6380953E+00 -0.2773911E-02  0.2746582E-02  0.1388896E+06  0.1446669E+05 -0.1683477E-01 -0.2807617E-02
  0.6690477E+00 -0.1587348E-01 -0.7934570E-03  0.1368901E+06  0.1529469E+05  0.4670818E-01  0.2197266E-01
  0.7000000E+00 -0.2162388E-01 -0.0000000E+00  0.1354111E+06  0.1602603E+05  0.4324776E-01  0.8300781E-02
  0.7309524E+00 -0.1586516E-01  0.1220703E-03  0.1334624E+06  0.1656881E+05  0.8149683E-01 -0.1464844E-02
  0.7619048E+00 -0.1642227E-01  0.6225586E-02  0.1315677E+06  0.1697848E+05  0.3460693E-01 -0.1782227E-01
  0.7928572E+00 -0.2802118E-01  0.7934570E-02  0.1301325E+06  0.1726764E+05  0.7267032E-01 -0.2612305E-01
  0.8238096E+00 -0.1348418E-01 -0.5859375E-02  0.1289883E+06  0.1738557E+05  0.4030437E-01  0.1098633E-02
  0.8547620E+00 -0.1720885E-01  0.1049805E-01  0.1272067E+06  0.1734089E+05  0.3541739E-01 -0.1977539E-01
  0.8857143E+00 -0.1157699E-01 -0.2441406E-02  0.1257634E+06  0.1716023E+05  0.8820564E-02  0.2197266E-02
  0.9166667E+00 -0.1201838E-01 -0.4272461E-02  0.1249491E+06  0.1691107E+05 -0.2130682E-02  0.1794434E-01
  0.9476191E+00 -0.1684294E-01 -0.7568359E-02  0.1244165E+06  0.1653286E+05  0.2370250E-01  0.2294922E-01
  0.9785714E+00 -0.1404922E-01 -0.1391602E-01  0.1231146E+06  0.1593518E+05  0.2894047E-01  0.9277344E-02
  0.1009524E+01 -0.1495613E-01 -0.8789062E-02  0.1222209E+06  0.1528253E+05  0.4353074E-01  0.2111816E-01
  0.1040476E+01 -0.2167516E-01 -0.1818848E-01  0.1216761E+06  0.1462106E+05  0.5725293E-01  0.6958008E-01
  0.1071429E+01 -0.1356862E-01 -0.2319336E-02  0.1215664E+06  0.1398682E+05  0.4101562E-01  0.2233887E-01
  0.1102381E+01 -0.2330936E-01 -0.6225586E-02  0.1214031E+06  0.1318727E+05  0.9301599E-01  0.5395508E-01
  0.1133333E+01 -0.1921261E-01 -0.9155273E-02  0.1208177E+06  0.1220155E+05  0.4308364E-01  0.1562500E-01
  0.1164286E+01 -0.1412795E-01 -0.1867676E-01  0.1205498E+06  0.1126173E+05  0.5368098E-01  0.4772949E-01
  0.1195238E+01 -0.1427274E-01 -0.1721191E-01  0.1205031E+06  0.1041606E+05  0.3104768E-01  0.4418945E-01
  0.1226190E+01 -0.1169742E-01 -0.1306152E-01  0.1207658E+06  0.9751648E+04  0.3185680E-01  0.5615234E-01
  0.1257143E+01 -0.1187064E-01 -0.8666992E-02  0.1212811E+06  0.9223396E+04  0.3495650E-01  0.3662109E-01
  0.1288095E+01 -0.1644226E-01 -0.2038574E-01  0.1211390E+06  0.8045774E+04  0.5458641E-01  0.5169678E-01
  0.1319048E+01 -0.1388164E-01 -0.1721191E-01  0.1212022E+06  0.7121355E+04  0.2369133E-01  0.4516602E-01
  0.1350000E+01 -0.1202619E-01 -0.1232910E-01  0.1213773E+06  0.6244637E+04  0.3255208E-01  0.4229736E-01
  0.1380952E+01 -0.1078428E-01 -0.1831055E-02  0.1216642E+06  0.5590736E+04  0.1838632E-01  0.2746582E-01
  0.1411905E+01 -0.9337452E-02 -0.1965332E-01  0.1220641E+06  0.5187040E+04  0.4219145E-01  0.6347656E-01
  0.1442857E+01 -0.9221748E-02 -0.1269531E-01  0.1225855E+06  0.4945988E+04  0.2978032E-01  0.4589844E-01
  0.1473810E+01 -0.6626111E-02 -0.2429199E-01  0.1229130E+06  0.4244068E+04  0.6626111E-02  0.4650879E-01
  0.1504762E+01 -0.8964055E-02 -0.1135254E-01  0.1231203E+06  0.3418501E+04  0.1557555E-01  0.4000854E-01
  0.1535714E+01 -0.9498773E-02 -0.1879883E-01  0.1234213E+06  0.2855328E+04  0.2543605E-01  0.4388428E-01
  0.1566667E+01 -0.1055778E-01 -0.2056885E-01  0.1237412E+06  0.2334154E+04  0.4488032E-01  0.5398560E-01
  0.1597619E+01 -0.5692370E-02 -0.1593018E-01  0.1240582E+06  0.2056884E+04  0.1589279E-01  0.5131531E-01
  0.1628572E+01 -0.7495545E-03 -0.1611328E-01  0.1243900E+06  0.1963639E+04  0.3597862E-02  0.3471375E-01
  0.1659524E+01 -0.4339889E-02 -0.1562500E-01  0.1247289E+06  0.1945724E+04  0.4236908E-01  0.3335571E-01
  0.1690476E+01 -0.1083159E-01 -0.1873779E-01  0.1250588E+06  0.1750439E+04  0.4390405E-01  0.4708862E-01
  0.1721429E+01 -0.3403786E-02 -0.1202393E-01  0.1253166E+06  0.1156595E+04  0.5672977E-02  0.3300476E-01
  0.1752381E+01  0.2159450E-02 -0.1165771E-01  0.1255671E+06  0.9590060E+03 -0.4458220E-02  0.3520966E-01
  0.1783333E+01 -0.1711266E-03 -0.1153564E-01  0.1258083E+06  0.7909573E+03  0.1752337E-01  0.3078461E-01
  0.1814286E+01 -0.3700557E-02 -0.1702881E-01  0.1260396E+06  0.6331387E+03  0.1399483E-01  0.3771973E-01
  0.1845238E+01 -0.2910786E-02 -0.1577759E-01  0.1262340E+06  0.6162301E+03  0.1587702E-01  0.3421021E-01
  0.1876190E+01 -0.7807543E-03 -0.1229858E-01  0.1264148E+06  0.6662028E+03  0.1769710E-01  0.2728271E-01
  0.1907143E+01 -0.5024543E-02 -0.1272583E-01  0.1266031E+06  0.6476478E+03  0.3686798E-01  0.2860260E-01
  0.1938095E+01 -0.7117269E-02 -0.1370239E-01  0.1267942E+06  0.5677577E+03  0.3930244E-01  0.2970886E-01
  0.1969048E+01  0.8059298E-03 -0.1351929E-01  0.1269924E+06  0.4134770E+03 -0.4463611E-01  0.2742004E-01
  0.2000000E+01  0.2868652E-02 -0.1119995E-01  0.1271316E+06  0.2872265E+03 -0.5859375E-02  0.2500916E-01
Zone t="Motion of body    1 in DoF   3",I=    64,F=POINT
  0.5000000E-01 -0.9431190E+06 -0.2417709E+00  0.8630753E-02 -0.1832242E-03  0.3797296E+07  0.7703390E+00
  0.8095238E-01 -0.9483047E+06 -0.1065412E+01  0.1126233E-01 -0.7256502E-03  0.3809206E+07  0.3391061E+01
  0.1119048E+00 -0.9501212E+06 -0.2982810E+01  0.2353830E-01 -0.2796054E-03  0.3815451E+07  0.9490692E+01
  0.1428571E+00 -0.9518878E+06 -0.6699255E+01  0.2715683E-01 -0.1160413E-02  0.3819476E+07  0.2129707E+02
  0.1738095E+00 -0.9534888E+06 -0.1329506E+02 -0.7357924E-01 -0.3405869E-02  0.3822898E+07  0.4223914E+02
  0.2047619E+00 -0.9549798E+06 -0.2445437E+02  0.2306384E-01 -0.2009660E-02  0.3826716E+07  0.7760464E+02
  0.2357143E+00 -0.9576729E+06 -0.4288794E+02 -0.7604656E-01 -0.5449772E-02  0.3835379E+07  0.1360158E+03
  0.2666667E+00 -0.9605198E+06 -0.7284285E+02  0.1419497E+00  0.1519144E-02  0.3841762E+07  0.2306400E+03
  0.2976190E+00 -0.9631821E+06 -0.1215279E+03  0.7569946E-01  0.6538630E-03  0.3849802E+07  0.3843179E+03
  0.3285715E+00 -0.9670632E+06 -0.1999094E+03 -0.2568120E-01 -0.7770300E-02  0.3860368E+07  0.6313344E+03
  0.3595238E+00 -0.9705858E+06 -0.3262291E+03  0.9969547E-01 -0.4690647E-02  0.3869516E+07  0.1028469E+04
  0.3904762E+00 -0.9743989E+06 -0.5282607E+03 -0.1603736E+00 -0.2181387E-01  0.3879467E+07  0.1662009E+04
  0.4214286E+00 -0.9801609E+06 -0.8438681E+03 -0.1234669E-01 -0.7859230E-02  0.3894971E+07  0.2650033E+04
  0.4523810E+00 -0.9855637E+06 -0.1336115E+04  0.9636647E-01 -0.4816055E-03  0.3912081E+07  0.4188146E+04
  0.4833333E+00 -0.9936074E+06 -0.2063704E+04 -0.5300587E-01 -0.2217102E-01  0.3932218E+07  0.6452129E+04
  0.5142857E+00 -0.1000192E+07 -0.3132678E+04 -0.5319808E-01 -0.1927567E-01  0.3952298E+07  0.9770582E+04
  0.5452381E+00 -0.1008699E+07 -0.4643244E+04  0.4029920E-01 -0.1963806E-01  0.3974258E+07  0.1444338E+05
  0.5761905E+00 -0.1017008E+07 -0.6711597E+04 -0.7965844E-01 -0.4745483E-01  0.3996910E+07  0.2082171E+05
  0.6071429E+00 -0.1026123E+07 -0.9529216E+04  0.3518497E-03 -0.3894806E-01  0.4023200E+07  0.2946970E+05
  0.6380953E+00 -0.1037751E+07 -0.1323448E+05  0.2171303E-01 -0.1989746E-01  0.4053314E+07  0.4078896E+05
  0.6690477E+00 -0.1047935E+07 -0.1803944E+05 -0.4086966E-01 -0.5107117E-01  0.4080518E+07  0.5541069E+05
  0.7000000E+00 -0.1059482E+07 -0.2421357E+05  0.1325335E-01 -0.3482056E-01  0.4115440E+07  0.7415170E+05
  0.7309524E+00 -0.1072790E+07 -0.3200472E+05  0.1255853E+00  0.7690430E-02  0.4148908E+07  0.9761285E+05
  0.7619048E+00 -0.1084755E+07 -0.4169356E+05  0.2451324E-01 -0.8117676E-02  0.4178594E+07  0.1266161E+06
  0.7928572E+00 -0.1098018E+07 -0.5364317E+05 -0.3302496E-01 -0.5108643E-01  0.4216253E+07  0.1622407E+06
  0.8238096E+00 -0.1109149E+07 -0.6815583E+05  0.1192091E+00  0.5480957E-01  0.4242278E+07  0.2051265E+06
  0.8547620E+00 -0.1123382E+07 -0.8565611E+05  0.1356714E-01 -0.4089355E-02  0.4278710E+07  0.2566903E+06
  0.8857143E+00 -0.1134292E+07 -0.1063229E+06 -0.3610919E-01 -0.7989502E-01  0.4304484E+07  0.3171439E+06
  0.9166667E+00 -0.1145455E+07 -0.1305554E+06 -0.6418679E-01 -0.1140747E+00  0.4333860E+07  0.3874792E+06
  0.9476191E+00 -0.1152834E+07 -0.1585368E+06  0.3542493E-02 -0.6396484E-01  0.4345403E+07  0.4676513E+06
  0.9785714E+00 -0.1161774E+07 -0.1907692E+06  0.5738196E-02 -0.6481934E-01  0.4362044E+07  0.5595167E+06
  0.1009524E+01 -0.1165753E+07 -0.2269429E+06 -0.6293819E-01 -0.8081055E-01  0.4364114E+07  0.6616269E+06
  0.1040476E+01 -0.1166652E+07 -0.2672286E+06  0.2446155E-01 -0.3332520E-01  0.4359391E+07  0.7743347E+06
  0.1071429E+01 -0.1164338E+07 -0.3114592E+06  0.5166830E-01 -0.4492188E-01  0.4346074E+07  0.8969129E+06
  0.1102381E+01 -0.1157564E+07 -0.3591236E+06  0.1160485E+00  0.5346680E-01  0.4316621E+07  0.1027187E+07
  0.1133333E+01 -0.1149061E+07 -0.4098819E+06 -0.7970474E-02 -0.6372070E-01  0.4283002E+07  0.1164642E+07
  0.1164286E+01 -0.1133265E+07 -0.4619843E+06  0.2387860E-01 -0.5859375E-01  0.4227702E+07  0.1302951E+07
  0.1195238E+01 -0.1112427E+07 -0.5150856E+06  0.3183920E-01 -0.7568359E-02  0.4159912E+07  0.1441452E+07
  0.1226190E+01 -0.1088478E+07 -0.5686064E+06  0.6368248E-01 -0.3442383E-01  0.4087697E+07  0.1579579E+07
  0.1257143E+01 -0.1057382E+07 -0.6199089E+06  0.4716700E-01 -0.1977539E-01  0.3991452E+07  0.1707309E+07
  0.1288095E+01 -0.1026068E+07 -0.6698352E+06  0.8988752E-01  0.5029297E-01  0.3894951E+07  0.1828743E+07
  0.1319048E+01 -0.9913438E+06 -0.7159615E+06  0.6001496E-01  0.7324219E-02  0.3794302E+07  0.1938738E+07
  0.1350000E+01 -0.9520088E+06 -0.7560949E+06  0.1265914E-02 -0.4492188E-01  0.3679574E+07  0.2027914E+07
  0.1380952E+01 -0.9116712E+06 -0.7911942E+06  0.1054561E+00  0.1635742E-01  0.3566581E+07  0.2102054E+07
  0.1411905E+01 -0.8710186E+06 -0.8195001E+06  0.1270931E-01 -0.2392578E-01  0.3459491E+07  0.2159921E+07
  0.1442857E+01 -0.8285211E+06 -0.8406628E+06  0.9196366E-01  0.1855469E-01  0.3342159E+07  0.2191306E+07
  0.1473810E+01 -0.7885733E+06 -0.8563571E+06 -0.2484791E-01 -0.2905273E-01  0.3233638E+07  0.2207000E+07
  0.1504762E+01 -0.7522182E+06 -0.8677211E+06  0.2303884E-01  0.5615234E-02  0.3138307E+07  0.2213403E+07
  0.1535714E+01 -0.7162487E+06 -0.8715869E+06  0.1510265E-01  0.1220703E-01  0.3045658E+07  0.2199730E+07
  0.1566667E+01 -0.6810136E+06 -0.8676106E+06  0.4020528E-01  0.1147461E-01  0.2955211E+07  0.2161812E+07
  0.1597619E+01 -0.6498808E+06 -0.8606269E+06  0.4064887E-01  0.2563477E-01  0.2880775E+07  0.2120731E+07
  0.1628572E+01 -0.6225571E+06 -0.8506728E+06 -0.4347416E-02  0.1464844E-02  0.2820046E+07  0.2076231E+07
  0.1659524E+01 -0.5957669E+06 -0.8327974E+06  0.1618263E-01 -0.1098633E-02  0.2756325E+07  0.2003383E+07
  0.1690476E+01 -0.5725538E+06 -0.8127962E+06  0.2599582E-01  0.9765625E-02  0.2703168E+07  0.1926713E+07
  0.1721429E+01 -0.5538669E+06 -0.7930562E+06  0.8963304E-01  0.2075195E-02  0.2661448E+07  0.1851930E+07
  0.1752381E+01 -0.5372562E+06 -0.7713718E+06  0.4082058E-01  0.1074219E-01  0.2629065E+07  0.1780887E+07
  0.1783333E+01 -0.5226398E+06 -0.7463746E+06  0.3285631E-02  0.3417969E-02  0.2600058E+07  0.1697534E+07
  0.1814286E+01 -0.5093002E+06 -0.7173877E+06 -0.5786325E-01  0.5493164E-02  0.2575361E+07  0.1602960E+07
  0.1845238E+01 -0.4990291E+06 -0.6912679E+06  0.1653856E-01  0.2563477E-02  0.2560904E+07  0.1525770E+07
  0.1876190E+01 -0.4913512E+06 -0.6678084E+06  0.3838709E-01  0.1147461E-01  0.2554203E+07  0.1464056E+07
  0.1907143E+01 -0.4840978E+06 -0.6370819E+06  0.7143171E-01  0.5310059E-02  0.2545460E+07  0.1369499E+07
  0.1938095E+01 -0.4787370E+06 -0.6070468E+06 -0.3275203E-01  0.3906250E-02  0.2541461E+07  0.1278203E+07
  0.1969048E+01 -0.4755102E+06 -0.5804833E+06 -0.5083557E-02 -0.2929688E-02  0.2542684E+07  0.1198824E+07
  0.2000000E+01 -0.4738774E+06 -0.5572171E+06 -0.1013184E-01 -0.4821777E-02  0.2547262E+07  0.1133079E+07
