VARIABLES="w (rad/s)"
"abs(F   1   1)" "angle(F   1   1)"
"abs(F   1   2)" "angle(F   1   2)"
"abs(F   1   3)" "angle(F   1   3)"
Zone t="Diffraction force - beta =   0.000 deg",I=    64,F=POINT
  0.5000000E-01  0.3035786E+04 -0.1570811E+01  0.4816400E+06 -0.3296568E-04  0.7308095E+02 -0.1570607E+01
  0.8095238E-01  0.4953548E+04 -0.1570793E+01  0.4806737E+06 -0.8866306E-04  0.1190228E+03 -0.1570705E+01
  0.1119048E+00  0.6909871E+04 -0.1570794E+01  0.4792560E+06 -0.1760027E-03  0.1664756E+03 -0.1570713E+01
  0.1428571E+00  0.8944905E+04 -0.1570788E+01  0.4773858E+06 -0.3016466E-03  0.2165115E+03 -0.1570738E+01
  0.1738095E+00  0.1104951E+05 -0.1570786E+01  0.4750593E+06 -0.4756173E-03  0.2682736E+03 -0.1570733E+01
  0.2047619E+00  0.1328356E+05 -0.1570779E+01  0.4722725E+06 -0.7123994E-03  0.3240793E+03 -0.1570745E+01
  0.2357143E+00  0.1564959E+05 -0.1570771E+01  0.4690214E+06 -0.1033419E-02  0.3845913E+03 -0.1570746E+01
  0.2666667E+00  0.1818606E+05 -0.1570757E+01  0.4653001E+06 -0.1464494E-02  0.4488126E+03 -0.1570740E+01
  0.2976190E+00  0.2095777E+05 -0.1570738E+01  0.4611071E+06 -0.2049830E-02  0.5213461E+03 -0.1570720E+01
  0.3285715E+00  0.2396892E+05 -0.1570714E+01  0.4564407E+06 -0.2833611E-02  0.6015640E+03 -0.1570695E+01
  0.3595238E+00  0.2727629E+05 -0.1570669E+01  0.4513078E+06 -0.3886688E-02  0.6902326E+03 -0.1570656E+01
  0.3904762E+00  0.3095386E+05 -0.1570608E+01  0.4457129E+06 -0.5287628E-02  0.7919367E+03 -0.1570592E+01
  0.4214286E+00  0.3503140E+05 -0.1570519E+01  0.4397132E+06 -0.7085527E-02  0.9083257E+03 -0.1570503E+01
  0.4523810E+00  0.3945023E+05 -0.1570385E+01  0.4333005E+06 -0.9417805E-02  0.1029063E+04 -0.1570372E+01
  0.4833333E+00  0.4432356E+05 -0.1570197E+01  0.4265446E+06 -0.1221760E-01  0.1171987E+04 -0.1570189E+01
  0.5142857E+00  0.4964235E+05 -0.1569940E+01  0.4194821E+06 -0.1564639E-01  0.1329960E+04 -0.1569932E+01
  0.5452381E+00  0.5530538E+05 -0.1569595E+01  0.4121376E+06 -0.1964842E-01  0.1502902E+04 -0.1569587E+01
  0.5761905E+00  0.6124802E+05 -0.1569145E+01  0.4045335E+06 -0.2423022E-01  0.1681193E+04 -0.1569140E+01
  0.6071429E+00  0.6754897E+05 -0.1568566E+01  0.3967265E+06 -0.2952886E-01  0.1878485E+04 -0.1568563E+01
  0.6380953E+00  0.7419417E+05 -0.1567844E+01  0.3886852E+06 -0.3540464E-01  0.2100069E+04 -0.1567839E+01
  0.6690477E+00  0.8111134E+05 -0.1566946E+01  0.3804833E+06 -0.4198779E-01  0.2333591E+04 -0.1566942E+01
  0.7000000E+00  0.8818699E+05 -0.1565840E+01  0.3721663E+06 -0.4935419E-01  0.2568662E+04 -0.1565837E+01
  0.7309524E+00  0.9542688E+05 -0.1564507E+01  0.3636898E+06 -0.5743439E-01  0.2820949E+04 -0.1564504E+01
  0.7619048E+00  0.1029676E+06 -0.1562914E+01  0.3551146E+06 -0.6630594E-01  0.3096468E+04 -0.1562915E+01
  0.7928572E+00  0.1107420E+06 -0.1561026E+01  0.3464999E+06 -0.7600791E-01  0.3385701E+04 -0.1561028E+01
  0.8238096E+00  0.1186785E+06 -0.1558813E+01  0.3378652E+06 -0.8655360E-01  0.3696775E+04 -0.1558817E+01
  0.8547620E+00  0.1267483E+06 -0.1556240E+01  0.3291938E+06 -0.9794421E-01  0.4026327E+04 -0.1556243E+01
  0.8857143E+00  0.1348559E+06 -0.1553274E+01  0.3205247E+06 -0.1101949E+00  0.4350023E+04 -0.1553268E+01
  0.9166667E+00  0.1430038E+06 -0.1549890E+01  0.3118740E+06 -0.1233254E+00  0.4684711E+04 -0.1549885E+01
  0.9476191E+00  0.1512686E+06 -0.1546078E+01  0.3032994E+06 -0.1373629E+00  0.5048370E+04 -0.1546087E+01
  0.9785714E+00  0.1596432E+06 -0.1541821E+01  0.2947902E+06 -0.1522976E+00  0.5439893E+04 -0.1541850E+01
  0.1009524E+01  0.1680421E+06 -0.1537102E+01  0.2863679E+06 -0.1681338E+00  0.5839783E+04 -0.1537135E+01
  0.1040476E+01  0.1763766E+06 -0.1531909E+01  0.2780549E+06 -0.1848739E+00  0.6249068E+04 -0.1531947E+01
  0.1071429E+01  0.1845824E+06 -0.1526238E+01  0.2698627E+06 -0.2025230E+00  0.6666682E+04 -0.1526269E+01
  0.1102381E+01  0.1925317E+06 -0.1520096E+01  0.2617925E+06 -0.2210838E+00  0.7087884E+04 -0.1520085E+01
  0.1133333E+01  0.2002397E+06 -0.1513512E+01  0.2538387E+06 -0.2405467E+00  0.7516640E+04 -0.1513446E+01
  0.1164286E+01  0.2077100E+06 -0.1506571E+01  0.2459969E+06 -0.2609309E+00  0.7949311E+04 -0.1506503E+01
  0.1195238E+01  0.2149002E+06 -0.1499346E+01  0.2383165E+06 -0.2822472E+00  0.8387117E+04 -0.1499338E+01
  0.1226190E+01  0.2217365E+06 -0.1491904E+01  0.2307908E+06 -0.3044837E+00  0.8825039E+04 -0.1491935E+01
  0.1257143E+01  0.2280781E+06 -0.1484251E+01  0.2234580E+06 -0.3278381E+00  0.9263906E+04 -0.1484236E+01
  0.1288095E+01  0.2339850E+06 -0.1476673E+01  0.2162756E+06 -0.3517441E+00  0.9710106E+04 -0.1476612E+01
  0.1319048E+01  0.2393068E+06 -0.1469108E+01  0.2092481E+06 -0.3767329E+00  0.1014865E+05 -0.1469038E+01
  0.1350000E+01  0.2440501E+06 -0.1461814E+01  0.2023846E+06 -0.4026369E+00  0.1056588E+05 -0.1461751E+01
  0.1380952E+01  0.2481425E+06 -0.1454928E+01  0.1956855E+06 -0.4294157E+00  0.1095801E+05 -0.1454941E+01
  0.1411905E+01  0.2511249E+06 -0.1449144E+01  0.1892546E+06 -0.4566908E+00  0.1127648E+05 -0.1449183E+01
  0.1442857E+01  0.2538572E+06 -0.1443539E+01  0.1829327E+06 -0.4852960E+00  0.1163995E+05 -0.1443485E+01
  0.1473810E+01  0.2558837E+06 -0.1438786E+01  0.1767695E+06 -0.5148143E+00  0.1198805E+05 -0.1438691E+01
  0.1504762E+01  0.2572362E+06 -0.1435101E+01  0.1707637E+06 -0.5452483E+00  0.1231978E+05 -0.1434982E+01
  0.1535714E+01  0.2579110E+06 -0.1432624E+01  0.1649186E+06 -0.5765751E+00  0.1262279E+05 -0.1432527E+01
  0.1566667E+01  0.2579287E+06 -0.1431486E+01  0.1592405E+06 -0.6087918E+00  0.1289188E+05 -0.1431448E+01
  0.1597619E+01  0.2572896E+06 -0.1431802E+01  0.1537333E+06 -0.6419398E+00  0.1312430E+05 -0.1431747E+01
  0.1628572E+01  0.2560572E+06 -0.1433715E+01  0.1483856E+06 -0.6760116E+00  0.1333575E+05 -0.1433695E+01
  0.1659524E+01  0.2542799E+06 -0.1437336E+01  0.1432204E+06 -0.7109812E+00  0.1352813E+05 -0.1437321E+01
  0.1690476E+01  0.2519945E+06 -0.1442738E+01  0.1382053E+06 -0.7468765E+00  0.1369911E+05 -0.1442773E+01
  0.1721429E+01  0.2492504E+06 -0.1449997E+01  0.1333414E+06 -0.7837346E+00  0.1384544E+05 -0.1449959E+01
  0.1752381E+01  0.2461178E+06 -0.1459172E+01  0.1286118E+06 -0.8214870E+00  0.1396879E+05 -0.1459012E+01
  0.1783333E+01  0.2426467E+06 -0.1470290E+01  0.1240161E+06 -0.8601248E+00  0.1406397E+05 -0.1470002E+01
  0.1814286E+01  0.2388769E+06 -0.1483371E+01  0.1195624E+06 -0.8996592E+00  0.1413526E+05 -0.1483138E+01
  0.1845238E+01  0.2348498E+06 -0.1498432E+01  0.1152591E+06 -0.9401923E+00  0.1417794E+05 -0.1498497E+01
  0.1876190E+01  0.2306159E+06 -0.1515480E+01  0.1110916E+06 -0.9817009E+00  0.1420809E+05 -0.1515790E+01
  0.1907143E+01  0.2262261E+06 -0.1534500E+01  0.1070725E+06 -0.1024106E+01  0.1422742E+05 -0.1534889E+01
  0.1938095E+01  0.2217072E+06 -0.1555468E+01  0.1031895E+06 -0.1067467E+01  0.1423714E+05 -0.1555836E+01
  0.1969048E+01  0.2170951E+06 -0.1578366E+01  0.9941634E+05 -0.1111858E+01  0.1423709E+05 -0.1578658E+01
  0.2000000E+01  0.2124208E+06 -0.1603163E+01  0.9574843E+05 -0.1157262E+01  0.1422785E+05 -0.1603233E+01
