VARIABLES="w (rad/s)"
"abs(F   1   1)" "angle(F   1   1)"
"abs(F   1   2)" "angle(F   1   2)"
"abs(F   1   3)" "angle(F   1   3)"
Zone t="Diffraction force - beta =   0.000 deg",I=    64,F=POINT
  0.5000000E-01  0.2724476E+04 -0.1570790E+01  0.2444990E+06 -0.1654275E-04  0.4376291E+04  0.1570804E+01
  0.8095238E-01  0.4452070E+04 -0.1570796E+01  0.2438609E+06 -0.4446675E-04  0.7152604E+04  0.1570795E+01
  0.1119048E+00  0.6215910E+04 -0.1570795E+01  0.2429230E+06 -0.8818538E-04  0.9986479E+04  0.1570803E+01
  0.1428571E+00  0.8042839E+04 -0.1570789E+01  0.2416860E+06 -0.1510081E-03  0.1291938E+05  0.1570801E+01
  0.1738095E+00  0.9935396E+04 -0.1570789E+01  0.2401534E+06 -0.2377376E-03  0.1596225E+05  0.1570802E+01
  0.2047619E+00  0.1193667E+05 -0.1570782E+01  0.2383216E+06 -0.3555870E-03  0.1917646E+05  0.1570811E+01
  0.2357143E+00  0.1406315E+05 -0.1570775E+01  0.2361910E+06 -0.5149520E-03  0.2259245E+05  0.1570818E+01
  0.2666667E+00  0.1633079E+05 -0.1570763E+01  0.2337747E+06 -0.7281214E-03  0.2624625E+05  0.1570832E+01
  0.2976190E+00  0.1880537E+05 -0.1570747E+01  0.2310563E+06 -0.1017084E-02  0.3022530E+05  0.1570848E+01
  0.3285715E+00  0.2150070E+05 -0.1570722E+01  0.2280704E+06 -0.1402431E-02  0.3455367E+05  0.1570871E+01
  0.3595238E+00  0.2445868E+05 -0.1570684E+01  0.2247927E+06 -0.1919050E-02  0.3932242E+05  0.1570908E+01
  0.3904762E+00  0.2772256E+05 -0.1570629E+01  0.2212656E+06 -0.2603436E-02  0.4456969E+05  0.1570964E+01
  0.4214286E+00  0.3134905E+05 -0.1570549E+01  0.2174870E+06 -0.3479060E-02  0.5038973E+05  0.1571044E+01
  0.4523810E+00  0.3529963E+05 -0.1570429E+01  0.2134770E+06 -0.4614906E-02  0.5674955E+05  0.1571164E+01
  0.4833333E+00  0.3960289E+05 -0.1570263E+01  0.2092768E+06 -0.5969205E-02  0.6370433E+05  0.1571329E+01
  0.5142857E+00  0.4430874E+05 -0.1570033E+01  0.2048547E+06 -0.7626355E-02  0.7126166E+05  0.1571560E+01
  0.5452381E+00  0.4932098E+05 -0.1569726E+01  0.2003223E+06 -0.9555277E-02  0.7930745E+05  0.1571868E+01
  0.5761905E+00  0.5461888E+05 -0.1569324E+01  0.1955964E+06 -0.1175289E-01  0.8783777E+05  0.1572269E+01
  0.6071429E+00  0.6013631E+05 -0.1568805E+01  0.1907509E+06 -0.1429574E-01  0.9673652E+05  0.1572787E+01
  0.6380953E+00  0.6596014E+05 -0.1568157E+01  0.1858034E+06 -0.1710067E-01  0.1060866E+06  0.1573436E+01
  0.6690477E+00  0.7203977E+05 -0.1567351E+01  0.1807059E+06 -0.2023833E-01  0.1158343E+06  0.1574242E+01
  0.7000000E+00  0.7824855E+05 -0.1566355E+01  0.1755535E+06 -0.2374527E-01  0.1257667E+06  0.1575238E+01
  0.7309524E+00  0.8463785E+05 -0.1565152E+01  0.1703509E+06 -0.2758650E-01  0.1360476E+06  0.1576442E+01
  0.7619048E+00  0.9118357E+05 -0.1563706E+01  0.1650490E+06 -0.3179932E-01  0.1465722E+06  0.1577891E+01
  0.7928572E+00  0.9792578E+05 -0.1561988E+01  0.1596673E+06 -0.3639964E-01  0.1573718E+06  0.1579608E+01
  0.8238096E+00  0.1048078E+06 -0.1559964E+01  0.1543738E+06 -0.4139674E-01  0.1682861E+06  0.1581632E+01
  0.8547620E+00  0.1118026E+06 -0.1557600E+01  0.1490346E+06 -0.4679859E-01  0.1793948E+06  0.1583997E+01
  0.8857143E+00  0.1189101E+06 -0.1554858E+01  0.1436545E+06 -0.5261715E-01  0.1906834E+06  0.1586742E+01
  0.9166667E+00  0.1260235E+06 -0.1551704E+01  0.1382498E+06 -0.5885658E-01  0.2020174E+06  0.1589901E+01
  0.9476191E+00  0.1331344E+06 -0.1548108E+01  0.1330071E+06 -0.6549963E-01  0.2132670E+06  0.1593503E+01
  0.9785714E+00  0.1403015E+06 -0.1544050E+01  0.1277790E+06 -0.7259735E-01  0.2246098E+06  0.1597567E+01
  0.1009524E+01  0.1475742E+06 -0.1539531E+01  0.1225624E+06 -0.8014567E-01  0.2359145E+06  0.1602080E+01
  0.1040476E+01  0.1548250E+06 -0.1534485E+01  0.1173519E+06 -0.8818205E-01  0.2472359E+06  0.1607131E+01
  0.1071429E+01  0.1619080E+06 -0.1528898E+01  0.1123077E+06 -0.9655403E-01  0.2581228E+06  0.1612724E+01
  0.1102381E+01  0.1688986E+06 -0.1522746E+01  0.1073806E+06 -0.1053989E+00  0.2689159E+06  0.1618892E+01
  0.1133333E+01  0.1757029E+06 -0.1516026E+01  0.1025279E+06 -0.1147074E+00  0.2793395E+06  0.1625636E+01
  0.1164286E+01  0.1823116E+06 -0.1508738E+01  0.9773182E+05 -0.1245295E+00  0.2894005E+06  0.1632953E+01
  0.1195238E+01  0.1886870E+06 -0.1500907E+01  0.9299502E+05 -0.1349252E+00  0.2991192E+06  0.1640820E+01
  0.1226190E+01  0.1946813E+06 -0.1492603E+01  0.8840047E+05 -0.1456693E+00  0.3080817E+06  0.1649153E+01
  0.1257143E+01  0.2003194E+06 -0.1483960E+01  0.8403996E+05 -0.1566057E+00  0.3162076E+06  0.1657784E+01
  0.1288095E+01  0.2057837E+06 -0.1474932E+01  0.7977199E+05 -0.1680016E+00  0.3240802E+06  0.1666829E+01
  0.1319048E+01  0.2106534E+06 -0.1465530E+01  0.7560444E+05 -0.1799427E+00  0.3308735E+06  0.1676269E+01
  0.1350000E+01  0.2150773E+06 -0.1455855E+01  0.7153416E+05 -0.1924601E+00  0.3369318E+06  0.1685994E+01
  0.1380952E+01  0.2189714E+06 -0.1446003E+01  0.6755277E+05 -0.2056351E+00  0.3421698E+06  0.1695920E+01
  0.1411905E+01  0.2220523E+06 -0.1436109E+01  0.6372813E+05 -0.2190818E+00  0.3461311E+06  0.1705886E+01
  0.1442857E+01  0.2246419E+06 -0.1426530E+01  0.6014748E+05 -0.2319337E+00  0.3488885E+06  0.1715458E+01
  0.1473810E+01  0.2266954E+06 -0.1417208E+01  0.5668351E+05 -0.2453275E+00  0.3509073E+06  0.1724817E+01
  0.1504762E+01  0.2280384E+06 -0.1408242E+01  0.5333144E+05 -0.2591122E+00  0.3516834E+06  0.1733853E+01
  0.1535714E+01  0.2287151E+06 -0.1399798E+01  0.5008026E+05 -0.2734298E+00  0.3513519E+06  0.1742399E+01
  0.1566667E+01  0.2287463E+06 -0.1392032E+01  0.4694992E+05 -0.2882855E+00  0.3500023E+06  0.1750257E+01
  0.1597619E+01  0.2281180E+06 -0.1385114E+01  0.4392276E+05 -0.3039171E+00  0.3476542E+06  0.1757303E+01
  0.1628572E+01  0.2268370E+06 -0.1379354E+01  0.4103380E+05 -0.3193654E+00  0.3441592E+06  0.1763121E+01
  0.1659524E+01  0.2248662E+06 -0.1374760E+01  0.3833940E+05 -0.3331526E+00  0.3394005E+06  0.1767682E+01
  0.1690476E+01  0.2223867E+06 -0.1371304E+01  0.3576004E+05 -0.3473797E+00  0.3340500E+06  0.1771284E+01
  0.1721429E+01  0.2193637E+06 -0.1369255E+01  0.3329102E+05 -0.3616338E+00  0.3278328E+06  0.1773445E+01
  0.1752381E+01  0.2157924E+06 -0.1368819E+01  0.3091293E+05 -0.3762540E+00  0.3206952E+06  0.1773957E+01
  0.1783333E+01  0.2118424E+06 -0.1370017E+01  0.2862835E+05 -0.3912073E+00  0.3130212E+06  0.1772854E+01
  0.1814286E+01  0.2075098E+06 -0.1372872E+01  0.2644739E+05 -0.4066384E+00  0.3048197E+06  0.1770105E+01
  0.1845238E+01  0.2027693E+06 -0.1377437E+01  0.2436479E+05 -0.4230972E+00  0.2960857E+06  0.1765759E+01
  0.1876190E+01  0.1976842E+06 -0.1383915E+01  0.2237957E+05 -0.4396315E+00  0.2868187E+06  0.1759408E+01
  0.1907143E+01  0.1923010E+06 -0.1392524E+01  0.2050251E+05 -0.4532323E+00  0.2769873E+06  0.1750558E+01
  0.1938095E+01  0.1867499E+06 -0.1402980E+01  0.1872416E+05 -0.4675096E+00  0.2670836E+06  0.1740124E+01
  0.1969048E+01  0.1810111E+06 -0.1415437E+01  0.1703951E+05 -0.4824989E+00  0.2570013E+06  0.1727750E+01
  0.2000000E+01  0.1750987E+06 -0.1430141E+01  0.1543990E+05 -0.4989780E+00  0.2466788E+06  0.1712951E+01
