VARIABLES="w (rad/s)"
"abs(F   1   1)" "angle(F   1   1)"
"abs(F   1   2)" "angle(F   1   2)"
"abs(F   1   3)" "angle(F   1   3)"
Zone t="Diffraction force - beta =   0.000 deg",I=    64,F=POINT
  0.5000000E-01  0.1827513E+03 -0.1570769E+01  0.7387117E+05 -0.5075899E-05  0.1293021E+01 -0.1569764E+01
  0.8095238E-01  0.2981366E+03 -0.1570788E+01  0.7381321E+05 -0.1366750E-04  0.2106951E+01 -0.1570148E+01
  0.1119048E+00  0.4161055E+03 -0.1570793E+01  0.7372785E+05 -0.2717800E-04  0.2948120E+01 -0.1570307E+01
  0.1428571E+00  0.5390469E+03 -0.1570784E+01  0.7361500E+05 -0.4669208E-04  0.3829417E+01 -0.1570440E+01
  0.1738095E+00  0.6665302E+03 -0.1570799E+01  0.7347452E+05 -0.7385609E-04  0.4731157E+01 -0.1570517E+01
  0.2047619E+00  0.8025227E+03 -0.1570787E+01  0.7330618E+05 -0.1110112E-03  0.5692992E+01 -0.1570557E+01
  0.2357143E+00  0.9464941E+03 -0.1570790E+01  0.7310986E+05 -0.1617001E-03  0.6765332E+01 -0.1570598E+01
  0.2666667E+00  0.1101396E+04 -0.1570800E+01  0.7288512E+05 -0.2303325E-03  0.7868796E+01 -0.1570611E+01
  0.2976190E+00  0.1271795E+04 -0.1570794E+01  0.7263180E+05 -0.3241223E-03  0.9120452E+01 -0.1570646E+01
  0.3285715E+00  0.1457112E+04 -0.1570795E+01  0.7234958E+05 -0.4509737E-03  0.1052068E+02 -0.1570662E+01
  0.3595238E+00  0.1660869E+04 -0.1570784E+01  0.7203830E+05 -0.6228206E-03  0.1202722E+02 -0.1570669E+01
  0.3904762E+00  0.1889298E+04 -0.1570787E+01  0.7169799E+05 -0.8537633E-03  0.1372180E+02 -0.1570695E+01
  0.4214286E+00  0.2142486E+04 -0.1570777E+01  0.7132959E+05 -0.1153836E-02  0.1571343E+02 -0.1570691E+01
  0.4523810E+00  0.2420263E+04 -0.1570767E+01  0.7093240E+05 -0.1546675E-02  0.1786612E+02 -0.1570693E+01
  0.4833333E+00  0.2724620E+04 -0.1570757E+01  0.7050847E+05 -0.2026219E-02  0.2016426E+02 -0.1570690E+01
  0.5142857E+00  0.3059677E+04 -0.1570742E+01  0.7005786E+05 -0.2619945E-02  0.2282251E+02 -0.1570683E+01
  0.5452381E+00  0.3419906E+04 -0.1570716E+01  0.6958158E+05 -0.3324259E-02  0.2575422E+02 -0.1570667E+01
  0.5761905E+00  0.3799840E+04 -0.1570685E+01  0.6907991E+05 -0.4144665E-02  0.2888388E+02 -0.1570641E+01
  0.6071429E+00  0.4203666E+04 -0.1570646E+01  0.6855324E+05 -0.5106425E-02  0.3212635E+02 -0.1570606E+01
  0.6380953E+00  0.4632413E+04 -0.1570595E+01  0.6800241E+05 -0.6194410E-02  0.3575109E+02 -0.1570557E+01
  0.6690477E+00  0.5082984E+04 -0.1570532E+01  0.6742805E+05 -0.7435283E-02  0.3981810E+02 -0.1570498E+01
  0.7000000E+00  0.5549668E+04 -0.1570452E+01  0.6683135E+05 -0.8846678E-02  0.4376427E+02 -0.1570420E+01
  0.7309524E+00  0.6028911E+04 -0.1570351E+01  0.6621205E+05 -0.1042575E-01  0.4774541E+02 -0.1570321E+01
  0.7619048E+00  0.6530814E+04 -0.1570231E+01  0.6557105E+05 -0.1219256E-01  0.5229477E+02 -0.1570205E+01
  0.7928572E+00  0.7056469E+04 -0.1570085E+01  0.6491005E+05 -0.1416004E-01  0.5715771E+02 -0.1570062E+01
  0.8238096E+00  0.7600396E+04 -0.1569909E+01  0.6423075E+05 -0.1633845E-01  0.6223869E+02 -0.1569888E+01
  0.8547620E+00  0.8159602E+04 -0.1569701E+01  0.6353416E+05 -0.1873732E-01  0.6768891E+02 -0.1569681E+01
  0.8857143E+00  0.8731949E+04 -0.1569452E+01  0.6281942E+05 -0.2136744E-01  0.7319386E+02 -0.1569434E+01
  0.9166667E+00  0.9316044E+04 -0.1569163E+01  0.6208805E+05 -0.2423912E-01  0.7866233E+02 -0.1569146E+01
  0.9476191E+00  0.9919376E+04 -0.1568823E+01  0.6134243E+05 -0.2736297E-01  0.8453008E+02 -0.1568806E+01
  0.9785714E+00  0.1054243E+05 -0.1568430E+01  0.6058438E+05 -0.3074881E-01  0.9096375E+02 -0.1568417E+01
  0.1009524E+01  0.1118475E+05 -0.1567976E+01  0.5981385E+05 -0.3440483E-01  0.9787749E+02 -0.1567963E+01
  0.1040476E+01  0.1184379E+05 -0.1567457E+01  0.5903189E+05 -0.3833796E-01  0.1051541E+03 -0.1567445E+01
  0.1071429E+01  0.1251588E+05 -0.1566864E+01  0.5824025E+05 -0.4255714E-01  0.1126119E+03 -0.1566854E+01
  0.1102381E+01  0.1319708E+05 -0.1566190E+01  0.5743971E+05 -0.4706912E-01  0.1199883E+03 -0.1566178E+01
  0.1133333E+01  0.1388313E+05 -0.1565428E+01  0.5663260E+05 -0.5188259E-01  0.1274668E+03 -0.1565416E+01
  0.1164286E+01  0.1458202E+05 -0.1564571E+01  0.5581701E+05 -0.5700314E-01  0.1355818E+03 -0.1564560E+01
  0.1195238E+01  0.1530018E+05 -0.1563612E+01  0.5499498E+05 -0.6243587E-01  0.1442372E+03 -0.1563603E+01
  0.1226190E+01  0.1603464E+05 -0.1562543E+01  0.5416887E+05 -0.6818903E-01  0.1532127E+03 -0.1562539E+01
  0.1257143E+01  0.1677661E+05 -0.1561358E+01  0.5334250E+05 -0.7432841E-01  0.1623281E+03 -0.1561355E+01
  0.1288095E+01  0.1754069E+05 -0.1560045E+01  0.5251054E+05 -0.8067461E-01  0.1721936E+03 -0.1560044E+01
  0.1319048E+01  0.1830722E+05 -0.1558599E+01  0.5167990E+05 -0.8741543E-01  0.1825237E+03 -0.1558599E+01
  0.1350000E+01  0.1908332E+05 -0.1557009E+01  0.5084760E+05 -0.9448872E-01  0.1933358E+03 -0.1557010E+01
  0.1380952E+01  0.1986316E+05 -0.1555269E+01  0.5001358E+05 -0.1018914E+00  0.2040967E+03 -0.1555266E+01
  0.1411905E+01  0.2060374E+05 -0.1553441E+01  0.4918900E+05 -0.1095616E+00  0.2127649E+03 -0.1553430E+01
  0.1442857E+01  0.2138189E+05 -0.1551386E+01  0.4835883E+05 -0.1176510E+00  0.2233481E+03 -0.1551370E+01
  0.1473810E+01  0.2216869E+05 -0.1549164E+01  0.4753084E+05 -0.1260898E+00  0.2346020E+03 -0.1549154E+01
  0.1504762E+01  0.2296136E+05 -0.1546774E+01  0.4670799E+05 -0.1348857E+00  0.2466757E+03 -0.1546775E+01
  0.1535714E+01  0.2376112E+05 -0.1544210E+01  0.4588825E+05 -0.1440335E+00  0.2593000E+03 -0.1544234E+01
  0.1566667E+01  0.2456732E+05 -0.1541469E+01  0.4507295E+05 -0.1535339E+00  0.2725733E+03 -0.1541502E+01
  0.1597619E+01  0.2537347E+05 -0.1538546E+01  0.4426300E+05 -0.1633854E+00  0.2859231E+03 -0.1538579E+01
  0.1628572E+01  0.2617808E+05 -0.1535439E+01  0.4345982E+05 -0.1735931E+00  0.2995431E+03 -0.1535481E+01
  0.1659524E+01  0.2697661E+05 -0.1532144E+01  0.4266315E+05 -0.1841548E+00  0.3132893E+03 -0.1532190E+01
  0.1690476E+01  0.2776858E+05 -0.1528662E+01  0.4187316E+05 -0.1950697E+00  0.3274345E+03 -0.1528707E+01
  0.1721429E+01  0.2854832E+05 -0.1524993E+01  0.4109189E+05 -0.2063441E+00  0.3417501E+03 -0.1525022E+01
  0.1752381E+01  0.2931157E+05 -0.1521141E+01  0.4031754E+05 -0.2179705E+00  0.3560872E+03 -0.1521140E+01
  0.1783333E+01  0.3006026E+05 -0.1517112E+01  0.3954964E+05 -0.2299538E+00  0.3705525E+03 -0.1517063E+01
  0.1814286E+01  0.3079312E+05 -0.1512917E+01  0.3878841E+05 -0.2422908E+00  0.3853975E+03 -0.1512834E+01
  0.1845238E+01  0.3151185E+05 -0.1508588E+01  0.3803448E+05 -0.2549882E+00  0.4003655E+03 -0.1508513E+01
  0.1876190E+01  0.3221650E+05 -0.1504140E+01  0.3728992E+05 -0.2680531E+00  0.4153996E+03 -0.1504066E+01
  0.1907143E+01  0.3290173E+05 -0.1499588E+01  0.3655497E+05 -0.2814814E+00  0.4304843E+03 -0.1499564E+01
  0.1938095E+01  0.3356636E+05 -0.1494949E+01  0.3582952E+05 -0.2952701E+00  0.4456866E+03 -0.1494988E+01
  0.1969048E+01  0.3420813E+05 -0.1490242E+01  0.3511406E+05 -0.3094195E+00  0.4611038E+03 -0.1490278E+01
  0.2000000E+01  0.3481872E+05 -0.1485481E+01  0.3441070E+05 -0.3239395E+00  0.4767723E+03 -0.1485473E+01
