VARIABLES="w (rad/s)"
"A   1   1" "B   1   1"
"A   1   2" "B   1   2"
"A   1   3" "B   1   3"
Zone t="Motion of body    1 in DoF   1",I=    64,F=POINT
  0.5000000E-01  0.7672738E+05  0.3530875E-02 -0.6294250E-03  0.3946151E-05 -0.1527398E+06 -0.5884089E-02
  0.8095238E-01  0.7724663E+05  0.1534956E-01  0.3121881E-02  0.2228373E-04 -0.1535631E+06 -0.2532988E-01
  0.1119048E+00  0.7731699E+05  0.4308230E-01  0.4465631E-02 -0.8237112E-06 -0.1537164E+06 -0.7098764E-01
  0.1428571E+00  0.7746299E+05  0.9657606E-01 -0.4405975E-03  0.2058805E-04 -0.1538155E+06 -0.1583961E+00
  0.1738095E+00  0.7751039E+05  0.1922060E+00  0.6803748E-02  0.4955992E-04 -0.1538773E+06 -0.3150352E+00
  0.2047619E+00  0.7764548E+05  0.3546778E+00  0.2645448E-02  0.6686547E-05 -0.1539526E+06 -0.5805371E+00
  0.2357143E+00  0.7766761E+05  0.6233150E+00  0.4207727E-02  0.9760028E-04 -0.1540394E+06 -0.1018998E+01
  0.2666667E+00  0.7780066E+05  0.1061760E+01 -0.6308555E-02 -0.2370356E-04 -0.1541347E+06 -0.1731135E+01
  0.2976190E+00  0.7791835E+05  0.1777539E+01 -0.2537842E-02 -0.3839191E-04 -0.1542429E+06 -0.2890354E+01
  0.3285715E+00  0.7802565E+05  0.2935050E+01  0.5340576E-02  0.1629293E-03 -0.1543842E+06 -0.4760031E+01
  0.3595238E+00  0.7814103E+05  0.4808245E+01  0.2334291E-03  0.1160763E-03 -0.1545008E+06 -0.7774686E+01
  0.3904762E+00  0.7832359E+05  0.7820559E+01  0.3067574E-02  0.3011897E-05 -0.1546441E+06 -0.1259773E+02
  0.4214286E+00  0.7849600E+05  0.1254895E+02  0.1013804E-02  0.3158189E-03 -0.1548636E+06 -0.2013991E+02
  0.4523810E+00  0.7864705E+05  0.1995514E+02 -0.2023797E-03 -0.1517087E-03 -0.1550438E+06 -0.3191128E+02
  0.4833333E+00  0.7889681E+05  0.3095934E+02  0.9865596E-02  0.8191094E-03 -0.1552592E+06 -0.4927700E+02
  0.5142857E+00  0.7919887E+05  0.4725721E+02  0.4480150E-02  0.3379583E-03 -0.1555311E+06 -0.7485366E+02
  0.5452381E+00  0.7945623E+05  0.7037764E+02 -0.2406758E-02 -0.3572702E-03 -0.1558728E+06 -0.1109706E+03
  0.5761905E+00  0.7966249E+05  0.1022788E+03 -0.8341891E-02 -0.1120269E-03 -0.1561658E+06 -0.1605201E+03
  0.6071429E+00  0.8001570E+05  0.1460314E+03 -0.2839930E-02 -0.1080036E-03 -0.1564868E+06 -0.2278772E+03
  0.6380953E+00  0.8041722E+05  0.2039317E+03 -0.1506521E-01 -0.1793265E-02 -0.1568675E+06 -0.3162932E+03
  0.6690477E+00  0.8079434E+05  0.2798054E+03  0.1550858E-02  0.3249645E-03 -0.1573053E+06 -0.4314218E+03
  0.7000000E+00  0.8112738E+05  0.3779710E+03 -0.1214164E-01 -0.2077103E-02 -0.1577456E+06 -0.5794315E+03
  0.7309524E+00  0.8153694E+05  0.5027799E+03 -0.5636308E-02 -0.6682873E-03 -0.1582145E+06 -0.7658260E+03
  0.7619048E+00  0.8200518E+05  0.6601005E+03 -0.5347251E-02 -0.2697706E-02 -0.1586780E+06 -0.9983450E+03
  0.7928572E+00  0.8252771E+05  0.8563474E+03  0.9622659E-03 -0.1549006E-02 -0.1591795E+06 -0.1285462E+04
  0.8238096E+00  0.8307133E+05  0.1098371E+04  0.2741290E-02  0.8001328E-03 -0.1597148E+06 -0.1636080E+04
  0.8547620E+00  0.8356529E+05  0.1393143E+04 -0.1785151E-04  0.9446144E-03 -0.1602803E+06 -0.2059744E+04
  0.8857143E+00  0.8407342E+05  0.1749440E+04  0.5926317E-02  0.2898693E-02 -0.1608718E+06 -0.2566816E+04
  0.9166667E+00  0.8460646E+05  0.2176233E+04 -0.5126953E-02 -0.1099586E-02 -0.1614185E+06 -0.3166714E+04
  0.9476191E+00  0.8521848E+05  0.2684046E+04  0.9999490E-02  0.4282951E-02 -0.1619533E+06 -0.3870406E+04
  0.9785714E+00  0.8585519E+05  0.3283124E+04 -0.2744355E-02 -0.7839203E-03 -0.1625261E+06 -0.4690800E+04
  0.1009524E+01  0.8647055E+05  0.3983575E+04 -0.1964929E-03 -0.8773804E-03 -0.1630638E+06 -0.5637963E+04
  0.1040476E+01  0.8708177E+05  0.4796738E+04 -0.9004431E-02 -0.3643036E-03 -0.1635936E+06 -0.6723312E+04
  0.1071429E+01  0.8765569E+05  0.5732777E+04  0.2705892E-02  0.1117706E-02 -0.1640830E+06 -0.7956324E+04
  0.1102381E+01  0.8820199E+05  0.6801992E+04 -0.1688683E-02 -0.5149841E-04 -0.1645186E+06 -0.9344728E+04
  0.1133333E+01  0.8870527E+05  0.8013918E+04  0.1723346E-02  0.5874634E-03 -0.1649024E+06 -0.1089638E+05
  0.1164286E+01  0.8918902E+05  0.9377907E+04 -0.4036558E-02 -0.5424500E-02 -0.1651824E+06 -0.1261236E+05
  0.1195238E+01  0.8967061E+05  0.1090347E+05  0.5361853E-02  0.4119873E-02 -0.1653893E+06 -0.1449701E+05
  0.1226190E+01  0.9009125E+05  0.1259552E+05  0.2289707E-02  0.5329132E-02 -0.1654848E+06 -0.1654979E+05
  0.1257143E+01  0.9039683E+05  0.1445465E+05  0.1893477E-02  0.4600525E-02 -0.1654379E+06 -0.1876542E+05
  0.1288095E+01  0.9072993E+05  0.1649439E+05  0.3601187E-02  0.3623962E-02 -0.1653878E+06 -0.2114742E+05
  0.1319048E+01  0.9085931E+05  0.1869531E+05  0.2568104E-02  0.2952576E-02 -0.1651168E+06 -0.2366780E+05
  0.1350000E+01  0.9090560E+05  0.2106372E+05  0.4204644E-02  0.9025574E-02 -0.1647689E+06 -0.2632631E+05
  0.1380952E+01  0.9082662E+05  0.2358416E+05  0.4110402E-02  0.4096985E-02 -0.1642536E+06 -0.2908787E+05
  0.1411905E+01  0.9034577E+05  0.2608935E+05 -0.3847376E-02  0.3204346E-02 -0.1634388E+06 -0.3177851E+05
  0.1442857E+01  0.9000767E+05  0.2884727E+05 -0.2855357E-02 -0.3173828E-02 -0.1625847E+06 -0.3464352E+05
  0.1473810E+01  0.8955135E+05  0.3170174E+05  0.1656528E-03 -0.2471924E-02 -0.1615626E+06 -0.3751552E+05
  0.1504762E+01  0.8897347E+05  0.3463645E+05  0.1521050E-02 -0.1251221E-02 -0.1604378E+06 -0.4038525E+05
  0.1535714E+01  0.8822905E+05  0.3761314E+05  0.2921171E-02  0.9765625E-03 -0.1591200E+06 -0.4318807E+05
  0.1566667E+01  0.8739542E+05  0.4062070E+05 -0.4869826E-03  0.1312256E-02 -0.1577370E+06 -0.4591875E+05
  0.1597619E+01  0.8642436E+05  0.4361697E+05  0.4488949E-02  0.2639771E-02 -0.1562291E+06 -0.4852366E+05
  0.1628572E+01  0.8531871E+05  0.4656791E+05  0.5996436E-03 -0.2471924E-02 -0.1545975E+06 -0.5095858E+05
  0.1659524E+01  0.8412291E+05  0.4945202E+05  0.1783768E-02  0.4272461E-03 -0.1529179E+06 -0.5321455E+05
  0.1690476E+01  0.8282530E+05  0.5222458E+05  0.1841370E-02  0.1190186E-02 -0.1511358E+06 -0.5522243E+05
  0.1721429E+01  0.8146497E+05  0.5489324E+05 -0.5495697E-03  0.6774902E-02 -0.1493974E+06 -0.5705196E+05
  0.1752381E+01  0.7998895E+05  0.5738345E+05 -0.1741492E-04  0.1434326E-02 -0.1475382E+06 -0.5856048E+05
  0.1783333E+01  0.7848766E+05  0.5972732E+05 -0.1420351E-02 -0.4211426E-02 -0.1457450E+06 -0.5985622E+05
  0.1814286E+01  0.7696080E+05  0.6188373E+05 -0.3095011E-02 -0.1770020E-02 -0.1439575E+06 -0.6085123E+05
  0.1845238E+01  0.7540866E+05  0.6384665E+05  0.7194273E-02  0.4394531E-02 -0.1422160E+06 -0.6159091E+05
  0.1876190E+01  0.7383450E+05  0.6559463E+05  0.4619463E-02  0.1892090E-02 -0.1404928E+06 -0.6203194E+05
  0.1907143E+01  0.7228765E+05  0.6714602E+05  0.3232349E-02 -0.4058838E-02 -0.1388685E+06 -0.6223728E+05
  0.1938095E+01  0.7075466E+05  0.6847455E+05 -0.3149234E-04  0.2136230E-03 -0.1372940E+06 -0.6216172E+05
  0.1969048E+01  0.6925377E+05  0.6960894E+05  0.2138814E-02 -0.5340576E-02 -0.1358203E+06 -0.6186429E+05
  0.2000000E+01  0.6780286E+05  0.7056978E+05  0.2899170E-02 -0.5584717E-02 -0.1344864E+06 -0.6142944E+05
Zone t="Motion of body    1 in DoF   2",I=    64,F=POINT
  0.5000000E-01  0.1487732E-02  0.2729893E-04  0.2582117E+05  0.6009049E+02  0.5779266E-02 -0.2473593E-04
  0.8095238E-01 -0.4217485E-02  0.9536743E-05  0.2558004E+05  0.9968849E+02 -0.8387846E-02 -0.5471706E-04
  0.1119048E+00  0.5897359E-02  0.1549721E-05  0.2545495E+05  0.1428651E+03 -0.2249860E-01  0.1835823E-04
  0.1428571E+00 -0.2082825E-02  0.1621246E-04  0.2539358E+05  0.1913172E+03  0.2857208E-02  0.6151199E-04
  0.1738095E+00 -0.2172810E-02 -0.8916855E-04  0.2539132E+05  0.2471371E+03 -0.1558278E-02  0.9608269E-04
  0.2047619E+00  0.6706770E-03  0.7152557E-05  0.2542955E+05  0.3130055E+03  0.1019056E-01  0.1387596E-03
  0.2357143E+00  0.4142992E-02 -0.8249283E-04  0.2551094E+05  0.3926565E+03 -0.7153135E-02  0.8010864E-04
  0.2666667E+00 -0.2002716E-02  0.3623962E-04  0.2561268E+05  0.4893279E+03 -0.9756087E-02  0.1301765E-03
  0.2976190E+00 -0.1486816E-02 -0.2040863E-03  0.2573232E+05  0.6101210E+03 -0.1179199E-01  0.4496574E-03
  0.3285715E+00 -0.2275550E-02  0.1192093E-03  0.2589406E+05  0.7590037E+03 -0.1913319E-01 -0.5130768E-03
  0.3595238E+00 -0.1464237E-02  0.2717972E-03  0.2602684E+05  0.9447094E+03 -0.5687183E-02  0.1831055E-03
  0.3904762E+00  0.5275447E-02  0.4768372E-04  0.2615979E+05  0.1173952E+04 -0.9573959E-02  0.5846024E-03
  0.4214286E+00 -0.3331071E-02 -0.3757477E-03  0.2625058E+05  0.1445332E+04  0.8888890E-02 -0.2346039E-03
  0.4523810E+00 -0.4789653E-02 -0.8201599E-04  0.2632417E+05  0.1773034E+04  0.9984066E-02 -0.7915497E-03
  0.4833333E+00  0.3883099E-02 -0.2040863E-03  0.2630315E+05  0.2131835E+04 -0.6724390E-02  0.2460480E-03
  0.5142857E+00 -0.2195570E-02  0.1411438E-03  0.2622503E+05  0.2538596E+04  0.1305474E-02 -0.5855560E-03
  0.5452381E+00 -0.1763090E-02  0.3356934E-03  0.2611517E+05  0.2972633E+04  0.1816262E-01 -0.2479553E-03
  0.5761905E+00 -0.7706318E-02 -0.8697510E-03  0.2594255E+05  0.3427225E+04  0.3786954E-02  0.1491547E-02
  0.6071429E+00  0.5529067E-02 -0.3967285E-03  0.2570879E+05  0.3912585E+04  0.4749971E-02  0.2353668E-02
  0.6380953E+00  0.7413038E-03  0.3738403E-03  0.2545515E+05  0.4403493E+04 -0.1104782E-01 -0.6866455E-03
  0.6690477E+00 -0.2964875E-03  0.1571655E-02  0.2517209E+05  0.4909325E+04  0.3010488E-02 -0.6179810E-03
  0.7000000E+00  0.7280622E-02  0.8468628E-03  0.2485568E+05  0.5431702E+04  0.4316057E-02  0.3158569E-02
  0.7309524E+00  0.1356889E-02 -0.1388550E-02  0.2452415E+05  0.5957368E+04  0.1100124E-01  0.1235962E-02
  0.7619048E+00  0.1962662E-02  0.1266479E-02  0.2415399E+05  0.6488749E+04 -0.4005432E-04  0.1304626E-02
  0.7928572E+00  0.1635852E-02  0.6866455E-04  0.2375850E+05  0.7023044E+04 -0.6870579E-02 -0.7324219E-03
  0.8238096E+00  0.2630156E-02 -0.2464294E-02  0.2335400E+05  0.7555632E+04  0.1111334E-02 -0.2807617E-02
  0.8547620E+00  0.6069512E-03  0.1663208E-02  0.2293905E+05  0.8082282E+04  0.1428121E-03  0.3601074E-02
  0.8857143E+00  0.4134640E-02 -0.4119873E-03  0.2251441E+05  0.8600255E+04 -0.4117412E-02  0.6256104E-03
  0.9166667E+00 -0.5326705E-03  0.1983643E-03  0.2207659E+05  0.9107272E+04 -0.1065341E-02  0.2563477E-02
  0.9476191E+00  0.9983388E-03 -0.5493164E-03  0.2162410E+05  0.9600470E+04 -0.1740652E-01 -0.2944946E-02
  0.9785714E+00  0.1995894E-02 -0.1449585E-02  0.2116176E+05  0.1007608E+05  0.3960602E-02 -0.3479004E-02
  0.1009524E+01 -0.5713409E-02 -0.2426147E-02  0.2069591E+05  0.1053224E+05  0.8494539E-02  0.1693726E-02
  0.1040476E+01  0.9092423E-03  0.6713867E-03  0.2023596E+05  0.1096523E+05  0.1173216E-02  0.6179810E-02
  0.1071429E+01  0.5696615E-03  0.1129150E-02  0.1978122E+05  0.1137338E+05  0.6551107E-02 -0.2304077E-02
  0.1102381E+01 -0.1328800E-02  0.3738403E-02  0.1933479E+05  0.1175534E+05  0.1813258E-02  0.5950928E-03
  0.1133333E+01  0.5627800E-02  0.1220703E-02  0.1889034E+05  0.1211105E+05  0.3352446E-02 -0.1632690E-02
  0.1164286E+01  0.2437662E-02 -0.1693726E-02  0.1845154E+05  0.1243970E+05 -0.1311881E-01  0.7629395E-04
  0.1195238E+01  0.9702401E-03 -0.3051758E-03  0.1802003E+05  0.1273945E+05  0.1231950E-01 -0.1831055E-02
  0.1226190E+01  0.2787470E-02 -0.3967285E-03  0.1759691E+05  0.1300894E+05  0.6222030E-03 -0.5950928E-03
  0.1257143E+01  0.4223910E-02 -0.1068115E-02  0.1718678E+05  0.1325498E+05  0.6845647E-02 -0.5676270E-02
  0.1288095E+01  0.1089833E-02 -0.1647949E-02  0.1679706E+05  0.1345619E+05  0.7936826E-03 -0.1815796E-02
  0.1319048E+01  0.2776328E-02 -0.2471924E-02  0.1641688E+05  0.1363529E+05 -0.3759611E-02  0.3723145E-02
  0.1350000E+01  0.5380136E-02  0.2166748E-02  0.1605807E+05  0.1378210E+05 -0.9901258E-02 -0.3051758E-02
  0.1380952E+01 -0.4375590E-02 -0.2014160E-02  0.1571865E+05  0.1389806E+05  0.4839667E-02  0.4959106E-02
  0.1411905E+01 -0.2593737E-03 -0.1556396E-02  0.1541216E+05  0.1402220E+05  0.9510368E-03  0.2822876E-02
  0.1442857E+01  0.2390040E-02 -0.6713867E-03  0.1510457E+05  0.1408566E+05 -0.1512282E-02  0.6103516E-03
  0.1473810E+01 -0.5797846E-03 -0.7324219E-03  0.1481200E+05  0.1412372E+05  0.9939165E-03 -0.3845215E-02
  0.1504762E+01  0.3021820E-02 -0.1831055E-03  0.1453725E+05  0.1413722E+05 -0.3417293E-02 -0.4852295E-02
  0.1535714E+01 -0.2166038E-02  0.2075195E-02  0.1427471E+05  0.1412805E+05  0.5941701E-02  0.1586914E-02
  0.1566667E+01 -0.9739652E-03  0.2136230E-03  0.1403273E+05  0.1409182E+05 -0.1048961E-01  0.3112793E-02
  0.1597619E+01 -0.8882389E-03 -0.5187988E-03  0.1381135E+05  0.1403802E+05 -0.3390589E-02  0.6103516E-03
  0.1628572E+01 -0.5809048E-03 -0.9765625E-03  0.1360572E+05  0.1396413E+05 -0.3298040E-02 -0.1464844E-02
  0.1659524E+01  0.4303110E-02  0.1678467E-02  0.1342062E+05  0.1387087E+05 -0.1312081E-01  0.8544922E-03
  0.1690476E+01  0.2734977E-02  0.6103516E-03  0.1325278E+05  0.1376201E+05 -0.1725833E-01 -0.1525879E-03
  0.1721429E+01  0.1001635E-02 -0.1129150E-02  0.1310399E+05  0.1364093E+05  0.4715662E-02 -0.4852295E-02
  0.1752381E+01 -0.7314268E-03 -0.2441406E-03  0.1296443E+05  0.1350973E+05  0.4702029E-02  0.1007080E-02
  0.1783333E+01 -0.3585103E-02  0.1342773E-02  0.1284538E+05  0.1336904E+05  0.1146548E-02  0.5523682E-02
  0.1814286E+01 -0.2312848E-02 -0.1037598E-02  0.1274078E+05  0.1321468E+05  0.6248895E-02  0.2014160E-02
  0.1845238E+01 -0.3034825E-02 -0.2441406E-02  0.1265377E+05  0.1306181E+05  0.1586048E-01  0.5706787E-02
  0.1876190E+01  0.1821760E-02 -0.6103516E-04  0.1257763E+05  0.1290551E+05  0.3578457E-03 -0.3143311E-02
  0.1907143E+01 -0.1200130E-02 -0.1220703E-03  0.1251871E+05  0.1274735E+05  0.1760190E-02  0.1892090E-02
  0.1938095E+01 -0.4251466E-03 -0.4241943E-02  0.1247391E+05  0.1259183E+05  0.6030784E-02  0.1525879E-03
  0.1969048E+01 -0.2332547E-02 -0.9460449E-03  0.1244131E+05  0.1244047E+05 -0.6819406E-03  0.3967285E-03
  0.2000000E+01  0.2502441E-02 -0.1708984E-02  0.1242175E+05  0.1229977E+05  0.6187439E-02  0.2716064E-02
Zone t="Motion of body    1 in DoF   3",I=    64,F=POINT
  0.5000000E-01 -0.1515615E+06 -0.5713696E-02  0.6237030E-02 -0.7223802E-05  0.4734764E+06  0.9686227E-02
  0.8095238E-01 -0.1525798E+06 -0.2440060E-01 -0.1029632E-01 -0.2997986E-05  0.4745458E+06  0.4042075E-01
  0.1119048E+00 -0.1527516E+06 -0.6853805E-01 -0.1816932E-01 -0.7370884E-04  0.4746806E+06  0.1130776E+00
  0.1428571E+00 -0.1528767E+06 -0.1529109E+00 -0.1066780E-01 -0.5866453E-04  0.4747363E+06  0.2502059E+00
  0.1738095E+00 -0.1529281E+06 -0.3041894E+00 -0.2839467E-01 -0.2259652E-03  0.4748399E+06  0.4979461E+00
  0.2047619E+00 -0.1530218E+06 -0.5604863E+00  0.2761885E-01  0.3870884E-03  0.4748860E+06  0.9175424E+00
  0.2357143E+00 -0.1530847E+06 -0.9834516E+00  0.4620407E-02  0.1501385E-04  0.4750088E+06  0.1607827E+01
  0.2666667E+00 -0.1531848E+06 -0.1670469E+01 -0.2542019E-01 -0.4061903E-03  0.4751205E+06  0.2723605E+01
  0.2976190E+00 -0.1532910E+06 -0.2789382E+01 -0.4146423E-02 -0.4532095E-04  0.4752093E+06  0.4536372E+01
  0.3285715E+00 -0.1534190E+06 -0.4592664E+01 -0.2669707E-01 -0.5384274E-03  0.4753866E+06  0.7448052E+01
  0.3595238E+00 -0.1535165E+06 -0.7502784E+01 -0.4620836E-02 -0.4091896E-03  0.4755389E+06  0.1213116E+02
  0.3904762E+00 -0.1536690E+06 -0.1215907E+02  0.6066764E-02 -0.3594533E-03  0.4756540E+06  0.1958415E+02
  0.4214286E+00 -0.1538735E+06 -0.1943377E+02 -0.1938901E-01 -0.1390636E-02  0.4758811E+06  0.3118803E+02
  0.4523810E+00 -0.1540230E+06 -0.3078450E+02 -0.1202473E-01 -0.6946921E-03  0.4761474E+06  0.4923211E+02
  0.4833333E+00 -0.1542353E+06 -0.4755412E+02 -0.2372479E-01 -0.3135771E-02  0.4764137E+06  0.7569469E+02
  0.5142857E+00 -0.1545115E+06 -0.7226157E+02  0.3225857E-01  0.3977120E-02  0.4767037E+06  0.1144569E+03
  0.5452381E+00 -0.1548411E+06 -0.1070855E+03  0.1850545E-01  0.1137465E-02  0.4770651E+06  0.1688548E+03
  0.5761905E+00 -0.1550972E+06 -0.1548099E+03 -0.3092458E-01 -0.2502382E-02  0.4774089E+06  0.2429679E+03
  0.6071429E+00 -0.1554099E+06 -0.2198671E+03 -0.2632590E-02  0.8974075E-03  0.4778403E+06  0.3431300E+03
  0.6380953E+00 -0.1557954E+06 -0.3052796E+03  0.1065923E-01  0.3270507E-02  0.4782330E+06  0.4734880E+03
  0.6690477E+00 -0.1562192E+06 -0.4162951E+03  0.1664891E-01  0.1698852E-02  0.4787024E+06  0.6418795E+03
  0.7000000E+00 -0.1566224E+06 -0.5587698E+03  0.3858294E-01  0.7717133E-02  0.4792170E+06  0.8566393E+03
  0.7309524E+00 -0.1570674E+06 -0.7383555E+03  0.3341078E-01  0.7716179E-02  0.4797466E+06  0.1124651E+04
  0.7619048E+00 -0.1575163E+06 -0.9627324E+03  0.2041769E-01  0.2588272E-02  0.4802823E+06  0.1456018E+04
  0.7928572E+00 -0.1580100E+06 -0.1239954E+04  0.2350816E-01  0.6023407E-02  0.4808328E+06  0.1861230E+04
  0.8238096E+00 -0.1585358E+06 -0.1578328E+04 -0.6362386E-02 -0.1257420E-02  0.4813630E+06  0.2350931E+04
  0.8547620E+00 -0.1590683E+06 -0.1985980E+04 -0.2627742E-01 -0.1014709E-01  0.4819363E+06  0.2936201E+04
  0.8857143E+00 -0.1596206E+06 -0.2473265E+04 -0.2792604E-01 -0.1527119E-01  0.4825250E+06  0.3628836E+04
  0.9166667E+00 -0.1601322E+06 -0.3050723E+04 -0.1766135E-01 -0.1039124E-01  0.4831039E+06  0.4439131E+04
  0.9476191E+00 -0.1606571E+06 -0.3730037E+04 -0.4822621E-02 -0.4316330E-02  0.4836248E+06  0.5378390E+04
  0.9785714E+00 -0.1612221E+06 -0.4521284E+04 -0.2229788E-02 -0.4444122E-03  0.4841378E+06  0.6459206E+04
  0.1009524E+01 -0.1617440E+06 -0.5434197E+04  0.2977623E-02  0.2536774E-03  0.4845889E+06  0.7690165E+04
  0.1040476E+01 -0.1622522E+06 -0.6479091E+04 -0.3563643E-02  0.2014160E-02  0.4849885E+06  0.9080435E+04
  0.1071429E+01 -0.1627121E+06 -0.7664521E+04  0.3157349E-01  0.1534653E-01  0.4853253E+06  0.1063646E+05
  0.1102381E+01 -0.1631167E+06 -0.8998143E+04 -0.8083533E-02 -0.6855011E-02  0.4855413E+06  0.1236128E+05
  0.1133333E+01 -0.1634687E+06 -0.1048719E+05 -0.6745283E-02 -0.7907867E-02  0.4857195E+06  0.1425838E+05
  0.1164286E+01 -0.1637325E+06 -0.1213838E+05 -0.3289533E-02 -0.9147644E-02  0.4857884E+06  0.1632262E+05
  0.1195238E+01 -0.1639385E+06 -0.1395454E+05 -0.5246956E-02 -0.6851196E-02  0.4857106E+06  0.1854905E+05
  0.1226190E+01 -0.1640387E+06 -0.1593355E+05 -0.1840477E-01 -0.2036285E-01  0.4854822E+06  0.2092832E+05
  0.1257143E+01 -0.1639952E+06 -0.1806400E+05  0.1508713E-01  0.8102417E-02  0.4850670E+06  0.2344179E+05
  0.1288095E+01 -0.1639498E+06 -0.2035699E+05 -0.3091809E-02 -0.4150391E-02  0.4845618E+06  0.2608835E+05
  0.1319048E+01 -0.1636770E+06 -0.2277598E+05 -0.4615646E-02 -0.9300232E-02  0.4838388E+06  0.2882300E+05
  0.1350000E+01 -0.1633260E+06 -0.2531962E+05  0.1429805E-01 -0.8850098E-03  0.4830205E+06  0.3163566E+05
  0.1380952E+01 -0.1628114E+06 -0.2796087E+05 -0.1381184E-02  0.7537842E-02  0.4820138E+06  0.3447910E+05
  0.1411905E+01 -0.1623468E+06 -0.3070558E+05  0.7392150E-02  0.1266479E-02  0.4809432E+06  0.3739569E+05
  0.1442857E+01 -0.1615194E+06 -0.3347497E+05  0.3035139E-02  0.1861572E-01  0.4796040E+06  0.4019268E+05
  0.1473810E+01 -0.1605364E+06 -0.3625648E+05 -0.2826450E-02 -0.4470825E-02  0.4780481E+06  0.4289023E+05
  0.1504762E+01 -0.1594520E+06 -0.3902939E+05 -0.1095156E-02 -0.1124573E-01  0.4764496E+06  0.4548572E+05
  0.1535714E+01 -0.1581848E+06 -0.4174302E+05 -0.7740109E-02 -0.5767822E-02  0.4746685E+06  0.4790241E+05
  0.1566667E+01 -0.1568482E+06 -0.4437130E+05 -0.2132984E-02 -0.1892090E-02  0.4728008E+06  0.5011807E+05
  0.1597619E+01 -0.1553916E+06 -0.4688080E+05  0.2464147E-02 -0.6652832E-02  0.4708902E+06  0.5210751E+05
  0.1628572E+01 -0.1538183E+06 -0.4923225E+05 -0.9837903E-03 -0.8728027E-02  0.4688842E+06  0.5381409E+05
  0.1659524E+01 -0.1521983E+06 -0.5140986E+05 -0.7686751E-02 -0.8087158E-02  0.4668969E+06  0.5524043E+05
  0.1690476E+01 -0.1504827E+06 -0.5335759E+05 -0.9143667E-02 -0.1269531E-01  0.4648112E+06  0.5631248E+05
  0.1721429E+01 -0.1488015E+06 -0.5510922E+05 -0.2570568E-02 -0.4791260E-02  0.4628859E+06  0.5714043E+05
  0.1752381E+01 -0.1470124E+06 -0.5658068E+05  0.1036188E-02 -0.5920410E-02  0.4608950E+06  0.5757639E+05
  0.1783333E+01 -0.1452835E+06 -0.5783525E+05  0.4055701E-02 -0.9002686E-02  0.4590975E+06  0.5778316E+05
  0.1814286E+01 -0.1435557E+06 -0.5878608E+05  0.1284261E-01  0.7904053E-02  0.4572476E+06  0.5756651E+05
  0.1845238E+01 -0.1418734E+06 -0.5950385E+05  0.7401005E-03  0.3601074E-02  0.4556078E+06  0.5713463E+05
  0.1876190E+01 -0.1402120E+06 -0.5994502E+05 -0.4322614E-02 -0.3692627E-02  0.4540111E+06  0.5637518E+05
  0.1907143E+01 -0.1386409E+06 -0.6014457E+05  0.6408692E-02  0.2685547E-02  0.4525699E+06  0.5536937E+05
  0.1938095E+01 -0.1371199E+06 -0.6008271E+05 -0.4249498E-02 -0.1272583E-01  0.4512337E+06  0.5413020E+05
  0.1969048E+01 -0.1356928E+06 -0.5977754E+05  0.5753874E-03  0.3967285E-02  0.4499825E+06  0.5262175E+05
  0.2000000E+01 -0.1343990E+06 -0.5932546E+05  0.7019520E-02 -0.5493164E-02  0.4489904E+06  0.5109396E+05
