VARIABLES="w (rad/s)"
"abs(F   1   1)" "angle(F   1   1)"
"abs(F   1   2)" "angle(F   1   2)"
"abs(F   1   3)" "angle(F   1   3)"
Zone t="Diffraction force - beta =   0.000 deg",I=    64,F=POINT
  0.5000000E-01  0.1178033E+04 -0.1570794E+01  0.3234140E+03 -0.3084670E+01  0.2290140E+02 -0.1570794E+01
  0.8095238E-01  0.1926204E+04 -0.1570791E+01  0.8367952E+03 -0.3082547E+01  0.3726429E+02 -0.1570789E+01
  0.1119048E+00  0.2682094E+04 -0.1570785E+01  0.1587178E+04 -0.3079990E+01  0.5211049E+02 -0.1570782E+01
  0.1428571E+00  0.3478341E+04 -0.1570776E+01  0.2576288E+04 -0.3076817E+01  0.6828801E+02 -0.1570771E+01
  0.1738095E+00  0.4293482E+04 -0.1570763E+01  0.3809108E+04 -0.3072870E+01  0.8441296E+02 -0.1570754E+01
  0.2047619E+00  0.5167245E+04 -0.1570744E+01  0.5290516E+04 -0.3067939E+01  0.1026130E+03 -0.1570730E+01
  0.2357143E+00  0.6080295E+04 -0.1570717E+01  0.7027824E+04 -0.3061744E+01  0.1214198E+03 -0.1570696E+01
  0.2666667E+00  0.7067123E+04 -0.1570676E+01  0.9028912E+04 -0.3054250E+01  0.1418328E+03 -0.1570644E+01
  0.2976190E+00  0.8153783E+04 -0.1570617E+01  0.1129839E+05 -0.3044814E+01  0.1658540E+03 -0.1570569E+01
  0.3285715E+00  0.9311426E+04 -0.1570528E+01  0.1384630E+05 -0.3033578E+01  0.1922216E+03 -0.1570457E+01
  0.3595238E+00  0.1059854E+05 -0.1570395E+01  0.1666693E+05 -0.3019933E+01  0.2203001E+03 -0.1570289E+01
  0.3904762E+00  0.1204209E+05 -0.1570196E+01  0.1976855E+05 -0.3003817E+01  0.2565111E+03 -0.1570046E+01
  0.4214286E+00  0.1363074E+05 -0.1569906E+01  0.2309590E+05 -0.2985722E+01  0.2938777E+03 -0.1569685E+01
  0.4523810E+00  0.1532222E+05 -0.1569476E+01  0.2667752E+05 -0.2964831E+01  0.3311719E+03 -0.1569139E+01
  0.4833333E+00  0.1724684E+05 -0.1568887E+01  0.3043660E+05 -0.2943713E+01  0.3821371E+03 -0.1568422E+01
  0.5142857E+00  0.1934636E+05 -0.1568069E+01  0.3435412E+05 -0.2920706E+01  0.4376807E+03 -0.1567430E+01
  0.5452381E+00  0.2154637E+05 -0.1566975E+01  0.3842306E+05 -0.2897816E+01  0.4957866E+03 -0.1566096E+01
  0.5761905E+00  0.2383527E+05 -0.1565547E+01  0.4260902E+05 -0.2875355E+01  0.5502742E+03 -0.1564297E+01
  0.6071429E+00  0.2632457E+05 -0.1563718E+01  0.4687708E+05 -0.2852134E+01  0.6220786E+03 -0.1562103E+01
  0.6380953E+00  0.2898375E+05 -0.1561454E+01  0.5126108E+05 -0.2830436E+01  0.7056214E+03 -0.1559455E+01
  0.6690477E+00  0.3172518E+05 -0.1558643E+01  0.5569254E+05 -0.2808834E+01  0.7870856E+03 -0.1556096E+01
  0.7000000E+00  0.3444575E+05 -0.1555156E+01  0.6015061E+05 -0.2787017E+01  0.8612552E+03 -0.1551787E+01
  0.7309524E+00  0.3729203E+05 -0.1550976E+01  0.6468250E+05 -0.2766283E+01  0.9544926E+03 -0.1546858E+01
  0.7619048E+00  0.4031169E+05 -0.1546026E+01  0.6921816E+05 -0.2745855E+01  0.1054498E+04 -0.1541037E+01
  0.7928572E+00  0.4343624E+05 -0.1540194E+01  0.7371831E+05 -0.2725527E+01  0.1162383E+04 -0.1534225E+01
  0.8238096E+00  0.4661372E+05 -0.1533363E+01  0.7818783E+05 -0.2705570E+01  0.1285424E+04 -0.1526508E+01
  0.8547620E+00  0.4979429E+05 -0.1525414E+01  0.8263468E+05 -0.2686291E+01  0.1402714E+04 -0.1517274E+01
  0.8857143E+00  0.5291068E+05 -0.1516199E+01  0.8702035E+05 -0.2667513E+01  0.1507741E+04 -0.1506143E+01
  0.9166667E+00  0.5607727E+05 -0.1505740E+01  0.9133192E+05 -0.2649221E+01  0.1629303E+04 -0.1493917E+01
  0.9476191E+00  0.5931100E+05 -0.1494015E+01  0.9553221E+05 -0.2631248E+01  0.1772187E+04 -0.1480834E+01
  0.9785714E+00  0.6259912E+05 -0.1480977E+01  0.9962346E+05 -0.2613831E+01  0.1926524E+04 -0.1466437E+01
  0.1009524E+01  0.6583562E+05 -0.1466489E+01  0.1035802E+06 -0.2596833E+01  0.2077161E+04 -0.1450205E+01
  0.1040476E+01  0.6896335E+05 -0.1450448E+01  0.1073958E+06 -0.2580348E+01  0.2226896E+04 -0.1432132E+01
  0.1071429E+01  0.7187610E+05 -0.1432693E+01  0.1110503E+06 -0.2564253E+01  0.2372889E+04 -0.1411950E+01
  0.1102381E+01  0.7456119E+05 -0.1413200E+01  0.1145660E+06 -0.2548896E+01  0.2515204E+04 -0.1389650E+01
  0.1133333E+01  0.7704332E+05 -0.1392110E+01  0.1179203E+06 -0.2534178E+01  0.2660967E+04 -0.1366023E+01
  0.1164286E+01  0.7933737E+05 -0.1369642E+01  0.1211056E+06 -0.2519997E+01  0.2800438E+04 -0.1340741E+01
  0.1195238E+01  0.8136100E+05 -0.1345765E+01  0.1240954E+06 -0.2506224E+01  0.2931930E+04 -0.1313830E+01
  0.1226190E+01  0.8305486E+05 -0.1320480E+01  0.1268853E+06 -0.2492871E+01  0.3065691E+04 -0.1285599E+01
  0.1257143E+01  0.8431470E+05 -0.1293479E+01  0.1295057E+06 -0.2479796E+01  0.3190803E+04 -0.1255664E+01
  0.1288095E+01  0.8521450E+05 -0.1265716E+01  0.1318595E+06 -0.2467714E+01  0.3318124E+04 -0.1225926E+01
  0.1319048E+01  0.8563177E+05 -0.1236668E+01  0.1340375E+06 -0.2455968E+01  0.3415994E+04 -0.1194025E+01
  0.1350000E+01  0.8553745E+05 -0.1206700E+01  0.1359963E+06 -0.2444663E+01  0.3486514E+04 -0.1160506E+01
  0.1380952E+01  0.8492777E+05 -0.1175989E+01  0.1377321E+06 -0.2433954E+01  0.3531311E+04 -0.1125530E+01
  0.1411905E+01  0.8326570E+05 -0.1144659E+01  0.1391155E+06 -0.2423117E+01  0.3502112E+04 -0.1085826E+01
  0.1442857E+01  0.8153164E+05 -0.1112506E+01  0.1404010E+06 -0.2413149E+01  0.3516938E+04 -0.1050092E+01
  0.1473810E+01  0.7925777E+05 -0.1080149E+01  0.1414660E+06 -0.2403733E+01  0.3512575E+04 -0.1015203E+01
  0.1504762E+01  0.7643266E+05 -0.1047640E+01  0.1423023E+06 -0.2394849E+01  0.3476673E+04 -0.9799502E+00
  0.1535714E+01  0.7306791E+05 -0.1015027E+01  0.1429062E+06 -0.2386435E+01  0.3400980E+04 -0.9433994E+00
  0.1566667E+01  0.6915582E+05 -0.9821121E+00  0.1432820E+06 -0.2378429E+01  0.3285874E+04 -0.9045457E+00
  0.1597619E+01  0.6474342E+05 -0.9491048E+00  0.1434315E+06 -0.2370891E+01  0.3142918E+04 -0.8659995E+00
  0.1628572E+01  0.5986689E+05 -0.9160380E+00  0.1433485E+06 -0.2363644E+01  0.2974997E+04 -0.8281702E+00
  0.1659524E+01  0.5455241E+05 -0.8825775E+00  0.1430422E+06 -0.2356890E+01  0.2778338E+04 -0.7908785E+00
  0.1690476E+01  0.4883862E+05 -0.8483549E+00  0.1425185E+06 -0.2350608E+01  0.2550409E+04 -0.7520703E+00
  0.1721429E+01  0.4278371E+05 -0.8129896E+00  0.1417678E+06 -0.2344912E+01  0.2291321E+04 -0.7114103E+00
  0.1752381E+01  0.3643136E+05 -0.7753016E+00  0.1407890E+06 -0.2339774E+01  0.1996205E+04 -0.6648790E+00
  0.1783333E+01  0.2981860E+05 -0.7327133E+00  0.1395868E+06 -0.2335104E+01  0.1667143E+04 -0.6101984E+00
  0.1814286E+01  0.2299097E+05 -0.6797386E+00  0.1381808E+06 -0.2330834E+01  0.1302238E+04 -0.5344106E+00
  0.1845238E+01  0.1601672E+05 -0.6013826E+00  0.1365655E+06 -0.2327060E+01  0.9198573E+03 -0.4177704E+00
  0.1876190E+01  0.9035231E+04 -0.4361256E+00  0.1347422E+06 -0.2323594E+01  0.5371202E+03 -0.1660454E+00
  0.1907143E+01  0.3144871E+04  0.4159243E+00  0.1327195E+06 -0.2320641E+01  0.2667521E+03  0.7972637E+00
  0.1938095E+01  0.6737484E+04  0.1981094E+01  0.1305030E+06 -0.2318316E+01  0.4998462E+03  0.1955508E+01
  0.1969048E+01  0.1378470E+05  0.2231019E+01  0.1280887E+06 -0.2316692E+01  0.9390749E+03  0.2250513E+01
  0.2000000E+01  0.2105243E+05  0.2322259E+01  0.1254826E+06 -0.2315755E+01  0.1428918E+04  0.2368472E+01
