VARIABLES="w (rad/s)"
"abs(F   1   1)" "angle(F   1   1)"
"abs(F   1   2)" "angle(F   1   2)"
"abs(F   1   3)" "angle(F   1   3)"
Zone t="Diffraction force - beta =   0.000 deg",I=    64,F=POINT
  0.5000000E-01  0.1901775E+04 -0.1570793E+01  0.4017630E+03 -0.3095250E+01  0.3039528E+04  0.1570798E+01
  0.8095238E-01  0.3114704E+04 -0.1570787E+01  0.1039965E+04 -0.3093630E+01  0.4979817E+04  0.1570802E+01
  0.1119048E+00  0.4370686E+04 -0.1570777E+01  0.1974324E+04 -0.3091738E+01  0.6986374E+04  0.1570808E+01
  0.1428571E+00  0.5652410E+04 -0.1570763E+01  0.3200993E+04 -0.3089286E+01  0.9053955E+04  0.1570817E+01
  0.1738095E+00  0.7011668E+04 -0.1570742E+01  0.4717166E+04 -0.3086173E+01  0.1123090E+05  0.1570830E+01
  0.2047619E+00  0.8402318E+04 -0.1570711E+01  0.6536289E+04 -0.3082364E+01  0.1349524E+05  0.1570849E+01
  0.2357143E+00  0.9933953E+04 -0.1570666E+01  0.8656964E+04 -0.3077582E+01  0.1598723E+05  0.1570876E+01
  0.2666667E+00  0.1157273E+05 -0.1570601E+01  0.1106065E+05 -0.3071702E+01  0.1865676E+05  0.1570917E+01
  0.2976190E+00  0.1331303E+05 -0.1570504E+01  0.1378579E+05 -0.3064453E+01  0.2154413E+05  0.1570977E+01
  0.3285715E+00  0.1531029E+05 -0.1570362E+01  0.1676760E+05 -0.3055627E+01  0.2480963E+05  0.1571065E+01
  0.3595238E+00  0.1745143E+05 -0.1570148E+01  0.2005451E+05 -0.3045090E+01  0.2837461E+05  0.1571198E+01
  0.3904762E+00  0.1978325E+05 -0.1569829E+01  0.2358136E+05 -0.3032549E+01  0.3226832E+05  0.1571397E+01
  0.4214286E+00  0.2247568E+05 -0.1569367E+01  0.2731565E+05 -0.3018612E+01  0.3679228E+05  0.1571687E+01
  0.4523810E+00  0.2543798E+05 -0.1568692E+01  0.3127213E+05 -0.3002518E+01  0.4171984E+05  0.1572111E+01
  0.4833333E+00  0.2866707E+05 -0.1567761E+01  0.3528178E+05 -0.2986232E+01  0.4723455E+05  0.1572698E+01
  0.5142857E+00  0.3205394E+05 -0.1566463E+01  0.3951184E+05 -0.2969209E+01  0.5308385E+05  0.1573516E+01
  0.5452381E+00  0.3598966E+05 -0.1564774E+01  0.4360693E+05 -0.2951421E+01  0.5969627E+05  0.1574594E+01
  0.5761905E+00  0.4006631E+05 -0.1562580E+01  0.4781673E+05 -0.2934701E+01  0.6665224E+05  0.1575998E+01
  0.6071429E+00  0.4430638E+05 -0.1559754E+01  0.5202785E+05 -0.2917582E+01  0.7395555E+05  0.1577813E+01
  0.6380953E+00  0.4877440E+05 -0.1556259E+01  0.5610732E+05 -0.2901294E+01  0.8178454E+05  0.1580063E+01
  0.6690477E+00  0.5349632E+05 -0.1551979E+01  0.6023259E+05 -0.2885851E+01  0.8999348E+05  0.1582834E+01
  0.7000000E+00  0.5851824E+05 -0.1546798E+01  0.6424073E+05 -0.2870337E+01  0.9866725E+05  0.1586223E+01
  0.7309524E+00  0.6381066E+05 -0.1540638E+01  0.6801148E+05 -0.2854962E+01  0.1078620E+06  0.1590285E+01
  0.7619048E+00  0.6903976E+05 -0.1533252E+01  0.7174051E+05 -0.2840554E+01  0.1170973E+06  0.1595167E+01
  0.7928572E+00  0.7430479E+05 -0.1524530E+01  0.7547859E+05 -0.2827533E+01  0.1266880E+06  0.1600934E+01
  0.8238096E+00  0.7976302E+05 -0.1514473E+01  0.7866417E+05 -0.2812901E+01  0.1362071E+06  0.1607652E+01
  0.8547620E+00  0.8570540E+05 -0.1503213E+01  0.8176546E+05 -0.2799285E+01  0.1468468E+06  0.1615186E+01
  0.8857143E+00  0.9151468E+05 -0.1490273E+01  0.8470523E+05 -0.2786645E+01  0.1571939E+06  0.1623930E+01
  0.9166667E+00  0.9727691E+05 -0.1475589E+01  0.8761558E+05 -0.2775811E+01  0.1677990E+06  0.1633876E+01
  0.9476191E+00  0.1029656E+06 -0.1459114E+01  0.8982546E+05 -0.2763038E+01  0.1778617E+06  0.1645164E+01
  0.9785714E+00  0.1086112E+06 -0.1440805E+01  0.9188613E+05 -0.2751200E+01  0.1885745E+06  0.1657673E+01
  0.1009524E+01  0.1137881E+06 -0.1420408E+01  0.9374386E+05 -0.2740358E+01  0.1984943E+06  0.1671581E+01
  0.1040476E+01  0.1187317E+06 -0.1398259E+01  0.9545734E+05 -0.2730820E+01  0.2081687E+06  0.1686588E+01
  0.1071429E+01  0.1235999E+06 -0.1374878E+01  0.9677910E+05 -0.2721447E+01  0.2175028E+06  0.1702373E+01
  0.1102381E+01  0.1280582E+06 -0.1349672E+01  0.9754659E+05 -0.2711229E+01  0.2260035E+06  0.1719579E+01
  0.1133333E+01  0.1320395E+06 -0.1322734E+01  0.9812603E+05 -0.2701807E+01  0.2344279E+06  0.1737781E+01
  0.1164286E+01  0.1351180E+06 -0.1293816E+01  0.9848666E+05 -0.2693523E+01  0.2413909E+06  0.1757173E+01
  0.1195238E+01  0.1374356E+06 -0.1263486E+01  0.9866612E+05 -0.2686503E+01  0.2473064E+06  0.1777151E+01
  0.1226190E+01  0.1390524E+06 -0.1232618E+01  0.9859921E+05 -0.2680658E+01  0.2522246E+06  0.1796909E+01
  0.1257143E+01  0.1396937E+06 -0.1200518E+01  0.9783090E+05 -0.2673133E+01  0.2549450E+06  0.1817281E+01
  0.1288095E+01  0.1397204E+06 -0.1168268E+01  0.9687774E+05 -0.2666901E+01  0.2573048E+06  0.1837290E+01
  0.1319048E+01  0.1385244E+06 -0.1134949E+01  0.9573677E+05 -0.2661136E+01  0.2579124E+06  0.1857137E+01
  0.1350000E+01  0.1361798E+06 -0.1101489E+01  0.9440776E+05 -0.2656744E+01  0.2565472E+06  0.1876021E+01
  0.1380952E+01  0.1328464E+06 -0.1068505E+01  0.9293391E+05 -0.2653826E+01  0.2538532E+06  0.1893328E+01
  0.1411905E+01  0.1280968E+06 -0.1034154E+01  0.9131434E+05 -0.2651958E+01  0.2493484E+06  0.1909864E+01
  0.1442857E+01  0.1226500E+06 -0.1001765E+01  0.8904595E+05 -0.2649585E+01  0.2426530E+06  0.1923658E+01
  0.1473810E+01  0.1163733E+06 -0.9705564E+00  0.8664363E+05 -0.2648595E+01  0.2349147E+06  0.1934762E+01
  0.1504762E+01  0.1093803E+06 -0.9412259E+00  0.8415791E+05 -0.2648619E+01  0.2266632E+06  0.1942582E+01
  0.1535714E+01  0.1013005E+06 -0.9123586E+00  0.8158517E+05 -0.2649977E+01  0.2164830E+06  0.1947136E+01
  0.1566667E+01  0.9238215E+05 -0.8847827E+00  0.7896108E+05 -0.2653103E+01  0.2049231E+06  0.1947267E+01
  0.1597619E+01  0.8289584E+05 -0.8591997E+00  0.7633198E+05 -0.2657834E+01  0.1929159E+06  0.1942425E+01
  0.1628572E+01  0.7285185E+05 -0.8357852E+00  0.7372793E+05 -0.2664437E+01  0.1802825E+06  0.1931484E+01
  0.1659524E+01  0.6224011E+05 -0.8158759E+00  0.7073952E+05 -0.2671845E+01  0.1660501E+06  0.1911301E+01
  0.1690476E+01  0.5124789E+05 -0.8000052E+00  0.6778920E+05 -0.2680679E+01  0.1515044E+06  0.1881137E+01
  0.1721429E+01  0.4010104E+05 -0.7911355E+00  0.6494873E+05 -0.2690661E+01  0.1376036E+06  0.1840275E+01
  0.1752381E+01  0.2859331E+05 -0.7934674E+00  0.6218064E+05 -0.2701032E+01  0.1235874E+06  0.1783873E+01
  0.1783333E+01  0.1686434E+05 -0.8292437E+00  0.5949430E+05 -0.2711824E+01  0.1098724E+06  0.1706455E+01
  0.1814286E+01  0.5276631E+04 -0.1116748E+01  0.5691098E+05 -0.2722586E+01  0.9709848E+05  0.1601865E+01
  0.1845238E+01  0.7504039E+04  0.2784727E+01  0.5438977E+05 -0.2732386E+01  0.8613696E+05  0.1465993E+01
  0.1876190E+01  0.1926333E+05  0.2613044E+01  0.5188401E+05 -0.2741138E+01  0.7750101E+05  0.1291980E+01
  0.1907143E+01  0.3123147E+05  0.2585300E+01  0.4927530E+05 -0.2749495E+01  0.7193033E+05  0.1070587E+01
  0.1938095E+01  0.4324798E+05  0.2580500E+01  0.4666584E+05 -0.2757069E+01  0.7066513E+05  0.8217455E+00
  0.1969048E+01  0.5513339E+05  0.2583201E+01  0.4407346E+05 -0.2763162E+01  0.7385330E+05  0.5859661E+00
  0.2000000E+01  0.6690298E+05  0.2589801E+01  0.4143317E+05 -0.2768090E+01  0.8088465E+05  0.3833746E+00
