VARIABLES="w (rad/s)"
"A   1   1" "B   1   1"
"A   1   2" "B   1   2"
"A   1   3" "B   1   3"
Zone t="Motion of body    1 in DoF   1",I=    64,F=POINT
  0.5000000E-01  0.6096037E+05  0.1549801E-02 -0.5025864E-02 -0.3163846E-06 -0.1206444E+06 -0.2722895E-02
  0.8095238E-01  0.6135098E+05  0.6627706E-02  0.4370633E-02  0.1804242E-04 -0.1213270E+06 -0.1183134E-01
  0.1119048E+00  0.6146911E+05  0.1869269E-01 -0.4261098E-04  0.7060269E-05 -0.1215451E+06 -0.3316679E-01
  0.1428571E+00  0.6162741E+05  0.4198159E-01  0.5340576E-04 -0.4767426E-06 -0.1216887E+06 -0.7432542E-01
  0.1738095E+00  0.6168420E+05  0.8309258E-01  0.3401874E-02 -0.3006571E-06 -0.1217659E+06 -0.1467043E+00
  0.2047619E+00  0.6178780E+05  0.1539507E+00 -0.2468464E-02 -0.2190311E-04 -0.1218485E+06 -0.2716832E+00
  0.2357143E+00  0.6180020E+05  0.2710524E+00 -0.1456521E-03  0.4199392E-05 -0.1218905E+06 -0.4784122E+00
  0.2666667E+00  0.6188442E+05  0.4622865E+00 -0.2989769E-02  0.2887985E-04 -0.1219707E+06 -0.8142148E+00
  0.2976190E+00  0.6196700E+05  0.7750784E+00  0.5383301E-02  0.7533189E-04 -0.1220758E+06 -0.1362903E+01
  0.3285715E+00  0.6205446E+05  0.1282323E+01  0.3599084E-03  0.2692570E-04 -0.1221699E+06 -0.2250722E+01
  0.3595238E+00  0.6211667E+05  0.2103753E+01  0.1612783E-02  0.7207599E-04 -0.1222798E+06 -0.3686086E+01
  0.3904762E+00  0.6225196E+05  0.3429006E+01 -0.1514249E-02 -0.6619468E-04 -0.1224241E+06 -0.5993578E+01
  0.4214286E+00  0.6236857E+05  0.5516035E+01  0.4254357E-03  0.1082802E-03 -0.1225820E+06 -0.9619925E+01
  0.4523810E+00  0.6250272E+05  0.8795414E+01  0.5185980E-02  0.1873598E-03 -0.1227479E+06 -0.1530032E+02
  0.4833333E+00  0.6264721E+05  0.1367844E+02 -0.2446668E-03 -0.1695380E-04 -0.1229240E+06 -0.2372680E+02
  0.5142857E+00  0.6284930E+05  0.2093896E+02  0.1036220E-01  0.1032218E-02 -0.1231423E+06 -0.3620548E+02
  0.5452381E+00  0.6301947E+05  0.3127862E+02  0.7178294E-02  0.8922592E-03 -0.1233862E+06 -0.5392727E+02
  0.5761905E+00  0.6317325E+05  0.4560805E+02  0.2661461E-02  0.9362400E-04 -0.1236324E+06 -0.7840886E+02
  0.6071429E+00  0.6343267E+05  0.6535654E+02 -0.3229477E-02 -0.2922416E-03 -0.1239185E+06 -0.1119326E+03
  0.6380953E+00  0.6367036E+05  0.9156715E+02  0.1960868E-02  0.6768256E-03 -0.1242109E+06 -0.1562351E+03
  0.6690477E+00  0.6391979E+05  0.1261050E+03  0.2520144E-02  0.4052818E-03 -0.1245541E+06 -0.2143789E+03
  0.7000000E+00  0.6419184E+05  0.1711123E+03  0.1100813E-02  0.5467236E-03 -0.1249107E+06 -0.2897444E+03
  0.7309524E+00  0.6444236E+05  0.2285303E+03 -0.4060229E-02 -0.1596808E-02 -0.1252753E+06 -0.3854981E+03
  0.7619048E+00  0.6477705E+05  0.3014798E+03  0.1441955E-02 -0.3825426E-03 -0.1257036E+06 -0.5062965E+03
  0.7928572E+00  0.6512425E+05  0.3929959E+03 -0.5792840E-02 -0.1441240E-02 -0.1261097E+06 -0.6567901E+03
  0.8238096E+00  0.6551836E+05  0.5067948E+03 -0.5760413E-02 -0.1704574E-02 -0.1266112E+06 -0.8428824E+03
  0.8547620E+00  0.6584680E+05  0.6462114E+03 -0.2106478E-02 -0.1148105E-02 -0.1270536E+06 -0.1069756E+04
  0.8857143E+00  0.6622295E+05  0.8163826E+03 -0.4186322E-02 -0.9818077E-03 -0.1275701E+06 -0.1344984E+04
  0.9166667E+00  0.6661855E+05  0.1022107E+04 -0.2688321E-02 -0.1142263E-02 -0.1280762E+06 -0.1675166E+04
  0.9476191E+00  0.6708392E+05  0.1269605E+04  0.1626326E-02 -0.7972717E-03 -0.1286415E+06 -0.2069027E+04
  0.9785714E+00  0.6752638E+05  0.1564080E+04 -0.3383664E-02 -0.1985550E-02 -0.1291669E+06 -0.2534135E+04
  0.1009524E+01  0.6802953E+05  0.1913604E+04  0.5441342E-02  0.9150505E-03 -0.1297826E+06 -0.3082062E+04
  0.1040476E+01  0.6850198E+05  0.2323688E+04  0.4648868E-02  0.1606941E-02 -0.1303489E+06 -0.3719933E+04
  0.1071429E+01  0.6901256E+05  0.2803466E+04  0.4870606E-02  0.3414154E-02 -0.1309474E+06 -0.4459636E+04
  0.1102381E+01  0.6952177E+05  0.3360535E+04  0.1467217E-02  0.7715225E-03 -0.1315809E+06 -0.5312899E+04
  0.1133333E+01  0.6997405E+05  0.4000794E+04 -0.1454073E-02  0.9937286E-03 -0.1321034E+06 -0.6284461E+04
  0.1164286E+01  0.7049291E+05  0.4738314E+04 -0.4220038E-02 -0.2644539E-02 -0.1327065E+06 -0.7393408E+04
  0.1195238E+01  0.7099057E+05  0.5578621E+04 -0.6472523E-02 -0.2664566E-02 -0.1332246E+06 -0.8642562E+04
  0.1226190E+01  0.7151974E+05  0.6534750E+04  0.9457486E-03  0.2689362E-03 -0.1337473E+06 -0.1004790E+05
  0.1257143E+01  0.7198523E+05  0.7606366E+04  0.1153079E-02  0.7991791E-03 -0.1341874E+06 -0.1160839E+05
  0.1288095E+01  0.7252620E+05  0.8825785E+04  0.1966438E-02  0.5550385E-03 -0.1347102E+06 -0.1336479E+05
  0.1319048E+01  0.7294215E+05  0.1017308E+05 -0.8039784E-02 -0.5340576E-02 -0.1350708E+06 -0.1528660E+05
  0.1350000E+01  0.7336625E+05  0.1167256E+05  0.4182039E-03 -0.3761292E-02 -0.1354342E+06 -0.1740280E+05
  0.1380952E+01  0.7368498E+05  0.1331698E+05 -0.3027554E-02 -0.1445770E-02 -0.1356237E+06 -0.1969400E+05
  0.1411905E+01  0.7371401E+05  0.1501385E+05  0.1945303E-03 -0.1605988E-02 -0.1355568E+06 -0.2205096E+05
  0.1442857E+01  0.7396685E+05  0.1696265E+05  0.1385377E-02 -0.5722046E-04 -0.1356003E+06 -0.2469760E+05
  0.1473810E+01  0.7413755E+05  0.1906933E+05 -0.4814283E-02 -0.5035400E-03 -0.1355488E+06 -0.2752632E+05
  0.1504762E+01  0.7417570E+05  0.2131576E+05 -0.1176279E-02 -0.3761292E-02 -0.1352559E+06 -0.3048641E+05
  0.1535714E+01  0.7418077E+05  0.2372717E+05  0.1470521E-02 -0.1266479E-02 -0.1349299E+06 -0.3362373E+05
  0.1566667E+01  0.7410195E+05  0.2628272E+05  0.1032403E-02  0.3501892E-02 -0.1344641E+06 -0.3689132E+05
  0.1597619E+01  0.7387318E+05  0.2895341E+05  0.1910191E-02 -0.1068115E-02 -0.1337947E+06 -0.4024613E+05
  0.1628572E+01  0.7356188E+05  0.3174390E+05 -0.4122550E-03  0.1396179E-02 -0.1330179E+06 -0.4369097E+05
  0.1659524E+01  0.7314238E+05  0.3462567E+05 -0.7907424E-03 -0.3204346E-03 -0.1320877E+06 -0.4717359E+05
  0.1690476E+01  0.7258493E+05  0.3757764E+05 -0.1047054E-02 -0.5645752E-02 -0.1310362E+06 -0.5069012E+05
  0.1721429E+01  0.7186291E+05  0.4054233E+05  0.6559380E-03 -0.1861572E-02 -0.1297562E+06 -0.5412346E+05
  0.1752381E+01  0.7101995E+05  0.4351516E+05  0.1044895E-03 -0.5035400E-03 -0.1283401E+06 -0.5748330E+05
  0.1783333E+01  0.7010172E+05  0.4649170E+05 -0.1557252E-02 -0.1754761E-02 -0.1268609E+06 -0.6076990E+05
  0.1814286E+01  0.6906882E+05  0.4940643E+05 -0.2607211E-02 -0.4364014E-02 -0.1252401E+06 -0.6387811E+05
  0.1845238E+01  0.6791625E+05  0.5221888E+05  0.9096207E-03 -0.2609253E-02 -0.1234741E+06 -0.6675077E+05
  0.1876190E+01  0.6670627E+05  0.5494159E+05  0.1854291E-02  0.7629395E-04 -0.1216679E+06 -0.6942753E+05
  0.1907143E+01  0.6543891E+05  0.5753813E+05  0.2080225E-03 -0.4272461E-03 -0.1197968E+06 -0.7184048E+05
  0.1938095E+01  0.6410693E+05  0.5999762E+05  0.7085777E-03 -0.7629395E-03 -0.1179168E+06 -0.7403302E+05
  0.1969048E+01  0.6272382E+05  0.6229012E+05  0.6974392E-03 -0.1449585E-02 -0.1160269E+06 -0.7596283E+05
  0.2000000E+01  0.6125357E+05  0.6432409E+05  0.2304077E-02  0.2136230E-02 -0.1140359E+06 -0.7745559E+05
Zone t="Motion of body    1 in DoF   2",I=    64,F=POINT
  0.5000000E-01  0.6294250E-03  0.1281500E-05  0.1029170E+05  0.2054008E+02 -0.4968643E-02  0.9946525E-05
  0.8095238E-01  0.2768460E-02  0.8940697E-06  0.1022935E+05  0.3409660E+02  0.1949703E-02  0.1269579E-04
  0.1119048E+00  0.3289568E-02 -0.2455711E-04  0.1018990E+05  0.4890927E+02 -0.3204346E-02  0.9819865E-05
  0.1428571E+00  0.2563477E-02  0.7152557E-06  0.1017572E+05  0.6557710E+02  0.1615524E-02 -0.8970499E-05
  0.1738095E+00 -0.3116555E-02 -0.1144409E-04  0.1018059E+05  0.8484442E+02  0.4779084E-02  0.4032254E-04
  0.2047619E+00 -0.6352801E-02  0.6198883E-05  0.1020243E+05  0.1076550E+03 -0.1164370E-04 -0.2685189E-04
  0.2357143E+00  0.1359419E-02 -0.1263618E-04  0.1023686E+05  0.1353425E+03  0.2128138E-02 -0.7075071E-04
  0.2666667E+00  0.1916885E-02 -0.6198883E-05  0.1028209E+05  0.1691013E+03  0.8414984E-02  0.1747012E-03
  0.2976190E+00 -0.1243286E-02  0.5245209E-04  0.1033573E+05  0.2114397E+03 -0.7382812E-02 -0.1412630E-03
  0.3285715E+00 -0.1834372E-02 -0.2384186E-04  0.1040200E+05  0.2639139E+03  0.6414496E-03  0.3659725E-04
  0.3595238E+00 -0.9528154E-02  0.6532669E-04  0.1046251E+05  0.3296612E+03  0.9453881E-02  0.2303123E-03
  0.3904762E+00 -0.2325104E-02 -0.1029968E-03  0.1052584E+05  0.4112956E+03 -0.8919412E-02  0.1573563E-04
  0.4214286E+00 -0.1013804E-02 -0.7629395E-05  0.1057351E+05  0.5086205E+03  0.9110659E-02  0.5686283E-03
  0.4523810E+00  0.1399793E-02 -0.1316071E-03  0.1061650E+05  0.6268226E+03 -0.4249974E-02 -0.6577969E-03
  0.4833333E+00 -0.1073377E-02  0.1544952E-03  0.1062860E+05  0.7575004E+03  0.4206690E-02 -0.2462864E-03
  0.5142857E+00 -0.2981822E-02 -0.5302429E-03  0.1062267E+05  0.9067560E+03  0.2907647E-02  0.1637936E-03
  0.5452381E+00  0.1623162E-02  0.4997253E-03  0.1060136E+05  0.1067812E+04  0.2007963E-02  0.1597404E-03
  0.5761905E+00 -0.2250986E-03 -0.1373291E-03  0.1056125E+05  0.1238413E+04  0.6398760E-02 -0.1106262E-03
  0.6071429E+00 -0.3279742E-02 -0.7820129E-04  0.1050109E+05  0.1422378E+04 -0.1146653E-02 -0.9694099E-03
  0.6380953E+00  0.2821737E-02  0.1144409E-03  0.1043192E+05  0.1611168E+04 -0.4875268E-02 -0.1573563E-03
  0.6690477E+00 -0.5245548E-03 -0.1449585E-03  0.1035055E+05  0.1808367E+04  0.3067505E-02 -0.5207062E-03
  0.7000000E+00 -0.1438686E-02 -0.2250671E-03  0.1025749E+05  0.2014667E+04  0.4574912E-02  0.6122589E-03
  0.7309524E+00  0.2839029E-02 -0.9536743E-04  0.1015601E+05  0.2225590E+04  0.6888821E-03  0.2737045E-03
  0.7619048E+00 -0.2703666E-02 -0.1323700E-02  0.1004299E+05  0.2441936E+04  0.4000425E-02 -0.1306534E-03
  0.7928572E+00  0.1462644E-02  0.1014709E-02  0.9918745E+04  0.2663096E+04 -0.6290813E-02  0.1250267E-02
  0.8238096E+00  0.2907990E-02  0.8316040E-03  0.9787995E+04  0.2887423E+04 -0.1833701E-02  0.3099442E-03
  0.8547620E+00 -0.1356715E-02  0.9155273E-03  0.9649196E+04  0.3113625E+04 -0.5899923E-02  0.2822876E-03
  0.8857143E+00  0.1567718E-02 -0.4425049E-03  0.9505098E+04  0.3340402E+04 -0.1920885E-02 -0.2431870E-02
  0.9166667E+00 -0.3662109E-02  0.5340576E-04  0.9355812E+04  0.3566747E+04  0.2501054E-02 -0.7629395E-04
  0.9476191E+00  0.9661343E-04 -0.7629395E-04  0.9197726E+04  0.3791512E+04 -0.4106071E-03 -0.1525879E-02
  0.9785714E+00 -0.2229788E-02  0.9002686E-03  0.9031723E+04  0.4013644E+04  0.2662492E-02  0.4920959E-03
  0.1009524E+01  0.1662632E-02 -0.2830505E-02  0.8864754E+04  0.4231479E+04 -0.3438626E-02 -0.1831055E-03
  0.1040476E+01 -0.2815718E-02  0.2288818E-04  0.8694397E+04  0.4444510E+04  0.1371196E-02  0.6769180E-02
  0.1071429E+01 -0.5141195E-02  0.9002686E-03  0.8524204E+04  0.4651309E+04  0.5846151E-02  0.8544922E-03
  0.1102381E+01 -0.1107333E-02  0.5645752E-03  0.8353213E+04  0.4850932E+04  0.4100593E-02 -0.7324219E-03
  0.1133333E+01  0.2329209E-02  0.1373291E-03  0.8177414E+04  0.5043610E+04 -0.2315746E-02 -0.2187729E-02
  0.1164286E+01 -0.7863424E-04  0.8087158E-03  0.8005015E+04  0.5227280E+04 -0.2483532E-02 -0.2132416E-02
  0.1195238E+01  0.6766148E-03 -0.9765625E-03  0.7830790E+04  0.5402520E+04  0.3191579E-02 -0.2180099E-02
  0.1226190E+01 -0.4479862E-03 -0.1220703E-03  0.7659251E+04  0.5567705E+04 -0.4557637E-02  0.3984451E-02
  0.1257143E+01 -0.9588762E-03  0.4882812E-03  0.7487965E+04  0.5726208E+04 -0.3428893E-03 -0.1121521E-02
  0.1288095E+01  0.2120436E-02  0.1388550E-02  0.7321632E+04  0.5867206E+04  0.3672263E-02  0.7858276E-03
  0.1319048E+01  0.1793045E-02  0.5035400E-03  0.7156897E+04  0.6001412E+04 -0.1353460E-02  0.1724243E-02
  0.1350000E+01  0.3503870E-02  0.1525879E-03  0.6997861E+04  0.6123688E+04  0.2113625E-02 -0.3101349E-02
  0.1380952E+01 -0.3138049E-02 -0.2151489E-02  0.6842605E+04  0.6235274E+04 -0.1574549E-02  0.2174377E-02
  0.1411905E+01 -0.2809881E-03 -0.6561279E-03  0.6700636E+04  0.6353495E+04 -0.5943980E-04 -0.3257751E-02
  0.1442857E+01 -0.5393453E-03  0.7629395E-03  0.6554986E+04  0.6443344E+04 -0.6662501E-03  0.1281738E-02
  0.1473810E+01  0.1200982E-02  0.3051758E-03  0.6414850E+04  0.6522941E+04  0.2663386E-02  0.1087189E-02
  0.1504762E+01 -0.5577184E-03  0.4882812E-03  0.6274961E+04  0.6592834E+04  0.4816659E-03  0.9536743E-04
  0.1535714E+01 -0.1540073E-02 -0.3341675E-02  0.6143418E+04  0.6651288E+04 -0.1167475E-03  0.4943848E-02
  0.1566667E+01 -0.1957670E-02 -0.1602173E-02  0.6016857E+04  0.6699103E+04  0.6932198E-02 -0.1194000E-02
  0.1597619E+01 -0.1165217E-02 -0.3509521E-03  0.5896514E+04  0.6738227E+04  0.3767852E-02  0.9117126E-03
  0.1628572E+01 -0.2033167E-02 -0.1525879E-04  0.5783318E+04  0.6766939E+04  0.2749928E-02 -0.1750946E-02
  0.1659524E+01 -0.3015855E-02 -0.5035400E-03  0.5675484E+04  0.6785728E+04 -0.3700858E-03  0.1453400E-02
  0.1690476E+01 -0.9567905E-03  0.6713867E-03  0.5575039E+04  0.6796581E+04  0.2019640E-02 -0.4615784E-03
  0.1721429E+01  0.3634251E-03  0.9918213E-03  0.5477823E+04  0.6799462E+04 -0.4908455E-03 -0.2246857E-02
  0.1752381E+01 -0.1811152E-02  0.6713867E-03  0.5387177E+04  0.6795617E+04  0.3300128E-02 -0.1087189E-02
  0.1783333E+01 -0.1369013E-03 -0.4577637E-03  0.5303090E+04  0.6783163E+04 -0.4607584E-02  0.4993439E-02
  0.1814286E+01  0.5298525E-03  0.3356934E-03  0.5225053E+04  0.6765696E+04 -0.2922599E-02  0.2143860E-02
  0.1845238E+01 -0.7359658E-03  0.1007080E-02  0.5151518E+04  0.6743705E+04  0.4844764E-02  0.3597260E-02
  0.1876190E+01 -0.1439516E-02 -0.1312256E-02  0.5084216E+04  0.6716123E+04  0.1657070E-02 -0.3074646E-02
  0.1907143E+01 -0.6400691E-04  0.5187988E-03  0.5021005E+04  0.6682847E+04 -0.1050113E-02 -0.4310608E-03
  0.1938095E+01 -0.4251466E-03 -0.3967285E-03  0.4962733E+04  0.6645346E+04  0.7652639E-02 -0.2986908E-02
  0.1969048E+01  0.6586926E-03 -0.9460449E-03  0.4910568E+04  0.6605971E+04  0.2081662E-02  0.1068115E-03
  0.2000000E+01  0.1525879E-04 -0.1678467E-02  0.4859331E+04  0.6562533E+04  0.1997948E-02  0.5226135E-03
Zone t="Motion of body    1 in DoF   3",I=    64,F=POINT
  0.5000000E-01 -0.1200478E+06 -0.2660666E-02 -0.4482269E-03  0.3954283E-05  0.3209088E+06  0.4687137E-02
  0.8095238E-01 -0.1208798E+06 -0.1158642E-01 -0.7598540E-03 -0.4510839E-05  0.3221395E+06  0.2079426E-01
  0.1119048E+00 -0.1211368E+06 -0.3251793E-01 -0.9348849E-02 -0.4961067E-04  0.3224111E+06  0.5761034E-01
  0.1428571E+00 -0.1213180E+06 -0.7267796E-01 -0.8551598E-02 -0.1005662E-03  0.3225538E+06  0.1289020E+00
  0.1738095E+00 -0.1213974E+06 -0.1435522E+00 -0.1559924E-01 -0.1333217E-03  0.3226437E+06  0.2531963E+00
  0.2047619E+00 -0.1214987E+06 -0.2660634E+00  0.4787888E-02  0.6623304E-04  0.3227329E+06  0.4696110E+00
  0.2357143E+00 -0.1215234E+06 -0.4680408E+00  0.3050602E-02  0.5799520E-04  0.3228013E+06  0.8261346E+00
  0.2666667E+00 -0.1216072E+06 -0.7964717E+00 -0.1490593E-01 -0.1317674E-03  0.3228929E+06  0.1403316E+01
  0.2976190E+00 -0.1217112E+06 -0.1334064E+01 -0.1341339E-01 -0.2803914E-03  0.3230327E+06  0.2345732E+01
  0.3285715E+00 -0.1218006E+06 -0.2202592E+01  0.3268200E-02 -0.8058734E-04  0.3231506E+06  0.3866054E+01
  0.3595238E+00 -0.1218960E+06 -0.3606615E+01 -0.9040074E-02 -0.7762127E-03  0.3233015E+06  0.6320444E+01
  0.3904762E+00 -0.1220528E+06 -0.5865134E+01 -0.1173298E-01 -0.3193002E-03  0.3234779E+06  0.1025327E+02
  0.4214286E+00 -0.1221953E+06 -0.9413261E+01 -0.4127631E-02 -0.3199447E-03  0.3236876E+06  0.1641591E+02
  0.4523810E+00 -0.1223565E+06 -0.1497080E+02 -0.1028764E-01 -0.8133687E-03  0.3238947E+06  0.2604155E+02
  0.4833333E+00 -0.1225245E+06 -0.2321687E+02 -0.7939831E-02 -0.7326081E-03  0.3241467E+06  0.4027323E+02
  0.5142857E+00 -0.1227470E+06 -0.3543704E+02 -0.1367781E-01 -0.2010629E-02  0.3244323E+06  0.6127431E+02
  0.5452381E+00 -0.1229789E+06 -0.5277203E+02 -0.1653247E-01 -0.2498493E-02  0.3247403E+06  0.9098562E+02
  0.5761905E+00 -0.1232068E+06 -0.7669669E+02 -0.1346620E-01 -0.1107693E-02  0.3250791E+06  0.1318597E+03
  0.6071429E+00 -0.1235012E+06 -0.1095326E+03 -0.1561961E-01 -0.4319847E-03  0.3254459E+06  0.1875979E+03
  0.6380953E+00 -0.1237879E+06 -0.1529027E+03  0.1235108E-01  0.1952469E-02  0.3258436E+06  0.2608949E+03
  0.6690477E+00 -0.1241216E+06 -0.2097629E+03  0.5245548E-03  0.1012325E-02  0.3262989E+06  0.3566014E+03
  0.7000000E+00 -0.1244705E+06 -0.2834882E+03  0.6201608E-02  0.2083480E-02  0.3267579E+06  0.4800401E+03
  0.7309524E+00 -0.1248132E+06 -0.3770316E+03 -0.9007655E-02 -0.3397584E-02  0.3272505E+06  0.6360039E+03
  0.7619048E+00 -0.1252395E+06 -0.4952155E+03  0.1053429E-01  0.1464009E-02  0.3278212E+06  0.8316571E+03
  0.7928572E+00 -0.1256449E+06 -0.6425936E+03  0.1882192E-01  0.5196571E-02  0.3283617E+06  0.1073908E+04
  0.8238096E+00 -0.1261458E+06 -0.8247057E+03  0.1353049E-01  0.4475355E-02  0.3289966E+06  0.1371610E+04
  0.8547620E+00 -0.1265622E+06 -0.1046364E+04  0.2587576E-01  0.8394241E-02  0.3295758E+06  0.1732164E+04
  0.8857143E+00 -0.1270580E+06 -0.1315074E+04  0.7692152E-02  0.1639128E-02  0.3302380E+06  0.2166566E+04
  0.9166667E+00 -0.1275493E+06 -0.1637750E+04  0.1409912E-01  0.5985260E-02  0.3308890E+06  0.2684122E+04
  0.9476191E+00 -0.1281132E+06 -0.2023151E+04  0.6424794E-02  0.5072117E-02  0.3315818E+06  0.3297043E+04
  0.9785714E+00 -0.1286273E+06 -0.2478213E+04  0.3180956E-02  0.1230717E-02  0.3322308E+06  0.4015145E+04
  0.1009524E+01 -0.1292378E+06 -0.3014037E+04 -0.1935455E-01 -0.7938385E-02  0.3329787E+06  0.4854309E+04
  0.1040476E+01 -0.1297872E+06 -0.3637591E+04 -0.2270173E-01 -0.1199627E-01  0.3336595E+06  0.5823179E+04
  0.1071429E+01 -0.1303757E+06 -0.4360923E+04 -0.7747396E-02 -0.2300262E-02  0.3343432E+06  0.6936947E+04
  0.1102381E+01 -0.1309882E+06 -0.5193387E+04 -0.1166852E-01 -0.5064964E-02  0.3350814E+06  0.8210358E+04
  0.1133333E+01 -0.1314822E+06 -0.6141497E+04  0.1036700E-01  0.2840042E-02  0.3356425E+06  0.9646762E+04
  0.1164286E+01 -0.1320702E+06 -0.7223710E+04  0.7247456E-02  0.7505417E-02  0.3362953E+06  0.1127104E+05
  0.1195238E+01 -0.1325786E+06 -0.8445194E+04 -0.5961870E-02  0.6637573E-03  0.3368248E+06  0.1308305E+05
  0.1226190E+01 -0.1331034E+06 -0.9821284E+04  0.4815852E-02  0.5718231E-02  0.3373300E+06  0.1510051E+05
  0.1257143E+01 -0.1335460E+06 -0.1134735E+05 -0.2779527E-02 -0.8216858E-02  0.3376774E+06  0.1731619E+05
  0.1288095E+01 -0.1340541E+06 -0.1306372E+05  0.1208293E-01  0.1098633E-01  0.3381195E+06  0.1978058E+05
  0.1319048E+01 -0.1343973E+06 -0.1493924E+05  0.2764760E-02  0.1464844E-02  0.3383428E+06  0.2244636E+05
  0.1350000E+01 -0.1347466E+06 -0.1700153E+05  0.2249259E-02  0.7480621E-02  0.3385162E+06  0.2534473E+05
  0.1380952E+01 -0.1349198E+06 -0.1923636E+05  0.1790014E-02  0.1625061E-02  0.3384719E+06  0.2844472E+05
  0.1411905E+01 -0.1349858E+06 -0.2157856E+05 -0.2712616E-02  0.4150391E-02  0.3382942E+06  0.3168911E+05
  0.1442857E+01 -0.1350336E+06 -0.2416800E+05  0.4378215E-02  0.6164551E-02  0.3379647E+06  0.3518365E+05
  0.1473810E+01 -0.1349835E+06 -0.2693319E+05  0.3085283E-02  0.5592346E-02  0.3375671E+06  0.3887243E+05
  0.1504762E+01 -0.1346992E+06 -0.2983518E+05 -0.4441467E-02 -0.2258301E-02  0.3368029E+06  0.4266426E+05
  0.1535714E+01 -0.1343863E+06 -0.3290700E+05 -0.6756450E-02 -0.1354218E-01  0.3360055E+06  0.4662228E+05
  0.1566667E+01 -0.1339374E+06 -0.3610612E+05  0.4821128E-02  0.9765625E-03  0.3349764E+06  0.5066500E+05
  0.1597619E+01 -0.1332848E+06 -0.3939280E+05 -0.1146115E-03 -0.4333496E-02  0.3337170E+06  0.5473952E+05
  0.1628572E+01 -0.1325283E+06 -0.4276630E+05  0.5153187E-03  0.6607056E-02  0.3323268E+06  0.5884336E+05
  0.1659524E+01 -0.1316208E+06 -0.4617374E+05 -0.5250162E-02 -0.3723145E-02  0.3306914E+06  0.6288385E+05
  0.1690476E+01 -0.1305841E+06 -0.4959873E+05 -0.2906477E-02  0.1403809E-02  0.3289759E+06  0.6687907E+05
  0.1721429E+01 -0.1293245E+06 -0.5294905E+05  0.6071859E-02  0.7614136E-02  0.3269789E+06  0.7065584E+05
  0.1752381E+01 -0.1279350E+06 -0.5623043E+05 -0.5024205E-02 -0.5844116E-02  0.3248624E+06  0.7424840E+05
  0.1783333E+01 -0.1264841E+06 -0.5942713E+05 -0.3088835E-02 -0.1480103E-02  0.3226744E+06  0.7763541E+05
  0.1814286E+01 -0.1249011E+06 -0.6246043E+05  0.6408692E-02  0.9384155E-02  0.3203514E+06  0.8070724E+05
  0.1845238E+01 -0.1231829E+06 -0.6528589E+05 -0.8310625E-02  0.1892090E-02  0.3179054E+06  0.8339752E+05
  0.1876190E+01 -0.1214261E+06 -0.6792248E+05 -0.2114543E-03  0.2838135E-02  0.3154689E+06  0.8577156E+05
  0.1907143E+01 -0.1196059E+06 -0.7030334E+05  0.5544599E-02  0.1251221E-02  0.3129492E+06  0.8770918E+05
  0.1938095E+01 -0.1177708E+06 -0.7244555E+05 -0.1928906E-02  0.2075195E-02  0.3104822E+06  0.8929725E+05
  0.1969048E+01 -0.1159256E+06 -0.7432950E+05  0.1170148E-02  0.7049561E-02  0.3081029E+06  0.9053691E+05
  0.2000000E+01 -0.1139820E+06 -0.7580759E+05  0.1060486E-02 -0.3906250E-02  0.3056171E+06  0.9115416E+05
