VARIABLES="w (rad/s)"
"abs(F   1   1)" "angle(F   1   1)"
"abs(F   1   2)" "angle(F   1   2)"
"abs(F   1   3)" "angle(F   1   3)"
Zone t="Diffraction force - beta =   0.000 deg",I=    64,F=POINT
  0.5000000E-01  0.3067382E+04 -0.1570793E+01  0.2253175E+03 -0.3102568E+01  0.9218318E+04  0.1570800E+01
  0.8095238E-01  0.5027716E+04 -0.1570787E+01  0.5844855E+03 -0.3101342E+01  0.1509720E+05  0.1570806E+01
  0.1119048E+00  0.7017087E+04 -0.1570777E+01  0.1108881E+04 -0.3099809E+01  0.2105235E+05  0.1570815E+01
  0.1428571E+00  0.9089192E+04 -0.1570763E+01  0.1798294E+04 -0.3097875E+01  0.2722484E+05  0.1570829E+01
  0.1738095E+00  0.1122287E+05 -0.1570742E+01  0.2652952E+04 -0.3095485E+01  0.3362298E+05  0.1570850E+01
  0.2047619E+00  0.1348069E+05 -0.1570712E+01  0.3668833E+04 -0.3092400E+01  0.4034631E+05  0.1570879E+01
  0.2357143E+00  0.1589841E+05 -0.1570668E+01  0.4844045E+04 -0.3088494E+01  0.4750716E+05  0.1570923E+01
  0.2666667E+00  0.1845775E+05 -0.1570604E+01  0.6186671E+04 -0.3083908E+01  0.5512593E+05  0.1570986E+01
  0.2976190E+00  0.2128154E+05 -0.1570510E+01  0.7667987E+04 -0.3077912E+01  0.6343878E+05  0.1571080E+01
  0.3285715E+00  0.2432259E+05 -0.1570370E+01  0.9315499E+04 -0.3071011E+01  0.7239108E+05  0.1571218E+01
  0.3595238E+00  0.2771001E+05 -0.1570163E+01  0.1107522E+05 -0.3062407E+01  0.8238315E+05  0.1571423E+01
  0.3904762E+00  0.3140518E+05 -0.1569853E+01  0.1297516E+05 -0.3052439E+01  0.9322227E+05  0.1571729E+01
  0.4214286E+00  0.3558691E+05 -0.1569406E+01  0.1495390E+05 -0.3041349E+01  0.1053228E+06  0.1572172E+01
  0.4523810E+00  0.4010241E+05 -0.1568750E+01  0.1700243E+05 -0.3028244E+01  0.1184626E+06  0.1572821E+01
  0.4833333E+00  0.4507541E+05 -0.1567851E+01  0.1912587E+05 -0.3015746E+01  0.1329125E+06  0.1573709E+01
  0.5142857E+00  0.5053252E+05 -0.1566612E+01  0.2118982E+05 -0.3001470E+01  0.1485746E+06  0.1574936E+01
  0.5452381E+00  0.5634658E+05 -0.1564974E+01  0.2333310E+05 -0.2988044E+01  0.1651970E+06  0.1576557E+01
  0.5761905E+00  0.6263493E+05 -0.1562871E+01  0.2538137E+05 -0.2974652E+01  0.1831073E+06  0.1578638E+01
  0.6071429E+00  0.6912898E+05 -0.1560169E+01  0.2738321E+05 -0.2960698E+01  0.2016726E+06  0.1581308E+01
  0.6380953E+00  0.7603572E+05 -0.1556841E+01  0.2945605E+05 -0.2948891E+01  0.2210404E+06  0.1584602E+01
  0.6690477E+00  0.8342984E+05 -0.1552773E+01  0.3129809E+05 -0.2936083E+01  0.2416188E+06  0.1588631E+01
  0.7000000E+00  0.9091904E+05 -0.1547797E+01  0.3309004E+05 -0.2923438E+01  0.2623095E+06  0.1593559E+01
  0.7309524E+00  0.9872234E+05 -0.1541863E+01  0.3490707E+05 -0.2912345E+01  0.2838474E+06  0.1599428E+01
  0.7619048E+00  0.1069691E+06 -0.1534866E+01  0.3650296E+05 -0.2900796E+01  0.3065227E+06  0.1606343E+01
  0.7928572E+00  0.1153338E+06 -0.1526642E+01  0.3796871E+05 -0.2889284E+01  0.3291332E+06  0.1614479E+01
  0.8238096E+00  0.1239901E+06 -0.1517099E+01  0.3937643E+05 -0.2878426E+01  0.3522486E+06  0.1623925E+01
  0.8547620E+00  0.1328321E+06 -0.1506123E+01  0.4075948E+05 -0.2868835E+01  0.3753070E+06  0.1634817E+01
  0.8857143E+00  0.1420851E+06 -0.1493648E+01  0.4176517E+05 -0.2857933E+01  0.3995834E+06  0.1647166E+01
  0.9166667E+00  0.1512022E+06 -0.1479442E+01  0.4271133E+05 -0.2847889E+01  0.4231587E+06  0.1661227E+01
  0.9476191E+00  0.1603687E+06 -0.1463455E+01  0.4355468E+05 -0.2838195E+01  0.4468857E+06  0.1677013E+01
  0.9785714E+00  0.1695951E+06 -0.1445705E+01  0.4434627E+05 -0.2829499E+01  0.4700089E+06  0.1694578E+01
  0.1009524E+01  0.1791234E+06 -0.1426251E+01  0.4480960E+05 -0.2820301E+01  0.4933423E+06  0.1713859E+01
  0.1040476E+01  0.1884260E+06 -0.1404825E+01  0.4511406E+05 -0.2811117E+01  0.5159105E+06  0.1735074E+01
  0.1071429E+01  0.1972681E+06 -0.1381359E+01  0.4530506E+05 -0.2802432E+01  0.5364705E+06  0.1758354E+01
  0.1102381E+01  0.2059470E+06 -0.1355917E+01  0.4541668E+05 -0.2794167E+01  0.5567477E+06  0.1783518E+01
  0.1133333E+01  0.2140596E+06 -0.1328523E+01  0.4547431E+05 -0.2786745E+01  0.5744499E+06  0.1810705E+01
  0.1164286E+01  0.2219866E+06 -0.1299371E+01  0.4518469E+05 -0.2779054E+01  0.5917071E+06  0.1839550E+01
  0.1195238E+01  0.2290322E+06 -0.1268224E+01  0.4475897E+05 -0.2771275E+01  0.6068606E+06  0.1870247E+01
  0.1226190E+01  0.2350587E+06 -0.1235492E+01  0.4425114E+05 -0.2764014E+01  0.6183259E+06  0.1902577E+01
  0.1257143E+01  0.2401402E+06 -0.1201258E+01  0.4363969E+05 -0.2756554E+01  0.6270318E+06  0.1936373E+01
  0.1288095E+01  0.2446040E+06 -0.1166102E+01  0.4298730E+05 -0.2750027E+01  0.6334999E+06  0.1971166E+01
  0.1319048E+01  0.2478232E+06 -0.1129807E+01  0.4227230E+05 -0.2743945E+01  0.6361522E+06  0.2007113E+01
  0.1350000E+01  0.2502562E+06 -0.1092757E+01  0.4122801E+05 -0.2738059E+01  0.6372809E+06  0.2043605E+01
  0.1380952E+01  0.2510775E+06 -0.1054700E+01  0.4015293E+05 -0.2732267E+01  0.6343709E+06  0.2081027E+01
  0.1411905E+01  0.2496201E+06 -0.1016128E+01  0.3902932E+05 -0.2726923E+01  0.6259058E+06  0.2118585E+01
  0.1442857E+01  0.2478600E+06 -0.9779869E+00  0.3783519E+05 -0.2721467E+01  0.6156356E+06  0.2156143E+01
  0.1473810E+01  0.2450118E+06 -0.9399427E+00  0.3662298E+05 -0.2716306E+01  0.6030691E+06  0.2193509E+01
  0.1504762E+01  0.2408145E+06 -0.9025150E+00  0.3542527E+05 -0.2711623E+01  0.5864716E+06  0.2230332E+01
  0.1535714E+01  0.2357193E+06 -0.8657154E+00  0.3413305E+05 -0.2707948E+01  0.5681287E+06  0.2266395E+01
  0.1566667E+01  0.2298271E+06 -0.8296784E+00  0.3268133E+05 -0.2704583E+01  0.5486875E+06  0.2301462E+01
  0.1597619E+01  0.2226891E+06 -0.7945331E+00  0.3125178E+05 -0.2701314E+01  0.5263230E+06  0.2335654E+01
  0.1628572E+01  0.2145881E+06 -0.7606843E+00  0.2984685E+05 -0.2698349E+01  0.5014684E+06  0.2368544E+01
  0.1659524E+01  0.2057918E+06 -0.7279234E+00  0.2841351E+05 -0.2695681E+01  0.4753900E+06  0.2400367E+01
  0.1690476E+01  0.1964921E+06 -0.6961480E+00  0.2699502E+05 -0.2693355E+01  0.4490728E+06  0.2431058E+01
  0.1721429E+01  0.1866094E+06 -0.6659787E+00  0.2562791E+05 -0.2691309E+01  0.4213829E+06  0.2459993E+01
  0.1752381E+01  0.1764380E+06 -0.6375576E+00  0.2431363E+05 -0.2689548E+01  0.3933972E+06  0.2487115E+01
  0.1783333E+01  0.1661461E+06 -0.6104303E+00  0.2292288E+05 -0.2689921E+01  0.3660911E+06  0.2512650E+01
  0.1814286E+01  0.1556589E+06 -0.5844770E+00  0.2152106E+05 -0.2690612E+01  0.3391820E+06  0.2536961E+01
  0.1845238E+01  0.1448085E+06 -0.5596082E+00  0.2018267E+05 -0.2691216E+01  0.3117935E+06  0.2560068E+01
  0.1876190E+01  0.1338234E+06 -0.5362104E+00  0.1890740E+05 -0.2692026E+01  0.2843546E+06  0.2581470E+01
  0.1907143E+01  0.1228247E+06 -0.5140682E+00  0.1766708E+05 -0.2693761E+01  0.2573435E+06  0.2601497E+01
  0.1938095E+01  0.1119206E+06 -0.4924601E+00  0.1646221E+05 -0.2696337E+01  0.2314666E+06  0.2620842E+01
  0.1969048E+01  0.1011510E+06 -0.4719963E+00  0.1531524E+05 -0.2699337E+01  0.2064693E+06  0.2638716E+01
  0.2000000E+01  0.9048955E+05 -0.4529070E+00  0.1424664E+05 -0.2702458E+01  0.1820459E+06  0.2654464E+01
