VARIABLES="w (rad/s)"
"abs(F   1   1)" "angle(F   1   1)"
"abs(F   1   2)" "angle(F   1   2)"
"abs(F   1   3)" "angle(F   1   3)"
Zone t="Diffraction force - beta =   0.000 deg",I=    64,F=POINT
  0.5000000E-01  0.2931698E+04 -0.1570844E+01  0.9601838E+05 -0.6824698E-05  0.1377823E+05  0.1570808E+01
  0.8095238E-01  0.4785079E+04 -0.1570790E+01  0.9560319E+05 -0.1831629E-04  0.2244683E+05  0.1570805E+01
  0.1119048E+00  0.6673983E+04 -0.1570809E+01  0.9499296E+05 -0.3624112E-04  0.3125851E+05  0.1570801E+01
  0.1428571E+00  0.8612822E+04 -0.1570793E+01  0.9418925E+05 -0.6187071E-04  0.4028212E+05  0.1570802E+01
  0.1738095E+00  0.1062248E+05 -0.1570793E+01  0.9319391E+05 -0.9697669E-04  0.4959244E+05  0.1570799E+01
  0.2047619E+00  0.1271224E+05 -0.1570783E+01  0.9200930E+05 -0.1444205E-03  0.5926309E+05  0.1570805E+01
  0.2357143E+00  0.1491970E+05 -0.1570771E+01  0.9063977E+05 -0.2080525E-03  0.6940927E+05  0.1570823E+01
  0.2666667E+00  0.1727089E+05 -0.1570760E+01  0.8908934E+05 -0.2921957E-03  0.8013784E+05  0.1570828E+01
  0.2976190E+00  0.1978460E+05 -0.1570736E+01  0.8736540E+05 -0.4054839E-03  0.9157074E+05  0.1570849E+01
  0.3285715E+00  0.2250612E+05 -0.1570721E+01  0.8547540E+05 -0.5545454E-03  0.1038446E+06  0.1570874E+01
  0.3595238E+00  0.2546011E+05 -0.1570682E+01  0.8343230E+05 -0.7524016E-03  0.1170870E+06  0.1570907E+01
  0.3904762E+00  0.2867976E+05 -0.1570628E+01  0.8124670E+05 -0.1012179E-02  0.1314273E+06  0.1570969E+01
  0.4214286E+00  0.3220548E+05 -0.1570547E+01  0.7893983E+05 -0.1339123E-02  0.1469885E+06  0.1571047E+01
  0.4523810E+00  0.3601579E+05 -0.1570429E+01  0.7652230E+05 -0.1762324E-02  0.1636885E+06  0.1571165E+01
  0.4833333E+00  0.4014954E+05 -0.1570272E+01  0.7402153E+05 -0.2256405E-02  0.1815935E+06  0.1571321E+01
  0.5142857E+00  0.4452754E+05 -0.1570052E+01  0.7144669E+05 -0.2859206E-02  0.2004344E+06  0.1571539E+01
  0.5452381E+00  0.4916179E+05 -0.1569766E+01  0.6881503E+05 -0.3551394E-02  0.2200992E+06  0.1571826E+01
  0.5761905E+00  0.5397970E+05 -0.1569403E+01  0.6614335E+05 -0.4330868E-02  0.2403218E+06  0.1572191E+01
  0.6071429E+00  0.5894811E+05 -0.1568934E+01  0.6343670E+05 -0.5234745E-02  0.2609157E+06  0.1572658E+01
  0.6380953E+00  0.6408592E+05 -0.1568363E+01  0.6071446E+05 -0.6215672E-02  0.2817996E+06  0.1573229E+01
  0.6690477E+00  0.6926540E+05 -0.1567665E+01  0.5798399E+05 -0.7311277E-02  0.3026289E+06  0.1573928E+01
  0.7000000E+00  0.7451363E+05 -0.1566818E+01  0.5525175E+05 -0.8545013E-02  0.3233451E+06  0.1574775E+01
  0.7309524E+00  0.7985385E+05 -0.1565812E+01  0.5253690E+05 -0.9881339E-02  0.3438684E+06  0.1575780E+01
  0.7619048E+00  0.8519008E+05 -0.1564626E+01  0.4984734E+05 -0.1135025E-01  0.3640502E+06  0.1576967E+01
  0.7928572E+00  0.9050631E+05 -0.1563238E+01  0.4718784E+05 -0.1297647E-01  0.3837207E+06  0.1578354E+01
  0.8238096E+00  0.9582518E+05 -0.1561629E+01  0.4456664E+05 -0.1477028E-01  0.4028715E+06  0.1579963E+01
  0.8547620E+00  0.1011782E+06 -0.1559782E+01  0.4200812E+05 -0.1667392E-01  0.4215736E+06  0.1581809E+01
  0.8857143E+00  0.1064018E+06 -0.1557678E+01  0.3950619E+05 -0.1876930E-01  0.4393162E+06  0.1583914E+01
  0.9166667E+00  0.1115761E+06 -0.1555293E+01  0.3706557E+05 -0.2107441E-01  0.4563216E+06  0.1586297E+01
  0.9476191E+00  0.1166728E+06 -0.1552613E+01  0.3469288E+05 -0.2362694E-01  0.4724011E+06  0.1588975E+01
  0.9785714E+00  0.1217757E+06 -0.1549614E+01  0.3241245E+05 -0.2624159E-01  0.4878145E+06  0.1591972E+01
  0.1009524E+01  0.1267013E+06 -0.1546278E+01  0.3021291E+05 -0.2911282E-01  0.5021968E+06  0.1595308E+01
  0.1040476E+01  0.1314488E+06 -0.1542594E+01  0.2809700E+05 -0.3225980E-01  0.5152801E+06  0.1598988E+01
  0.1071429E+01  0.1361076E+06 -0.1538539E+01  0.2606649E+05 -0.3573287E-01  0.5275291E+06  0.1603040E+01
  0.1102381E+01  0.1406195E+06 -0.1534110E+01  0.2412889E+05 -0.3945532E-01  0.5384494E+06  0.1607463E+01
  0.1133333E+01  0.1450783E+06 -0.1529283E+01  0.2229126E+05 -0.4325336E-01  0.5485042E+06  0.1612283E+01
  0.1164286E+01  0.1492816E+06 -0.1524038E+01  0.2054894E+05 -0.4736115E-01  0.5572786E+06  0.1617523E+01
  0.1195238E+01  0.1532342E+06 -0.1518391E+01  0.1889853E+05 -0.5184387E-01  0.5644668E+06  0.1623159E+01
  0.1226190E+01  0.1570580E+06 -0.1512286E+01  0.1733951E+05 -0.5674391E-01  0.5708304E+06  0.1629252E+01
  0.1257143E+01  0.1605680E+06 -0.1505785E+01  0.1587132E+05 -0.6219756E-01  0.5755136E+06  0.1635736E+01
  0.1288095E+01  0.1641067E+06 -0.1498769E+01  0.1449949E+05 -0.6744169E-01  0.5795548E+06  0.1642735E+01
  0.1319048E+01  0.1673861E+06 -0.1491316E+01  0.1321703E+05 -0.7309777E-01  0.5824438E+06  0.1650166E+01
  0.1350000E+01  0.1703311E+06 -0.1483437E+01  0.1202431E+05 -0.7903016E-01  0.5838115E+06  0.1658027E+01
  0.1380952E+01  0.1729700E+06 -0.1475178E+01  0.1091331E+05 -0.8543933E-01  0.5835429E+06  0.1666246E+01
  0.1411905E+01  0.1751982E+06 -0.1466334E+01  0.9883409E+04 -0.9240678E-01  0.5823411E+06  0.1675061E+01
  0.1442857E+01  0.1773472E+06 -0.1457212E+01  0.8928142E+04 -0.9999881E-01  0.5797687E+06  0.1684131E+01
  0.1473810E+01  0.1793040E+06 -0.1447652E+01  0.8048932E+04 -0.1075586E+00  0.5762138E+06  0.1693641E+01
  0.1504762E+01  0.1811122E+06 -0.1437667E+01  0.7236517E+04 -0.1155856E+00  0.5718999E+06  0.1703551E+01
  0.1535714E+01  0.1824961E+06 -0.1427282E+01  0.6499001E+04 -0.1232342E+00  0.5663579E+06  0.1713907E+01
  0.1566667E+01  0.1835412E+06 -0.1416641E+01  0.5822947E+04 -0.1314849E+00  0.5594258E+06  0.1724451E+01
  0.1597619E+01  0.1842731E+06 -0.1405713E+01  0.5205704E+04 -0.1400970E+00  0.5513652E+06  0.1735273E+01
  0.1628572E+01  0.1847575E+06 -0.1394380E+01  0.4643186E+04 -0.1494292E+00  0.5428057E+06  0.1746544E+01
  0.1659524E+01  0.1849170E+06 -0.1382918E+01  0.4130155E+04 -0.1598572E+00  0.5330946E+06  0.1757869E+01
  0.1690476E+01  0.1848182E+06 -0.1371323E+01  0.3667064E+04 -0.1701093E+00  0.5225452E+06  0.1769325E+01
  0.1721429E+01  0.1845158E+06 -0.1359623E+01  0.3245098E+04 -0.1809299E+00  0.5114582E+06  0.1780826E+01
  0.1752381E+01  0.1839758E+06 -0.1347756E+01  0.2865791E+04 -0.1924271E+00  0.5000515E+06  0.1792590E+01
  0.1783333E+01  0.1830051E+06 -0.1336005E+01  0.2529541E+04 -0.2009490E+00  0.4876522E+06  0.1804342E+01
  0.1814286E+01  0.1816780E+06 -0.1324644E+01  0.2225825E+04 -0.2114896E+00  0.4741532E+06  0.1815304E+01
  0.1845238E+01  0.1801070E+06 -0.1313371E+01  0.1953959E+04 -0.2214758E+00  0.4603178E+06  0.1826288E+01
  0.1876190E+01  0.1783084E+06 -0.1302094E+01  0.1711436E+04 -0.2326317E+00  0.4465009E+06  0.1837472E+01
  0.1907143E+01  0.1762780E+06 -0.1291190E+01  0.1493640E+04 -0.2473382E+00  0.4323117E+06  0.1848155E+01
  0.1938095E+01  0.1739811E+06 -0.1280882E+01  0.1300492E+04 -0.2599285E+00  0.4175479E+06  0.1857975E+01
  0.1969048E+01  0.1715802E+06 -0.1270872E+01  0.1127805E+04 -0.2744426E+00  0.4029962E+06  0.1867614E+01
  0.2000000E+01  0.1690925E+06 -0.1261218E+01  0.9741801E+03 -0.2964463E+00  0.3887341E+06  0.1876907E+01
