VARIABLES="w (rad/s)"
"A   1   1" "B   1   1"
"A   1   2" "B   1   2"
"A   1   3" "B   1   3"
Zone t="Motion of body    1 in DoF   1",I=    64,F=POINT
  0.5000000E-01  0.8629658E+05  0.6588684E-02 -0.6484985E-02 -0.3601235E-05 -0.1439674E+06 -0.9786878E-02
  0.8095238E-01  0.8681753E+05  0.2885537E-01 -0.1781239E-01 -0.6722356E-04 -0.1447901E+06 -0.4241364E-01
  0.1119048E+00  0.8706657E+05  0.8100524E-01 -0.1336280E-01 -0.5494338E-05 -0.1449521E+06 -0.1183212E+00
  0.1428571E+00  0.8712668E+05  0.1820077E+00 -0.1826477E-01 -0.1116114E-03 -0.1449880E+06 -0.2656062E+00
  0.1738095E+00  0.8733049E+05  0.3619915E+00 -0.9569142E-02 -0.6688130E-04 -0.1451198E+06 -0.5270196E+00
  0.2047619E+00  0.8730484E+05  0.6665077E+00 -0.1296642E-01 -0.1375386E-03 -0.1451665E+06 -0.9690707E+00
  0.2357143E+00  0.8758236E+05  0.1172021E+01 -0.1605409E-01 -0.2133502E-03 -0.1452247E+06 -0.1696784E+01
  0.2666667E+00  0.8767918E+05  0.1994880E+01 -0.5950927E-02 -0.2648123E-04 -0.1454163E+06 -0.2879092E+01
  0.2976190E+00  0.8773720E+05  0.3336756E+01 -0.3229981E-02  0.9849668E-05 -0.1455137E+06 -0.4800275E+01
  0.3285715E+00  0.8809579E+05  0.5510524E+01 -0.2818895E-01 -0.8656196E-03 -0.1455839E+06 -0.7881160E+01
  0.3595238E+00  0.8830464E+05  0.9021674E+01 -0.1044065E-01 -0.1284927E-03 -0.1457835E+06 -0.1284046E+02
  0.3904762E+00  0.8842803E+05  0.1465281E+02  0.7033929E-03  0.2367049E-03 -0.1459271E+06 -0.2075192E+02
  0.4214286E+00  0.8874298E+05  0.2349648E+02 -0.1339670E-01 -0.6958395E-03 -0.1461215E+06 -0.3307069E+02
  0.4523810E+00  0.8911709E+05  0.3735376E+02 -0.1146818E-02  0.1391768E-04 -0.1463908E+06 -0.5223436E+02
  0.4833333E+00  0.8948852E+05  0.5789214E+02 -0.3472690E-02  0.1925230E-04 -0.1467690E+06 -0.8041286E+02
  0.5142857E+00  0.8971927E+05  0.8817731E+02  0.1186795E-02  0.3158450E-03 -0.1470515E+06 -0.1216873E+03
  0.5452381E+00  0.9020994E+05  0.1312179E+03 -0.1919809E-01 -0.2213120E-02 -0.1472906E+06 -0.1795683E+03
  0.5761905E+00  0.9069805E+05  0.1906264E+03  0.5826083E-03 -0.1546144E-03 -0.1477008E+06 -0.2587362E+03
  0.6071429E+00  0.9117780E+05  0.2717734E+03  0.9550205E-02  0.2520800E-02 -0.1481605E+06 -0.3658536E+03
  0.6380953E+00  0.9165940E+05  0.3787888E+03  0.4782605E-03  0.1393795E-02 -0.1486421E+06 -0.5055514E+03
  0.6690477E+00  0.9215105E+05  0.5186901E+03 -0.9578827E-02  0.1226902E-02 -0.1490185E+06 -0.6857712E+03
  0.7000000E+00  0.9283709E+05  0.7000411E+03 -0.8370535E-02 -0.1139641E-02 -0.1495486E+06 -0.9162751E+03
  0.7309524E+00  0.9361203E+05  0.9302739E+03 -0.1837019E-02  0.8659363E-03 -0.1501121E+06 -0.1204610E+04
  0.7619048E+00  0.9427379E+05  0.1219022E+04 -0.1602173E-03  0.2450943E-03 -0.1507111E+06 -0.1562066E+04
  0.7928572E+00  0.9489745E+05  0.1577316E+04  0.1193210E-01  0.5237579E-02 -0.1513442E+06 -0.1999995E+04
  0.8238096E+00  0.9559476E+05  0.2017451E+04 -0.4371246E-02 -0.2401352E-02 -0.1518128E+06 -0.2527833E+04
  0.8547620E+00  0.9646785E+05  0.2553502E+04 -0.3427489E-02  0.2744675E-02 -0.1524052E+06 -0.3159737E+04
  0.8857143E+00  0.9729422E+05  0.3198604E+04 -0.9302939E-02 -0.3791809E-02 -0.1529552E+06 -0.3907893E+04
  0.9166667E+00  0.9818441E+05  0.3969282E+04 -0.2796520E-02 -0.2975464E-03 -0.1536173E+06 -0.4787155E+04
  0.9476191E+00  0.9901479E+05  0.4879551E+04  0.3800128E-02  0.2311707E-02 -0.1541021E+06 -0.5804367E+04
  0.9785714E+00  0.9985042E+05  0.5946427E+04 -0.2494868E-03 -0.2365112E-03 -0.1546453E+06 -0.6975188E+04
  0.1009524E+01  0.1005762E+06  0.7182980E+04 -0.1692862E-02  0.3219604E-02 -0.1551008E+06 -0.8306925E+04
  0.1040476E+01  0.1012843E+06  0.8605578E+04 -0.1583841E-02  0.2906799E-02 -0.1553798E+06 -0.9802961E+04
  0.1071429E+01  0.1020579E+06  0.1023188E+05  0.1481120E-02  0.2723694E-02 -0.1556626E+06 -0.1147539E+05
  0.1102381E+01  0.1027931E+06  0.1207320E+05 -0.1550267E-02  0.2380371E-02 -0.1557915E+06 -0.1332115E+05
  0.1133333E+01  0.1035021E+06  0.1414150E+05 -0.2261891E-02  0.2136230E-03 -0.1559374E+06 -0.1534875E+05
  0.1164286E+01  0.1040359E+06  0.1644024E+05  0.1048457E-01  0.1069641E-01 -0.1559237E+06 -0.1754659E+05
  0.1195238E+01  0.1043946E+06  0.1897222E+05 -0.5310788E-02 -0.3051758E-03 -0.1556684E+06 -0.1989497E+05
  0.1226190E+01  0.1046624E+06  0.2174356E+05 -0.1095077E-02 -0.7873535E-02 -0.1554293E+06 -0.2240088E+05
  0.1257143E+01  0.1046348E+06  0.2473880E+05 -0.6408691E-02 -0.5187988E-02 -0.1547928E+06 -0.2501128E+05
  0.1288095E+01  0.1046125E+06  0.2793196E+05 -0.1478382E-01 -0.5798340E-02 -0.1540496E+06 -0.2768741E+05
  0.1319048E+01  0.1043931E+06  0.3132728E+05  0.2776328E-03  0.1266479E-01 -0.1532094E+06 -0.3044979E+05
  0.1350000E+01  0.1039631E+06  0.3488827E+05 -0.8228444E-02  0.8850098E-03 -0.1521255E+06 -0.3322986E+05
  0.1380952E+01  0.1033388E+06  0.3859312E+05 -0.1679519E-02  0.2410889E-02 -0.1508766E+06 -0.3600155E+05
  0.1411905E+01  0.1019500E+06  0.4194553E+05 -0.2420821E-02  0.1080322E-01 -0.1494595E+06 -0.3840647E+05
  0.1442857E+01  0.1009344E+06  0.4578470E+05 -0.3807143E-02  0.1525879E-02 -0.1479002E+06 -0.4100060E+05
  0.1473810E+01  0.9978212E+05  0.4965068E+05 -0.4969583E-03 -0.6774902E-02 -0.1462532E+06 -0.4346326E+05
  0.1504762E+01  0.9848581E+05  0.5349719E+05 -0.1184391E-01 -0.6103516E-02 -0.1445424E+06 -0.4575527E+05
  0.1535714E+01  0.9699206E+05  0.5729080E+05 -0.5087209E-02 -0.1220703E-03 -0.1427836E+06 -0.4787768E+05
  0.1566667E+01  0.9530176E+05  0.6096064E+05 -0.1714179E-02  0.6652832E-02 -0.1408097E+06 -0.4969515E+05
  0.1597619E+01  0.9350199E+05  0.6450352E+05 -0.5501350E-02  0.9155273E-02 -0.1388622E+06 -0.5128324E+05
  0.1628572E+01  0.9164305E+05  0.6789227E+05 -0.5246882E-03  0.7568359E-02 -0.1370105E+06 -0.5264075E+05
  0.1659524E+01  0.8962854E+05  0.7104170E+05 -0.1544706E-02  0.8789062E-02 -0.1350220E+06 -0.5363319E+05
  0.1690476E+01  0.8758799E+05  0.7396556E+05 -0.7221060E-02  0.6103516E-03 -0.1331119E+06 -0.5435580E+05
  0.1721429E+01  0.8552462E+05  0.7663125E+05 -0.3687435E-02 -0.2319336E-02 -0.1312484E+06 -0.5475055E+05
  0.1752381E+01  0.8345805E+05  0.7905718E+05  0.3831283E-02  0.3906250E-02 -0.1295493E+06 -0.5492549E+05
  0.1783333E+01  0.8135946E+05  0.8121549E+05 -0.2738026E-02 -0.9765625E-03 -0.1279260E+06 -0.5484968E+05
  0.1814286E+01  0.7922771E+05  0.8305476E+05  0.2691314E-03 -0.0000000E+00 -0.1262369E+06 -0.5435871E+05
  0.1845238E+01  0.7717662E+05  0.8465479E+05 -0.3836946E-02  0.1879883E-01 -0.1247532E+06 -0.5373254E+05
  0.1876190E+01  0.7521648E+05  0.8602477E+05 -0.2732640E-02 -0.1464844E-02 -0.1234624E+06 -0.5295348E+05
  0.1907143E+01  0.7328398E+05  0.8710123E+05 -0.2432263E-02  0.1586914E-02 -0.1221879E+06 -0.5188021E+05
  0.1938095E+01  0.7141790E+05  0.8792609E+05  0.9447702E-03  0.1342773E-02 -0.1210104E+06 -0.5061862E+05
  0.1969048E+01  0.6965844E+05  0.8852746E+05 -0.2479784E-02  0.6103516E-03 -0.1199773E+06 -0.4922510E+05
  0.2000000E+01  0.6800775E+05  0.8892040E+05 -0.2868652E-02 -0.7324219E-02 -0.1190913E+06 -0.4768586E+05
Zone t="Motion of body    1 in DoF   2",I=    64,F=POINT
  0.5000000E-01 -0.1998901E-01  0.5435944E-04  0.5678814E+05  0.1744755E+03 -0.7095337E-02 -0.7414818E-04
  0.8095238E-01  0.1083823E-01 -0.1668930E-04  0.5601655E+05  0.2893471E+03  0.1696418E-02  0.2431870E-04
  0.1119048E+00 -0.3681589E-02  0.4959106E-04  0.5558340E+05  0.4144601E+03 -0.1145383E-01 -0.1726151E-03
  0.1428571E+00 -0.7476806E-02 -0.1163483E-03  0.5540328E+05  0.5545830E+03 -0.3417969E-01 -0.2231598E-03
  0.1738095E+00 -0.4565095E-02  0.1373291E-03  0.5533989E+05  0.7157178E+03 -0.1141274E-02  0.4673004E-04
  0.2047619E+00 -0.1639433E-01  0.1583099E-03  0.5544916E+05  0.9054568E+03  0.1997127E-01 -0.1430511E-03
  0.2357143E+00 -0.6343957E-02  0.1678467E-03  0.5561604E+05  0.1134373E+04 -0.2123283E-01 -0.4405975E-03
  0.2666667E+00 -0.7896423E-02 -0.2555847E-03  0.5587822E+05  0.1411397E+04  0.5722045E-03  0.4196167E-03
  0.2976190E+00 -0.4204101E-02  0.1525879E-03  0.5621371E+05  0.1756644E+04 -0.1025391E-02 -0.7438660E-03
  0.3285715E+00 -0.7616125E-02  0.6828308E-03  0.5658050E+05  0.2180788E+04 -0.2916419E-01  0.2784729E-03
  0.3595238E+00  0.4583700E-02 -0.5035400E-03  0.5690648E+05  0.2708045E+04 -0.4923233E-02 -0.1220703E-02
  0.3904762E+00  0.9065953E-02 -0.5111694E-03  0.5728771E+05  0.3356492E+04  0.2477506E-01 -0.1281738E-02
  0.4214286E+00 -0.1173116E-01  0.5111694E-03  0.5745962E+05  0.4120492E+04  0.1708984E-01 -0.1281738E-02
  0.4523810E+00  0.8499948E-02 -0.4272461E-03  0.5753619E+05  0.5039075E+04 -0.3238075E-02 -0.4180908E-02
  0.4833333E+00 -0.6440261E-02 -0.4119873E-03  0.5744700E+05  0.6038867E+04 -0.2664500E-01 -0.7476807E-03
  0.5142857E+00 -0.6646051E-02 -0.1068115E-03  0.5718736E+05  0.7166292E+04 -0.2171834E-01 -0.9002686E-03
  0.5452381E+00  0.1343307E-02  0.6866455E-03  0.5676268E+05  0.8361961E+04 -0.2574671E-01 -0.2151489E-02
  0.5761905E+00  0.1048695E-01  0.1953125E-02  0.5615787E+05  0.9605651E+04 -0.1726639E-01 -0.4104614E-02
  0.6071429E+00  0.2915326E-02 -0.2441406E-03  0.5544654E+05  0.1092236E+05  0.1256606E-01 -0.5157471E-02
  0.6380953E+00 -0.1033043E-01  0.9155273E-03  0.5471675E+05  0.1224323E+05 -0.2974780E-01  0.5798340E-02
  0.6690477E+00  0.2006992E-02 -0.1037598E-02  0.5385301E+05  0.1359576E+05  0.1569103E-01 -0.4791260E-02
  0.7000000E+00 -0.1552037E-01 -0.2563477E-02  0.5287500E+05  0.1498277E+05 -0.1360212E-01 -0.2197266E-02
  0.7309524E+00  0.4509046E-02  0.2838135E-02  0.5186814E+05  0.1636508E+05 -0.1027061E-01 -0.1373291E-02
  0.7619048E+00 -0.4646301E-02  0.2441406E-03  0.5081530E+05  0.1774740E+05 -0.2811813E-01 -0.1177979E-01
  0.7928572E+00  0.1385663E-02  0.9155273E-03  0.4972167E+05  0.1912519E+05 -0.1123927E-01 -0.1068115E-01
  0.8238096E+00  0.5927113E-02  0.4943848E-02  0.4858618E+05  0.2048996E+05  0.3334001E-02 -0.6164551E-02
  0.8547620E+00  0.7140603E-02 -0.4882812E-03  0.4741766E+05  0.2182938E+05  0.1199621E-01 -0.6103516E-02
  0.8857143E+00 -0.7580173E-02 -0.7934570E-03  0.4620605E+05  0.2313919E+05 -0.3996818E-02 -0.4882812E-02
  0.9166667E+00 -0.8389560E-02  0.1586914E-02  0.4498938E+05  0.2440572E+05  0.3395774E-02 -0.1293945E-01
  0.9476191E+00 -0.1416997E-02  0.1220703E-02  0.4376223E+05  0.2562525E+05  0.6762940E-02 -0.1879883E-01
  0.9785714E+00 -0.1210011E-01  0.2624512E-02  0.4254597E+05  0.2678748E+05 -0.2058266E-02 -0.3662109E-02
  0.1009524E+01  0.7980635E-02  0.7202148E-02  0.4133481E+05  0.2789460E+05 -0.1390565E-02 -0.2227783E-01
  0.1040476E+01 -0.3285004E-02  0.5676270E-02  0.4012757E+05  0.2894403E+05 -0.1231877E-02 -0.9521484E-02
  0.1071429E+01 -0.6722006E-02 -0.1220703E-03  0.3893138E+05  0.2992873E+05 -0.1105143E-01 -0.5920410E-02
  0.1102381E+01  0.2879066E-02  0.9765625E-03  0.3775171E+05  0.3084727E+05 -0.6090333E-02 -0.2624512E-02
  0.1133333E+01  0.1723346E-02 -0.2441406E-02  0.3659087E+05  0.3169300E+05  0.5977855E-02  0.4333496E-02
  0.1164286E+01  0.2621141E-02  0.5493164E-02  0.3546480E+05  0.3246759E+05 -0.7077082E-02 -0.2624512E-01
  0.1195238E+01 -0.1000879E-01 -0.1342773E-02  0.3436941E+05  0.3316875E+05 -0.3319243E-02 -0.5859375E-02
  0.1226190E+01 -0.1284227E-01  0.2197266E-02  0.3332634E+05  0.3378771E+05 -0.6022925E-02 -0.2014160E-02
  0.1257143E+01  0.2621737E-02  0.1708984E-02  0.3231472E+05  0.3436207E+05 -0.5097823E-02 -0.6835938E-02
  0.1288095E+01 -0.4075028E-02 -0.2929688E-02  0.3134202E+05  0.3482130E+05 -0.6823302E-02 -0.1440430E-01
  0.1319048E+01  0.1480708E-02 -0.2807617E-02  0.3040843E+05  0.3523496E+05 -0.1013360E-01 -0.0000000E+00
  0.1350000E+01 -0.2170139E-02  0.1831055E-02  0.2950910E+05  0.3558773E+05 -0.1184534E-01 -0.2172852E-01
  0.1380952E+01  0.3712621E-02  0.5493164E-02  0.2865155E+05  0.3587366E+05 -0.1414332E-02 -0.1562500E-01
  0.1411905E+01  0.4668726E-02 -0.1245117E-01  0.2773551E+05  0.3608753E+05 -0.3198942E-02 -0.1147461E-01
  0.1442857E+01 -0.2453492E-02  0.1708984E-02  0.2695508E+05  0.3625979E+05 -0.4103255E-02 -0.7324219E-02
  0.1473810E+01 -0.1573701E-02 -0.7812500E-02  0.2622576E+05  0.3636414E+05 -0.1329363E-01 -0.1440430E-01
  0.1504762E+01 -0.9653598E-02 -0.7446289E-02  0.2553815E+05  0.3640452E+05  0.6773743E-02 -0.5493164E-02
  0.1535714E+01 -0.5444903E-02 -0.1220703E-02  0.2489522E+05  0.3640796E+05 -0.2026935E-02 -0.8666992E-02
  0.1566667E+01 -0.4285447E-02  0.2685547E-02  0.2427498E+05  0.3636611E+05 -0.1519386E-02  0.3417969E-02
  0.1597619E+01  0.3400140E-02  0.5371094E-02  0.2370048E+05  0.3627829E+05 -0.1902550E-01 -0.7080078E-02
  0.1628572E+01 -0.3148129E-02 -0.3051758E-02  0.2317008E+05  0.3613806E+05 -0.5471748E-02 -0.1171875E-01
  0.1659524E+01 -0.4781233E-03  0.6958008E-02  0.2266362E+05  0.3597055E+05 -0.1857325E-01 -0.4638672E-02
  0.1690476E+01 -0.3791057E-02 -0.2441406E-02  0.2219877E+05  0.3575888E+05 -0.2671792E-02 -0.6835938E-02
  0.1721429E+01 -0.1347332E-02  0.9155273E-02  0.2176562E+05  0.3550564E+05  0.1347332E-02 -0.2441406E-03
  0.1752381E+01  0.2054961E-02 -0.2441406E-03  0.2137087E+05  0.3522369E+05  0.6304202E-02 -0.0000000E+00
  0.1783333E+01 -0.6023657E-02 -0.3173828E-02  0.2100646E+05  0.3493088E+05  0.4928446E-02 -0.3784180E-02
  0.1814286E+01 -0.1883920E-02 -0.1586914E-02  0.2065503E+05  0.3460864E+05 -0.3465067E-02 -0.9033203E-02
  0.1845238E+01 -0.3870023E-02  0.8300781E-02  0.2034218E+05  0.3426381E+05 -0.3043095E-02 -0.8178711E-02
  0.1876190E+01 -0.2082011E-02  0.1831055E-02  0.2006296E+05  0.3388858E+05 -0.5270091E-02 -0.6958008E-02
  0.1907143E+01 -0.4224456E-02  0.5615234E-02  0.1979925E+05  0.3349593E+05 -0.1641777E-01 -0.1489258E-01
  0.1938095E+01 -0.7022792E-02  0.1586914E-02  0.1955788E+05  0.3308179E+05  0.8439948E-02 -0.7812500E-02
  0.1969048E+01 -0.6509433E-03 -0.4882812E-03  0.1934291E+05  0.3264458E+05 -0.8989217E-02 -0.8178711E-02
  0.2000000E+01 -0.4699707E-02 -0.7568359E-02  0.1915490E+05  0.3218301E+05 -0.1354980E-01  0.2685547E-02
Zone t="Motion of body    1 in DoF   3",I=    64,F=POINT
  0.5000000E-01 -0.1437342E+06 -0.9743735E-02  0.2470016E-01  0.3612243E-04  0.4951444E+06  0.1506434E-01
  0.8095238E-01 -0.1446293E+06 -0.4214752E-01 -0.1749431E-01 -0.6839022E-04  0.4959080E+06  0.6216953E-01
  0.1119048E+00 -0.1448105E+06 -0.1177725E+00  0.5556472E-02  0.3610330E-04  0.4960627E+06  0.1719519E+00
  0.1428571E+00 -0.1448346E+06 -0.2642981E+00  0.1766396E-01  0.1356788E-03  0.4961717E+06  0.3854370E+00
  0.1738095E+00 -0.1449898E+06 -0.5247348E+00 -0.2684188E-01 -0.4507494E-03  0.4961877E+06  0.7629558E+00
  0.2047619E+00 -0.1450172E+06 -0.9640876E+00 -0.1216534E-01 -0.8004811E-04  0.4962904E+06  0.1401742E+01
  0.2357143E+00 -0.1450779E+06 -0.1689454E+01 -0.5680431E-02 -0.3735963E-03  0.4964036E+06  0.2446089E+01
  0.2666667E+00 -0.1452827E+06 -0.2865098E+01 -0.6995201E-02 -0.3415942E-03  0.4964103E+06  0.4135550E+01
  0.2976190E+00 -0.1453571E+06 -0.4774815E+01 -0.3614502E-02 -0.4692674E-03  0.4966084E+06  0.6869823E+01
  0.3285715E+00 -0.1454290E+06 -0.7847602E+01 -0.1303797E-01 -0.6442070E-03  0.4967198E+06  0.1122359E+02
  0.3595238E+00 -0.1456329E+06 -0.1278407E+02 -0.1650981E-01 -0.1270086E-02  0.4968575E+06  0.1819236E+02
  0.3904762E+00 -0.1457543E+06 -0.2064957E+02 -0.2289935E-01 -0.1654580E-02  0.4970789E+06  0.2924421E+02
  0.4214286E+00 -0.1459474E+06 -0.3291891E+02  0.1616656E-01  0.9929836E-03  0.4972510E+06  0.4632816E+02
  0.4523810E+00 -0.1462250E+06 -0.5201046E+02  0.1450388E-02 -0.7221103E-03  0.4974923E+06  0.7274562E+02
  0.4833333E+00 -0.1466129E+06 -0.8004633E+02 -0.2408784E-01 -0.3557324E-02  0.4978006E+06  0.1111828E+03
  0.5142857E+00 -0.1468698E+06 -0.1210648E+03  0.2996657E-02 -0.6660223E-03  0.4981392E+06  0.1670689E+03
  0.5452381E+00 -0.1471130E+06 -0.1788052E+03  0.1730906E-01  0.3244638E-02  0.4983858E+06  0.2446930E+03
  0.5761905E+00 -0.1475336E+06 -0.2576388E+03  0.1738556E-01  0.1163244E-02  0.4987077E+06  0.3496694E+03
  0.6071429E+00 -0.1479912E+06 -0.3641928E+03 -0.5486342E-01 -0.1197648E-01  0.4991486E+06  0.4903719E+03
  0.6380953E+00 -0.1484607E+06 -0.5030198E+03 -0.5786953E-02 -0.8888245E-03  0.4995886E+06  0.6713710E+03
  0.6690477E+00 -0.1488193E+06 -0.6823571E+03 -0.2508740E-01 -0.4216671E-02  0.5000519E+06  0.9021395E+03
  0.7000000E+00 -0.1493578E+06 -0.9119285E+03 -0.8152553E-02 -0.5924225E-02  0.5005248E+06  0.1193629E+04
  0.7309524E+00 -0.1499365E+06 -0.1199364E+04 -0.4212618E-01 -0.1230431E-01  0.5009412E+06  0.1552918E+04
  0.7619048E+00 -0.1505298E+06 -0.1554469E+04 -0.2927971E-01 -0.1472282E-01  0.5014357E+06  0.1991839E+04
  0.7928572E+00 -0.1511397E+06 -0.1988331E+04 -0.7601900E-02 -0.6237030E-02  0.5019986E+06  0.2521301E+04
  0.8238096E+00 -0.1515895E+06 -0.2513613E+04 -0.9816782E-02 -0.5537033E-02  0.5025168E+06  0.3149634E+04
  0.8547620E+00 -0.1521888E+06 -0.3142942E+04 -0.2186810E-01 -0.8052826E-02  0.5028959E+06  0.3888686E+04
  0.8857143E+00 -0.1527438E+06 -0.3887350E+04 -0.1178372E-01 -0.7461548E-02  0.5032396E+06  0.4748274E+04
  0.9166667E+00 -0.1534042E+06 -0.4760383E+04  0.1508123E-01  0.6160736E-02  0.5036839E+06  0.5739651E+04
  0.9476191E+00 -0.1538878E+06 -0.5772346E+04 -0.5925624E-02 -0.4508972E-02  0.5039912E+06  0.6865106E+04
  0.9785714E+00 -0.1544209E+06 -0.6932761E+04  0.1222485E-01  0.3211975E-02  0.5041449E+06  0.8132255E+04
  0.1009524E+01 -0.1548517E+06 -0.8250640E+04 -0.6650529E-02 -0.9292603E-02  0.5043720E+06  0.9542754E+04
  0.1040476E+01 -0.1551208E+06 -0.9737007E+04 -0.1836083E-01 -0.3669739E-02  0.5044455E+06  0.1109146E+05
  0.1071429E+01 -0.1554004E+06 -0.1139877E+05  0.9114583E-03  0.1365662E-01  0.5043993E+06  0.1277918E+05
  0.1102381E+01 -0.1555405E+06 -0.1323761E+05 -0.1071345E-01 -0.1443481E-01  0.5041739E+06  0.1459577E+05
  0.1133333E+01 -0.1556861E+06 -0.1524769E+05  0.5924000E-03 -0.1156616E-01  0.5037577E+06  0.1653390E+05
  0.1164286E+01 -0.1556671E+06 -0.1742289E+05 -0.2096913E-02 -0.6637573E-02  0.5033272E+06  0.1857863E+05
  0.1195238E+01 -0.1554150E+06 -0.1975096E+05 -0.8681096E-02 -0.1588440E-01  0.5026702E+06  0.2069860E+05
  0.1226190E+01 -0.1551523E+06 -0.2221323E+05  0.5226505E-03 -0.8972168E-02  0.5019719E+06  0.2287865E+05
  0.1257143E+01 -0.1545054E+06 -0.2478568E+05  0.1242898E-01 -0.9460449E-03  0.5010065E+06  0.2506389E+05
  0.1288095E+01 -0.1537763E+06 -0.2745512E+05 -0.4548868E-02 -0.6072998E-02  0.4999168E+06  0.2722199E+05
  0.1319048E+01 -0.1529258E+06 -0.3017682E+05 -0.8051352E-02 -0.1028442E-01  0.4986622E+06  0.2932610E+05
  0.1350000E+01 -0.1518477E+06 -0.3292379E+05 -0.1387985E-01 -0.2090454E-01  0.4972543E+06  0.3133745E+05
  0.1380952E+01 -0.1506147E+06 -0.3565865E+05 -0.2607675E-02 -0.6439209E-02  0.4957120E+06  0.3322937E+05
  0.1411905E+01 -0.1500223E+06 -0.3856782E+05 -0.2442435E-02  0.5554199E-02  0.4943956E+06  0.3525892E+05
  0.1442857E+01 -0.1484778E+06 -0.4117943E+05 -0.1560929E-01 -0.1208496E-01  0.4926567E+06  0.3681490E+05
  0.1473810E+01 -0.1468425E+06 -0.4367206E+05  0.1271385E-01  0.3051758E-03  0.4909548E+06  0.3815593E+05
  0.1504762E+01 -0.1451294E+06 -0.4596720E+05 -0.2737890E-02  0.5493164E-02  0.4890830E+06  0.3919687E+05
  0.1535714E+01 -0.1433675E+06 -0.4808853E+05 -0.3676303E-02 -0.1287842E-01  0.4874550E+06  0.4004123E+05
  0.1566667E+01 -0.1414058E+06 -0.4993786E+05 -0.6213898E-02 -0.2319336E-02  0.4856012E+06  0.4051423E+05
  0.1597619E+01 -0.1394645E+06 -0.5155302E+05 -0.1228253E-01 -0.2557373E-01  0.4839594E+06  0.4077580E+05
  0.1628572E+01 -0.1375981E+06 -0.5289202E+05  0.4056964E-02 -0.1495361E-01  0.4824110E+06  0.4073400E+05
  0.1659524E+01 -0.1356175E+06 -0.5392057E+05 -0.3208943E-02 -0.3540039E-02  0.4808543E+06  0.4038614E+05
  0.1690476E+01 -0.1337070E+06 -0.5468254E+05 -0.7040534E-03 -0.2246094E-01  0.4795051E+06  0.3982838E+05
  0.1721429E+01 -0.1318425E+06 -0.5508487E+05 -0.6382099E-02 -0.1947021E-01  0.4780703E+06  0.3891553E+05
  0.1752381E+01 -0.1301348E+06 -0.5521539E+05  0.6188828E-02 -0.4272461E-03  0.4768459E+06  0.3781265E+05
  0.1783333E+01 -0.1285137E+06 -0.5512151E+05  0.5794107E-02 -0.4821777E-02  0.4759284E+06  0.3668571E+05
  0.1814286E+01 -0.1268452E+06 -0.5468194E+05 -0.4146306E-02 -0.1324463E-01  0.4748428E+06  0.3511357E+05
  0.1845238E+01 -0.1253729E+06 -0.5409170E+05 -0.8868802E-02 -0.1611328E-01  0.4741088E+06  0.3362082E+05
  0.1876190E+01 -0.1240845E+06 -0.5328945E+05 -0.4920379E-02 -0.1416016E-01  0.4734988E+06  0.3195258E+05
  0.1907143E+01 -0.1228178E+06 -0.5225227E+05 -0.2264244E-02 -0.7934570E-03  0.4729456E+06  0.3017295E+05
  0.1938095E+01 -0.1216438E+06 -0.5105847E+05  0.2850057E-02  0.3051758E-03  0.4725500E+06  0.2836155E+05
  0.1969048E+01 -0.1206058E+06 -0.4969688E+05 -0.1952830E-02 -0.9460449E-02  0.4722531E+06  0.2652023E+05
  0.2000000E+01 -0.1197152E+06 -0.4811688E+05  0.8911133E-02 -0.2990723E-02  0.4719313E+06  0.2440730E+05
