VARIABLES="w (rad/s)"
"A   1   1" "B   1   1"
"A   1   2" "B   1   2"
"A   1   3" "B   1   3"
Zone t="Motion of body    1 in DoF   1",I=    64,F=POINT
  0.5000000E-01  0.1461652E+06  0.1822662E-01  0.5340576E-03  0.2372314E-04 -0.4436959E+05  0.3930115E-02
  0.8095238E-01  0.1468046E+06  0.8032250E-01  0.2224193E-01  0.6452634E-04 -0.4480145E+05  0.1743069E-01
  0.1119048E+00  0.1468585E+06  0.2251374E+00  0.2433939E-01  0.1838644E-03 -0.4509783E+05  0.4902979E-01
  0.1428571E+00  0.1471074E+06  0.5065352E+00 -0.6088256E-02  0.8850824E-05 -0.4482632E+05  0.1116297E+00
  0.1738095E+00  0.1472322E+06  0.1006484E+01  0.1066652E-01  0.1081498E-04 -0.4481840E+05  0.2232130E+00
  0.2047619E+00  0.1475397E+06  0.1854076E+01 -0.4098582E-02  0.3014691E-03 -0.4443251E+05  0.4184811E+00
  0.2357143E+00  0.1476656E+06  0.3257359E+01  0.1249371E-01  0.1667403E-03 -0.4456768E+05  0.7433826E+00
  0.2666667E+00  0.1479949E+06  0.5545535E+01 -0.1155853E-01 -0.2165213E-03 -0.4419933E+05  0.1291946E+01
  0.2976190E+00  0.1484076E+06  0.9279940E+01  0.1435547E-01  0.4040003E-03 -0.4376453E+05  0.2205098E+01
  0.3285715E+00  0.1486798E+06  0.1530446E+02 -0.2698152E-01 -0.6547496E-03 -0.4383296E+05  0.3701863E+01
  0.3595238E+00  0.1490829E+06  0.2504861E+02  0.3140683E-02  0.9358823E-03 -0.4348639E+05  0.6199458E+01
  0.3904762E+00  0.1496701E+06  0.4071172E+02  0.7346548E-02  0.7210672E-03 -0.4283137E+05  0.1035838E+02
  0.4214286E+00  0.1502507E+06  0.6524099E+02 -0.2751754E-01 -0.8127689E-03 -0.4256932E+05  0.1700478E+02
  0.4523810E+00  0.1507485E+06  0.1036064E+03  0.1457134E-01  0.1200020E-02 -0.4234648E+05  0.2764166E+02
  0.4833333E+00  0.1515005E+06  0.1604677E+03  0.2778152E-02  0.9638071E-03 -0.4154055E+05  0.4418520E+02
  0.5142857E+00  0.1523153E+06  0.2444285E+03 -0.3044129E-01 -0.2181292E-02 -0.4095929E+05  0.6922725E+02
  0.5452381E+00  0.1531077E+06  0.3632799E+03 -0.3268713E-01 -0.7796288E-03 -0.4059622E+05  0.1056743E+03
  0.5761905E+00  0.1539267E+06  0.5269979E+03 -0.5508296E-02 -0.2284050E-03 -0.4022937E+05  0.1575449E+03
  0.6071429E+00  0.1549386E+06  0.7503405E+03  0.2221680E-01  0.7503986E-02 -0.3936630E+05  0.2314075E+03
  0.6380953E+00  0.1560823E+06  0.1044457E+04 -0.9469558E-02 -0.2155304E-03 -0.3844013E+05  0.3326038E+03
  0.6690477E+00  0.1572240E+06  0.1428155E+04 -0.2298918E-01 -0.6713867E-03 -0.3776929E+05  0.4684857E+03
  0.7000000E+00  0.1583317E+06  0.1922232E+04 -0.3313337E-02  0.1219749E-02 -0.3719859E+05  0.6488760E+03
  0.7309524E+00  0.1595495E+06  0.2545513E+04 -0.2839029E-02 -0.1106262E-03 -0.3637940E+05  0.8857623E+03
  0.7619048E+00  0.1609245E+06  0.3324357E+04  0.1514053E-01  0.8071899E-02 -0.3524298E+05  0.1194698E+04
  0.7928572E+00  0.1623300E+06  0.4285726E+04  0.2586571E-01  0.1047134E-01 -0.3405402E+05  0.1590689E+04
  0.8238096E+00  0.1637641E+06  0.5457947E+04 -0.2318983E-01 -0.1325989E-01 -0.3294821E+05  0.2090311E+04
  0.8547620E+00  0.1651294E+06  0.6869161E+04  0.9282784E-03  0.1655579E-02 -0.3195901E+05  0.2712079E+04
  0.8857143E+00  0.1664891E+06  0.8549111E+04 -0.2067320E-02 -0.4577637E-04 -0.3099383E+05  0.3477235E+04
  0.9166667E+00  0.1677422E+06  0.1052382E+05 -0.2929688E-02  0.6271362E-02 -0.2987468E+05  0.4412326E+04
  0.9476191E+00  0.1690250E+06  0.1282043E+05  0.1880741E-01 -0.1258850E-02 -0.2855592E+05  0.5544202E+04
  0.9785714E+00  0.1702305E+06  0.1546226E+05 -0.2856624E-01 -0.3051758E-04 -0.2712631E+05  0.6899756E+04
  0.1009524E+01  0.1712950E+06  0.1846780E+05  0.1813781E-03  0.5737305E-02 -0.2582202E+05  0.8498263E+04
  0.1040476E+01  0.1721329E+06  0.2184975E+05  0.3343665E-02  0.4974365E-02 -0.2467457E+05  0.1036390E+05
  0.1071429E+01  0.1727539E+06  0.2561286E+05  0.7975261E-02  0.8880615E-02 -0.2373105E+05  0.1251258E+05
  0.1102381E+01  0.1730820E+06  0.2974395E+05 -0.4318600E-02  0.1098633E-02 -0.2284750E+05  0.1496667E+05
  0.1133333E+01  0.1731424E+06  0.3422453E+05 -0.3769818E-02  0.1608276E-01 -0.2211147E+05  0.1772670E+05
  0.1164286E+01  0.1728922E+06  0.3901752E+05  0.4403518E-02  0.1708984E-02 -0.2144228E+05  0.2080270E+05
  0.1195238E+01  0.1723139E+06  0.4408656E+05  0.4085221E-03  0.6774902E-02 -0.2093145E+05  0.2418691E+05
  0.1226190E+01  0.1714182E+06  0.4937956E+05 -0.1035346E-01 -0.5767822E-02 -0.2055915E+05  0.2787030E+05
  0.1257143E+01  0.1702113E+06  0.5488941E+05  0.3786954E-02 -0.1586914E-02 -0.2042890E+05  0.3185534E+05
  0.1288095E+01  0.1686542E+06  0.6039564E+05  0.1468905E-01  0.1055908E-01 -0.2047577E+05  0.3603611E+05
  0.1319048E+01  0.1667843E+06  0.6597860E+05 -0.7403542E-03  0.1513672E-01 -0.2075966E+05  0.4045361E+05
  0.1350000E+01  0.1646353E+06  0.7151746E+05 -0.1229745E-01 -0.1489258E-01 -0.2130457E+05  0.4503449E+05
  0.1380952E+01  0.1622062E+06  0.7694512E+05 -0.8839574E-03  0.2093506E-01 -0.2207362E+05  0.4974662E+05
  0.1411905E+01  0.1591109E+06  0.8193066E+05 -0.3631231E-02  0.1281738E-02 -0.2365885E+05  0.5437399E+05
  0.1442857E+01  0.1563072E+06  0.8698260E+05  0.1235207E-01  0.6347656E-02 -0.2487294E+05  0.5921339E+05
  0.1473810E+01  0.1533068E+06  0.9176200E+05 -0.7702853E-02 -0.8056641E-02 -0.2625315E+05  0.6405840E+05
  0.1504762E+01  0.1502156E+06  0.9622598E+05 -0.2514803E-02 -0.7629395E-02 -0.2784195E+05  0.6883541E+05
  0.1535714E+01  0.1470298E+06  0.1003286E+06  0.1430777E-02 -0.4760742E-02 -0.2953407E+05  0.7354903E+05
  0.1566667E+01  0.1438456E+06  0.1040971E+06 -0.4597116E-02 -0.5615234E-02 -0.3146685E+05  0.7810916E+05
  0.1597619E+01  0.1406066E+06  0.1074814E+06  0.1856706E-01 -0.2197266E-02 -0.3344233E+05  0.8256630E+05
  0.1628572E+01  0.1374195E+06  0.1105008E+06 -0.1798931E-02 -0.1123047E-01 -0.3554348E+05  0.8683686E+05
  0.1659524E+01  0.1343053E+06  0.1131395E+06  0.9783139E-02  0.6591797E-02 -0.3770891E+05  0.9092271E+05
  0.1690476E+01  0.1312362E+06  0.1154169E+06  0.2382950E-02  0.4028320E-02 -0.3991889E+05  0.9480781E+05
  0.1721429E+01  0.1282771E+06  0.1173471E+06 -0.1070774E-01  0.6347656E-02 -0.4216855E+05  0.9846069E+05
  0.1752381E+01  0.1254114E+06  0.1189295E+06  0.2542579E-02 -0.6103516E-02 -0.4441932E+05  0.1019186E+06
  0.1783333E+01  0.1226725E+06  0.1201746E+06  0.2840702E-02  0.7202148E-02 -0.4663352E+05  0.1051915E+06
  0.1814286E+01  0.1200884E+06  0.1211933E+06 -0.1153901E-01 -0.6469727E-02 -0.4896461E+05  0.1081423E+06
  0.1845238E+01  0.1175622E+06  0.1218923E+06  0.2976940E-02  0.6347656E-02 -0.5114759E+05  0.1110016E+06
  0.1876190E+01  0.1151987E+06  0.1223777E+06  0.4944777E-02 -0.6103516E-02 -0.5336722E+05  0.1135758E+06
  0.1907143E+01  0.1129903E+06  0.1226321E+06  0.1056114E-02  0.7202148E-02 -0.5556006E+05  0.1159393E+06
  0.1938095E+01  0.1108890E+06  0.1226505E+06 -0.2708341E-02 -0.1025391E-01 -0.5768786E+05  0.1181000E+06
  0.1969048E+01  0.1088894E+06  0.1224864E+06  0.7873314E-02  0.6469727E-02 -0.5976399E+05  0.1200539E+06
  0.2000000E+01  0.1070446E+06  0.1221579E+06  0.8972168E-02  0.2807617E-02 -0.6182067E+05  0.1217391E+06
Zone t="Motion of body    1 in DoF   2",I=    64,F=POINT
  0.5000000E-01  0.1083374E-01  0.9536743E-06  0.1878002E+06  0.5728771E+03  0.1342773E-01 -0.3814697E-04
  0.8095238E-01  0.1017851E-01  0.8583069E-04  0.1850314E+06  0.9493480E+03  0.1507927E-02  0.1182556E-03
  0.1119048E+00  0.1977149E-01  0.1182556E-03  0.1836065E+06  0.1358366E+04 -0.9272149E-02  0.2040863E-03
  0.1428571E+00  0.8972168E-02 -0.2069473E-03  0.1828178E+06  0.1814974E+04  0.1239014E-01 -0.3051758E-04
  0.1738095E+00  0.6145320E-03  0.6675720E-04  0.1825178E+06  0.2338148E+04 -0.4038353E-01  0.6484985E-04
  0.2047619E+00  0.2086551E-01  0.3623962E-03  0.1826398E+06  0.2951439E+04  0.1937511E-01 -0.2593994E-03
  0.2357143E+00 -0.2654104E-01  0.1010895E-03  0.1830345E+06  0.3687850E+04 -0.1035748E-01  0.4043579E-03
  0.2666667E+00 -0.1716614E-02  0.1182556E-03  0.1836479E+06  0.4574503E+04  0.0000000E+00 -0.7705688E-03
  0.2976190E+00 -0.7895508E-02  0.5187988E-03  0.1844394E+06  0.5673239E+04 -0.4388672E-01  0.7629395E-04
  0.3285715E+00 -0.3445832E-01 -0.1296997E-03  0.1853588E+06  0.7014319E+04 -0.2674932E-01 -0.1525879E-03
  0.3595238E+00  0.5687183E-02 -0.7934570E-03  0.1861105E+06  0.8670489E+04 -0.8148799E-02 -0.1815796E-02
  0.3904762E+00 -0.2657262E-02  0.5035400E-03  0.1868841E+06  0.1069263E+05 -0.8128095E-02 -0.4577637E-03
  0.4214286E+00 -0.1332428E-01  0.5798340E-03  0.1871012E+06  0.1305168E+05  0.3446934E-01 -0.1251221E-02
  0.4523810E+00  0.2738872E-01 -0.5950928E-03  0.1870344E+06  0.1586629E+05  0.1996813E-01 -0.4882812E-03
  0.4833333E+00  0.9218413E-02  0.4577637E-03  0.1862620E+06  0.1888990E+05 -0.4293507E-02 -0.3662109E-03
  0.5142857E+00 -0.3323025E-02 -0.1785278E-02  0.1849392E+06  0.2226612E+05  0.1163059E-01  0.2746582E-02
  0.5452381E+00 -0.2014960E-02  0.1602173E-02  0.1832359E+06  0.2579421E+05  0.2238844E-02 -0.1159668E-02
  0.5761905E+00  0.1991461E-01 -0.2029419E-02  0.1810537E+06  0.2940840E+05 -0.6779442E-02 -0.1342773E-02
  0.6071429E+00 -0.1095760E-01 -0.5798340E-03  0.1784033E+06  0.3319738E+05  0.8042279E-02 -0.3845215E-02
  0.6380953E+00  0.1243477E-02 -0.6408691E-03  0.1756797E+06  0.3691976E+05 -0.1147825E-02 -0.1037598E-02
  0.6690477E+00 -0.1012619E-01  0.3784180E-02  0.1726861E+06  0.4066304E+05  0.1021742E-01  0.3784180E-02
  0.7000000E+00  0.4063197E-01 -0.3662109E-03  0.1694380E+06  0.4444150E+05 -0.2232143E-01 -0.8544922E-03
  0.7309524E+00  0.1336014E-02 -0.1068115E-02  0.1661416E+06  0.4813119E+05 -0.7014072E-02 -0.8544922E-03
  0.7619048E+00 -0.2259064E-01 -0.7904053E-02  0.1627145E+06  0.5175962E+05  0.5126953E-02 -0.7934570E-02
  0.7928572E+00  0.5003782E-02  0.3051758E-02  0.1591632E+06  0.5531048E+05  0.9237752E-02  0.4516602E-02
  0.8238096E+00  0.5630758E-02 -0.8544922E-03  0.1555767E+06  0.5874429E+05  0.5927113E-03  0.8300781E-02
  0.8547620E+00 -0.7140603E-03  0.9643555E-02  0.1520169E+06  0.6202847E+05 -0.3027616E-01  0.8422852E-02
  0.8857143E+00 -0.1495361E-01 -0.3845215E-02  0.1484490E+06  0.6515429E+05  0.1212828E-01  0.5126953E-02
  0.9166667E+00 -0.1997514E-02  0.7995605E-02  0.1448765E+06  0.6811679E+05  0.8522728E-02  0.2563477E-02
  0.9476191E+00  0.1024102E-01  0.5493164E-02  0.1413300E+06  0.7090446E+05 -0.9274890E-02  0.2441406E-02
  0.9785714E+00  0.1609190E-01 -0.5065918E-02  0.1378331E+06  0.7349176E+05  0.1372177E-01  0.9765625E-03
  0.1009524E+01 -0.2551385E-01  0.5004883E-02  0.1344169E+06  0.7586905E+05  0.4836748E-02  0.6347656E-02
  0.1040476E+01 -0.3578308E-02  0.8239746E-02  0.1310974E+06  0.7802618E+05 -0.1877145E-02  0.1489258E-01
  0.1071429E+01  0.3987630E-02  0.3112793E-02  0.1278877E+06  0.7995530E+05 -0.9114584E-02  0.1953125E-02
  0.1102381E+01 -0.1384167E-02  0.1220703E-03  0.1247929E+06  0.8166009E+05 -0.5758133E-02 -0.3662109E-02
  0.1133333E+01 -0.1615637E-02  0.6225586E-02  0.1218278E+06  0.8314158E+05 -0.4308364E-02 -0.0000000E+00
  0.1164286E+01  0.2778410E-02 -0.5004883E-02  0.1189969E+06  0.8440604E+05  0.9855492E-02  0.7324219E-03
  0.1195238E+01  0.6587420E-02  0.7324219E-02  0.1163030E+06  0.8547720E+05  0.3472438E-02 -0.1708984E-02
  0.1226190E+01  0.1304138E-01  0.5798340E-02  0.1137586E+06  0.8633268E+05  0.5574939E-02 -0.0000000E+00
  0.1257143E+01 -0.1650723E-01 -0.6652832E-02  0.1113633E+06  0.8703966E+05 -0.1165217E-01 -0.7324219E-03
  0.1288095E+01  0.1141955E-01 -0.9582520E-02  0.1090992E+06  0.8743987E+05  0.2084898E-02 -0.2929688E-02
  0.1319048E+01 -0.1809241E-01  0.5798340E-02  0.1070057E+06  0.8770588E+05  0.1017987E-01  0.1220703E-02
  0.1350000E+01 -0.7550275E-02  0.9765625E-03  0.1050744E+06  0.8779862E+05 -0.1030816E-01 -0.7324219E-02
  0.1380952E+01  0.3005455E-02 -0.3051758E-03  0.1033054E+06  0.8773375E+05  0.6187702E-02  0.8789062E-02
  0.1411905E+01 -0.5014558E-02 -0.1892090E-02  0.1017513E+06  0.8741869E+05 -0.3804147E-02 -0.6591797E-02
  0.1442857E+01 -0.3680239E-02 -0.8178711E-02  0.1003241E+06  0.8708153E+05  0.2030476E-02  0.9765625E-03
  0.1473810E+01 -0.2029246E-02  0.3234863E-02  0.9904127E+05  0.8664962E+05  0.5963499E-02 -0.2929688E-02
  0.1504762E+01 -0.1001865E-01  0.6958008E-02  0.9792998E+05  0.8612051E+05  0.1946944E-01 -0.9033203E-02
  0.1535714E+01 -0.5524391E-02  0.3417969E-02  0.9698452E+05  0.8554785E+05  0.4451308E-02 -0.5615234E-02
  0.1566667E+01  0.5376288E-02 -0.4638672E-02  0.9621615E+05  0.8494752E+05  0.2057015E-01  0.1220703E-02
  0.1597619E+01  0.2559656E-02 -0.4882812E-03  0.9556869E+05  0.8436773E+05 -0.4126013E-02  0.7568359E-02
  0.1628572E+01  0.1011899E-02 -0.9887695E-02  0.9507880E+05  0.8382626E+05  0.2848307E-02 -0.1220703E-02
  0.1659524E+01  0.4891569E-02  0.9155273E-02  0.9470867E+05  0.8335740E+05  0.1132784E-01  0.1025391E-01
  0.1690476E+01  0.8123693E-02  0.6103516E-02  0.9442192E+05  0.8304169E+05 -0.1357559E-01 -0.8056641E-02
  0.1721429E+01  0.1666437E-02 -0.9521484E-02  0.9421351E+05  0.8286062E+05  0.2680482E-01  0.1220703E-02
  0.1752381E+01  0.3343665E-02 -0.7080078E-02  0.9407567E+05  0.8285907E+05 -0.9752357E-02 -0.1171875E-01
  0.1783333E+01  0.4038588E-02 -0.3662109E-03  0.9396252E+05  0.8304095E+05 -0.1505914E-02  0.9277344E-02
  0.1814286E+01 -0.2119410E-02 -0.1953125E-02  0.9382980E+05  0.8345605E+05 -0.1480223E-01  0.4882812E-03
  0.1845238E+01 -0.3208480E-02  0.1257324E-01  0.9363294E+05  0.8406333E+05 -0.2778478E-02  0.8789062E-02
  0.1876190E+01  0.1600546E-01 -0.3540039E-02  0.9339396E+05  0.8484877E+05 -0.4554400E-02  0.1464844E-02
  0.1907143E+01 -0.8512919E-02 -0.6469727E-02  0.9307812E+05  0.8573192E+05 -0.2381057E-01 -0.1220703E-02
  0.1938095E+01 -0.1184112E-01 -0.8544922E-02  0.9265449E+05  0.8667610E+05 -0.1738377E-01  0.3173828E-02
  0.1969048E+01  0.3688679E-02  0.1647949E-01  0.9211938E+05  0.8762429E+05 -0.4711589E-02 -0.5126953E-02
  0.2000000E+01  0.4852295E-02  0.1855469E-01  0.9152502E+05  0.8854535E+05 -0.1220703E-02 -0.9765625E-03
Zone t="Motion of body    1 in DoF   3",I=    64,F=POINT
  0.5000000E-01 -0.4300344E+05  0.4426791E-02 -0.2449036E-01 -0.5917130E-04  0.4649963E+06  0.1545329E-02
  0.8095238E-01 -0.4352716E+05  0.1974225E-01 -0.9697857E-01 -0.5270261E-03  0.4648723E+06  0.4439611E-02
  0.1119048E+00 -0.4383121E+05  0.5565026E-01 -0.4377000E-01 -0.3724970E-03  0.4642142E+06  0.1174219E-01
  0.1428571E+00 -0.4357936E+05  0.1262374E+00 -0.1815796E-02 -0.3634731E-04  0.4644747E+06  0.2732947E-01
  0.1738095E+00 -0.4353014E+05  0.2533861E+00  0.2484465E-01  0.4625442E-03  0.4646222E+06  0.5554486E-01
  0.2047619E+00 -0.4314425E+05  0.4721216E+00 -0.2585832E-01 -0.3821545E-03  0.4652356E+06  0.1083563E+00
  0.2357143E+00 -0.4329749E+05  0.8406850E+00 -0.6654681E-01 -0.1425088E-02  0.4645124E+06  0.1940379E+00
  0.2666667E+00 -0.4287869E+05  0.1452942E+01  0.2689361E-01  0.3777677E-03  0.4653858E+06  0.3393078E+00
  0.2976190E+00 -0.4246111E+05  0.2469867E+01 -0.5116699E-01 -0.1460293E-02  0.4657730E+06  0.5860366E+00
  0.3285715E+00 -0.4256543E+05  0.4151548E+01 -0.2080503E-01 -0.4871823E-03  0.4649570E+06  0.1007407E+01
  0.3595238E+00 -0.4216586E+05  0.6923956E+01 -0.9337165E-02 -0.4973300E-03  0.4655643E+06  0.1712759E+01
  0.3904762E+00 -0.4148728E+05  0.1149788E+02 -0.5252000E-01 -0.2143018E-02  0.4666495E+06  0.2920896E+01
  0.4214286E+00 -0.4127824E+05  0.1884019E+02  0.6517313E-03 -0.4807562E-03  0.4662293E+06  0.4894216E+01
  0.4523810E+00 -0.4100955E+05  0.3058275E+02  0.5444014E-01  0.4796371E-02  0.4663160E+06  0.8170528E+01
  0.4833333E+00 -0.4013239E+05  0.4850858E+02 -0.3049653E-01 -0.4448682E-02  0.4678333E+06  0.1334448E+02
  0.5142857E+00 -0.3959291E+05  0.7568775E+02  0.2729628E-01  0.2878726E-02  0.4680428E+06  0.2141394E+02
  0.5452381E+00 -0.3925221E+05  0.1154362E+03  0.3313490E-01  0.3958166E-02  0.4677518E+06  0.3357945E+02
  0.5761905E+00 -0.3882627E+05  0.1719191E+03 -0.6599363E-01 -0.1311696E-01  0.4680047E+06  0.5133460E+02
  0.6071429E+00 -0.3790138E+05  0.2510119E+03  0.4503676E-01  0.1006007E-01  0.4693136E+06  0.7764168E+02
  0.6380953E+00 -0.3696319E+05  0.3589039E+03  0.9565211E-03  0.1973152E-02  0.4703787E+06  0.1142815E+03
  0.6690477E+00 -0.3633156E+05  0.5049349E+03 -0.3649077E-03  0.2161026E-02  0.4701688E+06  0.1656989E+03
  0.7000000E+00 -0.3574057E+05  0.6990701E+03 -0.6277902E-02 -0.2817154E-02  0.4701236E+06  0.2362363E+03
  0.7309524E+00 -0.3484040E+05  0.9513741E+03 -0.3916190E-01 -0.1278782E-01  0.4711826E+06  0.3306868E+03
  0.7619048E+00 -0.3365041E+05  0.1276964E+04 -0.2843857E-01 -0.9699821E-02  0.4725843E+06  0.4581318E+03
  0.7928572E+00 -0.3244611E+05  0.1692865E+04  0.6389445E-02  0.7921219E-02  0.4738120E+06  0.6277770E+03
  0.8238096E+00 -0.3135713E+05  0.2219883E+04  0.2793152E-01  0.1910019E-01  0.4743669E+06  0.8502831E+03
  0.8547620E+00 -0.3035356E+05  0.2877706E+04  0.1449542E-01  0.4255295E-02  0.4747978E+06  0.1137097E+04
  0.8857143E+00 -0.2934376E+05  0.3687425E+04  0.1102571E-02 -0.5451202E-02  0.4753196E+06  0.1499137E+04
  0.9166667E+00 -0.2817294E+05  0.4665958E+04  0.2796520E-01  0.1172638E-01  0.4764797E+06  0.1952906E+04
  0.9476191E+00 -0.2681423E+05  0.5841288E+04 -0.2937048E-01 -0.1211929E-01  0.4780957E+06  0.2519061E+04
  0.9785714E+00 -0.2535733E+05  0.7238861E+04  0.3742302E-02  0.5519867E-02  0.4799811E+06  0.3222012E+04
  0.1009524E+01 -0.2405696E+05  0.8897707E+04  0.3035060E-01  0.2212524E-01  0.4810867E+06  0.4091261E+04
  0.1040476E+01 -0.2293119E+05  0.1083770E+05 -0.4106255E-02  0.4776001E-02  0.4819264E+06  0.5146097E+04
  0.1071429E+01 -0.2197488E+05  0.1308392E+05 -0.7747396E-02 -0.1245117E-01  0.4826221E+06  0.6410933E+04
  0.1102381E+01 -0.2107480E+05  0.1563356E+05 -0.3632053E-01 -0.1516724E-01  0.4834709E+06  0.7894371E+04
  0.1133333E+01 -0.2030529E+05  0.1848936E+05 -0.5600873E-02  0.8544922E-03  0.4846117E+06  0.9610463E+04
  0.1164286E+01 -0.1961208E+05  0.2166164E+05 -0.1373478E-01 -0.1464844E-02  0.4856497E+06  0.1158392E+05
  0.1195238E+01 -0.1909354E+05  0.2513394E+05  0.8170443E-03 -0.1112366E-01  0.4868776E+06  0.1382606E+05
  0.1226190E+01 -0.1872206E+05  0.2889983E+05 -0.4678967E-02 -0.1306152E-01  0.4881215E+06  0.1634797E+05
  0.1257143E+01 -0.1859138E+05  0.3301427E+05 -0.4078258E-02 -0.3295898E-02  0.4889542E+06  0.1919996E+05
  0.1288095E+01 -0.1867676E+05  0.3726915E+05  0.4738404E-02 -0.7354736E-02  0.4897202E+06  0.2225822E+05
  0.1319048E+01 -0.1900013E+05  0.4177805E+05 -0.9254428E-02 -0.1431274E-01  0.4903169E+06  0.2561700E+05
  0.1350000E+01 -0.1957537E+05  0.4647194E+05  0.1148365E-01  0.2542114E-01  0.4906123E+06  0.2922871E+05
  0.1380952E+01 -0.2040610E+05  0.5126902E+05 -0.2572316E-01 -0.1193237E-01  0.4908258E+06  0.3308413E+05
  0.1411905E+01 -0.2448688E+05  0.5377622E+05  0.6138510E-02  0.3051758E-03  0.4869688E+06  0.3559262E+05
  0.1442857E+01 -0.2565345E+05  0.5857617E+05 -0.1175984E-01 -0.1922607E-01  0.4869023E+06  0.3974378E+05
  0.1473810E+01 -0.2702505E+05  0.6331551E+05 -0.1913289E-01 -0.2447510E-01  0.4868250E+06  0.4403483E+05
  0.1504762E+01 -0.2855898E+05  0.6800485E+05 -0.8112267E-04  0.2947998E-01  0.4866794E+06  0.4846357E+05
  0.1535714E+01 -0.3017472E+05  0.7263427E+05 -0.1112827E-02 -0.1861572E-01  0.4862921E+06  0.5300339E+05
  0.1566667E+01 -0.3201776E+05  0.7716615E+05 -0.1168758E-02  0.2197266E-02  0.4857242E+06  0.5763415E+05
  0.1597619E+01 -0.3394918E+05  0.8154047E+05 -0.6036204E-02 -0.1068115E-01  0.4849843E+06  0.6232769E+05
  0.1628572E+01 -0.3600182E+05  0.8575929E+05 -0.2773352E-02 -0.3570557E-01  0.4841133E+06  0.6708005E+05
  0.1659524E+01 -0.3807497E+05  0.8985647E+05 -0.4928348E-02 -0.1019287E-01  0.4830394E+06  0.7179384E+05
  0.1690476E+01 -0.4020977E+05  0.9369573E+05  0.7509903E-02  0.1147461E-01  0.4820153E+06  0.7652256E+05
  0.1721429E+01 -0.4236916E+05  0.9733670E+05 -0.7020310E-02  0.1086426E-01  0.4808464E+06  0.8115286E+05
  0.1752381E+01 -0.4453806E+05  0.1007851E+06 -0.1685765E-01 -0.1452637E-01  0.4796539E+06  0.8587031E+05
  0.1783333E+01 -0.4664943E+05  0.1041268E+06 -0.8077176E-02 -0.2246094E-01  0.4781648E+06  0.9040584E+05
  0.1814286E+01 -0.4887823E+05  0.1072035E+06 -0.9823296E-02  0.7934570E-02  0.4767608E+06  0.9500169E+05
  0.1845238E+01 -0.5100995E+05  0.1100682E+06  0.2315398E-02  0.3515625E-01  0.4752665E+06  0.9948526E+05
  0.1876190E+01 -0.5316559E+05  0.1127197E+06  0.4294149E-02  0.4394531E-02  0.4737758E+06  0.1039688E+06
  0.1907143E+01 -0.5526600E+05  0.1152782E+06 -0.7424802E-02  0.3662109E-02  0.4721285E+06  0.1081930E+06
  0.1938095E+01 -0.5730171E+05  0.1176018E+06  0.2204464E-02  0.1831055E-02  0.4705527E+06  0.1123703E+06
  0.1969048E+01 -0.5931367E+05  0.1196676E+06  0.3595687E-02  0.2539062E-01  0.4689570E+06  0.1163570E+06
  0.2000000E+01 -0.6129262E+05  0.1215473E+06  0.1275635E-01  0.1269531E-01  0.4673435E+06  0.1202815E+06
