VARIABLES="w (rad/s)"
"abs(F   1   1)" "angle(F   1   1)"
"abs(F   1   2)" "angle(F   1   2)"
"abs(F   1   3)" "angle(F   1   3)"
Zone t="Diffraction force - beta =   0.000 deg",I=    64,F=POINT
  0.5000000E-01  0.3290564E+04 -0.1570794E+01  0.2659216E+03 -0.3100075E+01  0.6388358E+04  0.1570799E+01
  0.8095238E-01  0.5395150E+04 -0.1570790E+01  0.6902316E+03 -0.3098734E+01  0.1047514E+05  0.1570803E+01
  0.1119048E+00  0.7554922E+04 -0.1570783E+01  0.1309571E+04 -0.3096998E+01  0.1465815E+05  0.1570810E+01
  0.1428571E+00  0.9775346E+04 -0.1570772E+01  0.2126400E+04 -0.3094850E+01  0.1896611E+05  0.1570820E+01
  0.1738095E+00  0.1211367E+05 -0.1570757E+01  0.3134310E+04 -0.3092047E+01  0.2349185E+05  0.1570835E+01
  0.2047619E+00  0.1459008E+05 -0.1570735E+01  0.4341931E+04 -0.3088585E+01  0.2825857E+05  0.1570856E+01
  0.2357143E+00  0.1719445E+05 -0.1570702E+01  0.5756897E+04 -0.3084316E+01  0.3330958E+05  0.1570888E+01
  0.2666667E+00  0.2004295E+05 -0.1570655E+01  0.7349243E+04 -0.3078930E+01  0.3878661E+05  0.1570934E+01
  0.2976190E+00  0.2314600E+05 -0.1570584E+01  0.9166712E+04 -0.3072396E+01  0.4473595E+05  0.1571003E+01
  0.3285715E+00  0.2654962E+05 -0.1570480E+01  0.1114217E+05 -0.3064312E+01  0.5130122E+05  0.1571105E+01
  0.3595238E+00  0.3032816E+05 -0.1570322E+01  0.1334171E+05 -0.3054800E+01  0.5850760E+05  0.1571259E+01
  0.3904762E+00  0.3453621E+05 -0.1570087E+01  0.1567395E+05 -0.3043239E+01  0.6656321E+05  0.1571489E+01
  0.4214286E+00  0.3919120E+05 -0.1569742E+01  0.1817895E+05 -0.3030592E+01  0.7549970E+05  0.1571825E+01
  0.4523810E+00  0.4442804E+05 -0.1569236E+01  0.2080259E+05 -0.3015711E+01  0.8544000E+05  0.1572320E+01
  0.4833333E+00  0.5016795E+05 -0.1568534E+01  0.2350258E+05 -0.3000836E+01  0.9631253E+05  0.1573007E+01
  0.5142857E+00  0.5646275E+05 -0.1567555E+01  0.2632470E+05 -0.2985017E+01  0.1081966E+06  0.1573963E+01
  0.5452381E+00  0.6326596E+05 -0.1566248E+01  0.2910445E+05 -0.2968724E+01  0.1211617E+06  0.1575240E+01
  0.5761905E+00  0.7059545E+05 -0.1564546E+01  0.3199687E+05 -0.2953484E+01  0.1349785E+06  0.1576904E+01
  0.6071429E+00  0.7859923E+05 -0.1562348E+01  0.3482977E+05 -0.2937326E+01  0.1498772E+06  0.1579057E+01
  0.6380953E+00  0.8692498E+05 -0.1559590E+01  0.3765020E+05 -0.2922315E+01  0.1654307E+06  0.1581757E+01
  0.6690477E+00  0.9575423E+05 -0.1556155E+01  0.4054993E+05 -0.2908224E+01  0.1820126E+06  0.1585116E+01
  0.7000000E+00  0.1052200E+06 -0.1551928E+01  0.4329330E+05 -0.2893321E+01  0.1996229E+06  0.1589253E+01
  0.7309524E+00  0.1151455E+06 -0.1546803E+01  0.4598013E+05 -0.2879093E+01  0.2178527E+06  0.1594278E+01
  0.7619048E+00  0.1256892E+06 -0.1540640E+01  0.4868646E+05 -0.2865790E+01  0.2372652E+06  0.1600319E+01
  0.7928572E+00  0.1367253E+06 -0.1533287E+01  0.5132078E+05 -0.2853016E+01  0.2572746E+06  0.1607540E+01
  0.8238096E+00  0.1484438E+06 -0.1524617E+01  0.5370025E+05 -0.2839348E+01  0.2787405E+06  0.1616040E+01
  0.8547620E+00  0.1604211E+06 -0.1514430E+01  0.5604028E+05 -0.2826602E+01  0.3005121E+06  0.1626031E+01
  0.8857143E+00  0.1730816E+06 -0.1502614E+01  0.5835400E+05 -0.2814828E+01  0.3235327E+06  0.1637614E+01
  0.9166667E+00  0.1864532E+06 -0.1489012E+01  0.6053662E+05 -0.2803654E+01  0.3471235E+06  0.1651005E+01
  0.9476191E+00  0.2005647E+06 -0.1473461E+01  0.6240610E+05 -0.2791462E+01  0.3722064E+06  0.1666296E+01
  0.9785714E+00  0.2148830E+06 -0.1455720E+01  0.6418104E+05 -0.2780071E+01  0.3973263E+06  0.1683760E+01
  0.1009524E+01  0.2297324E+06 -0.1435677E+01  0.6589722E+05 -0.2769562E+01  0.4236243E+06  0.1703456E+01
  0.1040476E+01  0.2448157E+06 -0.1413193E+01  0.6756091E+05 -0.2760348E+01  0.4496789E+06  0.1725606E+01
  0.1071429E+01  0.2605006E+06 -0.1388218E+01  0.6881054E+05 -0.2749738E+01  0.4768572E+06  0.1750185E+01
  0.1102381E+01  0.2761300E+06 -0.1360529E+01  0.6993472E+05 -0.2739421E+01  0.5040013E+06  0.1777395E+01
  0.1133333E+01  0.2916244E+06 -0.1330139E+01  0.7091395E+05 -0.2729668E+01  0.5299385E+06  0.1807368E+01
  0.1164286E+01  0.3073869E+06 -0.1296968E+01  0.7182634E+05 -0.2720717E+01  0.5563341E+06  0.1840054E+01
  0.1195238E+01  0.3225596E+06 -0.1261040E+01  0.7265305E+05 -0.2712797E+01  0.5809876E+06  0.1875529E+01
  0.1226190E+01  0.3373685E+06 -0.1222528E+01  0.7315669E+05 -0.2704294E+01  0.6047637E+06  0.1913549E+01
  0.1257143E+01  0.3507868E+06 -0.1181395E+01  0.7341394E+05 -0.2694870E+01  0.6264751E+06  0.1954028E+01
  0.1288095E+01  0.3637085E+06 -0.1138068E+01  0.7355126E+05 -0.2686397E+01  0.6464466E+06  0.1996774E+01
  0.1319048E+01  0.3744645E+06 -0.1092656E+01  0.7358191E+05 -0.2677977E+01  0.6625115E+06  0.2041520E+01
  0.1350000E+01  0.3838581E+06 -0.1045635E+01  0.7353258E+05 -0.2670034E+01  0.6764124E+06  0.2087730E+01
  0.1380952E+01  0.3909268E+06 -0.9975447E+00  0.7340936E+05 -0.2662891E+01  0.6853059E+06  0.2135101E+01
  0.1411905E+01  0.3955424E+06 -0.9483093E+00  0.7297795E+05 -0.2654878E+01  0.6903085E+06  0.2183359E+01
  0.1442857E+01  0.3991206E+06 -0.8992631E+00  0.7228585E+05 -0.2646224E+01  0.6929010E+06  0.2231556E+01
  0.1473810E+01  0.4001785E+06 -0.8501793E+00  0.7151302E+05 -0.2637866E+01  0.6909098E+06  0.2279786E+01
  0.1504762E+01  0.3986813E+06 -0.8017332E+00  0.7063824E+05 -0.2629635E+01  0.6840098E+06  0.2327402E+01
  0.1535714E+01  0.3952699E+06 -0.7540676E+00  0.6966920E+05 -0.2621136E+01  0.6744662E+06  0.2374089E+01
  0.1566667E+01  0.3899335E+06 -0.7078354E+00  0.6861995E+05 -0.2612907E+01  0.6616269E+06  0.2419270E+01
  0.1597619E+01  0.3825123E+06 -0.6633883E+00  0.6750749E+05 -0.2605020E+01  0.6447163E+06  0.2462751E+01
  0.1628572E+01  0.3738488E+06 -0.6207941E+00  0.6613276E+05 -0.2596493E+01  0.6259764E+06  0.2504270E+01
  0.1659524E+01  0.3641819E+06 -0.5801741E+00  0.6451889E+05 -0.2586936E+01  0.6059701E+06  0.2543649E+01
  0.1690476E+01  0.3530003E+06 -0.5413960E+00  0.6284570E+05 -0.2577590E+01  0.5835832E+06  0.2581175E+01
  0.1721429E+01  0.3406551E+06 -0.5047260E+00  0.6109634E+05 -0.2568330E+01  0.5591012E+06  0.2616607E+01
  0.1752381E+01  0.3275101E+06 -0.4699060E+00  0.5923980E+05 -0.2558842E+01  0.5335164E+06  0.2650181E+01
  0.1783333E+01  0.3138189E+06 -0.4368701E+00  0.5729339E+05 -0.2549559E+01  0.5077823E+06  0.2681765E+01
  0.1814286E+01  0.2996448E+06 -0.4061907E+00  0.5529404E+05 -0.2541197E+01  0.4812538E+06  0.2710986E+01
  0.1845238E+01  0.2850550E+06 -0.3776307E+00  0.5325278E+05 -0.2533675E+01  0.4539935E+06  0.2738090E+01
  0.1876190E+01  0.2705470E+06 -0.3503523E+00  0.5105201E+05 -0.2526838E+01  0.4273674E+06  0.2763632E+01
  0.1907143E+01  0.2561707E+06 -0.3246119E+00  0.4870232E+05 -0.2520380E+01  0.4015743E+06  0.2787274E+01
  0.1938095E+01  0.2414108E+06 -0.3002301E+00  0.4639135E+05 -0.2515522E+01  0.3756094E+06  0.2809493E+01
  0.1969048E+01  0.2266465E+06 -0.2774713E+00  0.4408682E+05 -0.2512398E+01  0.3498812E+06  0.2829899E+01
  0.2000000E+01  0.2116441E+06 -0.2559022E+00  0.4182265E+05 -0.2510988E+01  0.3236778E+06  0.2849041E+01
