VARIABLES="w (rad/s)"
"abs(F   1   1)" "angle(F   1   1)"
"abs(F   1   2)" "angle(F   1   2)"
"abs(F   1   3)" "angle(F   1   3)"
Zone t="Diffraction force - beta =   0.000 deg",I=    64,F=POINT
  0.5000000E-01  0.2784077E+03 -0.1570796E+01  0.6260344E+02 -0.3104078E+01  0.7975323E+02  0.1570796E+01
  0.8095238E-01  0.4554745E+03 -0.1570795E+01  0.1630264E+03 -0.3102855E+01  0.1312697E+03  0.1570797E+01
  0.1119048E+00  0.6369866E+03 -0.1570794E+01  0.3103344E+03 -0.3101210E+01  0.1848667E+03  0.1570797E+01
  0.1428571E+00  0.8246169E+03 -0.1570793E+01  0.5052242E+03 -0.3099102E+01  0.2379669E+03  0.1570798E+01
  0.1738095E+00  0.1019660E+04 -0.1570790E+01  0.7487334E+03 -0.3096406E+01  0.2943628E+03  0.1570799E+01
  0.2047619E+00  0.1225122E+04 -0.1570787E+01  0.1042113E+04 -0.3092999E+01  0.3513219E+03  0.1570801E+01
  0.2357143E+00  0.1444511E+04 -0.1570782E+01  0.1385728E+04 -0.3088626E+01  0.4126463E+03  0.1570803E+01
  0.2666667E+00  0.1677052E+04 -0.1570774E+01  0.1783722E+04 -0.3083319E+01  0.4788674E+03  0.1570807E+01
  0.2976190E+00  0.1932132E+04 -0.1570763E+01  0.2235687E+04 -0.3076589E+01  0.5467888E+03  0.1570811E+01
  0.3285715E+00  0.2211062E+04 -0.1570747E+01  0.2742801E+04 -0.3068408E+01  0.6223962E+03  0.1570819E+01
  0.3595238E+00  0.2513900E+04 -0.1570722E+01  0.3309103E+04 -0.3058486E+01  0.7071626E+03  0.1570829E+01
  0.3904762E+00  0.2851705E+04 -0.1570684E+01  0.3936979E+04 -0.3046667E+01  0.7924944E+03  0.1570845E+01
  0.4214286E+00  0.3225634E+04 -0.1570630E+01  0.4612834E+04 -0.3033148E+01  0.8902093E+03  0.1570869E+01
  0.4523810E+00  0.3635993E+04 -0.1570549E+01  0.5348897E+04 -0.3017493E+01  0.9999899E+03  0.1570903E+01
  0.4833333E+00  0.4079160E+04 -0.1570436E+01  0.6138384E+04 -0.3001476E+01  0.1115781E+04  0.1570949E+01
  0.5142857E+00  0.4567650E+04 -0.1570279E+01  0.6976296E+04 -0.2983996E+01  0.1228716E+04  0.1571013E+01
  0.5452381E+00  0.5090059E+04 -0.1570067E+01  0.7854038E+04 -0.2966112E+01  0.1354781E+04  0.1571097E+01
  0.5761905E+00  0.5642674E+04 -0.1569790E+01  0.8779534E+04 -0.2948354E+01  0.1489036E+04  0.1571204E+01
  0.6071429E+00  0.6217531E+04 -0.1569430E+01  0.9752569E+04 -0.2930136E+01  0.1629901E+04  0.1571339E+01
  0.6380953E+00  0.6817198E+04 -0.1568974E+01  0.1076751E+05 -0.2912504E+01  0.1768736E+04  0.1571504E+01
  0.6690477E+00  0.7452687E+04 -0.1568408E+01  0.1181501E+05 -0.2894629E+01  0.1903790E+04  0.1571704E+01
  0.7000000E+00  0.8113188E+04 -0.1567706E+01  0.1289545E+05 -0.2876417E+01  0.2044308E+04  0.1571943E+01
  0.7309524E+00  0.8781819E+04 -0.1566847E+01  0.1402006E+05 -0.2858690E+01  0.2192372E+04  0.1572222E+01
  0.7619048E+00  0.9465302E+04 -0.1565807E+01  0.1518364E+05 -0.2841136E+01  0.2340257E+04  0.1572543E+01
  0.7928572E+00  0.1017196E+05 -0.1564562E+01  0.1637444E+05 -0.2823502E+01  0.2477359E+04  0.1572907E+01
  0.8238096E+00  0.1090041E+05 -0.1563087E+01  0.1758549E+05 -0.2805758E+01  0.2613226E+04  0.1573315E+01
  0.8547620E+00  0.1164828E+05 -0.1561353E+01  0.1881671E+05 -0.2788038E+01  0.2745610E+04  0.1573761E+01
  0.8857143E+00  0.1241074E+05 -0.1559328E+01  0.2007132E+05 -0.2770534E+01  0.2875344E+04  0.1574241E+01
  0.9166667E+00  0.1318081E+05 -0.1556978E+01  0.2135191E+05 -0.2753400E+01  0.3007035E+04  0.1574746E+01
  0.9476191E+00  0.1394888E+05 -0.1554262E+01  0.2264896E+05 -0.2736485E+01  0.3142287E+04  0.1575271E+01
  0.9785714E+00  0.1472021E+05 -0.1551152E+01  0.2395831E+05 -0.2719762E+01  0.3262867E+04  0.1575789E+01
  0.1009524E+01  0.1550917E+05 -0.1547634E+01  0.2527359E+05 -0.2703173E+01  0.3371540E+04  0.1576279E+01
  0.1040476E+01  0.1631133E+05 -0.1543674E+01  0.2659200E+05 -0.2686744E+01  0.3464891E+04  0.1576705E+01
  0.1071429E+01  0.1712041E+05 -0.1539239E+01  0.2790766E+05 -0.2670437E+01  0.3557585E+04  0.1577046E+01
  0.1102381E+01  0.1791979E+05 -0.1534278E+01  0.2922297E+05 -0.2654406E+01  0.3647964E+04  0.1577261E+01
  0.1133333E+01  0.1871143E+05 -0.1528766E+01  0.3054038E+05 -0.2638824E+01  0.3734408E+04  0.1577295E+01
  0.1164286E+01  0.1948806E+05 -0.1522665E+01  0.3185923E+05 -0.2623731E+01  0.3817115E+04  0.1577093E+01
  0.1195238E+01  0.2024773E+05 -0.1515957E+01  0.3317552E+05 -0.2609086E+01  0.3884025E+04  0.1576558E+01
  0.1226190E+01  0.2099322E+05 -0.1508641E+01  0.3448225E+05 -0.2594752E+01  0.3938795E+04  0.1575627E+01
  0.1257143E+01  0.2170394E+05 -0.1500642E+01  0.3578564E+05 -0.2580210E+01  0.3992488E+04  0.1574283E+01
  0.1288095E+01  0.2241777E+05 -0.1492106E+01  0.3704470E+05 -0.2566617E+01  0.4013740E+04  0.1572219E+01
  0.1319048E+01  0.2310044E+05 -0.1482901E+01  0.3829730E+05 -0.2552891E+01  0.4037874E+04  0.1569533E+01
  0.1350000E+01  0.2374900E+05 -0.1473047E+01  0.3952780E+05 -0.2539447E+01  0.4047928E+04  0.1565955E+01
  0.1380952E+01  0.2436058E+05 -0.1462551E+01  0.4074019E+05 -0.2526576E+01  0.4050717E+04  0.1561380E+01
  0.1411905E+01  0.2463406E+05 -0.1452371E+01  0.4158264E+05 -0.2512910E+01  0.4143140E+04  0.1557221E+01
  0.1442857E+01  0.2513006E+05 -0.1440618E+01  0.4273969E+05 -0.2500765E+01  0.4151212E+04  0.1550806E+01
  0.1473810E+01  0.2555447E+05 -0.1428180E+01  0.4387134E+05 -0.2489006E+01  0.4148709E+04  0.1542975E+01
  0.1504762E+01  0.2591589E+05 -0.1415153E+01  0.4497869E+05 -0.2477735E+01  0.4141595E+04  0.1533759E+01
  0.1535714E+01  0.2621340E+05 -0.1401611E+01  0.4605798E+05 -0.2466869E+01  0.4132180E+04  0.1523150E+01
  0.1566667E+01  0.2642615E+05 -0.1387522E+01  0.4710521E+05 -0.2456218E+01  0.4110667E+04  0.1510786E+01
  0.1597619E+01  0.2657123E+05 -0.1373072E+01  0.4812043E+05 -0.2445984E+01  0.4086491E+04  0.1496896E+01
  0.1628572E+01  0.2663281E+05 -0.1358259E+01  0.4909871E+05 -0.2435983E+01  0.4065493E+04  0.1481580E+01
  0.1659524E+01  0.2660455E+05 -0.1343093E+01  0.5004044E+05 -0.2426225E+01  0.4058559E+04  0.1465431E+01
  0.1690476E+01  0.2648056E+05 -0.1327653E+01  0.5094322E+05 -0.2416749E+01  0.4054971E+04  0.1448186E+01
  0.1721429E+01  0.2625492E+05 -0.1311994E+01  0.5180615E+05 -0.2407586E+01  0.4057446E+04  0.1430201E+01
  0.1752381E+01  0.2593921E+05 -0.1296346E+01  0.5263147E+05 -0.2398936E+01  0.4075031E+04  0.1412536E+01
  0.1783333E+01  0.2552185E+05 -0.1280759E+01  0.5341512E+05 -0.2390625E+01  0.4098485E+04  0.1395011E+01
  0.1814286E+01  0.2499589E+05 -0.1265248E+01  0.5415768E+05 -0.2382635E+01  0.4129597E+04  0.1378110E+01
  0.1845238E+01  0.2437302E+05 -0.1250092E+01  0.5485769E+05 -0.2375061E+01  0.4175239E+04  0.1363020E+01
  0.1876190E+01  0.2364513E+05 -0.1235341E+01  0.5551134E+05 -0.2367759E+01  0.4233935E+04  0.1349961E+01
  0.1907143E+01  0.2281681E+05 -0.1221135E+01  0.5612096E+05 -0.2360799E+01  0.4311271E+04  0.1340048E+01
  0.1938095E+01  0.2188730E+05 -0.1207594E+01  0.5668585E+05 -0.2354084E+01  0.4407340E+04  0.1333870E+01
  0.1969048E+01  0.2085117E+05 -0.1194844E+01  0.5720145E+05 -0.2347512E+01  0.4509232E+04  0.1330334E+01
  0.2000000E+01  0.1972696E+05 -0.1183341E+01  0.5766970E+05 -0.2341368E+01  0.4630167E+04  0.1331371E+01
