VARIABLES="w (rad/s)"
"abs(F   1   1)" "angle(F   1   1)"
"abs(F   1   2)" "angle(F   1   2)"
"abs(F   1   3)" "angle(F   1   3)"
Zone t="Diffraction force - beta =   0.000 deg",I=    64,F=POINT
  0.5000000E-01  0.1563929E+04 -0.1570795E+01  0.2962733E+03 -0.3089533E+01  0.6330803E+03  0.1570797E+01
  0.8095238E-01  0.2556621E+04 -0.1570793E+01  0.7681268E+03 -0.3087655E+01  0.1040798E+04  0.1570798E+01
  0.1119048E+00  0.3575789E+04 -0.1570790E+01  0.1459652E+04 -0.3085350E+01  0.1455489E+04  0.1570799E+01
  0.1428571E+00  0.4630485E+04 -0.1570786E+01  0.2372374E+04 -0.3082440E+01  0.1874085E+04  0.1570801E+01
  0.1738095E+00  0.5720842E+04 -0.1570779E+01  0.3511870E+04 -0.3078777E+01  0.2319458E+04  0.1570804E+01
  0.2047619E+00  0.6877088E+04 -0.1570769E+01  0.4884098E+04 -0.3074199E+01  0.2774846E+04  0.1570808E+01
  0.2357143E+00  0.8107179E+04 -0.1570754E+01  0.6496803E+04 -0.3068428E+01  0.3265026E+04  0.1570814E+01
  0.2666667E+00  0.9419555E+04 -0.1570733E+01  0.8358591E+04 -0.3061404E+01  0.3794749E+04  0.1570824E+01
  0.2976190E+00  0.1085995E+05 -0.1570701E+01  0.1047730E+05 -0.3052580E+01  0.4339409E+04  0.1570837E+01
  0.3285715E+00  0.1242889E+05 -0.1570654E+01  0.1286503E+05 -0.3042025E+01  0.4951352E+04  0.1570856E+01
  0.3595238E+00  0.1414348E+05 -0.1570583E+01  0.1551725E+05 -0.3029187E+01  0.5628926E+04  0.1570886E+01
  0.3904762E+00  0.1603958E+05 -0.1570476E+01  0.1844824E+05 -0.3013967E+01  0.6355348E+04  0.1570930E+01
  0.4214286E+00  0.1817778E+05 -0.1570320E+01  0.2162055E+05 -0.2996917E+01  0.7122102E+04  0.1570993E+01
  0.4523810E+00  0.2049622E+05 -0.1570089E+01  0.2505749E+05 -0.2977236E+01  0.8010735E+04  0.1571087E+01
  0.4833333E+00  0.2303663E+05 -0.1569767E+01  0.2869746E+05 -0.2957219E+01  0.8956688E+04  0.1571214E+01
  0.5142857E+00  0.2581693E+05 -0.1569320E+01  0.3252968E+05 -0.2935472E+01  0.9955275E+04  0.1571391E+01
  0.5452381E+00  0.2880242E+05 -0.1568720E+01  0.3655209E+05 -0.2913773E+01  0.1101870E+05  0.1571622E+01
  0.5761905E+00  0.3194997E+05 -0.1567934E+01  0.4074348E+05 -0.2892442E+01  0.1214855E+05  0.1571920E+01
  0.6071429E+00  0.3527136E+05 -0.1566914E+01  0.4507652E+05 -0.2870506E+01  0.1333172E+05  0.1572301E+01
  0.6380953E+00  0.3877500E+05 -0.1565635E+01  0.4956625E+05 -0.2849765E+01  0.1453690E+05  0.1572769E+01
  0.6690477E+00  0.4246751E+05 -0.1564041E+01  0.5419081E+05 -0.2829259E+01  0.1571252E+05  0.1573334E+01
  0.7000000E+00  0.4627352E+05 -0.1562067E+01  0.5891563E+05 -0.2808592E+01  0.1698939E+05  0.1574027E+01
  0.7309524E+00  0.5021325E+05 -0.1559671E+01  0.6377922E+05 -0.2788846E+01  0.1831519E+05  0.1574849E+01
  0.7619048E+00  0.5427501E+05 -0.1556780E+01  0.6873491E+05 -0.2769425E+01  0.1957952E+05  0.1575801E+01
  0.7928572E+00  0.5850284E+05 -0.1553335E+01  0.7374391E+05 -0.2750114E+01  0.2089639E+05  0.1576911E+01
  0.8238096E+00  0.6283647E+05 -0.1549262E+01  0.7881923E+05 -0.2731197E+01  0.2213489E+05  0.1578162E+01
  0.8547620E+00  0.6731530E+05 -0.1544497E+01  0.8396766E+05 -0.2712895E+01  0.2341277E+05  0.1579580E+01
  0.8857143E+00  0.7188423E+05 -0.1538958E+01  0.8916298E+05 -0.2695146E+01  0.2469142E+05  0.1581160E+01
  0.9166667E+00  0.7652871E+05 -0.1532568E+01  0.9438792E+05 -0.2677906E+01  0.2602788E+05  0.1582922E+01
  0.9476191E+00  0.8121000E+05 -0.1525254E+01  0.9961034E+05 -0.2661006E+01  0.2727147E+05  0.1584798E+01
  0.9785714E+00  0.8600670E+05 -0.1516968E+01  0.1048363E+06 -0.2644624E+01  0.2853563E+05  0.1586820E+01
  0.1009524E+01  0.9081909E+05 -0.1507628E+01  0.1100498E+06 -0.2628673E+01  0.2965961E+05  0.1588876E+01
  0.1040476E+01  0.9572127E+05 -0.1497224E+01  0.1152572E+06 -0.2613390E+01  0.3076566E+05  0.1590979E+01
  0.1071429E+01  0.1005569E+06 -0.1485633E+01  0.1204338E+06 -0.2598584E+01  0.3184703E+05  0.1593098E+01
  0.1102381E+01  0.1053347E+06 -0.1472832E+01  0.1255815E+06 -0.2584355E+01  0.3291702E+05  0.1595186E+01
  0.1133333E+01  0.1100566E+06 -0.1458816E+01  0.1306929E+06 -0.2570770E+01  0.3396017E+05  0.1597141E+01
  0.1164286E+01  0.1146083E+06 -0.1443541E+01  0.1357759E+06 -0.2557820E+01  0.3490198E+05  0.1598863E+01
  0.1195238E+01  0.1190395E+06 -0.1427103E+01  0.1408071E+06 -0.2545395E+01  0.3579791E+05  0.1600228E+01
  0.1226190E+01  0.1232354E+06 -0.1409443E+01  0.1457766E+06 -0.2533400E+01  0.3664877E+05  0.1601252E+01
  0.1257143E+01  0.1270576E+06 -0.1390504E+01  0.1507250E+06 -0.2521475E+01  0.3736699E+05  0.1601557E+01
  0.1288095E+01  0.1307798E+06 -0.1370799E+01  0.1555095E+06 -0.2510624E+01  0.3801698E+05  0.1601200E+01
  0.1319048E+01  0.1340403E+06 -0.1350018E+01  0.1602763E+06 -0.2499991E+01  0.3851795E+05  0.1599717E+01
  0.1350000E+01  0.1368869E+06 -0.1328352E+01  0.1649750E+06 -0.2489892E+01  0.3903564E+05  0.1597551E+01
  0.1380952E+01  0.1393160E+06 -0.1306041E+01  0.1695923E+06 -0.2480349E+01  0.3956541E+05  0.1594512E+01
  0.1411905E+01  0.1401796E+06 -0.1284558E+01  0.1733632E+06 -0.2470376E+01  0.4031723E+05  0.1591104E+01
  0.1442857E+01  0.1414504E+06 -0.1261179E+01  0.1778016E+06 -0.2461369E+01  0.4072166E+05  0.1585847E+01
  0.1473810E+01  0.1421768E+06 -0.1237604E+01  0.1821634E+06 -0.2452758E+01  0.4112572E+05  0.1579627E+01
  0.1504762E+01  0.1423229E+06 -0.1214137E+01  0.1864388E+06 -0.2444532E+01  0.4153141E+05  0.1572459E+01
  0.1535714E+01  0.1417792E+06 -0.1190820E+01  0.1906350E+06 -0.2436445E+01  0.4183454E+05  0.1563695E+01
  0.1566667E+01  0.1406622E+06 -0.1168048E+01  0.1947329E+06 -0.2428512E+01  0.4217956E+05  0.1554671E+01
  0.1597619E+01  0.1389480E+06 -0.1146087E+01  0.1987195E+06 -0.2420758E+01  0.4256231E+05  0.1544985E+01
  0.1628572E+01  0.1365852E+06 -0.1124838E+01  0.2025917E+06 -0.2413057E+01  0.4293293E+05  0.1534719E+01
  0.1659524E+01  0.1336098E+06 -0.1104689E+01  0.2063257E+06 -0.2405266E+01  0.4329403E+05  0.1524201E+01
  0.1690476E+01  0.1301068E+06 -0.1085847E+01  0.2099236E+06 -0.2397615E+01  0.4375016E+05  0.1514355E+01
  0.1721429E+01  0.1261270E+06 -0.1068707E+01  0.2133776E+06 -0.2389949E+01  0.4428834E+05  0.1505446E+01
  0.1752381E+01  0.1216017E+06 -0.1053279E+01  0.2166501E+06 -0.2382187E+01  0.4480772E+05  0.1496845E+01
  0.1783333E+01  0.1166193E+06 -0.1039812E+01  0.2197280E+06 -0.2374461E+01  0.4536120E+05  0.1489433E+01
  0.1814286E+01  0.1112428E+06 -0.1028849E+01  0.2225905E+06 -0.2366587E+01  0.4595621E+05  0.1483346E+01
  0.1845238E+01  0.1055400E+06 -0.1020603E+01  0.2251964E+06 -0.2358649E+01  0.4662473E+05  0.1479291E+01
  0.1876190E+01  0.9948814E+05 -0.1015132E+01  0.2275310E+06 -0.2350616E+01  0.4730898E+05  0.1476767E+01
  0.1907143E+01  0.9314124E+05 -0.1013114E+01  0.2295639E+06 -0.2342439E+01  0.4798337E+05  0.1475786E+01
  0.1938095E+01  0.8657193E+05 -0.1015084E+01  0.2312550E+06 -0.2334333E+01  0.4868370E+05  0.1476788E+01
  0.1969048E+01  0.7985837E+05 -0.1022027E+01  0.2326159E+06 -0.2326462E+01  0.4943191E+05  0.1480053E+01
  0.2000000E+01  0.7303934E+05 -0.1035017E+01  0.2336005E+06 -0.2318816E+01  0.5021595E+05  0.1485664E+01
