VARIABLES="w (rad/s)"
"abs(F   1   1)" "angle(F   1   1)"
"abs(F   1   2)" "angle(F   1   2)"
"abs(F   1   3)" "angle(F   1   3)"
Zone t="Diffraction force - beta =   0.000 deg",I=    64,F=POINT
  0.5000000E-01  0.1502069E+04 -0.1570795E+01  0.2011593E+03 -0.3090791E+01  0.1354452E+04  0.1570797E+01
  0.8095238E-01  0.2459285E+04 -0.1570793E+01  0.5214714E+03 -0.3088968E+01  0.2222518E+04  0.1570799E+01
  0.1119048E+00  0.3436249E+04 -0.1570789E+01  0.9906056E+03 -0.3086727E+01  0.3095529E+04  0.1570801E+01
  0.1428571E+00  0.4439304E+04 -0.1570783E+01  0.1610393E+04 -0.3083927E+01  0.3994607E+04  0.1570804E+01
  0.1738095E+00  0.5485663E+04 -0.1570775E+01  0.2382408E+04 -0.3080362E+01  0.4925579E+04  0.1570809E+01
  0.2047619E+00  0.6578277E+04 -0.1570763E+01  0.3313109E+04 -0.3075943E+01  0.5904508E+04  0.1570816E+01
  0.2357143E+00  0.7747125E+04 -0.1570745E+01  0.4403778E+04 -0.3070327E+01  0.6923067E+04  0.1570826E+01
  0.2666667E+00  0.8991751E+04 -0.1570720E+01  0.5662469E+04 -0.3063523E+01  0.8022161E+04  0.1570840E+01
  0.2976190E+00  0.1033372E+05 -0.1570681E+01  0.7094817E+04 -0.3054982E+01  0.9198271E+04  0.1570862E+01
  0.3285715E+00  0.1180652E+05 -0.1570625E+01  0.8703658E+04 -0.3044736E+01  0.1045587E+05  0.1570894E+01
  0.3595238E+00  0.1341588E+05 -0.1570540E+01  0.1048792E+05 -0.3032266E+01  0.1183792E+05  0.1570943E+01
  0.3904762E+00  0.1516963E+05 -0.1570412E+01  0.1246283E+05 -0.3017576E+01  0.1336367E+05  0.1571014E+01
  0.4214286E+00  0.1712750E+05 -0.1570226E+01  0.1459318E+05 -0.3001056E+01  0.1499077E+05  0.1571118E+01
  0.4523810E+00  0.1927513E+05 -0.1569953E+01  0.1689223E+05 -0.2981922E+01  0.1676334E+05  0.1571269E+01
  0.4833333E+00  0.2159931E+05 -0.1569575E+01  0.1932664E+05 -0.2962555E+01  0.1869883E+05  0.1571477E+01
  0.5142857E+00  0.2409433E+05 -0.1569049E+01  0.2189709E+05 -0.2941620E+01  0.2077814E+05  0.1571764E+01
  0.5452381E+00  0.2677152E+05 -0.1568350E+01  0.2457978E+05 -0.2920647E+01  0.2292476E+05  0.1572143E+01
  0.5761905E+00  0.2961025E+05 -0.1567441E+01  0.2736036E+05 -0.2899983E+01  0.2515859E+05  0.1572630E+01
  0.6071429E+00  0.3256894E+05 -0.1566268E+01  0.3023753E+05 -0.2878845E+01  0.2750087E+05  0.1573253E+01
  0.6380953E+00  0.3562007E+05 -0.1564804E+01  0.3322514E+05 -0.2859038E+01  0.2992843E+05  0.1574019E+01
  0.6690477E+00  0.3877973E+05 -0.1562989E+01  0.3628276E+05 -0.2839357E+01  0.3234588E+05  0.1574957E+01
  0.7000000E+00  0.4206702E+05 -0.1560767E+01  0.3939136E+05 -0.2819484E+01  0.3475879E+05  0.1576094E+01
  0.7309524E+00  0.4542848E+05 -0.1558091E+01  0.4257249E+05 -0.2800443E+01  0.3720619E+05  0.1577442E+01
  0.7619048E+00  0.4883937E+05 -0.1554888E+01  0.4581024E+05 -0.2781887E+01  0.3967628E+05  0.1579028E+01
  0.7928572E+00  0.5228928E+05 -0.1551093E+01  0.4908659E+05 -0.2763686E+01  0.4216031E+05  0.1580874E+01
  0.8238096E+00  0.5575855E+05 -0.1546643E+01  0.5238456E+05 -0.2745826E+01  0.4460918E+05  0.1582996E+01
  0.8547620E+00  0.5930117E+05 -0.1541499E+01  0.5570335E+05 -0.2728476E+01  0.4697107E+05  0.1585403E+01
  0.8857143E+00  0.6286242E+05 -0.1535586E+01  0.5902277E+05 -0.2711603E+01  0.4924705E+05  0.1588107E+01
  0.9166667E+00  0.6642483E+05 -0.1528848E+01  0.6234022E+05 -0.2695333E+01  0.5149120E+05  0.1591109E+01
  0.9476191E+00  0.6991403E+05 -0.1521205E+01  0.6563454E+05 -0.2679561E+01  0.5368116E+05  0.1594409E+01
  0.9785714E+00  0.7336074E+05 -0.1512632E+01  0.6891380E+05 -0.2664529E+01  0.5582982E+05  0.1597994E+01
  0.1009524E+01  0.7669170E+05 -0.1503071E+01  0.7215974E+05 -0.2650100E+01  0.5785763E+05  0.1601841E+01
  0.1040476E+01  0.7993025E+05 -0.1492539E+01  0.7536849E+05 -0.2636315E+01  0.5972838E+05  0.1605910E+01
  0.1071429E+01  0.8305259E+05 -0.1481023E+01  0.7852005E+05 -0.2623039E+01  0.6146997E+05  0.1610156E+01
  0.1102381E+01  0.8597812E+05 -0.1468491E+01  0.8160469E+05 -0.2610307E+01  0.6299863E+05  0.1614508E+01
  0.1133333E+01  0.8874189E+05 -0.1455003E+01  0.8462296E+05 -0.2598317E+01  0.6443020E+05  0.1618900E+01
  0.1164286E+01  0.9121801E+05 -0.1440506E+01  0.8757418E+05 -0.2587122E+01  0.6568716E+05  0.1623241E+01
  0.1195238E+01  0.9340882E+05 -0.1425089E+01  0.9045673E+05 -0.2576798E+01  0.6680214E+05  0.1627427E+01
  0.1226190E+01  0.9527439E+05 -0.1408809E+01  0.9326294E+05 -0.2567316E+01  0.6779939E+05  0.1631362E+01
  0.1257143E+01  0.9669605E+05 -0.1391564E+01  0.9599251E+05 -0.2558127E+01  0.6861424E+05  0.1634946E+01
  0.1288095E+01  0.9780059E+05 -0.1373991E+01  0.9860897E+05 -0.2550480E+01  0.6927161E+05  0.1637952E+01
  0.1319048E+01  0.9843515E+05 -0.1355803E+01  0.1011539E+06 -0.2543129E+01  0.6970853E+05  0.1640320E+01
  0.1350000E+01  0.9861336E+05 -0.1337298E+01  0.1036033E+06 -0.2536527E+01  0.6996066E+05  0.1641897E+01
  0.1380952E+01  0.9831557E+05 -0.1318693E+01  0.1059588E+06 -0.2530834E+01  0.7002877E+05  0.1642535E+01
  0.1411905E+01  0.9723888E+05 -0.1300754E+01  0.1079476E+06 -0.2526408E+01  0.7012499E+05  0.1642063E+01
  0.1442857E+01  0.9594507E+05 -0.1282381E+01  0.1100909E+06 -0.2522108E+01  0.6997271E+05  0.1640741E+01
  0.1473810E+01  0.9413702E+05 -0.1264483E+01  0.1121442E+06 -0.2518678E+01  0.6972052E+05  0.1638336E+01
  0.1504762E+01  0.9183533E+05 -0.1247410E+01  0.1141129E+06 -0.2516130E+01  0.6940444E+05  0.1634852E+01
  0.1535714E+01  0.8899823E+05 -0.1231303E+01  0.1160010E+06 -0.2514234E+01  0.6900405E+05  0.1630299E+01
  0.1566667E+01  0.8568466E+05 -0.1216618E+01  0.1178107E+06 -0.2513174E+01  0.6858893E+05  0.1624839E+01
  0.1597619E+01  0.8188747E+05 -0.1203719E+01  0.1195475E+06 -0.2512856E+01  0.6812356E+05  0.1618465E+01
  0.1628572E+01  0.7766294E+05 -0.1193025E+01  0.1212170E+06 -0.2513149E+01  0.6770172E+05  0.1611633E+01
  0.1659524E+01  0.7301210E+05 -0.1185023E+01  0.1228091E+06 -0.2513983E+01  0.6729946E+05  0.1604428E+01
  0.1690476E+01  0.6796970E+05 -0.1180408E+01  0.1243447E+06 -0.2515226E+01  0.6690727E+05  0.1597047E+01
  0.1721429E+01  0.6262338E+05 -0.1180318E+01  0.1258574E+06 -0.2517060E+01  0.6660283E+05  0.1590023E+01
  0.1752381E+01  0.5697172E+05 -0.1186035E+01  0.1273244E+06 -0.2519231E+01  0.6631756E+05  0.1583394E+01
  0.1783333E+01  0.5107375E+05 -0.1199352E+01  0.1287530E+06 -0.2521537E+01  0.6609620E+05  0.1577596E+01
  0.1814286E+01  0.4501245E+05 -0.1223562E+01  0.1301664E+06 -0.2524105E+01  0.6594656E+05  0.1573038E+01
  0.1845238E+01  0.3883533E+05 -0.1263766E+01  0.1315472E+06 -0.2526600E+01  0.6580923E+05  0.1569597E+01
  0.1876190E+01  0.3268121E+05 -0.1328388E+01  0.1328900E+06 -0.2528494E+01  0.6573873E+05  0.1567891E+01
  0.1907143E+01  0.2671721E+05 -0.1432897E+01  0.1341708E+06 -0.2529712E+01  0.6574424E+05  0.1568201E+01
  0.1938095E+01  0.2124303E+05 -0.1606343E+01  0.1353428E+06 -0.2529998E+01  0.6575992E+05  0.1570330E+01
  0.1969048E+01  0.1696524E+05 -0.1894600E+01  0.1364311E+06 -0.2529540E+01  0.6583704E+05  0.1574775E+01
  0.2000000E+01  0.1503867E+05 -0.2319268E+01  0.1373608E+06 -0.2528017E+01  0.6592037E+05  0.1581206E+01
