VARIABLES="w (rad/s)"
"abs(F   1   1)" "angle(F   1   1)"
"abs(F   1   2)" "angle(F   1   2)"
"abs(F   1   3)" "angle(F   1   3)"
Zone t="Diffraction force - beta =   0.000 deg",I=    64,F=POINT
  0.5000000E-01  0.1493541E+04 -0.1570803E+01  0.7233241E+05 -0.4965025E-05  0.4784513E+04  0.1570832E+01
  0.8095238E-01  0.2443439E+04 -0.1570809E+01  0.7210735E+05 -0.1334014E-04  0.7815108E+04  0.1570808E+01
  0.1119048E+00  0.3410210E+04 -0.1570792E+01  0.7177647E+05 -0.2643780E-04  0.1089708E+05  0.1570789E+01
  0.1428571E+00  0.4408106E+04 -0.1570772E+01  0.7134020E+05 -0.4523193E-04  0.1406684E+05  0.1570796E+01
  0.1738095E+00  0.5440906E+04 -0.1570795E+01  0.7079920E+05 -0.7111496E-04  0.1734688E+05  0.1570801E+01
  0.2047619E+00  0.6526064E+04 -0.1570792E+01  0.7015466E+05 -0.1062408E-03  0.2077971E+05  0.1570796E+01
  0.2357143E+00  0.7676527E+04 -0.1570781E+01  0.6940782E+05 -0.1536332E-03  0.2440545E+05  0.1570807E+01
  0.2666667E+00  0.8900773E+04 -0.1570782E+01  0.6856006E+05 -0.2168137E-03  0.2825614E+05  0.1570813E+01
  0.2976190E+00  0.1022521E+05 -0.1570770E+01  0.6761493E+05 -0.3023442E-03  0.3240081E+05  0.1570825E+01
  0.3285715E+00  0.1166119E+05 -0.1570757E+01  0.6657415E+05 -0.4159641E-03  0.3687997E+05  0.1570834E+01
  0.3595238E+00  0.1323779E+05 -0.1570735E+01  0.6544388E+05 -0.5680300E-03  0.4176454E+05  0.1570854E+01
  0.3904762E+00  0.1495955E+05 -0.1570705E+01  0.6422759E+05 -0.7688517E-03  0.4708677E+05  0.1570885E+01
  0.4214286E+00  0.1686021E+05 -0.1570662E+01  0.6293324E+05 -0.1024849E-02  0.5291505E+05  0.1570930E+01
  0.4523810E+00  0.1892800E+05 -0.1570599E+01  0.6156785E+05 -0.1357215E-02  0.5925011E+05  0.1570995E+01
  0.4833333E+00  0.2117518E+05 -0.1570509E+01  0.6013680E+05 -0.1751281E-02  0.6607596E+05  0.1571085E+01
  0.5142857E+00  0.2359766E+05 -0.1570388E+01  0.5865275E+05 -0.2233807E-02  0.7338038E+05  0.1571205E+01
  0.5452381E+00  0.2616010E+05 -0.1570222E+01  0.5711476E+05 -0.2793855E-02  0.8107675E+05  0.1571368E+01
  0.5761905E+00  0.2887084E+05 -0.1570016E+01  0.5553575E+05 -0.3430607E-02  0.8913423E+05  0.1571577E+01
  0.6071429E+00  0.3167983E+05 -0.1569746E+01  0.5391917E+05 -0.4169253E-02  0.9742758E+05  0.1571848E+01
  0.6380953E+00  0.3459147E+05 -0.1569411E+01  0.5226368E+05 -0.4982715E-02  0.1059422E+06  0.1572184E+01
  0.6690477E+00  0.3761223E+05 -0.1568997E+01  0.5058849E+05 -0.5891992E-02  0.1146602E+06  0.1572597E+01
  0.7000000E+00  0.4067795E+05 -0.1568487E+01  0.4889025E+05 -0.6913797E-02  0.1234589E+06  0.1573106E+01
  0.7309524E+00  0.4381547E+05 -0.1567876E+01  0.4717024E+05 -0.8035699E-02  0.1323656E+06  0.1573717E+01
  0.7619048E+00  0.4702489E+05 -0.1567145E+01  0.4544453E+05 -0.9266441E-02  0.1413021E+06  0.1574448E+01
  0.7928572E+00  0.5027750E+05 -0.1566279E+01  0.4371573E+05 -0.1061827E-01  0.1502680E+06  0.1575314E+01
  0.8238096E+00  0.5354493E+05 -0.1565263E+01  0.4198352E+05 -0.1210059E-01  0.1591628E+06  0.1576329E+01
  0.8547620E+00  0.5685145E+05 -0.1564082E+01  0.4025047E+05 -0.1372196E-01  0.1680189E+06  0.1577510E+01
  0.8857143E+00  0.6021888E+05 -0.1562718E+01  0.3854044E+05 -0.1545449E-01  0.1768656E+06  0.1578875E+01
  0.9166667E+00  0.6356973E+05 -0.1561153E+01  0.3684218E+05 -0.1734032E-01  0.1855759E+06  0.1580440E+01
  0.9476191E+00  0.6691020E+05 -0.1559372E+01  0.3516079E+05 -0.1938893E-01  0.1940673E+06  0.1582220E+01
  0.9785714E+00  0.7026290E+05 -0.1557355E+01  0.3349791E+05 -0.2161892E-01  0.2024005E+06  0.1584236E+01
  0.1009524E+01  0.7363029E+05 -0.1555086E+01  0.3187069E+05 -0.2397275E-01  0.2105647E+06  0.1586504E+01
  0.1040476E+01  0.7699385E+05 -0.1552547E+01  0.3027673E+05 -0.2649095E-01  0.2185638E+06  0.1589044E+01
  0.1071429E+01  0.8028618E+05 -0.1549721E+01  0.2871499E+05 -0.2921395E-01  0.2262031E+06  0.1591869E+01
  0.1102381E+01  0.8356502E+05 -0.1546588E+01  0.2718764E+05 -0.3216411E-01  0.2336450E+06  0.1595000E+01
  0.1133333E+01  0.8679592E+05 -0.1543135E+01  0.2569566E+05 -0.3537742E-01  0.2407535E+06  0.1598451E+01
  0.1164286E+01  0.9001233E+05 -0.1539351E+01  0.2425585E+05 -0.3866999E-01  0.2475581E+06  0.1602233E+01
  0.1195238E+01  0.9319189E+05 -0.1535219E+01  0.2286162E+05 -0.4216750E-01  0.2540652E+06  0.1606363E+01
  0.1226190E+01  0.9626448E+05 -0.1530725E+01  0.2151247E+05 -0.4593123E-01  0.2601016E+06  0.1610854E+01
  0.1257143E+01  0.9920666E+05 -0.1525873E+01  0.2020945E+05 -0.5000736E-01  0.2656356E+06  0.1615703E+01
  0.1288095E+01  0.1021972E+06 -0.1520590E+01  0.1895092E+05 -0.5438527E-01  0.2710372E+06  0.1620982E+01
  0.1319048E+01  0.1050210E+06 -0.1514935E+01  0.1773956E+05 -0.5917853E-01  0.2757959E+06  0.1626630E+01
  0.1350000E+01  0.1078119E+06 -0.1508866E+01  0.1659044E+05 -0.6378741E-01  0.2802440E+06  0.1632692E+01
  0.1380952E+01  0.1105084E+06 -0.1502373E+01  0.1548944E+05 -0.6876545E-01  0.2843146E+06  0.1639176E+01
  0.1411905E+01  0.1129185E+06 -0.1495464E+01  0.1443967E+05 -0.7407261E-01  0.2877400E+06  0.1646078E+01
  0.1442857E+01  0.1152931E+06 -0.1488163E+01  0.1343821E+05 -0.7976873E-01  0.2906338E+06  0.1653367E+01
  0.1473810E+01  0.1175842E+06 -0.1480452E+01  0.1248486E+05 -0.8589563E-01  0.2931599E+06  0.1661065E+01
  0.1504762E+01  0.1197121E+06 -0.1472361E+01  0.1157837E+05 -0.9254259E-01  0.2950463E+06  0.1669135E+01
  0.1535714E+01  0.1217315E+06 -0.1463874E+01  0.1072349E+05 -0.9926333E-01  0.2964519E+06  0.1677602E+01
  0.1566667E+01  0.1236452E+06 -0.1454997E+01  0.9917029E+04 -0.1059910E+00  0.2974188E+06  0.1686450E+01
  0.1597619E+01  0.1253742E+06 -0.1445713E+01  0.9159580E+04 -0.1130096E+00  0.2979093E+06  0.1695712E+01
  0.1628572E+01  0.1269029E+06 -0.1436090E+01  0.8447277E+04 -0.1203945E+00  0.2977750E+06  0.1705311E+01
  0.1659524E+01  0.1282023E+06 -0.1426175E+01  0.7777129E+04 -0.1282853E+00  0.2969411E+06  0.1715178E+01
  0.1690476E+01  0.1293785E+06 -0.1415868E+01  0.7149342E+04 -0.1366021E+00  0.2958003E+06  0.1725459E+01
  0.1721429E+01  0.1303822E+06 -0.1405283E+01  0.6559509E+04 -0.1456685E+00  0.2941610E+06  0.1735999E+01
  0.1752381E+01  0.1311492E+06 -0.1394516E+01  0.6009840E+04 -0.1552695E+00  0.2918372E+06  0.1746694E+01
  0.1783333E+01  0.1317802E+06 -0.1383487E+01  0.5498707E+04 -0.1642486E+00  0.2891754E+06  0.1757664E+01
  0.1814286E+01  0.1322738E+06 -0.1372310E+01  0.5019746E+04 -0.1742109E+00  0.2861412E+06  0.1768751E+01
  0.1845238E+01  0.1324989E+06 -0.1361049E+01  0.4581444E+04 -0.1834966E+00  0.2825892E+06  0.1779973E+01
  0.1876190E+01  0.1325192E+06 -0.1349783E+01  0.4174948E+04 -0.1931500E+00  0.2785359E+06  0.1791185E+01
  0.1907143E+01  0.1322621E+06 -0.1338697E+01  0.3796962E+04 -0.2038006E+00  0.2737872E+06  0.1802101E+01
  0.1938095E+01  0.1318676E+06 -0.1327535E+01  0.3449327E+04 -0.2141598E+00  0.2688469E+06  0.1813185E+01
  0.1969048E+01  0.1313201E+06 -0.1316378E+01  0.3127251E+04 -0.2257687E+00  0.2637018E+06  0.1824278E+01
  0.2000000E+01  0.1305316E+06 -0.1305560E+01  0.2829447E+04 -0.2385102E+00  0.2580124E+06  0.1834926E+01
