VARIABLES="w (rad/s)"
"A   1   1" "B   1   1"
"A   1   2" "B   1   2"
"A   1   3" "B   1   3"
Zone t="Motion of body    1 in DoF   1",I=    64,F=POINT
  0.5000000E-01  0.4559022E+05  0.1634896E-02  0.1354218E-02  0.1858532E-05 -0.1431515E+06 -0.5262272E-02
  0.8095238E-01  0.4604675E+05  0.6862693E-02  0.1354778E-02  0.7491395E-05 -0.1442434E+06 -0.2199790E-01
  0.1119048E+00  0.4616064E+05  0.1922798E-01  0.9715303E-03  0.1205267E-04 -0.1444899E+06 -0.6140999E-01
  0.1428571E+00  0.4627612E+05  0.4295787E-01 -0.3805160E-03  0.2209723E-05 -0.1446687E+06 -0.1369928E+00
  0.1738095E+00  0.4628509E+05  0.8536087E-01 -0.8779029E-03 -0.1652836E-05 -0.1446961E+06 -0.2720496E+00
  0.2047619E+00  0.4633037E+05  0.1578334E+00  0.5123227E-03  0.1241267E-04 -0.1447770E+06 -0.5026932E+00
  0.2357143E+00  0.4639638E+05  0.2769163E+00 -0.2597462E-02 -0.3719435E-04 -0.1449069E+06 -0.8805093E+00
  0.2666667E+00  0.4640576E+05  0.4698244E+00 -0.8440017E-03 -0.1800596E-04 -0.1449341E+06 -0.1491410E+01
  0.2976190E+00  0.4646757E+05  0.7844663E+00  0.1243286E-02  0.7273722E-04 -0.1450700E+06 -0.2485978E+01
  0.3285715E+00  0.4650355E+05  0.1290906E+01  0.1311924E-02  0.9456649E-04 -0.1451581E+06 -0.4082754E+01
  0.3595238E+00  0.4659108E+05  0.2108353E+01  0.9549374E-03  0.5727820E-04 -0.1453153E+06 -0.6651683E+01
  0.3904762E+00  0.4662598E+05  0.3413831E+01 -0.2891726E-02 -0.8117594E-04 -0.1453946E+06 -0.1074501E+02
  0.4214286E+00  0.4673251E+05  0.5457616E+01 -0.1393981E-02 -0.7990934E-04 -0.1455846E+06 -0.1712677E+02
  0.4523810E+00  0.4679394E+05  0.8641681E+01 -0.1939472E-03 -0.5551428E-04 -0.1457759E+06 -0.2705117E+02
  0.4833333E+00  0.4688222E+05  0.1333998E+02  0.8523875E-03  0.4797056E-04 -0.1459497E+06 -0.4162292E+02
  0.5142857E+00  0.4701421E+05  0.2026198E+02  0.7046594E-03  0.8291006E-04 -0.1462214E+06 -0.6300555E+02
  0.5452381E+00  0.4711083E+05  0.3001342E+02  0.8955377E-03  0.1434982E-03 -0.1464703E+06 -0.9301671E+02
  0.5761905E+00  0.4726913E+05  0.4341534E+02 -0.1138734E-02  0.8541346E-04 -0.1468177E+06 -0.1340304E+03
  0.6071429E+00  0.4738201E+05  0.6160654E+02 -0.1118379E-02 -0.3416240E-03 -0.1470727E+06 -0.1894641E+03
  0.6380953E+00  0.4751832E+05  0.8547446E+02  0.4543475E-03  0.1582205E-03 -0.1473791E+06 -0.2617726E+03
  0.6690477E+00  0.4772437E+05  0.1165956E+03 -0.1938572E-03  0.1500845E-03 -0.1478100E+06 -0.3554241E+03
  0.7000000E+00  0.4786983E+05  0.1565096E+03 -0.9482247E-03  0.4446507E-04 -0.1481705E+06 -0.4750047E+03
  0.7309524E+00  0.4804726E+05  0.2068296E+03 -0.1189887E-02 -0.2373457E-03 -0.1486160E+06 -0.6248146E+03
  0.7619048E+00  0.4826495E+05  0.2697579E+03  0.7009505E-04 -0.6294250E-04 -0.1490466E+06 -0.8105519E+03
  0.7928572E+00  0.4848601E+05  0.3475025E+03  0.1068115E-02  0.7327795E-03 -0.1495339E+06 -0.1038570E+04
  0.8238096E+00  0.4867468E+05  0.4423252E+03  0.2778334E-04  0.1448393E-03 -0.1499545E+06 -0.1314771E+04
  0.8547620E+00  0.4888983E+05  0.5570619E+03 -0.1071090E-03  0.4701614E-03 -0.1504184E+06 -0.1646264E+04
  0.8857143E+00  0.4917233E+05  0.6950639E+03 -0.8269279E-03  0.1246929E-03 -0.1510057E+06 -0.2041321E+04
  0.9166667E+00  0.4941668E+05  0.8587020E+03 -0.2746582E-03  0.3747940E-03 -0.1515668E+06 -0.2506606E+04
  0.9476191E+00  0.4964093E+05  0.1051207E+04 -0.7729075E-03  0.9298325E-04 -0.1520271E+06 -0.3048692E+04
  0.9785714E+00  0.4988801E+05  0.1276540E+04 -0.8264249E-03  0.3929138E-03 -0.1525056E+06 -0.3676829E+04
  0.1009524E+01  0.5016677E+05  0.1538687E+04  0.1058039E-03  0.5440712E-03 -0.1530209E+06 -0.4399719E+04
  0.1040476E+01  0.5046297E+05  0.1841421E+04  0.4912841E-03 -0.8130074E-03 -0.1535937E+06 -0.5226523E+04
  0.1071429E+01  0.5070330E+05  0.2186876E+04 -0.1993815E-03  0.5292892E-04 -0.1540301E+06 -0.6160405E+04
  0.1102381E+01  0.5096723E+05  0.2580854E+04 -0.2768333E-04  0.4143715E-03 -0.1545378E+06 -0.7214562E+04
  0.1133333E+01  0.5121709E+05  0.3026081E+04 -0.5385455E-03 -0.2288818E-03 -0.1549774E+06 -0.8391680E+04
  0.1164286E+01  0.5148943E+05  0.3527397E+04 -0.8453181E-03 -0.3623962E-04 -0.1554020E+06 -0.9698619E+04
  0.1195238E+01  0.5176792E+05  0.4088419E+04 -0.1251099E-02 -0.3309250E-03 -0.1558189E+06 -0.1114236E+05
  0.1226190E+01  0.5199131E+05  0.4709712E+04  0.2737693E-03  0.6418228E-03 -0.1561002E+06 -0.1272062E+05
  0.1257143E+01  0.5214947E+05  0.5391352E+04  0.1213767E-03  0.4844666E-03 -0.1562340E+06 -0.1442987E+05
  0.1288095E+01  0.5240043E+05  0.6152841E+04  0.5923005E-03  0.1486778E-02 -0.1565337E+06 -0.1630985E+05
  0.1319048E+01  0.5255760E+05  0.6977625E+04 -0.1503845E-03 -0.2059937E-03 -0.1565808E+06 -0.1831294E+05
  0.1350000E+01  0.5274087E+05  0.7880541E+04 -0.2486617E-03 -0.5435944E-03 -0.1566556E+06 -0.2047092E+05
  0.1380952E+01  0.5290590E+05  0.8860443E+04  0.6629681E-04 -0.6046295E-03 -0.1567017E+06 -0.2277873E+05
  0.1411905E+01  0.5292395E+05  0.9900824E+04  0.5403618E-03 -0.3890991E-03 -0.1565442E+06 -0.2520888E+05
  0.1442857E+01  0.5295418E+05  0.1101828E+05  0.2115080E-03 -0.2937317E-03 -0.1562489E+06 -0.2775027E+05
  0.1473810E+01  0.5298162E+05  0.1221152E+05  0.2070660E-04  0.5531311E-03 -0.1559412E+06 -0.3041346E+05
  0.1504762E+01  0.5294127E+05  0.1346798E+05  0.3447714E-03 -0.3814697E-05 -0.1554311E+06 -0.3315282E+05
  0.1535714E+01  0.5287853E+05  0.1479514E+05  0.3676303E-03  0.1888275E-03 -0.1548391E+06 -0.3598019E+05
  0.1566667E+01  0.5279573E+05  0.1619115E+05 -0.4772430E-03  0.2002716E-03 -0.1541744E+06 -0.3888497E+05
  0.1597619E+01  0.5265513E+05  0.1764803E+05 -0.4297930E-03 -0.1792908E-03 -0.1534367E+06 -0.4186186E+05
  0.1628572E+01  0.5243918E+05  0.1914971E+05 -0.2248664E-03  0.5645752E-03 -0.1525313E+06 -0.4485129E+05
  0.1659524E+01  0.5212948E+05  0.2067845E+05  0.2666457E-03  0.6790161E-03 -0.1514038E+06 -0.4779462E+05
  0.1690476E+01  0.5181222E+05  0.2226579E+05 -0.2256581E-03  0.8773804E-04 -0.1503140E+06 -0.5079218E+05
  0.1721429E+01  0.5144494E+05  0.2387987E+05  0.5318416E-04 -0.8392334E-04 -0.1491140E+06 -0.5374111E+05
  0.1752381E+01  0.5098956E+05  0.2548994E+05  0.3308835E-03 -0.4501343E-03 -0.1477127E+06 -0.5655434E+05
  0.1783333E+01  0.5052014E+05  0.2712798E+05  0.1163661E-02  0.4959106E-04 -0.1463209E+06 -0.5933972E+05
  0.1814286E+01  0.5002682E+05  0.2876555E+05 -0.9671910E-03  0.5340576E-04 -0.1448777E+06 -0.6200130E+05
  0.1845238E+01  0.4945386E+05  0.3036955E+05  0.1488470E-03 -0.2288818E-04 -0.1433545E+06 -0.6452151E+05
  0.1876190E+01  0.4882853E+05  0.3193101E+05 -0.2439857E-04  0.5378723E-03 -0.1417482E+06 -0.6684515E+05
  0.1907143E+01  0.4810618E+05  0.3338720E+05 -0.9601036E-04 -0.3776550E-03 -0.1399359E+06 -0.6878524E+05
  0.1938095E+01  0.4738770E+05  0.3483007E+05 -0.2598118E-03 -0.8773804E-04 -0.1382203E+06 -0.7065966E+05
  0.1969048E+01  0.4665916E+05  0.3622677E+05  0.6664419E-03  0.2288818E-04 -0.1365414E+06 -0.7235398E+05
  0.2000000E+01  0.4586764E+05  0.3749840E+05  0.4730225E-03 -0.2326965E-03 -0.1347575E+06 -0.7367670E+05
Zone t="Motion of body    1 in DoF   2",I=    64,F=POINT
  0.5000000E-01  0.4529953E-03  0.2086163E-05  0.8268257E+04  0.7180498E+01  0.1907349E-03  0.4470348E-06
  0.8095238E-01 -0.7598540E-03 -0.3576279E-06  0.8233054E+04  0.1187754E+02  0.2356136E-02 -0.7092953E-05
  0.1119048E+00 -0.2343604E-03  0.7867813E-05  0.8211316E+04  0.1694709E+02  0.5317851E-02 -0.2479553E-04
  0.1428571E+00 -0.7143020E-03  0.1192093E-05  0.8199325E+04  0.2256962E+02 -0.1495361E-02  0.4279613E-04
  0.1738095E+00  0.2908053E-03  0.3218651E-05  0.8195617E+04  0.2893443E+02  0.2545918E-02 -0.4649162E-04
  0.2047619E+00  0.6846495E-03 -0.2622604E-04  0.8190947E+04  0.3634298E+02 -0.7451967E-04  0.1347065E-04
  0.2357143E+00  0.4329103E-03 -0.1764297E-04  0.8188760E+04  0.4514368E+02 -0.2265699E-03  0.6341934E-04
  0.2666667E+00  0.1609325E-02 -0.1883507E-04  0.8195495E+04  0.5558631E+02 -0.4863739E-02 -0.1835823E-03
  0.2976190E+00  0.5255127E-03 -0.2050400E-04  0.8192983E+04  0.6843523E+02  0.1153564E-02 -0.5149841E-04
  0.3285715E+00  0.9462106E-03 -0.4768372E-05  0.8201294E+04  0.8387440E+02  0.2832827E-02 -0.1087189E-03
  0.3595238E+00 -0.1485458E-03  0.7867813E-04  0.8197888E+04  0.1027534E+03  0.3777308E-02  0.8010864E-04
  0.3904762E+00  0.6740849E-03 -0.1335144E-04  0.8199782E+04  0.1254486E+03  0.1172321E-02 -0.1478195E-04
  0.4214286E+00  0.8780268E-03  0.2861023E-05  0.8192853E+04  0.1514570E+03  0.7241459E-03  0.2813339E-03
  0.4523810E+00  0.3921107E-03 -0.4005432E-04  0.8178428E+04  0.1823044E+03 -0.4486084E-02 -0.8296967E-04
  0.4833333E+00 -0.8523875E-03 -0.1754761E-03  0.8167263E+04  0.2142620E+03  0.6629680E-03  0.2431870E-03
  0.5142857E+00  0.3412035E-03 -0.1621246E-03  0.8131480E+04  0.2494378E+03  0.5637275E-03 -0.3252029E-03
  0.5452381E+00  0.6506641E-03  0.8392334E-04  0.8108340E+04  0.2850675E+03 -0.3750064E-02 -0.7724762E-03
  0.5761905E+00  0.7150192E-03 -0.2059937E-03  0.8067704E+04  0.3200499E+03  0.4501973E-02  0.1029968E-03
  0.6071429E+00 -0.6660012E-03 -0.2555847E-03  0.8022705E+04  0.3558859E+03  0.2312155E-02  0.3566742E-03
  0.6380953E+00  0.6576083E-04  0.4959106E-04  0.7995168E+04  0.3889040E+03  0.1434782E-03 -0.1525879E-04
  0.6690477E+00  0.7469204E-03  0.2784729E-03  0.7940025E+04  0.4203674E+03  0.1870152E-02 -0.9746552E-03
  0.7000000E+00  0.8828299E-03  0.1792908E-03  0.7890156E+04  0.4506728E+03  0.2049037E-02 -0.1335144E-02
  0.7309524E+00  0.9706975E-03 -0.7629395E-05  0.7854953E+04  0.4779469E+03 -0.5385805E-02 -0.6923676E-03
  0.7619048E+00  0.8010864E-04  0.7247925E-04  0.7805096E+04  0.5021492E+03  0.8010864E-04 -0.2212524E-03
  0.7928572E+00  0.7986806E-03 -0.3242493E-03  0.7752145E+04  0.5234786E+03  0.4233970E-03  0.6656647E-03
  0.8238096E+00  0.3982279E-03  0.2136230E-03  0.7709582E+04  0.5418785E+03 -0.1629956E-02 -0.1258850E-02
  0.8547620E+00  0.9818329E-03 -0.2517700E-03  0.7682163E+04  0.5573000E+03 -0.2463508E-02  0.1472473E-02
  0.8857143E+00 -0.1218857E-02 -0.2822876E-03  0.7625861E+04  0.5670688E+03  0.4031274E-02  0.1155853E-02
  0.9166667E+00  0.8239746E-03  0.2098083E-03  0.7581533E+04  0.5738295E+03  0.6325461E-03  0.3833771E-03
  0.9476191E+00  0.1123131E-02  0.4997253E-03  0.7545971E+04  0.5776375E+03 -0.3606902E-02 -0.1945496E-03
  0.9785714E+00 -0.1364381E-03 -0.3128052E-03  0.7523353E+04  0.5791216E+03  0.1247434E-02  0.8392334E-03
  0.1009524E+01  0.9408987E-03  0.4806519E-03  0.7485698E+04  0.5739628E+03 -0.1602173E-02 -0.9460449E-03
  0.1040476E+01  0.7845880E-03 -0.2212524E-03  0.7447932E+04  0.5649161E+03  0.1554511E-02 -0.8735657E-03
  0.1071429E+01  0.2421061E-03 -0.4119873E-03  0.7418906E+04  0.5539335E+03 -0.8829753E-03 -0.9346008E-03
  0.1102381E+01  0.5104114E-03 -0.2288818E-03  0.7399988E+04  0.5420770E+03 -0.1190383E-02  0.5645752E-03
  0.1133333E+01  0.3929699E-03  0.7629395E-04  0.7393055E+04  0.5305854E+03 -0.6193273E-03 -0.3776550E-03
  0.1164286E+01 -0.5463442E-03 -0.2441406E-03  0.7368589E+04  0.5086692E+03  0.2411450E-02  0.2059937E-03
  0.1195238E+01  0.8697054E-04 -0.6561279E-03  0.7345782E+04  0.4841530E+03  0.2297937E-02  0.1674652E-02
  0.1226190E+01 -0.2670612E-03 -0.0000000E+00  0.7330857E+04  0.4604612E+03  0.2215043E-02 -0.1344681E-02
  0.1257143E+01  0.4181807E-03  0.3051758E-04  0.7323047E+04  0.4382418E+03  0.4855069E-04 -0.7629395E-03
  0.1288095E+01  0.2650545E-03 -0.7858276E-03  0.7323967E+04  0.4190115E+03  0.1895362E-03  0.1720428E-02
  0.1319048E+01  0.3781301E-03 -0.4806519E-03  0.7333507E+04  0.4044068E+03 -0.6246738E-03  0.4940033E-03
  0.1350000E+01  0.6922969E-04  0.1525879E-04  0.7318757E+04  0.3669826E+03  0.2893518E-02 -0.1106262E-03
  0.1380952E+01  0.4385258E-03  0.4043579E-03  0.7312153E+04  0.3346006E+03 -0.2872862E-02 -0.1586914E-02
  0.1411905E+01  0.7159794E-04  0.2059937E-03  0.7310732E+04  0.3064800E+03  0.1015880E-02  0.8630753E-03
  0.1442857E+01  0.2432342E-03 -0.2517700E-03  0.7314013E+04  0.2822469E+03  0.1417103E-02  0.1003265E-02
  0.1473810E+01  0.3895428E-03 -0.2288818E-03  0.7322020E+04  0.2637956E+03  0.2898923E-03  0.1243591E-02
  0.1504762E+01  0.2459031E-03 -0.6637573E-03  0.7335481E+04  0.2531735E+03  0.1744137E-02  0.2466202E-02
  0.1535714E+01 -0.3316125E-03  0.1373291E-03  0.7343766E+04  0.2324675E+03  0.2662836E-02  0.9374619E-03
  0.1566667E+01  0.1047013E-03 -0.7629395E-05  0.7345382E+04  0.1975321E+03  0.1285634E-02  0.2994537E-03
  0.1597619E+01 -0.1098360E-03  0.1831055E-03  0.7349526E+04  0.1686301E+03  0.1604561E-02 -0.7553101E-03
  0.1628572E+01  0.9369431E-04 -0.2593994E-03  0.7356250E+04  0.1459644E+03  0.7495545E-03 -0.5960464E-04
  0.1659524E+01  0.2091790E-03  0.2937317E-03  0.7364619E+04  0.1282347E+03  0.7355743E-03  0.4291534E-05
  0.1690476E+01  0.3384872E-04  0.3700256E-03  0.7374436E+04  0.1172642E+03  0.2274634E-02 -0.5135536E-03
  0.1721429E+01  0.3213210E-03 -0.3852844E-03  0.7386000E+04  0.1140239E+03  0.1560069E-02  0.1063824E-02
  0.1752381E+01 -0.3265298E-04 -0.2670288E-03  0.7398705E+04  0.1199870E+03  0.9752357E-03  0.1740456E-03
  0.1783333E+01 -0.1925174E-04 -0.2059937E-03  0.7405696E+04  0.9165110E+02  0.3696335E-02 -0.1845360E-03
  0.1814286E+01  0.4730826E-03  0.1945496E-03  0.7414004E+04  0.7070339E+02  0.1682071E-02  0.5173683E-04
  0.1845238E+01  0.2770209E-03 -0.1564026E-03  0.7421399E+04  0.5207581E+02  0.6946194E-03  0.4606247E-03
  0.1876190E+01  0.5225361E-03 -0.9536743E-04  0.7429144E+04  0.3953383E+02 -0.1301257E-03  0.1554489E-03
  0.1907143E+01  0.1300140E-03 -0.2098083E-03  0.7436798E+04  0.3035429E+02  0.1600173E-03  0.8865595E-03
  0.1938095E+01  0.9054048E-04 -0.3051758E-04  0.7444016E+04  0.2679768E+02  0.2172972E-02  0.2288818E-03
  0.1969048E+01  0.4572102E-03  0.2975464E-03  0.7450783E+04  0.2790128E+02 -0.1766846E-02 -0.6175041E-03
  0.2000000E+01  0.2307892E-03  0.2670288E-04  0.7457110E+04  0.3513449E+02  0.5187988E-03 -0.1083612E-03
Zone t="Motion of body    1 in DoF   3",I=    64,F=POINT
  0.5000000E-01 -0.1431465E+06 -0.5237073E-02  0.6103516E-03 -0.8364948E-05  0.5624891E+06  0.1689748E-01
  0.8095238E-01 -0.1442522E+06 -0.2199389E-01 -0.3180784E-02 -0.3431069E-04  0.5646106E+06  0.7039423E-01
  0.1119048E+00 -0.1445068E+06 -0.6136576E-01  0.8181308E-03 -0.5236652E-05  0.5650459E+06  0.1957662E+00
  0.1428571E+00 -0.1447000E+06 -0.1370743E+00  0.5313873E-02  0.3830320E-04  0.5653716E+06  0.4370175E+00
  0.1738095E+00 -0.1447233E+06 -0.2721903E+00  0.3401874E-02  0.3191840E-04  0.5654511E+06  0.8676335E+00
  0.2047619E+00 -0.1448086E+06 -0.5030057E+00  0.3949543E-02  0.8094241E-04  0.5656226E+06  0.1602330E+01
  0.2357143E+00 -0.1449420E+06 -0.8809798E+00  0.3398548E-02  0.8452218E-04  0.5658946E+06  0.2801299E+01
  0.2666667E+00 -0.1449654E+06 -0.1492277E+01  0.3061294E-02  0.3423868E-04  0.5659924E+06  0.4737077E+01
  0.2976190E+00 -0.1451029E+06 -0.2487135E+01  0.2076416E-02 -0.4984625E-04  0.5662967E+06  0.7881562E+01
  0.3285715E+00 -0.1451880E+06 -0.4084420E+01  0.2507749E-02 -0.1955573E-03  0.5665282E+06  0.1291656E+02
  0.3595238E+00 -0.1453504E+06 -0.6655812E+01  0.2355512E-02 -0.1309514E-03  0.5668398E+06  0.2099539E+02
  0.3904762E+00 -0.1454296E+06 -0.1075060E+02  0.4767441E-02  0.1505539E-03  0.5670798E+06  0.3383537E+02
  0.4214286E+00 -0.1456227E+06 -0.1713886E+02  0.6408690E-02  0.1397207E-03  0.5674816E+06  0.5378294E+02
  0.4523810E+00 -0.1458102E+06 -0.2706268E+02  0.3238075E-02 -0.2488643E-03  0.5679899E+06  0.8471721E+02
  0.4833333E+00 -0.1459843E+06 -0.4164137E+02 -0.4198798E-02 -0.1977533E-03  0.5684124E+06  0.1299266E+03
  0.5142857E+00 -0.1462609E+06 -0.6304165E+02  0.4598830E-02 -0.1134276E-03  0.5690143E+06  0.1960270E+03
  0.5452381E+00 -0.1465031E+06 -0.9305222E+02  0.5932937E-02  0.3255606E-03  0.5696668E+06  0.2883849E+03
  0.5761905E+00 -0.1468520E+06 -0.1340988E+03  0.1514781E-01  0.2163410E-02  0.5704155E+06  0.4139837E+03
  0.6071429E+00 -0.1471084E+06 -0.1895424E+03  0.1294304E-01  0.2012789E-02  0.5710836E+06  0.5829448E+03
  0.6380953E+00 -0.1474121E+06 -0.2618631E+03  0.1195651E-03 -0.8397102E-03  0.5718377E+06  0.8019745E+03
  0.6690477E+00 -0.1478474E+06 -0.3556264E+03  0.5473615E-03  0.1342297E-03  0.5727834E+06  0.1084066E+04
  0.7000000E+00 -0.1482057E+06 -0.4751782E+03 -0.5776541E-02 -0.2764106E-02  0.5736994E+06  0.1442178E+04
  0.7309524E+00 -0.1486428E+06 -0.6249064E+03  0.5740684E-02  0.2075672E-02  0.5747643E+06  0.1887774E+04
  0.7619048E+00 -0.1490789E+06 -0.8108552E+03  0.8852004E-02  0.1918554E-02  0.5757210E+06  0.2436388E+04
  0.7928572E+00 -0.1495693E+06 -0.1038953E+04 -0.5157745E-02 -0.1984596E-02  0.5768294E+06  0.3105058E+04
  0.8238096E+00 -0.1499860E+06 -0.1315061E+04  0.5297357E-02 -0.4811287E-03  0.5778351E+06  0.3908844E+04
  0.8547620E+00 -0.1504466E+06 -0.1646516E+04  0.1785151E-03 -0.1636028E-02  0.5788672E+06  0.4865796E+04
  0.8857143E+00 -0.1510365E+06 -0.2041994E+04  0.3617810E-02 -0.1075268E-02  0.5800871E+06  0.5996988E+04
  0.9166667E+00 -0.1515951E+06 -0.2506910E+04  0.7124467E-02  0.1635551E-02  0.5813168E+06  0.7317689E+04
  0.9476191E+00 -0.1520523E+06 -0.3048672E+04  0.8308755E-02  0.1819611E-02  0.5823194E+06  0.8841495E+04
  0.9785714E+00 -0.1525274E+06 -0.3676668E+04  0.1684036E-02 -0.1207352E-02  0.5832626E+06  0.1058957E+05
  0.1009524E+01 -0.1530476E+06 -0.4400201E+04  0.2478834E-02 -0.3957748E-03  0.5842598E+06  0.1258140E+05
  0.1040476E+01 -0.1536212E+06 -0.5227160E+04 -0.2845048E-02  0.1907349E-03  0.5853085E+06  0.1483562E+05
  0.1071429E+01 -0.1540551E+06 -0.6160454E+04 -0.3389486E-02 -0.9403229E-03  0.5860755E+06  0.1735313E+05
  0.1102381E+01 -0.1545567E+06 -0.7213156E+04  0.7557550E-02  0.4253387E-03  0.5869769E+06  0.2016243E+05
  0.1133333E+01 -0.1549902E+06 -0.8388867E+04  0.6651037E-02  0.1684189E-02  0.5876384E+06  0.2326129E+05
  0.1164286E+01 -0.1554177E+06 -0.9696313E+04  0.4953958E-02 -0.7610321E-03  0.5882072E+06  0.2665751E+05
  0.1195238E+01 -0.1558342E+06 -0.1114001E+05  0.2195806E-02  0.1846313E-02  0.5886212E+06  0.3035676E+05
  0.1226190E+01 -0.1561157E+06 -0.1271704E+05 -0.3509225E-02  0.7247925E-03  0.5887869E+06  0.3434373E+05
  0.1257143E+01 -0.1562474E+06 -0.1442400E+05  0.3058694E-02  0.6713867E-03  0.5886288E+06  0.3860084E+05
  0.1288095E+01 -0.1565381E+06 -0.1630089E+05  0.3553803E-03 -0.4997253E-03  0.5886612E+06  0.4320254E+05
  0.1319048E+01 -0.1565851E+06 -0.1830267E+05 -0.9254427E-04 -0.3280640E-03  0.5881304E+06  0.4802408E+05
  0.1350000E+01 -0.1566618E+06 -0.2046167E+05  0.4905418E-02  0.2784729E-02  0.5875858E+06  0.5313950E+05
  0.1380952E+01 -0.1567048E+06 -0.2276642E+05  0.4265095E-02  0.1029968E-02  0.5868936E+06  0.5851099E+05
  0.1411905E+01 -0.1565161E+06 -0.2517009E+05  0.1729158E-02  0.1392365E-02  0.5858686E+06  0.6406702E+05
  0.1442857E+01 -0.1562191E+06 -0.2770480E+05  0.3320675E-02 -0.4577637E-04  0.5844599E+06  0.6975679E+05
  0.1473810E+01 -0.1559026E+06 -0.3035547E+05  0.7226602E-02  0.1495361E-02  0.5829342E+06  0.7556957E+05
  0.1504762E+01 -0.1553878E+06 -0.3308577E+05 -0.1784699E-02  0.1754761E-03  0.5809575E+06  0.8140395E+05
  0.1535714E+01 -0.1548001E+06 -0.3590980E+05  0.1987191E-03  0.1815796E-02  0.5787936E+06  0.8727259E+05
  0.1566667E+01 -0.1541343E+06 -0.3881180E+05  0.3350440E-02  0.1770020E-02  0.5764007E+06  0.9315355E+05
  0.1597619E+01 -0.1533954E+06 -0.4177620E+05  0.4622662E-02  0.1220703E-03  0.5739014E+06  0.9901696E+05
  0.1628572E+01 -0.1524913E+06 -0.4475358E+05  0.5734092E-02  0.2372742E-02  0.5711286E+06  0.1047344E+06
  0.1659524E+01 -0.1513628E+06 -0.4768578E+05 -0.5149020E-03 -0.2975464E-03  0.5679000E+06  0.1101274E+06
  0.1690476E+01 -0.1502705E+06 -0.5066419E+05  0.1696949E-02 -0.5798340E-03  0.5648256E+06  0.1154578E+06
  0.1721429E+01 -0.1490637E+06 -0.5359015E+05 -0.1418244E-03  0.1029968E-02  0.5615030E+06  0.1204645E+06
  0.1752381E+01 -0.1476670E+06 -0.5639440E+05 -0.4702029E-02 -0.1426697E-02  0.5578258E+06  0.1249383E+06
  0.1783333E+01 -0.1462810E+06 -0.5917317E+05 -0.1642815E-02  0.6790161E-03  0.5542744E+06  0.1292258E+06
  0.1814286E+01 -0.1448363E+06 -0.6182186E+05  0.3599633E-02  0.7629395E-04  0.5505782E+06  0.1330153E+06
  0.1845238E+01 -0.1433182E+06 -0.6432007E+05  0.2414630E-02  0.4806519E-03  0.5469081E+06  0.1363576E+06
  0.1876190E+01 -0.1417188E+06 -0.6662591E+05 -0.4554400E-03 -0.3051758E-04  0.5432179E+06  0.1391686E+06
  0.1907143E+01 -0.1399094E+06 -0.6855170E+05  0.5120553E-02  0.3280640E-03  0.5391503E+06  0.1408881E+06
  0.1938095E+01 -0.1382003E+06 -0.7041227E+05 -0.2330433E-02  0.1602173E-03  0.5354891E+06  0.1424872E+06
  0.1969048E+01 -0.1365222E+06 -0.7206952E+05  0.8679244E-03  0.7629395E-04  0.5319113E+06  0.1434775E+06
  0.2000000E+01 -0.1347420E+06 -0.7337433E+05  0.2227783E-02  0.1907349E-03  0.5282851E+06  0.1436746E+06
