VARIABLES="w (rad/s)"
"A   1   1" "B   1   1"
"A   1   2" "B   1   2"
"A   1   3" "B   1   3"
Zone t="Motion of body    1 in DoF   1",I=    64,F=POINT
  0.5000000E-01  0.4606555E+04  0.3309574E-04  0.9834766E-03  0.1329739E-05  0.2513557E+02  0.1969391E-06
  0.8095238E-01  0.4616556E+04  0.1308217E-03  0.9660160E-03  0.2189912E-05  0.2506361E+02  0.9972325E-06
  0.1119048E+00  0.4606567E+04  0.3673353E-03 -0.5326372E-04  0.2890503E-06  0.2531112E+02  0.2728868E-05
  0.1428571E+00  0.4624707E+04  0.8254441E-03  0.9446144E-03  0.3513920E-05  0.2551939E+02  0.6136628E-05
  0.1738095E+00  0.4620203E+04  0.1646037E-02  0.1108352E-02  0.6834741E-05  0.2526049E+02  0.1220261E-04
  0.2047619E+00  0.4638523E+04  0.3063118E-02  0.2049291E-03  0.4217522E-05  0.2539822E+02  0.2278604E-04
  0.2357143E+00  0.4634141E+04  0.5409612E-02 -0.1153079E-03  0.4154408E-06  0.2547466E+02  0.4050656E-04
  0.2666667E+00  0.4638901E+04  0.9253903E-02 -0.4264712E-03 -0.2210743E-05  0.2518920E+02  0.6873185E-04
  0.2976190E+00  0.4656502E+04  0.1558974E-01  0.5335236E-03  0.5071088E-05  0.2562812E+02  0.1167765E-03
  0.3285715E+00  0.4653297E+04  0.2588243E-01  0.2220402E-03  0.5840862E-05  0.2580878E+02  0.1949069E-03
  0.3595238E+00  0.4656140E+04  0.4266987E-01  0.1131336E-02  0.2185506E-04  0.2559149E+02  0.3223866E-03
  0.3904762E+00  0.4671165E+04  0.6992515E-01  0.1892811E-03  0.1281216E-04  0.2566391E+02  0.5307728E-03
  0.4214286E+00  0.4684309E+04  0.1131267E+00 -0.7037792E-03 -0.1356113E-04  0.2617922E+02  0.8681045E-03
  0.4523810E+00  0.4682865E+04  0.1812573E+00  0.1359739E-03  0.1701829E-04  0.2602692E+02  0.1394538E-02
  0.4833333E+00  0.4691223E+04  0.2836673E+00  0.1420646E-02  0.2725847E-04  0.2609870E+02  0.2194650E-02
  0.5142857E+00  0.4712860E+04  0.4371123E+00 -0.5563100E-05  0.3411772E-04  0.2652734E+02  0.3408283E-02
  0.5452381E+00  0.4723906E+04  0.6573172E+00  0.6847715E-03  0.4157727E-04  0.2692869E+02  0.5174821E-02
  0.5761905E+00  0.4724332E+04  0.9647397E+00 -0.1198319E-02 -0.6404729E-04  0.2700559E+02  0.7651421E-02
  0.6071429E+00  0.4739820E+04  0.1391730E+01  0.5725411E-03  0.6156159E-04  0.2724999E+02  0.1112524E-01
  0.6380953E+00  0.4760788E+04  0.1964965E+01  0.5731654E-03  0.6361865E-04  0.2796429E+02  0.1590921E-01
  0.6690477E+00  0.4783521E+04  0.2728176E+01  0.7982355E-03  0.1405948E-03  0.2875513E+02  0.2238462E-01
  0.7000000E+00  0.4790555E+04  0.3727880E+01 -0.3746577E-03 -0.3439281E-04  0.2833486E+02  0.3068729E-01
  0.7309524E+00  0.4793885E+04  0.5015433E+01 -0.1604782E-03  0.4375726E-04  0.2831797E+02  0.4160308E-01
  0.7619048E+00  0.4814981E+04  0.6669519E+01  0.1376867E-03  0.1562387E-03  0.2899114E+02  0.5604080E-01
  0.7928572E+00  0.4841594E+04  0.8768348E+01  0.1401300E-02  0.2521351E-03  0.2948130E+02  0.7446504E-01
  0.8238096E+00  0.4867407E+04  0.1140137E+02 -0.1018723E-03  0.2098083E-04  0.3013107E+02  0.9804528E-01
  0.8547620E+00  0.4888136E+04  0.1466844E+02  0.3068228E-03  0.9394437E-04  0.3065936E+02  0.1276878E+00
  0.8857143E+00  0.4902149E+04  0.1868495E+02  0.4382287E-03  0.1449510E-03  0.3059167E+02  0.1639130E+00
  0.9166667E+00  0.4917233E+04  0.2359151E+02  0.7220181E-03  0.1703650E-03  0.3066993E+02  0.2087908E+00
  0.9476191E+00  0.4941570E+04  0.2955711E+02  0.6662302E-03  0.3710091E-03  0.3114520E+02  0.2646413E+00
  0.9785714E+00  0.4971533E+04  0.3675758E+02  0.3605864E-03  0.2875924E-03  0.3187662E+02  0.3336927E+00
  0.1009524E+01  0.5005869E+04  0.4539188E+02  0.1100549E-02  0.4232377E-03  0.3283537E+02  0.4184422E+00
  0.1040476E+01  0.5040625E+04  0.5567160E+02  0.6196046E-03  0.3538877E-03  0.3362647E+02  0.5203472E+00
  0.1071429E+01  0.5071625E+04  0.6782118E+02  0.1052984E-02  0.5075186E-03  0.3408314E+02  0.6412852E+00
  0.1102381E+01  0.5095806E+04  0.8208035E+02  0.4152500E-04 -0.8960068E-04  0.3426639E+02  0.7841036E+00
  0.1133333E+01  0.5118496E+04  0.9874495E+02  0.4434586E-03  0.1864433E-03  0.3461701E+02  0.9545735E+00
  0.1164286E+01  0.5149671E+04  0.1181819E+03  0.6552854E-03  0.2003610E-03  0.3535498E+02  0.1158760E+01
  0.1195238E+01  0.5187151E+04  0.1407338E+03  0.4380443E-03  0.3010333E-03  0.3608511E+02  0.1398183E+01
  0.1226190E+01  0.5227852E+04  0.1667689E+03  0.3888769E-04  0.1929104E-03  0.3683080E+02  0.1678802E+01
  0.1257143E+01  0.5265382E+04  0.1966060E+03 -0.3459237E-03 -0.1470149E-03  0.3757754E+02  0.2006423E+01
  0.1288095E+01  0.5312402E+04  0.2308963E+03  0.4442254E-05  0.1767278E-03  0.3874605E+02  0.2394507E+01
  0.1319048E+01  0.5355816E+04  0.2698836E+03  0.1097517E-02  0.1394391E-02  0.3990016E+02  0.2845170E+01
  0.1350000E+01  0.5397630E+04  0.3140860E+03 -0.1017253E-03 -0.3938675E-03  0.4084015E+02  0.3361379E+01
  0.1380952E+01  0.5436487E+04  0.3639709E+03  0.1259639E-02  0.9342432E-03  0.4139320E+02  0.3944607E+01
  0.1411905E+01  0.5444738E+04  0.4176495E+03  0.1545435E-02  0.8708239E-03  0.4053841E+02  0.4549117E+01
  0.1442857E+01  0.5482478E+04  0.4801002E+03 -0.1969668E-03 -0.2374649E-03  0.4120926E+02  0.5298753E+01
  0.1473810E+01  0.5522168E+04  0.5498080E+03  0.3118931E-03  0.2765656E-04  0.4218769E+02  0.6158999E+01
  0.1504762E+01  0.5565554E+04  0.6273773E+03  0.4575826E-03  0.4773140E-03  0.4329849E+02  0.7135825E+01
  0.1535714E+01  0.5612292E+04  0.7134314E+03 -0.8693961E-04  0.6638765E-03  0.4463073E+02  0.8251487E+01
  0.1566667E+01  0.5658954E+04  0.8084525E+03 -0.9617907E-03 -0.1993179E-03  0.4580485E+02  0.9499310E+01
  0.1597619E+01  0.5705147E+04  0.9130294E+03  0.2554881E-03  0.7104874E-04  0.4701473E+02  0.1089649E+02
  0.1628572E+01  0.5748928E+04  0.1027695E+04 -0.2283799E-03 -0.4258156E-03  0.4814309E+02  0.1245191E+02
  0.1659524E+01  0.5791074E+04  0.1153013E+04  0.3470991E-03  0.9627342E-03  0.4932354E+02  0.1419116E+02
  0.1690476E+01  0.5827947E+04  0.1289346E+04  0.7525699E-03  0.9641647E-03  0.5040300E+02  0.1612215E+02
  0.1721429E+01  0.5859942E+04  0.1437039E+04  0.3246450E-03  0.1509190E-02  0.5135172E+02  0.1825178E+02
  0.1752381E+01  0.5888179E+04  0.1596607E+04 -0.1077548E-03  0.6670952E-03  0.5221779E+02  0.2059933E+02
  0.1783333E+01  0.5912709E+04  0.1768235E+04  0.5101712E-03  0.2520084E-03  0.5319104E+02  0.2318039E+02
  0.1814286E+01  0.5935247E+04  0.1951893E+04 -0.3721583E-03  0.9121895E-03  0.5404533E+02  0.2597668E+02
  0.1845238E+01  0.5956148E+04  0.2147695E+04 -0.2594486E-03  0.6475449E-03  0.5499572E+02  0.2901993E+02
  0.1876190E+01  0.5972927E+04  0.2355531E+04  0.3924104E-03  0.5083084E-03  0.5580039E+02  0.3227990E+02
  0.1907143E+01  0.5986792E+04  0.2575416E+04 -0.1240134E-03  0.1060009E-02  0.5663802E+02  0.3581430E+02
  0.1938095E+01  0.5995620E+04  0.2807133E+04  0.1240011E-03  0.1611710E-03  0.5747451E+02  0.3965226E+02
  0.1969048E+01  0.5997713E+04  0.3050136E+04  0.5472961E-03  0.1706600E-02  0.5830634E+02  0.4380008E+02
  0.2000000E+01  0.5994515E+04  0.3304120E+04  0.8201599E-04  0.8893013E-03  0.5907973E+02  0.4823388E+02
Zone t="Motion of body    1 in DoF   2",I=    64,F=POINT
  0.5000000E-01 -0.5269051E-03  0.1531094E-05  0.7733828E+04  0.8866516E+01 -0.2032518E-03 -0.3855675E-06
  0.8095238E-01 -0.1472585E-04  0.5364418E-06  0.7697870E+04  0.1473414E+02 -0.2304596E-03 -0.3138557E-06
  0.1119048E+00  0.6902979E-03  0.1149252E-05  0.7689263E+04  0.2116878E+02 -0.1619217E-03 -0.4284084E-06
  0.1428571E+00  0.2453327E-03 -0.1255423E-05  0.7692637E+04  0.2844052E+02 -0.1710653E-03 -0.8326024E-06
  0.1738095E+00  0.5034225E-03  0.7178634E-05  0.7702166E+04  0.3689749E+02 -0.2126171E-03 -0.8046627E-06
  0.2047619E+00  0.1974771E-02 -0.2831221E-05  0.7717595E+04  0.4695945E+02 -0.1717445E-03 -0.1132488E-05
  0.2357143E+00  0.2751206E-03 -0.6332994E-06  0.7740479E+04  0.5924680E+02 -0.2144322E-03 -0.1527369E-05
  0.2666667E+00  0.3522634E-03  0.4820526E-05  0.7769457E+04  0.7434701E+02 -0.1645088E-03 -0.1601875E-05
  0.2976190E+00 -0.3300476E-03 -0.4619360E-06  0.7803835E+04  0.9338461E+02 -0.1610184E-03 -0.2503395E-05
  0.3285715E+00 -0.6690232E-03  0.7718801E-05  0.7842001E+04  0.1171922E+03 -0.1552830E-03 -0.3606081E-05
  0.3595238E+00  0.1220198E-03 -0.6735325E-05  0.7883734E+04  0.1472194E+03 -0.1637983E-03 -0.5260110E-05
  0.3904762E+00 -0.6313440E-03 -0.4053116E-05  0.7924368E+04  0.1848527E+03 -0.2222526E-03 -0.4246831E-05
  0.4214286E+00  0.1436977E-03  0.3135204E-04  0.7961573E+04  0.2301675E+03 -0.2308215E-03 -0.6601214E-05
  0.4523810E+00 -0.9486549E-04  0.1409650E-04  0.7996121E+04  0.2856705E+03 -0.1697038E-03 -0.6347895E-05
  0.4833333E+00  0.5840433E-03  0.6049871E-05  0.8020419E+04  0.3479740E+03 -0.2456534E-03 -0.8553267E-05
  0.5142857E+00  0.5331305E-03 -0.6675720E-05  0.8036875E+04  0.4198923E+03 -0.2030532E-03 -0.1388788E-04
  0.5452381E+00  0.1731606E-03 -0.2670288E-04  0.8044504E+04  0.4987682E+03 -0.1714115E-03 -0.1108646E-04
  0.5761905E+00 -0.1895132E-03  0.3135204E-04  0.8046905E+04  0.5837773E+03 -0.2342019E-03 -0.1573563E-04
  0.6071429E+00 -0.4083970E-04 -0.5841255E-04  0.8041271E+04  0.6768533E+03 -0.1719979E-03 -0.2163649E-04
  0.6380953E+00  0.9886542E-03  0.5006790E-04  0.8030014E+04  0.7743096E+03 -0.1972825E-03 -0.1662970E-04
  0.6690477E+00 -0.2779570E-03  0.3218651E-05  0.8014369E+04  0.8781347E+03 -0.1952826E-03 -0.2545118E-04
  0.7000000E+00 -0.5040850E-03  0.5936623E-04  0.7991421E+04  0.9888533E+03 -0.1730238E-03 -0.2932549E-04
  0.7309524E+00 -0.3366128E-03 -0.5888939E-04  0.7964814E+04  0.1104565E+04 -0.1676541E-03 -0.2324581E-04
  0.7619048E+00  0.3504753E-04 -0.1095533E-03  0.7935139E+04  0.1225947E+04 -0.2202988E-03 -0.3993511E-04
  0.7928572E+00 -0.4209913E-04  0.3522635E-03  0.7898542E+04  0.1352891E+04 -0.2580075E-03 -0.4100800E-04
  0.8238096E+00 -0.1574389E-03  0.1205206E-03  0.7855287E+04  0.1484914E+04 -0.2141633E-03 -0.3278255E-04
  0.8547620E+00  0.4362462E-03 -0.3087521E-04  0.7808005E+04  0.1621412E+04 -0.2008295E-03 -0.4172325E-04
  0.8857143E+00  0.3628577E-03  0.3526211E-03  0.7757938E+04  0.1761965E+04 -0.1690465E-03 -0.4279613E-04
  0.9166667E+00  0.1066381E-02  0.1447201E-03  0.7703285E+04  0.1906184E+04 -0.1883073E-03 -0.5173683E-04
  0.9476191E+00 -0.1509585E-03 -0.7867813E-04  0.7642618E+04  0.2053676E+04 -0.1811502E-03 -0.6318092E-04
  0.9785714E+00  0.3498662E-03  0.5221367E-04  0.7577675E+04  0.2203859E+04 -0.1481328E-03 -0.3004074E-04
  0.1009524E+01 -0.3202457E-03  0.4262924E-03  0.7509431E+04  0.2356096E+04 -0.1766547E-03 -0.9202957E-04
  0.1040476E+01  0.7607571E-04 -0.3242493E-04  0.7437249E+04  0.2509923E+04 -0.1558177E-03 -0.4673004E-04
  0.1071429E+01  0.8055369E-03 -0.1525879E-03  0.7361226E+04  0.2664779E+04 -0.1530965E-03 -0.8273125E-04
  0.1102381E+01  0.4031385E-03 -0.3695488E-03  0.7281394E+04  0.2820238E+04 -0.2690474E-03 -0.7748604E-04
  0.1133333E+01  0.1257167E-02 -0.3504753E-04  0.7199218E+04  0.2975671E+04 -0.1969057E-03 -0.9465218E-04
  0.1164286E+01 -0.6479134E-03  0.1118183E-03  0.7115926E+04  0.3130425E+04 -0.1752888E-03 -0.6294250E-04
  0.1195238E+01  0.7181054E-05  0.7772446E-04  0.7029991E+04  0.3284243E+04 -0.1667600E-03 -0.9250641E-04
  0.1226190E+01  0.9970804E-03 -0.7486343E-04  0.6941678E+04  0.3436627E+04 -0.2286596E-03 -0.8416176E-04
  0.1257143E+01 -0.7586046E-03  0.1626015E-03  0.6849517E+04  0.3590185E+04 -0.2048232E-03 -0.1032352E-03
  0.1288095E+01  0.4738404E-04 -0.3719330E-04  0.6757583E+04  0.3735466E+04 -0.1858343E-03 -0.1196861E-03
  0.1319048E+01 -0.1937646E-03  0.1354218E-03  0.6664055E+04  0.3880829E+04 -0.1858116E-03 -0.1239777E-03
  0.1350000E+01 -0.1434044E-03 -0.7724762E-04  0.6570216E+04  0.4022564E+04 -0.2140469E-03 -0.1223087E-03
  0.1380952E+01  0.2624249E-04  0.2808571E-03  0.6476229E+04  0.4160454E+04 -0.1767915E-03 -0.9059906E-04
  0.1411905E+01  0.6957158E-03  0.1239777E-03  0.6380177E+04  0.4295340E+04 -0.1729158E-03 -0.1220703E-03
  0.1442857E+01  0.4230159E-04  0.2727509E-03  0.6284949E+04  0.4425489E+04 -0.1744941E-03 -0.1387596E-03
  0.1473810E+01 -0.2083601E-03 -0.7152557E-03  0.6188954E+04  0.4551530E+04 -0.1824769E-03 -0.1182556E-03
  0.1504762E+01  0.4455409E-03 -0.9393692E-04  0.6094087E+04  0.4672679E+04 -0.1666817E-03 -0.1239777E-03
  0.1535714E+01  0.2043081E-03 -0.3051758E-03  0.5999997E+04  0.4788765E+04 -0.1639433E-03 -0.1311302E-03
  0.1566667E+01 -0.2477524E-03  0.2155304E-03  0.5906774E+04  0.4899494E+04 -0.1789661E-03 -0.1120567E-03
  0.1597619E+01 -0.2781716E-03 -0.3943443E-03  0.5813812E+04  0.5005009E+04 -0.1366981E-03 -0.1354218E-03
  0.1628572E+01  0.1282441E-03 -0.4439354E-03  0.5721904E+04  0.5104917E+04 -0.1815327E-03 -0.9727478E-04
  0.1659524E+01  0.3080218E-03 -0.3695488E-03  0.5630834E+04  0.5199041E+04 -0.1591829E-03 -0.1878738E-03
  0.1690476E+01  0.4806518E-03 -0.3457069E-03  0.5540241E+04  0.5287880E+04 -0.1145215E-03 -0.1115799E-03
  0.1721429E+01 -0.3878012E-05  0.2918243E-03  0.5451665E+04  0.5370507E+04 -0.1357304E-03 -0.1606941E-03
  0.1752381E+01  0.5823115E-04 -0.7133484E-03  0.5365070E+04  0.5447278E+04 -0.1371425E-03 -0.1349449E-03
  0.1783333E+01  0.4631114E-03  0.8502007E-03  0.5280589E+04  0.5517632E+04 -0.1609660E-03 -0.1764297E-03
  0.1814286E+01  0.2139384E-03  0.3147125E-04  0.5198187E+04  0.5581898E+04 -0.1293092E-03 -0.1630783E-03
  0.1845238E+01  0.2170686E-03  0.9145737E-03  0.5117342E+04  0.5640392E+04 -0.1178372E-03 -0.1950264E-03
  0.1876190E+01  0.3608955E-03  0.6666183E-03  0.5038576E+04  0.5693059E+04 -0.1377503E-03 -0.1287460E-03
  0.1907143E+01  0.2215239E-03  0.3104210E-03  0.4961552E+04  0.5740009E+04 -0.1100119E-03 -0.1764297E-03
  0.1938095E+01  0.1087470E-03 -0.2617836E-03  0.4886107E+04  0.5781605E+04 -0.1156359E-03 -0.1807213E-03
  0.1969048E+01  0.4770678E-03  0.1831055E-03  0.4812543E+04  0.5817664E+04 -0.1109122E-03 -0.1249313E-03
  0.2000000E+01 -0.1354218E-03  0.2131462E-03  0.4741622E+04  0.5847887E+04 -0.1335144E-03 -0.1449585E-03
Zone t="Motion of body    1 in DoF   3",I=    64,F=POINT
  0.5000000E-01  0.2450279E+02  0.2055524E-06 -0.1858920E-03 -0.2043469E-06  0.2743447E+02 -0.2323840E-08
  0.8095238E-01  0.2444870E+02  0.9422378E-06 -0.7197261E-04 -0.1029186E-06  0.2767201E+02  0.1241523E-07
  0.1119048E+00  0.2473884E+02  0.2822943E-05 -0.8016190E-04 -0.1740835E-06  0.2734241E+02  0.4152588E-07
  0.1428571E+00  0.2500444E+02  0.6155431E-05  0.7666647E-04  0.3703126E-06  0.2771328E+02  0.3657977E-07
  0.1738095E+00  0.2466437E+02  0.1229705E-04 -0.2337931E-03 -0.1119979E-05  0.2737171E+02  0.4553488E-07
  0.2047619E+00  0.2484367E+02  0.2266181E-04 -0.1613380E-03 -0.1233646E-05  0.2779579E+02  0.1822709E-06
  0.2357143E+00  0.2492771E+02  0.4056272E-04 -0.1471061E-03 -0.1178949E-05  0.2753945E+02  0.3687122E-06
  0.2666667E+00  0.2456114E+02  0.6951144E-04 -0.3375113E-04 -0.8349434E-07  0.2752833E+02  0.6374480E-06
  0.2976190E+00  0.2500847E+02  0.1173338E-03 -0.1518059E-03 -0.1705643E-05  0.2755887E+02  0.7786474E-06
  0.3285715E+00  0.2529878E+02  0.1955778E-03 -0.1990925E-03 -0.3237528E-05  0.2777535E+02  0.1356156E-05
  0.3595238E+00  0.2497581E+02  0.3241314E-03 -0.6730983E-04 -0.1107976E-05  0.2758887E+02  0.2662700E-05
  0.3904762E+00  0.2499590E+02  0.5348322E-03 -0.9662494E-04 -0.2199813E-05  0.2756683E+02  0.4629459E-05
  0.4214286E+00  0.2553796E+02  0.8715624E-03 -0.9964077E-04 -0.2433642E-05  0.2750626E+02  0.6839293E-05
  0.4523810E+00  0.2541495E+02  0.1404494E-02 -0.3640463E-03 -0.1366183E-04  0.2762400E+02  0.1091669E-04
  0.4833333E+00  0.2541660E+02  0.2211556E-02 -0.1820202E-03 -0.7258102E-05  0.2747700E+02  0.1722402E-04
  0.5142857E+00  0.2584093E+02  0.3429996E-02 -0.2068778E-03 -0.1005082E-04  0.2751654E+02  0.2575317E-04
  0.5452381E+00  0.2630346E+02  0.5197055E-02 -0.1070229E-03 -0.6048844E-05  0.2760443E+02  0.3966942E-04
  0.5761905E+00  0.2637977E+02  0.7690575E-02 -0.2139265E-03 -0.1657680E-04  0.2753728E+02  0.6013770E-04
  0.6071429E+00  0.2664469E+02  0.1118640E-01 -0.2505358E-03 -0.2202455E-04  0.2764844E+02  0.8926784E-04
  0.6380953E+00  0.2739315E+02  0.1593647E-01 -0.6510695E-04 -0.7430932E-05  0.2767020E+02  0.1293999E-03
  0.6690477E+00  0.2822407E+02  0.2232816E-01 -0.1325641E-03 -0.1536293E-04  0.2763289E+02  0.1830851E-03
  0.7000000E+00  0.2775303E+02  0.3082004E-01 -0.4810946E-04 -0.2615438E-05  0.2768798E+02  0.2521162E-03
  0.7309524E+00  0.2772647E+02  0.4187632E-01 -0.1547701E-03 -0.2323838E-04  0.2769361E+02  0.3466053E-03
  0.7619048E+00  0.2840336E+02  0.5623485E-01 -0.1549758E-03 -0.2413717E-04  0.2759773E+02  0.4724911E-03
  0.7928572E+00  0.2889685E+02  0.7471073E-01 -0.2811621E-04 -0.3085355E-05  0.2765850E+02  0.6343467E-03
  0.8238096E+00  0.2959463E+02  0.9817805E-01 -0.4825909E-04 -0.5491631E-05  0.2777216E+02  0.8430014E-03
  0.8547620E+00  0.3013050E+02  0.1277023E+00  0.9065218E-06  0.8679839E-05  0.2773871E+02  0.1108942E-02
  0.8857143E+00  0.2999323E+02  0.1646200E+00 -0.2582131E-03 -0.7054239E-04  0.2764138E+02  0.1442842E-02
  0.9166667E+00  0.3007925E+02  0.2104026E+00 -0.9480389E-04 -0.1925899E-04  0.2768592E+02  0.1864709E-02
  0.9476191E+00  0.3057387E+02  0.2667037E+00 -0.5346446E-04 -0.1368369E-04  0.2776110E+02  0.2391412E-02
  0.9785714E+00  0.3130690E+02  0.3355401E+00  0.1547719E-03  0.5869340E-04  0.2777178E+02  0.3049602E-02
  0.1009524E+01  0.3226424E+02  0.4192834E+00 -0.2860011E-03 -0.1009371E-03  0.2771910E+02  0.3870400E-02
  0.1040476E+01  0.3308838E+02  0.5208236E+00 -0.1229356E-03 -0.2892874E-04  0.2776132E+02  0.4869720E-02
  0.1071429E+01  0.3356051E+02  0.6430413E+00  0.2770424E-04  0.2319331E-04  0.2784935E+02  0.6081171E-02
  0.1102381E+01  0.3371370E+02  0.7890199E+00 -0.4563424E-04 -0.6764312E-05  0.2784328E+02  0.7544269E-02
  0.1133333E+01  0.3406684E+02  0.9622338E+00 -0.2602269E-03 -0.1372404E-03  0.2783632E+02  0.9309831E-02
  0.1164286E+01  0.3478601E+02  0.1166732E+01 -0.8948741E-04 -0.4173792E-04  0.2777026E+02  0.1141441E-01
  0.1195238E+01  0.3552137E+02  0.1408137E+01  0.1210805E-03  0.9695091E-04  0.2775662E+02  0.1397103E-01
  0.1226190E+01  0.3628891E+02  0.1692071E+01 -0.2348817E-03 -0.1407047E-03  0.2784398E+02  0.1701331E-01
  0.1257143E+01  0.3702798E+02  0.2022531E+01  0.5272301E-04  0.6827665E-04  0.2791630E+02  0.2063786E-01
  0.1288095E+01  0.3822044E+02  0.2407445E+01  0.3794425E-04  0.6742589E-04  0.2798771E+02  0.2500772E-01
  0.1319048E+01  0.3938481E+02  0.2853762E+01 -0.8169924E-04  0.3057532E-05  0.2796989E+02  0.3009422E-01
  0.1350000E+01  0.4029221E+02  0.3369263E+01 -0.1592989E-03 -0.1038690E-03  0.2791586E+02  0.3604123E-01
  0.1380952E+01  0.4083765E+02  0.3966866E+01 -0.1394995E-03 -0.1020366E-03  0.2789520E+02  0.4302814E-01
  0.1411905E+01  0.3734254E+02  0.4375261E+01 -0.3554568E-04 -0.2705492E-05  0.2778383E+02  0.4763665E-01
  0.1442857E+01  0.3800031E+02  0.5109240E+01 -0.4230159E-04 -0.2564862E-04  0.2785477E+02  0.5664558E-01
  0.1473810E+01  0.3895820E+02  0.5938337E+01 -0.1607188E-03 -0.1179688E-03  0.2788721E+02  0.6635886E-01
  0.1504762E+01  0.4004891E+02  0.6875262E+01 -0.9585785E-04 -0.2487749E-04  0.2790675E+02  0.7818513E-01
  0.1535714E+01  0.4132609E+02  0.7935768E+01 -0.1353774E-03 -0.9301119E-04  0.2786581E+02  0.9144036E-01
  0.1566667E+01  0.4240314E+02  0.9131390E+01 -0.2217293E-03 -0.2165586E-03  0.2783375E+02  0.1066462E+00
  0.1597619E+01  0.4360904E+02  0.1047850E+02  0.1790804E-04  0.1128912E-03  0.2788279E+02  0.1249867E+00
  0.1628572E+01  0.4478257E+02  0.1199423E+02 -0.5497221E-04 -0.3680401E-04  0.2798608E+02  0.1452830E+00
  0.1659524E+01  0.4595524E+02  0.1367437E+02 -0.1277198E-03 -0.1507513E-03  0.2809918E+02  0.1687106E+00
  0.1690476E+01  0.4700409E+02  0.1554733E+02 -0.1598647E-03 -0.1993068E-03  0.2812875E+02  0.1951597E+00
  0.1721429E+01  0.4790582E+02  0.1762103E+02 -0.6426420E-04 -0.9522587E-04  0.2814948E+02  0.2249097E+00
  0.1752381E+01  0.4873957E+02  0.1992949E+02 -0.3306114E-04  0.3465265E-04  0.2810882E+02  0.2582399E+00
  0.1783333E+01  0.4969831E+02  0.2244624E+02 -0.1748032E-03 -0.2105236E-03  0.2808734E+02  0.2934231E+00
  0.1814286E+01  0.5051110E+02  0.2519352E+02  0.1210303E-03  0.2440214E-03  0.2806201E+02  0.3357667E+00
  0.1845238E+01  0.5149290E+02  0.2818605E+02 -0.1387042E-03 -0.2642199E-03  0.2809380E+02  0.3783734E+00
  0.1876190E+01  0.5239402E+02  0.3144584E+02 -0.4638270E-04 -0.1756512E-03  0.2816738E+02  0.4278167E+00
  0.1907143E+01  0.5324978E+02  0.3493992E+02 -0.1456407E-04 -0.9649992E-04  0.2827566E+02  0.4873534E+00
  0.1938095E+01  0.5407351E+02  0.3872327E+02 -0.4041107E-04  0.7122010E-04  0.2832434E+02  0.5482190E+00
  0.1969048E+01  0.5485637E+02  0.4277397E+02 -0.2603289E-04  0.6302446E-04  0.2836678E+02  0.6152288E+00
  0.2000000E+01  0.5561426E+02  0.4710892E+02 -0.1251698E-03 -0.2497882E-03  0.2840871E+02  0.6912345E+00
