VARIABLES="w (rad/s)"
"abs(F   1   1)" "angle(F   1   1)"
"abs(F   1   2)" "angle(F   1   2)"
"abs(F   1   3)" "angle(F   1   3)"
Zone t="Diffraction force - beta =   0.000 deg",I=    64,F=POINT
  0.5000000E-01  0.1666383E+04 -0.1570794E+01  0.3779488E+03 -0.3075292E+01  0.9161736E+03  0.1570797E+01
  0.8095238E-01  0.2726068E+04 -0.1570790E+01  0.9755021E+03 -0.3072644E+01  0.1500165E+04  0.1570799E+01
  0.1119048E+00  0.3804464E+04 -0.1570784E+01  0.1850625E+04 -0.3069663E+01  0.2086817E+04  0.1570803E+01
  0.1428571E+00  0.4918325E+04 -0.1570774E+01  0.3001334E+04 -0.3065883E+01  0.2688265E+04  0.1570807E+01
  0.1738095E+00  0.6068392E+04 -0.1570760E+01  0.4441415E+04 -0.3061324E+01  0.3300775E+04  0.1570814E+01
  0.2047619E+00  0.7283342E+04 -0.1570740E+01  0.6170204E+04 -0.3055567E+01  0.3938847E+04  0.1570823E+01
  0.2357143E+00  0.8558556E+04 -0.1570711E+01  0.8208377E+04 -0.3048447E+01  0.4616146E+04  0.1570837E+01
  0.2666667E+00  0.9933441E+04 -0.1570668E+01  0.1056358E+05 -0.3039849E+01  0.5298496E+04  0.1570857E+01
  0.2976190E+00  0.1141608E+05 -0.1570604E+01  0.1323425E+05 -0.3028955E+01  0.6044981E+04  0.1570887E+01
  0.3285715E+00  0.1301205E+05 -0.1570510E+01  0.1625943E+05 -0.3016156E+01  0.6858307E+04  0.1570929E+01
  0.3595238E+00  0.1477677E+05 -0.1570369E+01  0.1962522E+05 -0.3000653E+01  0.7669186E+04  0.1570991E+01
  0.3904762E+00  0.1671618E+05 -0.1570159E+01  0.2332851E+05 -0.2982265E+01  0.8568512E+04  0.1571082E+01
  0.4214286E+00  0.1885402E+05 -0.1569853E+01  0.2732367E+05 -0.2961721E+01  0.9545280E+04  0.1571211E+01
  0.4523810E+00  0.2115408E+05 -0.1569404E+01  0.3166757E+05 -0.2938255E+01  0.1060817E+05  0.1571395E+01
  0.4833333E+00  0.2367463E+05 -0.1568786E+01  0.3621785E+05 -0.2914354E+01  0.1168076E+05  0.1571640E+01
  0.5142857E+00  0.2642533E+05 -0.1567934E+01  0.4097643E+05 -0.2888369E+01  0.1279050E+05  0.1571968E+01
  0.5452381E+00  0.2930019E+05 -0.1566800E+01  0.4595709E+05 -0.2862742E+01  0.1400822E+05  0.1572383E+01
  0.5761905E+00  0.3229944E+05 -0.1565332E+01  0.5111917E+05 -0.2837767E+01  0.1520839E+05  0.1572891E+01
  0.6071429E+00  0.3546582E+05 -0.1563454E+01  0.5639783E+05 -0.2811995E+01  0.1637280E+05  0.1573508E+01
  0.6380953E+00  0.3876419E+05 -0.1561133E+01  0.6180697E+05 -0.2787642E+01  0.1750812E+05  0.1574217E+01
  0.6690477E+00  0.4215395E+05 -0.1558275E+01  0.6732787E+05 -0.2763711E+01  0.1862194E+05  0.1575018E+01
  0.7000000E+00  0.4556051E+05 -0.1554779E+01  0.7295333E+05 -0.2739945E+01  0.1980298E+05  0.1575905E+01
  0.7309524E+00  0.4899199E+05 -0.1550596E+01  0.7868390E+05 -0.2717282E+01  0.2085780E+05  0.1576836E+01
  0.7619048E+00  0.5251884E+05 -0.1545659E+01  0.8444552E+05 -0.2694966E+01  0.2176099E+05  0.1577771E+01
  0.7928572E+00  0.5611270E+05 -0.1539892E+01  0.9019194E+05 -0.2672741E+01  0.2258830E+05  0.1578653E+01
  0.8238096E+00  0.5966335E+05 -0.1533183E+01  0.9593498E+05 -0.2650980E+01  0.2338864E+05  0.1579406E+01
  0.8547620E+00  0.6317590E+05 -0.1525471E+01  0.1017116E+06 -0.2630249E+01  0.2417201E+05  0.1579926E+01
  0.8857143E+00  0.6656824E+05 -0.1516660E+01  0.1074786E+06 -0.2610342E+01  0.2481800E+05  0.1580057E+01
  0.9166667E+00  0.6987973E+05 -0.1506746E+01  0.1132014E+06 -0.2591086E+01  0.2534216E+05  0.1579658E+01
  0.9476191E+00  0.7305734E+05 -0.1495680E+01  0.1188132E+06 -0.2572055E+01  0.2571572E+05  0.1578530E+01
  0.9785714E+00  0.7612788E+05 -0.1483484E+01  0.1243155E+06 -0.2553489E+01  0.2597778E+05  0.1576451E+01
  0.1009524E+01  0.7900024E+05 -0.1470110E+01  0.1296911E+06 -0.2535390E+01  0.2610767E+05  0.1573085E+01
  0.1040476E+01  0.8163419E+05 -0.1455569E+01  0.1349512E+06 -0.2518154E+01  0.2616303E+05  0.1568147E+01
  0.1071429E+01  0.8393517E+05 -0.1439803E+01  0.1400803E+06 -0.2501738E+01  0.2625131E+05  0.1561504E+01
  0.1102381E+01  0.8580621E+05 -0.1422790E+01  0.1450671E+06 -0.2486107E+01  0.2623632E+05  0.1552587E+01
  0.1133333E+01  0.8730952E+05 -0.1404771E+01  0.1498993E+06 -0.2471314E+01  0.2617835E+05  0.1541390E+01
  0.1164286E+01  0.8834207E+05 -0.1385786E+01  0.1545558E+06 -0.2457083E+01  0.2601361E+05  0.1527474E+01
  0.1195238E+01  0.8893219E+05 -0.1366096E+01  0.1590156E+06 -0.2443495E+01  0.2580748E+05  0.1510896E+01
  0.1226190E+01  0.8900788E+05 -0.1345768E+01  0.1632606E+06 -0.2430382E+01  0.2567017E+05  0.1492118E+01
  0.1257143E+01  0.8849978E+05 -0.1324640E+01  0.1673312E+06 -0.2417556E+01  0.2560916E+05  0.1471380E+01
  0.1288095E+01  0.8741041E+05 -0.1303683E+01  0.1710621E+06 -0.2405719E+01  0.2559768E+05  0.1449355E+01
  0.1319048E+01  0.8573900E+05 -0.1282547E+01  0.1746096E+06 -0.2394499E+01  0.2571294E+05  0.1427253E+01
  0.1350000E+01  0.8341896E+05 -0.1261576E+01  0.1779137E+06 -0.2383873E+01  0.2588710E+05  0.1405477E+01
  0.1380952E+01  0.8050008E+05 -0.1241261E+01  0.1809535E+06 -0.2374086E+01  0.2620170E+05  0.1386050E+01
  0.1411905E+01  0.7641381E+05 -0.1223449E+01  0.1821365E+06 -0.2361286E+01  0.2699552E+05  0.1375909E+01
  0.1442857E+01  0.7234680E+05 -0.1204992E+01  0.1846205E+06 -0.2352180E+01  0.2761120E+05  0.1364948E+01
  0.1473810E+01  0.6767622E+05 -0.1188071E+01  0.1868234E+06 -0.2343464E+01  0.2835050E+05  0.1359185E+01
  0.1504762E+01  0.6248777E+05 -0.1173621E+01  0.1887469E+06 -0.2335486E+01  0.2927833E+05  0.1360524E+01
  0.1535714E+01  0.5677384E+05 -0.1162318E+01  0.1903799E+06 -0.2327941E+01  0.3032813E+05  0.1368348E+01
  0.1566667E+01  0.5059038E+05 -0.1155467E+01  0.1917151E+06 -0.2320957E+01  0.3153208E+05  0.1383260E+01
  0.1597619E+01  0.4398666E+05 -0.1155345E+01  0.1927426E+06 -0.2314516E+01  0.3286099E+05  0.1404680E+01
  0.1628572E+01  0.3703325E+05 -0.1165845E+01  0.1934632E+06 -0.2308620E+01  0.3433113E+05  0.1432446E+01
  0.1659524E+01  0.2979848E+05 -0.1194316E+01  0.1938792E+06 -0.2303240E+01  0.3597488E+05  0.1466245E+01
  0.1690476E+01  0.2237543E+05 -0.1258712E+01  0.1939586E+06 -0.2298275E+01  0.3773818E+05  0.1504416E+01
  0.1721429E+01  0.1505850E+05 -0.1412309E+01  0.1937190E+06 -0.2294069E+01  0.3970468E+05  0.1547020E+01
  0.1752381E+01  0.8822287E+04 -0.1857499E+01  0.1931589E+06 -0.2290467E+01  0.4182569E+05  0.1592539E+01
  0.1783333E+01  0.7968404E+04 -0.2875880E+01  0.1922778E+06 -0.2287207E+01  0.4415623E+05  0.1640352E+01
  0.1814286E+01  0.1381595E+05  0.2833487E+01  0.1910790E+06 -0.2284555E+01  0.4669425E+05  0.1689549E+01
  0.1845238E+01  0.2154677E+05  0.2639872E+01  0.1895501E+06 -0.2282351E+01  0.4938407E+05  0.1739389E+01
  0.1876190E+01  0.2974509E+05  0.2557680E+01  0.1876921E+06 -0.2280773E+01  0.5222233E+05  0.1789206E+01
  0.1907143E+01  0.3806966E+05  0.2516813E+01  0.1855337E+06 -0.2279643E+01  0.5528377E+05  0.1838578E+01
  0.1938095E+01  0.4641556E+05  0.2494680E+01  0.1830442E+06 -0.2278963E+01  0.5853686E+05  0.1886797E+01
  0.1969048E+01  0.5470190E+05  0.2482521E+01  0.1802272E+06 -0.2278933E+01  0.6197106E+05  0.1933666E+01
  0.2000000E+01  0.6289232E+05  0.2476050E+01  0.1770893E+06 -0.2279706E+01  0.6553141E+05  0.1978662E+01
