VARIABLES="w (rad/s)"
"abs(F   1   1)" "angle(F   1   1)"
"abs(F   1   2)" "angle(F   1   2)"
"abs(F   1   3)" "angle(F   1   3)"
Zone t="Diffraction force - beta =   0.000 deg",I=    64,F=POINT
  0.5000000E-01  0.2580707E+04 -0.1570795E+01  0.2379559E+03 -0.3085326E+01  0.3559414E+04  0.1570798E+01
  0.8095238E-01  0.4228276E+04 -0.1570792E+01  0.6159097E+03 -0.3083226E+01  0.5834739E+04  0.1570800E+01
  0.1119048E+00  0.5899489E+04 -0.1570787E+01  0.1169167E+04 -0.3080711E+01  0.8137782E+04  0.1570804E+01
  0.1428571E+00  0.7628644E+04 -0.1570780E+01  0.1899664E+04 -0.3077588E+01  0.1051280E+05  0.1570809E+01
  0.1738095E+00  0.9430144E+04 -0.1570770E+01  0.2810271E+04 -0.3073657E+01  0.1297156E+05  0.1570817E+01
  0.2047619E+00  0.1132782E+05 -0.1570755E+01  0.3908082E+04 -0.3068786E+01  0.1555417E+05  0.1570829E+01
  0.2357143E+00  0.1333027E+05 -0.1570734E+01  0.5196342E+04 -0.3062626E+01  0.1829251E+05  0.1570846E+01
  0.2666667E+00  0.1550115E+05 -0.1570702E+01  0.6684040E+04 -0.3055173E+01  0.2120052E+05  0.1570871E+01
  0.2976190E+00  0.1783379E+05 -0.1570655E+01  0.8376790E+04 -0.3045807E+01  0.2434636E+05  0.1570908E+01
  0.3285715E+00  0.2037201E+05 -0.1570585E+01  0.1028436E+05 -0.3034647E+01  0.2777129E+05  0.1570963E+01
  0.3595238E+00  0.2318781E+05 -0.1570481E+01  0.1239895E+05 -0.3021041E+01  0.3149575E+05  0.1571045E+01
  0.3904762E+00  0.2628677E+05 -0.1570324E+01  0.1474155E+05 -0.3005041E+01  0.3557312E+05  0.1571168E+01
  0.4214286E+00  0.2968778E+05 -0.1570095E+01  0.1726978E+05 -0.2987088E+01  0.4008452E+05  0.1571348E+01
  0.4523810E+00  0.3344164E+05 -0.1569758E+01  0.2000505E+05 -0.2966358E+01  0.4497923E+05  0.1571612E+01
  0.4833333E+00  0.3756936E+05 -0.1569292E+01  0.2288619E+05 -0.2945282E+01  0.5029342E+05  0.1571977E+01
  0.5142857E+00  0.4201773E+05 -0.1568643E+01  0.2592724E+05 -0.2922524E+01  0.5601816E+05  0.1572485E+01
  0.5452381E+00  0.4676866E+05 -0.1567778E+01  0.2911838E+05 -0.2899961E+01  0.6213266E+05  0.1573160E+01
  0.5761905E+00  0.5179680E+05 -0.1566651E+01  0.3241140E+05 -0.2877631E+01  0.6850994E+05  0.1574038E+01
  0.6071429E+00  0.5715636E+05 -0.1565197E+01  0.3580836E+05 -0.2854715E+01  0.7513943E+05  0.1575171E+01
  0.6380953E+00  0.6276280E+05 -0.1563382E+01  0.3933470E+05 -0.2833303E+01  0.8206881E+05  0.1576581E+01
  0.6690477E+00  0.6852540E+05 -0.1561122E+01  0.4294780E+05 -0.2812136E+01  0.8917748E+05  0.1578332E+01
  0.7000000E+00  0.7448874E+05 -0.1558340E+01  0.4663023E+05 -0.2790864E+01  0.9643577E+05  0.1580481E+01
  0.7309524E+00  0.8073566E+05 -0.1554992E+01  0.5039470E+05 -0.2770452E+01  0.1038384E+06  0.1583067E+01
  0.7619048E+00  0.8715003E+05 -0.1550977E+01  0.5420439E+05 -0.2750355E+01  0.1113002E+06  0.1586162E+01
  0.7928572E+00  0.9375505E+05 -0.1546210E+01  0.5805797E+05 -0.2730642E+01  0.1189172E+06  0.1589827E+01
  0.8238096E+00  0.1005036E+06 -0.1540605E+01  0.6196288E+05 -0.2711583E+01  0.1265581E+06  0.1594125E+01
  0.8547620E+00  0.1073299E+06 -0.1534069E+01  0.6589762E+05 -0.2693128E+01  0.1343289E+06  0.1599110E+01
  0.8857143E+00  0.1142478E+06 -0.1526520E+01  0.6983273E+05 -0.2675093E+01  0.1419979E+06  0.1604851E+01
  0.9166667E+00  0.1213167E+06 -0.1517897E+01  0.7376802E+05 -0.2657576E+01  0.1495631E+06  0.1611398E+01
  0.9476191E+00  0.1284999E+06 -0.1508123E+01  0.7768801E+05 -0.2640616E+01  0.1570105E+06  0.1618800E+01
  0.9785714E+00  0.1357241E+06 -0.1497108E+01  0.8158377E+05 -0.2624275E+01  0.1644695E+06  0.1627098E+01
  0.1009524E+01  0.1427929E+06 -0.1484747E+01  0.8544477E+05 -0.2608485E+01  0.1715947E+06  0.1636351E+01
  0.1040476E+01  0.1498696E+06 -0.1471046E+01  0.8928845E+05 -0.2593602E+01  0.1786223E+06  0.1646543E+01
  0.1071429E+01  0.1566854E+06 -0.1455902E+01  0.9309447E+05 -0.2579379E+01  0.1852588E+06  0.1657710E+01
  0.1102381E+01  0.1633610E+06 -0.1439402E+01  0.9685048E+05 -0.2565767E+01  0.1914953E+06  0.1669792E+01
  0.1133333E+01  0.1697857E+06 -0.1421500E+01  0.1005462E+06 -0.2552673E+01  0.1973712E+06  0.1682780E+01
  0.1164286E+01  0.1757930E+06 -0.1402221E+01  0.1041665E+06 -0.2540047E+01  0.2024975E+06  0.1696615E+01
  0.1195238E+01  0.1815117E+06 -0.1381674E+01  0.1077322E+06 -0.2528256E+01  0.2072583E+06  0.1711187E+01
  0.1226190E+01  0.1866205E+06 -0.1359829E+01  0.1112251E+06 -0.2517111E+01  0.2112522E+06  0.1726418E+01
  0.1257143E+01  0.1910642E+06 -0.1336713E+01  0.1146857E+06 -0.2506523E+01  0.2145721E+06  0.1742214E+01
  0.1288095E+01  0.1950377E+06 -0.1312891E+01  0.1180206E+06 -0.2497194E+01  0.2172542E+06  0.1758166E+01
  0.1319048E+01  0.1980793E+06 -0.1288024E+01  0.1213230E+06 -0.2488261E+01  0.2190791E+06  0.1774329E+01
  0.1350000E+01  0.2002275E+06 -0.1262463E+01  0.1245488E+06 -0.2479914E+01  0.2200233E+06  0.1790383E+01
  0.1380952E+01  0.2016260E+06 -0.1236604E+01  0.1277104E+06 -0.2472330E+01  0.2202674E+06  0.1806031E+01
  0.1411905E+01  0.2009540E+06 -0.1211912E+01  0.1305536E+06 -0.2464987E+01  0.2191690E+06  0.1819589E+01
  0.1442857E+01  0.2004450E+06 -0.1186056E+01  0.1335838E+06 -0.2458359E+01  0.2175369E+06  0.1833624E+01
  0.1473810E+01  0.1990380E+06 -0.1160641E+01  0.1365417E+06 -0.2452208E+01  0.2151159E+06  0.1846419E+01
  0.1504762E+01  0.1966920E+06 -0.1135685E+01  0.1394392E+06 -0.2446510E+01  0.2120778E+06  0.1857858E+01
  0.1535714E+01  0.1933258E+06 -0.1111425E+01  0.1422638E+06 -0.2441022E+01  0.2081802E+06  0.1867598E+01
  0.1566667E+01  0.1891298E+06 -0.1088199E+01  0.1450432E+06 -0.2436049E+01  0.2038130E+06  0.1875465E+01
  0.1597619E+01  0.1841691E+06 -0.1066415E+01  0.1477821E+06 -0.2431445E+01  0.1990048E+06  0.1881118E+01
  0.1628572E+01  0.1782927E+06 -0.1046011E+01  0.1504660E+06 -0.2426899E+01  0.1935612E+06  0.1884394E+01
  0.1659524E+01  0.1717713E+06 -0.1027514E+01  0.1531210E+06 -0.2422619E+01  0.1878896E+06  0.1885140E+01
  0.1690476E+01  0.1646045E+06 -0.1011177E+01  0.1557303E+06 -0.2418403E+01  0.1819236E+06  0.1883056E+01
  0.1721429E+01  0.1569006E+06 -0.9970291E+00  0.1582810E+06 -0.2413855E+01  0.1759349E+06  0.1878371E+01
  0.1752381E+01  0.1486667E+06 -0.9854007E+00  0.1607560E+06 -0.2408939E+01  0.1698421E+06  0.1870829E+01
  0.1783333E+01  0.1399326E+06 -0.9765695E+00  0.1631345E+06 -0.2403462E+01  0.1636033E+06  0.1860233E+01
  0.1814286E+01  0.1309335E+06 -0.9710817E+00  0.1654365E+06 -0.2397623E+01  0.1576093E+06  0.1847045E+01
  0.1845238E+01  0.1216859E+06 -0.9696188E+00  0.1675935E+06 -0.2391228E+01  0.1517588E+06  0.1830955E+01
  0.1876190E+01  0.1121281E+06 -0.9725043E+00  0.1695842E+06 -0.2384019E+01  0.1459562E+06  0.1811967E+01
  0.1907143E+01  0.1024826E+06 -0.9808937E+00  0.1714004E+06 -0.2376236E+01  0.1404845E+06  0.1790642E+01
  0.1938095E+01  0.9274183E+05 -0.9962943E+00  0.1729869E+06 -0.2367734E+01  0.1351752E+06  0.1766577E+01
  0.1969048E+01  0.8304107E+05 -0.1020506E+01  0.1742824E+06 -0.2358660E+01  0.1301969E+06  0.1740384E+01
  0.2000000E+01  0.7344765E+05 -0.1055818E+01  0.1752407E+06 -0.2348652E+01  0.1255778E+06  0.1712783E+01
