VARIABLES="w (rad/s)"
"abs(F   1   1)" "angle(F   1   1)"
"abs(F   1   2)" "angle(F   1   2)"
"abs(F   1   3)" "angle(F   1   3)"
Zone t="Diffraction force - beta =   0.000 deg",I=    64,F=POINT
  0.5000000E-01  0.1107658E+04 -0.1570795E+01  0.3314008E+03 -0.3089876E+01  0.5628916E+03 -0.1570793E+01
  0.8095238E-01  0.1811112E+04 -0.1570792E+01  0.8585499E+03 -0.3087996E+01  0.9095089E+03 -0.1570787E+01
  0.1119048E+00  0.2526524E+04 -0.1570788E+01  0.1631250E+04 -0.3085740E+01  0.1268100E+04 -0.1570778E+01
  0.1428571E+00  0.3264017E+04 -0.1570781E+01  0.2649105E+04 -0.3082851E+01  0.1643980E+04 -0.1570765E+01
  0.1738095E+00  0.4026453E+04 -0.1570771E+01  0.3920735E+04 -0.3079277E+01  0.2027143E+04 -0.1570744E+01
  0.2047619E+00  0.4827929E+04 -0.1570758E+01  0.5447360E+04 -0.3074759E+01  0.2438283E+04 -0.1570715E+01
  0.2357143E+00  0.5675296E+04 -0.1570737E+01  0.7241979E+04 -0.3069110E+01  0.2871424E+04 -0.1570673E+01
  0.2666667E+00  0.6576720E+04 -0.1570707E+01  0.9309678E+04 -0.3062238E+01  0.3335526E+04 -0.1570610E+01
  0.2976190E+00  0.7551840E+04 -0.1570663E+01  0.1165277E+05 -0.3053556E+01  0.3845851E+04 -0.1570518E+01
  0.3285715E+00  0.8609729E+04 -0.1570597E+01  0.1429499E+05 -0.3043261E+01  0.4400310E+04 -0.1570380E+01
  0.3595238E+00  0.9759229E+04 -0.1570499E+01  0.1722313E+05 -0.3030743E+01  0.4998742E+04 -0.1570174E+01
  0.3904762E+00  0.1102088E+05 -0.1570351E+01  0.2044296E+05 -0.3015891E+01  0.5669187E+04 -0.1569866E+01
  0.4214286E+00  0.1241329E+05 -0.1570137E+01  0.2391444E+05 -0.2999265E+01  0.6429843E+04 -0.1569421E+01
  0.4523810E+00  0.1392171E+05 -0.1569823E+01  0.2767964E+05 -0.2980213E+01  0.7232975E+04 -0.1568762E+01
  0.4833333E+00  0.1555042E+05 -0.1569388E+01  0.3163806E+05 -0.2960851E+01  0.8110054E+04 -0.1567849E+01
  0.5142857E+00  0.1730453E+05 -0.1568787E+01  0.3578318E+05 -0.2939806E+01  0.9092278E+04 -0.1566599E+01
  0.5452381E+00  0.1916523E+05 -0.1567989E+01  0.4013137E+05 -0.2919022E+01  0.1014322E+05 -0.1564940E+01
  0.5761905E+00  0.2108637E+05 -0.1566953E+01  0.4463436E+05 -0.2898678E+01  0.1116904E+05 -0.1562742E+01
  0.6071429E+00  0.2308254E+05 -0.1565623E+01  0.4925862E+05 -0.2877774E+01  0.1227739E+05 -0.1559934E+01
  0.6380953E+00  0.2514483E+05 -0.1563976E+01  0.5402364E+05 -0.2858161E+01  0.1346483E+05 -0.1556479E+01
  0.6690477E+00  0.2725180E+05 -0.1561945E+01  0.5888898E+05 -0.2838810E+01  0.1468614E+05 -0.1552209E+01
  0.7000000E+00  0.2937625E+05 -0.1559465E+01  0.6385139E+05 -0.2819598E+01  0.1589299E+05 -0.1546934E+01
  0.7309524E+00  0.3149821E+05 -0.1556496E+01  0.6891775E+05 -0.2801375E+01  0.1707884E+05 -0.1540545E+01
  0.7619048E+00  0.3361580E+05 -0.1552973E+01  0.7401509E+05 -0.2783442E+01  0.1828018E+05 -0.1532934E+01
  0.7928572E+00  0.3573085E+05 -0.1548845E+01  0.7912495E+05 -0.2765776E+01  0.1951323E+05 -0.1524015E+01
  0.8238096E+00  0.3781938E+05 -0.1544062E+01  0.8425264E+05 -0.2748646E+01  0.2074733E+05 -0.1513625E+01
  0.8547620E+00  0.3985348E+05 -0.1538569E+01  0.8940503E+05 -0.2732310E+01  0.2192949E+05 -0.1501528E+01
  0.8857143E+00  0.4179400E+05 -0.1532306E+01  0.9454266E+05 -0.2716674E+01  0.2298324E+05 -0.1487348E+01
  0.9166667E+00  0.4363965E+05 -0.1525255E+01  0.9964777E+05 -0.2701745E+01  0.2394187E+05 -0.1471017E+01
  0.9476191E+00  0.4536085E+05 -0.1517393E+01  0.1046672E+06 -0.2687255E+01  0.2481503E+05 -0.1452446E+01
  0.9785714E+00  0.4694222E+05 -0.1508725E+01  0.1095949E+06 -0.2673315E+01  0.2559137E+05 -0.1431506E+01
  0.1009524E+01  0.4836120E+05 -0.1499261E+01  0.1144177E+06 -0.2659990E+01  0.2620396E+05 -0.1407770E+01
  0.1040476E+01  0.4958704E+05 -0.1489023E+01  0.1191412E+06 -0.2647479E+01  0.2664616E+05 -0.1381017E+01
  0.1071429E+01  0.5058365E+05 -0.1478049E+01  0.1237533E+06 -0.2635860E+01  0.2686725E+05 -0.1350716E+01
  0.1102381E+01  0.5131546E+05 -0.1466385E+01  0.1282427E+06 -0.2625201E+01  0.2679588E+05 -0.1315940E+01
  0.1133333E+01  0.5174875E+05 -0.1454124E+01  0.1325748E+06 -0.2615342E+01  0.2641618E+05 -0.1275916E+01
  0.1164286E+01  0.5186475E+05 -0.1441404E+01  0.1367449E+06 -0.2606275E+01  0.2570066E+05 -0.1229386E+01
  0.1195238E+01  0.5163273E+05 -0.1428389E+01  0.1407324E+06 -0.2597934E+01  0.2465102E+05 -0.1174828E+01
  0.1226190E+01  0.5104137E+05 -0.1415337E+01  0.1445367E+06 -0.2590475E+01  0.2325839E+05 -0.1109738E+01
  0.1257143E+01  0.5006030E+05 -0.1402291E+01  0.1481707E+06 -0.2583448E+01  0.2151114E+05 -0.1028977E+01
  0.1288095E+01  0.4868002E+05 -0.1390132E+01  0.1515305E+06 -0.2578090E+01  0.1943319E+05 -0.9270220E+00
  0.1319048E+01  0.4688644E+05 -0.1378763E+01  0.1547362E+06 -0.2573256E+01  0.1710607E+05 -0.7895753E+00
  0.1350000E+01  0.4466901E+05 -0.1368856E+01  0.1577197E+06 -0.2569295E+01  0.1468961E+05 -0.5939903E+00
  0.1380952E+01  0.4203202E+05 -0.1361166E+01  0.1604946E+06 -0.2566403E+01  0.1257466E+05 -0.3043355E+00
  0.1411905E+01  0.3919294E+05 -0.1355405E+01  0.1624097E+06 -0.2565659E+01  0.1162933E+05  0.6886549E-01
  0.1442857E+01  0.3577890E+05 -0.1354953E+01  0.1647290E+06 -0.2564587E+01  0.1235977E+05  0.5218466E+00
  0.1473810E+01  0.3198402E+05 -0.1361285E+01  0.1668409E+06 -0.2564640E+01  0.1523852E+05  0.9069458E+00
  0.1504762E+01  0.2782432E+05 -0.1378170E+01  0.1687531E+06 -0.2565636E+01  0.1977560E+05  0.1176713E+01
  0.1535714E+01  0.2336795E+05 -0.1412714E+01  0.1704820E+06 -0.2567568E+01  0.2548547E+05  0.1361526E+01
  0.1566667E+01  0.1867141E+05 -0.1479424E+01  0.1720070E+06 -0.2570299E+01  0.3203314E+05  0.1493317E+01
  0.1597619E+01  0.1393331E+05 -0.1613750E+01  0.1733831E+06 -0.2574125E+01  0.3927268E+05  0.1592986E+01
  0.1628572E+01  0.9628125E+04 -0.1912130E+01  0.1745997E+06 -0.2579020E+01  0.4707262E+05  0.1671994E+01
  0.1659524E+01  0.7386408E+04 -0.2554624E+01  0.1756423E+06 -0.2584603E+01  0.5538768E+05  0.1737037E+01
  0.1690476E+01  0.9419752E+04  0.3036214E+01  0.1765758E+06 -0.2590805E+01  0.6415008E+05  0.1792255E+01
  0.1721429E+01  0.1424989E+05  0.2695627E+01  0.1773913E+06 -0.2597618E+01  0.7328713E+05  0.1840330E+01
  0.1752381E+01  0.2009844E+05  0.2542369E+01  0.1780735E+06 -0.2604703E+01  0.8272264E+05  0.1883127E+01
  0.1783333E+01  0.2637645E+05  0.2464355E+01  0.1786292E+06 -0.2611967E+01  0.9244850E+05  0.1921555E+01
  0.1814286E+01  0.3288616E+05  0.2420631E+01  0.1790215E+06 -0.2619028E+01  0.1023879E+06  0.1956557E+01
  0.1845238E+01  0.3953116E+05  0.2394892E+01  0.1792618E+06 -0.2625817E+01  0.1125112E+06  0.1988533E+01
  0.1876190E+01  0.4625686E+05  0.2379224E+01  0.1792900E+06 -0.2632201E+01  0.1227525E+06  0.2017959E+01
  0.1907143E+01  0.5299396E+05  0.2369811E+01  0.1790344E+06 -0.2637762E+01  0.1330881E+06  0.2045083E+01
  0.1938095E+01  0.5971474E+05  0.2364340E+01  0.1784484E+06 -0.2642640E+01  0.1434358E+06  0.2070272E+01
  0.1969048E+01  0.6638136E+05  0.2361521E+01  0.1774911E+06 -0.2646774E+01  0.1537510E+06  0.2093841E+01
  0.2000000E+01  0.7296856E+05  0.2360303E+01  0.1760373E+06 -0.2650098E+01  0.1639632E+06  0.2115895E+01
