VARIABLES="w (rad/s)"
"abs(F   1   1)" "angle(F   1   1)"
"abs(F   1   2)" "angle(F   1   2)"
"abs(F   1   3)" "angle(F   1   3)"
Zone t="Diffraction force - beta =   0.000 deg",I=    64,F=POINT
  0.5000000E-01  0.2360900E+04 -0.1570794E+01  0.6772418E+02 -0.3113404E+01  0.1053805E+05  0.1570799E+01
  0.8095238E-01  0.3862964E+04 -0.1570790E+01  0.1758426E+03 -0.3112585E+01  0.1719965E+05  0.1570803E+01
  0.1119048E+00  0.5393633E+04 -0.1570784E+01  0.3340812E+03 -0.3111581E+01  0.2397868E+05  0.1570809E+01
  0.1428571E+00  0.6967887E+04 -0.1570775E+01  0.5415884E+03 -0.3110262E+01  0.3092257E+05  0.1570818E+01
  0.1738095E+00  0.8603836E+04 -0.1570761E+01  0.7978937E+03 -0.3108620E+01  0.3812498E+05  0.1570832E+01
  0.2047619E+00  0.1030296E+05 -0.1570742E+01  0.1103208E+04 -0.3106542E+01  0.4559278E+05  0.1570852E+01
  0.2357143E+00  0.1210649E+05 -0.1570714E+01  0.1452833E+04 -0.3103833E+01  0.5347766E+05  0.1570881E+01
  0.2666667E+00  0.1403353E+05 -0.1570673E+01  0.1849692E+04 -0.3100668E+01  0.6184067E+05  0.1570922E+01
  0.2976190E+00  0.1610172E+05 -0.1570613E+01  0.2286677E+04 -0.3096560E+01  0.7077629E+05  0.1570983E+01
  0.3285715E+00  0.1834642E+05 -0.1570525E+01  0.2765944E+04 -0.3091799E+01  0.8042734E+05  0.1571073E+01
  0.3595238E+00  0.2079774E+05 -0.1570395E+01  0.3274460E+04 -0.3085911E+01  0.9091052E+05  0.1571206E+01
  0.3904762E+00  0.2347138E+05 -0.1570202E+01  0.3819692E+04 -0.3079086E+01  0.1022665E+06  0.1571403E+01
  0.4214286E+00  0.2643659E+05 -0.1569925E+01  0.4371423E+04 -0.3071407E+01  0.1147293E+06  0.1571686E+01
  0.4523810E+00  0.2963532E+05 -0.1569522E+01  0.4946439E+04 -0.3062479E+01  0.1281787E+06  0.1572097E+01
  0.4833333E+00  0.3314200E+05 -0.1568973E+01  0.5512830E+04 -0.3053695E+01  0.1426874E+06  0.1572656E+01
  0.5142857E+00  0.3686690E+05 -0.1568220E+01  0.6075962E+04 -0.3044055E+01  0.1580254E+06  0.1573424E+01
  0.5452381E+00  0.4084277E+05 -0.1567235E+01  0.6633199E+04 -0.3034708E+01  0.1742028E+06  0.1574428E+01
  0.5761905E+00  0.4503885E+05 -0.1565979E+01  0.7157897E+04 -0.3025494E+01  0.1911672E+06  0.1575707E+01
  0.6071429E+00  0.4937959E+05 -0.1564382E+01  0.7671513E+04 -0.3016015E+01  0.2085226E+06  0.1577333E+01
  0.6380953E+00  0.5390754E+05 -0.1562430E+01  0.8155658E+04 -0.3007345E+01  0.2262008E+06  0.1579322E+01
  0.6690477E+00  0.5854485E+05 -0.1560052E+01  0.8601193E+04 -0.2998620E+01  0.2442003E+06  0.1581741E+01
  0.7000000E+00  0.6329110E+05 -0.1557181E+01  0.9025095E+04 -0.2989883E+01  0.2624177E+06  0.1584659E+01
  0.7309524E+00  0.6813978E+05 -0.1553787E+01  0.9411445E+04 -0.2981599E+01  0.2806660E+06  0.1588108E+01
  0.7619048E+00  0.7313123E+05 -0.1549809E+01  0.9744685E+04 -0.2973263E+01  0.2990965E+06  0.1592149E+01
  0.7928572E+00  0.7807878E+05 -0.1545161E+01  0.1004600E+05 -0.2964993E+01  0.3169786E+06  0.1596867E+01
  0.8238096E+00  0.8311536E+05 -0.1539808E+01  0.1032443E+05 -0.2956936E+01  0.3348028E+06  0.1602301E+01
  0.8547620E+00  0.8829070E+05 -0.1533712E+01  0.1052551E+05 -0.2948960E+01  0.3525981E+06  0.1608492E+01
  0.8857143E+00  0.9340858E+05 -0.1526777E+01  0.1068311E+05 -0.2940902E+01  0.3700433E+06  0.1615513E+01
  0.9166667E+00  0.9846626E+05 -0.1518954E+01  0.1081088E+05 -0.2932966E+01  0.3868802E+06  0.1623424E+01
  0.9476191E+00  0.1035372E+06 -0.1510228E+01  0.1090789E+05 -0.2924992E+01  0.4031211E+06  0.1632250E+01
  0.9785714E+00  0.1086564E+06 -0.1500568E+01  0.1093091E+05 -0.2917306E+01  0.4188152E+06  0.1642035E+01
  0.1009524E+01  0.1137453E+06 -0.1489904E+01  0.1090572E+05 -0.2909596E+01  0.4340443E+06  0.1652819E+01
  0.1040476E+01  0.1185866E+06 -0.1478153E+01  0.1084617E+05 -0.2901774E+01  0.4478163E+06  0.1664694E+01
  0.1071429E+01  0.1234250E+06 -0.1465329E+01  0.1075585E+05 -0.2893806E+01  0.4612475E+06  0.1677625E+01
  0.1102381E+01  0.1280645E+06 -0.1451384E+01  0.1064379E+05 -0.2885614E+01  0.4732533E+06  0.1691694E+01
  0.1133333E+01  0.1326975E+06 -0.1436359E+01  0.1045402E+05 -0.2878478E+01  0.4846621E+06  0.1706849E+01
  0.1164286E+01  0.1371181E+06 -0.1420159E+01  0.1023511E+05 -0.2871114E+01  0.4951459E+06  0.1723133E+01
  0.1195238E+01  0.1411516E+06 -0.1402845E+01  0.9991833E+04 -0.2863549E+01  0.5034146E+06  0.1740556E+01
  0.1226190E+01  0.1450207E+06 -0.1384398E+01  0.9724717E+04 -0.2855833E+01  0.5107200E+06  0.1759100E+01
  0.1257143E+01  0.1484812E+06 -0.1364833E+01  0.9444147E+04 -0.2847642E+01  0.5161260E+06  0.1778739E+01
  0.1288095E+01  0.1519414E+06 -0.1344216E+01  0.9132317E+04 -0.2840488E+01  0.5206293E+06  0.1799515E+01
  0.1319048E+01  0.1550896E+06 -0.1322575E+01  0.8795618E+04 -0.2834004E+01  0.5237648E+06  0.1821271E+01
  0.1350000E+01  0.1577572E+06 -0.1299673E+01  0.8432115E+04 -0.2827411E+01  0.5254556E+06  0.1844223E+01
  0.1380952E+01  0.1598549E+06 -0.1275794E+01  0.8068779E+04 -0.2820621E+01  0.5244353E+06  0.1868135E+01
  0.1411905E+01  0.1612671E+06 -0.1250574E+01  0.7691646E+04 -0.2813763E+01  0.5221284E+06  0.1893119E+01
  0.1442857E+01  0.1626389E+06 -0.1224718E+01  0.7324146E+04 -0.2806537E+01  0.5186803E+06  0.1918862E+01
  0.1473810E+01  0.1634780E+06 -0.1198154E+01  0.6950403E+04 -0.2799199E+01  0.5130341E+06  0.1945349E+01
  0.1504762E+01  0.1640120E+06 -0.1171115E+01  0.6568146E+04 -0.2794238E+01  0.5061529E+06  0.1972331E+01
  0.1535714E+01  0.1641403E+06 -0.1143432E+01  0.6189638E+04 -0.2788927E+01  0.4982208E+06  0.1999856E+01
  0.1566667E+01  0.1636526E+06 -0.1115145E+01  0.5802353E+04 -0.2784288E+01  0.4884709E+06  0.2028034E+01
  0.1597619E+01  0.1624622E+06 -0.1086547E+01  0.5433542E+04 -0.2779088E+01  0.4761773E+06  0.2056385E+01
  0.1628572E+01  0.1609571E+06 -0.1057425E+01  0.5068172E+04 -0.2774495E+01  0.4635739E+06  0.2085280E+01
  0.1659524E+01  0.1590748E+06 -0.1028108E+01  0.4724662E+04 -0.2769174E+01  0.4501629E+06  0.2114208E+01
  0.1690476E+01  0.1565464E+06 -0.9988906E+00  0.4391827E+04 -0.2764003E+01  0.4346033E+06  0.2143028E+01
  0.1721429E+01  0.1537991E+06 -0.9699088E+00  0.4069373E+04 -0.2760700E+01  0.4188210E+06  0.2171683E+01
  0.1752381E+01  0.1508138E+06 -0.9413056E+00  0.3773948E+04 -0.2756398E+01  0.4027363E+06  0.2199810E+01
  0.1783333E+01  0.1473062E+06 -0.9125828E+00  0.3466184E+04 -0.2755138E+01  0.3860701E+06  0.2228088E+01
  0.1814286E+01  0.1434178E+06 -0.8843385E+00  0.3174848E+04 -0.2754503E+01  0.3686287E+06  0.2255818E+01
  0.1845238E+01  0.1390255E+06 -0.8567122E+00  0.2909387E+04 -0.2752607E+01  0.3498750E+06  0.2282593E+01
  0.1876190E+01  0.1345032E+06 -0.8292215E+00  0.2653566E+04 -0.2752556E+01  0.3317612E+06  0.2309435E+01
  0.1907143E+01  0.1298832E+06 -0.8022606E+00  0.2419748E+04 -0.2750556E+01  0.3142335E+06  0.2335687E+01
  0.1938095E+01  0.1249005E+06 -0.7765489E+00  0.2208217E+04 -0.2748154E+01  0.2956552E+06  0.2360342E+01
  0.1969048E+01  0.1198672E+06 -0.7515424E+00  0.2006075E+04 -0.2748159E+01  0.2776482E+06  0.2384504E+01
  0.2000000E+01  0.1147857E+06 -0.7273023E+00  0.1826056E+04 -0.2746873E+01  0.2601776E+06  0.2407563E+01
