VARIABLES="w (rad/s)"
"abs(F   1   1)" "angle(F   1   1)"
"abs(F   1   2)" "angle(F   1   2)"
"abs(F   1   3)" "angle(F   1   3)"
Zone t="Diffraction force - beta =   0.000 deg",I=    64,F=POINT
  0.5000000E-01  0.2101726E+04 -0.1570795E+01  0.2105345E+06 -0.1439548E-04  0.3083550E+04  0.1570825E+01
  0.8095238E-01  0.3432449E+04 -0.1570795E+01  0.2100515E+06 -0.3870474E-04  0.5036547E+04  0.1570791E+01
  0.1119048E+00  0.4798562E+04 -0.1570795E+01  0.2093421E+06 -0.7679492E-04  0.7043850E+04  0.1570801E+01
  0.1428571E+00  0.6201166E+04 -0.1570791E+01  0.2084060E+06 -0.1315726E-03  0.9101611E+04  0.1570798E+01
  0.1738095E+00  0.7669912E+04 -0.1570786E+01  0.2072421E+06 -0.2072945E-03  0.1125524E+05  0.1570801E+01
  0.2047619E+00  0.9220238E+04 -0.1570786E+01  0.2058559E+06 -0.3103081E-03  0.1352498E+05  0.1570816E+01
  0.2357143E+00  0.1085997E+05 -0.1570779E+01  0.2042424E+06 -0.4498039E-03  0.1593128E+05  0.1570811E+01
  0.2666667E+00  0.1263322E+05 -0.1570768E+01  0.2024046E+06 -0.6367777E-03  0.1852696E+05  0.1570826E+01
  0.2976190E+00  0.1455542E+05 -0.1570757E+01  0.2003476E+06 -0.8905700E-03  0.2133441E+05  0.1570836E+01
  0.3285715E+00  0.1664932E+05 -0.1570738E+01  0.1980691E+06 -0.1229768E-02  0.2440811E+05  0.1570854E+01
  0.3595238E+00  0.1896733E+05 -0.1570708E+01  0.1955812E+06 -0.1685290E-02  0.2778427E+05  0.1570884E+01
  0.3904762E+00  0.2152649E+05 -0.1570667E+01  0.1928881E+06 -0.2290198E-02  0.3152490E+05  0.1570928E+01
  0.4214286E+00  0.2434048E+05 -0.1570603E+01  0.1899957E+06 -0.3065785E-02  0.3563795E+05  0.1570992E+01
  0.4523810E+00  0.2747269E+05 -0.1570505E+01  0.1869385E+06 -0.4073726E-02  0.4021809E+05  0.1571087E+01
  0.4833333E+00  0.3088033E+05 -0.1570373E+01  0.1836824E+06 -0.5278580E-02  0.4517024E+05  0.1571218E+01
  0.5142857E+00  0.3460212E+05 -0.1570188E+01  0.1803286E+06 -0.6757484E-02  0.5057982E+05  0.1571402E+01
  0.5452381E+00  0.3853631E+05 -0.1569941E+01  0.1768015E+06 -0.8481000E-02  0.5632693E+05  0.1571651E+01
  0.5761905E+00  0.4274508E+05 -0.1569617E+01  0.1731505E+06 -0.1045128E-01  0.6242411E+05  0.1571976E+01
  0.6071429E+00  0.4724698E+05 -0.1569194E+01  0.1694137E+06 -0.1273941E-01  0.6895801E+05  0.1572398E+01
  0.6380953E+00  0.5189370E+05 -0.1568664E+01  0.1655205E+06 -0.1526432E-01  0.7567056E+05  0.1572930E+01
  0.6690477E+00  0.5673790E+05 -0.1567998E+01  0.1615740E+06 -0.1809711E-01  0.8266016E+05  0.1573595E+01
  0.7000000E+00  0.6180452E+05 -0.1567172E+01  0.1575574E+06 -0.2128040E-01  0.9004369E+05  0.1574420E+01
  0.7309524E+00  0.6703312E+05 -0.1566166E+01  0.1534249E+06 -0.2476493E-01  0.9754831E+05  0.1575426E+01
  0.7619048E+00  0.7244748E+05 -0.1564949E+01  0.1492360E+06 -0.2859416E-01  0.1052963E+06  0.1576644E+01
  0.7928572E+00  0.7809595E+05 -0.1563487E+01  0.1450619E+06 -0.3279727E-01  0.1133827E+06  0.1578105E+01
  0.8238096E+00  0.8381077E+05 -0.1561747E+01  0.1408180E+06 -0.3737408E-01  0.1215753E+06  0.1579846E+01
  0.8547620E+00  0.8962190E+05 -0.1559697E+01  0.1364937E+06 -0.4231868E-01  0.1298923E+06  0.1581896E+01
  0.8857143E+00  0.9560866E+05 -0.1557300E+01  0.1322205E+06 -0.4765128E-01  0.1384030E+06  0.1584293E+01
  0.9166667E+00  0.1018702E+06 -0.1554518E+01  0.1279603E+06 -0.5340189E-01  0.1472837E+06  0.1587073E+01
  0.9476191E+00  0.1081731E+06 -0.1551309E+01  0.1236842E+06 -0.5956730E-01  0.1561830E+06  0.1590283E+01
  0.9785714E+00  0.1145410E+06 -0.1547629E+01  0.1193776E+06 -0.6614386E-01  0.1650901E+06  0.1593963E+01
  0.1009524E+01  0.1210019E+06 -0.1543436E+01  0.1150991E+06 -0.7313606E-01  0.1741191E+06  0.1598156E+01
  0.1040476E+01  0.1275819E+06 -0.1538692E+01  0.1109529E+06 -0.8053733E-01  0.1832509E+06  0.1602901E+01
  0.1071429E+01  0.1342537E+06 -0.1533351E+01  0.1068091E+06 -0.8843797E-01  0.1926441E+06  0.1608245E+01
  0.1102381E+01  0.1408470E+06 -0.1527390E+01  0.1026862E+06 -0.9677991E-01  0.2018000E+06  0.1614206E+01
  0.1133333E+01  0.1474962E+06 -0.1520795E+01  0.9856929E+05 -0.1056221E+00  0.2108978E+06  0.1620795E+01
  0.1164286E+01  0.1541778E+06 -0.1513516E+01  0.9452767E+05 -0.1149035E+00  0.2199700E+06  0.1628069E+01
  0.1195238E+01  0.1608810E+06 -0.1505529E+01  0.9066723E+05 -0.1245438E+00  0.2289391E+06  0.1636051E+01
  0.1226190E+01  0.1676192E+06 -0.1496799E+01  0.8683708E+05 -0.1347828E+00  0.2380752E+06  0.1644784E+01
  0.1257143E+01  0.1739911E+06 -0.1487331E+01  0.8306824E+05 -0.1456122E+00  0.2465889E+06  0.1654254E+01
  0.1288095E+01  0.1803458E+06 -0.1477100E+01  0.7934224E+05 -0.1568390E+00  0.2549057E+06  0.1664489E+01
  0.1319048E+01  0.1864037E+06 -0.1466132E+01  0.7565525E+05 -0.1687923E+00  0.2628488E+06  0.1675469E+01
  0.1350000E+01  0.1922226E+06 -0.1454466E+01  0.7213118E+05 -0.1810613E+00  0.2703683E+06  0.1687142E+01
  0.1380952E+01  0.1978041E+06 -0.1442163E+01  0.6876705E+05 -0.1936141E+00  0.2774504E+06  0.1699444E+01
  0.1411905E+01  0.2030224E+06 -0.1429218E+01  0.6547100E+05 -0.2070001E+00  0.2842528E+06  0.1712386E+01
  0.1442857E+01  0.2078873E+06 -0.1415911E+01  0.6225388E+05 -0.2209705E+00  0.2902108E+06  0.1725679E+01
  0.1473810E+01  0.2123081E+06 -0.1402211E+01  0.5910922E+05 -0.2355755E+00  0.2953935E+06  0.1739368E+01
  0.1504762E+01  0.2162529E+06 -0.1388180E+01  0.5603087E+05 -0.2510381E+00  0.2998754E+06  0.1753407E+01
  0.1535714E+01  0.2196709E+06 -0.1373932E+01  0.5301226E+05 -0.2673989E+00  0.3036202E+06  0.1767674E+01
  0.1566667E+01  0.2225353E+06 -0.1359667E+01  0.5023936E+05 -0.2832330E+00  0.3064211E+06  0.1781916E+01
  0.1597619E+01  0.2248829E+06 -0.1345510E+01  0.4756586E+05 -0.2995802E+00  0.3084757E+06  0.1796050E+01
  0.1628572E+01  0.2268236E+06 -0.1331622E+01  0.4497661E+05 -0.3168600E+00  0.3100926E+06  0.1809961E+01
  0.1659524E+01  0.2279731E+06 -0.1318255E+01  0.4247843E+05 -0.3348930E+00  0.3104741E+06  0.1823326E+01
  0.1690476E+01  0.2285076E+06 -0.1305520E+01  0.4006107E+05 -0.3537415E+00  0.3099098E+06  0.1836052E+01
  0.1721429E+01  0.2283973E+06 -0.1293573E+01  0.3772200E+05 -0.3736215E+00  0.3083711E+06  0.1847985E+01
  0.1752381E+01  0.2277150E+06 -0.1282462E+01  0.3546073E+05 -0.3947094E+00  0.3061045E+06  0.1859129E+01
  0.1783333E+01  0.2264915E+06 -0.1272401E+01  0.3330371E+05 -0.4163769E+00  0.3030780E+06  0.1869207E+01
  0.1814286E+01  0.2247990E+06 -0.1263667E+01  0.3132110E+05 -0.4366387E+00  0.2992863E+06  0.1877817E+01
  0.1845238E+01  0.2226993E+06 -0.1256211E+01  0.2941891E+05 -0.4576479E+00  0.2949870E+06  0.1885173E+01
  0.1876190E+01  0.2202749E+06 -0.1249947E+01  0.2760265E+05 -0.4796228E+00  0.2904491E+06  0.1891536E+01
  0.1907143E+01  0.2173171E+06 -0.1245260E+01  0.2587045E+05 -0.5024825E+00  0.2851407E+06  0.1896309E+01
  0.1938095E+01  0.2139582E+06 -0.1242194E+01  0.2421381E+05 -0.5264020E+00  0.2792511E+06  0.1899400E+01
  0.1969048E+01  0.2102664E+06 -0.1240900E+01  0.2262782E+05 -0.5515972E+00  0.2728417E+06  0.1900586E+01
  0.2000000E+01  0.2063727E+06 -0.1241166E+01  0.2111866E+05 -0.5779437E+00  0.2662528E+06  0.1900311E+01
