VARIABLES="w (rad/s)"
"abs(F   1   1)" "angle(F   1   1)"
"abs(F   1   2)" "angle(F   1   2)"
"abs(F   1   3)" "angle(F   1   3)"
Zone t="Diffraction force - beta =   0.000 deg",I=    64,F=POINT
  0.5000000E-01  0.1302329E+04 -0.1570795E+01  0.4439135E+02 -0.3117435E+01  0.4389666E+04  0.1570798E+01
  0.8095238E-01  0.2136638E+04 -0.1570793E+01  0.1153840E+03 -0.3116718E+01  0.7186315E+04  0.1570800E+01
  0.1119048E+00  0.2988501E+04 -0.1570789E+01  0.2195270E+03 -0.3115827E+01  0.1002847E+05  0.1570803E+01
  0.1428571E+00  0.3859406E+04 -0.1570784E+01  0.3562964E+03 -0.3114633E+01  0.1294462E+05  0.1570809E+01
  0.1738095E+00  0.4769267E+04 -0.1570776E+01  0.5255765E+03 -0.3113125E+01  0.1597756E+05  0.1570817E+01
  0.2047619E+00  0.5725806E+04 -0.1570765E+01  0.7277183E+03 -0.3111218E+01  0.1915039E+05  0.1570828E+01
  0.2357143E+00  0.6731190E+04 -0.1570749E+01  0.9601268E+03 -0.3108732E+01  0.2248910E+05  0.1570845E+01
  0.2666667E+00  0.7811591E+04 -0.1570726E+01  0.1224756E+04 -0.3105784E+01  0.2606049E+05  0.1570868E+01
  0.2976190E+00  0.8981906E+04 -0.1570691E+01  0.1517840E+04 -0.3101976E+01  0.2990257E+05  0.1570904E+01
  0.3285715E+00  0.1025282E+05 -0.1570639E+01  0.1840900E+04 -0.3097504E+01  0.3405774E+05  0.1570956E+01
  0.3595238E+00  0.1164402E+05 -0.1570563E+01  0.2186817E+04 -0.3091956E+01  0.3859888E+05  0.1571034E+01
  0.3904762E+00  0.1317784E+05 -0.1570449E+01  0.2560492E+04 -0.3085515E+01  0.4358483E+05  0.1571150E+01
  0.4214286E+00  0.1486065E+05 -0.1570284E+01  0.2944544E+04 -0.3078191E+01  0.4901525E+05  0.1571319E+01
  0.4523810E+00  0.1672145E+05 -0.1570044E+01  0.3351500E+04 -0.3069752E+01  0.5497157E+05  0.1571564E+01
  0.4833333E+00  0.1872523E+05 -0.1569713E+01  0.3756410E+04 -0.3061213E+01  0.6139944E+05  0.1571901E+01
  0.5142857E+00  0.2090189E+05 -0.1569256E+01  0.4170159E+04 -0.3051962E+01  0.6829652E+05  0.1572366E+01
  0.5452381E+00  0.2321675E+05 -0.1568653E+01  0.4585851E+04 -0.3042852E+01  0.7557634E+05  0.1572981E+01
  0.5761905E+00  0.2565589E+05 -0.1567876E+01  0.4989796E+04 -0.3033816E+01  0.8322209E+05  0.1573772E+01
  0.6071429E+00  0.2825231E+05 -0.1566882E+01  0.5397638E+04 -0.3024654E+01  0.9125705E+05  0.1574784E+01
  0.6380953E+00  0.3090318E+05 -0.1565652E+01  0.5788566E+04 -0.3016019E+01  0.9945388E+05  0.1576035E+01
  0.6690477E+00  0.3366716E+05 -0.1564140E+01  0.6164820E+04 -0.3007374E+01  0.1078681E+06  0.1577573E+01
  0.7000000E+00  0.3656334E+05 -0.1562304E+01  0.6537434E+04 -0.2998862E+01  0.1165338E+06  0.1579443E+01
  0.7309524E+00  0.3947185E+05 -0.1560102E+01  0.6885954E+04 -0.2990606E+01  0.1252094E+06  0.1581682E+01
  0.7619048E+00  0.4248507E+05 -0.1557491E+01  0.7209249E+04 -0.2982306E+01  0.1341393E+06  0.1584332E+01
  0.7928572E+00  0.4557562E+05 -0.1554424E+01  0.7519848E+04 -0.2974210E+01  0.1431289E+06  0.1587447E+01
  0.8238096E+00  0.4874830E+05 -0.1550856E+01  0.7821146E+04 -0.2966460E+01  0.1522314E+06  0.1591069E+01
  0.8547620E+00  0.5190593E+05 -0.1546725E+01  0.8067486E+04 -0.2958444E+01  0.1611195E+06  0.1595264E+01
  0.8857143E+00  0.5514700E+05 -0.1541997E+01  0.8295075E+04 -0.2950562E+01  0.1701412E+06  0.1600060E+01
  0.9166667E+00  0.5846056E+05 -0.1536629E+01  0.8507846E+04 -0.2942959E+01  0.1791459E+06  0.1605509E+01
  0.9476191E+00  0.6182034E+05 -0.1530568E+01  0.8705593E+04 -0.2935546E+01  0.1882202E+06  0.1611649E+01
  0.9785714E+00  0.6511021E+05 -0.1523737E+01  0.8840807E+04 -0.2928031E+01  0.1969259E+06  0.1618562E+01
  0.1009524E+01  0.6848501E+05 -0.1516141E+01  0.8951182E+04 -0.2920504E+01  0.2057722E+06  0.1626236E+01
  0.1040476E+01  0.7182648E+05 -0.1507720E+01  0.9039694E+04 -0.2913053E+01  0.2141385E+06  0.1634765E+01
  0.1071429E+01  0.7526218E+05 -0.1498482E+01  0.9110894E+04 -0.2905738E+01  0.2225078E+06  0.1644126E+01
  0.1102381E+01  0.7860923E+05 -0.1488305E+01  0.9155856E+04 -0.2898478E+01  0.2305618E+06  0.1654411E+01
  0.1133333E+01  0.8184985E+05 -0.1477164E+01  0.9143660E+04 -0.2891476E+01  0.2380495E+06  0.1665673E+01
  0.1164286E+01  0.8514354E+05 -0.1465080E+01  0.9108468E+04 -0.2884359E+01  0.2456167E+06  0.1677854E+01
  0.1195238E+01  0.8830441E+05 -0.1451985E+01  0.9052335E+04 -0.2877167E+01  0.2524413E+06  0.1691077E+01
  0.1226190E+01  0.9149792E+05 -0.1437939E+01  0.8980025E+04 -0.2869985E+01  0.2591517E+06  0.1705246E+01
  0.1257143E+01  0.9447394E+05 -0.1422839E+01  0.8890553E+04 -0.2862440E+01  0.2652713E+06  0.1720411E+01
  0.1288095E+01  0.9742922E+05 -0.1406765E+01  0.8758132E+04 -0.2855975E+01  0.2707783E+06  0.1736622E+01
  0.1319048E+01  0.1001884E+06 -0.1389655E+01  0.8597981E+04 -0.2849377E+01  0.2756581E+06  0.1753849E+01
  0.1350000E+01  0.1028637E+06 -0.1371573E+01  0.8419703E+04 -0.2842715E+01  0.2801029E+06  0.1772040E+01
  0.1380952E+01  0.1053177E+06 -0.1352474E+01  0.8226179E+04 -0.2835974E+01  0.2835824E+06  0.1791290E+01
  0.1411905E+01  0.1074273E+06 -0.1332268E+01  0.8022032E+04 -0.2829184E+01  0.2864009E+06  0.1811469E+01
  0.1442857E+01  0.1095851E+06 -0.1311242E+01  0.7809555E+04 -0.2822140E+01  0.2888825E+06  0.1832565E+01
  0.1473810E+01  0.1114273E+06 -0.1289210E+01  0.7578105E+04 -0.2815581E+01  0.2903632E+06  0.1854654E+01
  0.1504762E+01  0.1129413E+06 -0.1266253E+01  0.7328794E+04 -0.2810006E+01  0.2907679E+06  0.1877665E+01
  0.1535714E+01  0.1143067E+06 -0.1242385E+01  0.7060013E+04 -0.2804224E+01  0.2909104E+06  0.1901504E+01
  0.1566667E+01  0.1153692E+06 -0.1217762E+01  0.6790062E+04 -0.2798337E+01  0.2901012E+06  0.1926066E+01
  0.1597619E+01  0.1161424E+06 -0.1192631E+01  0.6513153E+04 -0.2792494E+01  0.2882517E+06  0.1951211E+01
  0.1628572E+01  0.1167102E+06 -0.1167090E+01  0.6239674E+04 -0.2786627E+01  0.2857610E+06  0.1976753E+01
  0.1659524E+01  0.1170269E+06 -0.1140974E+01  0.5966911E+04 -0.2780500E+01  0.2827674E+06  0.2002783E+01
  0.1690476E+01  0.1169209E+06 -0.1114320E+01  0.5690731E+04 -0.2774526E+01  0.2786928E+06  0.2029393E+01
  0.1721429E+01  0.1163864E+06 -0.1087405E+01  0.5414687E+04 -0.2770161E+01  0.2733721E+06  0.2056169E+01
  0.1752381E+01  0.1156200E+06 -0.1060076E+01  0.5134956E+04 -0.2765987E+01  0.2677288E+06  0.2083381E+01
  0.1783333E+01  0.1146449E+06 -0.1032450E+01  0.4851452E+04 -0.2762007E+01  0.2618699E+06  0.2110777E+01
  0.1814286E+01  0.1132540E+06 -0.1004895E+01  0.4577506E+04 -0.2757962E+01  0.2548278E+06  0.2138068E+01
  0.1845238E+01  0.1116452E+06 -0.9775867E+00  0.4307620E+04 -0.2754354E+01  0.2473012E+06  0.2165196E+01
  0.1876190E+01  0.1098482E+06 -0.9506075E+00  0.4050729E+04 -0.2750571E+01  0.2394760E+06  0.2191909E+01
  0.1907143E+01  0.1078758E+06 -0.9237772E+00  0.3804750E+04 -0.2746216E+01  0.2315683E+06  0.2218388E+01
  0.1938095E+01  0.1055139E+06 -0.8970419E+00  0.3559327E+04 -0.2743053E+01  0.2229779E+06  0.2244813E+01
  0.1969048E+01  0.1029034E+06 -0.8708212E+00  0.3329073E+04 -0.2740145E+01  0.2138884E+06  0.2270536E+01
  0.2000000E+01  0.1000304E+06 -0.8450216E+00  0.3115403E+04 -0.2736746E+01  0.2043612E+06  0.2295796E+01
