VARIABLES="w (rad/s)"
"abs(F   1   1)" "angle(F   1   1)"
"abs(F   1   2)" "angle(F   1   2)"
"abs(F   1   3)" "angle(F   1   3)"
Zone t="Diffraction force - beta =   0.000 deg",I=    64,F=POINT
  0.5000000E-01  0.7265520E+04 -0.1570794E+01  0.2441983E+06 -0.1674295E-04  0.3352548E+05  0.1570804E+01
  0.8095238E-01  0.1185236E+05 -0.1570786E+01  0.2430666E+06 -0.4492264E-04  0.5461262E+05  0.1570800E+01
  0.1119048E+00  0.1652148E+05 -0.1570785E+01  0.2414041E+06 -0.8885013E-04  0.7604922E+05  0.1570811E+01
  0.1428571E+00  0.2131777E+05 -0.1570777E+01  0.2392158E+06 -0.1516111E-03  0.9802573E+05  0.1570809E+01
  0.1738095E+00  0.2629129E+05 -0.1570771E+01  0.2365062E+06 -0.2374789E-03  0.1207050E+06  0.1570823E+01
  0.2047619E+00  0.3148434E+05 -0.1570755E+01  0.2332810E+06 -0.3534050E-03  0.1443238E+06  0.1570833E+01
  0.2357143E+00  0.3696768E+05 -0.1570737E+01  0.2295546E+06 -0.5087023E-03  0.1690963E+06  0.1570853E+01
  0.2666667E+00  0.4279623E+05 -0.1570711E+01  0.2253350E+06 -0.7137111E-03  0.1953083E+06  0.1570884E+01
  0.2976190E+00  0.4905827E+05 -0.1570666E+01  0.2206459E+06 -0.9894327E-03  0.2233335E+06  0.1570922E+01
  0.3285715E+00  0.5582895E+05 -0.1570605E+01  0.2155051E+06 -0.1351489E-02  0.2534194E+06  0.1570988E+01
  0.3595238E+00  0.6320004E+05 -0.1570512E+01  0.2099550E+06 -0.1831375E-02  0.2859536E+06  0.1571082E+01
  0.3904762E+00  0.7125221E+05 -0.1570375E+01  0.2040169E+06 -0.2460619E-02  0.3212768E+06  0.1571220E+01
  0.4214286E+00  0.8004806E+05 -0.1570176E+01  0.1977693E+06 -0.3250919E-02  0.3596295E+06  0.1571419E+01
  0.4523810E+00  0.8966116E+05 -0.1569887E+01  0.1912183E+06 -0.4273700E-02  0.4010588E+06  0.1571708E+01
  0.4833333E+00  0.9998166E+05 -0.1569491E+01  0.1844808E+06 -0.5464171E-02  0.4452798E+06  0.1572101E+01
  0.5142857E+00  0.1110525E+06 -0.1568949E+01  0.1775511E+06 -0.6916562E-02  0.4921768E+06  0.1572646E+01
  0.5452381E+00  0.1226984E+06 -0.1568235E+01  0.1704915E+06 -0.8581443E-02  0.5411564E+06  0.1573356E+01
  0.5761905E+00  0.1348898E+06 -0.1567323E+01  0.1633579E+06 -0.1045451E-01  0.5917226E+06  0.1574270E+01
  0.6071429E+00  0.1476068E+06 -0.1566159E+01  0.1561378E+06 -0.1262729E-01  0.6436788E+06  0.1575434E+01
  0.6380953E+00  0.1605515E+06 -0.1564729E+01  0.1489209E+06 -0.1497710E-01  0.6960389E+06  0.1576863E+01
  0.6690477E+00  0.1738210E+06 -0.1562980E+01  0.1417053E+06 -0.1760196E-01  0.7489722E+06  0.1578612E+01
  0.7000000E+00  0.1874037E+06 -0.1560861E+01  0.1344956E+06 -0.2055781E-01  0.8019492E+06  0.1580731E+01
  0.7309524E+00  0.2010048E+06 -0.1558344E+01  0.1273797E+06 -0.2374638E-01  0.8540177E+06  0.1583248E+01
  0.7619048E+00  0.2147675E+06 -0.1555370E+01  0.1203615E+06 -0.2725183E-01  0.9058266E+06  0.1586221E+01
  0.7928572E+00  0.2286673E+06 -0.1551892E+01  0.1134370E+06 -0.3112977E-01  0.9567889E+06  0.1589698E+01
  0.8238096E+00  0.2425269E+06 -0.1547862E+01  0.1066353E+06 -0.3539211E-01  0.1006792E+07  0.1593729E+01
  0.8547620E+00  0.2562014E+06 -0.1543242E+01  0.1000582E+06 -0.3991166E-01  0.1054826E+07  0.1598348E+01
  0.8857143E+00  0.2698397E+06 -0.1537985E+01  0.9364896E+05 -0.4487332E-01  0.1101091E+07  0.1603603E+01
  0.9166667E+00  0.2834667E+06 -0.1532050E+01  0.8740679E+05 -0.5032588E-01  0.1145594E+07  0.1609535E+01
  0.9476191E+00  0.2967915E+06 -0.1525390E+01  0.8136715E+05 -0.5631949E-01  0.1187985E+07  0.1616193E+01
  0.9785714E+00  0.3096183E+06 -0.1517980E+01  0.7562905E+05 -0.6245037E-01  0.1226942E+07  0.1623600E+01
  0.1009524E+01  0.3222536E+06 -0.1509770E+01  0.7011796E+05 -0.6915876E-01  0.1264052E+07  0.1631806E+01
  0.1040476E+01  0.3344032E+06 -0.1500763E+01  0.6484219E+05 -0.7648867E-01  0.1297623E+07  0.1640808E+01
  0.1071429E+01  0.3462444E+06 -0.1490952E+01  0.5979327E+05 -0.8457132E-01  0.1328656E+07  0.1650608E+01
  0.1102381E+01  0.3572401E+06 -0.1480375E+01  0.5501548E+05 -0.9309552E-01  0.1354954E+07  0.1661173E+01
  0.1133333E+01  0.3675274E+06 -0.1469010E+01  0.5053204E+05 -0.1017721E+00  0.1377113E+07  0.1672526E+01
  0.1164286E+01  0.3772276E+06 -0.1456841E+01  0.4630133E+05 -0.1111422E+00  0.1396070E+07  0.1684683E+01
  0.1195238E+01  0.3860114E+06 -0.1443956E+01  0.4232329E+05 -0.1212551E+00  0.1409955E+07  0.1697548E+01
  0.1226190E+01  0.3941480E+06 -0.1430365E+01  0.3857241E+05 -0.1323752E+00  0.1420330E+07  0.1711105E+01
  0.1257143E+01  0.4009434E+06 -0.1416114E+01  0.3507540E+05 -0.1445668E+00  0.1425795E+07  0.1725344E+01
  0.1288095E+01  0.4067634E+06 -0.1401366E+01  0.3183060E+05 -0.1562330E+00  0.1425911E+07  0.1740029E+01
  0.1319048E+01  0.4114759E+06 -0.1386076E+01  0.2883866E+05 -0.1684835E+00  0.1422300E+07  0.1755302E+01
  0.1350000E+01  0.4150495E+06 -0.1370554E+01  0.2606367E+05 -0.1816165E+00  0.1413770E+07  0.1770781E+01
  0.1380952E+01  0.4174695E+06 -0.1354948E+01  0.2350241E+05 -0.1954198E+00  0.1400043E+07  0.1786320E+01
  0.1411905E+01  0.4183025E+06 -0.1339412E+01  0.2113170E+05 -0.2106298E+00  0.1381866E+07  0.1801756E+01
  0.1442857E+01  0.4183631E+06 -0.1323806E+01  0.1896203E+05 -0.2266943E+00  0.1360236E+07  0.1817315E+01
  0.1473810E+01  0.4170104E+06 -0.1308589E+01  0.1697036E+05 -0.2429938E+00  0.1333560E+07  0.1832396E+01
  0.1504762E+01  0.4144458E+06 -0.1293789E+01  0.1515024E+05 -0.2597680E+00  0.1303118E+07  0.1847075E+01
  0.1535714E+01  0.4109804E+06 -0.1279324E+01  0.1351450E+05 -0.2760079E+00  0.1270946E+07  0.1861542E+01
  0.1566667E+01  0.4062974E+06 -0.1265968E+01  0.1202197E+05 -0.2934684E+00  0.1234310E+07  0.1874708E+01
  0.1597619E+01  0.4008077E+06 -0.1253491E+01  0.1066967E+05 -0.3114569E+00  0.1195583E+07  0.1887001E+01
  0.1628572E+01  0.3946198E+06 -0.1241954E+01  0.9437208E+04 -0.3321187E+00  0.1155622E+07  0.1898307E+01
  0.1659524E+01  0.3875010E+06 -0.1231522E+01  0.8334222E+04 -0.3525291E+00  0.1114173E+07  0.1908668E+01
  0.1690476E+01  0.3795382E+06 -0.1222501E+01  0.7337542E+04 -0.3742548E+00  0.1070887E+07  0.1917495E+01
  0.1721429E+01  0.3707779E+06 -0.1215195E+01  0.6431968E+04 -0.3997305E+00  0.1025841E+07  0.1924345E+01
  0.1752381E+01  0.3617394E+06 -0.1209056E+01  0.5636843E+04 -0.4201143E+00  0.9817139E+06  0.1930429E+01
  0.1783333E+01  0.3524826E+06 -0.1204263E+01  0.4932579E+04 -0.4401541E+00  0.9385052E+06  0.1935397E+01
  0.1814286E+01  0.3426747E+06 -0.1201705E+01  0.4295585E+04 -0.4632798E+00  0.8937929E+06  0.1937318E+01
  0.1845238E+01  0.3328480E+06 -0.1200520E+01  0.3729057E+04 -0.4872667E+00  0.8505411E+06  0.1938104E+01
  0.1876190E+01  0.3230042E+06 -0.1200784E+01  0.3227359E+04 -0.5172702E+00  0.8087729E+06  0.1937491E+01
  0.1907143E+01  0.3130913E+06 -0.1202577E+01  0.2787580E+04 -0.5455729E+00  0.7683752E+06  0.1935817E+01
  0.1938095E+01  0.3030399E+06 -0.1206394E+01  0.2396155E+04 -0.5748711E+00  0.7284854E+06  0.1931875E+01
  0.1969048E+01  0.2930115E+06 -0.1212273E+01  0.2050925E+04 -0.6183560E+00  0.6895571E+06  0.1925192E+01
  0.2000000E+01  0.2831306E+06 -0.1219724E+01  0.1751119E+04 -0.6674596E+00  0.6522231E+06  0.1917204E+01
