VARIABLES="w (rad/s)"
"abs(F   1   1)" "angle(F   1   1)"
"abs(F   1   2)" "angle(F   1   2)"
"abs(F   1   3)" "angle(F   1   3)"
Zone t="Diffraction force - beta =   0.000 deg",I=    64,F=POINT
  0.5000000E-01  0.5943253E+03 -0.1570762E+01  0.8735372E+05 -0.5989550E-05  0.8712441E+03  0.1570775E+01
  0.8095238E-01  0.9716809E+03 -0.1570778E+01  0.8725198E+05 -0.1612404E-04  0.1424368E+04  0.1570816E+01
  0.1119048E+00  0.1357164E+04 -0.1570807E+01  0.8710228E+05 -0.3204505E-04  0.1988872E+04  0.1570800E+01
  0.1428571E+00  0.1755417E+04 -0.1570798E+01  0.8690461E+05 -0.5501543E-04  0.2569359E+04  0.1570815E+01
  0.1738095E+00  0.2171420E+04 -0.1570795E+01  0.8665886E+05 -0.8693129E-04  0.3173667E+04  0.1570817E+01
  0.2047619E+00  0.2608467E+04 -0.1570787E+01  0.8636505E+05 -0.1305366E-03  0.3806026E+04  0.1570796E+01
  0.2357143E+00  0.3071911E+04 -0.1570787E+01  0.8602285E+05 -0.1899168E-03  0.4476272E+04  0.1570798E+01
  0.2666667E+00  0.3571984E+04 -0.1570788E+01  0.8563234E+05 -0.2701016E-03  0.5193605E+04  0.1570801E+01
  0.2976190E+00  0.4113200E+04 -0.1570786E+01  0.8519356E+05 -0.3795323E-03  0.5966184E+04  0.1570810E+01
  0.3285715E+00  0.4700746E+04 -0.1570775E+01  0.8470633E+05 -0.5270714E-03  0.6806360E+04  0.1570815E+01
  0.3595238E+00  0.5349208E+04 -0.1570771E+01  0.8417182E+05 -0.7265990E-03  0.7725282E+04  0.1570824E+01
  0.3904762E+00  0.6069098E+04 -0.1570763E+01  0.8359009E+05 -0.9939033E-03  0.8734502E+04  0.1570836E+01
  0.4214286E+00  0.6860062E+04 -0.1570739E+01  0.8296315E+05 -0.1340278E-02  0.9844050E+04  0.1570852E+01
  0.4523810E+00  0.7725166E+04 -0.1570711E+01  0.8229159E+05 -0.1792789E-02  0.1105356E+05  0.1570879E+01
  0.4833333E+00  0.8683338E+04 -0.1570674E+01  0.8157898E+05 -0.2342871E-02  0.1237455E+05  0.1570916E+01
  0.5142857E+00  0.9711345E+04 -0.1570625E+01  0.8082720E+05 -0.3022459E-02  0.1378801E+05  0.1570970E+01
  0.5452381E+00  0.1081278E+05 -0.1570551E+01  0.8003617E+05 -0.3825358E-02  0.1528878E+05  0.1571041E+01
  0.5761905E+00  0.1197280E+05 -0.1570458E+01  0.7920903E+05 -0.4757131E-02  0.1686611E+05  0.1571133E+01
  0.6071429E+00  0.1320352E+05 -0.1570338E+01  0.7834814E+05 -0.5845873E-02  0.1851418E+05  0.1571255E+01
  0.6380953E+00  0.1449966E+05 -0.1570188E+01  0.7745259E+05 -0.7073128E-02  0.2022815E+05  0.1571403E+01
  0.6690477E+00  0.1582839E+05 -0.1569999E+01  0.7652606E+05 -0.8467268E-02  0.2197725E+05  0.1571595E+01
  0.7000000E+00  0.1719874E+05 -0.1569766E+01  0.7556920E+05 -0.1004754E-01  0.2377165E+05  0.1571827E+01
  0.7309524E+00  0.1863086E+05 -0.1569480E+01  0.7458309E+05 -0.1180983E-01  0.2560823E+05  0.1572113E+01
  0.7619048E+00  0.2010284E+05 -0.1569134E+01  0.7357237E+05 -0.1377439E-01  0.2747510E+05  0.1572459E+01
  0.7928572E+00  0.2161169E+05 -0.1568720E+01  0.7253862E+05 -0.1595463E-01  0.2936685E+05  0.1572873E+01
  0.8238096E+00  0.2315672E+05 -0.1568227E+01  0.7148290E+05 -0.1836043E-01  0.3127173E+05  0.1573366E+01
  0.8547620E+00  0.2474424E+05 -0.1567647E+01  0.7040501E+05 -0.2099961E-01  0.3320710E+05  0.1573946E+01
  0.8857143E+00  0.2633594E+05 -0.1566968E+01  0.6931025E+05 -0.2388682E-01  0.3513195E+05  0.1574625E+01
  0.9166667E+00  0.2796944E+05 -0.1566180E+01  0.6819902E+05 -0.2703085E-01  0.3707185E+05  0.1575413E+01
  0.9476191E+00  0.2964129E+05 -0.1565269E+01  0.6707679E+05 -0.3044233E-01  0.3900527E+05  0.1576323E+01
  0.9785714E+00  0.3136312E+05 -0.1564226E+01  0.6594230E+05 -0.3412611E-01  0.4096042E+05  0.1577366E+01
  0.1009524E+01  0.3308329E+05 -0.1563035E+01  0.6479984E+05 -0.3809503E-01  0.4289363E+05  0.1578559E+01
  0.1040476E+01  0.3481131E+05 -0.1561685E+01  0.6365029E+05 -0.4235703E-01  0.4479259E+05  0.1579909E+01
  0.1071429E+01  0.3656038E+05 -0.1560162E+01  0.6249270E+05 -0.4691740E-01  0.4668857E+05  0.1581433E+01
  0.1102381E+01  0.3831930E+05 -0.1558452E+01  0.6133116E+05 -0.5178806E-01  0.4854718E+05  0.1583141E+01
  0.1133333E+01  0.4010997E+05 -0.1556545E+01  0.6016654E+05 -0.5697262E-01  0.5040539E+05  0.1585047E+01
  0.1164286E+01  0.4189934E+05 -0.1554426E+01  0.5900341E+05 -0.6248683E-01  0.5221597E+05  0.1587166E+01
  0.1195238E+01  0.4369241E+05 -0.1552081E+01  0.5784482E+05 -0.6833450E-01  0.5396875E+05  0.1589510E+01
  0.1226190E+01  0.4550719E+05 -0.1549497E+01  0.5668683E+05 -0.7451120E-01  0.5571771E+05  0.1592095E+01
  0.1257143E+01  0.4728800E+05 -0.1546669E+01  0.5553877E+05 -0.8109347E-01  0.5736951E+05  0.1594923E+01
  0.1288095E+01  0.4912395E+05 -0.1543571E+01  0.5439039E+05 -0.8789402E-01  0.5902198E+05  0.1598022E+01
  0.1319048E+01  0.5092922E+05 -0.1540205E+01  0.5324950E+05 -0.9510396E-01  0.6061588E+05  0.1601388E+01
  0.1350000E+01  0.5269680E+05 -0.1536555E+01  0.5211755E+05 -0.1026766E+00  0.6212195E+05  0.1605036E+01
  0.1380952E+01  0.5443222E+05 -0.1532616E+01  0.5099448E+05 -0.1106129E+00  0.6354341E+05  0.1608971E+01
  0.1411905E+01  0.5598610E+05 -0.1528608E+01  0.4990694E+05 -0.1185706E+00  0.6484601E+05  0.1612974E+01
  0.1442857E+01  0.5768139E+05 -0.1524113E+01  0.4880843E+05 -0.1272322E+00  0.6611755E+05  0.1617464E+01
  0.1473810E+01  0.5937554E+05 -0.1519325E+01  0.4772128E+05 -0.1362659E+00  0.6732842E+05  0.1622250E+01
  0.1504762E+01  0.6106453E+05 -0.1514243E+01  0.4664763E+05 -0.1456646E+00  0.6849111E+05  0.1627331E+01
  0.1535714E+01  0.6268339E+05 -0.1508858E+01  0.4559022E+05 -0.1554602E+00  0.6954807E+05  0.1632721E+01
  0.1566667E+01  0.6424473E+05 -0.1503191E+01  0.4455104E+05 -0.1656306E+00  0.7048671E+05  0.1638388E+01
  0.1597619E+01  0.6575390E+05 -0.1497246E+01  0.4352662E+05 -0.1761920E+00  0.7132397E+05  0.1644337E+01
  0.1628572E+01  0.6721470E+05 -0.1491019E+01  0.4251531E+05 -0.1871357E+00  0.7209216E+05  0.1650567E+01
  0.1659524E+01  0.6860315E+05 -0.1484556E+01  0.4152166E+05 -0.1984597E+00  0.7271905E+05  0.1657022E+01
  0.1690476E+01  0.6993195E+05 -0.1477862E+01  0.4054125E+05 -0.2101803E+00  0.7324254E+05  0.1663702E+01
  0.1721429E+01  0.7119786E+05 -0.1470964E+01  0.3957711E+05 -0.2222806E+00  0.7367356E+05  0.1670571E+01
  0.1752381E+01  0.7237872E+05 -0.1463870E+01  0.3862779E+05 -0.2347984E+00  0.7401213E+05  0.1677634E+01
  0.1783333E+01  0.7345334E+05 -0.1456634E+01  0.3769884E+05 -0.2477598E+00  0.7420552E+05  0.1684839E+01
  0.1814286E+01  0.7443302E+05 -0.1449325E+01  0.3679350E+05 -0.2611016E+00  0.7424337E+05  0.1692092E+01
  0.1845238E+01  0.7533429E+05 -0.1441936E+01  0.3590370E+05 -0.2748783E+00  0.7418422E+05  0.1699445E+01
  0.1876190E+01  0.7615468E+05 -0.1434494E+01  0.3503170E+05 -0.2890778E+00  0.7404641E+05  0.1706877E+01
  0.1907143E+01  0.7687552E+05 -0.1427090E+01  0.3417979E+05 -0.3036494E+00  0.7377487E+05  0.1714255E+01
  0.1938095E+01  0.7748988E+05 -0.1419764E+01  0.3334763E+05 -0.3186047E+00  0.7337285E+05  0.1721540E+01
  0.1969048E+01  0.7801412E+05 -0.1412551E+01  0.3253023E+05 -0.3339548E+00  0.7288135E+05  0.1728711E+01
  0.2000000E+01  0.7844587E+05 -0.1405494E+01  0.3172914E+05 -0.3496980E+00  0.7230982E+05  0.1735717E+01
