VARIABLES="w (rad/s)"
"abs(F   1   1)" "angle(F   1   1)"
"abs(F   1   2)" "angle(F   1   2)"
"abs(F   1   3)" "angle(F   1   3)"
Zone t="Diffraction force - beta =   0.000 deg",I=    64,F=POINT
  0.5000000E-01  0.2536029E+04 -0.1570794E+01  0.4421826E+03 -0.3095304E+01  0.3414800E+04  0.1570799E+01
  0.8095238E-01  0.4151324E+04 -0.1570789E+01  0.1147163E+04 -0.3093767E+01  0.5579353E+04  0.1570802E+01
  0.1119048E+00  0.5813332E+04 -0.1570782E+01  0.2175471E+04 -0.3091783E+01  0.7810004E+04  0.1570808E+01
  0.1428571E+00  0.7536178E+04 -0.1570770E+01  0.3531098E+04 -0.3089341E+01  0.1012181E+05  0.1570817E+01
  0.1738095E+00  0.9327010E+04 -0.1570754E+01  0.5216173E+04 -0.3086287E+01  0.1254761E+05  0.1570831E+01
  0.2047619E+00  0.1125105E+05 -0.1570730E+01  0.7223228E+04 -0.3082354E+01  0.1512684E+05  0.1570850E+01
  0.2357143E+00  0.1327336E+05 -0.1570695E+01  0.9575883E+04 -0.3077516E+01  0.1784725E+05  0.1570879E+01
  0.2666667E+00  0.1545280E+05 -0.1570643E+01  0.1225130E+05 -0.3071567E+01  0.2081709E+05  0.1570920E+01
  0.2976190E+00  0.1788440E+05 -0.1570567E+01  0.1527869E+05 -0.3064166E+01  0.2406707E+05  0.1570982E+01
  0.3285715E+00  0.2055343E+05 -0.1570454E+01  0.1862321E+05 -0.3055255E+01  0.2767415E+05  0.1571074E+01
  0.3595238E+00  0.2344927E+05 -0.1570283E+01  0.2231707E+05 -0.3044584E+01  0.3160948E+05  0.1571213E+01
  0.3904762E+00  0.2674006E+05 -0.1570029E+01  0.2628405E+05 -0.3031779E+01  0.3607904E+05  0.1571419E+01
  0.4214286E+00  0.3041837E+05 -0.1569656E+01  0.3057288E+05 -0.3017860E+01  0.4105103E+05  0.1571723E+01
  0.4523810E+00  0.3450616E+05 -0.1569109E+01  0.3500924E+05 -0.3001174E+01  0.4656536E+05  0.1572170E+01
  0.4833333E+00  0.3890710E+05 -0.1568345E+01  0.3969547E+05 -0.2984939E+01  0.5259906E+05  0.1572792E+01
  0.5142857E+00  0.4389816E+05 -0.1567289E+01  0.4446488E+05 -0.2967040E+01  0.5927089E+05  0.1573659E+01
  0.5452381E+00  0.4934248E+05 -0.1565881E+01  0.4934328E+05 -0.2949330E+01  0.6667443E+05  0.1574815E+01
  0.5761905E+00  0.5503259E+05 -0.1564037E+01  0.5439408E+05 -0.2932678E+01  0.7442116E+05  0.1576330E+01
  0.6071429E+00  0.6122954E+05 -0.1561659E+01  0.5927363E+05 -0.2914552E+01  0.8283477E+05  0.1578291E+01
  0.6380953E+00  0.6781698E+05 -0.1558686E+01  0.6431150E+05 -0.2898444E+01  0.9177220E+05  0.1580747E+01
  0.6690477E+00  0.7486148E+05 -0.1554993E+01  0.6940380E+05 -0.2882948E+01  0.1012927E+06  0.1583812E+01
  0.7000000E+00  0.8242353E+05 -0.1550460E+01  0.7422597E+05 -0.2866338E+01  0.1113756E+06  0.1587596E+01
  0.7309524E+00  0.9016651E+05 -0.1544951E+01  0.7912423E+05 -0.2851251E+01  0.1219189E+06  0.1592189E+01
  0.7619048E+00  0.9826026E+05 -0.1538324E+01  0.8408391E+05 -0.2837387E+01  0.1330327E+06  0.1597721E+01
  0.7928572E+00  0.1069197E+06 -0.1530478E+01  0.8863070E+05 -0.2822426E+01  0.1445036E+06  0.1604331E+01
  0.8238096E+00  0.1163183E+06 -0.1521298E+01  0.9312171E+05 -0.2808174E+01  0.1571966E+06  0.1612077E+01
  0.8547620E+00  0.1258714E+06 -0.1510525E+01  0.9755671E+05 -0.2795010E+01  0.1699610E+06  0.1621209E+01
  0.8857143E+00  0.1358085E+06 -0.1498046E+01  0.1019066E+06 -0.2782886E+01  0.1833115E+06  0.1631814E+01
  0.9166667E+00  0.1460860E+06 -0.1483717E+01  0.1057901E+06 -0.2769869E+01  0.1968217E+06  0.1644074E+01
  0.9476191E+00  0.1568269E+06 -0.1467432E+01  0.1095299E+06 -0.2757507E+01  0.2114930E+06  0.1657974E+01
  0.9785714E+00  0.1676272E+06 -0.1448939E+01  0.1131091E+06 -0.2746094E+01  0.2259497E+06  0.1673830E+01
  0.1009524E+01  0.1789964E+06 -0.1428303E+01  0.1165932E+06 -0.2735945E+01  0.2411928E+06  0.1691575E+01
  0.1040476E+01  0.1906193E+06 -0.1405321E+01  0.1196272E+06 -0.2725263E+01  0.2563163E+06  0.1711480E+01
  0.1071429E+01  0.2024759E+06 -0.1379923E+01  0.1223264E+06 -0.2714430E+01  0.2718548E+06  0.1733554E+01
  0.1102381E+01  0.2141916E+06 -0.1351975E+01  0.1248547E+06 -0.2704420E+01  0.2874657E+06  0.1757832E+01
  0.1133333E+01  0.2253848E+06 -0.1321311E+01  0.1271896E+06 -0.2695340E+01  0.3021750E+06  0.1784515E+01
  0.1164286E+01  0.2361751E+06 -0.1288072E+01  0.1293890E+06 -0.2687411E+01  0.3167807E+06  0.1813370E+01
  0.1195238E+01  0.2463640E+06 -0.1252425E+01  0.1311312E+06 -0.2678959E+01  0.3302372E+06  0.1844366E+01
  0.1226190E+01  0.2559470E+06 -0.1214620E+01  0.1324623E+06 -0.2669990E+01  0.3425826E+06  0.1877297E+01
  0.1257143E+01  0.2648410E+06 -0.1174867E+01  0.1336204E+06 -0.2661366E+01  0.3546491E+06  0.1911692E+01
  0.1288095E+01  0.2729991E+06 -0.1133659E+01  0.1345289E+06 -0.2653833E+01  0.3651714E+06  0.1947440E+01
  0.1319048E+01  0.2794054E+06 -0.1090396E+01  0.1352659E+06 -0.2646859E+01  0.3734384E+06  0.1984849E+01
  0.1350000E+01  0.2844182E+06 -0.1045946E+01  0.1358214E+06 -0.2640685E+01  0.3802167E+06  0.2023011E+01
  0.1380952E+01  0.2877794E+06 -0.1000674E+01  0.1358742E+06 -0.2633506E+01  0.3842265E+06  0.2061779E+01
  0.1411905E+01  0.2889007E+06 -0.9544935E+00  0.1355452E+06 -0.2625863E+01  0.3853786E+06  0.2100800E+01
  0.1442857E+01  0.2892747E+06 -0.9090467E+00  0.1350761E+06 -0.2618473E+01  0.3861918E+06  0.2138820E+01
  0.1473810E+01  0.2876179E+06 -0.8638512E+00  0.1343784E+06 -0.2611394E+01  0.3840457E+06  0.2176051E+01
  0.1504762E+01  0.2841107E+06 -0.8191120E+00  0.1334672E+06 -0.2604634E+01  0.3792536E+06  0.2212405E+01
  0.1535714E+01  0.2790199E+06 -0.7752181E+00  0.1323714E+06 -0.2598218E+01  0.3727926E+06  0.2247319E+01
  0.1566667E+01  0.2723784E+06 -0.7323549E+00  0.1310785E+06 -0.2592290E+01  0.3644534E+06  0.2280513E+01
  0.1597619E+01  0.2643466E+06 -0.6913079E+00  0.1292110E+06 -0.2584475E+01  0.3535681E+06  0.2311357E+01
  0.1628572E+01  0.2551986E+06 -0.6520264E+00  0.1270573E+06 -0.2576438E+01  0.3411920E+06  0.2339811E+01
  0.1659524E+01  0.2453104E+06 -0.6146636E+00  0.1247210E+06 -0.2568649E+01  0.3286937E+06  0.2365375E+01
  0.1690476E+01  0.2340980E+06 -0.5784205E+00  0.1221486E+06 -0.2560803E+01  0.3144289E+06  0.2388730E+01
  0.1721429E+01  0.2219534E+06 -0.5436946E+00  0.1193210E+06 -0.2553219E+01  0.2988612E+06  0.2409282E+01
  0.1752381E+01  0.2089751E+06 -0.5105009E+00  0.1162587E+06 -0.2546320E+01  0.2821912E+06  0.2426812E+01
  0.1783333E+01  0.1955867E+06 -0.4791625E+00  0.1130059E+06 -0.2540578E+01  0.2653940E+06  0.2440711E+01
  0.1814286E+01  0.1817392E+06 -0.4491830E+00  0.1095340E+06 -0.2535753E+01  0.2481296E+06  0.2451014E+01
  0.1845238E+01  0.1675243E+06 -0.4207408E+00  0.1056500E+06 -0.2530218E+01  0.2299135E+06  0.2457131E+01
  0.1876190E+01  0.1530722E+06 -0.3938143E+00  0.1016327E+06 -0.2526057E+01  0.2115532E+06  0.2458629E+01
  0.1907143E+01  0.1386364E+06 -0.3685088E+00  0.9760523E+05 -0.2523792E+01  0.1940068E+06  0.2454928E+01
  0.1938095E+01  0.1240134E+06 -0.3443295E+00  0.9351710E+05 -0.2523151E+01  0.1764618E+06  0.2444891E+01
  0.1969048E+01  0.1091642E+06 -0.3207349E+00  0.8944655E+05 -0.2524247E+01  0.1586971E+06  0.2426919E+01
  0.2000000E+01  0.9428510E+05 -0.2980175E+00  0.8539980E+05 -0.2526989E+01  0.1411718E+06  0.2398897E+01
