VARIABLES="w (rad/s)"
"abs(F   1   1)" "angle(F   1   1)"
"abs(F   1   2)" "angle(F   1   2)"
"abs(F   1   3)" "angle(F   1   3)"
Zone t="Diffraction force - beta =   0.000 deg",I=    64,F=POINT
  0.5000000E-01  0.7321556E+03 -0.1570795E+01  0.1243165E+03 -0.3111681E+01  0.8943394E+03  0.1570797E+01
  0.8095238E-01  0.1197697E+04 -0.1570794E+01  0.3227672E+03 -0.3110674E+01  0.1458075E+04  0.1570799E+01
  0.1119048E+00  0.1672614E+04 -0.1570791E+01  0.6145089E+03 -0.3109461E+01  0.2036438E+04  0.1570801E+01
  0.1428571E+00  0.2166377E+04 -0.1570786E+01  0.9985699E+03 -0.3107841E+01  0.2639582E+04  0.1570805E+01
  0.1738095E+00  0.2687443E+04 -0.1570780E+01  0.1476171E+04 -0.3105783E+01  0.3272054E+04  0.1570811E+01
  0.2047619E+00  0.3227481E+04 -0.1570770E+01  0.2050701E+04 -0.3103222E+01  0.3932679E+04  0.1570819E+01
  0.2357143E+00  0.3815367E+04 -0.1570756E+01  0.2713727E+04 -0.3099831E+01  0.4648420E+04  0.1570830E+01
  0.2666667E+00  0.4442739E+04 -0.1570736E+01  0.3478128E+04 -0.3095804E+01  0.5411243E+04  0.1570848E+01
  0.2976190E+00  0.5123997E+04 -0.1570706E+01  0.4331490E+04 -0.3090601E+01  0.6250077E+04  0.1570873E+01
  0.3285715E+00  0.5873651E+04 -0.1570661E+01  0.5289333E+04 -0.3084470E+01  0.7163651E+04  0.1570912E+01
  0.3595238E+00  0.6722267E+04 -0.1570594E+01  0.6325967E+04 -0.3076807E+01  0.8200727E+04  0.1570969E+01
  0.3904762E+00  0.7634648E+04 -0.1570492E+01  0.7475069E+04 -0.3067938E+01  0.9317306E+04  0.1571056E+01
  0.4214286E+00  0.8662059E+04 -0.1570344E+01  0.8672026E+04 -0.3057621E+01  0.1058542E+05  0.1571182E+01
  0.4523810E+00  0.9805875E+04 -0.1570125E+01  0.9981589E+04 -0.3045975E+01  0.1198371E+05  0.1571368E+01
  0.4833333E+00  0.1108147E+05 -0.1569822E+01  0.1131379E+05 -0.3033786E+01  0.1352961E+05  0.1571628E+01
  0.5142857E+00  0.1244024E+05 -0.1569398E+01  0.1271755E+05 -0.3020690E+01  0.1520661E+05  0.1571990E+01
  0.5452381E+00  0.1389229E+05 -0.1568828E+01  0.1418227E+05 -0.3007731E+01  0.1699778E+05  0.1572477E+01
  0.5761905E+00  0.1552085E+05 -0.1568091E+01  0.1564506E+05 -0.2994519E+01  0.1899492E+05  0.1573108E+01
  0.6071429E+00  0.1721884E+05 -0.1567131E+01  0.1718408E+05 -0.2981382E+01  0.2106874E+05  0.1573932E+01
  0.6380953E+00  0.1900049E+05 -0.1565925E+01  0.1871483E+05 -0.2968641E+01  0.2322850E+05  0.1574968E+01
  0.6690477E+00  0.2086867E+05 -0.1564418E+01  0.2025526E+05 -0.2955829E+01  0.2557688E+05  0.1576256E+01
  0.7000000E+00  0.2283451E+05 -0.1562556E+01  0.2185029E+05 -0.2943419E+01  0.2798678E+05  0.1577854E+01
  0.7309524E+00  0.2493688E+05 -0.1560308E+01  0.2341973E+05 -0.2931135E+01  0.3052919E+05  0.1579793E+01
  0.7619048E+00  0.2717891E+05 -0.1557611E+01  0.2495696E+05 -0.2918633E+01  0.3327936E+05  0.1582117E+01
  0.7928572E+00  0.2943274E+05 -0.1554362E+01  0.2651554E+05 -0.2906679E+01  0.3602769E+05  0.1584921E+01
  0.8238096E+00  0.3174768E+05 -0.1550504E+01  0.2811391E+05 -0.2895612E+01  0.3890600E+05  0.1588243E+01
  0.8547620E+00  0.3416005E+05 -0.1545986E+01  0.2956349E+05 -0.2883435E+01  0.4183525E+05  0.1592152E+01
  0.8857143E+00  0.3677654E+05 -0.1540787E+01  0.3101729E+05 -0.2871764E+01  0.4505573E+05  0.1596646E+01
  0.9166667E+00  0.3944900E+05 -0.1534765E+01  0.3247314E+05 -0.2860893E+01  0.4828711E+05  0.1601878E+01
  0.9476191E+00  0.4220898E+05 -0.1527853E+01  0.3394230E+05 -0.2850986E+01  0.5165762E+05  0.1607881E+01
  0.9785714E+00  0.4504955E+05 -0.1519974E+01  0.3522195E+05 -0.2839824E+01  0.5502448E+05  0.1614772E+01
  0.1009524E+01  0.4802871E+05 -0.1511088E+01  0.3647182E+05 -0.2829123E+01  0.5867491E+05  0.1622516E+01
  0.1040476E+01  0.5096897E+05 -0.1500996E+01  0.3768857E+05 -0.2819053E+01  0.6229427E+05  0.1631303E+01
  0.1071429E+01  0.5393077E+05 -0.1489681E+01  0.3888764E+05 -0.2809872E+01  0.6591165E+05  0.1641171E+01
  0.1102381E+01  0.5704243E+05 -0.1477238E+01  0.4004586E+05 -0.2801320E+01  0.6966645E+05  0.1652037E+01
  0.1133333E+01  0.6026188E+05 -0.1463567E+01  0.4098700E+05 -0.2791462E+01  0.7341739E+05  0.1664084E+01
  0.1164286E+01  0.6362572E+05 -0.1448638E+01  0.4189974E+05 -0.2782239E+01  0.7748448E+05  0.1677196E+01
  0.1195238E+01  0.6689786E+05 -0.1432171E+01  0.4275816E+05 -0.2773602E+01  0.8140594E+05  0.1691678E+01
  0.1226190E+01  0.7011911E+05 -0.1414165E+01  0.4357440E+05 -0.2765792E+01  0.8520795E+05  0.1707562E+01
  0.1257143E+01  0.7322305E+05 -0.1394487E+01  0.4436662E+05 -0.2758717E+01  0.8895405E+05  0.1724859E+01
  0.1288095E+01  0.7642162E+05 -0.1373473E+01  0.4496434E+05 -0.2751282E+01  0.9271444E+05  0.1743437E+01
  0.1319048E+01  0.7946079E+05 -0.1350816E+01  0.4543580E+05 -0.2743418E+01  0.9628246E+05  0.1763451E+01
  0.1350000E+01  0.8247978E+05 -0.1326831E+01  0.4586718E+05 -0.2736026E+01  0.9997243E+05  0.1784490E+01
  0.1380952E+01  0.8531030E+05 -0.1301498E+01  0.4623930E+05 -0.2729271E+01  0.1032947E+06  0.1806728E+01
  0.1411905E+01  0.8773759E+05 -0.1274322E+01  0.4655000E+05 -0.2723127E+01  0.1061700E+06  0.1830458E+01
  0.1442857E+01  0.9018509E+05 -0.1246217E+01  0.4682900E+05 -0.2717791E+01  0.1090488E+06  0.1855102E+01
  0.1473810E+01  0.9238601E+05 -0.1216843E+01  0.4699011E+05 -0.2712522E+01  0.1115864E+06  0.1880846E+01
  0.1504762E+01  0.9429369E+05 -0.1186336E+01  0.4694879E+05 -0.2706353E+01  0.1136356E+06  0.1907631E+01
  0.1535714E+01  0.9595698E+05 -0.1154833E+01  0.4686393E+05 -0.2700614E+01  0.1155347E+06  0.1935091E+01
  0.1566667E+01  0.9730876E+05 -0.1122669E+01  0.4672445E+05 -0.2695189E+01  0.1171222E+06  0.1962891E+01
  0.1597619E+01  0.9823115E+05 -0.1089894E+01  0.4652679E+05 -0.2690304E+01  0.1180947E+06  0.1991082E+01
  0.1628572E+01  0.9872425E+05 -0.1056544E+01  0.4628099E+05 -0.2686047E+01  0.1185108E+06  0.2019659E+01
  0.1659524E+01  0.9885536E+05 -0.1022804E+01  0.4600075E+05 -0.2682382E+01  0.1185966E+06  0.2048316E+01
  0.1690476E+01  0.9857610E+05 -0.9887666E+00  0.4567250E+05 -0.2679350E+01  0.1182082E+06  0.2076963E+01
  0.1721429E+01  0.9785565E+05 -0.9547592E+00  0.4511882E+05 -0.2675169E+01  0.1171267E+06  0.2105410E+01
  0.1752381E+01  0.9678770E+05 -0.9212905E+00  0.4450944E+05 -0.2671394E+01  0.1156309E+06  0.2133016E+01
  0.1783333E+01  0.9544979E+05 -0.8885310E+00  0.4387054E+05 -0.2667841E+01  0.1140128E+06  0.2159415E+01
  0.1814286E+01  0.9364861E+05 -0.8559871E+00  0.4318651E+05 -0.2664587E+01  0.1118467E+06  0.2185165E+01
  0.1845238E+01  0.9143324E+05 -0.8238671E+00  0.4246458E+05 -0.2661817E+01  0.1091634E+06  0.2210103E+01
  0.1876190E+01  0.8880693E+05 -0.7921780E+00  0.4171409E+05 -0.2659575E+01  0.1059616E+06  0.2234127E+01
  0.1907143E+01  0.8592170E+05 -0.7613324E+00  0.4093860E+05 -0.2657690E+01  0.1025656E+06  0.2256673E+01
  0.1938095E+01  0.8275960E+05 -0.7313575E+00  0.4014138E+05 -0.2656387E+01  0.9887973E+05  0.2277610E+01
  0.1969048E+01  0.7933712E+05 -0.7025358E+00  0.3923003E+05 -0.2654886E+01  0.9480884E+05  0.2296681E+01
  0.2000000E+01  0.7568248E+05 -0.6748425E+00  0.3823298E+05 -0.2653345E+01  0.9041014E+05  0.2313917E+01
