VARIABLES="w (rad/s)"
"abs(F   1   1)" "angle(F   1   1)"
"abs(F   1   2)" "angle(F   1   2)"
"abs(F   1   3)" "angle(F   1   3)"
Zone t="Diffraction force - beta =   0.000 deg",I=    64,F=POINT
  0.5000000E-01  0.1695240E+04 -0.1570794E+01  0.6848121E+03 -0.3090992E+01  0.8657708E+03  0.1570795E+01
  0.8095238E-01  0.2759702E+04 -0.1570789E+01  0.1779834E+04 -0.3089390E+01  0.1427771E+04  0.1570793E+01
  0.1119048E+00  0.3856382E+04 -0.1570781E+01  0.3374442E+04 -0.3087181E+01  0.1997690E+04  0.1570790E+01
  0.1428571E+00  0.4987929E+04 -0.1570770E+01  0.5475721E+04 -0.3084472E+01  0.2597274E+04  0.1570785E+01
  0.1738095E+00  0.6197995E+04 -0.1570753E+01  0.8083838E+04 -0.3081044E+01  0.3261300E+04  0.1570778E+01
  0.2047619E+00  0.7457223E+04 -0.1570729E+01  0.1121058E+05 -0.3076781E+01  0.3948185E+04  0.1570768E+01
  0.2357143E+00  0.8795911E+04 -0.1570693E+01  0.1487278E+05 -0.3071474E+01  0.4706682E+04  0.1570754E+01
  0.2666667E+00  0.1027748E+05 -0.1570641E+01  0.1904986E+05 -0.3064957E+01  0.5556915E+04  0.1570735E+01
  0.2976190E+00  0.1185583E+05 -0.1570563E+01  0.2378966E+05 -0.3056881E+01  0.6472948E+04  0.1570707E+01
  0.3285715E+00  0.1360349E+05 -0.1570447E+01  0.2904027E+05 -0.3047141E+01  0.7513592E+04  0.1570667E+01
  0.3595238E+00  0.1559298E+05 -0.1570275E+01  0.3485986E+05 -0.3035511E+01  0.8739093E+04  0.1570614E+01
  0.3904762E+00  0.1778368E+05 -0.1570017E+01  0.4114948E+05 -0.3021591E+01  0.1008212E+05  0.1570535E+01
  0.4214286E+00  0.2013801E+05 -0.1569636E+01  0.4789299E+05 -0.3006240E+01  0.1156404E+05  0.1570426E+01
  0.4523810E+00  0.2288542E+05 -0.1569082E+01  0.5504523E+05 -0.2988399E+01  0.1332999E+05  0.1570281E+01
  0.4833333E+00  0.2592769E+05 -0.1568316E+01  0.6249894E+05 -0.2970592E+01  0.1536115E+05  0.1570105E+01
  0.5142857E+00  0.2914912E+05 -0.1567245E+01  0.7023867E+05 -0.2951423E+01  0.1750284E+05  0.1569866E+01
  0.5452381E+00  0.3261705E+05 -0.1565813E+01  0.7811717E+05 -0.2932253E+01  0.1986311E+05  0.1569578E+01
  0.5761905E+00  0.3647824E+05 -0.1563967E+01  0.8622972E+05 -0.2913953E+01  0.2262553E+05  0.1569275E+01
  0.6071429E+00  0.4067593E+05 -0.1561596E+01  0.9433693E+05 -0.2894858E+01  0.2553632E+05  0.1568923E+01
  0.6380953E+00  0.4502621E+05 -0.1558627E+01  0.1025758E+06 -0.2877366E+01  0.2876024E+05  0.1568574E+01
  0.6690477E+00  0.4945141E+05 -0.1554910E+01  0.1109229E+06 -0.2860539E+01  0.3206635E+05  0.1568184E+01
  0.7000000E+00  0.5417065E+05 -0.1550361E+01  0.1190871E+06 -0.2843181E+01  0.3557890E+05  0.1567794E+01
  0.7309524E+00  0.5950168E+05 -0.1544990E+01  0.1272779E+06 -0.2826967E+01  0.3979809E+05  0.1567585E+01
  0.7619048E+00  0.6491818E+05 -0.1538523E+01  0.1354517E+06 -0.2811586E+01  0.4408721E+05  0.1567439E+01
  0.7928572E+00  0.7047123E+05 -0.1530833E+01  0.1434483E+06 -0.2796481E+01  0.4859620E+05  0.1567424E+01
  0.8238096E+00  0.7627309E+05 -0.1521840E+01  0.1511593E+06 -0.2781379E+01  0.5328321E+05  0.1567583E+01
  0.8547620E+00  0.8208191E+05 -0.1511331E+01  0.1587890E+06 -0.2767274E+01  0.5830288E+05  0.1568017E+01
  0.8857143E+00  0.8808407E+05 -0.1499251E+01  0.1662267E+06 -0.2754011E+01  0.6365654E+05  0.1568788E+01
  0.9166667E+00  0.9472338E+05 -0.1485799E+01  0.1734141E+06 -0.2741315E+01  0.6958333E+05  0.1570010E+01
  0.9476191E+00  0.1014911E+06 -0.1470575E+01  0.1801376E+06 -0.2728490E+01  0.7561247E+05  0.1571771E+01
  0.9785714E+00  0.1081835E+06 -0.1453358E+01  0.1866214E+06 -0.2716496E+01  0.8211005E+05  0.1574224E+01
  0.1009524E+01  0.1147154E+06 -0.1434005E+01  0.1928249E+06 -0.2705411E+01  0.8873163E+05  0.1577329E+01
  0.1040476E+01  0.1210706E+06 -0.1412475E+01  0.1987579E+06 -0.2695266E+01  0.9562759E+05  0.1581166E+01
  0.1071429E+01  0.1273370E+06 -0.1388955E+01  0.2040718E+06 -0.2684491E+01  0.1022831E+06  0.1585465E+01
  0.1102381E+01  0.1334831E+06 -0.1363455E+01  0.2090562E+06 -0.2674419E+01  0.1095714E+06  0.1590844E+01
  0.1133333E+01  0.1394644E+06 -0.1336274E+01  0.2136696E+06 -0.2665011E+01  0.1172193E+06  0.1596822E+01
  0.1164286E+01  0.1451280E+06 -0.1307256E+01  0.2179614E+06 -0.2656651E+01  0.1250115E+06  0.1603621E+01
  0.1195238E+01  0.1501088E+06 -0.1276064E+01  0.2218800E+06 -0.2649068E+01  0.1329886E+06  0.1611678E+01
  0.1226190E+01  0.1545257E+06 -0.1243389E+01  0.2251765E+06 -0.2640955E+01  0.1405013E+06  0.1620031E+01
  0.1257143E+01  0.1580747E+06 -0.1208941E+01  0.2280421E+06 -0.2632863E+01  0.1477702E+06  0.1629038E+01
  0.1288095E+01  0.1610500E+06 -0.1173954E+01  0.2304581E+06 -0.2625770E+01  0.1556156E+06  0.1638819E+01
  0.1319048E+01  0.1629733E+06 -0.1138106E+01  0.2325003E+06 -0.2619113E+01  0.1630399E+06  0.1648192E+01
  0.1350000E+01  0.1637829E+06 -0.1101181E+01  0.2341576E+06 -0.2613223E+01  0.1701121E+06  0.1657972E+01
  0.1380952E+01  0.1634639E+06 -0.1063618E+01  0.2353993E+06 -0.2608170E+01  0.1771383E+06  0.1668221E+01
  0.1411905E+01  0.1617205E+06 -0.1025028E+01  0.2359237E+06 -0.2601967E+01  0.1827910E+06  0.1677102E+01
  0.1442857E+01  0.1591542E+06 -0.9882758E+00  0.2360161E+06 -0.2595903E+01  0.1878516E+06  0.1684898E+01
  0.1473810E+01  0.1556461E+06 -0.9527387E+00  0.2357415E+06 -0.2590278E+01  0.1932784E+06  0.1692405E+01
  0.1504762E+01  0.1507292E+06 -0.9174062E+00  0.2350376E+06 -0.2585110E+01  0.1978701E+06  0.1698840E+01
  0.1535714E+01  0.1446693E+06 -0.8829439E+00  0.2338790E+06 -0.2580366E+01  0.2018603E+06  0.1704186E+01
  0.1566667E+01  0.1375333E+06 -0.8495952E+00  0.2322719E+06 -0.2576039E+01  0.2052304E+06  0.1707740E+01
  0.1597619E+01  0.1294495E+06 -0.8181046E+00  0.2302290E+06 -0.2572150E+01  0.2082902E+06  0.1709593E+01
  0.1628572E+01  0.1205143E+06 -0.7902079E+00  0.2274907E+06 -0.2567170E+01  0.2099092E+06  0.1708036E+01
  0.1659524E+01  0.1107341E+06 -0.7651606E+00  0.2242439E+06 -0.2562111E+01  0.2106431E+06  0.1704223E+01
  0.1690476E+01  0.1003139E+06 -0.7435334E+00  0.2205575E+06 -0.2557365E+01  0.2113264E+06  0.1698965E+01
  0.1721429E+01  0.8919594E+05 -0.7259701E+00  0.2164593E+06 -0.2553517E+01  0.2116691E+06  0.1691319E+01
  0.1752381E+01  0.7751841E+05 -0.7139857E+00  0.2119150E+06 -0.2550400E+01  0.2115880E+06  0.1681175E+01
  0.1783333E+01  0.6527281E+05 -0.7094477E+00  0.2068838E+06 -0.2547884E+01  0.2109250E+06  0.1668500E+01
  0.1814286E+01  0.5264109E+05 -0.7175221E+00  0.2014324E+06 -0.2546539E+01  0.2099176E+06  0.1653219E+01
  0.1845238E+01  0.3982822E+05 -0.7522122E+00  0.1957040E+06 -0.2546279E+01  0.2089139E+06  0.1635173E+01
  0.1876190E+01  0.2711365E+05 -0.8554786E+00  0.1895770E+06 -0.2545977E+01  0.2068797E+06  0.1611668E+01
  0.1907143E+01  0.1545069E+05 -0.1174848E+01  0.1831696E+06 -0.2546544E+01  0.2045244E+06  0.1584745E+01
  0.1938095E+01  0.1064585E+05 -0.2199326E+01  0.1766088E+06 -0.2548364E+01  0.2022273E+06  0.1555143E+01
  0.1969048E+01  0.1903822E+05 -0.2949663E+01  0.1699809E+06 -0.2551514E+01  0.2004221E+06  0.1524370E+01
  0.2000000E+01  0.3133297E+05  0.3115444E+01  0.1632404E+06 -0.2555777E+01  0.1986761E+06  0.1490702E+01
