VARIABLES="w (rad/s)"
"abs(F   1   1)" "angle(F   1   1)"
"abs(F   1   2)" "angle(F   1   2)"
"abs(F   1   3)" "angle(F   1   3)"
Zone t="Diffraction force - beta =   0.000 deg",I=    64,F=POINT
  0.5000000E-01  0.4655326E+04 -0.1570798E+01  0.7214361E+06 -0.4801167E-04  0.1103732E+04 -0.1570781E+01
  0.8095238E-01  0.7583062E+04 -0.1570798E+01  0.7195816E+06 -0.1290603E-03  0.1777595E+04 -0.1570813E+01
  0.1119048E+00  0.1058795E+05 -0.1570787E+01  0.7168694E+06 -0.2560004E-03  0.2467814E+04 -0.1570776E+01
  0.1428571E+00  0.1369214E+05 -0.1570788E+01  0.7132926E+06 -0.4382592E-03  0.3163209E+04 -0.1570781E+01
  0.1738095E+00  0.1696112E+05 -0.1570783E+01  0.7088524E+06 -0.6900827E-03  0.3840858E+04 -0.1570771E+01
  0.2047619E+00  0.2039040E+05 -0.1570773E+01  0.7035371E+06 -0.1032021E-02  0.4555860E+04 -0.1570779E+01
  0.2357143E+00  0.2403905E+05 -0.1570758E+01  0.6973329E+06 -0.1494271E-02  0.5275026E+04 -0.1570752E+01
  0.2666667E+00  0.2800362E+05 -0.1570740E+01  0.6902632E+06 -0.2112922E-02  0.5996135E+04 -0.1570739E+01
  0.2976190E+00  0.3227594E+05 -0.1570710E+01  0.6822846E+06 -0.2950179E-02  0.6765312E+04 -0.1570712E+01
  0.3285715E+00  0.3697060E+05 -0.1570666E+01  0.6734554E+06 -0.4066843E-02  0.7545778E+04 -0.1570663E+01
  0.3595238E+00  0.4220469E+05 -0.1570603E+01  0.6637282E+06 -0.5561142E-02  0.8299737E+04 -0.1570601E+01
  0.3904762E+00  0.4798067E+05 -0.1570506E+01  0.6532158E+06 -0.7541492E-02  0.9115001E+04 -0.1570507E+01
  0.4214286E+00  0.5429724E+05 -0.1570366E+01  0.6419476E+06 -0.1006744E-01  0.9984978E+04 -0.1570369E+01
  0.4523810E+00  0.6140668E+05 -0.1570158E+01  0.6299983E+06 -0.1333316E-01  0.1076979E+05 -0.1570163E+01
  0.4833333E+00  0.6921612E+05 -0.1569868E+01  0.6174759E+06 -0.1722473E-01  0.1148157E+05 -0.1569870E+01
  0.5142857E+00  0.7759762E+05 -0.1569462E+01  0.6044335E+06 -0.2196763E-01  0.1225684E+05 -0.1569472E+01
  0.5452381E+00  0.8659282E+05 -0.1568920E+01  0.5910224E+06 -0.2747089E-01  0.1296132E+05 -0.1568934E+01
  0.5761905E+00  0.9631695E+05 -0.1568210E+01  0.5771519E+06 -0.3372411E-01  0.1338152E+05 -0.1568226E+01
  0.6071429E+00  0.1066812E+06 -0.1567288E+01  0.5631085E+06 -0.4092850E-01  0.1374157E+05 -0.1567317E+01
  0.6380953E+00  0.1174732E+06 -0.1566132E+01  0.5487181E+06 -0.4884049E-01  0.1384983E+05 -0.1566184E+01
  0.6690477E+00  0.1285900E+06 -0.1564687E+01  0.5340374E+06 -0.5764290E-01  0.1391308E+05 -0.1564772E+01
  0.7000000E+00  0.1402292E+06 -0.1562902E+01  0.5194035E+06 -0.6745899E-01  0.1378567E+05 -0.1563049E+01
  0.7309524E+00  0.1526891E+06 -0.1560741E+01  0.5045702E+06 -0.7814085E-01  0.1294807E+05 -0.1560933E+01
  0.7619048E+00  0.1654240E+06 -0.1558133E+01  0.4895986E+06 -0.8977155E-01  0.1201861E+05 -0.1558483E+01
  0.7928572E+00  0.1784662E+06 -0.1555019E+01  0.4746778E+06 -0.1024143E+00  0.1083037E+05 -0.1555667E+01
  0.8238096E+00  0.1919077E+06 -0.1551345E+01  0.4599376E+06 -0.1161020E+00  0.9408652E+04 -0.1552593E+01
  0.8547620E+00  0.2054850E+06 -0.1547054E+01  0.4451428E+06 -0.1308012E+00  0.7582755E+04 -0.1549426E+01
  0.8857143E+00  0.2193612E+06 -0.1542088E+01  0.4304046E+06 -0.1464917E+00  0.5335741E+04 -0.1546846E+01
  0.9166667E+00  0.2339554E+06 -0.1536417E+01  0.4158036E+06 -0.1632407E+00  0.2414199E+04 -0.1548109E+01
  0.9476191E+00  0.2487296E+06 -0.1529959E+01  0.4015928E+06 -0.1810625E+00  0.7285341E+03  0.1672234E+01
  0.9785714E+00  0.2634491E+06 -0.1522663E+01  0.3875019E+06 -0.1999464E+00  0.4467643E+04  0.1633820E+01
  0.1009524E+01  0.2779936E+06 -0.1514495E+01  0.3735546E+06 -0.2198474E+00  0.8475470E+04  0.1639241E+01
  0.1040476E+01  0.2923091E+06 -0.1505449E+01  0.3597388E+06 -0.2408128E+00  0.1291480E+05  0.1647653E+01
  0.1071429E+01  0.3064443E+06 -0.1495580E+01  0.3465277E+06 -0.2629316E+00  0.1728097E+05  0.1657728E+01
  0.1102381E+01  0.3203253E+06 -0.1484907E+01  0.3335355E+06 -0.2861736E+00  0.2246031E+05  0.1668747E+01
  0.1133333E+01  0.3338671E+06 -0.1473573E+01  0.3207998E+06 -0.3105138E+00  0.2818599E+05  0.1679232E+01
  0.1164286E+01  0.3468689E+06 -0.1461587E+01  0.3082255E+06 -0.3359245E+00  0.3425400E+05  0.1690857E+01
  0.1195238E+01  0.3589133E+06 -0.1449006E+01  0.2958888E+06 -0.3624650E+00  0.4071658E+05  0.1704687E+01
  0.1226190E+01  0.3700860E+06 -0.1436113E+01  0.2841721E+06 -0.3901609E+00  0.4692341E+05  0.1718697E+01
  0.1257143E+01  0.3800350E+06 -0.1423009E+01  0.2728704E+06 -0.4192227E+00  0.5310216E+05  0.1733493E+01
  0.1288095E+01  0.3890488E+06 -0.1410107E+01  0.2618182E+06 -0.4491169E+00  0.6007289E+05  0.1747791E+01
  0.1319048E+01  0.3966190E+06 -0.1397633E+01  0.2510719E+06 -0.4803815E+00  0.6682386E+05  0.1760578E+01
  0.1350000E+01  0.4026530E+06 -0.1385664E+01  0.2405773E+06 -0.5128624E+00  0.7343581E+05  0.1773873E+01
  0.1380952E+01  0.4071372E+06 -0.1374527E+01  0.2303346E+06 -0.5464575E+00  0.8020935E+05  0.1787301E+01
  0.1411905E+01  0.4097638E+06 -0.1364473E+01  0.2208934E+06 -0.5809004E+00  0.8578258E+05  0.1798865E+01
  0.1442857E+01  0.4112629E+06 -0.1356260E+01  0.2118505E+06 -0.6165339E+00  0.9092582E+05  0.1808242E+01
  0.1473810E+01  0.4115109E+06 -0.1349836E+01  0.2031148E+06 -0.6534728E+00  0.9659802E+05  0.1815965E+01
  0.1504762E+01  0.4100444E+06 -0.1345441E+01  0.1947048E+06 -0.6914034E+00  0.1015770E+06  0.1822181E+01
  0.1535714E+01  0.4071874E+06 -0.1343272E+01  0.1866274E+06 -0.7301452E+00  0.1060809E+06  0.1826653E+01
  0.1566667E+01  0.4030599E+06 -0.1343540E+01  0.1788714E+06 -0.7696261E+00  0.1100613E+06  0.1828189E+01
  0.1597619E+01  0.3978728E+06 -0.1346507E+01  0.1714165E+06 -0.8097973E+00  0.1138144E+06  0.1826777E+01
  0.1628572E+01  0.3918693E+06 -0.1352657E+01  0.1646325E+06 -0.8492808E+00  0.1161640E+06  0.1820602E+01
  0.1659524E+01  0.3850450E+06 -0.1361851E+01  0.1582166E+06 -0.8884770E+00  0.1176795E+06  0.1811227E+01
  0.1690476E+01  0.3776336E+06 -0.1373997E+01  0.1520427E+06 -0.9274651E+00  0.1191994E+06  0.1799389E+01
  0.1721429E+01  0.3696349E+06 -0.1389338E+01  0.1459577E+06 -0.9661903E+00  0.1204050E+06  0.1783765E+01
  0.1752381E+01  0.3612241E+06 -0.1407891E+01  0.1399792E+06 -0.1004281E+01  0.1212058E+06  0.1764297E+01
  0.1783333E+01  0.3524179E+06 -0.1429803E+01  0.1341091E+06 -0.1041219E+01  0.1214390E+06  0.1741046E+01
  0.1814286E+01  0.3434129E+06 -0.1455045E+01  0.1282098E+06 -0.1077324E+01  0.1213372E+06  0.1713715E+01
  0.1845238E+01  0.3344451E+06 -0.1483731E+01  0.1223074E+06 -0.1113581E+01  0.1212460E+06  0.1681873E+01
  0.1876190E+01  0.3257298E+06 -0.1516176E+01  0.1165952E+06 -0.1148580E+01  0.1201184E+06  0.1641228E+01
  0.1907143E+01  0.3172339E+06 -0.1552010E+01  0.1109005E+06 -0.1183241E+01  0.1187031E+06  0.1594831E+01
  0.1938095E+01  0.3090690E+06 -0.1591050E+01  0.1051844E+06 -0.1218703E+01  0.1173970E+06  0.1543829E+01
  0.1969048E+01  0.3013951E+06 -0.1632843E+01  0.9947516E+05 -0.1255834E+01  0.1166358E+06  0.1490963E+01
  0.2000000E+01  0.2941384E+06 -0.1677486E+01  0.9381906E+05 -0.1294168E+01  0.1160004E+06  0.1433332E+01
