VARIABLES="w (rad/s)"
"abs(F   1   1)" "angle(F   1   1)"
"abs(F   1   2)" "angle(F   1   2)"
"abs(F   1   3)" "angle(F   1   3)"
Zone t="Diffraction force - beta =   0.000 deg",I=    64,F=POINT
  0.5000000E-01  0.1221597E+05 -0.1570800E+01  0.5637838E+06 -0.3829286E-04  0.4081778E+05  0.1570799E+01
  0.8095238E-01  0.1992850E+05 -0.1570796E+01  0.5613428E+06 -0.1027692E-03  0.6656686E+05  0.1570804E+01
  0.1119048E+00  0.2778401E+05 -0.1570785E+01  0.5577593E+06 -0.2033239E-03  0.9278234E+05  0.1570805E+01
  0.1428571E+00  0.3588158E+05 -0.1570773E+01  0.5530465E+06 -0.3470981E-03  0.1197638E+06  0.1570826E+01
  0.1738095E+00  0.4429809E+05 -0.1570755E+01  0.5472136E+06 -0.5440994E-03  0.1477115E+06  0.1570832E+01
  0.2047619E+00  0.5312241E+05 -0.1570734E+01  0.5402591E+06 -0.8101469E-03  0.1769872E+06  0.1570865E+01
  0.2357143E+00  0.6249080E+05 -0.1570698E+01  0.5322063E+06 -0.1166954E-02  0.2079824E+06  0.1570894E+01
  0.2666667E+00  0.7249377E+05 -0.1570651E+01  0.5230910E+06 -0.1638886E-02  0.2409361E+06  0.1570942E+01
  0.2976190E+00  0.8327624E+05 -0.1570576E+01  0.5129099E+06 -0.2273636E-02  0.2764006E+06  0.1571014E+01
  0.3285715E+00  0.9498951E+05 -0.1570473E+01  0.5017603E+06 -0.3108874E-02  0.3148503E+06  0.1571118E+01
  0.3595238E+00  0.1078730E+06 -0.1570315E+01  0.4896548E+06 -0.4218230E-02  0.3568058E+06  0.1571277E+01
  0.3904762E+00  0.1219346E+06 -0.1570079E+01  0.4767011E+06 -0.5668918E-02  0.4025445E+06  0.1571513E+01
  0.4214286E+00  0.1374326E+06 -0.1569735E+01  0.4630280E+06 -0.7496184E-02  0.4529117E+06  0.1571858E+01
  0.4523810E+00  0.1544418E+06 -0.1569236E+01  0.4486627E+06 -0.9854513E-02  0.5076830E+06  0.1572358E+01
  0.4833333E+00  0.1729309E+06 -0.1568546E+01  0.4338818E+06 -0.1260543E-01  0.5669624E+06  0.1573047E+01
  0.5142857E+00  0.1928616E+06 -0.1567595E+01  0.4185364E+06 -0.1594906E-01  0.6306966E+06  0.1573997E+01
  0.5452381E+00  0.2139478E+06 -0.1566337E+01  0.4031055E+06 -0.1977940E-01  0.6979941E+06  0.1575256E+01
  0.5761905E+00  0.2363195E+06 -0.1564713E+01  0.3873358E+06 -0.2408005E-01  0.7683748E+06  0.1576878E+01
  0.6071429E+00  0.2597080E+06 -0.1562631E+01  0.3713837E+06 -0.2903120E-01  0.8414327E+06  0.1578962E+01
  0.6380953E+00  0.2839228E+06 -0.1560053E+01  0.3554701E+06 -0.3438762E-01  0.9167934E+06  0.1581539E+01
  0.6690477E+00  0.3088895E+06 -0.1556880E+01  0.3393948E+06 -0.4033496E-01  0.9940044E+06  0.1584713E+01
  0.7000000E+00  0.3344464E+06 -0.1553013E+01  0.3233646E+06 -0.4694841E-01  0.1072315E+07  0.1588579E+01
  0.7309524E+00  0.3607804E+06 -0.1548395E+01  0.3076039E+06 -0.5409162E-01  0.1151925E+07  0.1593197E+01
  0.7619048E+00  0.3874407E+06 -0.1542914E+01  0.2918863E+06 -0.6189224E-01  0.1231183E+07  0.1598676E+01
  0.7928572E+00  0.4145698E+06 -0.1536472E+01  0.2761994E+06 -0.7043391E-01  0.1311414E+07  0.1605119E+01
  0.8238096E+00  0.4415111E+06 -0.1528984E+01  0.2611305E+06 -0.7954489E-01  0.1389880E+07  0.1612607E+01
  0.8547620E+00  0.4685421E+06 -0.1520376E+01  0.2463222E+06 -0.8941385E-01  0.1468405E+07  0.1621218E+01
  0.8857143E+00  0.4956181E+06 -0.1510623E+01  0.2317541E+06 -0.1001022E+00  0.1544793E+07  0.1630965E+01
  0.9166667E+00  0.5225174E+06 -0.1499647E+01  0.2173473E+06 -0.1117207E+00  0.1619456E+07  0.1641939E+01
  0.9476191E+00  0.5484352E+06 -0.1487419E+01  0.2038073E+06 -0.1237224E+00  0.1689043E+07  0.1654160E+01
  0.9785714E+00  0.5737758E+06 -0.1473884E+01  0.1906989E+06 -0.1366611E+00  0.1756472E+07  0.1667696E+01
  0.1009524E+01  0.5976554E+06 -0.1459106E+01  0.1779610E+06 -0.1505830E+00  0.1817546E+07  0.1682476E+01
  0.1040476E+01  0.6204058E+06 -0.1443120E+01  0.1656090E+06 -0.1656901E+00  0.1874611E+07  0.1698466E+01
  0.1071429E+01  0.6408386E+06 -0.1426056E+01  0.1537828E+06 -0.1816945E+00  0.1923677E+07  0.1715533E+01
  0.1102381E+01  0.6591746E+06 -0.1408206E+01  0.1427637E+06 -0.1979094E+00  0.1964338E+07  0.1733365E+01
  0.1133333E+01  0.6754699E+06 -0.1389675E+01  0.1322513E+06 -0.2152624E+00  0.1997981E+07  0.1751886E+01
  0.1164286E+01  0.6889067E+06 -0.1370734E+01  0.1221644E+06 -0.2339280E+00  0.2021280E+07  0.1770820E+01
  0.1195238E+01  0.6998161E+06 -0.1351576E+01  0.1125654E+06 -0.2540727E+00  0.2036535E+07  0.1789964E+01
  0.1226190E+01  0.7072344E+06 -0.1332499E+01  0.1033968E+06 -0.2760332E+00  0.2041318E+07  0.1809059E+01
  0.1257143E+01  0.7109559E+06 -0.1313989E+01  0.9505201E+05 -0.2968717E+00  0.2033609E+07  0.1827496E+01
  0.1288095E+01  0.7123493E+06 -0.1296417E+01  0.8720312E+05 -0.3188812E+00  0.2019340E+07  0.1845075E+01
  0.1319048E+01  0.7103548E+06 -0.1280048E+01  0.7983297E+05 -0.3423051E+00  0.1994558E+07  0.1861409E+01
  0.1350000E+01  0.7054454E+06 -0.1265183E+01  0.7288541E+05 -0.3674843E+00  0.1961128E+07  0.1876251E+01
  0.1380952E+01  0.6981290E+06 -0.1251981E+01  0.6639155E+05 -0.3943662E+00  0.1921388E+07  0.1889437E+01
  0.1411905E+01  0.6874078E+06 -0.1240792E+01  0.6034629E+05 -0.4236003E+00  0.1873488E+07  0.1900647E+01
  0.1442857E+01  0.6748844E+06 -0.1232275E+01  0.5477962E+05 -0.4512940E+00  0.1818777E+07  0.1908965E+01
  0.1473810E+01  0.6607275E+06 -0.1225987E+01  0.4968878E+05 -0.4794169E+00  0.1760956E+07  0.1915249E+01
  0.1504762E+01  0.6451616E+06 -0.1222145E+01  0.4498517E+05 -0.5087437E+00  0.1700419E+07  0.1919156E+01
  0.1535714E+01  0.6280721E+06 -0.1221264E+01  0.4061146E+05 -0.5405009E+00  0.1635466E+07  0.1919893E+01
  0.1566667E+01  0.6103558E+06 -0.1222973E+01  0.3658620E+05 -0.5738867E+00  0.1569991E+07  0.1918099E+01
  0.1597619E+01  0.5921642E+06 -0.1227249E+01  0.3290061E+05 -0.6088026E+00  0.1504563E+07  0.1913848E+01
  0.1628572E+01  0.5732342E+06 -0.1234345E+01  0.2952079E+05 -0.6462602E+00  0.1438140E+07  0.1906797E+01
  0.1659524E+01  0.5540266E+06 -0.1244346E+01  0.2641980E+05 -0.6839719E+00  0.1371456E+07  0.1896517E+01
  0.1690476E+01  0.5348718E+06 -0.1256861E+01  0.2361644E+05 -0.7209866E+00  0.1306160E+07  0.1883855E+01
  0.1721429E+01  0.5159342E+06 -0.1271640E+01  0.2107455E+05 -0.7576892E+00  0.1243038E+07  0.1869276E+01
  0.1752381E+01  0.4971483E+06 -0.1289127E+01  0.1876062E+05 -0.7980635E+00  0.1180980E+07  0.1851694E+01
  0.1783333E+01  0.4787298E+06 -0.1309014E+01  0.1665467E+05 -0.8430001E+00  0.1120774E+07  0.1831677E+01
  0.1814286E+01  0.4608260E+06 -0.1331038E+01  0.1475009E+05 -0.8885274E+00  0.1063144E+07  0.1809638E+01
  0.1845238E+01  0.4434030E+06 -0.1355144E+01  0.1303726E+05 -0.9348804E+00  0.1007873E+07  0.1785720E+01
  0.1876190E+01  0.4263508E+06 -0.1381526E+01  0.1149912E+05 -0.9844381E+00  0.9544402E+06  0.1759482E+01
  0.1907143E+01  0.4098419E+06 -0.1410030E+01  0.1011321E+05 -0.1036252E+01  0.9032449E+06  0.1730924E+01
  0.1938095E+01  0.3938771E+06 -0.1440561E+01  0.8870640E+04 -0.1089977E+01  0.8542981E+06  0.1700248E+01
  0.1969048E+01  0.3785006E+06 -0.1472706E+01  0.7769841E+04 -0.1145335E+01  0.8077834E+06  0.1668365E+01
  0.2000000E+01  0.3637095E+06 -0.1506595E+01  0.6760458E+04 -0.1196748E+01  0.7635448E+06  0.1634763E+01
