VARIABLES="w (rad/s)"
"abs(F   1   1)" "angle(F   1   1)"
"abs(F   1   2)" "angle(F   1   2)"
"abs(F   1   3)" "angle(F   1   3)"
Zone t="Diffraction force - beta =   0.000 deg",I=    64,F=POINT
  0.5000000E-01  0.7208857E+03 -0.1570795E+01  0.1972090E+03 -0.3092862E+01  0.1205430E+02 -0.1570795E+01
  0.8095238E-01  0.1178246E+04 -0.1570793E+01  0.5118679E+03 -0.3091174E+01  0.1955240E+02 -0.1570792E+01
  0.1119048E+00  0.1649573E+04 -0.1570789E+01  0.9723784E+03 -0.3089024E+01  0.2751036E+02 -0.1570787E+01
  0.1428571E+00  0.2135275E+04 -0.1570784E+01  0.1580062E+04 -0.3086310E+01  0.3534806E+02 -0.1570781E+01
  0.1738095E+00  0.2639714E+04 -0.1570776E+01  0.2337317E+04 -0.3082881E+01  0.4425087E+02 -0.1570770E+01
  0.2047619E+00  0.3170768E+04 -0.1570764E+01  0.3249067E+04 -0.3078609E+01  0.5308813E+02 -0.1570755E+01
  0.2357143E+00  0.3743113E+04 -0.1570747E+01  0.4316292E+04 -0.3073172E+01  0.6337018E+02 -0.1570734E+01
  0.2666667E+00  0.4347520E+04 -0.1570722E+01  0.5547297E+04 -0.3066589E+01  0.7408651E+02 -0.1570704E+01
  0.2976190E+00  0.5005775E+04 -0.1570685E+01  0.6943520E+04 -0.3058281E+01  0.8555607E+02 -0.1570655E+01
  0.3285715E+00  0.5740185E+04 -0.1570630E+01  0.8511707E+04 -0.3048336E+01  0.9930923E+02 -0.1570587E+01
  0.3595238E+00  0.6531583E+04 -0.1570547E+01  0.1024604E+05 -0.3036196E+01  0.1144578E+03 -0.1570482E+01
  0.3904762E+00  0.7400908E+04 -0.1570423E+01  0.1216194E+05 -0.3021870E+01  0.1305680E+03 -0.1570324E+01
  0.4214286E+00  0.8392665E+04 -0.1570242E+01  0.1421801E+05 -0.3005666E+01  0.1510482E+03 -0.1570099E+01
  0.4523810E+00  0.9486175E+04 -0.1569975E+01  0.1643855E+05 -0.2986944E+01  0.1748355E+03 -0.1569778E+01
  0.4833333E+00  0.1063163E+05 -0.1569602E+01  0.1877643E+05 -0.2967853E+01  0.1947688E+03 -0.1569297E+01
  0.5142857E+00  0.1190666E+05 -0.1569084E+01  0.2123513E+05 -0.2947132E+01  0.2228516E+03 -0.1568665E+01
  0.5452381E+00  0.1331121E+05 -0.1568397E+01  0.2379804E+05 -0.2926344E+01  0.2536421E+03 -0.1567825E+01
  0.5761905E+00  0.1478245E+05 -0.1567498E+01  0.2643911E+05 -0.2905701E+01  0.2876893E+03 -0.1566743E+01
  0.6071429E+00  0.1628918E+05 -0.1566325E+01  0.2916480E+05 -0.2884500E+01  0.3185638E+03 -0.1565276E+01
  0.6380953E+00  0.1788695E+05 -0.1564862E+01  0.3198080E+05 -0.2864484E+01  0.3532074E+03 -0.1563459E+01
  0.6690477E+00  0.1959349E+05 -0.1563051E+01  0.3484283E+05 -0.2844386E+01  0.3969122E+03 -0.1561312E+01
  0.7000000E+00  0.2139330E+05 -0.1560828E+01  0.3775089E+05 -0.2824111E+01  0.4452260E+03 -0.1558720E+01
  0.7309524E+00  0.2322425E+05 -0.1558129E+01  0.4071231E+05 -0.2804530E+01  0.4904340E+03 -0.1555468E+01
  0.7619048E+00  0.2503889E+05 -0.1554852E+01  0.4369882E+05 -0.2785126E+01  0.5328495E+03 -0.1551420E+01
  0.7928572E+00  0.2694167E+05 -0.1550971E+01  0.4671022E+05 -0.2765972E+01  0.5861554E+03 -0.1546854E+01
  0.8238096E+00  0.2894893E+05 -0.1546435E+01  0.4972738E+05 -0.2747055E+01  0.6425568E+03 -0.1541520E+01
  0.8547620E+00  0.3102546E+05 -0.1541163E+01  0.5273795E+05 -0.2728436E+01  0.7024645E+03 -0.1535330E+01
  0.8857143E+00  0.3313141E+05 -0.1535053E+01  0.5572657E+05 -0.2710094E+01  0.7707780E+03 -0.1528396E+01
  0.9166667E+00  0.3526016E+05 -0.1528026E+01  0.5870039E+05 -0.2692256E+01  0.8411563E+03 -0.1520413E+01
  0.9476191E+00  0.3735018E+05 -0.1519951E+01  0.6163380E+05 -0.2674751E+01  0.9009863E+03 -0.1510698E+01
  0.9785714E+00  0.3943464E+05 -0.1510794E+01  0.6452471E+05 -0.2657679E+01  0.9639348E+03 -0.1499767E+01
  0.1009524E+01  0.4156348E+05 -0.1500579E+01  0.6735398E+05 -0.2640869E+01  0.1038946E+04 -0.1488109E+01
  0.1040476E+01  0.4374154E+05 -0.1489283E+01  0.7012448E+05 -0.2624523E+01  0.1124435E+04 -0.1475671E+01
  0.1071429E+01  0.4592418E+05 -0.1476824E+01  0.7282163E+05 -0.2608603E+01  0.1209656E+04 -0.1461743E+01
  0.1102381E+01  0.4806305E+05 -0.1463103E+01  0.7543570E+05 -0.2593078E+01  0.1295087E+04 -0.1446367E+01
  0.1133333E+01  0.5013161E+05 -0.1448051E+01  0.7795784E+05 -0.2577948E+01  0.1380015E+04 -0.1429400E+01
  0.1164286E+01  0.5205181E+05 -0.1431511E+01  0.8038410E+05 -0.2563192E+01  0.1462438E+04 -0.1410590E+01
  0.1195238E+01  0.5383715E+05 -0.1413501E+01  0.8272186E+05 -0.2549036E+01  0.1543101E+04 -0.1389994E+01
  0.1226190E+01  0.5549662E+05 -0.1394127E+01  0.8496752E+05 -0.2535519E+01  0.1626210E+04 -0.1368339E+01
  0.1257143E+01  0.5701172E+05 -0.1373387E+01  0.8713008E+05 -0.2522132E+01  0.1702984E+04 -0.1344809E+01
  0.1288095E+01  0.5843036E+05 -0.1351834E+01  0.8912238E+05 -0.2509567E+01  0.1779925E+04 -0.1320663E+01
  0.1319048E+01  0.5963331E+05 -0.1328919E+01  0.9101735E+05 -0.2497103E+01  0.1855404E+04 -0.1294951E+01
  0.1350000E+01  0.6058844E+05 -0.1304739E+01  0.9278631E+05 -0.2485000E+01  0.1929961E+04 -0.1268214E+01
  0.1380952E+01  0.6130323E+05 -0.1279438E+01  0.9443530E+05 -0.2473550E+01  0.2001551E+04 -0.1240599E+01
  0.1411905E+01  0.6137708E+05 -0.1253238E+01  0.9588242E+05 -0.2462257E+01  0.2028934E+04 -0.1209089E+01
  0.1442857E+01  0.6152909E+05 -0.1226158E+01  0.9727360E+05 -0.2451618E+01  0.2079117E+04 -0.1178935E+01
  0.1473810E+01  0.6135018E+05 -0.1198257E+01  0.9852923E+05 -0.2441334E+01  0.2111371E+04 -0.1146996E+01
  0.1504762E+01  0.6085535E+05 -0.1169758E+01  0.9964848E+05 -0.2431455E+01  0.2135298E+04 -0.1114325E+01
  0.1535714E+01  0.6001630E+05 -0.1140623E+01  0.1006257E+06 -0.2421824E+01  0.2152288E+04 -0.1081295E+01
  0.1566667E+01  0.5882952E+05 -0.1110946E+01  0.1014690E+06 -0.2412679E+01  0.2159647E+04 -0.1048405E+01
  0.1597619E+01  0.5731176E+05 -0.1081112E+01  0.1021771E+06 -0.2404002E+01  0.2157094E+04 -0.1016243E+01
  0.1628572E+01  0.5545510E+05 -0.1051149E+01  0.1027448E+06 -0.2395779E+01  0.2138302E+04 -0.9837977E+00
  0.1659524E+01  0.5326715E+05 -0.1021104E+01  0.1031697E+06 -0.2387961E+01  0.2097979E+04 -0.9502022E+00
  0.1690476E+01  0.5074130E+05 -0.9908149E+00  0.1034538E+06 -0.2380497E+01  0.2038593E+04 -0.9149913E+00
  0.1721429E+01  0.4790018E+05 -0.9603871E+00  0.1035990E+06 -0.2373403E+01  0.1961646E+04 -0.8791226E+00
  0.1752381E+01  0.4477184E+05 -0.9300016E+00  0.1036030E+06 -0.2366668E+01  0.1871262E+04 -0.8437293E+00
  0.1783333E+01  0.4135889E+05 -0.8993041E+00  0.1034662E+06 -0.2360182E+01  0.1768620E+04 -0.8095337E+00
  0.1814286E+01  0.3769429E+05 -0.8682032E+00  0.1031959E+06 -0.2354173E+01  0.1649034E+04 -0.7747504E+00
  0.1845238E+01  0.3379503E+05 -0.8362858E+00  0.1027891E+06 -0.2348582E+01  0.1513449E+04 -0.7383375E+00
  0.1876190E+01  0.2969912E+05 -0.8031895E+00  0.1022430E+06 -0.2343492E+01  0.1360749E+04 -0.6997367E+00
  0.1907143E+01  0.2542724E+05 -0.7677468E+00  0.1015560E+06 -0.2338854E+01  0.1188617E+04 -0.6550987E+00
  0.1938095E+01  0.2099821E+05 -0.7274669E+00  0.1007342E+06 -0.2334597E+01  0.9994843E+03 -0.6029599E+00
  0.1969048E+01  0.1644193E+05 -0.6776636E+00  0.9978789E+05 -0.2330699E+01  0.7919235E+03 -0.5314198E+00
  0.2000000E+01  0.1179694E+05 -0.6059050E+00  0.9871264E+05 -0.2327214E+01  0.5755082E+03 -0.4248151E+00
