VARIABLES="w (rad/s)"
"abs(F   1   1)" "angle(F   1   1)"
"abs(F   1   2)" "angle(F   1   2)"
"abs(F   1   3)" "angle(F   1   3)"
Zone t="Diffraction force - beta =   0.000 deg",I=    64,F=POINT
  0.5000000E-01  0.3016285E+04 -0.1570792E+01  0.1104809E+06 -0.7651560E-05  0.1271594E+05  0.1570784E+01
  0.8095238E-01  0.4925419E+04 -0.1570794E+01  0.1100381E+06 -0.2053914E-04  0.2073162E+05  0.1570804E+01
  0.1119048E+00  0.6869040E+04 -0.1570786E+01  0.1093874E+06 -0.4065773E-04  0.2887681E+05  0.1570808E+01
  0.1428571E+00  0.8865943E+04 -0.1570779E+01  0.1085300E+06 -0.6945238E-04  0.3723009E+05  0.1570807E+01
  0.1738095E+00  0.1093436E+05 -0.1570791E+01  0.1074677E+06 -0.1089547E-03  0.4585382E+05  0.1570803E+01
  0.2047619E+00  0.1310168E+05 -0.1570783E+01  0.1062035E+06 -0.1623991E-03  0.5485248E+05  0.1570810E+01
  0.2357143E+00  0.1538690E+05 -0.1570773E+01  0.1047406E+06 -0.2341916E-03  0.6430041E+05  0.1570816E+01
  0.2666667E+00  0.1781833E+05 -0.1570760E+01  0.1030831E+06 -0.3293639E-03  0.7430951E+05  0.1570833E+01
  0.2976190E+00  0.2043884E+05 -0.1570749E+01  0.1012388E+06 -0.4576929E-03  0.8502245E+05  0.1570854E+01
  0.3285715E+00  0.2326616E+05 -0.1570719E+01  0.9921436E+05 -0.6270165E-03  0.9653250E+05  0.1570881E+01
  0.3595238E+00  0.2635635E+05 -0.1570674E+01  0.9702259E+05 -0.8523929E-03  0.1090098E+06  0.1570917E+01
  0.3904762E+00  0.2971835E+05 -0.1570619E+01  0.9467527E+05 -0.1148645E-02  0.1225532E+06  0.1570976E+01
  0.4214286E+00  0.3341214E+05 -0.1570532E+01  0.9218946E+05 -0.1523004E-02  0.1372738E+06  0.1571058E+01
  0.4523810E+00  0.3742327E+05 -0.1570411E+01  0.8958452E+05 -0.2008006E-02  0.1531636E+06  0.1571181E+01
  0.4833333E+00  0.4175473E+05 -0.1570244E+01  0.8687223E+05 -0.2577215E-02  0.1702032E+06  0.1571347E+01
  0.5142857E+00  0.4641279E+05 -0.1570012E+01  0.8408359E+05 -0.3271831E-02  0.1883502E+06  0.1571579E+01
  0.5452381E+00  0.5130350E+05 -0.1569707E+01  0.8121836E+05 -0.4072849E-02  0.2072401E+06  0.1571883E+01
  0.5761905E+00  0.5643952E+05 -0.1569318E+01  0.7829934E+05 -0.4977013E-02  0.2267931E+06  0.1572273E+01
  0.6071429E+00  0.6174795E+05 -0.1568818E+01  0.7534131E+05 -0.6023986E-02  0.2468412E+06  0.1572774E+01
  0.6380953E+00  0.6720652E+05 -0.1568202E+01  0.7234195E+05 -0.7170468E-02  0.2672308E+06  0.1573390E+01
  0.6690477E+00  0.7282861E+05 -0.1567448E+01  0.6933105E+05 -0.8445659E-02  0.2878117E+06  0.1574145E+01
  0.7000000E+00  0.7850011E+05 -0.1566529E+01  0.6631443E+05 -0.9876471E-02  0.3083280E+06  0.1575063E+01
  0.7309524E+00  0.8425811E+05 -0.1565435E+01  0.6329186E+05 -0.1144617E-01  0.3288249E+06  0.1576159E+01
  0.7619048E+00  0.9007996E+05 -0.1564139E+01  0.6028738E+05 -0.1316565E-01  0.3491053E+06  0.1577455E+01
  0.7928572E+00  0.9597401E+05 -0.1562614E+01  0.5731563E+05 -0.1504668E-01  0.3693099E+06  0.1578978E+01
  0.8238096E+00  0.1018039E+06 -0.1560843E+01  0.5437424E+05 -0.1711648E-01  0.3888942E+06  0.1580748E+01
  0.8547620E+00  0.1076571E+06 -0.1558803E+01  0.5146848E+05 -0.1939301E-01  0.4080693E+06  0.1582788E+01
  0.8857143E+00  0.1135480E+06 -0.1556467E+01  0.4863060E+05 -0.2181882E-01  0.4267669E+06  0.1585123E+01
  0.9166667E+00  0.1194015E+06 -0.1553812E+01  0.4585503E+05 -0.2445031E-01  0.4449751E+06  0.1587778E+01
  0.9476191E+00  0.1251141E+06 -0.1550817E+01  0.4314586E+05 -0.2732854E-01  0.4621785E+06  0.1590772E+01
  0.9785714E+00  0.1308077E+06 -0.1547454E+01  0.4050552E+05 -0.3049155E-01  0.4788646E+06  0.1594134E+01
  0.1009524E+01  0.1364208E+06 -0.1543707E+01  0.3795302E+05 -0.3385808E-01  0.4946601E+06  0.1597880E+01
  0.1040476E+01  0.1419995E+06 -0.1539552E+01  0.3549504E+05 -0.3740624E-01  0.5097765E+06  0.1602031E+01
  0.1071429E+01  0.1473612E+06 -0.1534979E+01  0.3312691E+05 -0.4126491E-01  0.5236504E+06  0.1606601E+01
  0.1102381E+01  0.1525816E+06 -0.1529963E+01  0.3084907E+05 -0.4546976E-01  0.5364716E+06  0.1611614E+01
  0.1133333E+01  0.1576715E+06 -0.1524486E+01  0.2866200E+05 -0.5009563E-01  0.5483059E+06  0.1617086E+01
  0.1164286E+01  0.1626127E+06 -0.1518534E+01  0.2657980E+05 -0.5491715E-01  0.5589973E+06  0.1623031E+01
  0.1195238E+01  0.1674590E+06 -0.1512088E+01  0.2460281E+05 -0.5990718E-01  0.5688289E+06  0.1629467E+01
  0.1226190E+01  0.1720165E+06 -0.1505134E+01  0.2272892E+05 -0.6525584E-01  0.5773844E+06  0.1636417E+01
  0.1257143E+01  0.1761749E+06 -0.1497727E+01  0.2095248E+05 -0.7110333E-01  0.5841459E+06  0.1643810E+01
  0.1288095E+01  0.1803510E+06 -0.1489727E+01  0.1927123E+05 -0.7739005E-01  0.5904452E+06  0.1651796E+01
  0.1319048E+01  0.1841338E+06 -0.1481312E+01  0.1768522E+05 -0.8433156E-01  0.5948775E+06  0.1660189E+01
  0.1350000E+01  0.1877347E+06 -0.1472400E+01  0.1620321E+05 -0.9113220E-01  0.5981927E+06  0.1669079E+01
  0.1380952E+01  0.1911509E+06 -0.1462996E+01  0.1481283E+05 -0.9832212E-01  0.6004751E+06  0.1678452E+01
  0.1411905E+01  0.1939193E+06 -0.1453067E+01  0.1352236E+05 -0.1057327E+00  0.6011260E+06  0.1688372E+01
  0.1442857E+01  0.1964799E+06 -0.1442807E+01  0.1231487E+05 -0.1138185E+00  0.6000398E+06  0.1698573E+01
  0.1473810E+01  0.1987977E+06 -0.1432034E+01  0.1119380E+05 -0.1223284E+00  0.5981023E+06  0.1709318E+01
  0.1504762E+01  0.2007955E+06 -0.1420867E+01  0.1014927E+05 -0.1317482E+00  0.5949166E+06  0.1720436E+01
  0.1535714E+01  0.2024101E+06 -0.1409381E+01  0.9185521E+04 -0.1417042E+00  0.5901978E+06  0.1731851E+01
  0.1566667E+01  0.2037696E+06 -0.1397530E+01  0.8296675E+04 -0.1510770E+00  0.5845732E+06  0.1743627E+01
  0.1597619E+01  0.2048206E+06 -0.1385346E+01  0.7477574E+04 -0.1612988E+00  0.5781021E+06  0.1755738E+01
  0.1628572E+01  0.2053673E+06 -0.1372982E+01  0.6733106E+04 -0.1710251E+00  0.5702462E+06  0.1768097E+01
  0.1659524E+01  0.2054177E+06 -0.1360775E+01  0.6046918E+04 -0.1819653E+00  0.5605461E+06  0.1780111E+01
  0.1690476E+01  0.2051647E+06 -0.1348399E+01  0.5421937E+04 -0.1927460E+00  0.5501768E+06  0.1792392E+01
  0.1721429E+01  0.2046375E+06 -0.1335916E+01  0.4849362E+04 -0.2048486E+00  0.5392886E+06  0.1804809E+01
  0.1752381E+01  0.2036261E+06 -0.1323758E+01  0.4326845E+04 -0.2179779E+00  0.5268602E+06  0.1816756E+01
  0.1783333E+01  0.2023605E+06 -0.1311644E+01  0.3853593E+04 -0.2307845E+00  0.5139740E+06  0.1828731E+01
  0.1814286E+01  0.2008172E+06 -0.1299745E+01  0.3420438E+04 -0.2448236E+00  0.5005583E+06  0.1840375E+01
  0.1845238E+01  0.1989856E+06 -0.1288002E+01  0.3031698E+04 -0.2589232E+00  0.4869097E+06  0.1852019E+01
  0.1876190E+01  0.1967059E+06 -0.1276780E+01  0.2686173E+04 -0.2697253E+00  0.4724461E+06  0.1863260E+01
  0.1907143E+01  0.1940700E+06 -0.1266473E+01  0.2372422E+04 -0.2831753E+00  0.4570351E+06  0.1873107E+01
  0.1938095E+01  0.1911971E+06 -0.1256735E+01  0.2090380E+04 -0.2962901E+00  0.4414139E+06  0.1882495E+01
  0.1969048E+01  0.1881267E+06 -0.1247386E+01  0.1838381E+04 -0.3101520E+00  0.4259697E+06  0.1891748E+01
  0.2000000E+01  0.1848856E+06 -0.1238756E+01  0.1611533E+04 -0.3277216E+00  0.4105144E+06  0.1900247E+01
