VARIABLES="w (rad/s)"
"abs(F   1   1)" "angle(F   1   1)"
"abs(F   1   2)" "angle(F   1   2)"
"abs(F   1   3)" "angle(F   1   3)"
Zone t="Diffraction force - beta =   0.000 deg",I=    64,F=POINT
  0.5000000E-01  0.1885636E+04 -0.1570797E+01  0.5017161E+06 -0.3353523E-04  0.2383415E+04 -0.1570812E+01
  0.8095238E-01  0.3075185E+04 -0.1570798E+01  0.5008818E+06 -0.9022762E-04  0.3881675E+04 -0.1570798E+01
  0.1119048E+00  0.4292700E+04 -0.1570789E+01  0.4996577E+06 -0.1792129E-03  0.5420382E+04 -0.1570798E+01
  0.1428571E+00  0.5548981E+04 -0.1570796E+01  0.4980410E+06 -0.3073018E-03  0.7013520E+04 -0.1570794E+01
  0.1738095E+00  0.6859502E+04 -0.1570798E+01  0.4960261E+06 -0.4849768E-03  0.8678443E+04 -0.1570792E+01
  0.2047619E+00  0.8236400E+04 -0.1570786E+01  0.4936073E+06 -0.7270573E-03  0.1043437E+05 -0.1570790E+01
  0.2357143E+00  0.9703222E+04 -0.1570783E+01  0.4907830E+06 -0.1055774E-02  0.1230962E+05 -0.1570783E+01
  0.2666667E+00  0.1127580E+05 -0.1570775E+01  0.4875288E+06 -0.1498211E-02  0.1433138E+05 -0.1570778E+01
  0.2976190E+00  0.1297750E+05 -0.1570761E+01  0.4838568E+06 -0.2099657E-02  0.1652638E+05 -0.1570763E+01
  0.3285715E+00  0.1483799E+05 -0.1570743E+01  0.4797587E+06 -0.2907253E-02  0.1893388E+05 -0.1570745E+01
  0.3595238E+00  0.1688525E+05 -0.1570723E+01  0.4752171E+06 -0.3993778E-02  0.2159704E+05 -0.1570723E+01
  0.3904762E+00  0.1913404E+05 -0.1570686E+01  0.4702394E+06 -0.5443423E-02  0.2453606E+05 -0.1570684E+01
  0.4214286E+00  0.2162295E+05 -0.1570630E+01  0.4649088E+06 -0.7307525E-02  0.2780561E+05 -0.1570631E+01
  0.4523810E+00  0.2435879E+05 -0.1570554E+01  0.4591740E+06 -0.9728686E-02  0.3140729E+05 -0.1570552E+01
  0.4833333E+00  0.2734370E+05 -0.1570443E+01  0.4530805E+06 -0.1264635E-01  0.3537529E+05 -0.1570444E+01
  0.5142857E+00  0.3055826E+05 -0.1570294E+01  0.4467115E+06 -0.1622434E-01  0.3966714E+05 -0.1570295E+01
  0.5452381E+00  0.3400884E+05 -0.1570097E+01  0.4400838E+06 -0.2041404E-01  0.4430845E+05 -0.1570096E+01
  0.5761905E+00  0.3765961E+05 -0.1569837E+01  0.4331941E+06 -0.2522711E-01  0.4923571E+05 -0.1569840E+01
  0.6071429E+00  0.4147269E+05 -0.1569509E+01  0.4260724E+06 -0.3079494E-01  0.5440742E+05 -0.1569509E+01
  0.6380953E+00  0.4544713E+05 -0.1569102E+01  0.4187124E+06 -0.3699661E-01  0.5986088E+05 -0.1569102E+01
  0.6690477E+00  0.4957942E+05 -0.1568602E+01  0.4112162E+06 -0.4396679E-01  0.6558705E+05 -0.1568603E+01
  0.7000000E+00  0.5383705E+05 -0.1567992E+01  0.4036126E+06 -0.5178202E-01  0.7151611E+05 -0.1567992E+01
  0.7309524E+00  0.5820664E+05 -0.1567265E+01  0.3958133E+06 -0.6037400E-01  0.7763932E+05 -0.1567267E+01
  0.7619048E+00  0.6267193E+05 -0.1566407E+01  0.3878796E+06 -0.6982227E-01  0.8396168E+05 -0.1566407E+01
  0.7928572E+00  0.6721103E+05 -0.1565402E+01  0.3798981E+06 -0.8018057E-01  0.9044995E+05 -0.1565403E+01
  0.8238096E+00  0.7183922E+05 -0.1564245E+01  0.3718907E+06 -0.9146911E-01  0.9715095E+05 -0.1564247E+01
  0.8547620E+00  0.7653395E+05 -0.1562923E+01  0.3638686E+06 -0.1037021E+00  0.1040207E+06 -0.1562925E+01
  0.8857143E+00  0.8127391E+05 -0.1561431E+01  0.3558393E+06 -0.1168818E+00  0.1110126E+06 -0.1561434E+01
  0.9166667E+00  0.8602433E+05 -0.1559762E+01  0.3478010E+06 -0.1310198E+00  0.1180727E+06 -0.1559763E+01
  0.9476191E+00  0.9077554E+05 -0.1557917E+01  0.3397788E+06 -0.1461294E+00  0.1252162E+06 -0.1557918E+01
  0.9785714E+00  0.9550680E+05 -0.1555903E+01  0.3318074E+06 -0.1622309E+00  0.1324355E+06 -0.1555906E+01
  0.1009524E+01  0.1002096E+06 -0.1553736E+01  0.3239163E+06 -0.1793411E+00  0.1397151E+06 -0.1553741E+01
  0.1040476E+01  0.1048619E+06 -0.1551430E+01  0.3161440E+06 -0.1974782E+00  0.1470041E+06 -0.1551440E+01
  0.1071429E+01  0.1094277E+06 -0.1549009E+01  0.3085066E+06 -0.2166407E+00  0.1542693E+06 -0.1549023E+01
  0.1102381E+01  0.1139005E+06 -0.1546505E+01  0.3009672E+06 -0.2367943E+00  0.1614709E+06 -0.1546520E+01
  0.1133333E+01  0.1182368E+06 -0.1543951E+01  0.2935267E+06 -0.2579176E+00  0.1685656E+06 -0.1543965E+01
  0.1164286E+01  0.1224121E+06 -0.1541396E+01  0.2861705E+06 -0.2800105E+00  0.1755050E+06 -0.1541408E+01
  0.1195238E+01  0.1263984E+06 -0.1538899E+01  0.2789322E+06 -0.3030823E+00  0.1822487E+06 -0.1538906E+01
  0.1226190E+01  0.1301644E+06 -0.1536527E+01  0.2718290E+06 -0.3271634E+00  0.1887655E+06 -0.1536530E+01
  0.1257143E+01  0.1336997E+06 -0.1534325E+01  0.2648611E+06 -0.3525066E+00  0.1950183E+06 -0.1534326E+01
  0.1288095E+01  0.1369894E+06 -0.1532493E+01  0.2580736E+06 -0.3783380E+00  0.2010077E+06 -0.1532492E+01
  0.1319048E+01  0.1400068E+06 -0.1531001E+01  0.2514272E+06 -0.4054100E+00  0.2066644E+06 -0.1530997E+01
  0.1350000E+01  0.1427320E+06 -0.1529988E+01  0.2449549E+06 -0.4334583E+00  0.2119558E+06 -0.1529981E+01
  0.1380952E+01  0.1451593E+06 -0.1529557E+01  0.2386167E+06 -0.4624068E+00  0.2168554E+06 -0.1529546E+01
  0.1411905E+01  0.1472197E+06 -0.1529908E+01  0.2340358E+06 -0.4843821E+00  0.2212585E+06 -0.1529892E+01
  0.1442857E+01  0.1490795E+06 -0.1530761E+01  0.2280082E+06 -0.5147554E+00  0.2254402E+06 -0.1530743E+01
  0.1473810E+01  0.1506160E+06 -0.1532474E+01  0.2221202E+06 -0.5460412E+00  0.2291778E+06 -0.1532455E+01
  0.1504762E+01  0.1518224E+06 -0.1535133E+01  0.2163755E+06 -0.5782406E+00  0.2324517E+06 -0.1535112E+01
  0.1535714E+01  0.1527073E+06 -0.1538848E+01  0.2107682E+06 -0.6113417E+00  0.2352558E+06 -0.1538824E+01
  0.1566667E+01  0.1532749E+06 -0.1543715E+01  0.2053303E+06 -0.6453691E+00  0.2376054E+06 -0.1543688E+01
  0.1597619E+01  0.1535397E+06 -0.1549815E+01  0.2000390E+06 -0.6803221E+00  0.2394948E+06 -0.1549788E+01
  0.1628572E+01  0.1535066E+06 -0.1557223E+01  0.1949081E+06 -0.7162033E+00  0.2409384E+06 -0.1557197E+01
  0.1659524E+01  0.1531964E+06 -0.1566013E+01  0.1899132E+06 -0.7529778E+00  0.2419440E+06 -0.1565990E+01
  0.1690476E+01  0.1526280E+06 -0.1576260E+01  0.1850662E+06 -0.7906583E+00  0.2425491E+06 -0.1576238E+01
  0.1721429E+01  0.1518160E+06 -0.1587995E+01  0.1803522E+06 -0.8291989E+00  0.2427573E+06 -0.1587975E+01
  0.1752381E+01  0.1507779E+06 -0.1601262E+01  0.1757552E+06 -0.8685633E+00  0.2425851E+06 -0.1601246E+01
  0.1783333E+01  0.1495334E+06 -0.1616095E+01  0.1712624E+06 -0.9087017E+00  0.2420580E+06 -0.1616086E+01
  0.1814286E+01  0.1481050E+06 -0.1632536E+01  0.1668910E+06 -0.9496704E+00  0.2412220E+06 -0.1632527E+01
  0.1845238E+01  0.1465171E+06 -0.1650587E+01  0.1626386E+06 -0.9915396E+00  0.2400901E+06 -0.1650590E+01
  0.1876190E+01  0.1447819E+06 -0.1670255E+01  0.1585077E+06 -0.1034253E+01  0.2386825E+06 -0.1670271E+01
  0.1907143E+01  0.1429249E+06 -0.1691555E+01  0.1545042E+06 -0.1077899E+01  0.2370381E+06 -0.1691596E+01
  0.1938095E+01  0.1409620E+06 -0.1714510E+01  0.1506097E+06 -0.1122431E+01  0.2351907E+06 -0.1714570E+01
  0.1969048E+01  0.1389058E+06 -0.1739094E+01  0.1468250E+06 -0.1167785E+01  0.2331512E+06 -0.1739166E+01
  0.2000000E+01  0.1367774E+06 -0.1765245E+01  0.1431557E+06 -0.1213944E+01  0.2309274E+06 -0.1765368E+01
