VARIABLES="w (rad/s)"
"abs(F   1   1)" "angle(F   1   1)"
"abs(F   1   2)" "angle(F   1   2)"
"abs(F   1   3)" "angle(F   1   3)"
Zone t="Diffraction force - beta =   0.000 deg",I=    64,F=POINT
  0.5000000E-01  0.1420722E+03 -0.1570796E+01  0.1132030E+02 -0.3111597E+01  0.1338056E+03  0.1570796E+01
  0.8095238E-01  0.2324815E+03 -0.1570796E+01  0.2955376E+02 -0.3110683E+01  0.2191841E+03  0.1570797E+01
  0.1119048E+00  0.3254866E+03 -0.1570796E+01  0.5638322E+02 -0.3109422E+01  0.3070930E+03  0.1570797E+01
  0.1428571E+00  0.4224185E+03 -0.1570795E+01  0.9187520E+02 -0.3107737E+01  0.3977940E+03  0.1570798E+01
  0.1738095E+00  0.5223216E+03 -0.1570794E+01  0.1362292E+03 -0.3105564E+01  0.4916902E+03  0.1570798E+01
  0.2047619E+00  0.6282164E+03 -0.1570793E+01  0.1895564E+03 -0.3102782E+01  0.5904687E+03  0.1570800E+01
  0.2357143E+00  0.7414573E+03 -0.1570791E+01  0.2521633E+03 -0.3099235E+01  0.6955842E+03  0.1570802E+01
  0.2666667E+00  0.8614380E+03 -0.1570788E+01  0.3245014E+03 -0.3094885E+01  0.8074207E+03  0.1570804E+01
  0.2976190E+00  0.9934787E+03 -0.1570783E+01  0.4064913E+03 -0.3089342E+01  0.9292708E+03  0.1570808E+01
  0.3285715E+00  0.1136927E+04 -0.1570777E+01  0.4986514E+03 -0.3082608E+01  0.1061947E+04  0.1570814E+01
  0.3595238E+00  0.1294622E+04 -0.1570767E+01  0.6015885E+03 -0.3074414E+01  0.1207250E+04  0.1570823E+01
  0.3904762E+00  0.1469590E+04 -0.1570752E+01  0.7150208E+03 -0.3064546E+01  0.1366813E+04  0.1570837E+01
  0.4214286E+00  0.1664174E+04 -0.1570730E+01  0.8381422E+03 -0.3053287E+01  0.1544185E+04  0.1570856E+01
  0.4523810E+00  0.1876145E+04 -0.1570698E+01  0.9723531E+03 -0.3040201E+01  0.1738011E+04  0.1570886E+01
  0.4833333E+00  0.2109288E+04 -0.1570652E+01  0.1116806E+04 -0.3026728E+01  0.1948167E+04  0.1570926E+01
  0.5142857E+00  0.2365836E+04 -0.1570589E+01  0.1269990E+04 -0.3011896E+01  0.2177249E+04  0.1570984E+01
  0.5452381E+00  0.2639301E+04 -0.1570504E+01  0.1432030E+04 -0.2996729E+01  0.2421527E+04  0.1571061E+01
  0.5761905E+00  0.2930518E+04 -0.1570392E+01  0.1603894E+04 -0.2981590E+01  0.2679133E+04  0.1571162E+01
  0.6071429E+00  0.3230410E+04 -0.1570246E+01  0.1784590E+04 -0.2965863E+01  0.2948327E+04  0.1571294E+01
  0.6380953E+00  0.3551634E+04 -0.1570061E+01  0.1974253E+04 -0.2950521E+01  0.3229603E+04  0.1571460E+01
  0.6690477E+00  0.3893383E+04 -0.1569831E+01  0.2171768E+04 -0.2934939E+01  0.3523475E+04  0.1571669E+01
  0.7000000E+00  0.4240734E+04 -0.1569542E+01  0.2376669E+04 -0.2918957E+01  0.3824164E+04  0.1571929E+01
  0.7309524E+00  0.4598518E+04 -0.1569189E+01  0.2591828E+04 -0.2903283E+01  0.4134855E+04  0.1572246E+01
  0.7619048E+00  0.4968285E+04 -0.1568759E+01  0.2815193E+04 -0.2887535E+01  0.4450519E+04  0.1572632E+01
  0.7928572E+00  0.5354912E+04 -0.1568243E+01  0.3045089E+04 -0.2871569E+01  0.4776722E+04  0.1573096E+01
  0.8238096E+00  0.5752229E+04 -0.1567627E+01  0.3280698E+04 -0.2855393E+01  0.5106626E+04  0.1573650E+01
  0.8547620E+00  0.6162287E+04 -0.1566898E+01  0.3522552E+04 -0.2839166E+01  0.5443905E+04  0.1574304E+01
  0.8857143E+00  0.6587213E+04 -0.1566043E+01  0.3772119E+04 -0.2823081E+01  0.5787809E+04  0.1575073E+01
  0.9166667E+00  0.7012556E+04 -0.1565040E+01  0.4028216E+04 -0.2807072E+01  0.6137042E+04  0.1575969E+01
  0.9476191E+00  0.7438602E+04 -0.1563873E+01  0.4289210E+04 -0.2791034E+01  0.6484362E+04  0.1577009E+01
  0.9785714E+00  0.7882682E+04 -0.1562532E+01  0.4555175E+04 -0.2775043E+01  0.6837401E+04  0.1578205E+01
  0.1009524E+01  0.8344447E+04 -0.1561003E+01  0.4824741E+04 -0.2759037E+01  0.7191768E+04  0.1579575E+01
  0.1040476E+01  0.8819332E+04 -0.1559264E+01  0.5097626E+04 -0.2743074E+01  0.7555554E+04  0.1581129E+01
  0.1071429E+01  0.9292670E+04 -0.1557286E+01  0.5372438E+04 -0.2727064E+01  0.7914733E+04  0.1582893E+01
  0.1102381E+01  0.9773943E+04 -0.1555054E+01  0.5651462E+04 -0.2711311E+01  0.8276880E+04  0.1584878E+01
  0.1133333E+01  0.1025924E+05 -0.1552547E+01  0.5933653E+04 -0.2695765E+01  0.8636696E+04  0.1587106E+01
  0.1164286E+01  0.1074909E+05 -0.1549744E+01  0.6219331E+04 -0.2680501E+01  0.8994727E+04  0.1589592E+01
  0.1195238E+01  0.1124646E+05 -0.1546629E+01  0.6506989E+04 -0.2665437E+01  0.9356801E+04  0.1592346E+01
  0.1226190E+01  0.1174457E+05 -0.1543175E+01  0.6794955E+04 -0.2650423E+01  0.9709781E+04  0.1595399E+01
  0.1257143E+01  0.1223859E+05 -0.1539360E+01  0.7081750E+04 -0.2634937E+01  0.1005172E+05  0.1598767E+01
  0.1288095E+01  0.1276872E+05 -0.1535205E+01  0.7369826E+04 -0.2620678E+01  0.1041092E+05  0.1602444E+01
  0.1319048E+01  0.1328317E+05 -0.1530635E+01  0.7655469E+04 -0.2605919E+01  0.1074845E+05  0.1606482E+01
  0.1350000E+01  0.1380846E+05 -0.1525667E+01  0.7941377E+04 -0.2591512E+01  0.1108689E+05  0.1610868E+01
  0.1380952E+01  0.1433501E+05 -0.1520269E+01  0.8227299E+04 -0.2577490E+01  0.1142515E+05  0.1615615E+01
  0.1411905E+01  0.1474514E+05 -0.1514597E+01  0.8477597E+04 -0.2563151E+01  0.1172279E+05  0.1620448E+01
  0.1442857E+01  0.1524007E+05 -0.1508247E+01  0.8758661E+04 -0.2549447E+01  0.1202799E+05  0.1625975E+01
  0.1473810E+01  0.1573469E+05 -0.1501415E+01  0.9039532E+04 -0.2536197E+01  0.1233383E+05  0.1631888E+01
  0.1504762E+01  0.1622262E+05 -0.1494089E+01  0.9317633E+04 -0.2523112E+01  0.1262221E+05  0.1638224E+01
  0.1535714E+01  0.1671056E+05 -0.1486284E+01  0.9593315E+04 -0.2510269E+01  0.1289458E+05  0.1644985E+01
  0.1566667E+01  0.1720058E+05 -0.1478007E+01  0.9864812E+04 -0.2497576E+01  0.1315831E+05  0.1652151E+01
  0.1597619E+01  0.1768453E+05 -0.1469225E+01  0.1013262E+05 -0.2485104E+01  0.1341510E+05  0.1659728E+01
  0.1628572E+01  0.1815201E+05 -0.1459902E+01  0.1039568E+05 -0.2472739E+01  0.1365357E+05  0.1667747E+01
  0.1659524E+01  0.1859581E+05 -0.1450017E+01  0.1065273E+05 -0.2460401E+01  0.1386528E+05  0.1676226E+01
  0.1690476E+01  0.1903106E+05 -0.1439621E+01  0.1090679E+05 -0.2448482E+01  0.1407031E+05  0.1685096E+01
  0.1721429E+01  0.1945215E+05 -0.1428714E+01  0.1115608E+05 -0.2436870E+01  0.1426091E+05  0.1694352E+01
  0.1752381E+01  0.1984146E+05 -0.1417247E+01  0.1140015E+05 -0.2425471E+01  0.1441421E+05  0.1704059E+01
  0.1783333E+01  0.2021595E+05 -0.1405302E+01  0.1164109E+05 -0.2414619E+01  0.1455279E+05  0.1714117E+01
  0.1814286E+01  0.2056562E+05 -0.1392858E+01  0.1187662E+05 -0.2404053E+01  0.1467409E+05  0.1724494E+01
  0.1845238E+01  0.2088013E+05 -0.1379858E+01  0.1210741E+05 -0.2393798E+01  0.1477594E+05  0.1735206E+01
  0.1876190E+01  0.2115866E+05 -0.1366358E+01  0.1233276E+05 -0.2383739E+01  0.1484840E+05  0.1746251E+01
  0.1907143E+01  0.2139721E+05 -0.1352397E+01  0.1255070E+05 -0.2373714E+01  0.1488065E+05  0.1757611E+01
  0.1938095E+01  0.2161191E+05 -0.1338074E+01  0.1276417E+05 -0.2364077E+01  0.1489502E+05  0.1769194E+01
  0.1969048E+01  0.2179898E+05 -0.1323409E+01  0.1297106E+05 -0.2354640E+01  0.1489471E+05  0.1780936E+01
  0.2000000E+01  0.2194811E+05 -0.1308421E+01  0.1317074E+05 -0.2345347E+01  0.1486139E+05  0.1792848E+01
