VARIABLES="w (rad/s)"
"abs(F   1   1)" "angle(F   1   1)"
"abs(F   1   2)" "angle(F   1   2)"
"abs(F   1   3)" "angle(F   1   3)"
Zone t="Diffraction force - beta =   0.000 deg",I=    64,F=POINT
  0.5000000E-01  0.2948792E+03 -0.1570720E+01  0.8028623E+05 -0.5487691E-05  0.1646416E+03  0.1570722E+01
  0.8095238E-01  0.4813260E+03 -0.1570811E+01  0.8021863E+05 -0.1477714E-04  0.2688133E+03  0.1570838E+01
  0.1119048E+00  0.6727103E+03 -0.1570780E+01  0.8011908E+05 -0.2938306E-04  0.3759136E+03  0.1570772E+01
  0.1428571E+00  0.8714446E+03 -0.1570800E+01  0.7998755E+05 -0.5047306E-04  0.4863071E+03  0.1570777E+01
  0.1738095E+00  0.1077525E+04 -0.1570805E+01  0.7982377E+05 -0.7982372E-04  0.6010165E+03  0.1570790E+01
  0.2047619E+00  0.1296080E+04 -0.1570796E+01  0.7962781E+05 -0.1199656E-03  0.7214064E+03  0.1570804E+01
  0.2357143E+00  0.1527810E+04 -0.1570790E+01  0.7939910E+05 -0.1747120E-03  0.8495402E+03  0.1570807E+01
  0.2666667E+00  0.1777234E+04 -0.1570803E+01  0.7913724E+05 -0.2488120E-03  0.9864468E+03  0.1570805E+01
  0.2976190E+00  0.2049301E+04 -0.1570794E+01  0.7884256E+05 -0.3500488E-03  0.1134431E+04  0.1570801E+01
  0.3285715E+00  0.2346354E+04 -0.1570785E+01  0.7851418E+05 -0.4869057E-03  0.1296083E+04  0.1570805E+01
  0.3595238E+00  0.2671873E+04 -0.1570780E+01  0.7815217E+05 -0.6722593E-03  0.1473341E+04  0.1570807E+01
  0.3904762E+00  0.3034826E+04 -0.1570776E+01  0.7775711E+05 -0.9212522E-03  0.1667861E+04  0.1570816E+01
  0.4214286E+00  0.3438383E+04 -0.1570771E+01  0.7732946E+05 -0.1244617E-02  0.1882223E+04  0.1570826E+01
  0.4523810E+00  0.3877660E+04 -0.1570751E+01  0.7686895E+05 -0.1667795E-02  0.2118802E+04  0.1570833E+01
  0.4833333E+00  0.4360561E+04 -0.1570736E+01  0.7637773E+05 -0.2184073E-02  0.2375282E+04  0.1570857E+01
  0.5142857E+00  0.4889150E+04 -0.1570710E+01  0.7585719E+05 -0.2823095E-02  0.2651183E+04  0.1570879E+01
  0.5452381E+00  0.5458684E+04 -0.1570672E+01  0.7530676E+05 -0.3580556E-02  0.2945968E+04  0.1570917E+01
  0.5761905E+00  0.6055386E+04 -0.1570625E+01  0.7472752E+05 -0.4462434E-02  0.3257993E+04  0.1570967E+01
  0.6071429E+00  0.6688691E+04 -0.1570561E+01  0.7412057E+05 -0.5495534E-02  0.3583158E+04  0.1571029E+01
  0.6380953E+00  0.7359162E+04 -0.1570481E+01  0.7348676E+05 -0.6664074E-02  0.3922343E+04  0.1571108E+01
  0.6690477E+00  0.8056148E+04 -0.1570383E+01  0.7282861E+05 -0.7995945E-02  0.4272922E+04  0.1571212E+01
  0.7000000E+00  0.8780030E+04 -0.1570259E+01  0.7214441E+05 -0.9509613E-02  0.4634005E+04  0.1571332E+01
  0.7309524E+00  0.9527602E+04 -0.1570108E+01  0.7143341E+05 -0.1120231E-01  0.5005452E+04  0.1571486E+01
  0.7619048E+00  0.1029831E+05 -0.1569925E+01  0.7070046E+05 -0.1309558E-01  0.5381954E+04  0.1571668E+01
  0.7928572E+00  0.1110116E+05 -0.1569702E+01  0.6994695E+05 -0.1520315E-01  0.5767355E+04  0.1571892E+01
  0.8238096E+00  0.1193042E+05 -0.1569437E+01  0.6917420E+05 -0.1753559E-01  0.6157991E+04  0.1572155E+01
  0.8547620E+00  0.1278227E+05 -0.1569122E+01  0.6838157E+05 -0.2010187E-01  0.6558054E+04  0.1572470E+01
  0.8857143E+00  0.1364704E+05 -0.1568752E+01  0.6757030E+05 -0.2291487E-01  0.6959032E+04  0.1572838E+01
  0.9166667E+00  0.1453094E+05 -0.1568321E+01  0.6674052E+05 -0.2598471E-01  0.7366255E+04  0.1573272E+01
  0.9476191E+00  0.1543787E+05 -0.1567820E+01  0.6589569E+05 -0.2932346E-01  0.7771605E+04  0.1573774E+01
  0.9785714E+00  0.1637002E+05 -0.1567242E+01  0.6503879E+05 -0.3294086E-01  0.8181521E+04  0.1574349E+01
  0.1009524E+01  0.1731795E+05 -0.1566578E+01  0.6417199E+05 -0.3684747E-01  0.8590078E+04  0.1575014E+01
  0.1040476E+01  0.1828738E+05 -0.1565823E+01  0.6329455E+05 -0.4104924E-01  0.9002600E+04  0.1575771E+01
  0.1071429E+01  0.1927008E+05 -0.1564966E+01  0.6240744E+05 -0.4555497E-01  0.9410814E+04  0.1576627E+01
  0.1102381E+01  0.2026898E+05 -0.1563998E+01  0.6150954E+05 -0.5037023E-01  0.9818276E+04  0.1577597E+01
  0.1133333E+01  0.2127458E+05 -0.1562911E+01  0.6060383E+05 -0.5550428E-01  0.1022686E+05  0.1578683E+01
  0.1164286E+01  0.2228461E+05 -0.1561695E+01  0.5969280E+05 -0.6096938E-01  0.1062521E+05  0.1579897E+01
  0.1195238E+01  0.2331210E+05 -0.1560345E+01  0.5877666E+05 -0.6676917E-01  0.1102034E+05  0.1581248E+01
  0.1226190E+01  0.2435322E+05 -0.1558850E+01  0.5785923E+05 -0.7291340E-01  0.1140683E+05  0.1582743E+01
  0.1257143E+01  0.2540132E+05 -0.1557203E+01  0.5694280E+05 -0.7947351E-01  0.1178358E+05  0.1584391E+01
  0.1288095E+01  0.2647721E+05 -0.1555393E+01  0.5602270E+05 -0.8624607E-01  0.1216144E+05  0.1586203E+01
  0.1319048E+01  0.2754422E+05 -0.1553413E+01  0.5510621E+05 -0.9344481E-01  0.1253008E+05  0.1588186E+01
  0.1350000E+01  0.2860793E+05 -0.1551255E+01  0.5419180E+05 -0.1010011E+00  0.1288226E+05  0.1590344E+01
  0.1380952E+01  0.2967715E+05 -0.1548910E+01  0.5327458E+05 -0.1089066E+00  0.1323009E+05  0.1592689E+01
  0.1411905E+01  0.3062876E+05 -0.1546620E+01  0.5241095E+05 -0.1165555E+00  0.1355269E+05  0.1594977E+01
  0.1442857E+01  0.3168164E+05 -0.1543920E+01  0.5150091E+05 -0.1251552E+00  0.1387032E+05  0.1597675E+01
  0.1473810E+01  0.3273385E+05 -0.1541029E+01  0.5059545E+05 -0.1341291E+00  0.1417263E+05  0.1600563E+01
  0.1504762E+01  0.3377980E+05 -0.1537942E+01  0.4969621E+05 -0.1434848E+00  0.1446301E+05  0.1603649E+01
  0.1535714E+01  0.3481514E+05 -0.1534661E+01  0.4880605E+05 -0.1532311E+00  0.1473301E+05  0.1606932E+01
  0.1566667E+01  0.3584107E+05 -0.1531186E+01  0.4792475E+05 -0.1633618E+00  0.1498331E+05  0.1610413E+01
  0.1597619E+01  0.3686061E+05 -0.1527519E+01  0.4705097E+05 -0.1738693E+00  0.1522345E+05  0.1614089E+01
  0.1628572E+01  0.3786138E+05 -0.1523664E+01  0.4618755E+05 -0.1847648E+00  0.1544153E+05  0.1617954E+01
  0.1659524E+01  0.3884262E+05 -0.1519628E+01  0.4533296E+05 -0.1960389E+00  0.1563736E+05  0.1622000E+01
  0.1690476E+01  0.3980389E+05 -0.1515422E+01  0.4448596E+05 -0.2076814E+00  0.1581359E+05  0.1626211E+01
  0.1721429E+01  0.4074058E+05 -0.1511054E+01  0.4364677E+05 -0.2196951E+00  0.1597328E+05  0.1630580E+01
  0.1752381E+01  0.4163883E+05 -0.1506526E+01  0.4281681E+05 -0.2321039E+00  0.1611082E+05  0.1635104E+01
  0.1783333E+01  0.4249580E+05 -0.1501865E+01  0.4199855E+05 -0.2448996E+00  0.1621715E+05  0.1639743E+01
  0.1814286E+01  0.4331845E+05 -0.1497091E+01  0.4118850E+05 -0.2580870E+00  0.1630177E+05  0.1644492E+01
  0.1845238E+01  0.4410838E+05 -0.1492234E+01  0.4038753E+05 -0.2716654E+00  0.1636596E+05  0.1649323E+01
  0.1876190E+01  0.4485803E+05 -0.1487327E+01  0.3959819E+05 -0.2856458E+00  0.1640024E+05  0.1654203E+01
  0.1907143E+01  0.4556266E+05 -0.1482396E+01  0.3882291E+05 -0.3000357E+00  0.1640491E+05  0.1659112E+01
  0.1938095E+01  0.4622951E+05 -0.1477475E+01  0.3805747E+05 -0.3148124E+00  0.1638643E+05  0.1664015E+01
  0.1969048E+01  0.4685383E+05 -0.1472595E+01  0.3730545E+05 -0.3299706E+00  0.1634579E+05  0.1668878E+01
  0.2000000E+01  0.4742591E+05 -0.1467763E+01  0.3656632E+05 -0.3455327E+00  0.1628507E+05  0.1673698E+01
