VARIABLES="w (rad/s)"
"abs(F   1   1)" "angle(F   1   1)"
"abs(F   1   2)" "angle(F   1   2)"
"abs(F   1   3)" "angle(F   1   3)"
Zone t="Diffraction force - beta =   0.000 deg",I=    64,F=POINT
  0.5000000E-01  0.1841361E+03 -0.1570796E+01  0.4975219E+02 -0.3110278E+01  0.1952607E+01 -0.1570796E+01
  0.8095238E-01  0.3006156E+03 -0.1570795E+01  0.1295990E+03 -0.3109268E+01  0.3179765E+01 -0.1570796E+01
  0.1119048E+00  0.4209396E+03 -0.1570794E+01  0.2470991E+03 -0.3107950E+01  0.4466866E+01 -0.1570794E+01
  0.1428571E+00  0.5453821E+03 -0.1570793E+01  0.4023764E+03 -0.3106200E+01  0.5716970E+01 -0.1570793E+01
  0.1738095E+00  0.6747029E+03 -0.1570791E+01  0.5959278E+03 -0.3103929E+01  0.7169939E+01 -0.1570789E+01
  0.2047619E+00  0.8107215E+03 -0.1570788E+01  0.8287169E+03 -0.3101053E+01  0.8544081E+01 -0.1570786E+01
  0.2357143E+00  0.9585526E+03 -0.1570784E+01  0.1101519E+04 -0.3097385E+01  0.1020722E+02 -0.1570780E+01
  0.2666667E+00  0.1112698E+04 -0.1570777E+01  0.1415410E+04 -0.3092868E+01  0.1189178E+02 -0.1570773E+01
  0.2976190E+00  0.1283972E+04 -0.1570768E+01  0.1771811E+04 -0.3087168E+01  0.1370929E+02 -0.1570760E+01
  0.3285715E+00  0.1472941E+04 -0.1570753E+01  0.2171098E+04 -0.3080241E+01  0.1587662E+02 -0.1570742E+01
  0.3595238E+00  0.1678507E+04 -0.1570731E+01  0.2614240E+04 -0.3071779E+01  0.1827407E+02 -0.1570714E+01
  0.3904762E+00  0.1902601E+04 -0.1570699E+01  0.3102138E+04 -0.3061636E+01  0.2064792E+02 -0.1570672E+01
  0.4214286E+00  0.2160253E+04 -0.1570651E+01  0.3631262E+04 -0.3050149E+01  0.2368609E+02 -0.1570612E+01
  0.4523810E+00  0.2442660E+04 -0.1570580E+01  0.4202547E+04 -0.3036729E+01  0.2711500E+02 -0.1570523E+01
  0.4833333E+00  0.2743605E+04 -0.1570480E+01  0.4811541E+04 -0.3022901E+01  0.3080709E+02 -0.1570398E+01
  0.5142857E+00  0.3077142E+04 -0.1570341E+01  0.5457358E+04 -0.3007806E+01  0.3472939E+02 -0.1570223E+01
  0.5452381E+00  0.3442641E+04 -0.1570155E+01  0.6136365E+04 -0.2992425E+01  0.3971096E+02 -0.1569995E+01
  0.5761905E+00  0.3830831E+04 -0.1569909E+01  0.6848207E+04 -0.2977046E+01  0.4497864E+02 -0.1569697E+01
  0.6071429E+00  0.4224092E+04 -0.1569586E+01  0.7589561E+04 -0.2961065E+01  0.4913596E+02 -0.1569277E+01
  0.6380953E+00  0.4644330E+04 -0.1569180E+01  0.8364912E+04 -0.2945665E+01  0.5488245E+02 -0.1568777E+01
  0.6690477E+00  0.5098971E+04 -0.1568672E+01  0.9167521E+04 -0.2930118E+01  0.6122388E+02 -0.1568161E+01
  0.7000000E+00  0.5573404E+04 -0.1568042E+01  0.9991982E+04 -0.2914193E+01  0.6797573E+02 -0.1567398E+01
  0.7309524E+00  0.6056823E+04 -0.1567268E+01  0.1084375E+05 -0.2898524E+01  0.7501611E+02 -0.1566463E+01
  0.7619048E+00  0.6545104E+04 -0.1566321E+01  0.1172062E+05 -0.2882895E+01  0.8121522E+02 -0.1565270E+01
  0.7928572E+00  0.7055637E+04 -0.1565183E+01  0.1261660E+05 -0.2867185E+01  0.8816476E+02 -0.1563855E+01
  0.8238096E+00  0.7593777E+04 -0.1563833E+01  0.1352766E+05 -0.2851403E+01  0.9654999E+02 -0.1562235E+01
  0.8547620E+00  0.8159089E+04 -0.1562245E+01  0.1445570E+05 -0.2835723E+01  0.1062078E+03 -0.1560387E+01
  0.8857143E+00  0.8742229E+04 -0.1560382E+01  0.1539683E+05 -0.2820130E+01  0.1159636E+03 -0.1558201E+01
  0.9166667E+00  0.9329529E+04 -0.1558201E+01  0.1634818E+05 -0.2804629E+01  0.1249768E+03 -0.1555556E+01
  0.9476191E+00  0.9910792E+04 -0.1555654E+01  0.1730438E+05 -0.2789160E+01  0.1334215E+03 -0.1552397E+01
  0.9785714E+00  0.1050660E+05 -0.1552723E+01  0.1826962E+05 -0.2773917E+01  0.1434796E+03 -0.1548892E+01
  0.1009524E+01  0.1113420E+05 -0.1549399E+01  0.1923931E+05 -0.2758862E+01  0.1546740E+03 -0.1544987E+01
  0.1040476E+01  0.1178494E+05 -0.1545643E+01  0.2020773E+05 -0.2743921E+01  0.1664720E+03 -0.1540585E+01
  0.1071429E+01  0.1245249E+05 -0.1541408E+01  0.2117223E+05 -0.2729106E+01  0.1786752E+03 -0.1535610E+01
  0.1102381E+01  0.1312554E+05 -0.1536641E+01  0.2213080E+05 -0.2714438E+01  0.1924530E+03 -0.1530195E+01
  0.1133333E+01  0.1380912E+05 -0.1531314E+01  0.2308472E+05 -0.2700040E+01  0.2070938E+03 -0.1524213E+01
  0.1164286E+01  0.1448649E+05 -0.1525353E+01  0.2403279E+05 -0.2685952E+01  0.2200775E+03 -0.1517200E+01
  0.1195238E+01  0.1515298E+05 -0.1518707E+01  0.2497074E+05 -0.2672108E+01  0.2321101E+03 -0.1509162E+01
  0.1226190E+01  0.1582218E+05 -0.1511380E+01  0.2589819E+05 -0.2658551E+01  0.2451772E+03 -0.1500466E+01
  0.1257143E+01  0.1648521E+05 -0.1503326E+01  0.2681488E+05 -0.2644764E+01  0.2594148E+03 -0.1491118E+01
  0.1288095E+01  0.1719450E+05 -0.1494699E+01  0.2770519E+05 -0.2631977E+01  0.2765822E+03 -0.1481589E+01
  0.1319048E+01  0.1789731E+05 -0.1485318E+01  0.2858409E+05 -0.2619106E+01  0.2946039E+03 -0.1471312E+01
  0.1350000E+01  0.1859532E+05 -0.1475174E+01  0.2944318E+05 -0.2606507E+01  0.3116940E+03 -0.1459904E+01
  0.1380952E+01  0.1928252E+05 -0.1464225E+01  0.3028158E+05 -0.2594237E+01  0.3291466E+03 -0.1447644E+01
  0.1411905E+01  0.1983918E+05 -0.1452482E+01  0.3107756E+05 -0.2582023E+01  0.3387589E+03 -0.1432776E+01
  0.1442857E+01  0.2047217E+05 -0.1439786E+01  0.3186637E+05 -0.2570137E+01  0.3556693E+03 -0.1418296E+01
  0.1473810E+01  0.2106501E+05 -0.1426131E+01  0.3263165E+05 -0.2558576E+01  0.3718435E+03 -0.1402527E+01
  0.1504762E+01  0.2162462E+05 -0.1411551E+01  0.3337421E+05 -0.2547401E+01  0.3879935E+03 -0.1385699E+01
  0.1535714E+01  0.2215232E+05 -0.1396117E+01  0.3409235E+05 -0.2536605E+01  0.4048172E+03 -0.1368370E+01
  0.1566667E+01  0.2265408E+05 -0.1379952E+01  0.3478366E+05 -0.2526072E+01  0.4205921E+03 -0.1349879E+01
  0.1597619E+01  0.2311715E+05 -0.1363019E+01  0.3544545E+05 -0.2515774E+01  0.4360750E+03 -0.1330704E+01
  0.1628572E+01  0.2353765E+05 -0.1345344E+01  0.3607653E+05 -0.2505710E+01  0.4511469E+03 -0.1310666E+01
  0.1659524E+01  0.2390706E+05 -0.1326915E+01  0.3667558E+05 -0.2495836E+01  0.4664109E+03 -0.1289891E+01
  0.1690476E+01  0.2421167E+05 -0.1307670E+01  0.3724256E+05 -0.2486198E+01  0.4813689E+03 -0.1268415E+01
  0.1721429E+01  0.2445446E+05 -0.1287699E+01  0.3777895E+05 -0.2476889E+01  0.4959276E+03 -0.1246418E+01
  0.1752381E+01  0.2463050E+05 -0.1267034E+01  0.3828393E+05 -0.2467930E+01  0.5100083E+03 -0.1224035E+01
  0.1783333E+01  0.2473547E+05 -0.1245820E+01  0.3875648E+05 -0.2459280E+01  0.5220195E+03 -0.1200879E+01
  0.1814286E+01  0.2476699E+05 -0.1224140E+01  0.3919484E+05 -0.2450855E+01  0.5318291E+03 -0.1176699E+01
  0.1845238E+01  0.2471186E+05 -0.1201922E+01  0.3959861E+05 -0.2442645E+01  0.5383626E+03 -0.1151237E+01
  0.1876190E+01  0.2457708E+05 -0.1179325E+01  0.3996759E+05 -0.2434692E+01  0.5434844E+03 -0.1125323E+01
  0.1907143E+01  0.2435908E+05 -0.1156373E+01  0.4030092E+05 -0.2426957E+01  0.5474113E+03 -0.1098972E+01
  0.1938095E+01  0.2404775E+05 -0.1132960E+01  0.4059841E+05 -0.2419404E+01  0.5504076E+03 -0.1072657E+01
  0.1969048E+01  0.2365021E+05 -0.1109280E+01  0.4086212E+05 -0.2412179E+01  0.5515881E+03 -0.1046603E+01
  0.2000000E+01  0.2316843E+05 -0.1085517E+01  0.4109116E+05 -0.2405247E+01  0.5512164E+03 -0.1021016E+01
