VARIABLES="w (rad/s)"
"abs(F   1   1)" "angle(F   1   1)"
"abs(F   1   2)" "angle(F   1   2)"
"abs(F   1   3)" "angle(F   1   3)"
Zone t="Diffraction force - beta =   0.000 deg",I=    64,F=POINT
  0.5000000E-01  0.3711102E+04 -0.1570791E+01  0.7306738E+03 -0.3086839E+01  0.6590025E+04  0.1570800E+01
  0.8095238E-01  0.6081731E+04 -0.1570781E+01  0.1888998E+04 -0.3084907E+01  0.1080797E+05  0.1570807E+01
  0.1119048E+00  0.8512326E+04 -0.1570766E+01  0.3576374E+04 -0.3082583E+01  0.1513337E+05  0.1570817E+01
  0.1428571E+00  0.1102739E+05 -0.1570743E+01  0.5795158E+04 -0.3079756E+01  0.1961402E+05  0.1570833E+01
  0.1738095E+00  0.1363010E+05 -0.1570710E+01  0.8552150E+04 -0.3076320E+01  0.2428013E+05  0.1570856E+01
  0.2047619E+00  0.1641501E+05 -0.1570662E+01  0.1182171E+05 -0.3071841E+01  0.2926079E+05  0.1570889E+01
  0.2357143E+00  0.1938227E+05 -0.1570591E+01  0.1564049E+05 -0.3066361E+01  0.3461248E+05  0.1570938E+01
  0.2666667E+00  0.2253428E+05 -0.1570489E+01  0.1998809E+05 -0.3059772E+01  0.4034555E+05  0.1571010E+01
  0.2976190E+00  0.2605317E+05 -0.1570337E+01  0.2486155E+05 -0.3051456E+01  0.4668263E+05  0.1571115E+01
  0.3285715E+00  0.2990460E+05 -0.1570113E+01  0.3025337E+05 -0.3041662E+01  0.5370321E+05  0.1571272E+01
  0.3595238E+00  0.3411364E+05 -0.1569778E+01  0.3612707E+05 -0.3029794E+01  0.6138345E+05  0.1571506E+01
  0.3904762E+00  0.3874292E+05 -0.1569279E+01  0.4243779E+05 -0.3015815E+01  0.6992049E+05  0.1571856E+01
  0.4214286E+00  0.4410854E+05 -0.1568559E+01  0.4914476E+05 -0.3000595E+01  0.7969881E+05  0.1572364E+01
  0.4523810E+00  0.4993761E+05 -0.1567504E+01  0.5605238E+05 -0.2982422E+01  0.9039631E+05  0.1573109E+01
  0.4833333E+00  0.5622224E+05 -0.1566046E+01  0.6331192E+05 -0.2965271E+01  0.1021805E+06  0.1574139E+01
  0.5142857E+00  0.6330337E+05 -0.1564049E+01  0.7041518E+05 -0.2945697E+01  0.1152332E+06  0.1575560E+01
  0.5452381E+00  0.7102929E+05 -0.1561416E+01  0.7770847E+05 -0.2927035E+01  0.1295638E+06  0.1577442E+01
  0.5761905E+00  0.7918805E+05 -0.1558014E+01  0.8498985E+05 -0.2909260E+01  0.1446270E+06  0.1579887E+01
  0.6071429E+00  0.8770218E+05 -0.1553643E+01  0.9196177E+05 -0.2890135E+01  0.1605452E+06  0.1583035E+01
  0.6380953E+00  0.9673985E+05 -0.1548262E+01  0.9910269E+05 -0.2873806E+01  0.1777236E+06  0.1586916E+01
  0.6690477E+00  0.1067264E+06 -0.1541746E+01  0.1059277E+06 -0.2857471E+01  0.1960076E+06  0.1591682E+01
  0.7000000E+00  0.1169417E+06 -0.1533790E+01  0.1123469E+06 -0.2840462E+01  0.2150292E+06  0.1597520E+01
  0.7309524E+00  0.1274688E+06 -0.1524290E+01  0.1187805E+06 -0.2825517E+01  0.2350918E+06  0.1604507E+01
  0.7619048E+00  0.1381786E+06 -0.1513019E+01  0.1249586E+06 -0.2811464E+01  0.2552338E+06  0.1612849E+01
  0.7928572E+00  0.1493364E+06 -0.1499913E+01  0.1304001E+06 -0.2796323E+01  0.2764171E+06  0.1622583E+01
  0.8238096E+00  0.1610426E+06 -0.1484946E+01  0.1356085E+06 -0.2782299E+01  0.2980981E+06  0.1633773E+01
  0.8547620E+00  0.1730040E+06 -0.1467829E+01  0.1406808E+06 -0.2769951E+01  0.3209461E+06  0.1646629E+01
  0.8857143E+00  0.1850114E+06 -0.1448384E+01  0.1451129E+06 -0.2757548E+01  0.3434206E+06  0.1661355E+01
  0.9166667E+00  0.1968711E+06 -0.1426473E+01  0.1489500E+06 -0.2745074E+01  0.3661677E+06  0.1677989E+01
  0.9476191E+00  0.2081404E+06 -0.1401912E+01  0.1523633E+06 -0.2733402E+01  0.3877197E+06  0.1696658E+01
  0.9785714E+00  0.2190292E+06 -0.1374825E+01  0.1555139E+06 -0.2723060E+01  0.4095667E+06  0.1717163E+01
  0.1009524E+01  0.2293268E+06 -0.1345415E+01  0.1582237E+06 -0.2713878E+01  0.4297663E+06  0.1739438E+01
  0.1040476E+01  0.2394732E+06 -0.1314320E+01  0.1598784E+06 -0.2703256E+01  0.4491151E+06  0.1762993E+01
  0.1071429E+01  0.2482211E+06 -0.1280621E+01  0.1611603E+06 -0.2693640E+01  0.4666047E+06  0.1788502E+01
  0.1102381E+01  0.2555518E+06 -0.1244684E+01  0.1620972E+06 -0.2685020E+01  0.4818519E+06  0.1815506E+01
  0.1133333E+01  0.2614102E+06 -0.1206842E+01  0.1627097E+06 -0.2677514E+01  0.4952372E+06  0.1843658E+01
  0.1164286E+01  0.2654609E+06 -0.1167548E+01  0.1628960E+06 -0.2671315E+01  0.5049958E+06  0.1872537E+01
  0.1195238E+01  0.2680733E+06 -0.1128018E+01  0.1619578E+06 -0.2663576E+01  0.5115399E+06  0.1901050E+01
  0.1226190E+01  0.2684207E+06 -0.1087298E+01  0.1607254E+06 -0.2656871E+01  0.5148835E+06  0.1929910E+01
  0.1257143E+01  0.2661854E+06 -0.1045580E+01  0.1590976E+06 -0.2650832E+01  0.5132773E+06  0.1958679E+01
  0.1288095E+01  0.2622519E+06 -0.1004446E+01  0.1572129E+06 -0.2645971E+01  0.5096864E+06  0.1986003E+01
  0.1319048E+01  0.2559767E+06 -0.9636019E+00  0.1550429E+06 -0.2642321E+01  0.5019007E+06  0.2011670E+01
  0.1350000E+01  0.2476673E+06 -0.9237329E+00  0.1523508E+06 -0.2639522E+01  0.4901652E+06  0.2035058E+01
  0.1380952E+01  0.2375210E+06 -0.8851363E+00  0.1488834E+06 -0.2636099E+01  0.4749992E+06  0.2055938E+01
  0.1411905E+01  0.2250699E+06 -0.8465448E+00  0.1452085E+06 -0.2633348E+01  0.4565959E+06  0.2074265E+01
  0.1442857E+01  0.2110223E+06 -0.8103076E+00  0.1413308E+06 -0.2631961E+01  0.4347132E+06  0.2088253E+01
  0.1473810E+01  0.1957042E+06 -0.7760159E+00  0.1372812E+06 -0.2631423E+01  0.4115081E+06  0.2097944E+01
  0.1504762E+01  0.1790659E+06 -0.7433967E+00  0.1331296E+06 -0.2631975E+01  0.3864852E+06  0.2102862E+01
  0.1535714E+01  0.1611200E+06 -0.7123570E+00  0.1289029E+06 -0.2633759E+01  0.3591037E+06  0.2101586E+01
  0.1566667E+01  0.1423706E+06 -0.6839988E+00  0.1242519E+06 -0.2636132E+01  0.3300777E+06  0.2092249E+01
  0.1597619E+01  0.1229196E+06 -0.6586008E+00  0.1193512E+06 -0.2638636E+01  0.3002914E+06  0.2073619E+01
  0.1628572E+01  0.1027095E+06 -0.6353506E+00  0.1144938E+06 -0.2641728E+01  0.2701942E+06  0.2044081E+01
  0.1659524E+01  0.8190393E+05 -0.6152912E+00  0.1096586E+06 -0.2645605E+01  0.2397220E+06  0.1998485E+01
  0.1690476E+01  0.6091399E+05 -0.6007656E+00  0.1048078E+06 -0.2649151E+01  0.2106199E+06  0.1933094E+01
  0.1721429E+01  0.3977634E+05 -0.5977272E+00  0.9993897E+05 -0.2652517E+01  0.1835743E+06  0.1841687E+01
  0.1752381E+01  0.1844138E+05 -0.6414642E+00  0.9507539E+05 -0.2656110E+01  0.1590583E+06  0.1712172E+01
  0.1783333E+01  0.3878875E+04 -0.3027929E+01  0.9018745E+05 -0.2659987E+01  0.1390798E+06  0.1534554E+01
  0.1814286E+01  0.2468045E+05  0.2756932E+01  0.8510816E+05 -0.2663840E+01  0.1255938E+06  0.1299448E+01
  0.1845238E+01  0.4588518E+05  0.2736545E+01  0.8002341E+05 -0.2667294E+01  0.1214437E+06  0.1029502E+01
  0.1876190E+01  0.6685049E+05  0.2741651E+01  0.7505645E+05 -0.2670970E+01  0.1270982E+06  0.7700505E+00
  0.1907143E+01  0.8752627E+05  0.2753932E+01  0.7010756E+05 -0.2675503E+01  0.1409478E+06  0.5533945E+00
  0.1938095E+01  0.1077094E+06  0.2769899E+01  0.6519646E+05 -0.2680476E+01  0.1603099E+06  0.3916084E+00
  0.1969048E+01  0.1272106E+06  0.2788283E+01  0.6038462E+05 -0.2685860E+01  0.1825222E+06  0.2777343E+00
  0.2000000E+01  0.1459681E+06  0.2807879E+01  0.5561333E+05 -0.2693322E+01  0.2060012E+06  0.1981668E+00
