VARIABLES="w (rad/s)"
"A   1   1" "B   1   1"
"A   1   2" "B   1   2"
"A   1   3" "B   1   3"
Zone t="Motion of body    1 in DoF   1",I=    64,F=POINT
  0.5000000E-01  0.6377111E+05  0.4214157E-02 -0.4577637E-03  0.3106867E-05 -0.1025943E+06 -0.6250659E-02
  0.8095238E-01  0.6420142E+05  0.1857752E-01 -0.2214768E-02 -0.3587172E-04 -0.1033535E+06 -0.2764661E-01
  0.1119048E+00  0.6442355E+05  0.5227894E-01 -0.6817757E-04 -0.1352001E-04 -0.1037282E+06 -0.7779815E-01
  0.1428571E+00  0.6444239E+05  0.1175708E+00 -0.3044128E-02 -0.4268647E-04 -0.1038029E+06 -0.1749833E+00
  0.1738095E+00  0.6456698E+05  0.2341285E+00  0.0000000E+00 -0.3501773E-04 -0.1038585E+06 -0.3482789E+00
  0.2047619E+00  0.6467547E+05  0.4323219E+00 -0.2608188E-03 -0.7588509E-04 -0.1040539E+06 -0.6430933E+00
  0.2357143E+00  0.6483807E+05  0.7619723E+00 -0.5664247E-02 -0.1563197E-03 -0.1042959E+06 -0.1133421E+01
  0.2666667E+00  0.6495687E+05  0.1300982E+01 -0.3204345E-02 -0.9537861E-04 -0.1044139E+06 -0.1934732E+01
  0.2976190E+00  0.6515057E+05  0.2184584E+01  0.5126953E-04 -0.1161043E-03 -0.1047158E+06 -0.3248800E+01
  0.3285715E+00  0.6528848E+05  0.3617661E+01  0.4179581E-02 -0.6100908E-04 -0.1048941E+06 -0.5378881E+01
  0.3595238E+00  0.6561859E+05  0.5952239E+01 -0.3395333E-02 -0.1986995E-03 -0.1052711E+06 -0.8844763E+01
  0.3904762E+00  0.6574788E+05  0.9709911E+01  0.1133244E-02 -0.7843971E-04 -0.1054700E+06 -0.1442699E+02
  0.4214286E+00  0.6597046E+05  0.1564186E+02 -0.5032814E-02 -0.6807297E-03 -0.1057835E+06 -0.2323563E+02
  0.4523810E+00  0.6637930E+05  0.2500624E+02  0.1045629E-02  0.6139278E-04 -0.1063580E+06 -0.3713535E+02
  0.4833333E+00  0.6667139E+05  0.3896403E+02 -0.1389076E-02 -0.1139641E-03 -0.1066773E+06 -0.5782543E+02
  0.5142857E+00  0.6708688E+05  0.5976358E+02  0.3471375E-02 -0.7808208E-04 -0.1073487E+06 -0.8869809E+02
  0.5452381E+00  0.6736527E+05  0.8940852E+02  0.8395666E-03 -0.2819300E-03 -0.1077695E+06 -0.1326698E+03
  0.5761905E+00  0.6788393E+05  0.1308049E+03  0.1059288E-03  0.2639294E-03 -0.1083440E+06 -0.1938853E+03
  0.6071429E+00  0.6845941E+05  0.1879462E+03  0.1306870E-02  0.2012253E-03 -0.1091941E+06 -0.2785058E+03
  0.6380953E+00  0.6886261E+05  0.2638065E+03  0.2391303E-03 -0.9562969E-03 -0.1097503E+06 -0.3907277E+03
  0.6690477E+00  0.6937916E+05  0.3641447E+03  0.3466623E-02  0.4949570E-03 -0.1104927E+06 -0.5391160E+03
  0.7000000E+00  0.7005480E+05  0.4955814E+03 -0.5231585E-03 -0.5006790E-03 -0.1114912E+06 -0.7333935E+03
  0.7309524E+00  0.7069130E+05  0.6639354E+03 -0.3340034E-03 -0.4243851E-03 -0.1122930E+06 -0.9815342E+03
  0.7619048E+00  0.7141638E+05  0.8783003E+03  0.4165649E-02  0.1016617E-02 -0.1131552E+06 -0.1296702E+04
  0.7928572E+00  0.7224623E+05  0.1148654E+04 -0.2424910E-02 -0.1173973E-02 -0.1144126E+06 -0.1695270E+04
  0.8238096E+00  0.7291675E+05  0.1483767E+04  0.2889468E-02  0.1464844E-02 -0.1153724E+06 -0.2188456E+04
  0.8547620E+00  0.7364734E+05  0.1896570E+04 -0.2606320E-02 -0.4058838E-02 -0.1164413E+06 -0.2795531E+04
  0.8857143E+00  0.7458084E+05  0.2402812E+04  0.2170686E-02  0.1476288E-02 -0.1175902E+06 -0.3535806E+04
  0.9166667E+00  0.7564124E+05  0.3018785E+04  0.5659623E-03 -0.2063751E-02 -0.1191123E+06 -0.4438433E+04
  0.9476191E+00  0.7656838E+05  0.3756842E+04  0.5539170E-02  0.1312256E-02 -0.1203073E+06 -0.5515577E+04
  0.9785714E+00  0.7749337E+05  0.4637524E+04  0.3056213E-02  0.1815796E-02 -0.1215621E+06 -0.6800386E+04
  0.1009524E+01  0.7844433E+05  0.5680656E+04  0.1692862E-02 -0.8811951E-03 -0.1227703E+06 -0.8316720E+04
  0.1040476E+01  0.7952255E+05  0.6911620E+04 -0.1525181E-02 -0.3883362E-02 -0.1243516E+06 -0.1011083E+05
  0.1071429E+01  0.8046819E+05  0.8340634E+04 -0.2392578E-02 -0.3326416E-02 -0.1257173E+06 -0.1218817E+05
  0.1102381E+01  0.8141141E+05  0.9991039E+04 -0.2823700E-02 -0.1014709E-02 -0.1268703E+06 -0.1456867E+05
  0.1133333E+01  0.8236434E+05  0.1189113E+05 -0.1992618E-02 -0.1823425E-02 -0.1280992E+06 -0.1730825E+05
  0.1164286E+01  0.8328587E+05  0.1406033E+05 -0.1939645E-02 -0.4547119E-02 -0.1291443E+06 -0.2041597E+05
  0.1195238E+01  0.8424019E+05  0.1652868E+05 -0.1327697E-02 -0.5126953E-02 -0.1303525E+06 -0.2395410E+05
  0.1226190E+01  0.8501325E+05  0.1929860E+05  0.3235456E-02 -0.1251221E-02 -0.1313641E+06 -0.2792075E+05
  0.1257143E+01  0.8547574E+05  0.2236062E+05  0.2039129E-02 -0.4150391E-02 -0.1318397E+06 -0.3228162E+05
  0.1288095E+01  0.8595127E+05  0.2576916E+05  0.1516289E-02 -0.1846313E-02 -0.1323617E+06 -0.3712725E+05
  0.1319048E+01  0.8615794E+05  0.2948231E+05  0.7403542E-03 -0.3295898E-02 -0.1325351E+06 -0.4239441E+05
  0.1350000E+01  0.8622273E+05  0.3349429E+05  0.2260561E-02  0.9155273E-03 -0.1323418E+06 -0.4802231E+05
  0.1380952E+01  0.8622202E+05  0.3782028E+05  0.2607675E-02  0.9155273E-03 -0.1321482E+06 -0.5408281E+05
  0.1411905E+01  0.8574445E+05  0.4238206E+05  0.1296868E-02 -0.3753662E-02 -0.1314376E+06 -0.6049036E+05
  0.1442857E+01  0.8510720E+05  0.4716745E+05  0.3130318E-02 -0.4516602E-02 -0.1302807E+06 -0.6711980E+05
  0.1473810E+01  0.8416094E+05  0.5212223E+05  0.9110902E-03  0.3356934E-03 -0.1286603E+06 -0.7393545E+05
  0.1504762E+01  0.8293548E+05  0.5720747E+05  0.1622453E-02  0.1342773E-02 -0.1267238E+06 -0.8091385E+05
  0.1535714E+01  0.8143146E+05  0.6234330E+05 -0.3974382E-03 -0.7934570E-03 -0.1243262E+06 -0.8787102E+05
  0.1566667E+01  0.7973553E+05  0.6746282E+05  0.1908972E-02  0.1190186E-02 -0.1215967E+06 -0.9469622E+05
  0.1597619E+01  0.7790288E+05  0.7256738E+05  0.4164217E-02  0.6103516E-02 -0.1188545E+06 -0.1015332E+06
  0.1628572E+01  0.7575480E+05  0.7748723E+05  0.2323619E-02  0.6591797E-02 -0.1156836E+06 -0.1080522E+06
  0.1659524E+01  0.7336052E+05  0.8216184E+05  0.6620169E-03  0.4760742E-02 -0.1121275E+06 -0.1141276E+06
  0.1690476E+01  0.7073264E+05  0.8651248E+05  0.1155370E-02  0.1220703E-03 -0.1081975E+06 -0.1196406E+06
  0.1721429E+01  0.6798961E+05  0.9056099E+05  0.2411015E-02 -0.3479004E-02 -0.1042089E+06 -0.1247302E+06
  0.1752381E+01  0.6519343E+05  0.9423930E+05  0.1114555E-02 -0.6103516E-02 -0.1001667E+06 -0.1292278E+06
  0.1783333E+01  0.6234895E+05  0.9749090E+05 -0.3422532E-04  0.1525879E-02 -0.9599384E+05 -0.1329617E+06
  0.1814286E+01  0.5952627E+05  0.1003650E+06  0.1597968E-02  0.8544922E-03 -0.9190609E+05 -0.1361542E+06
  0.1845238E+01  0.5677788E+05  0.1029222E+06  0.1471932E-02 -0.3967285E-02 -0.8809198E+05 -0.1390546E+06
  0.1876190E+01  0.5397986E+05  0.1049696E+06  0.6994258E-03  0.9155273E-03 -0.8424027E+05 -0.1412022E+06
  0.1907143E+01  0.5122917E+05  0.1065419E+06 -0.1280138E-03 -0.1831055E-03 -0.8043598E+05 -0.1425761E+06
  0.1938095E+01  0.4853475E+05  0.1076279E+06  0.1558871E-02 -0.1831055E-03 -0.7667067E+05 -0.1431468E+06
  0.1969048E+01  0.4596109E+05  0.1083716E+06  0.1146900E-02  0.5004883E-02 -0.7314962E+05 -0.1433143E+06
  0.2000000E+01  0.4350466E+05  0.1087664E+06  0.9002686E-03  0.3112793E-02 -0.6984624E+05 -0.1430426E+06
Zone t="Motion of body    1 in DoF   2",I=    64,F=POINT
  0.5000000E-01  0.1907349E-04 -0.1418591E-04  0.5251398E+05  0.7973850E+02  0.7629395E-02 -0.5245209E-05
  0.8095238E-01  0.2850925E-02 -0.2002716E-04  0.5217086E+05  0.1320858E+03 -0.1507927E-02 -0.1335144E-04
  0.1119048E+00  0.3408878E-03  0.6031990E-04  0.5195366E+05  0.1888720E+03  0.1908972E-02 -0.3910065E-04
  0.1428571E+00  0.8785248E-02  0.1287460E-04  0.5184202E+05  0.2522241E+03 -0.1068115E-01  0.4386902E-04
  0.1738095E+00 -0.3533559E-02 -0.2431870E-04  0.5182831E+05  0.3245839E+03 -0.2106967E-02 -0.1239777E-03
  0.2047619E+00  0.5160487E-02 -0.7438660E-04  0.5182174E+05  0.4093572E+03 -0.2980787E-03 -0.7629395E-05
  0.2357143E+00  0.5114006E-02  0.7629395E-04  0.5182477E+05  0.5109755E+03 -0.1242898E-01  0.1411438E-03
  0.2666667E+00  0.3376007E-02  0.1430511E-03  0.5196798E+05  0.6329167E+03 -0.1121521E-01  0.1296997E-03
  0.2976190E+00 -0.8715820E-03  0.3433228E-04  0.5196588E+05  0.7841116E+03 -0.1107422E-01 -0.6103516E-04
  0.3285715E+00  0.5317356E-02 -0.1335144E-04  0.5214116E+05  0.9680787E+03 -0.1486073E-02  0.4577637E-03
  0.3595238E+00  0.5623520E-02  0.1850128E-03  0.5214124E+05  0.1195304E+04 -0.1052553E-01  0.1525879E-03
  0.3904762E+00  0.1348170E-02 -0.1239777E-03  0.5224508E+05  0.1471931E+04  0.6252381E-03  0.2517700E-03
  0.4214286E+00  0.4091424E-02 -0.7629395E-05  0.5221495E+05  0.1794272E+04 -0.1245531E-01  0.1098633E-02
  0.4523810E+00  0.1787687E-02  0.6103516E-04  0.5213755E+05  0.2179803E+04  0.5936472E-02 -0.5493164E-03
  0.4833333E+00 -0.1578495E-02 -0.6103516E-04  0.5208010E+05  0.2589968E+04  0.2273033E-02 -0.1022339E-02
  0.5142857E+00  0.1305474E-02  0.6484985E-03  0.5174248E+05  0.3049097E+04 -0.1186795E-02 -0.1770020E-02
  0.5452381E+00  0.9794943E-03 -0.2136230E-03  0.5156677E+05  0.3524886E+04 -0.4477689E-02  0.6103516E-04
  0.5761905E+00 -0.1641896E-02 -0.9918213E-04  0.5112104E+05  0.4009486E+04  0.5508296E-02  0.6713867E-03
  0.6071429E+00  0.7036994E-03  0.7858276E-03  0.5066997E+05  0.4517260E+04  0.6031709E-02  0.2136230E-03
  0.6380953E+00  0.2319564E-02 -0.1037598E-02  0.5040668E+05  0.5002784E+04 -0.4973909E-02  0.2136230E-03
  0.6690477E+00  0.6043783E-02 -0.8544922E-03  0.4977020E+05  0.5491774E+04 -0.1131214E-01 -0.0000000E+00
  0.7000000E+00 -0.1220703E-02  0.3509521E-03  0.4922880E+05  0.5980826E+04  0.2092634E-02  0.3967285E-03
  0.7309524E+00  0.9164219E-02 -0.3509521E-03  0.4883921E+05  0.6441784E+04 -0.7348076E-02  0.6103516E-04
  0.7619048E+00  0.3805160E-03 -0.9002686E-03  0.4820568E+05  0.6889248E+04 -0.8010863E-02  0.1831055E-02
  0.7928572E+00  0.5080764E-02  0.9002686E-03  0.4759472E+05  0.7318857E+04 -0.5234726E-02 -0.3967285E-02
  0.8238096E+00 -0.3445134E-02  0.1373291E-03  0.4706072E+05  0.7716326E+04  0.8001603E-02  0.1770020E-02
  0.8547620E+00  0.5230492E-02  0.2746582E-03  0.4663668E+05  0.8076169E+04 -0.1599495E-01  0.1220703E-02
  0.8857143E+00  0.1240392E-02 -0.7019043E-03  0.4592543E+05  0.8410797E+04  0.1102571E-01 -0.1403809E-02
  0.9166667E+00  0.9987571E-04 -0.9155273E-04  0.4534275E+05  0.8710842E+04 -0.3462358E-02 -0.9155273E-03
  0.9476191E+00 -0.6279873E-03  0.3356934E-03  0.4481848E+05  0.8964727E+04 -0.6956168E-02  0.5859375E-02
  0.9785714E+00  0.2884691E-02  0.1556396E-02  0.4443380E+05  0.9171295E+04 -0.9979471E-02 -0.1647949E-02
  0.1009524E+01  0.5003012E-02 -0.9765625E-03  0.4381435E+05  0.9335543E+04 -0.1136636E-01  0.7568359E-02
  0.1040476E+01  0.1466520E-04  0.4272461E-03  0.4324700E+05  0.9461340E+04  0.1407859E-02 -0.4333496E-02
  0.1071429E+01  0.4899089E-02 -0.4913330E-02  0.4276232E+05  0.9543709E+04 -0.1162109E-01  0.2380371E-02
  0.1102381E+01  0.1481058E-02  0.1373291E-02  0.4237538E+05  0.9579810E+04 -0.5536666E-02 -0.3967285E-02
  0.1133333E+01  0.2908146E-02 -0.3051758E-04  0.4211478E+05  0.9572872E+04 -0.7539637E-02  0.1831055E-02
  0.1164286E+01  0.3184687E-02 -0.4882812E-03  0.4159941E+05  0.9510751E+04 -0.6919814E-02 -0.7324219E-03
  0.1195238E+01  0.2827739E-02  0.1800537E-02  0.4116175E+05  0.9417657E+04 -0.5515049E-02 -0.1342773E-02
  0.1226190E+01  0.6657573E-03  0.2410889E-02  0.4081219E+05  0.9296819E+04 -0.1393735E-02  0.6713867E-03
  0.1257143E+01  0.1602173E-02  0.2502441E-02  0.4052776E+05  0.9136261E+04 -0.5243475E-02 -0.3967285E-02
  0.1288095E+01  0.3441266E-02  0.1647949E-02  0.4036474E+05  0.8952579E+04 -0.3222115E-02  0.4882812E-03
  0.1319048E+01 -0.5436976E-03 -0.3051758E-04  0.4021507E+05  0.8731701E+04  0.4627214E-02  0.9948730E-02
  0.1350000E+01  0.2732453E-02 -0.5187988E-03  0.3987539E+05  0.8431960E+04 -0.4521123E-02 -0.1647949E-02
  0.1380952E+01  0.4813425E-02  0.3601074E-02  0.3964709E+05  0.8147333E+04 -0.7602034E-02  0.2807617E-02
  0.1411905E+01  0.4162137E-02 -0.1403809E-02  0.3947637E+05  0.7856774E+04 -0.5187473E-02 -0.4821777E-02
  0.1442857E+01  0.3579772E-02  0.1556396E-02  0.3936270E+05  0.7549700E+04 -0.7106668E-02 -0.3417969E-02
  0.1473810E+01  0.4613688E-02 -0.0000000E+00  0.3933360E+05  0.7255214E+04 -0.6460458E-02  0.4394531E-02
  0.1504762E+01  0.5475780E-03 -0.1647949E-02  0.3939232E+05  0.6982921E+04 -0.4380624E-02  0.2807617E-02
  0.1535714E+01  0.2377177E-02  0.8239746E-03  0.3931111E+05  0.6605909E+04 -0.3338481E-02 -0.9765625E-03
  0.1566667E+01  0.1553475E-02  0.5798340E-03  0.3917810E+05  0.6168403E+04 -0.7635887E-02  0.8850098E-03
  0.1597619E+01  0.1547255E-02  0.7629395E-03  0.3913471E+05  0.5810522E+04 -0.5501350E-02  0.9460449E-03
  0.1628572E+01  0.1222711E-02  0.8544922E-03  0.3912691E+05  0.5469455E+04 -0.8694832E-02 -0.2075195E-02
  0.1659524E+01  0.1678029E-02  0.3479004E-02  0.3915467E+05  0.5136038E+04 -0.2353838E-02 -0.1159668E-01
  0.1690476E+01  0.3190806E-02  0.5798340E-03  0.3922951E+05  0.4835090E+04 -0.4910321E-02  0.3509521E-02
  0.1721429E+01  0.3040361E-02  0.5096436E-02  0.3935722E+05  0.4601613E+04 -0.6240275E-02 -0.4302979E-02
  0.1752381E+01  0.3221761E-02  0.4089355E-02  0.3949376E+05  0.4374307E+04 -0.1086691E-01 -0.7141113E-02
  0.1783333E+01  0.2267428E-02  0.2716064E-02  0.3949639E+05  0.3947969E+04 -0.5476052E-03 -0.8911133E-02
  0.1814286E+01  0.2287617E-02  0.3692627E-02  0.3951991E+05  0.3535014E+04 -0.4575234E-02 -0.3204346E-02
  0.1845238E+01  0.1281738E-02  0.4058838E-02  0.3958330E+05  0.3234716E+04 -0.3704637E-02 -0.6774902E-02
  0.1876190E+01  0.2277200E-02  0.1495361E-02  0.3966224E+05  0.2966523E+04 -0.9108800E-02 -0.8850098E-03
  0.1907143E+01  0.2528273E-02  0.1013184E-01  0.3975584E+05  0.2721317E+04  0.0000000E+00 -0.1487732E-01
  0.1938095E+01  0.1944652E-02  0.2014160E-02  0.3986611E+05  0.2503676E+04 -0.2015510E-02 -0.1174927E-02
  0.1969048E+01  0.7361859E-03  0.1373291E-02  0.3999224E+05  0.2370191E+04 -0.7191374E-02 -0.4730225E-02
  0.2000000E+01  0.1510620E-02 -0.1312256E-02  0.4012957E+05  0.2274149E+04 -0.6835938E-02  0.4974365E-02
Zone t="Motion of body    1 in DoF   3",I=    64,F=POINT
  0.5000000E-01 -0.1025482E+06 -0.6225074E-02  0.3242493E-02  0.1906609E-04  0.2250263E+06  0.9214825E-02
  0.8095238E-01 -0.1033329E+06 -0.2751242E-01  0.1993291E-01  0.1330187E-03  0.2266305E+06  0.4096615E-01
  0.1119048E+00 -0.1037230E+06 -0.7745471E-01  0.2488481E-02  0.3870006E-04  0.2271951E+06  0.1153230E+00
  0.1428571E+00 -0.1037954E+06 -0.1740969E+00  0.3898620E-02  0.2534804E-04  0.2273753E+06  0.2591165E+00
  0.1738095E+00 -0.1038190E+06 -0.3466202E+00  0.8120602E-02  0.1992490E-03  0.2272817E+06  0.5155268E+00
  0.2047619E+00 -0.1040286E+06 -0.6398963E+00  0.3651464E-02  0.1447676E-03  0.2277082E+06  0.9516903E+00
  0.2357143E+00 -0.1042824E+06 -0.1127812E+01  0.1239661E-01  0.3827866E-03  0.2279335E+06  0.1677539E+01
  0.2666667E+00 -0.1043658E+06 -0.1925410E+01  0.2649307E-01  0.5011912E-03  0.2282085E+06  0.2863418E+01
  0.2976190E+00 -0.1047063E+06 -0.3232515E+01  0.9279786E-02  0.3286302E-03  0.2285673E+06  0.4807541E+01
  0.3285715E+00 -0.1048486E+06 -0.5352207E+01 -0.1119199E-01 -0.1697764E-03  0.2288952E+06  0.7958199E+01
  0.3595238E+00 -0.1052512E+06 -0.8804016E+01 -0.1171390E-01 -0.3625453E-03  0.2291583E+06  0.1308257E+02
  0.3904762E+00 -0.1054354E+06 -0.1435785E+02 -0.8049941E-02 -0.3620982E-05  0.2295901E+06  0.2133198E+02
  0.4214286E+00 -0.1057427E+06 -0.2312385E+02 -0.1187599E-01 -0.1280308E-03  0.2298982E+06  0.3434861E+02
  0.4523810E+00 -0.1063410E+06 -0.3695632E+02  0.7521779E-02  0.2294183E-03  0.2307357E+06  0.5488078E+02
  0.4833333E+00 -0.1066119E+06 -0.5756667E+02  0.9944521E-02  0.9015203E-03  0.2311915E+06  0.8543297E+02
  0.5142857E+00 -0.1073389E+06 -0.8826160E+02 -0.3008525E-01 -0.2480388E-02  0.2321716E+06  0.1309948E+03
  0.5452381E+00 -0.1077091E+06 -0.1319912E+03  0.1903018E-02 -0.1918077E-03  0.2329337E+06  0.1958568E+03
  0.5761905E+00 -0.1082935E+06 -0.1930154E+03  0.8156516E-02  0.1458406E-02  0.2332968E+06  0.2860974E+03
  0.6071429E+00 -0.1091766E+06 -0.2772041E+03 -0.1985437E-01 -0.1940489E-02  0.2346366E+06  0.4107775E+03
  0.6380953E+00 -0.1096579E+06 -0.3888939E+03  0.8321733E-02  0.2687454E-02  0.2356902E+06  0.5760076E+03
  0.6690477E+00 -0.1104397E+06 -0.5364587E+03  0.1154021E-01  0.2902031E-02  0.2364119E+06  0.7942378E+03
  0.7000000E+00 -0.1114642E+06 -0.7295847E+03  0.1129150E-01  0.3377914E-02  0.2379253E+06  0.1079686E+04
  0.7309524E+00 -0.1122061E+06 -0.9768051E+03 -0.2171022E-02  0.1061440E-02  0.2391274E+06  0.1444081E+04
  0.7619048E+00 -0.1130784E+06 -0.1291171E+04 -0.1213646E-01 -0.3452301E-03  0.2398846E+06  0.1906250E+04
  0.7928572E+00 -0.1143715E+06 -0.1687207E+04  0.4387932E-02  0.2384186E-02  0.2418507E+06  0.2490140E+04
  0.8238096E+00 -0.1153028E+06 -0.2177549E+04 -0.1596616E-01 -0.4272461E-02  0.2432520E+06  0.3211821E+04
  0.8547620E+00 -0.1163169E+06 -0.2780860E+04  0.9675517E-02  0.1035309E-01  0.2450076E+06  0.4099043E+04
  0.8857143E+00 -0.1174927E+06 -0.3518851E+04  0.1784786E-01  0.2147675E-02  0.2460622E+06  0.5177841E+04
  0.9166667E+00 -0.1190500E+06 -0.4415946E+04 -0.4327947E-03  0.1510620E-02  0.2483224E+06  0.6492552E+04
  0.9476191E+00 -0.1202244E+06 -0.5489124E+04 -0.1571579E-01 -0.3433228E-04  0.2498714E+06  0.8058783E+04
  0.9785714E+00 -0.1214244E+06 -0.6768361E+04 -0.1509395E-01 -0.1133728E-01  0.2518413E+06  0.9925378E+04
  0.1009524E+01 -0.1226373E+06 -0.8279132E+04  0.3688021E-02  0.3242493E-02  0.2531357E+06  0.1212103E+05
  0.1040476E+01 -0.1242462E+06 -0.1005904E+05  0.2903709E-02  0.6324768E-02  0.2553541E+06  0.1471546E+05
  0.1071429E+01 -0.1256119E+06 -0.1211935E+05  0.5810547E-02  0.4455566E-02  0.2573719E+06  0.1771029E+05
  0.1102381E+01 -0.1267358E+06 -0.1449031E+05  0.1193152E-01  0.1307678E-01  0.2587778E+06  0.2112844E+05
  0.1133333E+01 -0.1279196E+06 -0.1721813E+05 -0.1319436E-02  0.5172729E-02  0.2606113E+06  0.2506281E+05
  0.1164286E+01 -0.1289831E+06 -0.2031818E+05  0.8964304E-02  0.1033020E-01  0.2614802E+06  0.2950083E+05
  0.1195238E+01 -0.1302192E+06 -0.2383863E+05 -0.1302164E-02  0.1892090E-02  0.2628967E+06  0.3454606E+05
  0.1226190E+01 -0.1312446E+06 -0.2777832E+05 -0.7292220E-02  0.3570557E-02  0.2643092E+06  0.4018914E+05
  0.1257143E+01 -0.1316925E+06 -0.3211494E+05 -0.1245325E-01 -0.5981445E-02  0.2647251E+06  0.4636459E+05
  0.1288095E+01 -0.1321807E+06 -0.3693625E+05 -0.3079963E-03  0.1074219E-01  0.2654524E+06  0.5322372E+05
  0.1319048E+01 -0.1323178E+06 -0.4216674E+05  0.8884250E-02  0.1318359E-01  0.2656478E+06  0.6064570E+05
  0.1350000E+01 -0.1321415E+06 -0.4776553E+05 -0.2079716E-02  0.3662109E-02  0.2646503E+06  0.6847732E+05
  0.1380952E+01 -0.1319802E+06 -0.5377931E+05  0.7690430E-02  0.1290894E-01  0.2640608E+06  0.7689302E+05
  0.1411905E+01 -0.1312519E+06 -0.6008705E+05  0.2680195E-02  0.7934570E-02  0.2630013E+06  0.8575479E+05
  0.1442857E+01 -0.1300946E+06 -0.6667032E+05 -0.3214921E-02  0.8117676E-02  0.2610497E+06  0.9486876E+05
  0.1473810E+01 -0.1284562E+06 -0.7345069E+05  0.9607860E-02 -0.3540039E-02  0.2584998E+06  0.1041979E+06
  0.1504762E+01 -0.1264947E+06 -0.8038161E+05 -0.1955056E-01 -0.2746582E-01  0.2557576E+06  0.1137269E+06
  0.1535714E+01 -0.1241004E+06 -0.8728913E+05 -0.6756450E-03 -0.1586914E-02  0.2519155E+06  0.1230461E+06
  0.1566667E+01 -0.1213993E+06 -0.9407621E+05 -0.3428358E-02  0.6530762E-02  0.2473289E+06  0.1320051E+06
  0.1597619E+01 -0.1187186E+06 -0.1008351E+06 -0.5806981E-02 -0.5493164E-03  0.2433190E+06  0.1410439E+06
  0.1628572E+01 -0.1156015E+06 -0.1072852E+06 -0.1330459E-01 -0.2075195E-01  0.2388452E+06  0.1495910E+06
  0.1659524E+01 -0.1120715E+06 -0.1133045E+06 -0.5369693E-02 -0.2868652E-02  0.2336831E+06  0.1573743E+06
  0.1690476E+01 -0.1081327E+06 -0.1187879E+06 -0.1444212E-03  0.8056641E-02  0.2279347E+06  0.1642768E+06
  0.1721429E+01 -0.1041442E+06 -0.1238425E+06 -0.3332874E-02  0.2502441E-02  0.2224472E+06  0.1706454E+06
  0.1752381E+01 -0.1001053E+06 -0.1283198E+06  0.3482985E-03  0.1525879E-02  0.2168937E+06  0.1761035E+06
  0.1783333E+01 -0.9596576E+05 -0.1320379E+06  0.2669575E-02  0.1483154E-01  0.2105787E+06  0.1800571E+06
  0.1814286E+01 -0.9191175E+05 -0.1352056E+06 -0.3364143E-03 -0.5371094E-02  0.2044731E+06  0.1832409E+06
  0.1845238E+01 -0.8818572E+05 -0.1380483E+06 -0.4829259E-02 -0.4882812E-02  0.1993207E+06  0.1863748E+06
  0.1876190E+01 -0.8440612E+05 -0.1401578E+06 -0.6766537E-02  0.6103516E-04  0.1942726E+06  0.1884982E+06
  0.1907143E+01 -0.8064262E+05 -0.1415091E+06  0.1011309E-01  0.7080078E-02  0.1891455E+06  0.1893272E+06
  0.1938095E+01 -0.7686951E+05 -0.1420672E+06 -0.3968035E-02 -0.8178711E-02  0.1839128E+06  0.1888554E+06
  0.1969048E+01 -0.7335620E+05 -0.1422513E+06 -0.5145552E-02 -0.4638672E-02  0.1793722E+06  0.1881803E+06
  0.2000000E+01 -0.7005188E+05 -0.1419916E+06 -0.3479004E-02  0.5432129E-02  0.1752602E+06  0.1870501E+06
