VARIABLES="w (rad/s)"
"A   1   1" "B   1   1"
"A   1   2" "B   1   2"
"A   1   3" "B   1   3"
Zone t="Motion of body    1 in DoF   1",I=    64,F=POINT
  0.5000000E-01  0.1112099E+05  0.1106100E-03  0.9012222E-03  0.8784099E-06 -0.1280304E+05 -0.1131293E-03
  0.8095238E-01  0.1120499E+05  0.4460475E-03 -0.4771176E-03 -0.1979241E-05 -0.1290492E+05 -0.4842628E-03
  0.1119048E+00  0.1122877E+05  0.1251493E-02  0.2215771E-03 -0.5256607E-06 -0.1294613E+05 -0.1331131E-02
  0.1428571E+00  0.1127233E+05  0.2814189E-02  0.8277892E-03  0.7415973E-05 -0.1297689E+05 -0.3007404E-02
  0.1738095E+00  0.1127341E+05  0.5549644E-02 -0.1097379E-03 -0.3697736E-05 -0.1297969E+05 -0.5851892E-02
  0.2047619E+00  0.1130684E+05  0.1032762E-01  0.2235590E-03  0.4206478E-05 -0.1299437E+05 -0.1088690E-01
  0.2357143E+00  0.1130801E+05  0.1823266E-01 -0.2168597E-02 -0.1587566E-04 -0.1299662E+05 -0.1924954E-01
  0.2666667E+00  0.1131070E+05  0.3112591E-01  0.6222724E-03  0.2456873E-05 -0.1300007E+05 -0.3283801E-01
  0.2976190E+00  0.1132421E+05  0.5227470E-01 -0.1794434E-03  0.8446514E-06 -0.1300731E+05 -0.5504863E-01
  0.3285715E+00  0.1134423E+05  0.8666259E-01 -0.1364169E-02 -0.1589314E-04 -0.1301386E+05 -0.9104319E-01
  0.3595238E+00  0.1134145E+05  0.1423820E+00 -0.9973791E-03 -0.9009265E-05 -0.1301557E+05 -0.1492989E+00
  0.3904762E+00  0.1135650E+05  0.2323768E+00  0.1186976E-02  0.3556570E-04 -0.1302327E+05 -0.2429906E+00
  0.4214286E+00  0.1137178E+05  0.3745597E+00 -0.2262956E-03 -0.8362113E-05 -0.1303252E+05 -0.3907343E+00
  0.4523810E+00  0.1139218E+05  0.5986416E+00  0.4300569E-03  0.7447321E-05 -0.1303694E+05 -0.6226082E+00
  0.4833333E+00  0.1140112E+05  0.9327865E+00 -0.4261938E-03 -0.3485242E-04 -0.1304739E+05 -0.9673400E+00
  0.5142857E+00  0.1142858E+05  0.1430611E+01  0.6156498E-03  0.3392808E-05 -0.1306031E+05 -0.1478242E+01
  0.5452381E+00  0.1146782E+05  0.2143286E+01  0.1854043E-02  0.1287404E-03 -0.1308204E+05 -0.2206277E+01
  0.5761905E+00  0.1147234E+05  0.3131585E+01  0.8540507E-03  0.5116127E-04 -0.1309069E+05 -0.3213854E+01
  0.6071429E+00  0.1148799E+05  0.4493714E+01  0.7790957E-03 -0.1508743E-04 -0.1310166E+05 -0.4595256E+01
  0.6380953E+00  0.1153267E+05  0.6313865E+01  0.9565211E-04 -0.7078052E-05 -0.1312950E+05 -0.6428717E+01
  0.6690477E+00  0.1156106E+05  0.8714849E+01 -0.1596471E-03  0.2843887E-04 -0.1314652E+05 -0.8835554E+01
  0.7000000E+00  0.1159290E+05  0.1185163E+02  0.1863752E-02  0.2982691E-03 -0.1316481E+05 -0.1196172E+02
  0.7309524E+00  0.1162357E+05  0.1586924E+02  0.1565641E-03  0.8650124E-04 -0.1319289E+05 -0.1594936E+02
  0.7619048E+00  0.1164323E+05  0.2096304E+02  0.1692295E-02  0.3339052E-03 -0.1320739E+05 -0.2097388E+02
  0.7928572E+00  0.1168427E+05  0.2738444E+02  0.3560384E-03  0.3325939E-04 -0.1323356E+05 -0.2725982E+02
  0.8238096E+00  0.1174029E+05  0.3539633E+02 -0.7408892E-04  0.1084507E-03 -0.1326390E+05 -0.3503617E+02
  0.8547620E+00  0.1178963E+05  0.4526453E+02 -0.6248027E-03 -0.2677143E-03 -0.1330021E+05 -0.4456700E+02
  0.8857143E+00  0.1182541E+05  0.5729885E+02  0.6288098E-03  0.9337068E-04 -0.1332340E+05 -0.5610805E+02
  0.9166667E+00  0.1186145E+05  0.7187960E+02 -0.1281738E-02 -0.1740456E-03 -0.1335350E+05 -0.7000974E+02
  0.9476191E+00  0.1190835E+05  0.8944094E+02  0.5474761E-03  0.2222657E-03 -0.1338359E+05 -0.8659612E+02
  0.9785714E+00  0.1196600E+05  0.1104552E+03 -0.8030356E-03 -0.6407499E-04 -0.1342373E+05 -0.1062905E+03
  0.1009524E+01  0.1202042E+05  0.1353775E+03 -0.1647517E-02 -0.8720160E-03 -0.1345329E+05 -0.1294187E+03
  0.1040476E+01  0.1208499E+05  0.1648280E+03 -0.6012731E-03 -0.6808043E-03 -0.1349862E+05 -0.1565610E+03
  0.1071429E+01  0.1214370E+05  0.1993086E+03  0.9043376E-03  0.2614260E-03 -0.1353119E+05 -0.1880061E+03
  0.1102381E+01  0.1221580E+05  0.2395956E+03  0.4083291E-03  0.1678467E-03 -0.1357396E+05 -0.2243949E+03
  0.1133333E+01  0.1227679E+05  0.2861929E+03 -0.7808910E-03 -0.3609657E-03 -0.1361875E+05 -0.2662250E+03
  0.1164286E+01  0.1232534E+05  0.3397414E+03 -0.4586998E-04 -0.1204014E-03 -0.1364969E+05 -0.3138143E+03
  0.1195238E+01  0.1238655E+05  0.4012865E+03 -0.2234105E-03  0.8511543E-04 -0.1369155E+05 -0.3679948E+03
  0.1226190E+01  0.1245221E+05  0.4715757E+03  0.7155335E-03  0.2841949E-03 -0.1372692E+05 -0.4290833E+03
  0.1257143E+01  0.1252225E+05  0.5513771E+03  0.2791665E-03  0.9155273E-04 -0.1376158E+05 -0.4976310E+03
  0.1288095E+01  0.1261765E+05  0.6424992E+03 -0.7226066E-03  0.1478195E-04 -0.1381664E+05 -0.5750714E+03
  0.1319048E+01  0.1269228E+05  0.7445684E+03  0.1619525E-03  0.3266335E-03 -0.1385853E+05 -0.6609849E+03
  0.1350000E+01  0.1275956E+05  0.8588693E+03 -0.5425347E-03 -0.6418228E-03 -0.1389071E+05 -0.7559929E+03
  0.1380952E+01  0.1283429E+05  0.9868367E+03  0.1436431E-03 -0.2679825E-03 -0.1393279E+05 -0.8612945E+03
  0.1411905E+01  0.1282981E+05  0.1119165E+04  0.1221218E-02  0.6790161E-03 -0.1393977E+05 -0.9700050E+03
  0.1442857E+01  0.1289676E+05  0.1275099E+04  0.4441667E-03  0.9307861E-03 -0.1396936E+05 -0.1095152E+04
  0.1473810E+01  0.1296741E+05  0.1447210E+04 -0.3416588E-03 -0.3108978E-03 -0.1400276E+05 -0.1231620E+04
  0.1504762E+01  0.1302871E+05  0.1635927E+04 -0.3244907E-03  0.1678467E-03 -0.1403051E+05 -0.1379500E+04
  0.1535714E+01  0.1308628E+05  0.1842151E+04 -0.3179506E-03  0.5378723E-03 -0.1404695E+05 -0.1538412E+04
  0.1566667E+01  0.1314442E+05  0.2067070E+04  0.9252669E-03  0.6198883E-03 -0.1406079E+05 -0.1709233E+04
  0.1597619E+01  0.1320708E+05  0.2311965E+04 -0.1241624E-03 -0.2727509E-03 -0.1408118E+05 -0.1893073E+04
  0.1628572E+01  0.1325814E+05  0.2576025E+04 -0.5527965E-03 -0.1119614E-02 -0.1408674E+05 -0.2087829E+04
  0.1659524E+01  0.1330788E+05  0.2860644E+04 -0.6436275E-03 -0.1310349E-02 -0.1408920E+05 -0.2294407E+04
  0.1690476E+01  0.1335464E+05  0.3165947E+04  0.1173422E-03 -0.8239746E-03 -0.1408858E+05 -0.2512425E+04
  0.1721429E+01  0.1339256E+05  0.3491981E+04  0.1622117E-02  0.1735687E-02 -0.1408582E+05 -0.2742124E+04
  0.1752381E+01  0.1341550E+05  0.3837862E+04  0.1088433E-02  0.2227783E-02 -0.1407140E+05 -0.2981577E+04
  0.1783333E+01  0.1342023E+05  0.4202243E+04  0.3336969E-03 -0.1831055E-03 -0.1403841E+05 -0.3227997E+04
  0.1814286E+01  0.1341836E+05  0.4586752E+04 -0.6980596E-03  0.1144409E-03 -0.1400478E+05 -0.3484056E+04
  0.1845238E+01  0.1341000E+05  0.4990571E+04 -0.2976941E-03 -0.1129150E-02 -0.1397035E+05 -0.3748617E+04
  0.1876190E+01  0.1338525E+05  0.5409802E+04 -0.3659786E-03 -0.1224518E-02 -0.1391647E+05 -0.4015643E+04
  0.1907143E+01  0.1335453E+05  0.5845377E+04  0.1152124E-02  0.1087189E-02 -0.1385561E+05 -0.4286713E+04
  0.1938095E+01  0.1331812E+05  0.6296138E+04  0.2913042E-03 -0.3509521E-03 -0.1379058E+05 -0.4561020E+04
  0.1969048E+01  0.1327662E+05  0.6760779E+04  0.1549865E-03 -0.1052856E-02 -0.1372452E+05 -0.4838035E+04
  0.2000000E+01  0.1321567E+05  0.7235758E+04 -0.4959106E-03  0.4119873E-03 -0.1364905E+05 -0.5115611E+04
Zone t="Motion of body    1 in DoF   2",I=    64,F=POINT
  0.5000000E-01 -0.1716614E-03  0.1966953E-05  0.4502843E+04  0.7317426E+01 -0.4911423E-03  0.3620982E-05
  0.8095238E-01  0.7775250E-03 -0.1549721E-05  0.4486092E+04  0.1215619E+02 -0.1775938E-02  0.1989305E-05
  0.1119048E+00  0.5113317E-04  0.7092953E-05  0.4476258E+04  0.1745687E+02 -0.2620575E-03 -0.4298985E-05
  0.1428571E+00 -0.8010864E-04  0.1311302E-05  0.4473526E+04  0.2344112E+02 -0.8010864E-03  0.1285970E-04
  0.1738095E+00 -0.7681650E-03 -0.1192093E-05  0.4480125E+04  0.3038792E+02  0.1939617E-02  0.4395843E-05
  0.2047619E+00  0.1192315E-02  0.6079674E-05  0.4491601E+04  0.3864304E+02  0.6613620E-03  0.1075864E-04
  0.2357143E+00 -0.1132849E-03  0.9536743E-06  0.4508131E+04  0.4870786E+02  0.6372278E-03 -0.9357929E-05
  0.2666667E+00 -0.1716614E-03 -0.1096725E-04  0.4531263E+04  0.6104845E+02 -0.3218651E-03 -0.1284480E-04
  0.2976190E+00  0.4101563E-03  0.4529953E-05  0.4555116E+04  0.7659047E+02  0.1092682E-02  0.8165836E-05
  0.3285715E+00  0.4992277E-03  0.1955032E-04  0.4585149E+04  0.9597600E+02 -0.1413511E-02 -0.3856421E-04
  0.3595238E+00 -0.6684562E-03  0.5674362E-04  0.4616799E+04  0.1203899E+03 -0.1562384E-02 -0.3689528E-04
  0.3904762E+00 -0.1953869E-04 -0.7152557E-05  0.4646676E+04  0.1509083E+03 -0.5348717E-03 -0.1573563E-04
  0.4214286E+00  0.1810365E-04  0.3528595E-04  0.4671315E+04  0.1875824E+03 -0.3665988E-03 -0.1025200E-04
  0.4523810E+00  0.1517848E-03 -0.7152557E-04  0.4697959E+04  0.2323987E+03 -0.2198771E-02 -0.7510185E-05
  0.4833333E+00 -0.5366884E-03  0.2288818E-04  0.4714975E+04  0.2825181E+03  0.1112839E-02  0.2622604E-04
  0.5142857E+00  0.6527371E-03 -0.8010864E-04  0.4722778E+04  0.3402474E+03  0.1260969E-03  0.2050400E-04
  0.5452381E+00  0.3218339E-03 -0.5626678E-04  0.4725817E+04  0.4032960E+03 -0.2028953E-03 -0.7820129E-04
  0.5761905E+00  0.2317192E-02  0.1525879E-04  0.4723016E+04  0.4709721E+03 -0.7249500E-03 -0.1859665E-03
  0.6071429E+00 -0.1181210E-02  0.3242493E-04  0.4714740E+04  0.5447838E+03  0.1288021E-03  0.4529953E-05
  0.6380953E+00 -0.5499996E-03 -0.1144409E-04  0.4702730E+04  0.6217665E+03  0.1255434E-03  0.5626678E-04
  0.6690477E+00 -0.8096389E-03  0.4768372E-04  0.4682817E+04  0.7034257E+03  0.1322790E-02  0.8487701E-04
  0.7000000E+00  0.6212507E-03  0.2861023E-04  0.4659417E+04  0.7900875E+03 -0.2711160E-02  0.2245903E-03
  0.7309524E+00  0.3340034E-03 -0.1907349E-04  0.4635820E+04  0.8802035E+03  0.6158188E-03 -0.2441406E-03
  0.7619048E+00 -0.3204345E-03 -0.3433228E-04  0.4606572E+04  0.9743393E+03 -0.3504753E-03 -0.4673004E-04
  0.7928572E+00 -0.5196236E-03 -0.3433228E-04  0.4572013E+04  0.1072299E+04  0.5316519E-03 -0.9059906E-04
  0.8238096E+00  0.4445335E-03 -0.9536743E-04  0.4533242E+04  0.1173616E+04 -0.6737460E-03  0.2822876E-03
  0.8547620E+00 -0.1927963E-02 -0.1411438E-03  0.4491095E+04  0.1277777E+04 -0.2900870E-03 -0.8296967E-04
  0.8857143E+00 -0.5168299E-04  0.8773804E-04  0.4445726E+04  0.1384518E+04 -0.6158890E-03  0.3738403E-03
  0.9166667E+00 -0.2996271E-03 -0.1831055E-03  0.4398257E+04  0.1493354E+04 -0.7761175E-03 -0.4262924E-03
  0.9476191E+00  0.5474761E-03 -0.2250671E-03  0.4347564E+04  0.1603948E+04  0.5052077E-03 -0.8201599E-04
  0.9785714E+00 -0.2027080E-03  0.6103516E-04  0.4293414E+04  0.1715849E+04  0.1401414E-02  0.1888275E-03
  0.1009524E+01 -0.3325265E-03  0.3433228E-03  0.4234183E+04  0.1828805E+04  0.4099900E-03  0.1173019E-03
  0.1040476E+01 -0.6892643E-03  0.7629395E-05  0.4173442E+04  0.1942022E+04 -0.7809218E-03  0.1487732E-03
  0.1071429E+01  0.1737467E-02 -0.1907349E-03  0.4109362E+04  0.2055355E+04  0.5233765E-03 -0.2107620E-03
  0.1102381E+01  0.1121175E-02  0.1678467E-03  0.4044960E+04  0.2167988E+04 -0.7682124E-03  0.2498627E-03
  0.1133333E+01  0.3769819E-03  0.7476807E-03  0.3979321E+04  0.2279739E+04  0.1410316E-02  0.1201630E-03
  0.1164286E+01  0.9042938E-03  0.1518250E-02  0.3910923E+04  0.2390514E+04 -0.1500604E-02 -0.2708435E-03
  0.1195238E+01 -0.1531958E-03 -0.2441406E-03  0.3842471E+04  0.2499535E+04 -0.1120244E-02  0.1171112E-02
  0.1226190E+01 -0.1742169E-03  0.1373291E-03  0.3771821E+04  0.2606839E+04  0.1325293E-02 -0.1220703E-03
  0.1257143E+01  0.9710138E-04 -0.2975464E-03  0.3699263E+04  0.2713736E+04 -0.3034418E-05  0.1144409E-04
  0.1288095E+01  0.4975324E-03  0.2365112E-03  0.3628089E+04  0.2813986E+04 -0.4175719E-03 -0.6046295E-03
  0.1319048E+01 -0.6593780E-03  0.1289368E-02  0.3554764E+04  0.2913537E+04  0.4916415E-04  0.5817413E-03
  0.1350000E+01 -0.1186795E-02 -0.4272461E-03  0.3480705E+04  0.3010020E+04  0.2260561E-03  0.3547668E-03
  0.1380952E+01 -0.1580074E-02  0.4730225E-03  0.3408832E+04  0.3102353E+04  0.2596625E-03 -0.4539490E-03
  0.1411905E+01  0.2593737E-03  0.2746582E-03  0.3327839E+04  0.3186743E+04 -0.1545435E-02 -0.7247925E-04
  0.1442857E+01  0.5922223E-03 -0.3204346E-03  0.3256720E+04  0.3271905E+04 -0.1506994E-02  0.1888275E-03
  0.1473810E+01 -0.2795390E-03  0.1525879E-03  0.3186398E+04  0.3352832E+04  0.3442471E-03  0.8926392E-03
  0.1504762E+01 -0.6084201E-03  0.1037598E-02  0.3116826E+04  0.3430085E+04 -0.1016569E-02  0.2479553E-04
  0.1535714E+01 -0.3775663E-03 -0.2441406E-03  0.3046940E+04  0.3503544E+04  0.1341354E-03  0.7400513E-03
  0.1566667E+01 -0.3701068E-03 -0.1831055E-03  0.2978168E+04  0.3572919E+04 -0.1144409E-03 -0.4730225E-03
  0.1597619E+01 -0.1719172E-03 -0.6103516E-04  0.2911020E+04  0.3637488E+04  0.5420168E-03 -0.1300812E-02
  0.1628572E+01 -0.1124332E-03  0.6256104E-03  0.2844130E+04  0.3698148E+04  0.1063430E-02 -0.4692078E-03
  0.1659524E+01  0.1213698E-02  0.6713867E-03  0.2779117E+04  0.3754196E+04  0.4229552E-03 -0.7133484E-03
  0.1690476E+01 -0.5235269E-03  0.8087158E-03  0.2715554E+04  0.3805351E+04  0.5641453E-03 -0.3547668E-03
  0.1721429E+01 -0.4875215E-03 -0.2182007E-02  0.2654108E+04  0.3851820E+04  0.3434810E-03 -0.3242493E-03
  0.1752381E+01  0.2176865E-03 -0.3356934E-03  0.2594499E+04  0.3894255E+04 -0.7727872E-03  0.2479553E-03
  0.1783333E+01  0.1197886E-03 -0.3051758E-04  0.2535383E+04  0.3932532E+04  0.2780807E-03 -0.2899170E-03
  0.1814286E+01 -0.5298525E-03 -0.3662109E-03  0.2479264E+04  0.3966458E+04 -0.1955408E-03 -0.1983643E-03
  0.1845238E+01  0.1240392E-03 -0.9765625E-03  0.2425319E+04  0.3995620E+04 -0.3349058E-03 -0.8468628E-03
  0.1876190E+01 -0.1219929E-03 -0.5493164E-03  0.2372310E+04  0.4021418E+04  0.4493404E-03 -0.1197815E-02
  0.1907143E+01  0.1120121E-03 -0.1678467E-03  0.2321398E+04  0.4043277E+04  0.9761053E-03  0.4577637E-04
  0.1938095E+01  0.1968271E-03 -0.9613037E-03  0.2272333E+04  0.4060977E+04  0.6160690E-03 -0.2937317E-03
  0.1969048E+01 -0.5347034E-03  0.1052856E-02  0.2225124E+04  0.4074309E+04 -0.4291189E-03  0.1342773E-02
  0.2000000E+01  0.2441406E-03 -0.1068115E-03  0.2179743E+04  0.4085049E+04  0.4167557E-03  0.1831055E-03
Zone t="Motion of body    1 in DoF   3",I=    64,F=POINT
  0.5000000E-01 -0.1277456E+05 -0.1152712E-03  0.1263618E-02  0.9040704E-06  0.2534199E+05  0.1128060E-03
  0.8095238E-01 -0.1288122E+05 -0.4814913E-03 -0.3136607E-03 -0.2662927E-05  0.2546411E+05  0.5361565E-03
  0.1119048E+00 -0.1292377E+05 -0.1327666E-02 -0.2173160E-03 -0.7743984E-06  0.2550261E+05  0.1399010E-02
  0.1428571E+00 -0.1295803E+05 -0.2993677E-02  0.2837181E-03  0.3466936E-05  0.2551606E+05  0.3192881E-02
  0.1738095E+00 -0.1296017E+05 -0.5823459E-02  0.4910770E-03  0.3528607E-05  0.2551868E+05  0.6107555E-02
  0.2047619E+00 -0.1297754E+05 -0.1083566E-01 -0.1047933E-02 -0.1631282E-04  0.2552134E+05  0.1139084E-01
  0.2357143E+00 -0.1297868E+05 -0.1915194E-01  0.1515186E-02  0.1894034E-04  0.2552772E+05  0.2023380E-01
  0.2666667E+00 -0.1298197E+05 -0.3267716E-01 -0.3790855E-03 -0.1648825E-04  0.2552864E+05  0.3450273E-01
  0.2976190E+00 -0.1298959E+05 -0.5478001E-01  0.2114868E-03 -0.1070197E-04  0.2553216E+05  0.5769005E-01
  0.3285715E+00 -0.1299660E+05 -0.9062269E-01  0.7372316E-03  0.5683803E-05  0.2553540E+05  0.9518058E-01
  0.3595238E+00 -0.1299689E+05 -0.1485324E+00  0.4138062E-03  0.7572235E-05  0.2554021E+05  0.1557183E+00
  0.3904762E+00 -0.1300545E+05 -0.2417926E+00 -0.5617374E-03 -0.2867309E-05  0.2554063E+05  0.2528302E+00
  0.4214286E+00 -0.1301440E+05 -0.3887810E+00 -0.2715547E-04 -0.2554175E-04  0.2554769E+05  0.4056464E+00
  0.4523810E+00 -0.1301835E+05 -0.6197601E+00 -0.1751849E-02 -0.1148428E-03  0.2555355E+05  0.6446444E+00
  0.4833333E+00 -0.1302820E+05 -0.9625996E+00 -0.3038603E-03 -0.3400305E-04  0.2556034E+05  0.9982043E+00
  0.5142857E+00 -0.1304132E+05 -0.1471466E+01 -0.1604027E-02 -0.1535863E-03  0.2557017E+05  0.1520305E+01
  0.5452381E+00 -0.1306430E+05 -0.2197100E+01 -0.1591678E-02 -0.2007037E-03  0.2558257E+05  0.2261656E+01
  0.5761905E+00 -0.1307159E+05 -0.3198742E+01 -0.1958027E-02 -0.2237950E-03  0.2559209E+05  0.3282912E+01
  0.6071429E+00 -0.1308150E+05 -0.4572982E+01 -0.9047563E-03 -0.1806766E-03  0.2560270E+05  0.4676766E+01
  0.6380953E+00 -0.1311059E+05 -0.6399392E+01 -0.1049184E-02 -0.1288690E-03  0.2562017E+05  0.6515650E+01
  0.6690477E+00 -0.1312752E+05 -0.8795580E+01 -0.3763110E-03 -0.5170703E-04  0.2563212E+05  0.8917316E+01
  0.7000000E+00 -0.1314564E+05 -0.1190898E+02 -0.2814702E-02 -0.4664212E-03  0.2564651E+05  0.1202013E+02
  0.7309524E+00 -0.1317360E+05 -0.1587233E+02 -0.9367752E-03 -0.2354085E-03  0.2566446E+05  0.1595309E+02
  0.7619048E+00 -0.1318670E+05 -0.2086670E+02 -0.1264214E-02 -0.3649443E-03  0.2567778E+05  0.2087842E+02
  0.7928572E+00 -0.1321279E+05 -0.2712321E+02 -0.1354389E-02 -0.4594177E-03  0.2569806E+05  0.2700016E+02
  0.8238096E+00 -0.1324435E+05 -0.3487725E+02 -0.4676863E-03 -0.1084208E-03  0.2571593E+05  0.3452211E+02
  0.8547620E+00 -0.1328089E+05 -0.4435933E+02  0.4752964E-03  0.2902746E-03  0.2574165E+05  0.4367528E+02
  0.8857143E+00 -0.1330323E+05 -0.5583843E+02 -0.2280512E-02 -0.4783869E-03  0.2576002E+05  0.5467739E+02
  0.9166667E+00 -0.1333218E+05 -0.6963886E+02  0.2913041E-04 -0.2014637E-03  0.2578248E+05  0.6782750E+02
  0.9476191E+00 -0.1336187E+05 -0.8613535E+02 -0.1857796E-02 -0.8067489E-03  0.2580353E+05  0.8339642E+02
  0.9785714E+00 -0.1340197E+05 -0.1057176E+03  0.1656748E-03  0.1147985E-03  0.2583177E+05  0.1017310E+03
  0.1009524E+01 -0.1343159E+05 -0.1287506E+03  0.1781662E-02  0.5456209E-03  0.2585042E+05  0.1230804E+03
  0.1040476E+01 -0.1347689E+05 -0.1557287E+03 -0.2126454E-03 -0.1482964E-03  0.2588218E+05  0.1479109E+03
  0.1071429E+01 -0.1350939E+05 -0.1870360E+03 -0.1075236E-02 -0.4616976E-03  0.2590370E+05  0.1764194E+03
  0.1102381E+01 -0.1355265E+05 -0.2232723E+03 -0.1155779E-02 -0.8833408E-03  0.2592804E+05  0.2090956E+03
  0.1133333E+01 -0.1359640E+05 -0.2647680E+03 -0.6731819E-03 -0.1976490E-03  0.2595942E+05  0.2462871E+03
  0.1164286E+01 -0.1362602E+05 -0.3119742E+03 -0.7208139E-04 -0.6556511E-03  0.2597712E+05  0.2881661E+03
  0.1195238E+01 -0.1366670E+05 -0.3657034E+03 -0.7276801E-03 -0.4675388E-03  0.2600609E+05  0.3353649E+03
  0.1226190E+01 -0.1370180E+05 -0.4264512E+03 -0.4044320E-03 -0.5893707E-03  0.2602695E+05  0.3880169E+03
  0.1257143E+01 -0.1373724E+05 -0.4947224E+03  0.9042566E-03  0.6031990E-03  0.2604570E+05  0.4464683E+03
  0.1288095E+01 -0.1379258E+05 -0.5717634E+03 -0.5182629E-03 -0.9646416E-03  0.2607276E+05  0.5116870E+03
  0.1319048E+01 -0.1383411E+05 -0.6570907E+03  0.7490302E-03  0.6890297E-03  0.2609507E+05  0.5832218E+03
  0.1350000E+01 -0.1386597E+05 -0.7515220E+03  0.1893220E-03 -0.7128716E-03  0.2610948E+05  0.6613724E+03
  0.1380952E+01 -0.1390718E+05 -0.8559478E+03  0.2734743E-03  0.2784729E-03  0.2613166E+05  0.7469023E+03
  0.1411905E+01 -0.1394403E+05 -0.9683136E+03 -0.2377592E-03 -0.4606247E-03  0.2614673E+05  0.8391192E+03
  0.1442857E+01 -0.1397340E+05 -0.1093183E+04  0.5552084E-04 -0.1564026E-03  0.2615718E+05  0.9388185E+03
  0.1473810E+01 -0.1400652E+05 -0.1229093E+04 -0.5073115E-03 -0.6189346E-03  0.2616412E+05  0.1045937E+04
  0.1504762E+01 -0.1403338E+05 -0.1376254E+04  0.1723857E-03  0.7543564E-03  0.2617315E+05  0.1160470E+04
  0.1535714E+01 -0.1404983E+05 -0.1534859E+04  0.4272461E-03  0.2021790E-03  0.2616959E+05  0.1281628E+04
  0.1566667E+01 -0.1406412E+05 -0.1705600E+04  0.8059562E-03  0.1140594E-02  0.2616508E+05  0.1410016E+04
  0.1597619E+01 -0.1408434E+05 -0.1888755E+04  0.4966497E-03  0.8106232E-03  0.2616324E+05  0.1545914E+04
  0.1628572E+01 -0.1409035E+05 -0.2083209E+04  0.1241450E-03  0.8640289E-03  0.2614854E+05  0.1687525E+04
  0.1659524E+01 -0.1409343E+05 -0.2289726E+04 -0.2666457E-03  0.2193451E-03  0.2613258E+05  0.1835380E+04
  0.1690476E+01 -0.1409316E+05 -0.2507313E+04  0.1421646E-02  0.2433777E-02  0.2610898E+05  0.1988407E+04
  0.1721429E+01 -0.1408979E+05 -0.2735704E+04  0.1023795E-02 -0.4653931E-03  0.2608584E+05  0.2146660E+04
  0.1752381E+01 -0.1407482E+05 -0.2973818E+04 -0.8010865E-03 -0.8640289E-03  0.2605783E+05  0.2308804E+04
  0.1783333E+01 -0.1404197E+05 -0.3219512E+04 -0.4235384E-03  0.4272461E-03  0.2601333E+05  0.2471612E+04
  0.1814286E+01 -0.1400801E+05 -0.3474080E+04 -0.6097509E-03 -0.2326965E-03  0.2597188E+05  0.2637735E+04
  0.1845238E+01 -0.1397249E+05 -0.3735797E+04  0.2646169E-03  0.7896423E-03  0.2592841E+05  0.2805015E+04
  0.1876190E+01 -0.1391898E+05 -0.4001901E+04  0.7766879E-03  0.1850128E-02  0.2587156E+05  0.2969652E+04
  0.1907143E+01 -0.1385896E+05 -0.4273035E+04  0.1064115E-02  0.1895905E-02  0.2581127E+05  0.3132578E+04
  0.1938095E+01 -0.1379456E+05 -0.4546905E+04 -0.5196236E-03 -0.1064301E-02  0.2574529E+05  0.3292456E+04
  0.1969048E+01 -0.1372837E+05 -0.4822021E+04 -0.5424527E-04 -0.1079559E-02  0.2567555E+05  0.3447792E+04
  0.2000000E+01 -0.1365274E+05 -0.5097152E+04  0.7820129E-03  0.1708984E-02  0.2560674E+05  0.3599860E+04
