VARIABLES="w (rad/s)"
"abs(F   1   1)" "angle(F   1   1)"
"abs(F   1   2)" "angle(F   1   2)"
"abs(F   1   3)" "angle(F   1   3)"
Zone t="Diffraction force - beta =   0.000 deg",I=    64,F=POINT
  0.5000000E-01  0.2909462E+03 -0.1570796E+01  0.4891618E+02 -0.3103959E+01  0.1674794E+03  0.1570797E+01
  0.8095238E-01  0.4760287E+03 -0.1570795E+01  0.1274184E+03 -0.3102744E+01  0.2754290E+03  0.1570797E+01
  0.1119048E+00  0.6668549E+03 -0.1570794E+01  0.2426020E+03 -0.3101103E+01  0.3852222E+03  0.1570798E+01
  0.1428571E+00  0.8630544E+03 -0.1570793E+01  0.3951229E+03 -0.3099006E+01  0.4979406E+03  0.1570799E+01
  0.1738095E+00  0.1068042E+04 -0.1570791E+01  0.5854026E+03 -0.3096288E+01  0.6148047E+03  0.1570801E+01
  0.2047619E+00  0.1281738E+04 -0.1570787E+01  0.8148721E+03 -0.3092876E+01  0.7375245E+03  0.1570803E+01
  0.2357143E+00  0.1512086E+04 -0.1570782E+01  0.1083591E+04 -0.3088489E+01  0.8671425E+03  0.1570807E+01
  0.2666667E+00  0.1756978E+04 -0.1570775E+01  0.1394875E+04 -0.3083166E+01  0.1005259E+04  0.1570812E+01
  0.2976190E+00  0.2022309E+04 -0.1570765E+01  0.1748620E+04 -0.3076422E+01  0.1154634E+04  0.1570820E+01
  0.3285715E+00  0.2314191E+04 -0.1570749E+01  0.2145307E+04 -0.3068212E+01  0.1316726E+04  0.1570832E+01
  0.3595238E+00  0.2636909E+04 -0.1570725E+01  0.2588886E+04 -0.3058271E+01  0.1493714E+04  0.1570850E+01
  0.3904762E+00  0.2985600E+04 -0.1570689E+01  0.3079588E+04 -0.3046388E+01  0.1688216E+04  0.1570876E+01
  0.4214286E+00  0.3377914E+04 -0.1570637E+01  0.3610204E+04 -0.3032861E+01  0.1901287E+04  0.1570916E+01
  0.4523810E+00  0.3810372E+04 -0.1570559E+01  0.4185940E+04 -0.3017115E+01  0.2134514E+04  0.1570973E+01
  0.4833333E+00  0.4281128E+04 -0.1570451E+01  0.4805390E+04 -0.3001056E+01  0.2384828E+04  0.1571053E+01
  0.5142857E+00  0.4785946E+04 -0.1570300E+01  0.5461736E+04 -0.2983476E+01  0.2655139E+04  0.1571165E+01
  0.5452381E+00  0.5336720E+04 -0.1570098E+01  0.6152300E+04 -0.2965566E+01  0.2940107E+04  0.1571314E+01
  0.5761905E+00  0.5924182E+04 -0.1569834E+01  0.6877270E+04 -0.2947670E+01  0.3241417E+04  0.1571510E+01
  0.6071429E+00  0.6526615E+04 -0.1569488E+01  0.7638543E+04 -0.2929255E+01  0.3560206E+04  0.1571762E+01
  0.6380953E+00  0.7158192E+04 -0.1569053E+01  0.8438326E+04 -0.2911579E+01  0.3883855E+04  0.1572079E+01
  0.6690477E+00  0.7828552E+04 -0.1568510E+01  0.9264562E+04 -0.2893658E+01  0.4213639E+04  0.1572474E+01
  0.7000000E+00  0.8521303E+04 -0.1567836E+01  0.1011299E+05 -0.2875248E+01  0.4551879E+04  0.1572963E+01
  0.7309524E+00  0.9237920E+04 -0.1567016E+01  0.1099612E+05 -0.2857291E+01  0.4899535E+04  0.1573553E+01
  0.7619048E+00  0.9969262E+04 -0.1566022E+01  0.1191164E+05 -0.2839534E+01  0.5254980E+04  0.1574263E+01
  0.7928572E+00  0.1070931E+05 -0.1564826E+01  0.1285015E+05 -0.2821707E+01  0.5611482E+04  0.1575111E+01
  0.8238096E+00  0.1148121E+05 -0.1563411E+01  0.1380838E+05 -0.2803847E+01  0.5966799E+04  0.1576112E+01
  0.8547620E+00  0.1227777E+05 -0.1561747E+01  0.1478326E+05 -0.2785986E+01  0.6316697E+04  0.1577286E+01
  0.8857143E+00  0.1309898E+05 -0.1559808E+01  0.1577332E+05 -0.2768196E+01  0.6673377E+04  0.1578647E+01
  0.9166667E+00  0.1392192E+05 -0.1557550E+01  0.1678040E+05 -0.2750620E+01  0.7031516E+04  0.1580213E+01
  0.9476191E+00  0.1475182E+05 -0.1554944E+01  0.1780433E+05 -0.2733355E+01  0.7394915E+04  0.1581998E+01
  0.9785714E+00  0.1558501E+05 -0.1551955E+01  0.1884178E+05 -0.2716364E+01  0.7745679E+04  0.1584029E+01
  0.1009524E+01  0.1643767E+05 -0.1548568E+01  0.1988777E+05 -0.2699579E+01  0.8085838E+04  0.1586321E+01
  0.1040476E+01  0.1730393E+05 -0.1544747E+01  0.2093553E+05 -0.2682887E+01  0.8424833E+04  0.1588884E+01
  0.1071429E+01  0.1817239E+05 -0.1540451E+01  0.2198011E+05 -0.2666208E+01  0.8745524E+04  0.1591745E+01
  0.1102381E+01  0.1906016E+05 -0.1535671E+01  0.2302632E+05 -0.2649832E+01  0.9070699E+04  0.1594893E+01
  0.1133333E+01  0.1993714E+05 -0.1530344E+01  0.2407097E+05 -0.2633733E+01  0.9375346E+04  0.1598362E+01
  0.1164286E+01  0.2081396E+05 -0.1524459E+01  0.2511859E+05 -0.2618156E+01  0.9674031E+04  0.1602138E+01
  0.1195238E+01  0.2167019E+05 -0.1517956E+01  0.2616392E+05 -0.2602985E+01  0.9974103E+04  0.1606212E+01
  0.1226190E+01  0.2249905E+05 -0.1510807E+01  0.2720315E+05 -0.2588113E+01  0.1024456E+05  0.1610624E+01
  0.1257143E+01  0.2330623E+05 -0.1502998E+01  0.2824478E+05 -0.2573203E+01  0.1050144E+05  0.1615356E+01
  0.1288095E+01  0.2413412E+05 -0.1494644E+01  0.2925550E+05 -0.2559299E+01  0.1073062E+05  0.1620389E+01
  0.1319048E+01  0.2493353E+05 -0.1485618E+01  0.3026172E+05 -0.2545262E+01  0.1093389E+05  0.1625736E+01
  0.1350000E+01  0.2571392E+05 -0.1475955E+01  0.3124969E+05 -0.2531429E+01  0.1112202E+05  0.1631340E+01
  0.1380952E+01  0.2645865E+05 -0.1465605E+01  0.3222120E+05 -0.2517964E+01  0.1130214E+05  0.1637166E+01
  0.1411905E+01  0.2687546E+05 -0.1455350E+01  0.3294953E+05 -0.2503736E+01  0.1146934E+05  0.1642219E+01
  0.1442857E+01  0.2752054E+05 -0.1443706E+01  0.3387907E+05 -0.2490946E+01  0.1160071E+05  0.1648311E+01
  0.1473810E+01  0.2811468E+05 -0.1431398E+01  0.3479068E+05 -0.2478631E+01  0.1171295E+05  0.1654473E+01
  0.1504762E+01  0.2863396E+05 -0.1418371E+01  0.3568281E+05 -0.2466732E+01  0.1178894E+05  0.1660685E+01
  0.1535714E+01  0.2909531E+05 -0.1404755E+01  0.3655632E+05 -0.2455365E+01  0.1184047E+05  0.1666850E+01
  0.1566667E+01  0.2949185E+05 -0.1390605E+01  0.3740633E+05 -0.2444335E+01  0.1186496E+05  0.1672906E+01
  0.1597619E+01  0.2980873E+05 -0.1375887E+01  0.3823162E+05 -0.2433516E+01  0.1186970E+05  0.1678807E+01
  0.1628572E+01  0.3003849E+05 -0.1360669E+01  0.3902753E+05 -0.2422851E+01  0.1182855E+05  0.1684470E+01
  0.1659524E+01  0.3019562E+05 -0.1345072E+01  0.3979814E+05 -0.2412584E+01  0.1177083E+05  0.1689774E+01
  0.1690476E+01  0.3027384E+05 -0.1329161E+01  0.4053927E+05 -0.2402612E+01  0.1169782E+05  0.1694586E+01
  0.1721429E+01  0.3024821E+05 -0.1312876E+01  0.4124974E+05 -0.2392883E+01  0.1159096E+05  0.1698829E+01
  0.1752381E+01  0.3013248E+05 -0.1296406E+01  0.4193087E+05 -0.2383607E+01  0.1146550E+05  0.1702378E+01
  0.1783333E+01  0.2991646E+05 -0.1279829E+01  0.4257905E+05 -0.2374687E+01  0.1131514E+05  0.1705104E+01
  0.1814286E+01  0.2960398E+05 -0.1263245E+01  0.4319633E+05 -0.2366201E+01  0.1115482E+05  0.1706936E+01
  0.1845238E+01  0.2918312E+05 -0.1246635E+01  0.4378325E+05 -0.2357964E+01  0.1098035E+05  0.1707871E+01
  0.1876190E+01  0.2864880E+05 -0.1230122E+01  0.4433428E+05 -0.2349899E+01  0.1077379E+05  0.1707650E+01
  0.1907143E+01  0.2801615E+05 -0.1213873E+01  0.4485288E+05 -0.2342209E+01  0.1056209E+05  0.1706330E+01
  0.1938095E+01  0.2728821E+05 -0.1198039E+01  0.4533659E+05 -0.2334945E+01  0.1035017E+05  0.1703807E+01
  0.1969048E+01  0.2645795E+05 -0.1182699E+01  0.4578404E+05 -0.2328003E+01  0.1012748E+05  0.1699988E+01
  0.2000000E+01  0.2552046E+05 -0.1167867E+01  0.4619467E+05 -0.2321215E+01  0.9895580E+04  0.1694895E+01
