VARIABLES="w (rad/s)"
"abs(F   1   1)" "angle(F   1   1)"
"abs(F   1   2)" "angle(F   1   2)"
"abs(F   1   3)" "angle(F   1   3)"
Zone t="Diffraction force - beta =   0.000 deg",I=    64,F=POINT
  0.5000000E-01  0.2964395E+04 -0.1570798E+01  0.2244309E+06 -0.1518904E-04  0.5400258E+04  0.1570799E+01
  0.8095238E-01  0.4847489E+04 -0.1570796E+01  0.2238648E+06 -0.4083154E-04  0.8831846E+04  0.1570797E+01
  0.1119048E+00  0.6774950E+04 -0.1570794E+01  0.2230315E+06 -0.8098434E-04  0.1234289E+05  0.1570802E+01
  0.1428571E+00  0.8767090E+04 -0.1570791E+01  0.2219340E+06 -0.1386932E-03  0.1595974E+05  0.1570802E+01
  0.1738095E+00  0.1083573E+05 -0.1570782E+01  0.2205723E+06 -0.2183914E-03  0.1972154E+05  0.1570806E+01
  0.2047619E+00  0.1302141E+05 -0.1570782E+01  0.2189446E+06 -0.3267064E-03  0.2367933E+05  0.1570809E+01
  0.2357143E+00  0.1534341E+05 -0.1570774E+01  0.2170555E+06 -0.4732538E-03  0.2789583E+05  0.1570822E+01
  0.2666667E+00  0.1784212E+05 -0.1570760E+01  0.2149064E+06 -0.6693477E-03  0.3241143E+05  0.1570833E+01
  0.2976190E+00  0.2054843E+05 -0.1570742E+01  0.2124976E+06 -0.9352785E-03  0.3729977E+05  0.1570851E+01
  0.3285715E+00  0.2349818E+05 -0.1570714E+01  0.2098400E+06 -0.1290048E-02  0.4263492E+05  0.1570877E+01
  0.3595238E+00  0.2676961E+05 -0.1570674E+01  0.2069366E+06 -0.1765968E-02  0.4851459E+05  0.1570917E+01
  0.3904762E+00  0.3036278E+05 -0.1570614E+01  0.2037959E+06 -0.2396594E-02  0.5495608E+05  0.1570980E+01
  0.4214286E+00  0.3434955E+05 -0.1570524E+01  0.2004471E+06 -0.3204169E-02  0.6210974E+05  0.1571069E+01
  0.4523810E+00  0.3872907E+05 -0.1570393E+01  0.1968732E+06 -0.4251713E-02  0.6997666E+05  0.1571199E+01
  0.4833333E+00  0.4353652E+05 -0.1570210E+01  0.1931496E+06 -0.5502313E-02  0.7854947E+05  0.1571384E+01
  0.5142857E+00  0.4876561E+05 -0.1569954E+01  0.1892195E+06 -0.7032952E-02  0.8783961E+05  0.1571639E+01
  0.5452381E+00  0.5432816E+05 -0.1569610E+01  0.1851798E+06 -0.8814850E-02  0.9774163E+05  0.1571982E+01
  0.5761905E+00  0.6024593E+05 -0.1569162E+01  0.1809921E+06 -0.1084849E-01  0.1082632E+06  0.1572432E+01
  0.6071429E+00  0.6653962E+05 -0.1568577E+01  0.1766501E+06 -0.1320169E-01  0.1193650E+06  0.1573015E+01
  0.6380953E+00  0.7312071E+05 -0.1567843E+01  0.1722576E+06 -0.1579918E-01  0.1309131E+06  0.1573750E+01
  0.6690477E+00  0.7995812E+05 -0.1566925E+01  0.1677354E+06 -0.1870803E-01  0.1428719E+06  0.1574668E+01
  0.7000000E+00  0.8707001E+05 -0.1565785E+01  0.1630984E+06 -0.2196333E-01  0.1553566E+06  0.1575808E+01
  0.7309524E+00  0.9440935E+05 -0.1564398E+01  0.1584698E+06 -0.2553035E-01  0.1681776E+06  0.1577195E+01
  0.7619048E+00  0.1020550E+06 -0.1562719E+01  0.1537560E+06 -0.2944827E-01  0.1813576E+06  0.1578874E+01
  0.7928572E+00  0.1099856E+06 -0.1560704E+01  0.1489507E+06 -0.3373447E-01  0.1949682E+06  0.1580889E+01
  0.8238096E+00  0.1180356E+06 -0.1558308E+01  0.1441792E+06 -0.3838526E-01  0.2086903E+06  0.1583285E+01
  0.8547620E+00  0.1263407E+06 -0.1555485E+01  0.1394086E+06 -0.4343266E-01  0.2229187E+06  0.1586109E+01
  0.8857143E+00  0.1348182E+06 -0.1552183E+01  0.1346059E+06 -0.4887983E-01  0.2373090E+06  0.1589412E+01
  0.9166667E+00  0.1435514E+06 -0.1548348E+01  0.1297508E+06 -0.5474372E-01  0.2521106E+06  0.1593247E+01
  0.9476191E+00  0.1524028E+06 -0.1543929E+01  0.1249996E+06 -0.6098783E-01  0.2668496E+06  0.1597666E+01
  0.9785714E+00  0.1615248E+06 -0.1538858E+01  0.1203025E+06 -0.6768211E-01  0.2819609E+06  0.1602737E+01
  0.1009524E+01  0.1707114E+06 -0.1533085E+01  0.1156233E+06 -0.7481226E-01  0.2969867E+06  0.1608511E+01
  0.1040476E+01  0.1800896E+06 -0.1526551E+01  0.1109523E+06 -0.8241813E-01  0.3122672E+06  0.1615047E+01
  0.1071429E+01  0.1894707E+06 -0.1519200E+01  0.1062916E+06 -0.9052421E-01  0.3275684E+06  0.1622400E+01
  0.1102381E+01  0.1988058E+06 -0.1510994E+01  0.1018494E+06 -0.9896339E-01  0.3425271E+06  0.1630607E+01
  0.1133333E+01  0.2082774E+06 -0.1501872E+01  0.9745889E+05 -0.1079774E+00  0.3577712E+06  0.1639734E+01
  0.1164286E+01  0.2176214E+06 -0.1491822E+01  0.9312486E+05 -0.1175023E+00  0.3724527E+06  0.1649786E+01
  0.1195238E+01  0.2270652E+06 -0.1480801E+01  0.8884522E+05 -0.1276058E+00  0.3870513E+06  0.1660807E+01
  0.1226190E+01  0.2363857E+06 -0.1468768E+01  0.8461080E+05 -0.1383434E+00  0.4012809E+06  0.1672840E+01
  0.1257143E+01  0.2451599E+06 -0.1455780E+01  0.8057748E+05 -0.1493924E+00  0.4143433E+06  0.1685829E+01
  0.1288095E+01  0.2540594E+06 -0.1441687E+01  0.7667594E+05 -0.1608442E+00  0.4274501E+06  0.1699930E+01
  0.1319048E+01  0.2624432E+06 -0.1426655E+01  0.7287263E+05 -0.1729822E+00  0.4396565E+06  0.1714971E+01
  0.1350000E+01  0.2703200E+06 -0.1410711E+01  0.6914857E+05 -0.1858337E+00  0.4507833E+06  0.1730926E+01
  0.1380952E+01  0.2778003E+06 -0.1393915E+01  0.6551162E+05 -0.1994894E+00  0.4611433E+06  0.1747732E+01
  0.1411905E+01  0.2843416E+06 -0.1376329E+01  0.6196250E+05 -0.2141175E+00  0.4702097E+06  0.1765342E+01
  0.1442857E+01  0.2903097E+06 -0.1358243E+01  0.5858331E+05 -0.2289600E+00  0.4777265E+06  0.1783433E+01
  0.1473810E+01  0.2955156E+06 -0.1339718E+01  0.5539224E+05 -0.2439832E+00  0.4837782E+06  0.1801959E+01
  0.1504762E+01  0.3000971E+06 -0.1320838E+01  0.5231266E+05 -0.2598285E+00  0.4887678E+06  0.1820855E+01
  0.1535714E+01  0.3037268E+06 -0.1301909E+01  0.4933746E+05 -0.2764136E+00  0.4918042E+06  0.1839775E+01
  0.1566667E+01  0.3064450E+06 -0.1283038E+01  0.4645972E+05 -0.2939998E+00  0.4932616E+06  0.1858664E+01
  0.1597619E+01  0.3083020E+06 -0.1264429E+01  0.4369143E+05 -0.3126902E+00  0.4933043E+06  0.1877286E+01
  0.1628572E+01  0.3091032E+06 -0.1246271E+01  0.4102438E+05 -0.3326927E+00  0.4917108E+06  0.1895488E+01
  0.1659524E+01  0.3088807E+06 -0.1228940E+01  0.3849484E+05 -0.3530208E+00  0.4883078E+06  0.1912825E+01
  0.1690476E+01  0.3076139E+06 -0.1212643E+01  0.3614013E+05 -0.3728093E+00  0.4830724E+06  0.1929080E+01
  0.1721429E+01  0.3056506E+06 -0.1197327E+01  0.3390479E+05 -0.3935442E+00  0.4769601E+06  0.1944450E+01
  0.1752381E+01  0.3029392E+06 -0.1183315E+01  0.3177323E+05 -0.4151049E+00  0.4696082E+06  0.1958494E+01
  0.1783333E+01  0.2993293E+06 -0.1170926E+01  0.2973844E+05 -0.4378892E+00  0.4606480E+06  0.1970857E+01
  0.1814286E+01  0.2951136E+06 -0.1160025E+01  0.2780411E+05 -0.4619510E+00  0.4508557E+06  0.1981779E+01
  0.1845238E+01  0.2903972E+06 -0.1150757E+01  0.2597448E+05 -0.4871348E+00  0.4404241E+06  0.1991068E+01
  0.1876190E+01  0.2850747E+06 -0.1143297E+01  0.2424188E+05 -0.5135390E+00  0.4292205E+06  0.1998620E+01
  0.1907143E+01  0.2792488E+06 -0.1137801E+01  0.2260373E+05 -0.5410385E+00  0.4172500E+06  0.2004152E+01
  0.1938095E+01  0.2729862E+06 -0.1134434E+01  0.2108139E+05 -0.5669549E+00  0.4044891E+06  0.2007339E+01
  0.1969048E+01  0.2665238E+06 -0.1132792E+01  0.1966564E+05 -0.5931246E+00  0.3916814E+06  0.2008969E+01
  0.2000000E+01  0.2598595E+06 -0.1132989E+01  0.1833893E+05 -0.6196418E+00  0.3788294E+06  0.2008905E+01
