VARIABLES="w (rad/s)"
"abs(F   1   1)" "angle(F   1   1)"
"abs(F   1   2)" "angle(F   1   2)"
"abs(F   1   3)" "angle(F   1   3)"
Zone t="Diffraction force - beta =   0.000 deg",I=    64,F=POINT
  0.5000000E-01  0.1165546E+04 -0.1570794E+01  0.5614211E+03 -0.3078430E+01  0.1205066E+04 -0.1570794E+01
  0.8095238E-01  0.1904091E+04 -0.1570791E+01  0.1450497E+04 -0.3075971E+01  0.1959840E+04 -0.1570789E+01
  0.1119048E+00  0.2654062E+04 -0.1570785E+01  0.2752830E+04 -0.3073155E+01  0.2731946E+04 -0.1570781E+01
  0.1428571E+00  0.3430085E+04 -0.1570776E+01  0.4468101E+04 -0.3069615E+01  0.3536206E+04 -0.1570769E+01
  0.1738095E+00  0.4229154E+04 -0.1570763E+01  0.6608902E+04 -0.3065233E+01  0.4364175E+04 -0.1570752E+01
  0.2047619E+00  0.5071589E+04 -0.1570744E+01  0.9182646E+04 -0.3059766E+01  0.5240210E+04 -0.1570727E+01
  0.2357143E+00  0.5958187E+04 -0.1570717E+01  0.1221710E+05 -0.3053001E+01  0.6167595E+04 -0.1570690E+01
  0.2666667E+00  0.6904298E+04 -0.1570676E+01  0.1570732E+05 -0.3044716E+01  0.7163024E+04 -0.1570636E+01
  0.2976190E+00  0.7926746E+04 -0.1570617E+01  0.1967874E+05 -0.3034356E+01  0.8240411E+04 -0.1570556E+01
  0.3285715E+00  0.9031850E+04 -0.1570529E+01  0.2417572E+05 -0.3022169E+01  0.9416622E+04 -0.1570437E+01
  0.3595238E+00  0.1023129E+05 -0.1570397E+01  0.2914070E+05 -0.3007244E+01  0.1069253E+05 -0.1570259E+01
  0.3904762E+00  0.1155251E+05 -0.1570200E+01  0.3461630E+05 -0.2989638E+01  0.1210675E+05 -0.1569994E+01
  0.4214286E+00  0.1300802E+05 -0.1569914E+01  0.4054373E+05 -0.2970115E+01  0.1368556E+05 -0.1569609E+01
  0.4523810E+00  0.1457337E+05 -0.1569494E+01  0.4695713E+05 -0.2947707E+01  0.1538066E+05 -0.1569042E+01
  0.4833333E+00  0.1627823E+05 -0.1568915E+01  0.5365576E+05 -0.2924832E+01  0.1726693E+05 -0.1568263E+01
  0.5142857E+00  0.1811321E+05 -0.1568117E+01  0.6068324E+05 -0.2900138E+01  0.1929763E+05 -0.1567187E+01
  0.5452381E+00  0.2002143E+05 -0.1567053E+01  0.6804769E+05 -0.2875871E+01  0.2136804E+05 -0.1565743E+01
  0.5761905E+00  0.2201121E+05 -0.1565679E+01  0.7564858E+05 -0.2852132E+01  0.2358521E+05 -0.1563882E+01
  0.6071429E+00  0.2409136E+05 -0.1563921E+01  0.8340181E+05 -0.2827601E+01  0.2594931E+05 -0.1561507E+01
  0.6380953E+00  0.2621971E+05 -0.1561748E+01  0.9135916E+05 -0.2804584E+01  0.2836347E+05 -0.1558559E+01
  0.6690477E+00  0.2837621E+05 -0.1559070E+01  0.9951218E+05 -0.2782178E+01  0.3080037E+05 -0.1554909E+01
  0.7000000E+00  0.3052583E+05 -0.1555803E+01  0.1078023E+06 -0.2759904E+01  0.3322436E+05 -0.1550430E+01
  0.7309524E+00  0.3266816E+05 -0.1551907E+01  0.1162090E+06 -0.2738593E+01  0.3570312E+05 -0.1545097E+01
  0.7619048E+00  0.3482411E+05 -0.1547316E+01  0.1246484E+06 -0.2717611E+01  0.3826500E+05 -0.1538827E+01
  0.7928572E+00  0.3695520E+05 -0.1541954E+01  0.1330771E+06 -0.2696862E+01  0.4079046E+05 -0.1531464E+01
  0.8238096E+00  0.3900939E+05 -0.1535733E+01  0.1415345E+06 -0.2676812E+01  0.4318006E+05 -0.1522824E+01
  0.8547620E+00  0.4096717E+05 -0.1528600E+01  0.1500386E+06 -0.2657787E+01  0.4544135E+05 -0.1512823E+01
  0.8857143E+00  0.4280672E+05 -0.1520507E+01  0.1585062E+06 -0.2639502E+01  0.4759976E+05 -0.1501429E+01
  0.9166667E+00  0.4451873E+05 -0.1511452E+01  0.1668777E+06 -0.2621732E+01  0.4963872E+05 -0.1488615E+01
  0.9476191E+00  0.4607068E+05 -0.1501407E+01  0.1750820E+06 -0.2604201E+01  0.5147757E+05 -0.1474254E+01
  0.9785714E+00  0.4744086E+05 -0.1490381E+01  0.1831214E+06 -0.2587157E+01  0.5307617E+05 -0.1458276E+01
  0.1009524E+01  0.4858381E+05 -0.1478367E+01  0.1910013E+06 -0.2570824E+01  0.5436613E+05 -0.1440552E+01
  0.1040476E+01  0.4946330E+05 -0.1465387E+01  0.1987245E+06 -0.2555465E+01  0.5526925E+05 -0.1420923E+01
  0.1071429E+01  0.5002288E+05 -0.1451457E+01  0.2062469E+06 -0.2540906E+01  0.5569205E+05 -0.1399177E+01
  0.1102381E+01  0.5022839E+05 -0.1436659E+01  0.2135552E+06 -0.2527124E+01  0.5561966E+05 -0.1375290E+01
  0.1133333E+01  0.5006741E+05 -0.1421183E+01  0.2205980E+06 -0.2513923E+01  0.5500788E+05 -0.1349197E+01
  0.1164286E+01  0.4950474E+05 -0.1405180E+01  0.2273767E+06 -0.2501379E+01  0.5383235E+05 -0.1320791E+01
  0.1195238E+01  0.4852775E+05 -0.1388893E+01  0.2338532E+06 -0.2489450E+01  0.5203045E+05 -0.1289748E+01
  0.1226190E+01  0.4709779E+05 -0.1372549E+01  0.2400030E+06 -0.2478007E+01  0.4953421E+05 -0.1255463E+01
  0.1257143E+01  0.4520734E+05 -0.1356248E+01  0.2458949E+06 -0.2467029E+01  0.4631050E+05 -0.1216693E+01
  0.1288095E+01  0.4282247E+05 -0.1341084E+01  0.2512772E+06 -0.2456950E+01  0.4233490E+05 -0.1173253E+01
  0.1319048E+01  0.3996224E+05 -0.1327077E+01  0.2563748E+06 -0.2447408E+01  0.3760186E+05 -0.1121514E+01
  0.1350000E+01  0.3660051E+05 -0.1315123E+01  0.2610872E+06 -0.2438530E+01  0.3209079E+05 -0.1056247E+01
  0.1380952E+01  0.3275560E+05 -0.1306627E+01  0.2653838E+06 -0.2430449E+01  0.2584047E+05 -0.9655596E+00
  0.1411905E+01  0.2885615E+05 -0.1300028E+01  0.2657898E+06 -0.2416898E+01  0.1986035E+05 -0.8319550E+00
  0.1442857E+01  0.2424165E+05 -0.1303976E+01  0.2692248E+06 -0.2409256E+01  0.1313216E+05 -0.5549864E+00
  0.1473810E+01  0.1920651E+05 -0.1324167E+01  0.2722334E+06 -0.2401995E+01  0.8376518E+04  0.1711544E+00
  0.1504762E+01  0.1383579E+05 -0.1381936E+01  0.2747982E+06 -0.2395348E+01  0.1129866E+05  0.1150430E+01
  0.1535714E+01  0.8307262E+04 -0.1557063E+01  0.2769108E+06 -0.2389140E+01  0.1965559E+05  0.1559849E+01
  0.1566667E+01  0.3942957E+04 -0.2343896E+01  0.2785528E+06 -0.2383432E+01  0.2980205E+05  0.1737274E+01
  0.1597619E+01  0.6628188E+04  0.2701527E+01  0.2797011E+06 -0.2378348E+01  0.4092479E+05  0.1839130E+01
  0.1628572E+01  0.1288292E+05  0.2411708E+01  0.2803430E+06 -0.2373801E+01  0.5274136E+05  0.1909123E+01
  0.1659524E+01  0.1978641E+05  0.2324471E+01  0.2804901E+06 -0.2369791E+01  0.6516209E+05  0.1962504E+01
  0.1690476E+01  0.2700023E+05  0.2289886E+01  0.2801391E+06 -0.2366205E+01  0.7809884E+05  0.2005937E+01
  0.1721429E+01  0.3441743E+05  0.2275927E+01  0.2792754E+06 -0.2363197E+01  0.9147534E+05  0.2042898E+01
  0.1752381E+01  0.4198111E+05  0.2271915E+01  0.2779182E+06 -0.2360649E+01  0.1051818E+06  0.2075590E+01
  0.1783333E+01  0.4963377E+05  0.2273096E+01  0.2760616E+06 -0.2358500E+01  0.1191724E+06  0.2104911E+01
  0.1814286E+01  0.5733732E+05  0.2276962E+01  0.2736562E+06 -0.2356903E+01  0.1333858E+06  0.2131320E+01
  0.1845238E+01  0.6504944E+05  0.2282396E+01  0.2707176E+06 -0.2355852E+01  0.1477419E+06  0.2155436E+01
  0.1876190E+01  0.7273480E+05  0.2288813E+01  0.2672381E+06 -0.2355325E+01  0.1621235E+06  0.2177973E+01
  0.1907143E+01  0.8034497E+05  0.2295747E+01  0.2632488E+06 -0.2355337E+01  0.1764810E+06  0.2198944E+01
  0.1938095E+01  0.8783851E+05  0.2302991E+01  0.2587673E+06 -0.2355775E+01  0.1907299E+06  0.2218745E+01
  0.1969048E+01  0.9517588E+05  0.2310181E+01  0.2537757E+06 -0.2356708E+01  0.2048150E+06  0.2237209E+01
  0.2000000E+01  0.1023416E+06  0.2317107E+01  0.2482539E+06 -0.2358340E+01  0.2186419E+06  0.2254537E+01
