VARIABLES="w (rad/s)"
"abs(F   1   1)" "angle(F   1   1)"
"abs(F   1   2)" "angle(F   1   2)"
"abs(F   1   3)" "angle(F   1   3)"
Zone t="Diffraction force - beta =   0.000 deg",I=    64,F=POINT
  0.5000000E-01  0.3272997E+04 -0.1570793E+01  0.1715472E+03 -0.3104743E+01  0.1189864E+05  0.1570800E+01
  0.8095238E-01  0.5360627E+04 -0.1570787E+01  0.4454714E+03 -0.3103653E+01  0.1946385E+05  0.1570806E+01
  0.1119048E+00  0.7478974E+04 -0.1570778E+01  0.8447715E+03 -0.3102233E+01  0.2711964E+05  0.1570815E+01
  0.1428571E+00  0.9677370E+04 -0.1570763E+01  0.1370146E+04 -0.3100474E+01  0.3504744E+05  0.1570829E+01
  0.1738095E+00  0.1194481E+05 -0.1570743E+01  0.2016070E+04 -0.3098194E+01  0.4322888E+05  0.1570850E+01
  0.2047619E+00  0.1433616E+05 -0.1570713E+01  0.2786173E+04 -0.3095355E+01  0.5184560E+05  0.1570880E+01
  0.2357143E+00  0.1688559E+05 -0.1570670E+01  0.3682109E+04 -0.3091856E+01  0.6093182E+05  0.1570924E+01
  0.2666667E+00  0.1959037E+05 -0.1570607E+01  0.4683734E+04 -0.3087500E+01  0.7060177E+05  0.1570987E+01
  0.2976190E+00  0.2254431E+05 -0.1570514E+01  0.5814705E+04 -0.3082171E+01  0.8110193E+05  0.1571081E+01
  0.3285715E+00  0.2573746E+05 -0.1570378E+01  0.7030331E+04 -0.3075653E+01  0.9238053E+05  0.1571218E+01
  0.3595238E+00  0.2927485E+05 -0.1570175E+01  0.8363904E+04 -0.3067959E+01  0.1048236E+06  0.1571423E+01
  0.3904762E+00  0.3312457E+05 -0.1569874E+01  0.9756209E+04 -0.3058679E+01  0.1184277E+06  0.1571726E+01
  0.4214286E+00  0.3744258E+05 -0.1569439E+01  0.1122291E+05 -0.3048627E+01  0.1333770E+06  0.1572165E+01
  0.4523810E+00  0.4211469E+05 -0.1568805E+01  0.1272692E+05 -0.3036683E+01  0.1495746E+06  0.1572805E+01
  0.4833333E+00  0.4724757E+05 -0.1567937E+01  0.1423773E+05 -0.3025018E+01  0.1673107E+06  0.1573679E+01
  0.5142857E+00  0.5282384E+05 -0.1566745E+01  0.1577574E+05 -0.3012499E+01  0.1865018E+06  0.1574879E+01
  0.5452381E+00  0.5876607E+05 -0.1565175E+01  0.1724378E+05 -0.2999761E+01  0.2066936E+06  0.1576461E+01
  0.5761905E+00  0.6515646E+05 -0.1563169E+01  0.1872826E+05 -0.2987967E+01  0.2281844E+06  0.1578484E+01
  0.6071429E+00  0.7174266E+05 -0.1560599E+01  0.2013013E+05 -0.2975405E+01  0.2502860E+06  0.1581071E+01
  0.6380953E+00  0.7866705E+05 -0.1557444E+01  0.2147294E+05 -0.2963886E+01  0.2735177E+06  0.1584242E+01
  0.6690477E+00  0.8602669E+05 -0.1553603E+01  0.2280812E+05 -0.2953035E+01  0.2976217E+06  0.1588111E+01
  0.7000000E+00  0.9346868E+05 -0.1548928E+01  0.2400390E+05 -0.2941651E+01  0.3216842E+06  0.1592820E+01
  0.7309524E+00  0.1012041E+06 -0.1543378E+01  0.2511417E+05 -0.2930785E+01  0.3466398E+06  0.1598400E+01
  0.7619048E+00  0.1093045E+06 -0.1536855E+01  0.2618526E+05 -0.2920568E+01  0.3723070E+06  0.1604966E+01
  0.7928572E+00  0.1174448E+06 -0.1529204E+01  0.2717279E+05 -0.2910678E+01  0.3981935E+06  0.1612641E+01
  0.8238096E+00  0.1257556E+06 -0.1520359E+01  0.2795967E+05 -0.2900267E+01  0.4239645E+06  0.1621524E+01
  0.8547620E+00  0.1342599E+06 -0.1510242E+01  0.2868253E+05 -0.2890424E+01  0.4496621E+06  0.1631702E+01
  0.8857143E+00  0.1431103E+06 -0.1498791E+01  0.2934434E+05 -0.2881057E+01  0.4760567E+06  0.1643219E+01
  0.9166667E+00  0.1517675E+06 -0.1485803E+01  0.2990115E+05 -0.2872204E+01  0.5015163E+06  0.1656263E+01
  0.9476191E+00  0.1604335E+06 -0.1471239E+01  0.3023704E+05 -0.2862841E+01  0.5266087E+06  0.1670877E+01
  0.9785714E+00  0.1691182E+06 -0.1455053E+01  0.3048889E+05 -0.2853731E+01  0.5513561E+06  0.1687099E+01
  0.1009524E+01  0.1778628E+06 -0.1437265E+01  0.3067349E+05 -0.2844979E+01  0.5756248E+06  0.1704929E+01
  0.1040476E+01  0.1864699E+06 -0.1417834E+01  0.3080390E+05 -0.2836602E+01  0.5988621E+06  0.1724399E+01
  0.1071429E+01  0.1946106E+06 -0.1396637E+01  0.3069743E+05 -0.2828457E+01  0.6195638E+06  0.1745684E+01
  0.1102381E+01  0.2026182E+06 -0.1373706E+01  0.3048080E+05 -0.2820139E+01  0.6397555E+06  0.1768659E+01
  0.1133333E+01  0.2101113E+06 -0.1349043E+01  0.3018712E+05 -0.2812052E+01  0.6573532E+06  0.1793409E+01
  0.1164286E+01  0.2173257E+06 -0.1322772E+01  0.2983662E+05 -0.2804197E+01  0.6735559E+06  0.1819759E+01
  0.1195238E+01  0.2239784E+06 -0.1294822E+01  0.2943432E+05 -0.2796387E+01  0.6879545E+06  0.1847712E+01
  0.1226190E+01  0.2296063E+06 -0.1265201E+01  0.2889502E+05 -0.2789395E+01  0.6985427E+06  0.1877316E+01
  0.1257143E+01  0.2342691E+06 -0.1233953E+01  0.2821203E+05 -0.2782112E+01  0.7062279E+06  0.1908453E+01
  0.1288095E+01  0.2386125E+06 -0.1201892E+01  0.2747363E+05 -0.2775305E+01  0.7121551E+06  0.1940456E+01
  0.1319048E+01  0.2417057E+06 -0.1168749E+01  0.2670520E+05 -0.2768470E+01  0.7133131E+06  0.1973637E+01
  0.1350000E+01  0.2441582E+06 -0.1134889E+01  0.2589202E+05 -0.2761689E+01  0.7124724E+06  0.2007475E+01
  0.1380952E+01  0.2454461E+06 -0.1100099E+01  0.2506097E+05 -0.2755009E+01  0.7084124E+06  0.2042159E+01
  0.1411905E+01  0.2446234E+06 -0.1064321E+01  0.2416201E+05 -0.2749415E+01  0.6989059E+06  0.2077401E+01
  0.1442857E+01  0.2433640E+06 -0.1028482E+01  0.2318179E+05 -0.2744327E+01  0.6869434E+06  0.2113070E+01
  0.1473810E+01  0.2413075E+06 -0.9925287E+00  0.2216084E+05 -0.2739193E+01  0.6734894E+06  0.2148720E+01
  0.1504762E+01  0.2380202E+06 -0.9571323E+00  0.2115353E+05 -0.2734285E+01  0.6555124E+06  0.2183952E+01
  0.1535714E+01  0.2339200E+06 -0.9221361E+00  0.2015597E+05 -0.2729544E+01  0.6355329E+06  0.2218790E+01
  0.1566667E+01  0.2291835E+06 -0.8877590E+00  0.1914797E+05 -0.2724985E+01  0.6145238E+06  0.2252841E+01
  0.1597619E+01  0.2231732E+06 -0.8535649E+00  0.1815593E+05 -0.2720429E+01  0.5905734E+06  0.2286660E+01
  0.1628572E+01  0.2162842E+06 -0.8202804E+00  0.1718169E+05 -0.2716901E+01  0.5643015E+06  0.2319469E+01
  0.1659524E+01  0.2086555E+06 -0.7881014E+00  0.1618794E+05 -0.2714320E+01  0.5362745E+06  0.2351263E+01
  0.1690476E+01  0.2006381E+06 -0.7567253E+00  0.1516959E+05 -0.2712434E+01  0.5085426E+06  0.2382219E+01
  0.1721429E+01  0.1921014E+06 -0.7265717E+00  0.1419619E+05 -0.2710495E+01  0.4798040E+06  0.2411823E+01
  0.1752381E+01  0.1830783E+06 -0.6978239E+00  0.1328082E+05 -0.2708820E+01  0.4499298E+06  0.2440006E+01
  0.1783333E+01  0.1739047E+06 -0.6702118E+00  0.1238547E+05 -0.2707741E+01  0.4207470E+06  0.2466866E+01
  0.1814286E+01  0.1646690E+06 -0.6438676E+00  0.1151533E+05 -0.2707199E+01  0.3925259E+06  0.2492376E+01
  0.1845238E+01  0.1549364E+06 -0.6184690E+00  0.1069144E+05 -0.2706883E+01  0.3635810E+06  0.2516952E+01
  0.1876190E+01  0.1451090E+06 -0.5944987E+00  0.9922045E+04 -0.2706713E+01  0.3349505E+06  0.2539920E+01
  0.1907143E+01  0.1351148E+06 -0.5718387E+00  0.9184737E+04 -0.2707497E+01  0.3063284E+06  0.2561508E+01
  0.1938095E+01  0.1252562E+06 -0.5499000E+00  0.8438644E+04 -0.2710825E+01  0.2793039E+06  0.2582593E+01
  0.1969048E+01  0.1155701E+06 -0.5287970E+00  0.7718542E+04 -0.2715027E+01  0.2537828E+06  0.2602984E+01
  0.2000000E+01  0.1058191E+06 -0.5093974E+00  0.7089362E+04 -0.2718228E+01  0.2280639E+06  0.2620794E+01
