VARIABLES="w (rad/s)"
"abs(F   1   1)" "angle(F   1   1)"
"abs(F   1   2)" "angle(F   1   2)"
"abs(F   1   3)" "angle(F   1   3)"
Zone t="Diffraction force - beta =   0.000 deg",I=    64,F=POINT
  0.5000000E-01  0.1802918E+04 -0.1570794E+01  0.4465774E+03 -0.3073292E+01  0.7112086E+03  0.1570797E+01
  0.8095238E-01  0.2947924E+04 -0.1570789E+01  0.1152119E+04 -0.3070542E+01  0.1165167E+04  0.1570798E+01
  0.1119048E+00  0.4112345E+04 -0.1570782E+01  0.2185052E+04 -0.3067466E+01  0.1617879E+04  0.1570800E+01
  0.1428571E+00  0.5312664E+04 -0.1570772E+01  0.3543617E+04 -0.3063591E+01  0.2087069E+04  0.1570802E+01
  0.1738095E+00  0.6557476E+04 -0.1570756E+01  0.5241602E+04 -0.3058886E+01  0.2549894E+04  0.1570806E+01
  0.2047619E+00  0.7867260E+04 -0.1570734E+01  0.7281781E+04 -0.3052992E+01  0.3041101E+04  0.1570811E+01
  0.2357143E+00  0.9240966E+04 -0.1570701E+01  0.9686873E+04 -0.3045706E+01  0.3555931E+04  0.1570818E+01
  0.2666667E+00  0.1072876E+05 -0.1570654E+01  0.1246131E+05 -0.3036875E+01  0.4056835E+04  0.1570827E+01
  0.2976190E+00  0.1232194E+05 -0.1570583E+01  0.1561339E+05 -0.3025755E+01  0.4623949E+04  0.1570839E+01
  0.3285715E+00  0.1403677E+05 -0.1570478E+01  0.1918343E+05 -0.3012702E+01  0.5230592E+04  0.1570857E+01
  0.3595238E+00  0.1594408E+05 -0.1570322E+01  0.2314458E+05 -0.2996831E+01  0.5795805E+04  0.1570879E+01
  0.3904762E+00  0.1803143E+05 -0.1570089E+01  0.2750790E+05 -0.2978082E+01  0.6445402E+04  0.1570908E+01
  0.4214286E+00  0.2031446E+05 -0.1569750E+01  0.3222090E+05 -0.2957212E+01  0.7152973E+04  0.1570943E+01
  0.4523810E+00  0.2278761E+05 -0.1569253E+01  0.3732902E+05 -0.2933305E+01  0.7889231E+04  0.1570983E+01
  0.4833333E+00  0.2550714E+05 -0.1568571E+01  0.4266402E+05 -0.2908935E+01  0.8606173E+04  0.1571012E+01
  0.5142857E+00  0.2844764E+05 -0.1567629E+01  0.4825465E+05 -0.2882581E+01  0.9358492E+04  0.1571025E+01
  0.5452381E+00  0.3150330E+05 -0.1566375E+01  0.5410857E+05 -0.2856694E+01  0.1020021E+05  0.1571006E+01
  0.5761905E+00  0.3471757E+05 -0.1564758E+01  0.6014512E+05 -0.2831372E+01  0.1094759E+05  0.1570898E+01
  0.6071429E+00  0.3811364E+05 -0.1562693E+01  0.6629555E+05 -0.2805177E+01  0.1164600E+05  0.1570661E+01
  0.6380953E+00  0.4163013E+05 -0.1560143E+01  0.7260775E+05 -0.2780622E+01  0.1232170E+05  0.1570227E+01
  0.6690477E+00  0.4520264E+05 -0.1556999E+01  0.7905842E+05 -0.2756655E+01  0.1298622E+05  0.1569513E+01
  0.7000000E+00  0.4879614E+05 -0.1553164E+01  0.8561298E+05 -0.2732818E+01  0.1365444E+05  0.1568431E+01
  0.7309524E+00  0.5243800E+05 -0.1548596E+01  0.9225382E+05 -0.2709977E+01  0.1416316E+05  0.1566736E+01
  0.7619048E+00  0.5616974E+05 -0.1543217E+01  0.9891262E+05 -0.2687489E+01  0.1451746E+05  0.1564170E+01
  0.7928572E+00  0.5993253E+05 -0.1536937E+01  0.1055498E+06 -0.2665214E+01  0.1481352E+05  0.1560529E+01
  0.8238096E+00  0.6361292E+05 -0.1529641E+01  0.1121977E+06 -0.2643640E+01  0.1510698E+05  0.1555583E+01
  0.8547620E+00  0.6720651E+05 -0.1521263E+01  0.1188742E+06 -0.2623153E+01  0.1539885E+05  0.1549030E+01
  0.8857143E+00  0.7067997E+05 -0.1511748E+01  0.1255172E+06 -0.2603439E+01  0.1549319E+05  0.1539961E+01
  0.9166667E+00  0.7404879E+05 -0.1501094E+01  0.1320717E+06 -0.2584219E+01  0.1548495E+05  0.1527983E+01
  0.9476191E+00  0.7724880E+05 -0.1489249E+01  0.1384814E+06 -0.2565231E+01  0.1536968E+05  0.1512286E+01
  0.9785714E+00  0.8028826E+05 -0.1476238E+01  0.1447520E+06 -0.2546786E+01  0.1520586E+05  0.1492280E+01
  0.1009524E+01  0.8304536E+05 -0.1461998E+01  0.1508758E+06 -0.2529012E+01  0.1499510E+05  0.1466999E+01
  0.1040476E+01  0.8548280E+05 -0.1446554E+01  0.1568642E+06 -0.2512243E+01  0.1480543E+05  0.1436145E+01
  0.1071429E+01  0.8750260E+05 -0.1429873E+01  0.1626878E+06 -0.2496330E+01  0.1476302E+05  0.1401051E+01
  0.1102381E+01  0.8903273E+05 -0.1412020E+01  0.1683321E+06 -0.2481172E+01  0.1467227E+05  0.1359141E+01
  0.1133333E+01  0.9012350E+05 -0.1393256E+01  0.1737670E+06 -0.2466656E+01  0.1469488E+05  0.1313567E+01
  0.1164286E+01  0.9067895E+05 -0.1373651E+01  0.1789819E+06 -0.2452779E+01  0.1475266E+05  0.1263520E+01
  0.1195238E+01  0.9069958E+05 -0.1353439E+01  0.1839492E+06 -0.2439497E+01  0.1496197E+05  0.1213219E+01
  0.1226190E+01  0.9011935E+05 -0.1332731E+01  0.1886535E+06 -0.2426783E+01  0.1540776E+05  0.1167910E+01
  0.1257143E+01  0.8887034E+05 -0.1311415E+01  0.1931382E+06 -0.2414440E+01  0.1605901E+05  0.1129390E+01
  0.1288095E+01  0.8696785E+05 -0.1290588E+01  0.1972294E+06 -0.2403197E+01  0.1686924E+05  0.1100454E+01
  0.1319048E+01  0.8440581E+05 -0.1269868E+01  0.2010927E+06 -0.2392474E+01  0.1786830E+05  0.1082838E+01
  0.1350000E+01  0.8114034E+05 -0.1249690E+01  0.2046522E+06 -0.2382378E+01  0.1901727E+05  0.1076815E+01
  0.1380952E+01  0.7721041E+05 -0.1230612E+01  0.2078826E+06 -0.2373149E+01  0.2033217E+05  0.1083542E+01
  0.1411905E+01  0.7221592E+05 -0.1214260E+01  0.2088628E+06 -0.2360337E+01  0.2207317E+05  0.1113926E+01
  0.1442857E+01  0.6708184E+05 -0.1198250E+01  0.2114259E+06 -0.2351685E+01  0.2370883E+05  0.1141787E+01
  0.1473810E+01  0.6133636E+05 -0.1184919E+01  0.2136503E+06 -0.2343533E+01  0.2549141E+05  0.1178825E+01
  0.1504762E+01  0.5505583E+05 -0.1175655E+01  0.2155403E+06 -0.2336009E+01  0.2747685E+05  0.1224893E+01
  0.1535714E+01  0.4825355E+05 -0.1172080E+01  0.2170759E+06 -0.2328966E+01  0.2963881E+05  0.1277296E+01
  0.1566667E+01  0.4100566E+05 -0.1177473E+01  0.2182468E+06 -0.2322539E+01  0.3202704E+05  0.1335099E+01
  0.1597619E+01  0.3337671E+05 -0.1198297E+01  0.2190367E+06 -0.2316700E+01  0.3461036E+05  0.1396119E+01
  0.1628572E+01  0.2549196E+05 -0.1249025E+01  0.2194567E+06 -0.2311442E+01  0.3744614E+05  0.1459535E+01
  0.1659524E+01  0.1755581E+05 -0.1370177E+01  0.2194973E+06 -0.2306769E+01  0.4057282E+05  0.1524014E+01
  0.1690476E+01  0.1029557E+05 -0.1717572E+01  0.2191522E+06 -0.2302489E+01  0.4396529E+05  0.1588050E+01
  0.1721429E+01  0.7611272E+04 -0.2707730E+01  0.2184342E+06 -0.2298936E+01  0.4767113E+05  0.1651114E+01
  0.1752381E+01  0.1320017E+05  0.2854986E+01  0.2173267E+06 -0.2295979E+01  0.5163735E+05  0.1712068E+01
  0.1783333E+01  0.2148596E+05  0.2627482E+01  0.2158661E+06 -0.2293234E+01  0.5591996E+05  0.1770813E+01
  0.1814286E+01  0.3038933E+05  0.2536841E+01  0.2139889E+06 -0.2291210E+01  0.6048216E+05  0.1826755E+01
  0.1845238E+01  0.3950479E+05  0.2493510E+01  0.2116980E+06 -0.2289809E+01  0.6525688E+05  0.1879944E+01
  0.1876190E+01  0.4867345E+05  0.2471153E+01  0.2090292E+06 -0.2289016E+01  0.7022854E+05  0.1930253E+01
  0.1907143E+01  0.5779425E+05  0.2459578E+01  0.2060056E+06 -0.2288761E+01  0.7543781E+05  0.1977722E+01
  0.1938095E+01  0.6682010E+05  0.2453761E+01  0.2025841E+06 -0.2288959E+01  0.8085414E+05  0.2022294E+01
  0.1969048E+01  0.7569386E+05  0.2451517E+01  0.1987842E+06 -0.2289859E+01  0.8641748E+05  0.2064080E+01
  0.2000000E+01  0.8439057E+05  0.2451329E+01  0.1945942E+06 -0.2291571E+01  0.9204403E+05  0.2103115E+01
