VARIABLES="w (rad/s)"
"abs(F   1   1)" "angle(F   1   1)"
"abs(F   1   2)" "angle(F   1   2)"
"abs(F   1   3)" "angle(F   1   3)"
Zone t="Diffraction force - beta =   0.000 deg",I=    64,F=POINT
  0.5000000E-01  0.8909324E+03 -0.1570807E+01  0.2126574E+06 -0.1455439E-04  0.1420862E+02 -0.1571258E+01
  0.8095238E-01  0.1452768E+04 -0.1570813E+01  0.2123744E+06 -0.3917227E-04  0.2317921E+02 -0.1571077E+01
  0.1119048E+00  0.2026548E+04 -0.1570795E+01  0.2119582E+06 -0.7783554E-04  0.3243696E+02 -0.1571013E+01
  0.1428571E+00  0.2623879E+04 -0.1570784E+01  0.2114086E+06 -0.1335724E-03  0.4211671E+02 -0.1570953E+01
  0.1738095E+00  0.3244283E+04 -0.1570783E+01  0.2107245E+06 -0.2109742E-03  0.5209327E+02 -0.1570905E+01
  0.2047619E+00  0.3903431E+04 -0.1570790E+01  0.2099047E+06 -0.3166164E-03  0.6296490E+02 -0.1570891E+01
  0.2357143E+00  0.4598458E+04 -0.1570788E+01  0.2089481E+06 -0.4603383E-03  0.7441992E+02 -0.1570873E+01
  0.2666667E+00  0.5352938E+04 -0.1570786E+01  0.2078523E+06 -0.6542156E-03  0.8686954E+02 -0.1570862E+01
  0.2976190E+00  0.6172508E+04 -0.1570776E+01  0.2066175E+06 -0.9183999E-03  0.1008566E+03 -0.1570843E+01
  0.3285715E+00  0.7064721E+04 -0.1570770E+01  0.2052404E+06 -0.1274128E-02  0.1160286E+03 -0.1570831E+01
  0.3595238E+00  0.8049386E+04 -0.1570757E+01  0.2037242E+06 -0.1754293E-02  0.1327563E+03 -0.1570809E+01
  0.3904762E+00  0.9146804E+04 -0.1570738E+01  0.2020663E+06 -0.2396778E-02  0.1518848E+03 -0.1570781E+01
  0.4214286E+00  0.1035714E+05 -0.1570713E+01  0.2002793E+06 -0.3226835E-02  0.1733376E+03 -0.1570747E+01
  0.4523810E+00  0.1168487E+05 -0.1570671E+01  0.1983569E+06 -0.4308918E-02  0.1970579E+03 -0.1570705E+01
  0.4833333E+00  0.1315172E+05 -0.1570612E+01  0.1963184E+06 -0.5620167E-02  0.2236122E+03 -0.1570641E+01
  0.5142857E+00  0.1475158E+05 -0.1570535E+01  0.1941660E+06 -0.7235278E-02  0.2541582E+03 -0.1570559E+01
  0.5452381E+00  0.1645237E+05 -0.1570426E+01  0.1919038E+06 -0.9136876E-02  0.2848189E+03 -0.1570450E+01
  0.5761905E+00  0.1825019E+05 -0.1570287E+01  0.1895417E+06 -0.1133517E-01  0.3184142E+03 -0.1570307E+01
  0.6071429E+00  0.2017876E+05 -0.1570104E+01  0.1870841E+06 -0.1389509E-01  0.3562892E+03 -0.1570123E+01
  0.6380953E+00  0.2220737E+05 -0.1569872E+01  0.1845306E+06 -0.1676391E-01  0.3962770E+03 -0.1569889E+01
  0.6690477E+00  0.2431082E+05 -0.1569584E+01  0.1818970E+06 -0.2000904E-01  0.4389637E+03 -0.1569598E+01
  0.7000000E+00  0.2647758E+05 -0.1569224E+01  0.1791845E+06 -0.2367031E-01  0.4818528E+03 -0.1569237E+01
  0.7309524E+00  0.2873370E+05 -0.1568787E+01  0.1763921E+06 -0.2772820E-01  0.5279188E+03 -0.1568798E+01
  0.7619048E+00  0.3108439E+05 -0.1568255E+01  0.1735400E+06 -0.3222813E-01  0.5786289E+03 -0.1568266E+01
  0.7928572E+00  0.3352468E+05 -0.1567618E+01  0.1706305E+06 -0.3719305E-01  0.6332673E+03 -0.1567628E+01
  0.8238096E+00  0.3603282E+05 -0.1566860E+01  0.1676715E+06 -0.4263838E-01  0.6894924E+03 -0.1566871E+01
  0.8547620E+00  0.3858188E+05 -0.1565967E+01  0.1646689E+06 -0.4857758E-01  0.7455662E+03 -0.1565975E+01
  0.8857143E+00  0.4116773E+05 -0.1564920E+01  0.1616285E+06 -0.5502824E-01  0.8045021E+03 -0.1564927E+01
  0.9166667E+00  0.4384182E+05 -0.1563705E+01  0.1585516E+06 -0.6200413E-01  0.8689619E+03 -0.1563713E+01
  0.9476191E+00  0.4659241E+05 -0.1562309E+01  0.1554574E+06 -0.6952156E-01  0.9360325E+03 -0.1562318E+01
  0.9785714E+00  0.4940809E+05 -0.1560709E+01  0.1523507E+06 -0.7758827E-01  0.1006086E+04 -0.1560719E+01
  0.1009524E+01  0.5226466E+05 -0.1558888E+01  0.1492414E+06 -0.8621743E-01  0.1080845E+04 -0.1558900E+01
  0.1040476E+01  0.5516486E+05 -0.1556830E+01  0.1461235E+06 -0.9541167E-01  0.1159478E+04 -0.1556839E+01
  0.1071429E+01  0.5807942E+05 -0.1554514E+01  0.1430045E+06 -0.1051765E+00  0.1236881E+04 -0.1554519E+01
  0.1102381E+01  0.6099676E+05 -0.1551925E+01  0.1398909E+06 -0.1155228E+00  0.1314650E+04 -0.1551923E+01
  0.1133333E+01  0.6394408E+05 -0.1549057E+01  0.1367891E+06 -0.1264601E+00  0.1396603E+04 -0.1549057E+01
  0.1164286E+01  0.6692127E+05 -0.1545901E+01  0.1337066E+06 -0.1380009E+00  0.1485047E+04 -0.1545917E+01
  0.1195238E+01  0.6993240E+05 -0.1542450E+01  0.1306432E+06 -0.1501393E+00  0.1578188E+04 -0.1542482E+01
  0.1226190E+01  0.7295564E+05 -0.1538693E+01  0.1276021E+06 -0.1628720E+00  0.1673816E+04 -0.1538726E+01
  0.1257143E+01  0.7594197E+05 -0.1534611E+01  0.1245946E+06 -0.1763566E+00  0.1769764E+04 -0.1534651E+01
  0.1288095E+01  0.7895032E+05 -0.1530235E+01  0.1216201E+06 -0.1901473E+00  0.1869125E+04 -0.1530279E+01
  0.1319048E+01  0.8188630E+05 -0.1525532E+01  0.1186833E+06 -0.2046931E+00  0.1969433E+04 -0.1525562E+01
  0.1350000E+01  0.8474416E+05 -0.1520514E+01  0.1157826E+06 -0.2198362E+00  0.2070010E+04 -0.1520511E+01
  0.1380952E+01  0.8753456E+05 -0.1515201E+01  0.1129085E+06 -0.2355611E+00  0.2171861E+04 -0.1515145E+01
  0.1411905E+01  0.9007205E+05 -0.1509891E+01  0.1100990E+06 -0.2517349E+00  0.2261649E+04 -0.1509836E+01
  0.1442857E+01  0.9271416E+05 -0.1504146E+01  0.1073058E+06 -0.2686888E+00  0.2365318E+04 -0.1504094E+01
  0.1473810E+01  0.9525926E+05 -0.1498226E+01  0.1045597E+06 -0.2862595E+00  0.2468747E+04 -0.1498237E+01
  0.1504762E+01  0.9770152E+05 -0.1492173E+01  0.1018612E+06 -0.3044373E+00  0.2573281E+04 -0.1492208E+01
  0.1535714E+01  0.1000072E+06 -0.1486023E+01  0.9921855E+05 -0.3232381E+00  0.2678869E+04 -0.1486021E+01
  0.1566667E+01  0.1021669E+06 -0.1479825E+01  0.9662062E+05 -0.3426393E+00  0.2784398E+04 -0.1479788E+01
  0.1597619E+01  0.1041726E+06 -0.1473643E+01  0.9406655E+05 -0.3626399E+00  0.2889596E+04 -0.1473554E+01
  0.1628572E+01  0.1060112E+06 -0.1467568E+01  0.9155748E+05 -0.3832396E+00  0.2993121E+04 -0.1467512E+01
  0.1659524E+01  0.1076791E+06 -0.1461700E+01  0.8909909E+05 -0.4044548E+00  0.3091833E+04 -0.1461643E+01
  0.1690476E+01  0.1091500E+06 -0.1456108E+01  0.8669335E+05 -0.4262790E+00  0.3185287E+04 -0.1456111E+01
  0.1721429E+01  0.1104299E+06 -0.1450875E+01  0.8433855E+05 -0.4487063E+00  0.3275212E+04 -0.1450932E+01
  0.1752381E+01  0.1115120E+06 -0.1446079E+01  0.8203727E+05 -0.4717369E+00  0.3362926E+04 -0.1446085E+01
  0.1783333E+01  0.1123804E+06 -0.1441790E+01  0.7978959E+05 -0.4953753E+00  0.3448411E+04 -0.1441691E+01
  0.1814286E+01  0.1130476E+06 -0.1438120E+01  0.7758657E+05 -0.5196271E+00  0.3530815E+04 -0.1438033E+01
  0.1845238E+01  0.1135178E+06 -0.1435178E+01  0.7542992E+05 -0.5444822E+00  0.3609802E+04 -0.1435060E+01
  0.1876190E+01  0.1137886E+06 -0.1433037E+01  0.7332084E+05 -0.5699313E+00  0.3683238E+04 -0.1432926E+01
  0.1907143E+01  0.1138666E+06 -0.1431769E+01  0.7125982E+05 -0.5959710E+00  0.3749376E+04 -0.1431729E+01
  0.1938095E+01  0.1137493E+06 -0.1431434E+01  0.6924930E+05 -0.6226119E+00  0.3809759E+04 -0.1431380E+01
  0.1969048E+01  0.1134466E+06 -0.1432103E+01  0.6728727E+05 -0.6498816E+00  0.3863174E+04 -0.1432052E+01
  0.2000000E+01  0.1129748E+06 -0.1433856E+01  0.6537130E+05 -0.6777565E+00  0.3912971E+04 -0.1433838E+01
