VARIABLES="w (rad/s)"
"A   1   1" "B   1   1"
"A   1   2" "B   1   2"
"A   1   3" "B   1   3"
Zone t="Motion of body    1 in DoF   1",I=    64,F=POINT
  0.5000000E-01  0.1968499E+05  0.5581123E-03 -0.2121925E-02 -0.6753014E-05  0.2443832E+03  0.8950704E-05
  0.8095238E-01  0.1972594E+05  0.2396589E-02 -0.4347072E-02 -0.1245535E-04  0.2445670E+03  0.3923458E-04
  0.1119048E+00  0.1970052E+05  0.6744557E-02 -0.1401901E-02 -0.6183050E-05  0.2457410E+03  0.1077876E-03
  0.1428571E+00  0.1977756E+05  0.1521126E-01  0.6608962E-03  0.1698873E-04  0.2478342E+03  0.2443008E-03
  0.1738095E+00  0.1977552E+05  0.3030987E-01 -0.2507510E-02  0.1243861E-05  0.2459884E+03  0.4859769E-03
  0.2047619E+00  0.1985170E+05  0.5606792E-01 -0.1788472E-02 -0.3371664E-04  0.2488548E+03  0.9039341E-03
  0.2357143E+00  0.1982827E+05  0.9880792E-01 -0.1484842E-02 -0.9298674E-05  0.2485023E+03  0.1598127E-02
  0.2666667E+00  0.1988932E+05  0.1690188E+00 -0.1670122E-02 -0.1378730E-04  0.2486582E+03  0.2743423E-02
  0.2976190E+00  0.1994878E+05  0.2841977E+00 -0.7241821E-03 -0.2416532E-04  0.2521217E+03  0.4647110E-02
  0.3285715E+00  0.1996394E+05  0.4712070E+00 -0.3616498E-02 -0.1399766E-03  0.2529132E+03  0.7740133E-02
  0.3595238E+00  0.1999379E+05  0.7756860E+00  0.3618152E-02  0.1044492E-03  0.2526501E+03  0.1279122E-01
  0.3904762E+00  0.2007810E+05  0.1269191E+01 -0.2784264E-02 -0.1466123E-03  0.2553933E+03  0.2107181E-01
  0.4214286E+00  0.2013721E+05  0.2048758E+01  0.1176737E-03 -0.4786067E-04  0.2583038E+03  0.3427675E-01
  0.4523810E+00  0.2016443E+05  0.3276295E+01 -0.8643300E-03 -0.8159224E-04  0.2600985E+03  0.5524172E-01
  0.4833333E+00  0.2025576E+05  0.5117428E+01  0.1101000E-02 -0.1853425E-04  0.2631994E+03  0.8701073E-01
  0.5142857E+00  0.2038062E+05  0.7866541E+01  0.1387066E-02  0.3311057E-03  0.2714194E+03  0.1355536E+00
  0.5452381E+00  0.2044165E+05  0.1179542E+02 -0.1010978E-02 -0.4187971E-04  0.2701429E+03  0.2042367E+00
  0.5761905E+00  0.2047119E+05  0.1726410E+02 -0.3439375E-02 -0.5875416E-03  0.2706996E+03  0.3012561E+00
  0.6071429E+00  0.2060129E+05  0.2484569E+02  0.1991721E-02  0.3688782E-03  0.2768830E+03  0.4386452E+00
  0.6380953E+00  0.2074699E+05  0.3498293E+02  0.4148910E-02  0.3157556E-03  0.2819274E+03  0.6242666E+00
  0.6690477E+00  0.2085982E+05  0.4839785E+02  0.4720993E-02  0.6622821E-03  0.2871684E+03  0.8738966E+00
  0.7000000E+00  0.2093511E+05  0.6592022E+02  0.2261570E-02  0.4431903E-03  0.2874292E+03  0.1199705E+01
  0.7309524E+00  0.2104217E+05  0.8844507E+02 -0.4529921E-02 -0.9192526E-03  0.2898395E+03  0.1624903E+01
  0.7619048E+00  0.2119315E+05  0.1171987E+03 -0.1166582E-02  0.4565716E-04  0.2963532E+03  0.2181226E+01
  0.7928572E+00  0.2137939E+05  0.1535262E+03  0.1457833E-02  0.6785989E-03  0.3050372E+03  0.2899480E+01
  0.8238096E+00  0.2156457E+05  0.1988764E+03 -0.1282664E-02 -0.3881156E-03  0.3119583E+03  0.3804888E+01
  0.8547620E+00  0.2171489E+05  0.2548017E+03  0.1146959E-02  0.3293157E-03  0.3146415E+03  0.4924007E+01
  0.8857143E+00  0.2183665E+05  0.3231576E+03 -0.3570433E-02 -0.9620190E-03  0.3177130E+03  0.6315825E+01
  0.9166667E+00  0.2200943E+05  0.4063584E+03 -0.1581365E-03  0.2443790E-03  0.3249002E+03  0.8053915E+01
  0.9476191E+00  0.2221789E+05  0.5067892E+03  0.9540577E-03  0.5419254E-03  0.3322468E+03  0.1017709E+02
  0.9785714E+00  0.2244951E+05  0.6271334E+03  0.3243328E-02  0.1165628E-02  0.3400787E+03  0.1276439E+02
  0.1009524E+01  0.2267772E+05  0.7701515E+03 -0.3827833E-02 -0.1792550E-02  0.3498860E+03  0.1591939E+02
  0.1040476E+01  0.2291340E+05  0.9391025E+03 -0.1396860E-02 -0.4119873E-03  0.3605945E+03  0.1973097E+02
  0.1071429E+01  0.2313105E+05  0.1137008E+04  0.5945842E-03 -0.4246235E-03  0.3673452E+03  0.2421332E+02
  0.1102381E+01  0.2332703E+05  0.1367239E+04  0.2007041E-03  0.3530979E-03  0.3723153E+03  0.2947795E+02
  0.1133333E+01  0.2353406E+05  0.1633696E+04  0.2706191E-02  0.2503872E-02  0.3788570E+03  0.3568895E+02
  0.1164286E+01  0.2375620E+05  0.1940147E+04 -0.2234523E-02  0.1573563E-04  0.3888631E+03  0.4303742E+02
  0.1195238E+01  0.2400386E+05  0.2290861E+04  0.3485205E-02  0.3191948E-02  0.4005735E+03  0.5165111E+02
  0.1226190E+01  0.2426104E+05  0.2689787E+04 -0.2588365E-02 -0.7081032E-03  0.4124119E+03  0.6165659E+02
  0.1257143E+01  0.2448983E+05  0.3140558E+04  0.1535416E-02  0.4183292E-02  0.4227858E+03  0.7311711E+02
  0.1288095E+01  0.2474920E+05  0.3647414E+04 -0.1486674E-02 -0.1549244E-02  0.4343636E+03  0.8626804E+02
  0.1319048E+01  0.2496377E+05  0.4213555E+04  0.2249983E-02  0.5874634E-03  0.4447578E+03  0.1012724E+03
  0.1350000E+01  0.2514040E+05  0.4841354E+04  0.1977991E-03 -0.2651215E-03  0.4537180E+03  0.1182561E+03
  0.1380952E+01  0.2529522E+05  0.5534492E+04  0.1209917E-02  0.5020142E-02  0.4621128E+03  0.1374294E+03
  0.1411905E+01  0.2531065E+05  0.6259542E+04  0.9834585E-03 -0.3728867E-03  0.4615838E+03  0.1572994E+03
  0.1442857E+01  0.2542982E+05  0.7080356E+04  0.1316637E-02  0.3705025E-02  0.4697708E+03  0.1807704E+03
  0.1473810E+01  0.2552316E+05  0.7966913E+04 -0.2847157E-02  0.1008987E-02  0.4774003E+03  0.2064916E+03
  0.1504762E+01  0.2559438E+05  0.8919035E+04 -0.1328384E-02  0.7953644E-03  0.4850247E+03  0.2348617E+03
  0.1535714E+01  0.2562346E+05  0.9934668E+04 -0.9538517E-03  0.5149841E-04  0.4923802E+03  0.2661454E+03
  0.1566667E+01  0.2561355E+05  0.1101098E+05  0.7061248E-03 -0.2325058E-02  0.4991115E+03  0.3001906E+03
  0.1597619E+01  0.2556389E+05  0.1214449E+05  0.1814682E-03  0.3131866E-02  0.5054187E+03  0.3371457E+03
  0.1628572E+01  0.2547045E+05  0.1332736E+05 -0.4122550E-03  0.3377914E-02  0.5106642E+03  0.3765002E+03
  0.1659524E+01  0.2533601E+05  0.1455103E+05  0.2206723E-02  0.1863480E-02  0.5134675E+03  0.4180376E+03
  0.1690476E+01  0.2514976E+05  0.1580615E+05 -0.4197241E-03  0.2481461E-02  0.5140911E+03  0.4613805E+03
  0.1721429E+01  0.2492130E+05  0.1708572E+05  0.1019363E-03  0.2845764E-02  0.5131843E+03  0.5066889E+03
  0.1752381E+01  0.2464790E+05  0.1838129E+05 -0.6878895E-03  0.3816605E-02  0.5114244E+03  0.5544368E+03
  0.1783333E+01  0.2432330E+05  0.1968289E+05 -0.8599112E-03 -0.3890991E-03  0.5087706E+03  0.6044401E+03
  0.1814286E+01  0.2396001E+05  0.2097988E+05 -0.2010075E-02 -0.5950928E-03  0.5050298E+03  0.6557258E+03
  0.1845238E+01  0.2356179E+05  0.2226025E+05  0.9137554E-03 -0.1373291E-02  0.5004924E+03  0.7085148E+03
  0.1876190E+01  0.2312826E+05  0.2351354E+05 -0.3143349E-02 -0.3051758E-03  0.4942012E+03  0.7617361E+03
  0.1907143E+01  0.2266483E+05  0.2473164E+05  0.7240782E-03  0.6126404E-02  0.4855710E+03  0.8147755E+03
  0.1938095E+01  0.2216991E+05  0.2590554E+05 -0.2157226E-02  0.1094818E-02  0.4756382E+03  0.8681819E+03
  0.1969048E+01  0.2164820E+05  0.2702941E+05 -0.1561489E-02  0.1258850E-02  0.4637168E+03  0.9211736E+03
  0.2000000E+01  0.2111016E+05  0.2809591E+05  0.9536743E-03 -0.7553101E-03  0.4514523E+03  0.9739700E+03
Zone t="Motion of body    1 in DoF   2",I=    64,F=POINT
  0.5000000E-01 -0.1921654E-02  0.3747642E-05  0.3352810E+05  0.6190640E+02 -0.6771088E-03 -0.1601875E-05
  0.8095238E-01 -0.3304482E-02  0.1031160E-04  0.3330468E+05  0.1027707E+03 -0.7362926E-03 -0.2071261E-05
  0.1119048E+00 -0.6702707E-02 -0.5602837E-05  0.3319293E+05  0.1474342E+03 -0.6135981E-03 -0.3844500E-05
  0.1428571E+00 -0.4095554E-02 -0.1403689E-04  0.3313752E+05  0.1976742E+03 -0.6742477E-03 -0.7390976E-05
  0.1738095E+00  0.2770881E-02 -0.1651049E-04  0.3314809E+05  0.2557870E+03 -0.8779029E-03 -0.8642673E-05
  0.2047619E+00  0.2123811E-02  0.7632375E-04  0.3321105E+05  0.3245695E+03 -0.9035509E-03 -0.1865625E-04
  0.2357143E+00 -0.1780192E-02 -0.2956390E-04  0.3330710E+05  0.4080558E+03 -0.1003381E-02 -0.8821487E-05
  0.2666667E+00 -0.4055500E-02 -0.4136562E-04  0.3344914E+05  0.5098980E+03 -0.8511543E-03 -0.1871586E-04
  0.2976190E+00  0.2464142E-02  0.4655123E-04  0.3360492E+05  0.6375299E+03 -0.4998780E-03 -0.2491474E-04
  0.3285715E+00 -0.2008521E-02 -0.5531311E-04  0.3379494E+05  0.7957665E+03 -0.9229908E-03 -0.2932549E-04
  0.3595238E+00  0.7851708E-03 -0.1311302E-04  0.3397716E+05  0.9938756E+03 -0.1145925E-02 -0.3075600E-04
  0.3904762E+00  0.4835826E-03 -0.7116795E-04  0.3417124E+05  0.1239957E+04 -0.4933520E-03 -0.4148483E-04
  0.4214286E+00 -0.6322698E-02 -0.6091595E-04  0.3429862E+05  0.1532948E+04 -0.6879385E-03 -0.2861023E-04
  0.4523810E+00  0.5734092E-02 -0.1623631E-03  0.3441828E+05  0.1888427E+04 -0.1332333E-02 -0.7581711E-04
  0.4833333E+00 -0.7931939E-03  0.1163483E-03  0.3445404E+05  0.2281305E+04 -0.5130110E-03 -0.1072884E-03
  0.5142857E+00 -0.2818638E-02 -0.5245209E-04  0.3442879E+05  0.2729384E+04 -0.3263686E-03 -0.7629395E-04
  0.5452381E+00 -0.4022923E-03  0.3073215E-03  0.3435237E+05  0.3212479E+04 -0.6996388E-03 -0.5674362E-04
  0.5761905E+00 -0.3022280E-02 -0.1387596E-03  0.3421489E+05  0.3723856E+04 -0.8275685E-03 -0.1392365E-03
  0.6071429E+00 -0.3336289E-02 -0.2622604E-03  0.3403094E+05  0.4274637E+04 -0.3895479E-03 -0.1702309E-03
  0.6380953E+00 -0.7114126E-03 -0.1115799E-03  0.3381887E+05  0.4838201E+04 -0.5798909E-03 -0.2346039E-03
  0.6690477E+00  0.2457425E-02  0.9951591E-03  0.3355698E+05  0.5426663E+04 -0.1003496E-02 -0.2155304E-03
  0.7000000E+00 -0.1504080E-02  0.7662773E-03  0.3326162E+05  0.6041347E+04 -0.5340576E-03 -0.2164841E-03
  0.7309524E+00  0.4749111E-03 -0.2889633E-03  0.3294955E+05  0.6667922E+04 -0.8193522E-03 -0.2441406E-03
  0.7619048E+00 -0.1431942E-02 -0.1029968E-03  0.3259902E+05  0.7310239E+04 -0.7460117E-03 -0.2927780E-03
  0.7928572E+00 -0.7120767E-03  0.8583069E-04  0.3222248E+05  0.7965323E+04 -0.7553787E-03 -0.2975464E-03
  0.8238096E+00 -0.5741891E-02  0.2803802E-03  0.3181911E+05  0.8628934E+04 -0.7779336E-03 -0.2765656E-03
  0.8547620E+00  0.5203714E-02  0.1754761E-03  0.3139243E+05  0.9296774E+04  0.6248028E-04 -0.3080368E-03
  0.8857143E+00 -0.7739529E-02 -0.4558563E-03  0.3094576E+05  0.9965662E+04 -0.5900475E-03 -0.3042221E-03
  0.9166667E+00 -0.4952170E-03  0.1385689E-02  0.3049082E+05  0.1063122E+05 -0.5950928E-03 -0.4844666E-03
  0.9476191E+00 -0.1167412E-03 -0.2403259E-03  0.3001478E+05  0.1129164E+05 -0.4186582E-03 -0.5874634E-03
  0.9785714E+00  0.2377921E-03 -0.9727478E-04  0.2952238E+05  0.1194291E+05 -0.4132125E-03 -0.6103516E-03
  0.1009524E+01 -0.5335538E-02  0.1926422E-03  0.2901218E+05  0.1258284E+05 -0.1473697E-03 -0.5645752E-03
  0.1040476E+01 -0.8432489E-04  0.3643036E-03  0.2849961E+05  0.1320658E+05 -0.7332599E-03 -0.7457733E-03
  0.1071429E+01 -0.9328207E-03  0.2994537E-03  0.2798377E+05  0.1381125E+05 -0.4913330E-03 -0.4825592E-03
  0.1102381E+01  0.2173142E-02  0.1907349E-04  0.2746298E+05  0.1439533E+05 -0.4567750E-03 -0.5798340E-03
  0.1133333E+01 -0.5250819E-03  0.8563995E-03  0.2693862E+05  0.1495675E+05 -0.1952227E-03 -0.5073547E-03
  0.1164286E+01  0.6716675E-03  0.1176834E-02  0.2641416E+05  0.1549446E+05 -0.4718055E-03 -0.7801056E-03
  0.1195238E+01 -0.2904337E-02 -0.9994507E-03  0.2589570E+05  0.1600539E+05 -0.1276632E-03 -0.6599426E-03
  0.1226190E+01 -0.1935052E-02  0.3528595E-03  0.2538450E+05  0.1648680E+05 -0.4666523E-03 -0.9937286E-03
  0.1257143E+01  0.3550269E-03 -0.4825592E-03  0.2487737E+05  0.1695344E+05 -0.7403980E-03 -0.8754730E-03
  0.1288095E+01 -0.1217177E-02 -0.2365112E-02  0.2437137E+05  0.1736230E+05 -0.4205334E-03 -0.8811951E-03
  0.1319048E+01  0.2082246E-03  0.3519058E-02  0.2387303E+05  0.1775432E+05 -0.6304579E-03 -0.6065369E-03
  0.1350000E+01  0.9324815E-03 -0.8811951E-03  0.2338509E+05  0.1811378E+05 -0.7403338E-03 -0.1201630E-02
  0.1380952E+01 -0.1823162E-03 -0.2332687E-02  0.2291361E+05  0.1843800E+05 -0.4696024E-03 -0.1081467E-02
  0.1411905E+01 -0.1591366E-02 -0.2140045E-02  0.2245676E+05  0.1874449E+05 -0.1458977E-03 -0.1089096E-02
  0.1442857E+01 -0.6926886E-03  0.1632690E-02  0.2201081E+05  0.1900533E+05 -0.3172620E-03 -0.7400513E-03
  0.1473810E+01  0.4658984E-04  0.1031876E-02  0.2157877E+05  0.1923420E+05 -0.4400151E-03 -0.1279831E-02
  0.1504762E+01  0.5779990E-03 -0.2613068E-02  0.2115909E+05  0.1943138E+05 -0.1926664E-03 -0.1108170E-02
  0.1535714E+01 -0.2682708E-03  0.1607895E-02  0.2074962E+05  0.1960003E+05 -0.4669899E-03 -0.1203537E-02
  0.1566667E+01  0.3360180E-03 -0.4940033E-02  0.2035769E+05  0.1973649E+05  0.3895861E-04 -0.1266479E-02
  0.1597619E+01 -0.2208658E-02 -0.3082275E-02  0.1998273E+05  0.1984187E+05 -0.1671417E-03 -0.1264572E-02
  0.1628572E+01 -0.3543987E-02 -0.5397797E-03  0.1962454E+05  0.1991476E+05 -0.3232454E-03 -0.1575470E-02
  0.1659524E+01 -0.1579186E-02 -0.2309799E-02  0.1928130E+05  0.1996051E+05  0.1425175E-03 -0.1230240E-02
  0.1690476E+01 -0.2850062E-02  0.2828598E-02  0.1895388E+05  0.1997799E+05 -0.4061846E-04 -0.1367569E-02
  0.1721429E+01 -0.7312822E-03 -0.2088547E-02  0.1864114E+05  0.1996853E+05 -0.8420826E-04 -0.1354218E-02
  0.1752381E+01 -0.9142835E-03  0.3492355E-02  0.1834159E+05  0.1993443E+05 -0.8707462E-04 -0.1285553E-02
  0.1783333E+01  0.7829042E-03  0.1296997E-03  0.1805568E+05  0.1987586E+05 -0.1283450E-04 -0.1600266E-02
  0.1814286E+01 -0.1583250E-02 -0.3362656E-02  0.1778854E+05  0.1979288E+05 -0.1303605E-03 -0.1291275E-02
  0.1845238E+01 -0.3514444E-02  0.6637573E-03  0.1753827E+05  0.1968744E+05 -0.2811555E-03 -0.1533508E-02
  0.1876190E+01  0.8376843E-03  0.7076263E-03  0.1730387E+05  0.1955847E+05  0.5693000E-04 -0.1295090E-02
  0.1907143E+01  0.1318142E-02  0.7629395E-04  0.1708316E+05  0.1941051E+05  0.4000432E-04 -0.1428604E-02
  0.1938095E+01  0.3660985E-03 -0.1062393E-02  0.1687507E+05  0.1924229E+05  0.2952407E-03 -0.1655579E-02
  0.1969048E+01  0.2925370E-03 -0.2305984E-02  0.1668200E+05  0.1905638E+05  0.3099730E-04 -0.1678467E-02
  0.2000000E+01 -0.2452850E-02 -0.9641647E-03  0.1650159E+05  0.1885350E+05  0.1258850E-03 -0.1251221E-02
Zone t="Motion of body    1 in DoF   3",I=    64,F=POINT
  0.5000000E-01  0.2494273E+03  0.9116952E-05 -0.6002188E-03 -0.2367520E-05  0.3268477E+03  0.2604636E-06
  0.8095238E-01  0.2496973E+03  0.4017885E-04  0.4992064E-03 -0.8977831E-06  0.3282440E+03  0.6097396E-06
  0.1119048E+00  0.2509329E+03  0.1114456E-03 -0.3073317E-03 -0.4746077E-05  0.3231639E+03  0.1461999E-05
  0.1428571E+00  0.2534640E+03  0.2527599E-03 -0.2470016E-03 -0.4740917E-05  0.3262404E+03  0.4302556E-05
  0.1738095E+00  0.2512128E+03  0.5052224E-03  0.1329886E-02  0.6550738E-05  0.3256009E+03  0.9015082E-05
  0.2047619E+00  0.2541426E+03  0.9357799E-03 -0.8581405E-03 -0.1558750E-04  0.3260815E+03  0.1462553E-04
  0.2357143E+00  0.2540590E+03  0.1653887E-02  0.1547553E-03 -0.4692808E-05  0.3267863E+03  0.2619148E-04
  0.2666667E+00  0.2537189E+03  0.2847218E-02  0.4470348E-05 -0.9886111E-05  0.3258691E+03  0.4909900E-04
  0.2976190E+00  0.2573174E+03  0.4812957E-02 -0.8972168E-04 -0.1240735E-04  0.3254170E+03  0.8086870E-04
  0.3285715E+00  0.2585373E+03  0.8018303E-02 -0.3591827E-03 -0.2364079E-04  0.3266552E+03  0.1327994E-03
  0.3595238E+00  0.2577594E+03  0.1327413E-01  0.1810402E-03 -0.1251149E-04  0.3253345E+03  0.2217220E-03
  0.3904762E+00  0.2604078E+03  0.2186138E-01  0.1263909E-03 -0.1937752E-04  0.3252972E+03  0.3588301E-03
  0.4214286E+00  0.2637086E+03  0.3552203E-01 -0.1500340E-02 -0.1048143E-03  0.3262545E+03  0.5869470E-03
  0.4523810E+00  0.2656209E+03  0.5722069E-01 -0.9892363E-03 -0.1014111E-03  0.3257741E+03  0.9560712E-03
  0.4833333E+00  0.2687863E+03  0.9009289E-01  0.4148483E-03 -0.2460837E-04  0.3267753E+03  0.1527361E-02
  0.5142857E+00  0.2775006E+03  0.1395762E+00  0.3017982E-03 -0.2627718E-04  0.3265465E+03  0.2400792E-02
  0.5452381E+00  0.2759993E+03  0.2111824E+00  0.9270215E-04 -0.5093764E-04  0.3271783E+03  0.3640533E-02
  0.5761905E+00  0.2765100E+03  0.3119585E+00 -0.4204048E-03 -0.1413037E-03  0.3271755E+03  0.5435328E-02
  0.6071429E+00  0.2826931E+03  0.4529295E+00  0.1185922E-03 -0.7370184E-04  0.3261449E+03  0.7998856E-02
  0.6380953E+00  0.2880298E+03  0.6441434E+00  0.1058151E-02  0.6213959E-04  0.3279046E+03  0.1148807E-01
  0.6690477E+00  0.2935021E+03  0.9002554E+00 -0.6236215E-03 -0.2197223E-03  0.3278797E+03  0.1623926E-01
  0.7000000E+00  0.2934140E+03  0.1239762E+01  0.3562655E-03 -0.7821107E-04  0.3268090E+03  0.2257114E-01
  0.7309524E+00  0.2960374E+03  0.1682336E+01 -0.3705351E-03 -0.2935529E-03  0.3280743E+03  0.3092160E-01
  0.7619048E+00  0.3026996E+03  0.2253726E+01 -0.7253587E-03 -0.3356705E-03  0.3284415E+03  0.4197336E-01
  0.7928572E+00  0.3114093E+03  0.2985394E+01 -0.1320109E-02 -0.6216276E-03  0.3277239E+03  0.5643560E-01
  0.8238096E+00  0.3187015E+03  0.3915356E+01 -0.5678221E-03 -0.4205341E-03  0.3284986E+03  0.7488602E-01
  0.8547620E+00  0.3213748E+03  0.5081942E+01 -0.5377766E-03 -0.4600333E-03  0.3292245E+03  0.9823126E-01
  0.8857143E+00  0.3244850E+03  0.6530034E+01 -0.5399796E-03 -0.4462078E-03  0.3292908E+03  0.1276293E+00
  0.9166667E+00  0.3316399E+03  0.8315268E+01  0.4255121E-03 -0.1164414E-03  0.3283720E+03  0.1645501E+00
  0.9476191E+00  0.3392482E+03  0.1050803E+02 -0.4121167E-03 -0.5061552E-03  0.3287998E+03  0.2108895E+00
  0.9785714E+00  0.3472376E+03  0.1317816E+02 -0.2845709E-03 -0.4709885E-03  0.3301655E+03  0.2680453E+00
  0.1009524E+01  0.3572495E+03  0.1639888E+02 -0.3802327E-03 -0.6947853E-03  0.3310129E+03  0.3393636E+00
  0.1040476E+01  0.3681415E+03  0.2027462E+02 -0.6810151E-03 -0.9052604E-03  0.3307185E+03  0.4259723E+00
  0.1071429E+01  0.3747224E+03  0.2491366E+02  0.3716151E-03 -0.1881756E-03  0.3302252E+03  0.5304974E+00
  0.1102381E+01  0.3802113E+03  0.3045074E+02  0.2975958E-03 -0.3703013E-03  0.3307157E+03  0.6569251E+00
  0.1133333E+01  0.3870031E+03  0.3693302E+02  0.4577637E-03 -0.1092851E-03  0.3318301E+03  0.8089190E+00
  0.1164286E+01  0.3972526E+03  0.4447291E+02 -0.1540740E-02 -0.1945779E-02  0.3325996E+03  0.9844703E+00
  0.1195238E+01  0.4089920E+03  0.5325846E+02 -0.5186316E-04 -0.5174503E-03  0.3322382E+03  0.1199218E+01
  0.1226190E+01  0.4204593E+03  0.6344442E+02  0.2426592E-03 -0.3406703E-03  0.3318798E+03  0.1449385E+01
  0.1257143E+01  0.4312929E+03  0.7526041E+02  0.9103254E-05 -0.8945763E-03  0.3326870E+03  0.1751615E+01
  0.1288095E+01  0.4433877E+03  0.8877936E+02  0.1109083E-02  0.7321686E-03  0.3344038E+03  0.2102070E+01
  0.1319048E+01  0.4540299E+03  0.1042250E+03  0.3036609E-04 -0.1006082E-02  0.3352718E+03  0.2510108E+01
  0.1350000E+01  0.4629429E+03  0.1217314E+03 -0.1914413E-03 -0.8943379E-03  0.3357370E+03  0.2982733E+01
  0.1380952E+01  0.4713786E+03  0.1416202E+03 -0.4150457E-03 -0.1556545E-02  0.3350986E+03  0.3525142E+01
  0.1411905E+01  0.4503540E+03  0.1567390E+03  0.3309716E-03 -0.5138516E-03  0.3325886E+03  0.3941308E+01
  0.1442857E+01  0.4586709E+03  0.1803837E+03 -0.3536149E-03 -0.1536876E-02  0.3328968E+03  0.4582868E+01
  0.1473810E+01  0.4671655E+03  0.2065254E+03  0.9906811E-03  0.8600354E-03  0.3341625E+03  0.5334165E+01
  0.1504762E+01  0.4748955E+03  0.2351164E+03  0.6895427E-03 -0.4309714E-03  0.3355679E+03  0.6202866E+01
  0.1535714E+01  0.4819353E+03  0.2664297E+03 -0.1869202E-03 -0.1801193E-02  0.3360557E+03  0.7154414E+01
  0.1566667E+01  0.4884713E+03  0.3003920E+03 -0.4017607E-03 -0.1686871E-02  0.3367758E+03  0.8218525E+01
  0.1597619E+01  0.4947319E+03  0.3372683E+03 -0.3760689E-04 -0.1230419E-02  0.3364322E+03  0.9369224E+01
  0.1628572E+01  0.4998475E+03  0.3763096E+03 -0.1903166E-03 -0.1619875E-02  0.3363594E+03  0.1058407E+02
  0.1659524E+01  0.5027868E+03  0.4182206E+03  0.5028340E-03 -0.9793043E-04  0.3365993E+03  0.1192510E+02
  0.1690476E+01  0.5041672E+03  0.4626116E+03  0.1483702E-03 -0.1267552E-02  0.3374119E+03  0.1340065E+02
  0.1721429E+01  0.5034812E+03  0.5088870E+03 -0.7977625E-04 -0.1597285E-02  0.3387748E+03  0.1515427E+02
  0.1752381E+01  0.5014982E+03  0.5573361E+03  0.4462574E-04 -0.1739144E-02  0.3393234E+03  0.1691653E+02
  0.1783333E+01  0.4982792E+03  0.6072709E+03  0.4695286E-03  0.2791882E-03  0.3397737E+03  0.1881710E+02
  0.1814286E+01  0.4942183E+03  0.6582627E+03 -0.3364143E-04 -0.1291037E-02  0.3399274E+03  0.2070510E+02
  0.1845238E+01  0.4892725E+03  0.7105981E+03  0.2744367E-03 -0.1252890E-03  0.3389544E+03  0.2259960E+02
  0.1876190E+01  0.4824738E+03  0.7632479E+03  0.3537793E-03 -0.3402352E-02  0.3383011E+03  0.2441417E+02
  0.1907143E+01  0.4737796E+03  0.8169041E+03  0.4180451E-03 -0.2141476E-02  0.3380996E+03  0.2650089E+02
  0.1938095E+01  0.4641614E+03  0.8713568E+03  0.5024013E-03  0.6997585E-04  0.3383120E+03  0.2886544E+02
  0.1969048E+01  0.4526335E+03  0.9262238E+03  0.3099730E-03 -0.2032638E-02  0.3392830E+03  0.3140392E+02
  0.2000000E+01  0.4400978E+03  0.9794389E+03  0.2932549E-03 -0.3109574E-02  0.3405495E+03  0.3424161E+02
