VARIABLES="w (rad/s)"
"A   1   1" "B   1   1"
"A   1   2" "B   1   2"
"A   1   3" "B   1   3"
Zone t="Motion of body    1 in DoF   1",I=    64,F=POINT
  0.5000000E-01  0.4863250E+05  0.3096904E-02 -0.9918213E-03 -0.6378246E-05  0.2174568E+05  0.2228089E-02
  0.8095238E-01  0.4886070E+05  0.1359716E-01  0.8010864E-03  0.1755045E-04  0.2164808E+05  0.9746582E-02
  0.1119048E+00  0.4897787E+05  0.3822042E-01 -0.4908785E-02 -0.2791174E-04  0.2173710E+05  0.2737254E-01
  0.1428571E+00  0.4902156E+05  0.8590144E-01  0.3044128E-02  0.6441399E-04  0.2179539E+05  0.6174748E-01
  0.1738095E+00  0.4908982E+05  0.1710048E+00 -0.6057530E-02  0.3118417E-04  0.2184888E+05  0.1231975E+00
  0.2047619E+00  0.4912774E+05  0.3152626E+00 -0.1229575E-01 -0.1523513E-03  0.2190467E+05  0.2275226E+00
  0.2357143E+00  0.4925852E+05  0.5550880E+00 -0.3689852E-02 -0.3346242E-04  0.2208611E+05  0.4020925E+00
  0.2666667E+00  0.4929105E+05  0.9462780E+00  0.3032684E-02  0.4256144E-05  0.2205825E+05  0.6873931E+00
  0.2976190E+00  0.4935485E+05  0.1585675E+01 -0.8613281E-02 -0.2316218E-03  0.2215036E+05  0.1156183E+01
  0.3285715E+00  0.4953057E+05  0.2623112E+01 -0.7058848E-02 -0.2457313E-03  0.2239277E+05  0.1921999E+01
  0.3595238E+00  0.4962968E+05  0.4303297E+01 -0.9931349E-02 -0.1270324E-04  0.2245597E+05  0.3165526E+01
  0.3904762E+00  0.4968110E+05  0.7006181E+01 -0.2797941E-01 -0.9797364E-03  0.2249429E+05  0.5177188E+01
  0.4214286E+00  0.4986774E+05  0.1125886E+02  0.4924192E-02  0.6768107E-03  0.2273780E+05  0.8369891E+01
  0.4523810E+00  0.5010767E+05  0.1794274E+02  0.1349198E-01  0.8299947E-03  0.2304848E+05  0.1342238E+02
  0.4833333E+00  0.5022278E+05  0.2786116E+02  0.5177465E-02  0.6448627E-03  0.2311407E+05  0.2095460E+02
  0.5142857E+00  0.5040396E+05  0.4255505E+02 -0.1311408E-01 -0.1110494E-02  0.2335662E+05  0.3221822E+02
  0.5452381E+00  0.5068245E+05  0.6347813E+02  0.3806035E-02  0.1638770E-02  0.2369666E+05  0.4840570E+02
  0.5761905E+00  0.5092460E+05  0.9243761E+02  0.3177863E-03  0.1027703E-02  0.2390249E+05  0.7094946E+02
  0.6071429E+00  0.5115143E+05  0.1320823E+03  0.9198356E-02  0.1479387E-02  0.2411637E+05  0.1020687E+03
  0.6380953E+00  0.5139415E+05  0.1845089E+03 -0.1425216E-01 -0.1894951E-02  0.2437248E+05  0.1436309E+03
  0.6690477E+00  0.5170646E+05  0.2533377E+03 -0.5564842E-02  0.3623962E-04  0.2475523E+05  0.1988241E+03
  0.7000000E+00  0.5206691E+05  0.3426199E+03 -0.3138951E-02  0.1476288E-02  0.2515960E+05  0.2710937E+03
  0.7309524E+00  0.5241548E+05  0.4560489E+03 -0.5260554E-02 -0.4386902E-03  0.2546715E+05  0.3636281E+03
  0.7619048E+00  0.5273104E+05  0.5987339E+03 -0.6488800E-02 -0.8440018E-03  0.2576806E+05  0.4812500E+03
  0.7928572E+00  0.5307643E+05  0.7762393E+03 -0.6928314E-03  0.1197815E-02  0.2615185E+05  0.6292858E+03
  0.8238096E+00  0.5348498E+05  0.9946913E+03 -0.6149380E-02 -0.2368927E-02  0.2665052E+05  0.8137626E+03
  0.8547620E+00  0.5391994E+05  0.1260567E+04 -0.6069513E-02 -0.1682281E-02  0.2714104E+05  0.1040594E+04
  0.8857143E+00  0.5436425E+05  0.1581138E+04 -0.6339781E-02 -0.4348755E-02  0.2762396E+05  0.1317104E+04
  0.9166667E+00  0.5480024E+05  0.1963946E+04 -0.6458629E-02 -0.4699707E-02  0.2809041E+05  0.1651127E+04
  0.9476191E+00  0.5522325E+05  0.2416531E+04  0.7084985E-03 -0.3158569E-02  0.2855372E+05  0.2050736E+04
  0.9785714E+00  0.5563414E+05  0.2946355E+04 -0.5613452E-02 -0.1003265E-02  0.2900178E+05  0.2523590E+04
  0.1009524E+01  0.5602744E+05  0.3560633E+04 -0.3869399E-02 -0.3044128E-02  0.2951219E+05  0.3079415E+04
  0.1040476E+01  0.5645229E+05  0.4267243E+04  0.5748758E-02  0.9216309E-02  0.3005849E+05  0.3726505E+04
  0.1071429E+01  0.5686810E+05  0.5073043E+04 -0.4443360E-02  0.3250122E-02  0.3062520E+05  0.4474460E+04
  0.1102381E+01  0.5725825E+05  0.5983926E+04 -0.3100533E-02 -0.3021240E-02  0.3115601E+05  0.5330951E+04
  0.1133333E+01  0.5760432E+05  0.7006066E+04  0.8616728E-02 -0.1327515E-02  0.3160016E+05  0.6303852E+04
  0.1164286E+01  0.5787193E+05  0.8142682E+04 -0.4927746E-02 -0.1525879E-03  0.3199480E+05  0.7402218E+04
  0.1195238E+01  0.5809560E+05  0.9394356E+04 -0.4902266E-02  0.2929688E-02  0.3234343E+05  0.8628075E+04
  0.1226190E+01  0.5823723E+05  0.1075937E+05 -0.5176730E-02 -0.7263184E-02  0.3265304E+05  0.9984781E+04
  0.1257143E+01  0.5830802E+05  0.1224475E+05  0.1165217E-02  0.5767822E-02  0.3290070E+05  0.1148074E+05
  0.1288095E+01  0.5832707E+05  0.1381017E+05 -0.8339591E-02 -0.1687622E-01  0.3311879E+05  0.1308360E+05
  0.1319048E+01  0.5825386E+05  0.1548541E+05 -0.7588631E-02 -0.7995605E-02  0.3323446E+05  0.1482327E+05
  0.1350000E+01  0.5809611E+05  0.1724705E+05 -0.7595486E-02 -0.8087158E-02  0.3327274E+05  0.1668275E+05
  0.1380952E+01  0.5787021E+05  0.1908069E+05 -0.1378974E-01 -0.1074219E-01  0.3322918E+05  0.1864845E+05
  0.1411905E+01  0.5689239E+05  0.2058995E+05 -0.4495810E-02 -0.1586914E-01  0.3223856E+05  0.2032389E+05
  0.1442857E+01  0.5652184E+05  0.2250697E+05 -0.4822382E-02  0.4272461E-03  0.3207143E+05  0.2244946E+05
  0.1473810E+01  0.5606327E+05  0.2445105E+05 -0.1457744E-01 -0.7934570E-02  0.3181306E+05  0.2464625E+05
  0.1504762E+01  0.5552948E+05  0.2640905E+05  0.2677048E-02  0.1953125E-02  0.3144668E+05  0.2689594E+05
  0.1535714E+01  0.5489892E+05  0.2836089E+05  0.2066679E-02  0.2868652E-02  0.3100732E+05  0.2918875E+05
  0.1566667E+01  0.5420723E+05  0.3028997E+05 -0.7012550E-03 -0.2624512E-02  0.3046333E+05  0.3149556E+05
  0.1597619E+01  0.5345588E+05  0.3217639E+05 -0.1680968E-02 -0.2441406E-02  0.2984530E+05  0.3380265E+05
  0.1628572E+01  0.5263439E+05  0.3401131E+05 -0.1199287E-02 -0.9033203E-02  0.2915451E+05  0.3609970E+05
  0.1659524E+01  0.5177801E+05  0.3577552E+05 -0.4339889E-02 -0.7934570E-02  0.2839716E+05  0.3835833E+05
  0.1690476E+01  0.5087749E+05  0.3745726E+05 -0.3032845E-02  0.4638672E-02  0.2758297E+05  0.4057576E+05
  0.1721429E+01  0.4995097E+05  0.3905188E+05  0.8154905E-02 -0.1831055E-02  0.2670591E+05  0.4273352E+05
  0.1752381E+01  0.4900352E+05  0.4055171E+05 -0.1462854E-02  0.1416016E-01  0.2578684E+05  0.4482154E+05
  0.1783333E+01  0.4803404E+05  0.4194939E+05  0.6365910E-02  0.3417969E-02  0.2484904E+05  0.4683812E+05
  0.1814286E+01  0.4707724E+05  0.4323934E+05  0.3431425E-02 -0.2685547E-02  0.2387777E+05  0.4875062E+05
  0.1845238E+01  0.4612211E+05  0.4441673E+05 -0.1521547E-02 -0.7202148E-02  0.2289795E+05  0.5057186E+05
  0.1876190E+01  0.4516309E+05  0.4549221E+05  0.6506286E-04 -0.6225586E-02  0.2190666E+05  0.5230143E+05
  0.1907143E+01  0.4422809E+05  0.4645973E+05  0.4224456E-02  0.3662109E-02  0.2090364E+05  0.5391758E+05
  0.1938095E+01  0.4330443E+05  0.4732064E+05  0.4345943E-02 -0.1220703E-02  0.1990593E+05  0.5544704E+05
  0.1969048E+01  0.4240598E+05  0.4807886E+05 -0.5021562E-02  0.7080078E-02  0.1891279E+05  0.5688363E+05
  0.2000000E+01  0.4153501E+05  0.4875197E+05 -0.4028320E-02  0.3662109E-02  0.1791302E+05  0.5821734E+05
Zone t="Motion of body    1 in DoF   2",I=    64,F=POINT
  0.5000000E-01 -0.2120972E-01 -0.3480911E-04  0.1169259E+06  0.3156320E+03 -0.5798340E-02  0.5722046E-05
  0.8095238E-01 -0.1074398E-01  0.7629395E-05  0.1155695E+06  0.5236185E+03  0.3769818E-03 -0.1144409E-04
  0.1119048E+00 -0.1077206E-01 -0.4768372E-04  0.1148236E+06  0.7504482E+03 -0.1581720E-01 -0.2861023E-04
  0.1428571E+00  0.3631592E-02 -0.6961823E-04  0.1144648E+06  0.1004697E+04 -0.7690429E-02 -0.7247925E-04
  0.1738095E+00 -0.1799701E-01  0.8583069E-04  0.1144492E+06  0.1297777E+04 -0.1229064E-01  0.4959106E-04
  0.2047619E+00 -0.1251930E-01 -0.9155273E-04  0.1146722E+06  0.1643234E+04  0.1192315E-02  0.1335144E-03
  0.2357143E+00 -0.6602894E-02 -0.1907349E-03  0.1150032E+06  0.2060695E+04 -0.6473425E-02 -0.2136230E-03
  0.2666667E+00 -0.2059937E-02  0.2517700E-03  0.1155961E+06  0.2567256E+04 -0.5950927E-02 -0.7629395E-05
  0.2976190E+00 -0.1045898E-01 -0.4653931E-03  0.1162214E+06  0.3198963E+04 -0.1107422E-01 -0.6866455E-04
  0.3285715E+00 -0.1003099E-01  0.4577637E-04  0.1169273E+06  0.3977292E+04 -0.2229110E-02 -0.1220703E-03
  0.3595238E+00  0.2376733E-02 -0.6103516E-04  0.1176669E+06  0.4945350E+04  0.5092999E-02  0.1373291E-03
  0.3904762E+00 -0.1531833E-01  0.1525879E-03  0.1184205E+06  0.6139895E+04 -0.6877619E-02 -0.6256104E-03
  0.4214286E+00 -0.2462096E-02  0.4272461E-03  0.1187589E+06  0.7549274E+04 -0.8400092E-02 -0.9460449E-03
  0.4523810E+00  0.1349198E-02 -0.1419067E-02  0.1190596E+06  0.9245705E+04 -0.5126953E-02 -0.2441406E-03
  0.4833333E+00 -0.6313981E-02  0.7629395E-04  0.1190228E+06  0.1109841E+05 -0.1010237E-01 -0.3051758E-03
  0.5142857E+00  0.6764730E-02  0.4119873E-03  0.1186419E+06  0.1319159E+05  0.0000000E+00 -0.9765625E-03
  0.5452381E+00  0.1679133E-01 -0.1525879E-03  0.1179301E+06  0.1542099E+05  0.5373226E-02 -0.6103516E-04
  0.5761905E+00 -0.4343080E-02 -0.2593994E-03  0.1169726E+06  0.1774840E+05 -0.1228774E-01 -0.3662109E-03
  0.6071429E+00  0.6534352E-02  0.1495361E-02  0.1158477E+06  0.2022000E+05  0.2814797E-02 -0.4272461E-03
  0.6380953E+00 -0.4113040E-02 -0.1800537E-02  0.1146134E+06  0.2271136E+05 -0.8417386E-02 -0.1098633E-02
  0.6690477E+00 -0.1450508E-01 -0.1342773E-02  0.1131182E+06  0.2527727E+05 -0.6203431E-02 -0.6103516E-04
  0.7000000E+00 -0.9940010E-02  0.2197266E-02  0.1114288E+06  0.2792196E+05 -0.8021763E-02 -0.1586914E-02
  0.7309524E+00  0.0000000E+00  0.7934570E-03  0.1097307E+06  0.3056889E+05  0.2004021E-02 -0.2075195E-02
  0.7619048E+00 -0.1441955E-02 -0.4577637E-03  0.1079587E+06  0.3323283E+05 -0.8010863E-02 -0.3295898E-02
  0.7928572E+00 -0.7852090E-02 -0.1647949E-02  0.1060723E+06  0.3591114E+05 -0.9853602E-02  0.4882812E-03
  0.8238096E+00 -0.1052063E-01  0.3662109E-03  0.1040880E+06  0.3858591E+05 -0.1392872E-01 -0.4150391E-02
  0.8547620E+00 -0.1099653E-01 -0.2929688E-02  0.1020148E+06  0.4124216E+05 -0.1399558E-01 -0.1586914E-02
  0.8857143E+00 -0.1047442E-01  0.2319336E-02  0.9989713E+05  0.4385758E+05 -0.5512853E-02  0.1342773E-02
  0.9166667E+00 -0.6392045E-02 -0.4455566E-02  0.9777810E+05  0.4641396E+05 -0.6125710E-02 -0.1220703E-03
  0.9476191E+00 -0.9532525E-02 -0.2868652E-02  0.9565038E+05  0.4890211E+05 -0.7729075E-02 -0.6225586E-02
  0.9785714E+00 -0.5239222E-02  0.2563477E-02  0.9350694E+05  0.5131838E+05 -0.4241275E-02 -0.2441406E-02
  0.1009524E+01  0.2055618E-02 -0.1953125E-02  0.9133948E+05  0.5366381E+05 -0.8464310E-02  0.4882812E-03
  0.1040476E+01 -0.3519648E-02 -0.2990723E-02  0.8916988E+05  0.5592585E+05 -0.7743225E-02 -0.9765625E-03
  0.1071429E+01 -0.2848307E-02 -0.5798340E-02  0.8700058E+05  0.5809974E+05 -0.5696615E-02 -0.3417969E-02
  0.1102381E+01 -0.1771733E-02  0.2624512E-02  0.8485601E+05  0.6017045E+05 -0.1173773E-01 -0.3173828E-02
  0.1133333E+01  0.2369600E-02 -0.7324219E-03  0.8274651E+05  0.6212900E+05 -0.8401310E-02  0.3906250E-02
  0.1164286E+01 -0.2830833E-02 -0.4516602E-02  0.8068859E+05  0.6397123E+05 -0.2306605E-02 -0.2197266E-02
  0.1195238E+01  0.1225566E-01 -0.8544922E-03  0.7868793E+05  0.6568821E+05 -0.5515049E-02 -0.1220703E-02
  0.1226190E+01 -0.1055256E-01  0.7324219E-03  0.7673967E+05  0.6729390E+05 -0.1194630E-01 -0.3417969E-02
  0.1257143E+01 -0.2913042E-02 -0.9765625E-03  0.7486031E+05  0.6883302E+05  0.4660866E-02 -0.4150391E-02
  0.1288095E+01 -0.5022708E-02  0.7202148E-02  0.7298602E+05  0.7017773E+05 -0.9666344E-02 -0.1464844E-02
  0.1319048E+01 -0.4719758E-02  0.3051758E-02  0.7118218E+05  0.7146572E+05  0.3701771E-03 -0.6103516E-02
  0.1350000E+01 -0.1130281E-01  0.7324219E-03  0.6943284E+05  0.7264623E+05 -0.1157407E-01 -0.1025391E-01
  0.1380952E+01 -0.6364494E-02 -0.2685547E-02  0.6774826E+05  0.7369762E+05 -0.4773370E-02 -0.3662109E-02
  0.1411905E+01 -0.1262285E-01  0.7934570E-02  0.6553917E+05  0.7471328E+05 -0.6570800E-02  0.5371094E-02
  0.1442857E+01 -0.5160795E-02 -0.2319336E-02  0.6398174E+05  0.7559809E+05  0.1353651E-02  0.4882812E-03
  0.1473810E+01 -0.9359381E-02  0.8544922E-02  0.6248000E+05  0.7638649E+05 -0.1507440E-01 -0.1953125E-02
  0.1504762E+01 -0.4705115E-02 -0.0000000E+00  0.6104387E+05  0.7707438E+05 -0.9572475E-02  0.2197266E-02
  0.1535714E+01 -0.1112827E-02  0.9033203E-02  0.5965566E+05  0.7768759E+05 -0.1017442E-01 -0.2197266E-02
  0.1566667E+01 -0.1090841E-02  0.6225586E-02  0.5833230E+05  0.7820430E+05 -0.3428358E-02 -0.9277344E-02
  0.1597619E+01 -0.8481249E-02  0.5859375E-02  0.5706575E+05  0.7862853E+05 -0.6112612E-02 -0.1318359E-01
  0.1628572E+01 -0.8020233E-02  0.6835938E-02  0.5585314E+05  0.7898638E+05 -0.8994654E-02 -0.5859375E-02
  0.1659524E+01 -0.5590365E-02  0.8422852E-02  0.5469861E+05  0.7925302E+05 -0.2648068E-02  0.2929688E-02
  0.1690476E+01 -0.5776848E-03  0.6225586E-02  0.5359737E+05  0.7945216E+05 -0.3754951E-02  0.5126953E-02
  0.1721429E+01 -0.2481928E-02 -0.3051758E-02  0.5255195E+05  0.7958266E+05 -0.4822031E-02 -0.2929688E-02
  0.1752381E+01  0.1811152E-02 -0.2319336E-02  0.5155795E+05  0.7964530E+05 -0.2507749E-02 -0.9765625E-03
  0.1783333E+01 -0.1013070E-01  0.1953125E-02  0.5060755E+05  0.7964936E+05 -0.2464223E-02 -0.4882812E-02
  0.1814286E+01 -0.6896493E-02  0.5126953E-02  0.4971020E+05  0.7956878E+05  0.2691314E-02  0.7324219E-02
  0.1845238E+01 -0.3903100E-02  0.1220703E-03  0.4885640E+05  0.7942180E+05 -0.4895413E-02 -0.4882812E-03
  0.1876190E+01 -0.3415800E-02 -0.1354980E-01  0.4804448E+05  0.7923777E+05 -0.4424274E-02 -0.1318359E-01
  0.1907143E+01  0.2688290E-02 -0.4516602E-02  0.4727790E+05  0.7898646E+05 -0.1280138E-03  0.1953125E-02
  0.1938095E+01 -0.2078495E-02  0.5371094E-02  0.4655414E+05  0.7869986E+05 -0.1385663E-02 -0.9765625E-03
  0.1969048E+01 -0.4215633E-02 -0.7934570E-02  0.4587216E+05  0.7836891E+05 -0.3099730E-02 -0.1025391E-01
  0.2000000E+01  0.3753662E-02 -0.7080078E-02  0.4523306E+05  0.7799881E+05 -0.2441406E-02 -0.2929688E-02
Zone t="Motion of body    1 in DoF   3",I=    64,F=POINT
  0.5000000E-01  0.2070992E+05  0.2127093E-02 -0.4806519E-02 -0.7012331E-05  0.9229719E+05  0.1635865E-02
  0.8095238E-01  0.2061987E+05  0.9313937E-02 -0.1960305E-01 -0.8251869E-04  0.9247424E+05  0.6735825E-02
  0.1119048E+00  0.2070282E+05  0.2618144E-01 -0.2331673E-01 -0.1441182E-03  0.9255039E+05  0.1886425E-01
  0.1428571E+00  0.2076895E+05  0.5903959E-01  0.9719849E-02  0.1059719E-03  0.9269675E+05  0.4220619E-01
  0.1738095E+00  0.2081707E+05  0.1178368E+00 -0.6935433E-02 -0.5848566E-04  0.9270938E+05  0.8462811E-01
  0.2047619E+00  0.2088046E+05  0.2177017E+00 -0.1147603E-01 -0.1652748E-03  0.9283702E+05  0.1571709E+00
  0.2357143E+00  0.2105830E+05  0.3845805E+00  0.8803858E-02  0.1985650E-03  0.9308612E+05  0.2788692E+00
  0.2666667E+00  0.2102089E+05  0.6580846E+00  0.7667541E-02  0.1590597E-03  0.9293119E+05  0.4783469E+00
  0.2976190E+00  0.2111339E+05  0.1106742E+01  0.2153320E-02  0.9439699E-04  0.9307551E+05  0.8068476E+00
  0.3285715E+00  0.2134711E+05  0.1838759E+01 -0.3250785E-02 -0.4118681E-04  0.9337661E+05  0.1347106E+01
  0.3595238E+00  0.2139836E+05  0.3030436E+01 -0.5347650E-02 -0.1293011E-03  0.9333252E+05  0.2229630E+01
  0.3904762E+00  0.2143662E+05  0.4959932E+01 -0.1250476E-02  0.2226233E-04  0.9335573E+05  0.3665236E+01
  0.4214286E+00  0.2166835E+05  0.8013827E+01 -0.9124237E-02 -0.5788952E-03  0.9365559E+05  0.5955081E+01
  0.4523810E+00  0.2197498E+05  0.1284305E+02 -0.2968236E-02 -0.1578927E-03  0.9406825E+05  0.9606704E+01
  0.4833333E+00  0.2203564E+05  0.2006914E+02  0.1730031E-01  0.1887649E-02  0.9404698E+05  0.1509420E+02
  0.5142857E+00  0.2229700E+05  0.3084015E+02 -0.1887004E-01 -0.2314627E-02  0.9452804E+05  0.2334713E+02
  0.5452381E+00  0.2262111E+05  0.4631231E+02 -0.1656745E-01 -0.2330422E-02  0.9491524E+05  0.3531330E+02
  0.5761905E+00  0.2278200E+05  0.6794020E+02 -0.2944820E-01 -0.4906774E-02  0.9487211E+05  0.5214726E+02
  0.6071429E+00  0.2300395E+05  0.9778380E+02 -0.1457663E-01 -0.2665997E-02  0.9515408E+05  0.7559189E+02
  0.6380953E+00  0.2326809E+05  0.1376204E+03 -0.2037390E-01 -0.3996134E-02  0.9553618E+05  0.1071240E+03
  0.6690477E+00  0.2364341E+05  0.1904241E+03 -0.1204195E-01 -0.3046989E-02  0.9603478E+05  0.1494226E+03
  0.7000000E+00  0.2401929E+05  0.2596323E+03 -0.5754743E-02 -0.1875401E-02  0.9641671E+05  0.2054379E+03
  0.7309524E+00  0.2428787E+05  0.3486441E+03 -0.7515077E-02 -0.2381802E-02  0.9650321E+05  0.2780373E+03
  0.7619048E+00  0.2458109E+05  0.4617329E+03 -0.8090972E-02 -0.1816750E-02  0.9679537E+05  0.3712002E+03
  0.7928572E+00  0.2497307E+05  0.6037504E+03 -0.7852090E-02 -0.3144264E-02  0.9734905E+05  0.4894164E+03
  0.8238096E+00  0.2546986E+05  0.7803675E+03 -0.3052463E-01 -0.1427269E-01  0.9804103E+05  0.6382180E+03
  0.8547620E+00  0.2593499E+05  0.9980406E+03 -0.3198990E-01 -0.1208878E-01  0.9854742E+05  0.8235797E+03
  0.8857143E+00  0.2637737E+05  0.1263921E+04  0.1102571E-02 -0.3223419E-03  0.9894252E+05  0.1052726E+04
  0.9166667E+00  0.2681221E+05  0.1585728E+04 -0.8123225E-02 -0.2567291E-02  0.9932080E+05  0.1333551E+04
  0.9476191E+00  0.2726807E+05  0.1970563E+04 -0.9790162E-02 -0.5172729E-02  0.9984622E+05  0.1673016E+04
  0.9785714E+00  0.2771244E+05  0.2426118E+04 -0.1908574E-01 -0.1224518E-01  0.1003972E+06  0.2078240E+04
  0.1009524E+01  0.2821156E+05  0.2959528E+04 -0.1064085E-01 -0.5348206E-02  0.1010783E+06  0.2558541E+04
  0.1040476E+01  0.2874656E+05  0.3581354E+04 -0.1278805E-01 -0.1132965E-01  0.1017840E+06  0.3125139E+04
  0.1071429E+01  0.2929533E+05  0.4299421E+04 -0.1082357E-01 -0.9246826E-02  0.1025266E+06  0.3789076E+04
  0.1102381E+01  0.2979630E+05  0.5124373E+04 -0.1816026E-01 -0.1557922E-01  0.1031020E+06  0.4563000E+04
  0.1133333E+01  0.3021039E+05  0.6066237E+04 -0.8724437E-02 -0.7080078E-02  0.1035360E+06  0.5459254E+04
  0.1164286E+01  0.3057853E+05  0.7128890E+04  0.9331264E-02  0.1588440E-01  0.1039589E+06  0.6486707E+04
  0.1195238E+01  0.3092386E+05  0.8315280E+04 -0.1021305E-02  0.3479004E-02  0.1044442E+06  0.7646426E+04
  0.1226190E+01  0.3123184E+05  0.9622881E+04 -0.1343959E-01 -0.7156372E-02  0.1049946E+06  0.8940175E+04
  0.1257143E+01  0.3148706E+05  0.1106792E+05 -0.8156516E-02 -0.1257324E-01  0.1055170E+06  0.1038573E+05
  0.1288095E+01  0.3170185E+05  0.1261356E+05 -0.1497336E-01 -0.3030396E-01  0.1059423E+06  0.1195611E+05
  0.1319048E+01  0.3181594E+05  0.1429834E+05 -0.5275024E-02 -0.2746582E-02  0.1062587E+06  0.1369418E+05
  0.1350000E+01  0.3184910E+05  0.1609983E+05 -0.1591435E-01 -0.3366089E-01  0.1064820E+06  0.1558111E+05
  0.1380952E+01  0.3180666E+05  0.1801018E+05 -0.1741396E-01 -0.3244019E-01  0.1065914E+06  0.1760719E+05
  0.1411905E+01  0.2908334E+05  0.1857189E+05 -0.1296868E-02 -0.4852295E-02  0.1032218E+06  0.1833121E+05
  0.1442857E+01  0.2894068E+05  0.2052534E+05 -0.5922223E-03  0.1800537E-02  0.1033337E+06  0.2046630E+05
  0.1473810E+01  0.2871260E+05  0.2255041E+05 -0.9939166E-02 -0.2191162E-01  0.1033089E+06  0.2271782E+05
  0.1504762E+01  0.2838654E+05  0.2462855E+05 -0.2758171E-02 -0.1788330E-01  0.1032151E+06  0.2506618E+05
  0.1535714E+01  0.2798180E+05  0.2673715E+05 -0.3656431E-02 -0.1977539E-01  0.1030284E+06  0.2749352E+05
  0.1566667E+01  0.2748631E+05  0.2886861E+05  0.3740026E-02  0.1770020E-02  0.1027422E+06  0.2998599E+05
  0.1597619E+01  0.2692807E+05  0.3100985E+05 -0.9474549E-02 -0.2618408E-01  0.1023550E+06  0.3253363E+05
  0.1628572E+01  0.2629265E+05  0.3312844E+05 -0.2998218E-02  0.1953125E-02  0.1019197E+06  0.3511378E+05
  0.1659524E+01  0.2560656E+05  0.3521857E+05 -0.1324034E-02 -0.1196289E-01  0.1014286E+06  0.3771226E+05
  0.1690476E+01  0.2485922E+05  0.3727585E+05  0.3466109E-02  0.2624512E-02  0.1008089E+06  0.4031850E+05
  0.1721429E+01  0.2404799E+05  0.3928776E+05  0.4254733E-03 -0.7324219E-02  0.1000799E+06  0.4291655E+05
  0.1752381E+01  0.2319442E+05  0.4123153E+05 -0.3622304E-02 -0.1464844E-02  0.9931191E+05  0.4549047E+05
  0.1783333E+01  0.2231650E+05  0.4309131E+05 -0.8214077E-03 -0.8300781E-02  0.9851329E+05  0.4801490E+05
  0.1814286E+01  0.2142071E+05  0.4487181E+05  0.1211091E-02  0.9765625E-02  0.9768627E+05  0.5047925E+05
  0.1845238E+01  0.2052255E+05  0.4657504E+05 -0.2513861E-02 -0.3173828E-02  0.9681822E+05  0.5288702E+05
  0.1876190E+01  0.1960501E+05  0.4816472E+05 -0.3903772E-02  0.1245117E-01  0.9596000E+05  0.5521866E+05
  0.1907143E+01  0.1868747E+05  0.4966411E+05  0.7680829E-03  0.8544922E-02  0.9507948E+05  0.5747315E+05
  0.1938095E+01  0.1776530E+05  0.5108129E+05  0.4660867E-02  0.4638672E-02  0.9415794E+05  0.5967308E+05
  0.1969048E+01  0.1684468E+05  0.5243204E+05  0.9919136E-03 -0.1220703E-03  0.9316106E+05  0.6180768E+05
  0.2000000E+01  0.1591311E+05  0.5368680E+05  0.6103516E-03 -0.5004883E-02  0.9216329E+05  0.6387020E+05
