VARIABLES="w (rad/s)"
"abs(F   1   1)" "angle(F   1   1)"
"abs(F   1   2)" "angle(F   1   2)"
"abs(F   1   3)" "angle(F   1   3)"
Zone t="Diffraction force - beta =   0.000 deg",I=    64,F=POINT
  0.5000000E-01  0.1243668E+04 -0.1570795E+01  0.2840898E+03 -0.3101218E+01  0.9306528E+03  0.1570797E+01
  0.8095238E-01  0.2031865E+04 -0.1570793E+01  0.7383679E+03 -0.3099893E+01  0.1524579E+04  0.1570799E+01
  0.1119048E+00  0.2838642E+04 -0.1570790E+01  0.1403949E+04 -0.3098183E+01  0.2133783E+04  0.1570801E+01
  0.1428571E+00  0.3689667E+04 -0.1570784E+01  0.2281050E+04 -0.3095976E+01  0.2774682E+04  0.1570805E+01
  0.1738095E+00  0.4563853E+04 -0.1570777E+01  0.3374015E+04 -0.3093198E+01  0.3429856E+04  0.1570810E+01
  0.2047619E+00  0.5505747E+04 -0.1570766E+01  0.4684993E+04 -0.3089686E+01  0.4141859E+04  0.1570819E+01
  0.2357143E+00  0.6502771E+04 -0.1570749E+01  0.6213159E+04 -0.3085193E+01  0.4898145E+04  0.1570830E+01
  0.2666667E+00  0.7587008E+04 -0.1570726E+01  0.7977788E+04 -0.3079823E+01  0.5714533E+04  0.1570848E+01
  0.2976190E+00  0.8775605E+04 -0.1570690E+01  0.9952833E+04 -0.3072887E+01  0.6619486E+04  0.1570873E+01
  0.3285715E+00  0.1005845E+05 -0.1570637E+01  0.1218152E+05 -0.3064748E+01  0.7594623E+04  0.1570912E+01
  0.3595238E+00  0.1153074E+05 -0.1570557E+01  0.1461044E+05 -0.3054640E+01  0.8712346E+04  0.1570970E+01
  0.3904762E+00  0.1314719E+05 -0.1570437E+01  0.1729247E+05 -0.3042815E+01  0.9935508E+04  0.1571058E+01
  0.4214286E+00  0.1496222E+05 -0.1570260E+01  0.2014590E+05 -0.3029396E+01  0.1131071E+05  0.1571187E+01
  0.4523810E+00  0.1694349E+05 -0.1569998E+01  0.2321466E+05 -0.3013932E+01  0.1284772E+05  0.1571378E+01
  0.4833333E+00  0.1918633E+05 -0.1569633E+01  0.2644298E+05 -0.2998310E+01  0.1454134E+05  0.1571647E+01
  0.5142857E+00  0.2167546E+05 -0.1569124E+01  0.2977670E+05 -0.2981096E+01  0.1645563E+05  0.1572021E+01
  0.5452381E+00  0.2428282E+05 -0.1568436E+01  0.3330055E+05 -0.2964326E+01  0.1845094E+05  0.1572528E+01
  0.5761905E+00  0.2712577E+05 -0.1567535E+01  0.3684705E+05 -0.2947331E+01  0.2063276E+05  0.1573195E+01
  0.6071429E+00  0.3023187E+05 -0.1566364E+01  0.4050690E+05 -0.2930003E+01  0.2304026E+05  0.1574064E+01
  0.6380953E+00  0.3353275E+05 -0.1564887E+01  0.4430869E+05 -0.2914103E+01  0.2554320E+05  0.1575166E+01
  0.6690477E+00  0.3706142E+05 -0.1563039E+01  0.4806656E+05 -0.2897635E+01  0.2825140E+05  0.1576550E+01
  0.7000000E+00  0.4068509E+05 -0.1560728E+01  0.5190590E+05 -0.2881351E+01  0.3109038E+05  0.1578280E+01
  0.7309524E+00  0.4448959E+05 -0.1557904E+01  0.5586385E+05 -0.2866293E+01  0.3402175E+05  0.1580405E+01
  0.7619048E+00  0.4871137E+05 -0.1554511E+01  0.5970502E+05 -0.2850570E+01  0.3722341E+05  0.1582983E+01
  0.7928572E+00  0.5321737E+05 -0.1550444E+01  0.6357228E+05 -0.2835239E+01  0.4072519E+05  0.1586081E+01
  0.8238096E+00  0.5778289E+05 -0.1545564E+01  0.6747363E+05 -0.2820611E+01  0.4423030E+05  0.1589814E+01
  0.8547620E+00  0.6253715E+05 -0.1539794E+01  0.7136344E+05 -0.2806509E+01  0.4789446E+05  0.1594244E+01
  0.8857143E+00  0.6763632E+05 -0.1533068E+01  0.7508949E+05 -0.2791923E+01  0.5180598E+05  0.1599445E+01
  0.9166667E+00  0.7294524E+05 -0.1525235E+01  0.7884005E+05 -0.2778225E+01  0.5599923E+05  0.1605506E+01
  0.9476191E+00  0.7854158E+05 -0.1516196E+01  0.8253302E+05 -0.2765079E+01  0.6030230E+05  0.1612558E+01
  0.9785714E+00  0.8451466E+05 -0.1505852E+01  0.8618568E+05 -0.2752694E+01  0.6483615E+05  0.1620702E+01
  0.1009524E+01  0.9081249E+05 -0.1494085E+01  0.8959995E+05 -0.2739556E+01  0.6960577E+05  0.1630026E+01
  0.1040476E+01  0.9733918E+05 -0.1480735E+01  0.9295112E+05 -0.2727027E+01  0.7469402E+05  0.1640619E+01
  0.1071429E+01  0.1039229E+06 -0.1465610E+01  0.9622763E+05 -0.2715201E+01  0.7983149E+05  0.1652662E+01
  0.1102381E+01  0.1106927E+06 -0.1448653E+01  0.9942358E+05 -0.2704185E+01  0.8503632E+05  0.1666245E+01
  0.1133333E+01  0.1176523E+06 -0.1429757E+01  0.1025065E+06 -0.2693650E+01  0.9044084E+05  0.1681430E+01
  0.1164286E+01  0.1249208E+06 -0.1408946E+01  0.1053327E+06 -0.2682383E+01  0.9598066E+05  0.1698285E+01
  0.1195238E+01  0.1325993E+06 -0.1386171E+01  0.1080485E+06 -0.2671542E+01  0.1019615E+06  0.1716773E+01
  0.1226190E+01  0.1403263E+06 -0.1361188E+01  0.1106609E+06 -0.2661382E+01  0.1079224E+06  0.1737179E+01
  0.1257143E+01  0.1478219E+06 -0.1333863E+01  0.1131773E+06 -0.2651593E+01  0.1137022E+06  0.1759516E+01
  0.1288095E+01  0.1555565E+06 -0.1304294E+01  0.1155242E+06 -0.2643000E+01  0.1196476E+06  0.1783878E+01
  0.1319048E+01  0.1630417E+06 -0.1272545E+01  0.1176856E+06 -0.2633776E+01  0.1254494E+06  0.1809972E+01
  0.1350000E+01  0.1703302E+06 -0.1238657E+01  0.1196080E+06 -0.2624084E+01  0.1310477E+06  0.1837967E+01
  0.1380952E+01  0.1774458E+06 -0.1202827E+01  0.1214163E+06 -0.2614852E+01  0.1367718E+06  0.1867408E+01
  0.1411905E+01  0.1833139E+06 -0.1164119E+01  0.1230510E+06 -0.2605989E+01  0.1416632E+06  0.1899029E+01
  0.1442857E+01  0.1890793E+06 -0.1124402E+01  0.1245854E+06 -0.2597524E+01  0.1462978E+06  0.1931492E+01
  0.1473810E+01  0.1941758E+06 -0.1083027E+01  0.1259664E+06 -0.2589501E+01  0.1503781E+06  0.1965285E+01
  0.1504762E+01  0.1987870E+06 -0.1040741E+01  0.1271893E+06 -0.2581814E+01  0.1541219E+06  0.1999634E+01
  0.1535714E+01  0.2027904E+06 -0.9977810E+00  0.1280883E+06 -0.2572534E+01  0.1572515E+06  0.2034480E+01
  0.1566667E+01  0.2058757E+06 -0.9542344E+00  0.1287942E+06 -0.2563164E+01  0.1596767E+06  0.2069648E+01
  0.1597619E+01  0.2080956E+06 -0.9103057E+00  0.1293681E+06 -0.2553993E+01  0.1618836E+06  0.2104544E+01
  0.1628572E+01  0.2089891E+06 -0.8661281E+00  0.1297549E+06 -0.2544971E+01  0.1629917E+06  0.2139181E+01
  0.1659524E+01  0.2088423E+06 -0.8221796E+00  0.1299425E+06 -0.2536083E+01  0.1632804E+06  0.2173068E+01
  0.1690476E+01  0.2077288E+06 -0.7789804E+00  0.1299014E+06 -0.2527395E+01  0.1627774E+06  0.2205638E+01
  0.1721429E+01  0.2056119E+06 -0.7364501E+00  0.1296518E+06 -0.2519000E+01  0.1615900E+06  0.2237022E+01
  0.1752381E+01  0.2028212E+06 -0.6954936E+00  0.1290996E+06 -0.2509781E+01  0.1598359E+06  0.2266275E+01
  0.1783333E+01  0.1992800E+06 -0.6560768E+00  0.1282151E+06 -0.2499663E+01  0.1574023E+06  0.2293540E+01
  0.1814286E+01  0.1949445E+06 -0.6180462E+00  0.1270695E+06 -0.2489627E+01  0.1544222E+06  0.2319008E+01
  0.1845238E+01  0.1900700E+06 -0.5815964E+00  0.1257189E+06 -0.2480111E+01  0.1513894E+06  0.2341950E+01
  0.1876190E+01  0.1842761E+06 -0.5462504E+00  0.1240979E+06 -0.2471249E+01  0.1475104E+06  0.2362800E+01
  0.1907143E+01  0.1779786E+06 -0.5126033E+00  0.1222414E+06 -0.2463421E+01  0.1432571E+06  0.2381060E+01
  0.1938095E+01  0.1712090E+06 -0.4805390E+00  0.1201459E+06 -0.2456749E+01  0.1385530E+06  0.2396545E+01
  0.1969048E+01  0.1639635E+06 -0.4498088E+00  0.1178170E+06 -0.2451511E+01  0.1334908E+06  0.2409504E+01
  0.2000000E+01  0.1564320E+06 -0.4210873E+00  0.1153664E+06 -0.2447720E+01  0.1283503E+06  0.2419084E+01
