VARIABLES="w (rad/s)"
"A   1   1" "B   1   1"
"A   1   2" "B   1   2"
"A   1   3" "B   1   3"
Zone t="Motion of body    1 in DoF   1",I=    64,F=POINT
  0.5000000E-01  0.1269333E+05  0.2374155E-03  0.1215935E-02  0.1740669E-05  0.9817064E+02  0.2247761E-05
  0.8095238E-01  0.1272178E+05  0.9924056E-03 -0.2868596E-02 -0.1156293E-04  0.9825453E+02  0.1055215E-04
  0.1119048E+00  0.1276481E+05  0.2807745E-02 -0.4133265E-03 -0.1456195E-05  0.9915079E+02  0.2953164E-04
  0.1428571E+00  0.1280512E+05  0.6326569E-02  0.4572868E-03  0.5532900E-05  0.9726510E+02  0.6509325E-04
  0.1738095E+00  0.1280491E+05  0.1262408E-01 -0.1785984E-02 -0.8783225E-05  0.9888298E+02  0.1326151E-03
  0.2047619E+00  0.1282126E+05  0.2335215E-01 -0.2112167E-02 -0.1486153E-04  0.9757701E+02  0.2431903E-03
  0.2357143E+00  0.1286110E+05  0.4121758E-01 -0.1064069E-02 -0.1008646E-04  0.9931576E+02  0.4330712E-03
  0.2666667E+00  0.1284421E+05  0.7042953E-01 -0.7975101E-03  0.7422190E-05  0.9904218E+02  0.7426917E-03
  0.2976190E+00  0.1288442E+05  0.1185053E+00 -0.1701508E-02 -0.2072527E-04  0.9899340E+02  0.1255740E-02
  0.3285715E+00  0.1292319E+05  0.1967726E+00 -0.1584758E-02  0.4383735E-05  0.1008344E+03  0.2102821E-02
  0.3595238E+00  0.1293494E+05  0.3240243E+00 -0.3138030E-02 -0.6998878E-04  0.1015773E+03  0.3489951E-02
  0.3904762E+00  0.1293957E+05  0.5298599E+00 -0.2063774E-02 -0.5207444E-04  0.1006114E+03  0.5724266E-02
  0.4214286E+00  0.1300333E+05  0.8566296E+00 -0.3394434E-02 -0.1582580E-03  0.1022745E+03  0.9343702E-02
  0.4523810E+00  0.1304465E+05  0.1372080E+01 -0.3659700E-02 -0.1250920E-03  0.1040809E+03  0.1512148E-01
  0.4833333E+00  0.1305186E+05  0.2142336E+01 -0.1341721E-02 -0.7609837E-05  0.1045564E+03  0.2381961E-01
  0.5142857E+00  0.1310428E+05  0.3294079E+01 -0.5526013E-03 -0.9636395E-05  0.1057595E+03  0.3698198E-01
  0.5452381E+00  0.1317713E+05  0.4948835E+01 -0.4071898E-02 -0.2022516E-03  0.1098156E+03  0.5648960E-01
  0.5761905E+00  0.1323146E+05  0.7258461E+01 -0.2250986E-03 -0.1337938E-04  0.1110332E+03  0.8372959E-01
  0.6071429E+00  0.1323955E+05  0.1043912E+02 -0.2519495E-02 -0.2696682E-03  0.1095300E+03  0.1210913E+00
  0.6380953E+00  0.1329386E+05  0.1470233E+02  0.8279886E-03  0.1118928E-03  0.1120782E+03  0.1730105E+00
  0.6690477E+00  0.1338065E+05  0.2037332E+02  0.1713356E-02  0.3338419E-03  0.1143197E+03  0.2428203E+00
  0.7000000E+00  0.1346342E+05  0.2781207E+02 -0.1907348E-03 -0.2905726E-05  0.1173643E+03  0.3364528E+00
  0.7309524E+00  0.1352662E+05  0.3737009E+02  0.8976343E-03  0.2803802E-03  0.1193082E+03  0.4582694E+00
  0.7619048E+00  0.1356907E+05  0.4953728E+02 -0.1471996E-02 -0.5470216E-04  0.1189921E+03  0.6130764E+00
  0.7928572E+00  0.1363980E+05  0.6492567E+02 -0.3942885E-02 -0.9206831E-03  0.1200676E+03  0.8128444E+00
  0.8238096E+00  0.1373351E+05  0.8419617E+02 -0.6459627E-03 -0.6881356E-04  0.1233941E+03  0.1071383E+01
  0.8547620E+00  0.1384550E+05  0.1080985E+03 -0.3373935E-02 -0.7888973E-03  0.1276678E+03  0.1400408E+01
  0.8857143E+00  0.1395741E+05  0.1374622E+03 -0.5771268E-03 -0.6181002E-04  0.1311250E+03  0.1809589E+01
  0.9166667E+00  0.1405256E+05  0.1731705E+03 -0.5409934E-03  0.5850792E-03  0.1324983E+03  0.2308425E+01
  0.9476191E+00  0.1412304E+05  0.2161982E+03 -0.1276102E-02 -0.3094077E-03  0.1335500E+03  0.2919749E+01
  0.9785714E+00  0.1421765E+05  0.2678920E+03  0.5808364E-03  0.1502037E-03  0.1366269E+03  0.3677692E+01
  0.1009524E+01  0.1433929E+05  0.3296060E+03 -0.2010274E-02 -0.7203221E-03  0.1400445E+03  0.4596941E+01
  0.1040476E+01  0.1447370E+05  0.4027555E+03 -0.2115455E-02 -0.9941459E-03  0.1434511E+03  0.5705647E+01
  0.1071429E+01  0.1461158E+05  0.4888785E+03  0.2680969E-02  0.1232982E-02  0.1477517E+03  0.7047066E+01
  0.1102381E+01  0.1475158E+05  0.5896804E+03 -0.1311498E-02 -0.4701614E-03  0.1527516E+03  0.8662213E+01
  0.1133333E+01  0.1489206E+05  0.7069749E+03 -0.6731819E-04 -0.8093119E-03  0.1578065E+03  0.1058456E+02
  0.1164286E+01  0.1501964E+05  0.8424459E+03 -0.6978789E-03 -0.5669594E-03  0.1604201E+03  0.1280411E+02
  0.1195238E+01  0.1513387E+05  0.9980294E+03  0.1136202E-02 -0.2660751E-03  0.1625211E+03  0.1538595E+02
  0.1226190E+01  0.1525962E+05  0.1176022E+04 -0.2790581E-02 -0.1235485E-02  0.1658390E+03  0.1841874E+02
  0.1257143E+01  0.1537880E+05  0.1378207E+04 -0.1526312E-02 -0.1032591E-02  0.1702064E+03  0.2196436E+02
  0.1288095E+01  0.1554481E+05  0.1607939E+04  0.1264562E-02  0.1456022E-02  0.1764455E+03  0.2612404E+02
  0.1319048E+01  0.1569837E+05  0.1866416E+04 -0.2255767E-03  0.3991127E-03  0.1821510E+03  0.3090694E+02
  0.1350000E+01  0.1585027E+05  0.2156115E+04 -0.1551310E-02 -0.1092434E-02  0.1876807E+03  0.3636129E+02
  0.1380952E+01  0.1599480E+05  0.2479267E+04 -0.7209778E-03 -0.2321720E-02  0.1929200E+03  0.4256490E+02
  0.1411905E+01  0.1605195E+05  0.2821394E+04 -0.1023986E-02  0.1249313E-03  0.1930249E+03  0.4905055E+02
  0.1442857E+01  0.1616275E+05  0.3214172E+04 -0.3056290E-02 -0.3200531E-02  0.1977232E+03  0.5693574E+02
  0.1473810E+01  0.1625902E+05  0.3645259E+04 -0.1084508E-02 -0.1594543E-02  0.2018154E+03  0.6578411E+02
  0.1504762E+01  0.1634068E+05  0.4115763E+04 -0.1977365E-03 -0.1528740E-02  0.2062329E+03  0.7569225E+02
  0.1535714E+01  0.1641433E+05  0.4625705E+04 -0.2630544E-02 -0.2029419E-02  0.2100918E+03  0.8659637E+02
  0.1566667E+01  0.1647918E+05  0.5175313E+04 -0.7061248E-04 -0.2918243E-03  0.2144002E+03  0.9861932E+02
  0.1597619E+01  0.1653001E+05  0.5764362E+04  0.9073408E-04  0.2208710E-02  0.2181202E+03  0.1117029E+03
  0.1628572E+01  0.1656687E+05  0.6392604E+04 -0.1412442E-02 -0.1798630E-02  0.2219875E+03  0.1261408E+03
  0.1659524E+01  0.1657719E+05  0.7058278E+04 -0.4758246E-03 -0.1220703E-02  0.2258600E+03  0.1420107E+03
  0.1690476E+01  0.1656690E+05  0.7760022E+04 -0.1069620E-02 -0.3254890E-02  0.2293795E+03  0.1591943E+03
  0.1721429E+01  0.1653449E+05  0.8495713E+04 -0.1090275E-02 -0.1712799E-02  0.2328498E+03  0.1778033E+03
  0.1752381E+01  0.1647748E+05  0.9260600E+04 -0.3574413E-02 -0.5319595E-02  0.2359772E+03  0.1976200E+03
  0.1783333E+01  0.1639792E+05  0.1004995E+05  0.0000000E+00  0.3080368E-02  0.2378791E+03  0.2184849E+03
  0.1814286E+01  0.1628977E+05  0.1085843E+05 -0.1492838E-02 -0.2082825E-02  0.2389280E+03  0.2402978E+03
  0.1845238E+01  0.1615647E+05  0.1168216E+05 -0.4051947E-03  0.3553391E-02  0.2390479E+03  0.2630176E+03
  0.1876190E+01  0.1599945E+05  0.1251653E+05  0.1406984E-02  0.2737045E-02  0.2387639E+03  0.2869414E+03
  0.1907143E+01  0.1581207E+05  0.1335621E+05  0.6680721E-03  0.3740311E-02  0.2382593E+03  0.3121519E+03
  0.1938095E+01  0.1560149E+05  0.1419546E+05 -0.1267567E-02 -0.3349304E-02  0.2372228E+03  0.3382202E+03
  0.1969048E+01  0.1537165E+05  0.1502772E+05 -0.2491408E-02 -0.2952576E-02  0.2357780E+03  0.3649806E+03
  0.2000000E+01  0.1512244E+05  0.1584667E+05 -0.2880096E-02 -0.3644943E-02  0.2339320E+03  0.3924649E+03
Zone t="Motion of body    1 in DoF   2",I=    64,F=POINT
  0.5000000E-01 -0.4553795E-03  0.8568168E-07  0.2153346E+05  0.3437870E+02 -0.3051758E-03 -0.7860363E-06
  0.8095238E-01  0.7922509E-03 -0.2659857E-05  0.2139148E+05  0.5709281E+02 -0.2473943E-03 -0.1385808E-05
  0.1119048E+00  0.4261098E-04 -0.1106411E-04  0.2134066E+05  0.8194827E+02  0.2514048E-03 -0.1370907E-05
  0.1428571E+00 -0.1655578E-02  0.9655952E-05  0.2132365E+05  0.1099517E+03 -0.2570152E-03 -0.1445413E-05
  0.1738095E+00 -0.9272849E-03  0.7927418E-05  0.2133398E+05  0.1424062E+03 -0.2716012E-03  0.1430511E-05
  0.2047619E+00 -0.1203958E-02 -0.4202127E-05  0.2137600E+05  0.1808926E+03 -0.3190373E-03 -0.3308058E-05
  0.2357143E+00 -0.1086322E-02 -0.4827976E-05  0.2144064E+05  0.2277056E+03 -0.1780192E-03 -0.2026558E-05
  0.2666667E+00 -0.1970530E-02  0.3606081E-05  0.2152746E+05  0.2849630E+03 -0.3576278E-04 -0.5662441E-05
  0.2976190E+00 -0.4117584E-02 -0.6705523E-05  0.2163247E+05  0.3568716E+03 -0.4454041E-03 -0.3576279E-05
  0.3285715E+00 -0.2380039E-03 -0.3463030E-04  0.2174716E+05  0.4463075E+03 -0.2670288E-03 -0.1281500E-04
  0.3595238E+00 -0.3384723E-02  0.3564358E-04  0.2186697E+05  0.5585624E+03 -0.4748161E-03 -0.9357929E-05
  0.3904762E+00 -0.6203534E-03  0.5120039E-04  0.2199025E+05  0.6984694E+03 -0.1929446E-03 -0.1204014E-04
  0.4214286E+00  0.1244626E-02  0.2980232E-05  0.2208722E+05  0.8656924E+03 -0.1176737E-03 -0.9536743E-05
  0.4523810E+00 -0.2867046E-03  0.3278255E-04  0.2216603E+05  0.1069296E+04 -0.3415158E-03 -0.6318092E-05
  0.4833333E+00 -0.1164140E-02  0.8940697E-05  0.2221240E+05  0.1295529E+04 -0.4538174E-03 -0.7271767E-05
  0.5142857E+00  0.3300773E-03  0.7462502E-04  0.2222205E+05  0.1554684E+04 -0.2410677E-03 -0.1668930E-04
  0.5452381E+00 -0.1714115E-03  0.9059906E-04  0.2219888E+05  0.1835855E+04 -0.1469242E-03 -0.2145767E-04
  0.5761905E+00 -0.5660569E-03  0.2059937E-03  0.2214753E+05  0.2135322E+04 -0.9930823E-04 -0.4959106E-04
  0.6071429E+00 -0.8544921E-03 -0.2369881E-03  0.2206156E+05  0.2459802E+04 -0.3047270E-03 -0.6532669E-04
  0.6380953E+00  0.3338856E-02  0.8320808E-04  0.2197001E+05  0.2794469E+04 -0.5380431E-04 -0.6246567E-04
  0.6690477E+00 -0.3421009E-03  0.9274483E-04  0.2185120E+05  0.3146460E+04 -0.6842019E-04 -0.6914139E-04
  0.7000000E+00 -0.1662118E-02  0.3528595E-04  0.2169981E+05  0.3517104E+04 -0.4250662E-03 -0.9059906E-05
  0.7309524E+00  0.2322368E-03  0.2079010E-03  0.2154227E+05  0.3898103E+04 -0.3366128E-03 -0.1053810E-03
  0.7619048E+00  0.7510184E-05 -0.2322197E-03  0.2136950E+05  0.4291574E+04 -0.2303123E-03 -0.1168251E-03
  0.7928572E+00 -0.1979862E-02 -0.3347397E-03  0.2117585E+05  0.4696681E+04 -0.2622175E-03 -0.1382828E-03
  0.8238096E+00 -0.1618380E-02  0.2074242E-03  0.2096257E+05  0.5111209E+04 -0.2870945E-03 -0.1144409E-03
  0.8547620E+00  0.2253753E-03  0.6875992E-03  0.2073900E+05  0.5532178E+04 -0.3369472E-03 -0.7820129E-04
  0.8857143E+00 -0.8549229E-03  0.9536743E-06  0.2050081E+05  0.5957999E+04 -0.4328451E-03 -0.1535416E-03
  0.9166667E+00  0.6179810E-03  0.3395081E-03  0.2024862E+05  0.6386622E+04 -0.1581365E-03 -0.1106262E-03
  0.9476191E+00 -0.2356965E-02  0.4997253E-03  0.1998139E+05  0.6816526E+04 -0.2173802E-03 -0.1697540E-03
  0.9785714E+00 -0.1089556E-02 -0.1046181E-02  0.1970908E+05  0.7244841E+04 -0.2066062E-03 -0.9822845E-04
  0.1009524E+01  0.2248332E-03 -0.4768372E-05  0.1942764E+05  0.7670172E+04 -0.2607310E-03 -0.9250641E-04
  0.1040476E+01 -0.2054961E-02  0.4339218E-03  0.1913662E+05  0.8090907E+04 -0.2163117E-03 -0.1268387E-03
  0.1071429E+01  0.1007589E-02  0.2222061E-03  0.1883555E+05  0.8505378E+04 -0.2741496E-03 -0.1974106E-03
  0.1102381E+01 -0.2503611E-02  0.3557205E-03  0.1853050E+05  0.8911300E+04 -0.1003521E-03 -0.1478195E-03
  0.1133333E+01 -0.2898048E-02 -0.2155304E-03  0.1822313E+05  0.9306524E+04 -0.1144409E-03 -0.2202988E-03
  0.1164286E+01 -0.2041214E-02 -0.1468658E-03  0.1791409E+05  0.9690010E+04 -0.1736506E-03 -0.2508163E-03
  0.1195238E+01 -0.3670316E-03 -0.9136200E-03  0.1760234E+05  0.1006080E+05 -0.3446906E-03 -0.2670288E-03
  0.1226190E+01  0.9644147E-04  0.8411407E-03  0.1728996E+05  0.1041765E+05 -0.9955249E-04 -0.3566742E-03
  0.1257143E+01 -0.1116666E-02  0.1106262E-02  0.1697731E+05  0.1076924E+05 -0.1638586E-03 -0.3843307E-03
  0.1288095E+01 -0.1495559E-02 -0.3089905E-03  0.1666722E+05  0.1108660E+05 -0.3998028E-03 -0.1344681E-03
  0.1319048E+01 -0.4309093E-03  0.1372337E-02  0.1636078E+05  0.1139569E+05 -0.8965227E-04 -0.2861023E-03
  0.1350000E+01 -0.1463713E-02 -0.1667976E-02  0.1605581E+05  0.1168747E+05 -0.9324816E-04 -0.3929138E-03
  0.1380952E+01 -0.2430883E-03 -0.6160736E-03  0.1575615E+05  0.1195952E+05 -0.1187818E-03 -0.3480911E-03
  0.1411905E+01 -0.4322895E-04 -0.1650810E-02  0.1545698E+05  0.1221918E+05 -0.1540031E-03 -0.1144409E-03
  0.1442857E+01 -0.5816469E-04  0.9231567E-03  0.1516322E+05  0.1245602E+05 -0.1269048E-03 -0.3385544E-03
  0.1473810E+01 -0.1871358E-02  0.1152992E-02  0.1487796E+05  0.1267306E+05 -0.1397695E-03 -0.3452301E-03
  0.1504762E+01 -0.1929199E-02  0.1552582E-02  0.1460049E+05  0.1286961E+05 -0.8872792E-04 -0.1621246E-03
  0.1535714E+01  0.1341354E-03 -0.7829666E-03  0.1433113E+05  0.1304617E+05 -0.3477584E-04 -0.3747940E-03
  0.1566667E+01 -0.1682525E-02  0.3519058E-03  0.1406806E+05  0.1320383E+05 -0.1850534E-03 -0.1974106E-03
  0.1597619E+01  0.2208658E-02 -0.9498596E-03  0.1381249E+05  0.1334247E+05 -0.2053456E-03 -0.3204346E-03
  0.1628572E+01 -0.1213341E-02 -0.1064301E-02  0.1356401E+05  0.1346254E+05 -0.5387423E-04 -0.3929138E-03
  0.1659524E+01 -0.1563095E-03 -0.2429962E-02  0.1332155E+05  0.1356550E+05 -0.1425175E-03 -0.4158020E-03
  0.1690476E+01  0.1015462E-02 -0.1111984E-02  0.1308918E+05  0.1364918E+05 -0.1128291E-03 -0.5083084E-03
  0.1721429E+01  0.4653614E-04  0.4234314E-03  0.1286605E+05  0.1371439E+05  0.8864027E-05 -0.3585815E-03
  0.1752381E+01 -0.2814687E-02 -0.7009506E-03  0.1265241E+05  0.1375997E+05 -0.6312910E-04 -0.3595352E-03
  0.1783333E+01 -0.2139083E-03  0.1434326E-02  0.1244695E+05  0.1378940E+05 -0.1219277E-03 -0.2946854E-03
  0.1814286E+01 -0.8830875E-03  0.1035690E-02  0.1225020E+05  0.1380162E+05 -0.1513864E-03 -0.5817413E-03
  0.1845238E+01 -0.1354094E-02 -0.1544952E-02  0.1206153E+05  0.1379772E+05 -0.3927908E-04 -0.4434586E-03
  0.1876190E+01 -0.3253143E-03 -0.1585007E-02  0.1188157E+05  0.1377835E+05 -0.8132857E-04 -0.3223419E-03
  0.1907143E+01  0.6480700E-03  0.1886368E-02  0.1170739E+05  0.1374599E+05 -0.4400475E-04 -0.6446838E-03
  0.1938095E+01 -0.1149470E-02 -0.3204346E-03  0.1154349E+05  0.1369739E+05 -0.2558753E-04 -0.6837845E-03
  0.1969048E+01 -0.1549865E-04  0.9489059E-03  0.1138868E+05  0.1363605E+05 -0.1181772E-03 -0.5130768E-03
  0.2000000E+01  0.2670288E-04 -0.1553535E-02  0.1124351E+05  0.1356022E+05 -0.5149841E-04 -0.3414154E-03
Zone t="Motion of body    1 in DoF   3",I=    64,F=POINT
  0.5000000E-01  0.9593166E+02  0.2149986E-05 -0.1384020E-02 -0.1880858E-05  0.1480028E+03  0.1789451E-07
  0.8095238E-01  0.9601462E+02  0.1066877E-04 -0.9494494E-03 -0.1990808E-05  0.1485361E+03  0.1755099E-06
  0.1119048E+00  0.9733818E+02  0.2924652E-04 -0.1372074E-02 -0.5092322E-05  0.1503613E+03  0.1810420E-06
  0.1428571E+00  0.9486371E+02  0.6559351E-04 -0.9358525E-03 -0.3067124E-05  0.1508442E+03  0.6133282E-06
  0.1738095E+00  0.9677886E+02  0.1327071E-03 -0.7527331E-03 -0.4300835E-05  0.1499207E+03  0.1483295E-05
  0.2047619E+00  0.9506109E+02  0.2451857E-03 -0.9655536E-03 -0.5830403E-05  0.1496533E+03  0.3151396E-05
  0.2357143E+00  0.9702365E+02  0.4338475E-03 -0.1548059E-02 -0.1535531E-04  0.1504875E+03  0.4247601E-05
  0.2666667E+00  0.9682912E+02  0.7454264E-03 -0.1218617E-02 -0.1215516E-04  0.1505764E+03  0.7621853E-05
  0.2976190E+00  0.9648455E+02  0.1262515E-02 -0.1456776E-02 -0.2171873E-04  0.1501525E+03  0.1465848E-04
  0.3285715E+00  0.9840087E+02  0.2113584E-02 -0.4353730E-03 -0.4512072E-05  0.1499471E+03  0.2410174E-04
  0.3595238E+00  0.9940141E+02  0.3503409E-02 -0.1655888E-02 -0.3809550E-04  0.1505287E+03  0.3799366E-04
  0.3904762E+00  0.9812143E+02  0.5771619E-02 -0.1749323E-02 -0.4839701E-04  0.1500141E+03  0.6325093E-04
  0.4214286E+00  0.9962598E+02  0.9407274E-02 -0.1276590E-02 -0.4056541E-04  0.1496517E+03  0.1007731E-03
  0.4523810E+00  0.1016811E+03  0.1519429E-01 -0.1755012E-02 -0.8301073E-04  0.1502846E+03  0.1624043E-03
  0.4833333E+00  0.1021620E+03  0.2395826E-01 -0.1368605E-02 -0.6990646E-04  0.1499375E+03  0.2613750E-03
  0.5142857E+00  0.1034097E+03  0.3719784E-01 -0.2012915E-02 -0.1333722E-03  0.1504842E+03  0.4172807E-03
  0.5452381E+00  0.1077412E+03  0.5646221E-01 -0.5430946E-03 -0.2336047E-04  0.1505714E+03  0.6459248E-03
  0.5761905E+00  0.1089145E+03  0.8376461E-01 -0.1168941E-02 -0.1010033E-03  0.1504843E+03  0.9619159E-03
  0.6071429E+00  0.1072581E+03  0.1218639E+00 -0.1436065E-02 -0.1369790E-03  0.1507704E+03  0.1410636E-02
  0.6380953E+00  0.1098409E+03  0.1736528E+00 -0.1051426E-02 -0.1038961E-03  0.1503013E+03  0.2045176E-02
  0.6690477E+00  0.1120524E+03  0.2436120E+00 -0.1158867E-02 -0.1424483E-03  0.1505518E+03  0.2902300E-02
  0.7000000E+00  0.1153177E+03  0.3367213E+00 -0.1924378E-02 -0.2947469E-03  0.1512432E+03  0.4067694E-02
  0.7309524E+00  0.1172134E+03  0.4584757E+00 -0.1014731E-02 -0.1191472E-03  0.1507696E+03  0.5613798E-02
  0.7619048E+00  0.1167386E+03  0.6165560E+00 -0.7334947E-03 -0.1052242E-03  0.1505452E+03  0.7639843E-02
  0.7928572E+00  0.1178208E+03  0.8196425E+00 -0.7247065E-03 -0.1110327E-03  0.1511105E+03  0.1027014E-01
  0.8238096E+00  0.1211922E+03  0.1077522E+01 -0.2552595E-03  0.3184215E-04  0.1511956E+03  0.1373041E-01
  0.8547620E+00  0.1254451E+03  0.1402984E+01 -0.4970529E-03 -0.4404644E-04  0.1508718E+03  0.1820135E-01
  0.8857143E+00  0.1290836E+03  0.1811655E+01 -0.1373637E-02 -0.3666165E-03  0.1512529E+03  0.2384654E-01
  0.9166667E+00  0.1304033E+03  0.2319209E+01 -0.1433112E-02 -0.4035491E-03  0.1515773E+03  0.3092698E-01
  0.9476191E+00  0.1314095E+03  0.2942841E+01 -0.6463539E-03 -0.1378851E-03  0.1516487E+03  0.3972506E-01
  0.9785714E+00  0.1344285E+03  0.3703863E+01 -0.1068846E-02 -0.2871603E-03  0.1512074E+03  0.5078526E-01
  0.1009524E+01  0.1378605E+03  0.4629630E+01 -0.1624845E-03  0.6428175E-04  0.1510992E+03  0.6449118E-01
  0.1040476E+01  0.1413366E+03  0.5750968E+01 -0.1510057E-02 -0.6154478E-03  0.1517135E+03  0.8135618E-01
  0.1071429E+01  0.1456497E+03  0.7094509E+01 -0.9016673E-03 -0.2646651E-03  0.1521028E+03  0.1024354E+00
  0.1102381E+01  0.1507433E+03  0.8698407E+01 -0.4572075E-03 -0.8757412E-04  0.1523889E+03  0.1278798E+00
  0.1133333E+01  0.1557444E+03  0.1060525E+02 -0.1440609E-02 -0.6820336E-03  0.1520752E+03  0.1587859E+00
  0.1164286E+01  0.1582530E+03  0.1287384E+02 -0.1207363E-02 -0.6598905E-03  0.1518333E+03  0.1958071E+00
  0.1195238E+01  0.1605985E+03  0.1554871E+02 -0.2505390E-03  0.1765154E-03  0.1523492E+03  0.2394936E+00
  0.1226190E+01  0.1639409E+03  0.1864913E+02 -0.9465264E-03 -0.5097762E-03  0.1526389E+03  0.2927822E+00
  0.1257143E+01  0.1684003E+03  0.2222368E+02 -0.9945305E-03 -0.7681921E-03  0.1529320E+03  0.3528449E+00
  0.1288095E+01  0.1745525E+03  0.2635773E+02 -0.8577252E-03 -0.4191510E-03  0.1527314E+03  0.4271370E+00
  0.1319048E+01  0.1799684E+03  0.3112103E+02 -0.5953923E-03 -0.9338558E-04  0.1525216E+03  0.5124078E+00
  0.1350000E+01  0.1856113E+03  0.3660752E+02 -0.1250020E-02 -0.1007333E-02  0.1528512E+03  0.6171751E+00
  0.1380952E+01  0.1911694E+03  0.4289759E+02 -0.4219516E-03 -0.1582354E-03  0.1535632E+03  0.7366198E+00
  0.1411905E+01  0.1799314E+03  0.4729629E+02 -0.1364751E-02 -0.1111627E-02  0.1530218E+03  0.8248244E+00
  0.1442857E+01  0.1844309E+03  0.5494664E+02 -0.1136194E-02 -0.8457750E-03  0.1532071E+03  0.9778409E+00
  0.1473810E+01  0.1883411E+03  0.6361749E+02 -0.7777915E-03 -0.3501773E-03  0.1530889E+03  0.1153631E+01
  0.1504762E+01  0.1926878E+03  0.7329340E+02 -0.1523902E-02 -0.1454458E-02  0.1528971E+03  0.1343977E+01
  0.1535714E+01  0.1963667E+03  0.8402576E+02 -0.8265473E-03 -0.5941689E-03  0.1527599E+03  0.1575363E+01
  0.1566667E+01  0.2009162E+03  0.9588046E+02 -0.9925314E-03 -0.3083795E-03  0.1530442E+03  0.1815393E+01
  0.1597619E+01  0.2049712E+03  0.1089111E+03 -0.1014491E-02 -0.5555153E-03  0.1536590E+03  0.2110125E+01
  0.1628572E+01  0.2088475E+03  0.1231746E+03 -0.6883604E-03 -0.7751584E-04  0.1541675E+03  0.2435005E+01
  0.1659524E+01  0.2124888E+03  0.1386784E+03 -0.1431209E-02 -0.1778245E-02  0.1543832E+03  0.2794420E+01
  0.1690476E+01  0.2159412E+03  0.1554920E+03 -0.7892393E-03 -0.3833175E-03  0.1546502E+03  0.3207415E+01
  0.1721429E+01  0.2194621E+03  0.1737072E+03 -0.9113328E-03 -0.5204082E-03  0.1545025E+03  0.3635324E+01
  0.1752381E+01  0.2225306E+03  0.1929258E+03 -0.1385847E-02 -0.1518250E-02  0.1544773E+03  0.4089783E+01
  0.1783333E+01  0.2245010E+03  0.2135703E+03 -0.8938691E-03 -0.4545152E-03  0.1545819E+03  0.4608952E+01
  0.1814286E+01  0.2259202E+03  0.2354410E+03 -0.5916160E-03  0.4243851E-04  0.1548911E+03  0.5163806E+01
  0.1845238E+01  0.2263306E+03  0.2583880E+03 -0.6641265E-03 -0.5574822E-03  0.1554272E+03  0.5824625E+01
  0.1876190E+01  0.2260534E+03  0.2823771E+03 -0.9840757E-03 -0.1142293E-02  0.1558735E+03  0.6522259E+01
  0.1907143E+01  0.2254003E+03  0.3072465E+03 -0.8363402E-03 -0.4380941E-04  0.1560170E+03  0.7248595E+01
  0.1938095E+01  0.2241916E+03  0.3327509E+03 -0.8367614E-03 -0.6457567E-03  0.1562492E+03  0.8001390E+01
  0.1969048E+01  0.2227001E+03  0.3589425E+03 -0.9752041E-03 -0.6424189E-03  0.1560311E+03  0.8778864E+01
  0.2000000E+01  0.2207319E+03  0.3856715E+03 -0.7779598E-03 -0.6006360E-03  0.1556613E+03  0.9464039E+01
