VARIABLES="w (rad/s)"
"A   1   1" "B   1   1"
"A   1   2" "B   1   2"
"A   1   3" "B   1   3"
Zone t="Motion of body    1 in DoF   1",I=    64,F=POINT
  0.5000000E-01  0.5774988E+05  0.3006141E-02  0.1220703E-02 -0.1108987E-04 -0.6297977E+05 -0.1953133E-02
  0.8095238E-01  0.5806911E+05  0.1316687E-01  0.6196639E-02  0.1044921E-04 -0.6339294E+05 -0.8531677E-02
  0.1119048E+00  0.5821194E+05  0.3699102E-01  0.4653119E-02  0.2682437E-04 -0.6334767E+05 -0.2380296E-01
  0.1428571E+00  0.5822780E+05  0.8311138E-01 -0.1869202E-02 -0.1737059E-04 -0.6339814E+05 -0.5322735E-01
  0.1738095E+00  0.5833252E+05  0.1653300E+00 -0.2019177E-02 -0.1286477E-04 -0.6336163E+05 -0.1054799E+00
  0.2047619E+00  0.5833072E+05  0.3047313E+00 -0.6278282E-02 -0.1012123E-03 -0.6343126E+05 -0.1943762E+00
  0.2357143E+00  0.5843312E+05  0.5359209E+00  0.4515214E-02  0.9317463E-04 -0.6338464E+05 -0.3398196E+00
  0.2666667E+00  0.5851057E+05  0.9129359E+00  0.9012222E-03 -0.7127877E-04 -0.6340609E+05 -0.5755303E+00
  0.2976190E+00  0.5855173E+05  0.1528096E+01 -0.2025147E-02 -0.6438512E-04 -0.6344321E+05 -0.9584063E+00
  0.3285715E+00  0.5867098E+05  0.2524164E+01  0.2554188E-02  0.1227576E-04 -0.6341157E+05 -0.1570848E+01
  0.3595238E+00  0.5882771E+05  0.4138189E+01 -0.8063916E-03  0.4002079E-04 -0.6338735E+05 -0.2555121E+01
  0.3904762E+00  0.5886818E+05  0.6726898E+01 -0.2754956E-02 -0.1497269E-03 -0.6348296E+05 -0.4125511E+01
  0.4214286E+00  0.5901248E+05  0.1079398E+02  0.1285359E-02  0.1012385E-03 -0.6346684E+05 -0.6556315E+01
  0.4523810E+00  0.5921086E+05  0.1717521E+02  0.1939472E-02  0.2074018E-03 -0.6343839E+05 -0.1032534E+02
  0.4833333E+00  0.5938697E+05  0.2664132E+02 -0.1108104E-01 -0.4168153E-03 -0.6347478E+05 -0.1584848E+02
  0.5142857E+00  0.5951368E+05  0.4062421E+02  0.1260969E-02 -0.2852678E-03 -0.6355795E+05 -0.2393059E+02
  0.5452381E+00  0.5973622E+05  0.6049283E+02 -0.3176360E-02 -0.6258488E-05 -0.6353797E+05 -0.3518392E+02
  0.5761905E+00  0.6001213E+05  0.8797330E+02 -0.6541102E-02 -0.7117987E-03 -0.6352938E+05 -0.5046798E+02
  0.6071429E+00  0.6025624E+05  0.1255354E+03  0.4724839E-02 -0.8434057E-04 -0.6360794E+05 -0.7110201E+02
  0.6380953E+00  0.6046936E+05  0.1750904E+03 -0.6193474E-02 -0.3575087E-03 -0.6371393E+05 -0.9787867E+02
  0.6690477E+00  0.6074745E+05  0.2400270E+03 -0.3968371E-02 -0.7457733E-03 -0.6374998E+05 -0.1321465E+03
  0.7000000E+00  0.6106805E+05  0.3241033E+03  0.2855573E-02  0.8537769E-03 -0.6375239E+05 -0.1754867E+03
  0.7309524E+00  0.6142880E+05  0.4308474E+03 -0.7014072E-02 -0.1043797E-02 -0.6377108E+05 -0.2292201E+03
  0.7619048E+00  0.6178313E+05  0.5650303E+03 -0.5006790E-02 -0.1575708E-02 -0.6383835E+05 -0.2953286E+03
  0.7928572E+00  0.6209911E+05  0.7316396E+03  0.2463401E-02  0.2136230E-02 -0.6395834E+05 -0.3757830E+03
  0.8238096E+00  0.6245875E+05  0.9364586E+03  0.1018723E-02 -0.2012253E-03 -0.6402272E+05 -0.4717462E+03
  0.8547620E+00  0.6285511E+05  0.1185543E+04  0.4730649E-02  0.1913071E-02 -0.6402549E+05 -0.5845941E+03
  0.8857143E+00  0.6329326E+05  0.1485824E+04  0.6374236E-03 -0.2388954E-02 -0.6401727E+05 -0.7162386E+03
  0.9166667E+00  0.6372991E+05  0.1844244E+04 -0.7557262E-02 -0.1900673E-02 -0.6402540E+05 -0.8684436E+03
  0.9476191E+00  0.6417282E+05  0.2268343E+04  0.8856232E-03 -0.6103516E-03 -0.6405711E+05 -0.1042596E+04
  0.9785714E+00  0.6457655E+05  0.2765279E+04 -0.7515789E-02 -0.1266479E-02 -0.6410188E+05 -0.1239760E+04
  0.1009524E+01  0.6496782E+05  0.3342422E+04  0.4746059E-02  0.2986908E-02 -0.6411420E+05 -0.1459548E+04
  0.1040476E+01  0.6536327E+05  0.4007287E+04 -0.5044828E-02 -0.1750946E-02 -0.6409151E+05 -0.1701767E+04
  0.1071429E+01  0.6575160E+05  0.4766784E+04  0.3019206E-02 -0.2029419E-02 -0.6401380E+05 -0.1964933E+04
  0.1102381E+01  0.6614303E+05  0.5627824E+04  0.6062650E-02  0.4150391E-02 -0.6390491E+05 -0.2247899E+04
  0.1133333E+01  0.6650673E+05  0.6595991E+04  0.8051255E-02  0.4211426E-02 -0.6377011E+05 -0.2548479E+04
  0.1164286E+01  0.6682765E+05  0.7675637E+04 -0.4744266E-02 -0.3433228E-02 -0.6362116E+05 -0.2863737E+04
  0.1195238E+01  0.6710048E+05  0.8870603E+04  0.3012851E-02  0.2502441E-02 -0.6349259E+05 -0.3191761E+04
  0.1226190E+01  0.6727491E+05  0.1018015E+05  0.1119966E-02 -0.1029968E-02 -0.6333256E+05 -0.3524927E+04
  0.1257143E+01  0.6737273E+05  0.1160773E+05  0.5413402E-02 -0.2540588E-02 -0.6315884E+05 -0.3860413E+04
  0.1288095E+01  0.6743804E+05  0.1313545E+05 -0.4738404E-03  0.1960754E-02 -0.6291825E+05 -0.4182357E+04
  0.1319048E+01  0.6741807E+05  0.1477049E+05  0.2568104E-02  0.1991272E-02 -0.6264211E+05 -0.4491260E+04
  0.1350000E+01  0.6731927E+05  0.1649880E+05 -0.4023799E-02  0.1213074E-02 -0.6231422E+05 -0.4774553E+04
  0.1380952E+01  0.6715459E+05  0.1831455E+05  0.1171244E-02 -0.3051758E-03 -0.6199877E+05 -0.5032558E+04
  0.1411905E+01  0.6670195E+05  0.2010691E+05  0.5187473E-02  0.6683350E-02 -0.6171431E+05 -0.5237142E+04
  0.1442857E+01  0.6635930E+05  0.2204518E+05  0.3976350E-02  0.9460449E-03 -0.6135343E+05 -0.5408880E+04
  0.1473810E+01  0.6592245E+05  0.2402337E+05  0.2588324E-02  0.4379272E-02 -0.6097872E+05 -0.5528827E+04
  0.1504762E+01  0.6539595E+05  0.2602202E+05 -0.1906383E-02  0.1235962E-02 -0.6058356E+05 -0.5587720E+04
  0.1535714E+01  0.6478789E+05  0.2802385E+05  0.4888490E-02  0.2090454E-02 -0.6019432E+05 -0.5584222E+04
  0.1566667E+01  0.6409875E+05  0.3000838E+05 -0.8765687E-03  0.1190186E-02 -0.5979780E+05 -0.5507855E+04
  0.1597619E+01  0.6334586E+05  0.3196320E+05  0.7831784E-03 -0.5737305E-02 -0.5943730E+05 -0.5369187E+04
  0.1628572E+01  0.6250498E+05  0.3386360E+05 -0.4066333E-02 -0.6195068E-02 -0.5906064E+05 -0.5150373E+04
  0.1659524E+01  0.6162980E+05  0.3569927E+05 -0.2261891E-02  0.3814697E-02 -0.5872327E+05 -0.4866189E+04
  0.1690476E+01  0.6070283E+05  0.3745006E+05  0.1137317E-02  0.2044678E-02 -0.5839480E+05 -0.4507452E+04
  0.1721429E+01  0.5972852E+05  0.3910699E+05  0.1666437E-02 -0.5889893E-02 -0.5808875E+05 -0.4080123E+04
  0.1752381E+01  0.5873704E+05  0.4066087E+05 -0.4371146E-02 -0.2685547E-02 -0.5781993E+05 -0.3591549E+04
  0.1783333E+01  0.5772310E+05  0.4209889E+05 -0.7974500E-02 -0.9674072E-02 -0.5757486E+05 -0.3041610E+04
  0.1814286E+01  0.5669973E+05  0.4341790E+05 -0.5214421E-03 -0.1922607E-02 -0.5735448E+05 -0.2428161E+04
  0.1845238E+01  0.5568150E+05  0.4462336E+05 -0.1637317E-02 -0.1464844E-02 -0.5719311E+05 -0.1785154E+04
  0.1876190E+01  0.5464591E+05  0.4569790E+05  0.4749589E-02  0.2685547E-02 -0.5703370E+05 -0.1080394E+04
  0.1907143E+01  0.5364502E+05  0.4665827E+05  0.2064223E-02  0.2319336E-02 -0.5693596E+05 -0.3579872E+03
  0.1938095E+01  0.5265899E+05  0.4748831E+05 -0.1464394E-02 -0.3265381E-02 -0.5685306E+05  0.4092256E+03
  0.1969048E+01  0.5169221E+05  0.4820711E+05 -0.4339622E-03 -0.4364014E-02 -0.5681386E+05  0.1187353E+04
  0.2000000E+01  0.5075132E+05  0.4880772E+05  0.2120972E-02  0.1678467E-02 -0.5679705E+05  0.1988157E+04
Zone t="Motion of body    1 in DoF   2",I=    64,F=POINT
  0.5000000E-01 -0.2670288E-02  0.3337860E-05  0.4271537E+05  0.9844483E+02 -0.2593994E-02  0.8106232E-05
  0.8095238E-01  0.3911186E-02  0.3194809E-04  0.4230260E+05  0.1633124E+03 -0.3345714E-02 -0.8344650E-05
  0.1119048E+00 -0.1261285E-02 -0.1621246E-04  0.4207431E+05  0.2340385E+03  0.1704439E-02  0.1573563E-04
  0.1428571E+00  0.2990722E-02 -0.2908707E-04  0.4198847E+05  0.3133890E+03  0.4058838E-02 -0.1478195E-04
  0.1738095E+00 -0.1931386E-02  0.3337860E-04  0.4196505E+05  0.4048083E+03 -0.3950563E-02 -0.5912781E-04
  0.2047619E+00  0.2608188E-02  0.4816055E-04  0.4204479E+05  0.5126348E+03  0.1207219E-01  0.7629395E-05
  0.2357143E+00 -0.4952170E-02  0.6389618E-04  0.4214439E+05  0.6430066E+03  0.3495650E-02  0.2670288E-04
  0.2666667E+00 -0.5006790E-02 -0.7295609E-04  0.4231932E+05  0.8011901E+03 -0.8125305E-02 -0.1363754E-03
  0.2976190E+00 -0.3742676E-02 -0.2861023E-05  0.4253482E+05  0.9987156E+03 -0.2460937E-02 -0.1525879E-04
  0.3285715E+00  0.3854502E-02  0.2660751E-03  0.4275161E+05  0.1242180E+04 -0.9055759E-02  0.1354218E-03
  0.3595238E+00  0.6281366E-02 -0.3862381E-03  0.4297440E+05  0.1545524E+04  0.5390091E-02  0.2841949E-03
  0.3904762E+00 -0.3048036E-02  0.8583069E-04  0.4321476E+05  0.1919749E+04 -0.4532977E-02  0.4692078E-03
  0.4214286E+00 -0.3620729E-03 -0.2670288E-04  0.4334432E+05  0.2362553E+04 -0.3982802E-02 -0.2098083E-03
  0.4523810E+00 -0.2361097E-03 -0.1125336E-03  0.4341638E+05  0.2896786E+04 -0.4115054E-02  0.1171112E-02
  0.4833333E+00 -0.4104088E-02 -0.5874634E-03  0.4340018E+05  0.3480613E+04  0.0000000E+00 -0.2021790E-03
  0.5142857E+00 -0.1017676E-01  0.1327515E-02  0.4328993E+05  0.4141737E+04 -0.5874634E-02  0.7629395E-04
  0.5452381E+00 -0.3470208E-02 -0.1068115E-03  0.4307540E+05  0.4847040E+04 -0.1416069E-01  0.2120972E-02
  0.5761905E+00  0.3522132E-02 -0.9765625E-03  0.4276074E+05  0.5584522E+04 -0.8050587E-02 -0.5874634E-03
  0.6071429E+00 -0.6609748E-02  0.1529694E-02  0.4237925E+05  0.6370140E+04  0.1502901E-01 -0.8010864E-03
  0.6380953E+00  0.1506521E-02 -0.1831055E-03  0.4198667E+05  0.7162380E+04  0.4926084E-02 -0.7171631E-03
  0.6690477E+00  0.1049110E-02 -0.4425049E-03  0.4152018E+05  0.7978735E+04 -0.6020977E-02 -0.1068115E-03
  0.7000000E+00 -0.3901890E-02 -0.6942749E-03  0.4096614E+05  0.8821758E+04  0.1089913E-02  0.7171631E-03
  0.7309524E+00 -0.4362920E-02 -0.1449585E-03  0.4039517E+05  0.9667518E+04  0.8892842E-02 -0.2685547E-02
  0.7619048E+00 -0.7209777E-03  0.2593994E-03  0.3980331E+05  0.1051846E+05 -0.1962662E-02  0.3967285E-03
  0.7928572E+00  0.9545677E-02 -0.2113342E-02  0.3917722E+05  0.1137192E+05  0.1693588E-02 -0.1205444E-02
  0.8238096E+00 -0.1111334E-03  0.1098633E-02  0.3852430E+05  0.1222246E+05  0.7408891E-02 -0.8087158E-03
  0.8547620E+00  0.6069513E-02 -0.1525879E-04  0.3783591E+05  0.1306418E+05 -0.1499527E-02 -0.2624512E-02
  0.8857143E+00 -0.1447124E-02  0.2014160E-02  0.3712396E+05  0.1389116E+05  0.6408691E-02 -0.3356934E-02
  0.9166667E+00 -0.3229314E-02 -0.1235962E-02  0.3639457E+05  0.1469789E+05 -0.3462358E-02  0.7934570E-03
  0.9476191E+00 -0.2447540E-02 -0.2136230E-02  0.3566264E+05  0.1547762E+05 -0.5474761E-02 -0.3753662E-02
  0.9785714E+00 -0.5176851E-02 -0.4730225E-03  0.3492653E+05  0.1622633E+05  0.5239222E-02  0.1342773E-02
  0.1009524E+01  0.2085848E-02 -0.3204346E-03  0.3419350E+05  0.1694089E+05  0.0000000E+00 -0.2197266E-02
  0.1040476E+01  0.2317101E-02 -0.2273560E-02  0.3345806E+05  0.1762229E+05  0.2933040E-02  0.2380371E-02
  0.1071429E+01  0.1310221E-02  0.4348755E-02  0.3271500E+05  0.1826719E+05  0.7633464E-02  0.4638672E-02
  0.1102381E+01 -0.4457016E-02  0.1464844E-02  0.3197839E+05  0.1887004E+05  0.3543466E-02  0.4516602E-02
  0.1133333E+01  0.6947237E-02 -0.3204346E-03  0.3124590E+05  0.1942896E+05 -0.2154182E-03 -0.1617432E-02
  0.1164286E+01 -0.2621142E-04  0.1800537E-02  0.3053728E+05  0.1993868E+05  0.8282808E-02 -0.2807617E-02
  0.1195238E+01  0.1838350E-02  0.2548218E-02  0.2984963E+05  0.2039683E+05  0.2349002E-02 -0.4882812E-02
  0.1226190E+01 -0.1443511E-02  0.9765625E-03  0.2918143E+05  0.2080564E+05 -0.8461961E-03 -0.2410889E-02
  0.1257143E+01 -0.1577897E-02  0.2410889E-02  0.2853462E+05  0.2117231E+05 -0.1650724E-02  0.1586914E-02
  0.1288095E+01 -0.1919054E-02  0.8544922E-03  0.2791504E+05  0.2147100E+05  0.3743339E-02  0.4882812E-03
  0.1319048E+01 -0.2637512E-02  0.1037598E-02  0.2731478E+05  0.2173453E+05  0.4071948E-02 -0.4577637E-02
  0.1350000E+01  0.2712673E-03 -0.4852295E-02  0.2673845E+05  0.2195079E+05 -0.2305773E-02 -0.2197266E-02
  0.1380952E+01 -0.3093851E-03 -0.1434326E-02  0.2618894E+05  0.2211617E+05 -0.3933611E-02  0.9155273E-03
  0.1411905E+01 -0.4128364E-02  0.2227783E-02  0.2568041E+05  0.2227095E+05 -0.3501545E-02 -0.2685547E-02
  0.1442857E+01  0.6027977E-02  0.2471924E-02  0.2518262E+05  0.2234455E+05 -0.2791905E-02 -0.5493164E-02
  0.1473810E+01 -0.1863593E-03 -0.3326416E-02  0.2471532E+05  0.2237399E+05  0.6626110E-03  0.2563477E-02
  0.1504762E+01 -0.4603712E-02  0.1495361E-02  0.2427586E+05  0.2235933E+05  0.2068628E-02  0.1525879E-02
  0.1535714E+01  0.2483989E-02  0.2777100E-02  0.2386830E+05  0.2230217E+05  0.5564135E-02 -0.9765625E-03
  0.1566667E+01 -0.1129800E-02  0.8209229E-02  0.2348991E+05  0.2220387E+05 -0.6584005E-02  0.3417969E-02
  0.1597619E+01 -0.1776478E-02  0.1098633E-02  0.2314216E+05  0.2206665E+05 -0.2559656E-02  0.6103516E-04
  0.1628572E+01 -0.1255504E-02  0.3936768E-02  0.2281941E+05  0.2191008E+05 -0.5246881E-02  0.3662109E-03
  0.1659524E+01  0.1324034E-02  0.1831055E-03  0.2253200E+05  0.2171650E+05 -0.4339889E-02 -0.3295898E-02
  0.1690476E+01  0.5758795E-02  0.2868652E-02  0.2227679E+05  0.2149576E+05 -0.4820058E-02  0.3112793E-02
  0.1721429E+01 -0.4804303E-02  0.2441406E-03  0.2204578E+05  0.2125336E+05 -0.1063683E-03 -0.2563477E-02
  0.1752381E+01 -0.3709379E-02 -0.2899170E-02  0.2185051E+05  0.2098559E+05  0.9229910E-03 -0.1403809E-02
  0.1783333E+01 -0.3679222E-02 -0.4211426E-02  0.2168825E+05  0.2070275E+05  0.1132858E-01  0.9765625E-03
  0.1814286E+01 -0.5046214E-03  0.2471924E-02  0.2155389E+05  0.2040471E+05 -0.1106803E-01 -0.5493164E-03
  0.1845238E+01 -0.1786164E-02 -0.2716064E-02  0.2145074E+05  0.2010310E+05  0.6284652E-03  0.1464844E-02
  0.1876190E+01  0.2065746E-02  0.2655029E-02  0.2136683E+05  0.1981698E+05 -0.8230451E-02 -0.8544922E-03
  0.1907143E+01  0.4000432E-03  0.3692627E-02  0.2131675E+05  0.1953409E+05 -0.3200345E-03 -0.2380371E-02
  0.1938095E+01  0.3542888E-02 -0.6103516E-04  0.2129078E+05  0.1926203E+05 -0.6203991E-02 -0.1342773E-02
  0.1969048E+01 -0.1255391E-02  0.2532959E-02  0.2128314E+05  0.1901490E+05 -0.3099730E-02 -0.6103516E-04
  0.2000000E+01 -0.3967285E-02 -0.7873535E-02  0.2129442E+05  0.1879525E+05  0.2258301E-02 -0.4882812E-03
Zone t="Motion of body    1 in DoF   3",I=    64,F=POINT
  0.5000000E-01 -0.6220599E+05 -0.1793120E-02 -0.1619339E-01 -0.1921373E-04  0.2082114E+06  0.1345751E-02
  0.8095238E-01 -0.6269152E+05 -0.7887978E-02  0.6502937E-02 -0.3854408E-04  0.2085191E+06  0.5286253E-02
  0.1119048E+00 -0.6265663E+05 -0.2209701E-01 -0.2330821E-01 -0.1661531E-03  0.2086099E+06  0.1451963E-01
  0.1428571E+00 -0.6270005E+05 -0.4925904E-01  0.1216316E-01  0.9326122E-04  0.2086023E+06  0.3104121E-01
  0.1738095E+00 -0.6267167E+05 -0.9774941E-01  0.6913485E-03 -0.2281158E-06  0.2086202E+06  0.6172771E-01
  0.2047619E+00 -0.6273314E+05 -0.1797600E+00  0.1607762E-01  0.1010974E-03  0.2085933E+06  0.1148394E+00
  0.2357143E+00 -0.6268507E+05 -0.3145008E+00 -0.4078258E-02  0.2211297E-04  0.2086395E+06  0.1995969E+00
  0.2666667E+00 -0.6271032E+05 -0.5324852E+00  0.1244545E-02 -0.1262932E-03  0.2086058E+06  0.3361791E+00
  0.2976190E+00 -0.6273474E+05 -0.8856960E+00 -0.9407959E-02 -0.2608425E-03  0.2086103E+06  0.5555821E+00
  0.3285715E+00 -0.6269752E+05 -0.1452888E+01 -0.1700857E-01 -0.5976446E-03  0.2086601E+06  0.9041452E+00
  0.3595238E+00 -0.6267829E+05 -0.2364017E+01 -0.1264762E-01 -0.3596973E-03  0.2086765E+06  0.1460664E+01
  0.3904762E+00 -0.6276657E+05 -0.3808047E+01 -0.1086351E-01 -0.4920457E-03  0.2085941E+06  0.2335162E+01
  0.4214286E+00 -0.6273562E+05 -0.6053637E+01  0.3168138E-02 -0.2379306E-03  0.2086652E+06  0.3674426E+01
  0.4523810E+00 -0.6270913E+05 -0.9540983E+01 -0.1393890E-01 -0.5599335E-03  0.2086917E+06  0.5735613E+01
  0.4833333E+00 -0.6274529E+05 -0.1463579E+02 -0.3046496E-02  0.6613284E-03  0.2086852E+06  0.8705969E+01
  0.5142857E+00 -0.6281053E+05 -0.2206589E+02 -0.1480526E-01 -0.6222278E-03  0.2086829E+06  0.1299754E+02
  0.5452381E+00 -0.6277155E+05 -0.3245981E+02 -0.2884611E-01 -0.3953218E-02  0.2088217E+06  0.1887764E+02
  0.5761905E+00 -0.6276824E+05 -0.4658453E+02  0.1024861E-01  0.1873702E-02  0.2088350E+06  0.2672260E+02
  0.6071429E+00 -0.6285018E+05 -0.6554894E+02  0.2080940E-01  0.1505762E-02  0.2087660E+06  0.3716062E+02
  0.6380953E+00 -0.6293748E+05 -0.9005013E+02  0.1551955E-01  0.2831817E-02  0.2087667E+06  0.5034421E+02
  0.6690477E+00 -0.6295277E+05 -0.1215281E+03  0.4193017E-01  0.7184386E-02  0.2088784E+06  0.6689832E+02
  0.7000000E+00 -0.6294403E+05 -0.1614308E+03 -0.5656651E-02 -0.1100898E-02  0.2089524E+06  0.8741660E+02
  0.7309524E+00 -0.6296181E+05 -0.2108328E+03  0.1370458E-01  0.4288316E-02  0.2089738E+06  0.1121327E+03
  0.7619048E+00 -0.6302686E+05 -0.2712547E+03  0.1842499E-01  0.5975246E-02  0.2089192E+06  0.1417881E+03
  0.7928572E+00 -0.6312907E+05 -0.3442256E+03 -0.1788852E-01 -0.3650427E-02  0.2088839E+06  0.1768689E+03
  0.8238096E+00 -0.6316904E+05 -0.4315700E+03 -0.4426813E-02 -0.8320808E-04  0.2089584E+06  0.2174133E+03
  0.8547620E+00 -0.6315328E+05 -0.5347772E+03  0.5453635E-02 -0.9589195E-03  0.2090659E+06  0.2635190E+03
  0.8857143E+00 -0.6313684E+05 -0.6551053E+03 -0.7158095E-02 -0.1719952E-02  0.2091003E+06  0.3154227E+03
  0.9166667E+00 -0.6314166E+05 -0.7935469E+03  0.1547241E-01  0.7314205E-02  0.2090888E+06  0.3732422E+03
  0.9476191E+00 -0.6316663E+05 -0.9507478E+03 -0.2544154E-02 -0.3510475E-02  0.2090405E+06  0.4368242E+03
  0.9785714E+00 -0.6319588E+05 -0.1127239E+04  0.1793186E-02  0.1476765E-02  0.2089846E+06  0.5057826E+03
  0.1009524E+01 -0.6318886E+05 -0.1323949E+04 -0.8116669E-02 -0.5086899E-02  0.2089636E+06  0.5786667E+03
  0.1040476E+01 -0.6314661E+05 -0.1541036E+04  0.1613172E-02 -0.9479523E-03  0.2089930E+06  0.6542184E+03
  0.1071429E+01 -0.6305749E+05 -0.1777756E+04  0.1339417E-01  0.3827095E-02  0.2090325E+06  0.7310338E+03
  0.1102381E+01 -0.6294130E+05 -0.2031569E+04 -0.1011826E-01 -0.9843826E-02  0.2090387E+06  0.8079467E+03
  0.1133333E+01 -0.6280561E+05 -0.2299727E+04 -0.5722046E-02 -0.9099960E-02  0.2090028E+06  0.8836667E+03
  0.1164286E+01 -0.6265741E+05 -0.2578056E+04 -0.1703742E-02 -0.1688004E-02  0.2089343E+06  0.9573647E+03
  0.1195238E+01 -0.6252411E+05 -0.2861081E+04  0.2872421E-02  0.5130768E-02  0.2088364E+06  0.1027727E+04
  0.1226190E+01 -0.6236034E+05 -0.3145243E+04  0.2812358E-02  0.5651474E-02  0.2087344E+06  0.1092831E+04
  0.1257143E+01 -0.6217695E+05 -0.3423269E+04 -0.2852353E-02 -0.9670258E-02  0.2086289E+06  0.1146512E+04
  0.1288095E+01 -0.6193682E+05 -0.3699498E+04  0.4548868E-02  0.4156113E-02  0.2086011E+06  0.1187798E+04
  0.1319048E+01 -0.6166113E+05 -0.3958674E+04 -0.9670877E-02 -0.6479263E-02  0.2085828E+06  0.1212717E+04
  0.1350000E+01 -0.6134162E+05 -0.4192994E+04  0.5221897E-02  0.7375717E-02  0.2085350E+06  0.1220458E+04
  0.1380952E+01 -0.6103106E+05 -0.4393037E+04 -0.3005455E-02 -0.7320404E-02  0.2084827E+06  0.1213822E+04
  0.1411905E+01 -0.6119710E+05 -0.4781580E+04  0.5533305E-02  0.3795624E-02  0.2081954E+06  0.1252924E+04
  0.1442857E+01 -0.6085030E+05 -0.4918116E+04 -0.8671827E-02 -0.1074219E-01  0.2081072E+06  0.1210744E+04
  0.1473810E+01 -0.6049233E+05 -0.5008155E+04 -0.1066390E-02  0.2353668E-02  0.2080650E+06  0.1150477E+04
  0.1504762E+01 -0.6011773E+05 -0.5043362E+04 -0.3437573E-02  0.3242493E-03  0.2080232E+06  0.1070238E+04
  0.1535714E+01 -0.5975024E+05 -0.5017354E+04 -0.7153887E-03 -0.3982544E-02  0.2079995E+06  0.9779597E+03
  0.1566667E+01 -0.5937706E+05 -0.4919478E+04 -0.5834052E-02  0.1743317E-02  0.2079457E+06  0.8683199E+03
  0.1597619E+01 -0.5903520E+05 -0.4755068E+04 -0.5730574E-04  0.5264282E-02  0.2079364E+06  0.7540219E+03
  0.1628572E+01 -0.5868610E+05 -0.4527583E+04 -0.4881474E-02 -0.1884460E-02  0.2079460E+06  0.6320478E+03
  0.1659524E+01 -0.5836402E+05 -0.4225371E+04 -0.5691506E-02 -0.4863739E-02  0.2079672E+06  0.5008817E+03
  0.1690476E+01 -0.5805243E+05 -0.3858546E+04 -0.4567320E-02 -0.3505707E-02  0.2080195E+06  0.3746848E+03
  0.1721429E+01 -0.5776330E+05 -0.3430029E+04  0.9413597E-02  0.1154709E-01  0.2080920E+06  0.2553249E+03
  0.1752381E+01 -0.5750312E+05 -0.2934105E+04  0.2838633E-02 -0.3454208E-02  0.2081667E+06  0.1361051E+03
  0.1783333E+01 -0.5726861E+05 -0.2386603E+04  0.9309287E-02  0.7915497E-02  0.2082780E+06  0.4435000E+02
  0.1814286E+01 -0.5705629E+05 -0.1770991E+04 -0.8713129E-02 -0.6404877E-02  0.2083390E+06 -0.6738394E+02
  0.1845238E+01 -0.5689671E+05 -0.1119518E+04  0.4878875E-02  0.2751350E-02  0.2084555E+06 -0.1416938E+03
  0.1876190E+01 -0.5674853E+05 -0.4322175E+03 -0.7758746E-02 -0.4462242E-02  0.2085731E+06 -0.1960847E+03
  0.1907143E+01 -0.5665169E+05  0.2936769E+03  0.7360795E-03 -0.9404421E-03  0.2087020E+06 -0.2303813E+03
  0.1938095E+01 -0.5656718E+05  0.1063467E+04  0.2692595E-02 -0.1914978E-02  0.2088122E+06 -0.2571681E+03
  0.1969048E+01 -0.5652700E+05  0.1840226E+04  0.9454176E-03 -0.1235008E-01  0.2089548E+06 -0.2402978E+03
  0.2000000E+01 -0.5650736E+05  0.2638873E+04 -0.8209229E-02 -0.6425858E-02  0.2090896E+06 -0.2030393E+03
