VARIABLES="w (rad/s)"
"abs(F   1   1)" "angle(F   1   1)"
"abs(F   1   2)" "angle(F   1   2)"
"abs(F   1   3)" "angle(F   1   3)"
Zone t="Diffraction force - beta =   0.000 deg",I=    64,F=POINT
  0.5000000E-01  0.3923508E+04 -0.1570779E+01  0.5085698E+06 -0.3469173E-04  0.3285421E+04  0.1570809E+01
  0.8095238E-01  0.6406383E+04 -0.1570800E+01  0.5075592E+06 -0.9330963E-04  0.5358739E+04  0.1570799E+01
  0.1119048E+00  0.8936414E+04 -0.1570791E+01  0.5060759E+06 -0.1852332E-03  0.7460577E+04  0.1570799E+01
  0.1428571E+00  0.1155356E+05 -0.1570779E+01  0.5041203E+06 -0.3174778E-03  0.9610711E+04  0.1570814E+01
  0.1738095E+00  0.1426861E+05 -0.1570781E+01  0.5016841E+06 -0.5006069E-03  0.1182912E+05  0.1570815E+01
  0.2047619E+00  0.1712613E+05 -0.1570782E+01  0.4987688E+06 -0.7498849E-03  0.1413515E+05  0.1570804E+01
  0.2357143E+00  0.2016518E+05 -0.1570764E+01  0.4953639E+06 -0.1087872E-02  0.1654609E+05  0.1570823E+01
  0.2666667E+00  0.2339538E+05 -0.1570744E+01  0.4914658E+06 -0.1541796E-02  0.1910238E+05  0.1570841E+01
  0.2976190E+00  0.2690942E+05 -0.1570725E+01  0.4870782E+06 -0.2158311E-02  0.2182078E+05  0.1570870E+01
  0.3285715E+00  0.3073968E+05 -0.1570691E+01  0.4821863E+06 -0.2983795E-02  0.2473054E+05  0.1570900E+01
  0.3595238E+00  0.3492413E+05 -0.1570636E+01  0.4768017E+06 -0.4093185E-02  0.2787643E+05  0.1570952E+01
  0.3904762E+00  0.3953504E+05 -0.1570555E+01  0.4709372E+06 -0.5569278E-02  0.3125955E+05  0.1571037E+01
  0.4214286E+00  0.4464584E+05 -0.1570445E+01  0.4646576E+06 -0.7464024E-02  0.3492027E+05  0.1571149E+01
  0.4523810E+00  0.5019441E+05 -0.1570279E+01  0.4579334E+06 -0.9920825E-02  0.3889156E+05  0.1571315E+01
  0.4833333E+00  0.5623896E+05 -0.1570050E+01  0.4508536E+06 -0.1287427E-01  0.4306786E+05  0.1571543E+01
  0.5142857E+00  0.6278820E+05 -0.1569731E+01  0.4434769E+06 -0.1649177E-01  0.4746793E+05  0.1571860E+01
  0.5452381E+00  0.6978116E+05 -0.1569311E+01  0.4358057E+06 -0.2071375E-01  0.5205634E+05  0.1572283E+01
  0.5761905E+00  0.7711972E+05 -0.1568765E+01  0.4278592E+06 -0.2555025E-01  0.5679418E+05  0.1572825E+01
  0.6071429E+00  0.8476713E+05 -0.1568067E+01  0.4197042E+06 -0.3113992E-01  0.6154445E+05  0.1573528E+01
  0.6380953E+00  0.9278321E+05 -0.1567201E+01  0.4113276E+06 -0.3735560E-01  0.6625819E+05  0.1574391E+01
  0.6690477E+00  0.1010936E+06 -0.1566136E+01  0.4028131E+06 -0.4432020E-01  0.7098429E+05  0.1575456E+01
  0.7000000E+00  0.1095761E+06 -0.1564835E+01  0.3941698E+06 -0.5211073E-01  0.7563900E+05  0.1576757E+01
  0.7309524E+00  0.1182176E+06 -0.1563281E+01  0.3853526E+06 -0.6066482E-01  0.8019673E+05  0.1578313E+01
  0.7619048E+00  0.1270663E+06 -0.1561436E+01  0.3764469E+06 -0.7006323E-01  0.8454489E+05  0.1580157E+01
  0.7928572E+00  0.1360541E+06 -0.1559275E+01  0.3675347E+06 -0.8035780E-01  0.8866766E+05  0.1582320E+01
  0.8238096E+00  0.1452184E+06 -0.1556767E+01  0.3586145E+06 -0.9155412E-01  0.9262154E+05  0.1584833E+01
  0.8547620E+00  0.1544367E+06 -0.1553887E+01  0.3496812E+06 -0.1036591E+00  0.9625409E+05  0.1587717E+01
  0.8857143E+00  0.1636798E+06 -0.1550609E+01  0.3407464E+06 -0.1166779E+00  0.9969212E+05  0.1590994E+01
  0.9166667E+00  0.1728170E+06 -0.1546912E+01  0.3318406E+06 -0.1306455E+00  0.1027907E+06  0.1594686E+01
  0.9476191E+00  0.1819459E+06 -0.1542797E+01  0.3229989E+06 -0.1455795E+00  0.1055153E+06  0.1598798E+01
  0.9785714E+00  0.1909934E+06 -0.1538264E+01  0.3142677E+06 -0.1615032E+00  0.1077266E+06  0.1603341E+01
  0.1009524E+01  0.1999731E+06 -0.1533322E+01  0.3056580E+06 -0.1784116E+00  0.1095411E+06  0.1608301E+01
  0.1040476E+01  0.2087327E+06 -0.1527976E+01  0.2971970E+06 -0.1963159E+00  0.1109984E+06  0.1613674E+01
  0.1071429E+01  0.2171947E+06 -0.1522252E+01  0.2888772E+06 -0.2151968E+00  0.1119254E+06  0.1619416E+01
  0.1102381E+01  0.2253567E+06 -0.1516192E+01  0.2806571E+06 -0.2350306E+00  0.1124573E+06  0.1625479E+01
  0.1133333E+01  0.2330687E+06 -0.1509843E+01  0.2725718E+06 -0.2558397E+00  0.1124204E+06  0.1631790E+01
  0.1164286E+01  0.2403337E+06 -0.1503305E+01  0.2646136E+06 -0.2776371E+00  0.1118544E+06  0.1638266E+01
  0.1195238E+01  0.2470772E+06 -0.1496656E+01  0.2568243E+06 -0.3004653E+00  0.1108249E+06  0.1644871E+01
  0.1226190E+01  0.2532144E+06 -0.1490016E+01  0.2492425E+06 -0.3243310E+00  0.1091183E+06  0.1651459E+01
  0.1257143E+01  0.2587944E+06 -0.1483428E+01  0.2418309E+06 -0.3493958E+00  0.1070264E+06  0.1658025E+01
  0.1288095E+01  0.2637297E+06 -0.1477221E+01  0.2346252E+06 -0.3750681E+00  0.1043669E+06  0.1664179E+01
  0.1319048E+01  0.2679641E+06 -0.1471332E+01  0.2275914E+06 -0.4018962E+00  0.1012518E+06  0.1669987E+01
  0.1350000E+01  0.2714769E+06 -0.1466001E+01  0.2207334E+06 -0.4296691E+00  0.9772534E+05  0.1675209E+01
  0.1380952E+01  0.2742341E+06 -0.1461349E+01  0.2140309E+06 -0.4584120E+00  0.9383598E+05  0.1679809E+01
  0.1411905E+01  0.2754664E+06 -0.1458807E+01  0.2081658E+06 -0.4842505E+00  0.8956837E+05  0.1682204E+01
  0.1442857E+01  0.2767699E+06 -0.1455999E+01  0.2018488E+06 -0.5147478E+00  0.8493774E+05  0.1684949E+01
  0.1473810E+01  0.2773403E+06 -0.1454332E+01  0.1957120E+06 -0.5461714E+00  0.7999976E+05  0.1686473E+01
  0.1504762E+01  0.2771780E+06 -0.1453933E+01  0.1897572E+06 -0.5785614E+00  0.7480557E+05  0.1686695E+01
  0.1535714E+01  0.2763519E+06 -0.1454952E+01  0.1839690E+06 -0.6118985E+00  0.6945521E+05  0.1685457E+01
  0.1566667E+01  0.2749079E+06 -0.1457492E+01  0.1783509E+06 -0.6462029E+00  0.6402099E+05  0.1682709E+01
  0.1597619E+01  0.2728569E+06 -0.1461624E+01  0.1729267E+06 -0.6815662E+00  0.5853771E+05  0.1678450E+01
  0.1628572E+01  0.2702372E+06 -0.1467478E+01  0.1677119E+06 -0.7178271E+00  0.5294154E+05  0.1672099E+01
  0.1659524E+01  0.2671726E+06 -0.1475094E+01  0.1626303E+06 -0.7551079E+00  0.4743459E+05  0.1664248E+01
  0.1690476E+01  0.2637023E+06 -0.1484557E+01  0.1576899E+06 -0.7933018E+00  0.4198422E+05  0.1654461E+01
  0.1721429E+01  0.2598245E+06 -0.1495901E+01  0.1529246E+06 -0.8323311E+00  0.3656865E+05  0.1642490E+01
  0.1752381E+01  0.2556508E+06 -0.1509139E+01  0.1482587E+06 -0.8722715E+00  0.3131244E+05  0.1628829E+01
  0.1783333E+01  0.2512121E+06 -0.1524322E+01  0.1437259E+06 -0.9130992E+00  0.2617545E+05  0.1612730E+01
  0.1814286E+01  0.2465639E+06 -0.1541399E+01  0.1393441E+06 -0.9550367E+00  0.2122970E+05  0.1594869E+01
  0.1845238E+01  0.2417399E+06 -0.1560369E+01  0.1351255E+06 -0.9980646E+00  0.1648234E+05  0.1575668E+01
  0.1876190E+01  0.2367676E+06 -0.1581249E+01  0.1310763E+06 -0.1041895E+01  0.1190069E+05  0.1553323E+01
  0.1907143E+01  0.2317192E+06 -0.1603993E+01  0.1271640E+06 -0.1086878E+01  0.7546882E+04  0.1530482E+01
  0.1938095E+01  0.2266192E+06 -0.1628602E+01  0.1233673E+06 -0.1132872E+01  0.3379823E+04  0.1504101E+01
  0.1969048E+01  0.2214762E+06 -0.1655033E+01  0.1196775E+06 -0.1179690E+01  0.5783162E+03 -0.1653657E+01
  0.2000000E+01  0.2163208E+06 -0.1683215E+01  0.1160922E+06 -0.1227410E+01  0.4297036E+04 -0.1694848E+01
