VARIABLES="w (rad/s)"
"abs(F   1   1)" "angle(F   1   1)"
"abs(F   1   2)" "angle(F   1   2)"
"abs(F   1   3)" "angle(F   1   3)"
Zone t="Diffraction force - beta =   0.000 deg",I=    64,F=POINT
  0.5000000E-01  0.1121139E+04 -0.1570795E+01  0.1380199E+03 -0.3107952E+01  0.1090072E+04  0.1570797E+01
  0.8095238E-01  0.1832967E+04 -0.1570794E+01  0.3609521E+03 -0.3107049E+01  0.1781958E+04  0.1570799E+01
  0.1119048E+00  0.2562796E+04 -0.1570792E+01  0.6875099E+03 -0.3105683E+01  0.2491721E+04  0.1570801E+01
  0.1428571E+00  0.3319973E+04 -0.1570788E+01  0.1117085E+04 -0.3103829E+01  0.3229208E+04  0.1570804E+01
  0.1738095E+00  0.4123559E+04 -0.1570783E+01  0.1651360E+04 -0.3101472E+01  0.4009238E+04  0.1570809E+01
  0.2047619E+00  0.4957358E+04 -0.1570775E+01  0.2294029E+04 -0.3098537E+01  0.4818241E+04  0.1570816E+01
  0.2357143E+00  0.5864284E+04 -0.1570764E+01  0.3042235E+04 -0.3094752E+01  0.5698226E+04  0.1570827E+01
  0.2666667E+00  0.6835355E+04 -0.1570747E+01  0.3900617E+04 -0.3090144E+01  0.6639400E+04  0.1570842E+01
  0.2976190E+00  0.7902728E+04 -0.1570722E+01  0.4870125E+04 -0.3084322E+01  0.7676295E+04  0.1570865E+01
  0.3285715E+00  0.9069226E+04 -0.1570685E+01  0.5950232E+04 -0.3077300E+01  0.8804374E+04  0.1570900E+01
  0.3595238E+00  0.1036957E+05 -0.1570629E+01  0.7138218E+04 -0.3068708E+01  0.1007041E+05  0.1570952E+01
  0.3904762E+00  0.1181321E+05 -0.1570544E+01  0.8442055E+04 -0.3058548E+01  0.1145965E+05  0.1571030E+01
  0.4214286E+00  0.1344623E+05 -0.1570420E+01  0.9828542E+04 -0.3046948E+01  0.1305007E+05  0.1571146E+01
  0.4523810E+00  0.1524356E+05 -0.1570236E+01  0.1133840E+05 -0.3033735E+01  0.1477747E+05  0.1571316E+01
  0.4833333E+00  0.1725563E+05 -0.1569979E+01  0.1288715E+05 -0.3019878E+01  0.1672044E+05  0.1571555E+01
  0.5142857E+00  0.1940465E+05 -0.1569618E+01  0.1454277E+05 -0.3005164E+01  0.1880801E+05  0.1571891E+01
  0.5452381E+00  0.2178173E+05 -0.1569133E+01  0.1623525E+05 -0.2990096E+01  0.2108040E+05  0.1572343E+01
  0.5761905E+00  0.2436631E+05 -0.1568497E+01  0.1798414E+05 -0.2975197E+01  0.2357513E+05  0.1572935E+01
  0.6071429E+00  0.2708024E+05 -0.1567663E+01  0.1982254E+05 -0.2960280E+01  0.2619044E+05  0.1573712E+01
  0.6380953E+00  0.3000854E+05 -0.1566612E+01  0.2163664E+05 -0.2945398E+01  0.2899708E+05  0.1574692E+01
  0.6690477E+00  0.3308166E+05 -0.1565288E+01  0.2351392E+05 -0.2930844E+01  0.3197151E+05  0.1575927E+01
  0.7000000E+00  0.3634525E+05 -0.1563637E+01  0.2546496E+05 -0.2916684E+01  0.3508720E+05  0.1577469E+01
  0.7309524E+00  0.3984677E+05 -0.1561623E+01  0.2735005E+05 -0.2902005E+01  0.3838851E+05  0.1579357E+01
  0.7619048E+00  0.4353072E+05 -0.1559170E+01  0.2927921E+05 -0.2887772E+01  0.4194181E+05  0.1581650E+01
  0.7928572E+00  0.4732868E+05 -0.1556202E+01  0.3125057E+05 -0.2874132E+01  0.4557046E+05  0.1584429E+01
  0.8238096E+00  0.5133482E+05 -0.1552655E+01  0.3319434E+05 -0.2860430E+01  0.4938424E+05  0.1587754E+01
  0.8547620E+00  0.5569541E+05 -0.1548476E+01  0.3508444E+05 -0.2846453E+01  0.5352032E+05  0.1591679E+01
  0.8857143E+00  0.6021784E+05 -0.1543539E+01  0.3698650E+05 -0.2833013E+01  0.5779279E+05  0.1596322E+01
  0.9166667E+00  0.6493611E+05 -0.1537760E+01  0.3891821E+05 -0.2820494E+01  0.6223180E+05  0.1601764E+01
  0.9476191E+00  0.6988241E+05 -0.1531047E+01  0.4078167E+05 -0.2807866E+01  0.6687682E+05  0.1608095E+01
  0.9785714E+00  0.7517074E+05 -0.1523331E+01  0.4254848E+05 -0.2794816E+01  0.7181370E+05  0.1615386E+01
  0.1009524E+01  0.8065364E+05 -0.1514464E+01  0.4430497E+05 -0.2782357E+01  0.7703377E+05  0.1623747E+01
  0.1040476E+01  0.8627916E+05 -0.1504310E+01  0.4604287E+05 -0.2770612E+01  0.8230810E+05  0.1633346E+01
  0.1071429E+01  0.9225921E+05 -0.1492824E+01  0.4777343E+05 -0.2759750E+01  0.8790507E+05  0.1644221E+01
  0.1102381E+01  0.9854097E+05 -0.1479840E+01  0.4934884E+05 -0.2748029E+01  0.9363198E+05  0.1656570E+01
  0.1133333E+01  0.1052287E+06 -0.1465305E+01  0.5085396E+05 -0.2736412E+01  0.9979102E+05  0.1670400E+01
  0.1164286E+01  0.1121084E+06 -0.1449023E+01  0.5232682E+05 -0.2725400E+01  0.1061952E+06  0.1685874E+01
  0.1195238E+01  0.1190808E+06 -0.1430839E+01  0.5375079E+05 -0.2715027E+01  0.1125912E+06  0.1703205E+01
  0.1226190E+01  0.1263081E+06 -0.1410730E+01  0.5515217E+05 -0.2705503E+01  0.1192408E+06  0.1722371E+01
  0.1257143E+01  0.1333848E+06 -0.1388571E+01  0.5644735E+05 -0.2695587E+01  0.1257420E+06  0.1743492E+01
  0.1288095E+01  0.1412612E+06 -0.1364295E+01  0.5757011E+05 -0.2685370E+01  0.1328080E+06  0.1766756E+01
  0.1319048E+01  0.1490936E+06 -0.1337913E+01  0.5866166E+05 -0.2675364E+01  0.1400379E+06  0.1791943E+01
  0.1350000E+01  0.1568635E+06 -0.1309266E+01  0.5968984E+05 -0.2665791E+01  0.1470826E+06  0.1819354E+01
  0.1380952E+01  0.1646535E+06 -0.1278241E+01  0.6066670E+05 -0.2656975E+01  0.1539711E+06  0.1849132E+01
  0.1411905E+01  0.1720593E+06 -0.1244681E+01  0.6159165E+05 -0.2648663E+01  0.1606780E+06  0.1881213E+01
  0.1442857E+01  0.1795908E+06 -0.1209136E+01  0.6243332E+05 -0.2640548E+01  0.1673558E+06  0.1915320E+01
  0.1473810E+01  0.1868718E+06 -0.1171614E+01  0.6307296E+05 -0.2631095E+01  0.1736134E+06  0.1951413E+01
  0.1504762E+01  0.1938063E+06 -0.1132085E+01  0.6365578E+05 -0.2621892E+01  0.1796694E+06  0.1989374E+01
  0.1535714E+01  0.2003128E+06 -0.1090917E+01  0.6417826E+05 -0.2612909E+01  0.1854187E+06  0.2028810E+01
  0.1566667E+01  0.2059436E+06 -0.1048141E+01  0.6463279E+05 -0.2604201E+01  0.1902352E+06  0.2069796E+01
  0.1597619E+01  0.2106887E+06 -0.1003973E+01  0.6502401E+05 -0.2595824E+01  0.1941722E+06  0.2112112E+01
  0.1628572E+01  0.2147308E+06 -0.9590854E+00  0.6535425E+05 -0.2587872E+01  0.1974909E+06  0.2155029E+01
  0.1659524E+01  0.2178365E+06 -0.9136404E+00  0.6560976E+05 -0.2580154E+01  0.1999633E+06  0.2198405E+01
  0.1690476E+01  0.2200749E+06 -0.8681189E+00  0.6563402E+05 -0.2570498E+01  0.2013772E+06  0.2241941E+01
  0.1721429E+01  0.2215142E+06 -0.8228929E+00  0.6556779E+05 -0.2560804E+01  0.2020264E+06  0.2285123E+01
  0.1752381E+01  0.2222843E+06 -0.7779273E+00  0.6543914E+05 -0.2551223E+01  0.2022680E+06  0.2327855E+01
  0.1783333E+01  0.2219274E+06 -0.7336629E+00  0.6522158E+05 -0.2541618E+01  0.2014484E+06  0.2369728E+01
  0.1814286E+01  0.2205777E+06 -0.6903870E+00  0.6491046E+05 -0.2532084E+01  0.1997017E+06  0.2410566E+01
  0.1845238E+01  0.2182438E+06 -0.6482774E+00  0.6451021E+05 -0.2522773E+01  0.1970094E+06  0.2450227E+01
  0.1876190E+01  0.2152338E+06 -0.6076886E+00  0.6402683E+05 -0.2513755E+01  0.1937772E+06  0.2488152E+01
  0.1907143E+01  0.2114798E+06 -0.5686077E+00  0.6344708E+05 -0.2505137E+01  0.1899067E+06  0.2524443E+01
  0.1938095E+01  0.2071738E+06 -0.5313474E+00  0.6265264E+05 -0.2495217E+01  0.1854419E+06  0.2558905E+01
  0.1969048E+01  0.2023860E+06 -0.4961454E+00  0.6171150E+05 -0.2484991E+01  0.1804656E+06  0.2591279E+01
  0.2000000E+01  0.1972895E+06 -0.4625533E+00  0.6067896E+05 -0.2475368E+01  0.1753378E+06  0.2621825E+01
