VARIABLES="w (rad/s)"
"A   1   1" "B   1   1"
"A   1   2" "B   1   2"
"A   1   3" "B   1   3"
Zone t="Motion of body    1 in DoF   1",I=    64,F=POINT
  0.5000000E-01  0.3285004E+05  0.1575545E-02 -0.9307861E-02 -0.6950982E-05  0.2824377E+05  0.1781942E-02
  0.8095238E-01  0.3293355E+05  0.6890378E-02 -0.4806519E-02 -0.2529239E-05  0.2813565E+05  0.7775185E-02
  0.1119048E+00  0.3298380E+05  0.1938104E-01 -0.8317663E-02  0.4148402E-05  0.2813099E+05  0.2183648E-01
  0.1428571E+00  0.3300430E+05  0.4356576E-01 -0.5500793E-02  0.1974095E-04  0.2817207E+05  0.4916999E-01
  0.1738095E+00  0.3305759E+05  0.8675088E-01 -0.4477305E-02  0.9065145E-05  0.2822708E+05  0.9802669E-01
  0.2047619E+00  0.3307814E+05  0.1600240E+00 -0.7116628E-02 -0.5900487E-04  0.2827028E+05  0.1809630E+00
  0.2357143E+00  0.3313296E+05  0.2818029E+00 -0.6732362E-02 -0.1567006E-03  0.2835892E+05  0.3192102E+00
  0.2666667E+00  0.3318881E+05  0.4808732E+00  0.4577636E-03 -0.2430379E-04  0.2841898E+05  0.5456087E+00
  0.2976190E+00  0.3323083E+05  0.8062858E+00  0.1486816E-02  0.1935884E-03  0.2850080E+05  0.9165879E+00
  0.3285715E+00  0.3329313E+05  0.1334121E+01 -0.2507749E-02 -0.8015707E-04  0.2859586E+05  0.1519818E+01
  0.3595238E+00  0.3337453E+05  0.2190905E+01 -0.2928475E-02  0.1380593E-04  0.2869251E+05  0.2500945E+01
  0.3904762E+00  0.3344757E+05  0.3572013E+01  0.2813572E-02  0.3376082E-03  0.2882362E+05  0.4088207E+01
  0.4214286E+00  0.3351901E+05  0.5743186E+01  0.1303463E-02  0.3179461E-03  0.2892911E+05  0.6590627E+01
  0.4523810E+00  0.3362751E+05  0.9156650E+01 -0.2496016E-02  0.8966029E-04  0.2907626E+05  0.1053689E+02
  0.4833333E+00  0.3374498E+05  0.1424017E+02  0.2020474E-01  0.1669943E-02  0.2923078E+05  0.1643601E+02
  0.5142857E+00  0.3385795E+05  0.2177535E+02 -0.4272461E-02  0.7399917E-04  0.2941874E+05  0.2521692E+02
  0.5452381E+00  0.3398450E+05  0.3250494E+02  0.5429197E-02  0.1473367E-02  0.2962839E+05  0.3777686E+02
  0.5761905E+00  0.3415413E+05  0.4739589E+02 -0.5773118E-02  0.3913641E-03  0.2989054E+05  0.5529151E+02
  0.6071429E+00  0.3430683E+05  0.6781516E+02 -0.7539636E-03  0.9298325E-05  0.3006032E+05  0.7937025E+02
  0.6380953E+00  0.3443917E+05  0.9485693E+02 -0.3013041E-02 -0.1604557E-03  0.3022948E+05  0.1114212E+03
  0.6690477E+00  0.3460697E+05  0.1304048E+03  0.7389381E-02  0.2782822E-02  0.3050271E+05  0.1538210E+03
  0.7000000E+00  0.3481196E+05  0.1765833E+03  0.1089913E-02  0.1312256E-02  0.3080956E+05  0.2091692E+03
  0.7309524E+00  0.3502436E+05  0.2353749E+03 -0.4550797E-02 -0.5202293E-03  0.3110580E+05  0.2799896E+03
  0.7619048E+00  0.3524059E+05  0.3095713E+03  0.2563476E-02  0.7176399E-03  0.3138936E+05  0.3698165E+03
  0.7928572E+00  0.3545583E+05  0.4020970E+03 -0.2193966E-02 -0.5912781E-04  0.3168373E+05  0.4824664E+03
  0.8238096E+00  0.3566432E+05  0.5161183E+03  0.2296756E-02  0.2415657E-02  0.3198356E+05  0.6220920E+03
  0.8547620E+00  0.3591509E+05  0.6552753E+03 -0.7354821E-02 -0.1396179E-02  0.3236505E+05  0.7936358E+03
  0.8857143E+00  0.3618764E+05  0.8235225E+03 -0.1378213E-02  0.5531311E-03  0.3278861E+05  0.1002432E+04
  0.9166667E+00  0.3646804E+05  0.1025034E+04 -0.5060369E-02  0.4482269E-02  0.3319609E+05  0.1253951E+04
  0.9476191E+00  0.3673560E+05  0.1264266E+04  0.2383131E-02  0.2107620E-02  0.3356496E+05  0.1554320E+04
  0.9785714E+00  0.3700107E+05  0.1545760E+04 -0.9480498E-02  0.8201599E-03  0.3393461E+05  0.1910031E+04
  0.1009524E+01  0.3725646E+05  0.1873838E+04 -0.5622720E-02 -0.4386902E-03  0.3431979E+05  0.2327531E+04
  0.1040476E+01  0.3751978E+05  0.2252863E+04  0.2405092E-02  0.6111145E-02  0.3473940E+05  0.2813260E+04
  0.1071429E+01  0.3778331E+05  0.2687259E+04  0.5582682E-02  0.4035950E-02  0.3515925E+05  0.3373653E+04
  0.1102381E+01  0.3803650E+05  0.3181189E+04  0.5536666E-04  0.4989624E-02  0.3558585E+05  0.4015851E+04
  0.1133333E+01  0.3828737E+05  0.3738647E+04 -0.6408691E-02 -0.4371643E-02  0.3599017E+05  0.4745689E+04
  0.1164286E+01  0.3851578E+05  0.4363167E+04 -0.5661666E-02 -0.3379822E-02  0.3637323E+05  0.5570218E+04
  0.1195238E+01  0.3871954E+05  0.5057442E+04 -0.6740616E-02 -0.1327515E-02  0.3671471E+05  0.6494216E+04
  0.1226190E+01  0.3888225E+05  0.5822471E+04 -0.8710843E-02 -0.6057739E-02  0.3700189E+05  0.7520699E+04
  0.1257143E+01  0.3899355E+05  0.6664917E+04 -0.3738403E-02 -0.2166748E-02  0.3722229E+05  0.8659395E+04
  0.1288095E+01  0.3908091E+05  0.7563534E+04 -0.1895362E-02  0.2395630E-02  0.3743252E+05  0.9885291E+04
  0.1319048E+01  0.3912382E+05  0.8535157E+04 -0.2313607E-03 -0.1464844E-02  0.3758744E+05  0.1122171E+05
  0.1350000E+01  0.3912008E+05  0.9570658E+04  0.1989294E-02  0.1109314E-01  0.3769304E+05  0.1265936E+05
  0.1380952E+01  0.3908001E+05  0.1066415E+05  0.1325936E-02  0.5310059E-02  0.3774814E+05  0.1419193E+05
  0.1411905E+01  0.3846659E+05  0.1156434E+05 -0.4149979E-02  0.4547119E-02  0.3686718E+05  0.1548019E+05
  0.1442857E+01  0.3834080E+05  0.1274299E+05 -0.3553334E-02 -0.5920410E-02  0.3679425E+05  0.1716361E+05
  0.1473810E+01  0.3816149E+05  0.1396008E+05  0.1656528E-03  0.7019043E-03  0.3666556E+05  0.1892134E+05
  0.1504762E+01  0.3794347E+05  0.1520586E+05 -0.8517881E-02  0.3967285E-03  0.3647123E+05  0.2073795E+05
  0.1535714E+01  0.3767495E+05  0.1647096E+05 -0.1828216E-02  0.3845215E-02  0.3621578E+05  0.2260427E+05
  0.1566667E+01  0.3736115E+05  0.1774623E+05  0.4675033E-03  0.2624512E-02  0.3589608E+05  0.2450684E+05
  0.1597619E+01  0.3699925E+05  0.1902141E+05 -0.3973198E-02  0.1226807E-01  0.3550277E+05  0.2643308E+05
  0.1628572E+01  0.3659412E+05  0.2028560E+05 -0.1101845E-01 -0.7690430E-02  0.3503953E+05  0.2836694E+05
  0.1659524E+01  0.3615138E+05  0.2153280E+05 -0.2133165E-02 -0.7934570E-03  0.3450522E+05  0.3029755E+05
  0.1690476E+01  0.3566303E+05  0.2275401E+05 -0.2671792E-02  0.6713867E-03  0.3391986E+05  0.3221952E+05
  0.1721429E+01  0.3515450E+05  0.2393801E+05 -0.1489157E-02 -0.1824951E-01  0.3328273E+05  0.3410728E+05
  0.1752381E+01  0.3461988E+05  0.2507813E+05 -0.3065027E-02  0.1141357E-01  0.3260147E+05  0.3595738E+05
  0.1783333E+01  0.3406091E+05  0.2617165E+05 -0.6571262E-02 -0.7873535E-02  0.3188246E+05  0.3776193E+05
  0.1814286E+01  0.3349280E+05  0.2720849E+05  0.6728285E-03 -0.0000000E+00  0.3113646E+05  0.3950131E+05
  0.1845238E+01  0.3291125E+05  0.2818545E+05 -0.5953881E-02  0.1031494E-01  0.3036920E+05  0.4117745E+05
  0.1876190E+01  0.3232643E+05  0.2909899E+05 -0.5335154E-02 -0.1098633E-02  0.2958510E+05  0.4277816E+05
  0.1907143E+01  0.3174111E+05  0.2995534E+05 -0.6272677E-02 -0.6103516E-02  0.2877736E+05  0.4430440E+05
  0.1938095E+01  0.3114956E+05  0.3074754E+05 -0.4156989E-02  0.7507324E-02  0.2796944E+05  0.4575971E+05
  0.1969048E+01  0.3056493E+05  0.3147859E+05 -0.1983827E-02 -0.2441406E-02  0.2715374E+05  0.4713287E+05
  0.2000000E+01  0.2999195E+05  0.3214731E+05 -0.1281738E-02  0.2746582E-02  0.2633468E+05  0.4842467E+05
Zone t="Motion of body    1 in DoF   2",I=    64,F=POINT
  0.5000000E-01 -0.3662109E-02 -0.1597404E-04  0.1018108E+06  0.2492194E+03 -0.2410889E-01 -0.6294250E-04
  0.8095238E-01 -0.7256900E-02  0.2670288E-04  0.1007854E+06  0.4135651E+03 -0.1979155E-01 -0.1153946E-03
  0.1119048E+00  0.4431542E-02 -0.4768372E-06  0.1001724E+06  0.5929911E+03 -0.1936243E-01 -0.1411438E-03
  0.1428571E+00 -0.8544921E-03 -0.6389618E-04  0.9999202E+05  0.7943046E+03 -0.2648926E-01 -0.1544952E-03
  0.1738095E+00  0.3248241E-02 -0.2002716E-04  0.9993752E+05  0.1026782E+04 -0.2282548E-01 -0.2326965E-03
  0.2047619E+00  0.2235590E-02  0.4005432E-04  0.1002093E+06  0.1301170E+04 -0.2474053E-01 -0.2441406E-03
  0.2357143E+00 -0.4401929E-02  0.1087189E-03  0.1004836E+06  0.1633353E+04 -0.2330433E-01 -0.3967285E-03
  0.2666667E+00  0.6866454E-03 -0.4386902E-04  0.1009795E+06  0.2037324E+04 -0.1464844E-01 -0.5493164E-03
  0.2976190E+00  0.2871094E-02 -0.1144409E-03  0.1015938E+06  0.2541774E+04 -0.1599609E-01 -0.6866455E-03
  0.3285715E+00 -0.6037172E-02  0.2059937E-03  0.1021839E+06  0.3165063E+04 -0.2080503E-01 -0.8621216E-03
  0.3595238E+00 -0.8827866E-02 -0.2632141E-03  0.1027822E+06  0.3941992E+04 -0.3021846E-01 -0.8087158E-03
  0.3904762E+00  0.9534881E-02  0.9918213E-04  0.1035253E+06  0.4902968E+04 -0.1125429E-01 -0.5645752E-03
  0.4214286E+00 -0.5069021E-02  0.1907349E-03  0.1039014E+06  0.6039879E+04 -0.2606925E-01 -0.9765625E-03
  0.4523810E+00  0.1753957E-02  0.3356934E-03  0.1041367E+06  0.7413114E+04 -0.2293637E-01 -0.1800537E-02
  0.4833333E+00  0.1515356E-02 -0.2975464E-03  0.1041855E+06  0.8918929E+04 -0.2146754E-01 -0.1800537E-02
  0.5142857E+00  0.7120769E-02 -0.5798340E-03  0.1040321E+06  0.1062421E+05 -0.1590305E-01 -0.2563477E-02
  0.5452381E+00  0.1007480E-02 -0.4425049E-03  0.1035819E+06  0.1244944E+05 -0.1634356E-01 -0.2624512E-02
  0.5761905E+00  0.6991299E-02  0.1983643E-03  0.1028791E+06  0.1436629E+05 -0.2245690E-01 -0.3967285E-02
  0.6071429E+00 -0.4222196E-02  0.1617432E-02  0.1020237E+06  0.1641107E+05 -0.2332261E-01 -0.1586914E-02
  0.6380953E+00  0.2869563E-03  0.1525879E-02  0.1011429E+06  0.1848193E+05 -0.1568695E-01 -0.2990723E-02
  0.6690477E+00 -0.4561346E-02  0.1220703E-03  0.1000791E+06  0.2062441E+05 -0.2663826E-01 -0.2319336E-02
  0.7000000E+00 -0.1028878E-01  0.1464844E-02  0.9880174E+05  0.2284771E+05 -0.2301897E-01 -0.2624512E-02
  0.7309524E+00 -0.8350086E-03 -0.1098633E-02  0.9746860E+05  0.2509134E+05 -0.2237823E-01 -0.5065918E-02
  0.7619048E+00  0.4806518E-03  0.1312256E-02  0.9609054E+05  0.2736179E+05 -0.2339172E-01 -0.4760742E-02
  0.7928572E+00 -0.1924532E-02  0.3051758E-04  0.9464838E+05  0.2965403E+05 -0.8006052E-02 -0.5371094E-02
  0.8238096E+00 -0.1044654E-01  0.7324219E-03  0.9311473E+05  0.3195789E+05 -0.2400481E-01 -0.4882812E-02
  0.8547620E+00 -0.1056809E-01  0.2258301E-02  0.9151209E+05  0.3425989E+05 -0.2199306E-01 -0.5615234E-02
  0.8857143E+00 -0.5995227E-02 -0.2471924E-02  0.8983759E+05  0.3654856E+05 -0.2453220E-01 -0.4882812E-02
  0.9166667E+00 -0.3795277E-02 -0.3051758E-03  0.8812511E+05  0.3880912E+05 -0.1571378E-01 -0.8300781E-02
  0.9476191E+00 -0.1030543E-02  0.4882812E-03  0.8638875E+05  0.4102954E+05 -0.2009559E-01 -0.5493164E-02
  0.9785714E+00 -0.2681983E-02  0.6103516E-03  0.8465498E+05  0.4319534E+05 -0.2170535E-01 -0.6103516E-02
  0.1009524E+01 -0.8403851E-02  0.3662109E-03  0.8291227E+05  0.4530668E+05 -0.2345823E-01 -0.7202148E-02
  0.1040476E+01 -0.4106255E-03 -0.5004883E-02  0.8115909E+05  0.4735863E+05 -0.2041396E-01 -0.6225586E-02
  0.1071429E+01  0.1708984E-03  0.2319336E-02  0.7938983E+05  0.4935138E+05 -0.1891276E-01 -0.1171875E-01
  0.1102381E+01 -0.3100533E-02 -0.6713867E-02  0.7761473E+05  0.5128055E+05 -0.1439533E-01 -0.6225586E-02
  0.1133333E+01 -0.1454073E-02  0.1464844E-02  0.7584837E+05  0.5313154E+05 -0.1292509E-01 -0.1000977E-01
  0.1164286E+01 -0.1310571E-02  0.6652832E-02  0.7411734E+05  0.5489395E+05 -0.1887222E-01 -0.1708984E-02
  0.1195238E+01 -0.4340548E-02  0.7385254E-02  0.7242374E+05  0.5655952E+05 -0.1143862E-01 -0.1245117E-01
  0.1226190E+01 -0.2040826E-02  0.2624512E-02  0.7076868E+05  0.5813085E+05 -0.1214540E-01 -0.4882812E-02
  0.1257143E+01  0.4855069E-03  0.4272461E-02  0.6916915E+05  0.5965895E+05 -0.1378840E-01 -0.1220703E-01
  0.1288095E+01 -0.1468905E-02  0.4028320E-02  0.6756449E+05  0.6101020E+05 -0.1288846E-01 -0.1049805E-01
  0.1319048E+01 -0.5089935E-03  0.5126953E-02  0.6601821E+05  0.6231817E+05 -0.1517726E-01 -0.1391602E-01
  0.1350000E+01  0.5108869E-02 -0.3173828E-02  0.6451044E+05  0.6354097E+05 -0.3797743E-02 -0.1245117E-01
  0.1380952E+01 -0.3093851E-03  0.3967285E-02  0.6304993E+05  0.6466291E+05 -0.8839575E-02 -0.8300781E-02
  0.1411905E+01 -0.1902074E-02  0.1403809E-02  0.6100568E+05  0.6569792E+05 -0.1487076E-01 -0.1660156E-01
  0.1442857E+01 -0.5076191E-02 -0.2258301E-02  0.5963325E+05  0.6670116E+05 -0.1421334E-01 -0.1806641E-01
  0.1473810E+01  0.2940336E-02 -0.6103516E-03  0.5830487E+05  0.6762201E+05 -0.1242396E-01 -0.1904297E-01
  0.1504762E+01 -0.1581892E-02 -0.8544922E-02  0.5702458E+05  0.6845441E+05 -0.7787777E-02 -0.1879883E-01
  0.1535714E+01  0.5007721E-02  0.4516602E-02  0.5578902E+05  0.6920841E+05 -0.1271802E-01 -0.1757812E-01
  0.1566667E+01  0.5687957E-02  0.6225586E-02  0.5459704E+05  0.6988316E+05 -0.1168758E-01 -0.1684570E-01
  0.1597619E+01  0.8022803E-03  0.7324219E-02  0.5345049E+05  0.7048362E+05 -0.1054426E-01 -0.1269531E-01
  0.1628572E+01 -0.9032132E-02  0.7202148E-02  0.5234487E+05  0.7101791E+05 -0.1589056E-01 -0.6835938E-02
  0.1659524E+01 -0.7870645E-02 -0.9765625E-03  0.5128695E+05  0.7148335E+05 -0.2177300E-01 -0.1440430E-01
  0.1690476E+01 -0.7798745E-02  0.4760742E-02  0.5026627E+05  0.7189733E+05 -0.1270907E-01 -0.7568359E-02
  0.1721429E+01 -0.3971084E-02 -0.4028320E-02  0.4929242E+05  0.7223923E+05 -0.1517521E-01 -0.2612305E-01
  0.1752381E+01  0.2786388E-03  0.3784180E-02  0.4835887E+05  0.7252405E+05 -0.6965969E-02 -0.1513672E-01
  0.1783333E+01 -0.2840702E-02 -0.2807617E-02  0.4746534E+05  0.7275564E+05 -0.5886755E-02 -0.1074219E-01
  0.1814286E+01 -0.2691314E-02  0.1953125E-02  0.4661094E+05  0.7292092E+05 -0.1251461E-01 -0.1391602E-01
  0.1845238E+01  0.5126953E-02  0.6347656E-02  0.4579232E+05  0.7302778E+05 -0.2116936E-02 -0.1416016E-01
  0.1876190E+01 -0.5074903E-02 -0.9765625E-03  0.4500968E+05  0.7307752E+05 -0.1561509E-01 -0.1806641E-01
  0.1907143E+01 -0.6816736E-02 -0.5371094E-02  0.4426695E+05  0.7307888E+05 -0.1088117E-01 -0.1879883E-01
  0.1938095E+01 -0.1165217E-02 -0.6103516E-03  0.4355420E+05  0.7304257E+05 -0.3527142E-02 -0.2758789E-01
  0.1969048E+01 -0.6199460E-02 -0.6835938E-02  0.4287841E+05  0.7296412E+05 -0.1103504E-01 -0.2978516E-01
  0.2000000E+01  0.8544922E-03 -0.1037598E-01  0.4223789E+05  0.7283988E+05 -0.5493164E-02 -0.2172852E-01
Zone t="Motion of body    1 in DoF   3",I=    64,F=POINT
  0.5000000E-01  0.2725755E+05  0.1708191E-02 -0.1335144E-01 -0.2203940E-04  0.6960215E+05  0.1956663E-02
  0.8095238E-01  0.2716567E+05  0.7453765E-02 -0.9330301E-02 -0.2365786E-04  0.6966076E+05  0.8425012E-02
  0.1119048E+00  0.2713708E+05  0.2094921E-01 -0.8113131E-02 -0.2203911E-04  0.6949220E+05  0.2367036E-01
  0.1428571E+00  0.2720607E+05  0.4715452E-01 -0.1773071E-01 -0.1184712E-03  0.6973745E+05  0.5313461E-01
  0.1738095E+00  0.2723716E+05  0.9404316E-01 -0.3186788E-01 -0.2864857E-03  0.6966130E+05  0.1060964E+00
  0.2047619E+00  0.2730374E+05  0.1736430E+00 -0.3025498E-01 -0.3426876E-03  0.6987781E+05  0.1963560E+00
  0.2357143E+00  0.2737838E+05  0.3062730E+00 -0.3696326E-01 -0.5518366E-03  0.6995283E+05  0.3469745E+00
  0.2666667E+00  0.2742828E+05  0.5236339E+00 -0.2174377E-01 -0.3310768E-03  0.6996156E+05  0.5942260E+00
  0.2976190E+00  0.2752630E+05  0.8795478E+00 -0.7485352E-02  0.4543737E-04  0.7020607E+05  0.9999819E+00
  0.3285715E+00  0.2760599E+05  0.1458440E+01 -0.2312701E-01 -0.6468073E-03  0.7028832E+05  0.1661331E+01
  0.3595238E+00  0.2767637E+05  0.2400418E+01 -0.3590565E-01 -0.1527499E-02  0.7026370E+05  0.2739744E+01
  0.3904762E+00  0.2783226E+05  0.3923542E+01 -0.1656881E-01 -0.4459396E-03  0.7063400E+05  0.4490505E+01
  0.4214286E+00  0.2793017E+05  0.6324660E+01 -0.2107264E-01 -0.8818954E-03  0.7077763E+05  0.7257625E+01
  0.4523810E+00  0.2804492E+05  0.1011283E+02 -0.2212685E-01 -0.1698509E-02  0.7082077E+05  0.1163616E+02
  0.4833333E+00  0.2818867E+05  0.1577749E+02  0.3851529E-02  0.7740557E-03  0.7098379E+05  0.1820930E+02
  0.5142857E+00  0.2840162E+05  0.2419834E+02 -0.1542833E-01 -0.1084507E-02  0.7145250E+05  0.2802234E+02
  0.5452381E+00  0.2861211E+05  0.3624009E+02 -0.1074645E-01 -0.1099706E-03  0.7184777E+05  0.4211717E+02
  0.5761905E+00  0.2885653E+05  0.5303342E+02 -0.2118575E-01 -0.2260208E-02  0.7219491E+05  0.6186690E+02
  0.6071429E+00  0.2899804E+05  0.7617216E+02  0.8042279E-02  0.1619458E-02  0.7224304E+05  0.8916082E+02
  0.6380953E+00  0.2916749E+05  0.1069574E+03 -0.3022607E-01 -0.5016804E-02  0.7249148E+05  0.1256354E+03
  0.6690477E+00  0.2945310E+05  0.1476025E+03 -0.3311537E-01 -0.6320000E-02  0.7305641E+05  0.1740993E+03
  0.7000000E+00  0.2974683E+05  0.2006896E+03 -0.9678431E-02  0.6771088E-04  0.7349890E+05  0.2377188E+03
  0.7309524E+00  0.3001006E+05  0.2686924E+03 -0.7431576E-02 -0.1163006E-02  0.7378644E+05  0.3196234E+03
  0.7619048E+00  0.3027226E+05  0.3550418E+03 -0.3668975E-01 -0.1029778E-01  0.7407984E+05  0.4241727E+03
  0.7928572E+00  0.3056310E+05  0.4632790E+03 -0.1408757E-01 -0.2787590E-02  0.7450530E+05  0.5559094E+03
  0.8238096E+00  0.3085953E+05  0.5973463E+03 -0.1252103E-01 -0.1235962E-02  0.7498502E+05  0.7199640E+03
  0.8547620E+00  0.3123520E+05  0.7619240E+03 -0.3227552E-01 -0.1175117E-01  0.7560597E+05  0.9226801E+03
  0.8857143E+00  0.3164396E+05  0.9621520E+03 -0.2046647E-01 -0.5403519E-02  0.7625644E+05  0.1171022E+04
  0.9166667E+00  0.3202093E+05  0.1203863E+04 -0.7723721E-02 -0.9136200E-03  0.7673908E+05  0.1472673E+04
  0.9476191E+00  0.3235847E+05  0.1493045E+04 -0.1829214E-01 -0.5119324E-02  0.7713490E+05  0.1835848E+04
  0.9785714E+00  0.3271313E+05  0.1835471E+04 -0.1696510E-01 -0.7335663E-02  0.7762607E+05  0.2268428E+04
  0.1009524E+01  0.3309273E+05  0.2236603E+04 -0.2865773E-01 -0.1264191E-01  0.7824174E+05  0.2778260E+04
  0.1040476E+01  0.3350895E+05  0.2702632E+04 -0.1196680E-01 -0.6011963E-02  0.7896309E+05  0.3374366E+04
  0.1071429E+01  0.3391762E+05  0.3240743E+04 -0.1697591E-01 -0.1255035E-01  0.7963598E+05  0.4067224E+04
  0.1102381E+01  0.3432402E+05  0.3857069E+04 -0.2314327E-01 -0.1021576E-01  0.8029716E+05  0.4867384E+04
  0.1133333E+01  0.3470345E+05  0.4559341E+04 -0.1992618E-01 -0.1300812E-01  0.8086618E+05  0.5786164E+04
  0.1164286E+01  0.3506132E+05  0.5353161E+04 -0.1174271E-01  0.1770020E-02  0.8141038E+05  0.6834448E+04
  0.1195238E+01  0.3538579E+05  0.6243990E+04 -0.7455529E-02 -0.2166748E-02  0.8191958E+05  0.8021044E+04
  0.1226190E+01  0.3566121E+05  0.7233891E+04 -0.1732213E-01 -0.4516602E-02  0.8236108E+05  0.9349207E+04
  0.1257143E+01  0.3587520E+05  0.8332161E+04 -0.1641013E-01 -0.9735107E-02  0.8276237E+05  0.1083182E+05
  0.1288095E+01  0.3607846E+05  0.9510020E+04 -0.2132282E-01 -0.2070618E-01  0.8319686E+05  0.1243496E+05
  0.1319048E+01  0.3623337E+05  0.1079680E+05 -0.5367568E-02  0.7659912E-02  0.8356505E+05  0.1419988E+05
  0.1350000E+01  0.3633825E+05  0.1217970E+05 -0.8138021E-03  0.1132202E-01  0.8388954E+05  0.1611512E+05
  0.1380952E+01  0.3639581E+05  0.1365593E+05 -0.1582284E-01 -0.1828003E-01  0.8414170E+05  0.1817922E+05
  0.1411905E+01  0.3417910E+05  0.1422138E+05 -0.1910719E-01 -0.1040649E-01  0.8060378E+05  0.1904150E+05
  0.1442857E+01  0.3410724E+05  0.1577562E+05 -0.1827429E-01 -0.1419067E-01  0.8062516E+05  0.2125111E+05
  0.1473810E+01  0.3398120E+05  0.1739437E+05 -0.6543284E-02 -0.5920410E-02  0.8059417E+05  0.2357572E+05
  0.1504762E+01  0.3380311E+05  0.1907119E+05 -0.1046482E-01  0.2136230E-02  0.8049660E+05  0.2600546E+05
  0.1535714E+01  0.3357016E+05  0.2079104E+05 -0.1756677E-01 -0.7324219E-02  0.8035018E+05  0.2852679E+05
  0.1566667E+01  0.3327980E+05  0.2254296E+05 -0.1160967E-01 -0.6286621E-02  0.8013223E+05  0.3112207E+05
  0.1597619E+01  0.3291990E+05  0.2431732E+05 -0.1000940E-01  0.4211426E-02  0.7980855E+05  0.3378071E+05
  0.1628572E+01  0.3249430E+05  0.2610357E+05 -0.1386676E-01 -0.1788330E-01  0.7935538E+05  0.3648420E+05
  0.1659524E+01  0.3200119E+05  0.2789062E+05 -0.1574129E-01 -0.2716064E-01  0.7880987E+05  0.3922304E+05
  0.1690476E+01  0.3145452E+05  0.2966229E+05 -0.1270907E-01 -0.1239014E-01  0.7818286E+05  0.4197831E+05
  0.1721429E+01  0.3086646E+05  0.3140823E+05 -0.1446609E-01 -0.1568604E-01  0.7749266E+05  0.4472648E+05
  0.1752381E+01  0.3023693E+05  0.3312334E+05  0.2786388E-03  0.1495361E-01  0.7671275E+05  0.4746238E+05
  0.1783333E+01  0.2956553E+05  0.3478711E+05 -0.8487880E-02  0.8300781E-02  0.7588196E+05  0.5015826E+05
  0.1814286E+01  0.2887545E+05  0.3639363E+05 -0.1433125E-01 -0.3662109E-03  0.7501816E+05  0.5279758E+05
  0.1845238E+01  0.2816362E+05  0.3793593E+05 -0.4366179E-02 -0.7934570E-02  0.7411609E+05  0.5537757E+05
  0.1876190E+01  0.2743915E+05  0.3941532E+05 -0.8913612E-02 -0.2014160E-01  0.7316488E+05  0.5788500E+05
  0.1907143E+01  0.2669180E+05  0.4082852E+05 -0.8192885E-02 -0.8056641E-02  0.7218098E+05  0.6032467E+05
  0.1938095E+01  0.2593994E+05  0.4216370E+05 -0.9888595E-02 -0.1379395E-01  0.7118073E+05  0.6267630E+05
  0.1969048E+01  0.2518151E+05  0.4342588E+05 -0.1109703E-01 -0.6103516E-03  0.7016142E+05  0.6494547E+05
  0.2000000E+01  0.2442345E+05  0.4462396E+05 -0.1171875E-01 -0.3784180E-02  0.6911400E+05  0.6713380E+05
