VARIABLES="w (rad/s)"
"A   1   1" "B   1   1"
"A   1   2" "B   1   2"
"A   1   3" "B   1   3"
Zone t="Motion of body    1 in DoF   1",I=    64,F=POINT
  0.5000000E-01  0.5848596E+05  0.4860237E-02 -0.3538132E-02 -0.8324773E-05  0.1058826E+04  0.1143286E-03
  0.8095238E-01  0.5875753E+05  0.2134179E-01 -0.6314446E-02 -0.1905898E-04  0.1052524E+04  0.4863818E-03
  0.1119048E+00  0.5885143E+05  0.5995833E-01  0.6664357E-02  0.6905533E-04  0.1054545E+04  0.1380047E-02
  0.1428571E+00  0.5913392E+05  0.1351289E+00 -0.5207062E-03  0.2013083E-04  0.1063928E+04  0.3128379E-02
  0.1738095E+00  0.5906563E+05  0.2689051E+00  0.4060301E-03  0.7906108E-04  0.1063549E+04  0.6241773E-02
  0.2047619E+00  0.5928091E+05  0.4965772E+00  0.5551715E-02  0.8343393E-04  0.1066483E+04  0.1158540E-01
  0.2357143E+00  0.5942620E+05  0.8750283E+00 -0.3948790E-02 -0.2832618E-05  0.1080280E+04  0.2053727E-01
  0.2666667E+00  0.5945078E+05  0.1493118E+01  0.2560615E-02 -0.2677599E-04  0.1077546E+04  0.3518532E-01
  0.2976190E+00  0.5970886E+05  0.2507357E+01  0.1368896E-01  0.4655779E-03  0.1089528E+04  0.5951968E-01
  0.3285715E+00  0.5992181E+05  0.4153121E+01 -0.4307290E-02  0.5801581E-04  0.1102619E+04  0.9944460E-01
  0.3595238E+00  0.6001873E+05  0.6821318E+01  0.4668583E-02  0.9185448E-04  0.1110445E+04  0.1647045E+00
  0.3904762E+00  0.6027580E+05  0.1113373E+02  0.3175037E-02  0.1309030E-03  0.1122652E+04  0.2712801E+00
  0.4214286E+00  0.6069352E+05  0.1794564E+02 -0.4761259E-02 -0.2842098E-03  0.1159036E+04  0.4438220E+00
  0.4523810E+00  0.6089613E+05  0.2863842E+02 -0.6745991E-04 -0.1137629E-03  0.1152887E+04  0.7123453E+00
  0.4833333E+00  0.6108679E+05  0.4456990E+02  0.2230414E-01  0.1532413E-02  0.1167223E+04  0.1121814E+01
  0.5142857E+00  0.6157258E+05  0.6832521E+02  0.7654826E-02  0.9225756E-03  0.1194234E+04  0.1741775E+01
  0.5452381E+00  0.6205582E+05  0.1022562E+03 -0.2616649E-02  0.1395643E-03  0.1224979E+04  0.2644241E+01
  0.5761905E+00  0.6236567E+05  0.1492999E+03  0.9692483E-02  0.1056254E-02  0.1232301E+04  0.3902079E+01
  0.6071429E+00  0.6271829E+05  0.2139760E+03 -0.9977452E-02 -0.1155436E-02  0.1242583E+04  0.5652999E+01
  0.6380953E+00  0.6326166E+05  0.3001444E+03  0.2749998E-03  0.1126349E-02  0.1275327E+04  0.8053303E+01
  0.6690477E+00  0.6393624E+05  0.4140403E+03  0.9692860E-03  0.2090931E-03  0.1318232E+04  0.1130108E+02
  0.7000000E+00  0.6455243E+05  0.5623906E+03  0.3869193E-02  0.1502037E-04  0.1346394E+04  0.1556998E+02
  0.7309524E+00  0.6500512E+05  0.7513917E+03 -0.1252513E-03 -0.7898808E-03  0.1357985E+04  0.2106288E+02
  0.7619048E+00  0.6558739E+05  0.9909988E+03  0.9913443E-03  0.1065016E-02  0.1392280E+04  0.2824174E+02
  0.7928572E+00  0.6633656E+05  0.1291698E+04 -0.7813599E-02 -0.2033710E-02  0.1430277E+04  0.3739639E+02
  0.8238096E+00  0.6716449E+05  0.1664792E+04 -0.5723369E-02 -0.3857613E-03  0.1472323E+04  0.4900288E+02
  0.8547620E+00  0.6798799E+05  0.2122410E+04 -0.6337285E-02 -0.1163006E-02  0.1524782E+04  0.6367266E+02
  0.8857143E+00  0.6880150E+05  0.2678562E+04 -0.7407896E-03  0.9565353E-03  0.1570749E+04  0.8182298E+02
  0.9166667E+00  0.6951660E+05  0.3346806E+04  0.3628817E-02  0.6402016E-02  0.1596303E+04  0.1037560E+03
  0.9476191E+00  0.7025504E+05  0.4143287E+04 -0.1771246E-02  0.4359245E-02  0.1630422E+04  0.1305002E+03
  0.9785714E+00  0.7106859E+05  0.5084686E+04 -0.5816160E-02 -0.4997253E-03  0.1684155E+04  0.1631540E+03
  0.1009524E+01  0.7197996E+05  0.6189180E+04  0.4821633E-02  0.6828308E-03  0.1747692E+04  0.2026459E+03
  0.1040476E+01  0.7289288E+05  0.7472880E+04 -0.2067793E-02  0.1707077E-02  0.1805380E+04  0.2493717E+03
  0.1071429E+01  0.7374670E+05  0.8952398E+04 -0.1310221E-01 -0.7892609E-02  0.1860735E+04  0.3043701E+03
  0.1102381E+01  0.7451038E+05  0.1064326E+05  0.2477658E-02 -0.4623413E-02  0.1914006E+04  0.3689020E+03
  0.1133333E+01  0.7512248E+05  0.1255639E+05  0.3015855E-02 -0.7667542E-03  0.1958255E+04  0.4437043E+03
  0.1164286E+01  0.7563034E+05  0.1470407E+05  0.5202966E-02  0.7276535E-02  0.2003898E+04  0.5300734E+03
  0.1195238E+01  0.7607418E+05  0.1708815E+05 -0.2106442E-02 -0.6256104E-03  0.2045245E+04  0.6277570E+03
  0.1226190E+01  0.7642971E+05  0.1970926E+05  0.5724268E-02  0.1110840E-01  0.2086658E+04  0.7373999E+03
  0.1257143E+01  0.7664099E+05  0.2257651E+05 -0.4527352E-02 -0.6179810E-02  0.2121599E+04  0.8604829E+03
  0.1288095E+01  0.7674617E+05  0.2564901E+05  0.5212245E-03  0.5760193E-02  0.2162401E+04  0.9983096E+03
  0.1319048E+01  0.7664794E+05  0.2894695E+05  0.1029555E-02  0.5264282E-02  0.2195991E+04  0.1150795E+04
  0.1350000E+01  0.7636887E+05  0.3243702E+05 -0.1672815E-02  0.1918793E-02  0.2226064E+04  0.1317261E+04
  0.1380952E+01  0.7591870E+05  0.3608231E+05  0.7149006E-02  0.2572632E-01  0.2242258E+04  0.1495052E+04
  0.1411905E+01  0.7493005E+05  0.3963982E+05  0.2161447E-02 -0.6217957E-02  0.2206415E+04  0.1668356E+04
  0.1442857E+01  0.7408154E+05  0.4346731E+05  0.3458155E-02  0.1174927E-02  0.2201820E+04  0.1865257E+04
  0.1473810E+01  0.7302412E+05  0.4734130E+05  0.2194899E-02  0.7568359E-02  0.2190498E+04  0.2074304E+04
  0.1504762E+01  0.7177602E+05  0.5121819E+05 -0.2230874E-03 -0.3082275E-02  0.2173217E+04  0.2292471E+04
  0.1535714E+01  0.7037559E+05  0.5504793E+05  0.3954510E-02  0.4745483E-02  0.2150324E+04  0.2517866E+04
  0.1566667E+01  0.6882405E+05  0.5878403E+05  0.2434913E-02  0.4806519E-03  0.2117725E+04  0.2746282E+04
  0.1597619E+01  0.6714323E+05  0.6239033E+05  0.3409691E-02  0.2311707E-02  0.2072211E+04  0.2974234E+04
  0.1628572E+01  0.6532842E+05  0.6583219E+05 -0.2614071E-02 -0.2586365E-02  0.2015847E+04  0.3202778E+04
  0.1659524E+01  0.6342391E+05  0.6908159E+05 -0.3218138E-02 -0.1727295E-01  0.1952908E+04  0.3429802E+04
  0.1690476E+01  0.6144909E+05  0.7211212E+05 -0.5343585E-02  0.1678467E-02  0.1885952E+04  0.3655346E+04
  0.1721429E+01  0.5941979E+05  0.7490216E+05  0.9395869E-03 -0.3929138E-02  0.1815352E+04  0.3877593E+04
  0.1752381E+01  0.5736965E+05  0.7744034E+05  0.3822576E-02  0.1197815E-02  0.1737541E+04  0.4094190E+04
  0.1783333E+01  0.5532049E+05  0.7971507E+05  0.1677041E-02  0.8544922E-02  0.1657265E+04  0.4306051E+04
  0.1814286E+01  0.5329772E+05  0.8172632E+05  0.1345657E-02  0.3662109E-03  0.1572050E+04  0.4510211E+04
  0.1845238E+01  0.5131083E+05  0.8347538E+05  0.2629631E-02 -0.1677704E-01  0.1482136E+04  0.4701714E+04
  0.1876190E+01  0.4935490E+05  0.8496927E+05 -0.4066429E-04 -0.3585815E-03  0.1389975E+04  0.4881413E+04
  0.1907143E+01  0.4745762E+05  0.8622209E+05  0.3080332E-02  0.4463196E-02  0.1296567E+04  0.5049436E+04
  0.1938095E+01  0.4562709E+05  0.8724355E+05 -0.1653348E-02 -0.7080078E-02  0.1203831E+04  0.5211388E+04
  0.1969048E+01  0.4384468E+05  0.8804507E+05  0.7594338E-03  0.1731873E-02  0.1113403E+04  0.5370502E+04
  0.2000000E+01  0.4214852E+05  0.8863785E+05 -0.2510071E-02  0.2975464E-02  0.1023941E+04  0.5520176E+04
Zone t="Motion of body    1 in DoF   2",I=    64,F=POINT
  0.5000000E-01  0.6790161E-02  0.5692244E-05  0.1013194E+06  0.2655495E+03  0.4386902E-02  0.9894371E-05
  0.8095238E-01 -0.6750331E-02  0.4070997E-04  0.1001551E+06  0.4403197E+03  0.3864064E-02  0.2479553E-04
  0.1119048E+00  0.1245945E-01 -0.8881092E-05  0.9949915E+05  0.6305843E+03  0.4704252E-02  0.3421307E-04
  0.1428571E+00 -0.4392624E-02 -0.4005432E-04  0.9915505E+05  0.8435455E+03  0.4379272E-02  0.4267693E-04
  0.1738095E+00  0.8164497E-02  0.2292395E-03  0.9905684E+05  0.1088311E+04  0.4543148E-02  0.5817413E-04
  0.2047619E+00  0.1122453E-01 -0.3099442E-05  0.9916807E+05  0.1376241E+04  0.3837763E-02  0.9655952E-04
  0.2357143E+00  0.9936708E-02 -0.1912117E-03  0.9940369E+05  0.1723263E+04  0.6570526E-02  0.1888275E-03
  0.2666667E+00 -0.2964020E-01 -0.4506111E-03  0.9977725E+05  0.2142921E+04  0.4720687E-02  0.1068115E-03
  0.2976190E+00  0.9202881E-02  0.1955032E-03  0.1002310E+06  0.2665156E+04  0.5332031E-02  0.1373291E-03
  0.3285715E+00 -0.4249241E-02  0.5149841E-04  0.1007338E+06  0.3306100E+04  0.2902487E-02  0.1773834E-03
  0.3595238E+00  0.3055800E-02 -0.8916855E-04  0.1012173E+06  0.4101375E+04  0.4095620E-02  0.2565384E-03
  0.3904762E+00  0.1153760E-01  0.4105568E-03  0.1017008E+06  0.5078512E+04  0.5138676E-02  0.3204346E-03
  0.4214286E+00  0.2190541E-02  0.1540184E-03  0.1018987E+06  0.6226976E+04  0.5141436E-02  0.7438660E-04
  0.4523810E+00  0.3035696E-03  0.3204346E-03  0.1019950E+06  0.7605568E+04  0.5531712E-02  0.4863739E-03
  0.4833333E+00 -0.7876692E-02  0.4186630E-03  0.1017614E+06  0.9100625E+04  0.3283270E-02  0.3814697E-03
  0.5142857E+00  0.8426243E-02 -0.2058983E-02  0.1012784E+06  0.1078279E+05  0.4687839E-02  0.5531311E-03
  0.5452381E+00 -0.2812548E-02 -0.1763344E-02  0.1005438E+06  0.1256127E+05  0.4673587E-02  0.7190704E-03
  0.5761905E+00 -0.1602173E-02  0.4253387E-03  0.9960786E+05  0.1440233E+05  0.3601578E-02  0.5569458E-03
  0.6071429E+00  0.5792954E-02 -0.2056122E-02  0.9845953E+05  0.1634996E+05  0.5679859E-02  0.4501343E-03
  0.6380953E+00 -0.1033043E-01  0.1909256E-02  0.9722700E+05  0.1829008E+05  0.5739126E-02  0.1140594E-02
  0.6690477E+00  0.1009198E-01  0.8468628E-03  0.9585293E+05  0.2026689E+05  0.5017480E-02  0.1091003E-02
  0.7000000E+00  0.4130772E-02 -0.2624512E-02  0.9431641E+05  0.2228612E+05  0.5405970E-02  0.1449585E-02
  0.7309524E+00 -0.8339648E-02 -0.3210068E-02  0.9273259E+05  0.2428519E+05  0.3486161E-02  0.1087189E-02
  0.7619048E+00 -0.2923965E-02 -0.1245499E-02  0.9109312E+05  0.2627417E+05  0.5527496E-02  0.1964569E-02
  0.7928572E+00  0.3406421E-02 -0.7209778E-03  0.8936866E+05  0.2824756E+05  0.4946047E-02  0.1007080E-02
  0.8238096E+00  0.5621497E-02 -0.6332397E-03  0.8757387E+05  0.3018864E+05  0.4297157E-02  0.1655579E-02
  0.8547620E+00  0.2838390E-02 -0.2059937E-03  0.8574706E+05  0.3207905E+05  0.3963035E-02  0.1976013E-02
  0.8857143E+00 -0.4797905E-02 -0.2079010E-02  0.8391127E+05  0.3390413E+05  0.3910680E-02  0.1930237E-02
  0.9166667E+00  0.4977140E-02  0.1487732E-03  0.8205902E+05  0.3565649E+05  0.3795277E-02  0.1953125E-02
  0.9476191E+00  0.6682429E-03 -0.6538391E-02  0.8018117E+05  0.3733018E+05  0.3928946E-02  0.2258301E-02
  0.9785714E+00  0.6743939E-02 -0.3097534E-02  0.7830386E+05  0.3891683E+05  0.3679930E-02  0.2708435E-02
  0.1009524E+01 -0.2214324E-02  0.1625061E-02  0.7645384E+05  0.4040525E+05  0.4020547E-02  0.2258301E-02
  0.1040476E+01  0.5235475E-02 -0.6664276E-02  0.7462515E+05  0.4178971E+05  0.3768956E-02  0.2281189E-02
  0.1071429E+01 -0.1381429E-02 -0.2471924E-02  0.7281677E+05  0.4306663E+05  0.3318278E-02  0.2487183E-02
  0.1102381E+01 -0.7059250E-02 -0.5165100E-02  0.7103775E+05  0.4423302E+05  0.4027925E-02  0.2731323E-02
  0.1133333E+01 -0.4597832E-02  0.2204895E-02  0.6929942E+05  0.4528529E+05  0.2894682E-02  0.3120422E-02
  0.1164286E+01 -0.9056044E-02  0.2666473E-02  0.6762871E+05  0.4621520E+05  0.3473012E-02  0.2693176E-02
  0.1195238E+01  0.9689635E-02  0.5111694E-03  0.6601599E+05  0.4702580E+05  0.3319243E-02  0.2677917E-02
  0.1226190E+01  0.5724268E-03  0.9422302E-03  0.6446226E+05  0.4772089E+05  0.2812358E-02  0.2777100E-02
  0.1257143E+01 -0.6068836E-02 -0.4467010E-02  0.6296986E+05  0.4833494E+05  0.2743114E-02  0.3211975E-02
  0.1288095E+01 -0.2013822E-02  0.2517700E-03  0.6150564E+05  0.4878557E+05  0.2132282E-02  0.3059387E-02
  0.1319048E+01  0.5494816E-02 -0.1174927E-02  0.6012593E+05  0.4915322E+05  0.3354730E-02  0.2143860E-02
  0.1350000E+01 -0.7629395E-02 -0.2460480E-02  0.5882045E+05  0.4940467E+05  0.3051758E-02  0.3021240E-02
  0.1380952E+01  0.7358946E-02 -0.1487732E-03  0.5758668E+05  0.4954428E+05  0.2850763E-02  0.4638672E-02
  0.1411905E+01  0.9186151E-03 -0.8773804E-03  0.5641706E+05  0.4965850E+05  0.2939568E-02  0.3440857E-02
  0.1442857E+01  0.1787242E-02 -0.8563995E-02  0.5531008E+05  0.4961321E+05  0.1205595E-02  0.3540039E-02
  0.1473810E+01  0.2225959E-02 -0.7541656E-02  0.5425511E+05  0.4948412E+05  0.3188816E-02  0.3402710E-02
  0.1504762E+01 -0.2078769E-02  0.5912781E-02  0.5327343E+05  0.4926301E+05  0.2575645E-02  0.3379822E-02
  0.1535714E+01  0.3527264E-02 -0.2349854E-02  0.5236636E+05  0.4896185E+05  0.2563476E-02  0.4371643E-02
  0.1566667E+01  0.5171755E-02  0.4856110E-02  0.5152809E+05  0.4857638E+05  0.2162203E-02  0.2861023E-02
  0.1597619E+01 -0.7067707E-03  0.6481171E-02  0.5074666E+05  0.4812255E+05  0.2349535E-02  0.3982544E-02
  0.1628572E+01 -0.5621659E-03 -0.2399445E-02  0.5002536E+05  0.4759915E+05  0.1761453E-02  0.2990723E-02
  0.1659524E+01 -0.1176919E-02 -0.1228714E-01  0.4936168E+05  0.4701454E+05  0.2353838E-02  0.1541138E-02
  0.1690476E+01 -0.4332636E-03  0.1016235E-01  0.4874445E+05  0.4637627E+05  0.2473213E-02  0.4570007E-02
  0.1721429E+01 -0.3900172E-03 -0.1014709E-02  0.4818056E+05  0.4568196E+05  0.1560069E-02  0.4302979E-02
  0.1752381E+01 -0.4353731E-04  0.2746582E-02  0.4768084E+05  0.4494994E+05  0.1863397E-02  0.2273560E-02
  0.1783333E+01 -0.4030032E-02 -0.2708435E-02  0.4723607E+05  0.4417298E+05  0.1334788E-02  0.3822327E-02
  0.1814286E+01  0.2994087E-02 -0.1277924E-02  0.4683805E+05  0.4335007E+05  0.1631609E-02  0.3196716E-02
  0.1845238E+01  0.4051947E-02 -0.1068878E-01  0.4647629E+05  0.4249819E+05  0.2116936E-02  0.2449036E-02
  0.1876190E+01 -0.2269067E-02 -0.3582001E-02  0.4616069E+05  0.4161342E+05  0.1561509E-02  0.3902435E-02
  0.1907143E+01  0.1200130E-03 -0.1033211E-01  0.4588493E+05  0.4070227E+05  0.2272245E-02  0.2143860E-02
  0.1938095E+01  0.1558871E-02  0.1201630E-02  0.4564368E+05  0.3977317E+05  0.7243239E-03  0.3475189E-02
  0.1969048E+01  0.4525606E-02 -0.8756638E-02  0.4543032E+05  0.3883038E+05  0.1921833E-02  0.2803802E-02
  0.2000000E+01  0.5767822E-02 -0.7493973E-02  0.4525936E+05  0.3786334E+05  0.1708984E-02  0.2231598E-02
Zone t="Motion of body    1 in DoF   3",I=    64,F=POINT
  0.5000000E-01  0.1081131E+04  0.1172116E-03  0.2315044E-02  0.4617108E-05  0.1983994E+04  0.3294499E-05
  0.8095238E-01  0.1073971E+04  0.5073105E-03  0.4738779E-02  0.1871209E-04  0.1996455E+04  0.1069147E-04
  0.1119048E+00  0.1077962E+04  0.1434388E-02  0.6907240E-02  0.4696233E-04  0.2009501E+04  0.3891831E-04
  0.1428571E+00  0.1085809E+04  0.3236826E-02  0.6515502E-02  0.5463980E-04  0.2010259E+04  0.7248203E-04
  0.1738095E+00  0.1087106E+04  0.6456812E-02  0.3610376E-02  0.4099754E-04  0.2018241E+04  0.1484536E-03
  0.2047619E+00  0.1088033E+04  0.1200344E-01  0.2147098E-02  0.1329295E-04  0.2012908E+04  0.2985745E-03
  0.2357143E+00  0.1103096E+04  0.2126037E-01  0.3946766E-02  0.6201421E-04  0.2011675E+04  0.5026442E-03
  0.2666667E+00  0.1100485E+04  0.3649449E-01 -0.1534223E-02 -0.4923280E-04  0.2016436E+04  0.8689867E-03
  0.2976190E+00  0.1110943E+04  0.6168825E-01  0.8017273E-02  0.2129490E-03  0.2008386E+04  0.1455313E-02
  0.3285715E+00  0.1125659E+04  0.1030048E+00  0.6997895E-02  0.2525827E-03  0.2016041E+04  0.2434761E-02
  0.3595238E+00  0.1133972E+04  0.1706067E+00  0.7615626E-02  0.3266980E-03  0.2012746E+04  0.4089260E-02
  0.3904762E+00  0.1146822E+04  0.2810993E+00  0.2635281E-02  0.1187342E-03  0.2018625E+04  0.6843565E-02
  0.4214286E+00  0.1185076E+04  0.4573934E+00  0.6460739E-02  0.4317431E-03  0.2017920E+04  0.1129046E-01
  0.4523810E+00  0.1177744E+04  0.7376941E+00  0.3621754E-02  0.2115665E-03  0.2021385E+04  0.1828814E-01
  0.4833333E+00  0.1192571E+04  0.1160883E+01  0.9109891E-02  0.8829357E-03  0.2019060E+04  0.2919269E-01
  0.5142857E+00  0.1219657E+04  0.1799274E+01  0.3873772E-02  0.4143752E-03  0.2019197E+04  0.4585996E-01
  0.5452381E+00  0.1252341E+04  0.2724480E+01  0.6457666E-02  0.8297646E-03  0.2028806E+04  0.7037503E-01
  0.5761905E+00  0.1258019E+04  0.4030497E+01  0.5495055E-03  0.8943398E-04  0.2018840E+04  0.1053148E+00
  0.6071429E+00  0.1269169E+04  0.5852738E+01  0.6622314E-02  0.1024201E-02  0.2026666E+04  0.1546933E+00
  0.6380953E+00  0.1302435E+04  0.8319728E+01  0.5957333E-02  0.1086490E-02  0.2028582E+04  0.2233254E+00
  0.6690477E+00  0.1345559E+04  0.1163476E+02  0.4820772E-02  0.1081636E-02  0.2025589E+04  0.3176971E+00
  0.7000000E+00  0.1375626E+04  0.1604234E+02  0.2678462E-02  0.6857440E-03  0.2034058E+04  0.4443552E+00
  0.7309524E+00  0.1386904E+04  0.2177560E+02  0.2246695E-02  0.5560108E-03  0.2035000E+04  0.6106725E+00
  0.7619048E+00  0.1421258E+04  0.2915892E+02  0.5289673E-02  0.1652583E-02  0.2029339E+04  0.8296016E+00
  0.7928572E+00  0.1460613E+04  0.3861296E+02  0.3156232E-02  0.7664934E-03  0.2032406E+04  0.1116805E+01
  0.8238096E+00  0.1503248E+04  0.5056606E+02  0.4167501E-02  0.1789674E-02  0.2041168E+04  0.1488916E+01
  0.8547620E+00  0.1556799E+04  0.6551135E+02  0.4074607E-02  0.1497239E-02  0.2045403E+04  0.1966374E+01
  0.8857143E+00  0.1602499E+04  0.8410517E+02  0.8097002E-02  0.3705591E-02  0.2040420E+04  0.2567946E+01
  0.9166667E+00  0.1629869E+04  0.1071443E+03  0.5763661E-02  0.2536476E-02  0.2042586E+04  0.3324991E+01
  0.9476191E+00  0.1665456E+04  0.1350499E+03  0.2600512E-02  0.1335144E-02  0.2050155E+04  0.4261863E+01
  0.9785714E+00  0.1720402E+04  0.1684878E+03  0.5369813E-02  0.2502829E-02  0.2055390E+04  0.5401190E+01
  0.1009524E+01  0.1783186E+04  0.2086220E+03  0.1330106E-02  0.8685589E-03  0.2051676E+04  0.6812093E+01
  0.1040476E+01  0.1840622E+04  0.2564898E+03  0.2687397E-02  0.1062214E-02  0.2053160E+04  0.8548113E+01
  0.1071429E+01  0.1899337E+04  0.3132242E+03  0.3638713E-02  0.3130376E-02  0.2065007E+04  0.1065777E+02
  0.1102381E+01  0.1953809E+04  0.3796347E+03  0.5204466E-02  0.3949106E-02  0.2071891E+04  0.1318481E+02
  0.1133333E+01  0.1997792E+04  0.4569133E+03  0.2133986E-02 -0.1515150E-03  0.2074088E+04  0.1620295E+02
  0.1164286E+01  0.2043876E+04  0.5460458E+03  0.5327470E-02  0.5610585E-02  0.2070741E+04  0.1964905E+02
  0.1195238E+01  0.2085273E+04  0.6473378E+03  0.4011815E-02  0.3938079E-02  0.2069566E+04  0.2375114E+02
  0.1226190E+01  0.2131891E+04  0.7618521E+03  0.4439419E-02  0.5811930E-02  0.2077624E+04  0.2839474E+02
  0.1257143E+01  0.2169151E+04  0.8904952E+03  0.4175359E-02  0.4193187E-02  0.2087720E+04  0.3399236E+02
  0.1288095E+01  0.2207718E+04  0.1031477E+04  0.3210269E-02  0.3985047E-02  0.2092206E+04  0.4022026E+02
  0.1319048E+01  0.2240821E+04  0.1187938E+04  0.1205968E-02 -0.5459785E-03  0.2094418E+04  0.4736923E+02
  0.1350000E+01  0.2270756E+04  0.1357936E+04  0.1669990E-02  0.1212597E-02  0.2093230E+04  0.5487159E+02
  0.1380952E+01  0.2286885E+04  0.1541749E+04  0.4969498E-02  0.9156942E-02  0.2093859E+04  0.6348767E+02
  0.1411905E+01  0.2164269E+04  0.1673380E+04  0.2607246E-02  0.4691362E-02  0.2085308E+04  0.6994251E+02
  0.1442857E+01  0.2159810E+04  0.1873690E+04  0.2908234E-02  0.4774332E-02  0.2094919E+04  0.8089970E+02
  0.1473810E+01  0.2146553E+04  0.2084468E+04  0.3494238E-02  0.8764744E-02  0.2097746E+04  0.9212891E+02
  0.1504762E+01  0.2127020E+04  0.2301678E+04 -0.2104119E-03 -0.4002810E-02  0.2100585E+04  0.1036802E+03
  0.1535714E+01  0.2102296E+04  0.2525491E+04  0.3927186E-02  0.4626751E-02  0.2094603E+04  0.1155416E+03
  0.1566667E+01  0.2067144E+04  0.2751629E+04  0.3009553E-02  0.6212711E-02  0.2089535E+04  0.1268136E+03
  0.1597619E+01  0.2021870E+04  0.2982573E+04  0.7855661E-03 -0.1347542E-02  0.2088280E+04  0.1401736E+03
  0.1628572E+01  0.1967955E+04  0.3218358E+04  0.2389205E-02  0.6354332E-02  0.2092600E+04  0.1550428E+03
  0.1659524E+01  0.1904456E+04  0.3449084E+04  0.2448083E-02 -0.4196167E-04  0.2102345E+04  0.1721317E+03
  0.1690476E+01  0.1836723E+04  0.3676303E+04  0.1739824E-02  0.4674911E-02  0.2105955E+04  0.1889028E+03
  0.1721429E+01  0.1765468E+04  0.3895211E+04  0.3860284E-02  0.2252579E-02  0.2108700E+04  0.2049168E+03
  0.1752381E+01  0.1686890E+04  0.4109822E+04  0.1458500E-02  0.3485203E-02  0.2104455E+04  0.2196066E+03
  0.1783333E+01  0.1604652E+04  0.4318978E+04  0.1016064E-02  0.2938747E-02  0.2093488E+04  0.2308062E+03
  0.1814286E+01  0.1514648E+04  0.4518959E+04  0.8305227E-03  0.4843712E-02  0.2083250E+04  0.2433304E+03
  0.1845238E+01  0.1422572E+04  0.4713843E+04  0.2344341E-02  0.9093285E-03  0.2078932E+04  0.2575703E+03
  0.1876190E+01  0.1330758E+04  0.4903597E+04  0.1811594E-02  0.2485752E-02  0.2080279E+04  0.2758386E+03
  0.1907143E+01  0.1235956E+04  0.5079958E+04  0.3368363E-02  0.1343727E-02  0.2086544E+04  0.2980797E+03
  0.1938095E+01  0.1139606E+04  0.5244304E+04  0.3871590E-02  0.4053593E-02  0.2090083E+04  0.3212249E+03
  0.1969048E+01  0.1046872E+04  0.5397645E+04  0.3024174E-02  0.3931046E-02  0.2087770E+04  0.3379367E+03
  0.2000000E+01  0.9559084E+03  0.5538856E+04  0.1317978E-02  0.6322384E-02  0.2086524E+04  0.3557011E+03
