VARIABLES="w (rad/s)"
"A   1   1" "B   1   1"
"A   1   2" "B   1   2"
"A   1   3" "B   1   3"
Zone t="Motion of body    1 in DoF   1",I=    64,F=POINT
  0.5000000E-01  0.8850962E+05  0.8093074E-02 -0.6942749E-02 -0.2802245E-04 -0.6698957E+05 -0.4151557E-02
  0.8095238E-01  0.8898891E+05  0.3559653E-01  0.1818937E-01  0.6511109E-04 -0.6741315E+05 -0.1816697E-01
  0.1119048E+00  0.8923132E+05  0.9992836E-01 -0.9272149E-02  0.1705706E-04 -0.6744221E+05 -0.5049843E-01
  0.1428571E+00  0.8938729E+05  0.2247335E+00 -0.7690429E-02 -0.1071123E-03 -0.6741361E+05 -0.1131261E+00
  0.1738095E+00  0.8946218E+05  0.4468489E+00 -0.5004046E-02 -0.5393149E-04 -0.6742703E+05 -0.2239577E+00
  0.2047619E+00  0.8958724E+05  0.8232771E+00  0.2235590E-03  0.8865818E-04 -0.6740344E+05 -0.4102603E+00
  0.2357143E+00  0.8973857E+05  0.1447386E+01 -0.1605409E-01 -0.2072304E-03 -0.6747674E+05 -0.7163897E+00
  0.2666667E+00  0.8988080E+05  0.2465151E+01 -0.5836486E-02  0.4369393E-04 -0.6737252E+05 -0.1208766E+01
  0.2976190E+00  0.9007857E+05  0.4127051E+01 -0.9741211E-02 -0.2996810E-03 -0.6737910E+05 -0.2006568E+01
  0.3285715E+00  0.9031548E+05  0.6814210E+01 -0.3092890E-01 -0.7586479E-03 -0.6743031E+05 -0.3278733E+01
  0.3595238E+00  0.9054988E+05  0.1116174E+02 -0.8573215E-02 -0.1390725E-03 -0.6734220E+05 -0.5302482E+01
  0.3904762E+00  0.9078490E+05  0.1814719E+02 -0.7815476E-04 -0.4663467E-03 -0.6729293E+05 -0.8507951E+01
  0.4214286E+00  0.9121638E+05  0.2912303E+02 -0.2389681E-01 -0.1238674E-02 -0.6722570E+05 -0.1344409E+02
  0.4523810E+00  0.9156426E+05  0.4630984E+02 -0.1153564E-01 -0.4694462E-03 -0.6734527E+05 -0.2108374E+02
  0.4833333E+00  0.9181694E+05  0.7175896E+02  0.2146754E-02  0.1105428E-02 -0.6737226E+05 -0.3214315E+02
  0.5142857E+00  0.9232066E+05  0.1094514E+03 -0.1186795E-01 -0.2180457E-02 -0.6720469E+05 -0.4807018E+02
  0.5452381E+00  0.9284925E+05  0.1629404E+03  0.4925457E-02  0.1152277E-02 -0.6721509E+05 -0.7019064E+02
  0.5761905E+00  0.9330680E+05  0.2367496E+03  0.1175809E-01  0.1906633E-02 -0.6734687E+05 -0.1000394E+03
  0.6071429E+00  0.9379055E+05  0.3375421E+03  0.6634880E-02 -0.9446144E-03 -0.6740058E+05 -0.1396568E+03
  0.6380953E+00  0.9437318E+05  0.4706011E+03 -0.6599995E-02 -0.2725601E-02 -0.6733833E+05 -0.1900821E+03
  0.6690477E+00  0.9511077E+05  0.6449896E+03 -0.8210423E-03 -0.2365112E-03 -0.6727048E+05 -0.2537996E+03
  0.7000000E+00  0.9587298E+05  0.8705316E+03 -0.1403809E-01 -0.2763748E-02 -0.6730718E+05 -0.3336292E+03
  0.7309524E+00  0.9649622E+05  0.1155797E+04 -0.9936602E-02 -0.1518250E-02 -0.6741986E+05 -0.4312987E+03
  0.7619048E+00  0.9719050E+05  0.1513779E+04  0.2082824E-02  0.1466751E-02 -0.6743408E+05 -0.5483837E+03
  0.7928572E+00  0.9802311E+05  0.1958259E+04  0.1470342E-01  0.9506226E-02 -0.6730025E+05 -0.6861657E+03
  0.8238096E+00  0.9891817E+05  0.2503727E+04  0.4963957E-02  0.6725311E-02 -0.6723466E+05 -0.8477493E+03
  0.8547620E+00  0.9982882E+05  0.3165550E+04 -0.7140603E-02 -0.3395081E-02 -0.6716627E+05 -0.1033567E+04
  0.8857143E+00  0.1007284E+06  0.3960661E+04 -0.1075006E-01 -0.1579285E-02 -0.6709020E+05 -0.1244015E+04
  0.9166667E+00  0.1015906E+06  0.4905791E+04  0.1198509E-02 -0.1304626E-02 -0.6703457E+05 -0.1479122E+04
  0.9476191E+00  0.1023987E+06  0.6017100E+04 -0.3014339E-01 -0.1447296E-01 -0.6696351E+05 -0.1737701E+04
  0.9785714E+00  0.1031839E+06  0.7311266E+04 -0.1871151E-02 -0.2746582E-03 -0.6673290E+05 -0.2014052E+04
  0.1009524E+01  0.1040319E+06  0.8806204E+04 -0.3506643E-02  0.4165649E-02 -0.6644999E+05 -0.2306129E+04
  0.1040476E+01  0.1048561E+06  0.1051643E+05  0.1642502E-02  0.3921509E-02 -0.6608523E+05 -0.2606750E+04
  0.1071429E+01  0.1056237E+06  0.1245420E+05 -0.8317058E-02 -0.4425049E-02 -0.6576268E+05 -0.2913186E+04
  0.1102381E+01  0.1062367E+06  0.1462912E+05 -0.4429333E-02 -0.1097107E-01 -0.6542480E+05 -0.3214412E+04
  0.1133333E+01  0.1067035E+06  0.1704804E+05 -0.1303280E-01 -0.3662109E-02 -0.6508249E+05 -0.3499336E+04
  0.1164286E+01  0.1070161E+06  0.1970825E+05 -0.1289602E-01 -0.1220703E-01 -0.6469082E+05 -0.3753960E+04
  0.1195238E+01  0.1071684E+06  0.2260110E+05  0.3472438E-02  0.4486084E-02 -0.6417132E+05 -0.3960305E+04
  0.1226190E+01  0.1071727E+06  0.2571145E+05 -0.8063751E-02 -0.2050781E-01 -0.6360553E+05 -0.4110923E+04
  0.1257143E+01  0.1069914E+06  0.2905001E+05 -0.9710138E-02 -0.9124756E-02 -0.6309482E+05 -0.4208732E+04
  0.1288095E+01  0.1066158E+06  0.3252403E+05 -0.7676214E-02 -0.8117676E-02 -0.6242381E+05 -0.4199847E+04
  0.1319048E+01  0.1060799E+06  0.3617872E+05 -0.4442125E-02 -0.1336670E-01 -0.6186445E+05 -0.4113158E+04
  0.1350000E+01  0.1053181E+06  0.3994475E+05 -0.2079716E-02  0.2075195E-02 -0.6125073E+05 -0.3909788E+04
  0.1380952E+01  0.1043792E+06  0.4378516E+05 -0.1175663E-01 -0.1025391E-01 -0.6061962E+05 -0.3587799E+04
  0.1411905E+01  0.1024557E+06  0.4699266E+05 -0.3458316E-02 -0.2563477E-02 -0.6032123E+05 -0.3149990E+04
  0.1442857E+01  0.1011765E+06  0.5082820E+05 -0.5076191E-02 -0.1531982E-01 -0.5977552E+05 -0.2597190E+04
  0.1473810E+01  0.9968680E+05  0.5461021E+05  0.2733270E-02 -0.2026367E-01 -0.5917897E+05 -0.1890073E+04
  0.1504762E+01  0.9806123E+05  0.5831102E+05  0.8274512E-02  0.5859375E-02 -0.5866361E+05 -0.1066640E+04
  0.1535714E+01  0.9632541E+05  0.6188623E+05 -0.1041288E-01  0.2441406E-03 -0.5824336E+05 -0.1282566E+03
  0.1566667E+01  0.9442873E+05  0.6529062E+05 -0.3895861E-02 -0.2441406E-02 -0.5780098E+05  0.9480063E+03
  0.1597619E+01  0.9247562E+05  0.6850396E+05 -0.1910191E-02  0.1196289E-01 -0.5744760E+05  0.2122093E+04
  0.1628572E+01  0.9045477E+05  0.7149346E+05  0.2398574E-02  0.1257324E-01 -0.5715484E+05  0.3413081E+04
  0.1659524E+01  0.8839651E+05  0.7426676E+05 -0.8017760E-02 -0.1672363E-01 -0.5698944E+05  0.4762450E+04
  0.1690476E+01  0.8629589E+05  0.7678802E+05 -0.3177267E-02  0.9765625E-03 -0.5685969E+05  0.6203357E+04
  0.1721429E+01  0.8417896E+05  0.7905290E+05  0.7091222E-03  0.2075195E-02 -0.5675617E+05  0.7721997E+04
  0.1752381E+01  0.8212633E+05  0.8107780E+05 -0.8846781E-02 -0.8789062E-02 -0.5678975E+05  0.9239054E+04
  0.1783333E+01  0.8010472E+05  0.8283666E+05  0.6639712E-02 -0.5615234E-02 -0.5684986E+05  0.1081935E+05
  0.1814286E+01  0.7809588E+05  0.8434303E+05  0.5382628E-02  0.1708984E-02 -0.5693208E+05  0.1242992E+05
  0.1845238E+01  0.7617188E+05  0.8561028E+05 -0.9195439E-02 -0.9643555E-02 -0.5710138E+05  0.1401715E+05
  0.1876190E+01  0.7431359E+05  0.8663486E+05 -0.6896663E-02 -0.1318359E-01 -0.5730391E+05  0.1564795E+05
  0.1907143E+01  0.7253427E+05  0.8747420E+05 -0.1344145E-02 -0.1586914E-02 -0.5760719E+05  0.1723134E+05
  0.1938095E+01  0.7082249E+05  0.8813269E+05 -0.8188009E-03 -0.6958008E-02 -0.5798278E+05  0.1875267E+05
  0.1969048E+01  0.6914665E+05  0.8855798E+05 -0.2665768E-02 -0.1794434E-01 -0.5828641E+05  0.2038408E+05
  0.2000000E+01  0.6758208E+05  0.8883405E+05 -0.7690430E-02  0.4150391E-02 -0.5868135E+05  0.2189191E+05
Zone t="Motion of body    1 in DoF   2",I=    64,F=POINT
  0.5000000E-01  0.7781982E-02 -0.3194809E-04  0.1091063E+06  0.3400900E+03 -0.9155273E-03  0.9536743E-06
  0.8095238E-01  0.1300587E-01 -0.3433228E-04  0.1075322E+06  0.5639443E+03  0.8293601E-02 -0.8773804E-04
  0.1119048E+00  0.3272523E-02  0.1497269E-03  0.1067435E+06  0.8076786E+03 -0.1281738E-01 -0.2861023E-04
  0.1428571E+00 -0.1431274E-01  0.7820129E-04  0.1062647E+06  0.1080488E+04  0.1388550E-01  0.1296997E-03
  0.1738095E+00  0.6496482E-02  0.1678467E-03  0.1062281E+06  0.1394095E+04  0.9832513E-02  0.1220703E-03
  0.2047619E+00 -0.2041839E-01  0.1831055E-03  0.1063450E+06  0.1763057E+04 -0.2623092E-01 -0.3242493E-03
  0.2357143E+00  0.6343957E-02 -0.8773804E-04  0.1066458E+06  0.2207785E+04 -0.3366181E-02  0.2365112E-03
  0.2666667E+00 -0.1396179E-01  0.1945496E-03  0.1072187E+06  0.2745600E+04 -0.9155273E-03 -0.2059937E-03
  0.2976190E+00 -0.2460938E-01 -0.3814697E-04  0.1077533E+06  0.3415058E+04  0.2255859E-01 -0.2517700E-03
  0.3285715E+00  0.3715183E-02 -0.1144409E-03  0.1084072E+06  0.4236584E+04  0.8544921E-02 -0.5493164E-03
  0.3595238E+00 -0.6111600E-02 -0.1754761E-03  0.1091210E+06  0.5255758E+04  0.3293473E-01 -0.6256104E-03
  0.3904762E+00 -0.9065953E-02  0.3051758E-04  0.1097589E+06  0.6508307E+04  0.6252381E-02 -0.8544922E-03
  0.4214286E+00 -0.3475900E-02  0.6103516E-03  0.1099898E+06  0.7980580E+04  0.1158633E-01  0.6103516E-03
  0.4523810E+00 -0.8769788E-02  0.1831055E-03  0.1101800E+06  0.9746156E+04  0.1349198E-02  0.7324219E-03
  0.4833333E+00 -0.1515356E-01  0.1541138E-02  0.1099718E+06  0.1166355E+05 -0.1010237E-02  0.2105713E-02
  0.5142857E+00 -0.1044379E-01  0.1464844E-02  0.1093674E+06  0.1382154E+05 -0.1661513E-02  0.1037598E-02
  0.5452381E+00 -0.2238844E-03  0.5493164E-03  0.1084495E+06  0.1610348E+05 -0.2843332E-01  0.1403809E-02
  0.5761905E+00 -0.4237151E-03 -0.2441406E-02  0.1073278E+06  0.1846691E+05 -0.9745447E-02 -0.2502441E-02
  0.6071429E+00  0.6634880E-02  0.8850098E-03  0.1059712E+06  0.2096417E+05  0.8042278E-03  0.1647949E-02
  0.6380953E+00 -0.7843473E-02  0.3356934E-02  0.1044689E+06  0.2346348E+05 -0.6121735E-02 -0.1159668E-02
  0.6690477E+00  0.1185950E-01  0.3051758E-03  0.1027335E+06  0.2601383E+05 -0.8392877E-02  0.5493164E-03
  0.7000000E+00 -0.1778739E-01 -0.3112793E-02  0.1008462E+06  0.2861809E+05 -0.1743861E-02 -0.4028320E-02
  0.7309524E+00 -0.1503015E-02 -0.3234863E-02  0.9894780E+05  0.3120217E+05 -0.1235813E-01 -0.9765625E-03
  0.7619048E+00 -0.9452819E-02  0.4882812E-03  0.9696429E+05  0.3378029E+05 -0.7690429E-02 -0.1098633E-02
  0.7928572E+00  0.1847551E-02  0.5737305E-02  0.9485972E+05  0.3634889E+05 -0.4926801E-02 -0.2929688E-02
  0.8238096E+00  0.2667201E-02  0.9155273E-03  0.9264988E+05  0.3888950E+05 -0.2074490E-02 -0.6103516E-02
  0.8547620E+00  0.2284993E-02 -0.9155273E-03  0.9040288E+05  0.4137630E+05 -0.8568724E-02 -0.1074219E-01
  0.8857143E+00 -0.2205141E-02 -0.6530762E-02  0.8814872E+05  0.4378981E+05 -0.1681420E-01  0.3784180E-02
  0.9166667E+00 -0.1598011E-02 -0.4150391E-02  0.8591153E+05  0.4611591E+05  0.7990057E-02  0.3295898E-02
  0.9476191E+00 -0.9532525E-02  0.1953125E-02  0.8365661E+05  0.4835670E+05 -0.2318722E-02  0.8544922E-03
  0.9785714E+00 -0.4989735E-03  0.7324219E-03  0.8138345E+05  0.5050852E+05 -0.6736143E-02  0.2929688E-02
  0.1009524E+01 -0.1293830E-01 -0.2807617E-02  0.7911699E+05  0.5255796E+05 -0.2297456E-01  0.8056641E-02
  0.1040476E+01 -0.5162150E-02 -0.5493164E-02  0.7686534E+05  0.5449959E+05  0.1079359E-01 -0.9765625E-03
  0.1071429E+01  0.2278646E-03 -0.8544922E-03  0.7464056E+05  0.5632108E+05  0.1070964E-01 -0.1708984E-02
  0.1102381E+01 -0.4540066E-02  0.3906250E-02  0.7247134E+05  0.5801526E+05  0.2524720E-01 -0.3906250E-02
  0.1133333E+01 -0.4200655E-02 -0.3784180E-02  0.7036236E+05  0.5957466E+05  0.2800437E-02 -0.1708984E-02
  0.1164286E+01  0.6081048E-02  0.1171875E-01  0.6832683E+05  0.6099871E+05 -0.3984135E-02  0.9765625E-03
  0.1195238E+01  0.8476835E-02  0.4882812E-02  0.6635641E+05  0.6229377E+05 -0.5923571E-02  0.3417969E-02
  0.1226190E+01  0.2090602E-02 -0.9399414E-02  0.6444964E+05  0.6346596E+05 -0.2966664E-01 -0.5371094E-02
  0.1257143E+01 -0.7671009E-02 -0.2319336E-02  0.6262088E+05  0.6455707E+05  0.3301447E-02 -0.1464844E-02
  0.1288095E+01 -0.4643636E-02  0.1354980E-01  0.6081196E+05  0.6547280E+05 -0.1175124E-01  0.6103516E-02
  0.1319048E+01  0.1110531E-02 -0.2685547E-02  0.5909728E+05  0.6629362E+05  0.2776328E-02 -0.3173828E-02
  0.1350000E+01 -0.9042245E-02  0.5004883E-02  0.5745074E+05  0.6699642E+05 -0.1374421E-01  0.7324219E-03
  0.1380952E+01 -0.1856311E-02 -0.2136230E-01  0.5589071E+05  0.6756021E+05 -0.1944706E-02  0.2197266E-02
  0.1411905E+01 -0.8645789E-03 -0.9765625E-02  0.5408307E+05  0.6807922E+05 -0.3458316E-03 -0.4638672E-02
  0.1442857E+01 -0.1776667E-02  0.3662109E-03  0.5267220E+05  0.6846664E+05  0.4737779E-02 -0.6835938E-02
  0.1473810E+01 -0.5797847E-02  0.4882812E-02  0.5131779E+05  0.6876370E+05 -0.1143004E-01 -0.4150391E-02
  0.1504762E+01 -0.5840832E-02  0.1586914E-02  0.5004249E+05  0.6896112E+05 -0.7138795E-02  0.6347656E-02
  0.1535714E+01 -0.4371820E-02 -0.9155273E-02  0.4883963E+05  0.6906048E+05 -0.3179506E-03  0.1464844E-02
  0.1566667E+01 -0.5687957E-02 -0.7690430E-02  0.4769307E+05  0.6908923E+05  0.2960854E-02 -0.1367188E-01
  0.1597619E+01  0.5348535E-02 -0.1013184E-01  0.4662152E+05  0.6902341E+05  0.1375338E-02 -0.1391602E-01
  0.1628572E+01 -0.3972639E-02  0.9521484E-02  0.4561129E+05  0.6888244E+05 -0.1049376E-02 -0.7324219E-03
  0.1659524E+01  0.1618264E-02  0.9033203E-02  0.4467027E+05  0.6867829E+05 -0.2648068E-02  0.3173828E-02
  0.1690476E+01 -0.2888424E-03 -0.1953125E-02  0.4378362E+05  0.6841568E+05  0.2671792E-02 -0.4882812E-03
  0.1721429E+01 -0.5176592E-02 -0.1440430E-01  0.4294799E+05  0.6809538E+05 -0.4041996E-02  0.1220703E-02
  0.1752381E+01 -0.6269373E-02 -0.7568359E-02  0.4218078E+05  0.6769753E+05 -0.1058827E-01 -0.4394531E-02
  0.1783333E+01 -0.4996897E-02 -0.2929688E-02  0.4146002E+05  0.6723372E+05 -0.4791545E-03 -0.4882812E-02
  0.1814286E+01  0.3027728E-02  0.1025391E-01  0.4078054E+05  0.6673434E+05 -0.2085768E-02  0.2197266E-02
  0.1845238E+01 -0.1104776E-01 -0.2929688E-02  0.4015622E+05  0.6617109E+05 -0.3175403E-02 -0.3173828E-02
  0.1876190E+01 -0.3903772E-03 -0.1025391E-01  0.3957869E+05  0.6556140E+05 -0.5205029E-02 -0.5126953E-02
  0.1907143E+01 -0.3200345E-03  0.1293945E-01  0.3905489E+05  0.6492843E+05 -0.1849800E-01  0.1464844E-02
  0.1938095E+01 -0.9132779E-03  0.4394531E-02  0.3857457E+05  0.6428306E+05 -0.6550407E-02  0.9765625E-02
  0.1969048E+01 -0.3223719E-02 -0.1049805E-01  0.3811390E+05  0.6360674E+05 -0.2665768E-02 -0.2685547E-02
  0.2000000E+01 -0.5889893E-02  0.5859375E-02  0.3769923E+05  0.6288971E+05 -0.1013184E-01  0.2441406E-02
Zone t="Motion of body    1 in DoF   3",I=    64,F=POINT
  0.5000000E-01 -0.6728248E+05 -0.4180715E-02  0.8697510E-02  0.8799374E-04  0.2740267E+06  0.2568212E-02
  0.8095238E-01 -0.6777991E+05 -0.1829752E-01 -0.9424546E-03  0.1685515E-04  0.2739994E+06  0.9520529E-02
  0.1119048E+00 -0.6783298E+05 -0.5090098E-01  0.1332871E-01  0.9628217E-04  0.2739247E+06  0.2548549E-01
  0.1428571E+00 -0.6783388E+05 -0.1140701E+00  0.2157593E-01  0.1964681E-03  0.2738366E+06  0.5701848E-01
  0.1738095E+00 -0.6781459E+05 -0.2256901E+00  0.1141274E-02  0.7337658E-04  0.2740345E+06  0.1125161E+00
  0.2047619E+00 -0.6780673E+05 -0.4135479E+00 -0.1997127E-01 -0.3319383E-03  0.2739521E+06  0.2067295E+00
  0.2357143E+00 -0.6791191E+05 -0.7215827E+00  0.6376324E-02  0.2747895E-03  0.2737505E+06  0.3579785E+00
  0.2666667E+00 -0.6775189E+05 -0.1218545E+01  0.2231598E-02  0.8709170E-04  0.2741308E+06  0.5974050E+00
  0.2976190E+00 -0.6778491E+05 -0.2023042E+01  0.2840332E-01  0.1068598E-02  0.2739792E+06  0.9840568E+00
  0.3285715E+00 -0.6787228E+05 -0.3303419E+01  0.2554188E-01  0.1052734E-02  0.2737349E+06  0.1590467E+01
  0.3595238E+00 -0.6772824E+05 -0.5348125E+01  0.3480216E-02  0.5308837E-03  0.2741386E+06  0.2538684E+01
  0.3904762E+00 -0.6767435E+05 -0.8581797E+01  0.1172321E-03  0.5113855E-03  0.2741730E+06  0.4021563E+01
  0.4214286E+00 -0.6762951E+05 -0.1358417E+02  0.3874180E-02  0.5579740E-03  0.2741471E+06  0.6267535E+01
  0.4523810E+00 -0.6777238E+05 -0.2128004E+02 -0.1349198E-02 -0.2437830E-04  0.2740021E+06  0.9702794E+01
  0.4833333E+00 -0.6776499E+05 -0.3242664E+02  0.2089928E-01  0.3043443E-02  0.2741718E+06  0.1452407E+02
  0.5142857E+00 -0.6759630E+05 -0.4863421E+02  0.1821730E-01  0.2582550E-02  0.2743369E+06  0.2134730E+02
  0.5452381E+00 -0.6764196E+05 -0.7105455E+02  0.1897421E-01  0.3395081E-02  0.2742157E+06  0.3060698E+02
  0.5761905E+00 -0.6778641E+05 -0.1011125E+03 -0.6620548E-02 -0.4681349E-03  0.2741095E+06  0.4272614E+02
  0.6071429E+00 -0.6781204E+05 -0.1411154E+03 -0.2664005E-01 -0.4046440E-02  0.2742937E+06  0.5850100E+02
  0.6380953E+00 -0.6774539E+05 -0.1923314E+03  0.2300433E-01  0.6299019E-02  0.2744671E+06  0.7764423E+02
  0.6690477E+00 -0.6769342E+05 -0.2572389E+03  0.5824839E-01  0.1781702E-01  0.2745135E+06  0.1011345E+03
  0.7000000E+00 -0.6776595E+05 -0.3381283E+03  0.5371093E-01  0.1671839E-01  0.2743304E+06  0.1296608E+03
  0.7309524E+00 -0.6788330E+05 -0.4362899E+03 -0.1402814E-01 -0.4945278E-02  0.2742455E+06  0.1629653E+03
  0.7619048E+00 -0.6786947E+05 -0.5547232E+03  0.3024101E-01  0.1342010E-01  0.2744466E+06  0.2010631E+03
  0.7928572E+00 -0.6772816E+05 -0.6957760E+03 -0.3606572E-01 -0.1360035E-01  0.2746455E+06  0.2435116E+03
  0.8238096E+00 -0.6768105E+05 -0.8603677E+03  0.4537946E-01  0.2452850E-01  0.2746268E+06  0.2905733E+03
  0.8547620E+00 -0.6763921E+05 -0.1049489E+04 -0.2499211E-03 -0.3633499E-03  0.2745557E+06  0.3417847E+03
  0.8857143E+00 -0.6758252E+05 -0.1263164E+04 -0.2935594E-01 -0.1818466E-01  0.2744645E+06  0.3965823E+03
  0.9166667E+00 -0.6752716E+05 -0.1500114E+04 -0.1135254E-01 -0.7217407E-02  0.2743734E+06  0.4537000E+03
  0.9476191E+00 -0.6743615E+05 -0.1760956E+04  0.1880741E-01  0.1125145E-01  0.2744616E+06  0.5100426E+03
  0.9785714E+00 -0.6720105E+05 -0.2045094E+04  0.4178904E-02  0.6614685E-02  0.2746007E+06  0.5624442E+03
  0.1009524E+01 -0.6692526E+05 -0.2346181E+04  0.2684395E-01  0.2789307E-01  0.2746281E+06  0.6094668E+03
  0.1040476E+01 -0.6657250E+05 -0.2660231E+04  0.2012065E-01  0.2378082E-01  0.2746963E+06  0.6511099E+03
  0.1071429E+01 -0.6626759E+05 -0.2973164E+04  0.3469238E-01  0.3104401E-01  0.2744995E+06  0.6858071E+03
  0.1102381E+01 -0.6594903E+05 -0.3279309E+04 -0.8249633E-02 -0.7095337E-02  0.2743750E+06  0.7148421E+03
  0.1133333E+01 -0.6561492E+05 -0.3563809E+04 -0.1405604E-01 -0.2273560E-01  0.2742779E+06  0.7369716E+03
  0.1164286E+01 -0.6521263E+05 -0.3818154E+04 -0.1939645E-02 -0.1216888E-02  0.2742322E+06  0.7432914E+03
  0.1195238E+01 -0.6468161E+05 -0.4041880E+04 -0.9191749E-03  0.5851746E-02  0.2744055E+06  0.7281321E+03
  0.1226190E+01 -0.6410641E+05 -0.4205562E+04 -0.4977624E-02 -0.5691528E-02  0.2744023E+06  0.6859507E+03
  0.1257143E+01 -0.6357450E+05 -0.4290321E+04  0.5243475E-02  0.1670837E-02  0.2744390E+06  0.6268806E+03
  0.1288095E+01 -0.6293173E+05 -0.4307992E+04  0.6349461E-02  0.2042389E-01  0.2743735E+06  0.5537548E+03
  0.1319048E+01 -0.6236714E+05 -0.4207525E+04  0.2526459E-01  0.3668213E-01  0.2743263E+06  0.4741738E+03
  0.1350000E+01 -0.6176295E+05 -0.4003398E+04 -0.3707320E-02  0.5821228E-02  0.2742909E+06  0.3818159E+03
  0.1380952E+01 -0.6114133E+05 -0.3698807E+04  0.6010910E-02  0.1027679E-01  0.2744040E+06  0.2812511E+03
  0.1411905E+01 -0.6258731E+05 -0.4627339E+04  0.1318483E-01  0.3044891E-01  0.2735832E+06  0.2601923E+03
  0.1442857E+01 -0.6200581E+05 -0.4182808E+04  0.6683652E-02  0.8422852E-02  0.2736853E+06  0.1417116E+03
  0.1473810E+01 -0.6138256E+05 -0.3610844E+04 -0.9939165E-03  0.3974915E-02  0.2738073E+06  0.3447975E+02
  0.1504762E+01 -0.6082764E+05 -0.2917779E+04 -0.2636487E-02 -0.1299667E-01  0.2740206E+06 -0.5314636E+02
  0.1535714E+01 -0.6034576E+05 -0.2066801E+04  0.9776980E-02  0.2192688E-01  0.2741401E+06 -0.1477816E+03
  0.1566667E+01 -0.5986491E+05 -0.1132578E+04  0.1168758E-01  0.4039001E-01  0.2743773E+06 -0.1998081E+03
  0.1597619E+01 -0.5945537E+05 -0.7901957E+02 -0.8634064E-02  0.1980233E-01  0.2746528E+06 -0.2052108E+03
  0.1628572E+01 -0.5910716E+05  0.1127489E+04  0.2098753E-02 -0.1140594E-02  0.2747652E+06 -0.1973909E+03
  0.1659524E+01 -0.5888346E+05  0.2415787E+04 -0.3677872E-02 -0.1807785E-01  0.2749425E+06 -0.1383414E+03
  0.1690476E+01 -0.5870898E+05  0.3773726E+04 -0.5632427E-02 -0.1290131E-01  0.2751458E+06 -0.2611716E+02
  0.1721429E+01 -0.5857501E+05  0.5172685E+04 -0.8509466E-02 -0.9933472E-02  0.2753542E+06  0.1222461E+03
  0.1752381E+01 -0.5855652E+05  0.6628943E+04  0.9334399E-02 -0.1739502E-01  0.2755932E+06  0.3254525E+03
  0.1783333E+01 -0.5855861E+05  0.8156323E+04 -0.9035485E-02 -0.2563477E-02  0.2757594E+06  0.5208091E+03
  0.1814286E+01 -0.5859249E+05  0.9648891E+04 -0.6661003E-02 -0.1435852E-01  0.2760385E+06  0.8160587E+03
  0.1845238E+01 -0.5869249E+05  0.1115584E+05 -0.2646169E-02  0.6225586E-02  0.2763454E+06  0.1186100E+04
  0.1876190E+01 -0.5883579E+05  0.1274457E+05  0.4294149E-02 -0.1626587E-01  0.2764908E+06  0.1524225E+04
  0.1907143E+01 -0.5908430E+05  0.1433303E+05  0.3136338E-02 -0.2392578E-01  0.2766125E+06  0.1904606E+04
  0.1938095E+01 -0.5941309E+05  0.1584719E+05 -0.8754871E-02  0.3387451E-02  0.2768374E+06  0.2470829E+04
  0.1969048E+01 -0.5969376E+05  0.1738413E+05  0.8679244E-03  0.1431274E-01  0.2769198E+06  0.2905920E+04
  0.2000000E+01 -0.6005513E+05  0.1883628E+05  0.1953125E-02  0.1208496E-01  0.2770811E+06  0.3503369E+04
