VARIABLES="w (rad/s)"
"abs(F   1   1)" "angle(F   1   1)"
"abs(F   1   2)" "angle(F   1   2)"
"abs(F   1   3)" "angle(F   1   3)"
Zone t="Diffraction force - beta =   0.000 deg",I=    64,F=POINT
  0.5000000E-01  0.2549481E+04 -0.1570771E+01  0.1508342E+06 -0.1031518E-04  0.5562108E+04  0.1570780E+01
  0.8095238E-01  0.4172574E+04 -0.1570796E+01  0.1504481E+06 -0.2772967E-04  0.9104260E+04  0.1570804E+01
  0.1119048E+00  0.5835805E+04 -0.1570789E+01  0.1498809E+06 -0.5499844E-04  0.1271872E+05  0.1570812E+01
  0.1428571E+00  0.7547723E+04 -0.1570787E+01  0.1491325E+06 -0.9418085E-04  0.1644126E+05  0.1570808E+01
  0.1738095E+00  0.9332205E+04 -0.1570789E+01  0.1482031E+06 -0.1482840E-03  0.2031207E+05  0.1570804E+01
  0.2047619E+00  0.1120910E+05 -0.1570781E+01  0.1470966E+06 -0.2218157E-03  0.2438101E+05  0.1570806E+01
  0.2357143E+00  0.1320109E+05 -0.1570774E+01  0.1458099E+06 -0.3212679E-03  0.2868977E+05  0.1570817E+01
  0.2666667E+00  0.1534894E+05 -0.1570764E+01  0.1443488E+06 -0.4543124E-03  0.3331005E+05  0.1570828E+01
  0.2976190E+00  0.1766362E+05 -0.1570752E+01  0.1427128E+06 -0.6347367E-03  0.3830382E+05  0.1570841E+01
  0.3285715E+00  0.2019834E+05 -0.1570725E+01  0.1409096E+06 -0.8753743E-03  0.4374722E+05  0.1570865E+01
  0.3595238E+00  0.2299341E+05 -0.1570694E+01  0.1389394E+06 -0.1198104E-02  0.4971020E+05  0.1570899E+01
  0.3904762E+00  0.2607064E+05 -0.1570640E+01  0.1368179E+06 -0.1625808E-02  0.5628603E+05  0.1570952E+01
  0.4214286E+00  0.2947049E+05 -0.1570564E+01  0.1345406E+06 -0.2173078E-02  0.6352462E+05  0.1571028E+01
  0.4523810E+00  0.3323140E+05 -0.1570453E+01  0.1321425E+06 -0.2883852E-02  0.7148418E+05  0.1571141E+01
  0.4833333E+00  0.3731532E+05 -0.1570296E+01  0.1296058E+06 -0.3731087E-02  0.8011690E+05  0.1571298E+01
  0.5142857E+00  0.4175473E+05 -0.1570078E+01  0.1269718E+06 -0.4769082E-02  0.8944915E+05  0.1571515E+01
  0.5452381E+00  0.4649830E+05 -0.1569787E+01  0.1242315E+06 -0.5977347E-02  0.9941367E+05  0.1571806E+01
  0.5761905E+00  0.5153486E+05 -0.1569405E+01  0.1213849E+06 -0.7355073E-02  0.1099149E+06  0.1572188E+01
  0.6071429E+00  0.5688482E+05 -0.1568909E+01  0.1184855E+06 -0.8952767E-02  0.1209986E+06  0.1572684E+01
  0.6380953E+00  0.6242545E+05 -0.1568288E+01  0.1154880E+06 -0.1071450E-01  0.1324614E+06  0.1573306E+01
  0.6690477E+00  0.6821224E+05 -0.1567508E+01  0.1124221E+06 -0.1268784E-01  0.1443582E+06  0.1574085E+01
  0.7000000E+00  0.7427327E+05 -0.1566544E+01  0.1093282E+06 -0.1490112E-01  0.1567169E+06  0.1575049E+01
  0.7309524E+00  0.8047539E+05 -0.1565370E+01  0.1061656E+06 -0.1732513E-01  0.1692683E+06  0.1576222E+01
  0.7619048E+00  0.8690570E+05 -0.1563949E+01  0.1029396E+06 -0.1999138E-01  0.1822245E+06  0.1577643E+01
  0.7928572E+00  0.9355191E+05 -0.1562246E+01  0.9974050E+05 -0.2290726E-01  0.1954727E+06  0.1579346E+01
  0.8238096E+00  0.1003964E+06 -0.1560222E+01  0.9650677E+05 -0.2609029E-01  0.2090882E+06  0.1581371E+01
  0.8547620E+00  0.1073315E+06 -0.1557838E+01  0.9323879E+05 -0.2953999E-01  0.2227514E+06  0.1583755E+01
  0.8857143E+00  0.1144851E+06 -0.1555046E+01  0.8996187E+05 -0.3326559E-01  0.2367030E+06  0.1586546E+01
  0.9166667E+00  0.1218566E+06 -0.1551801E+01  0.8673288E+05 -0.3726260E-01  0.2508695E+06  0.1589792E+01
  0.9476191E+00  0.1293875E+06 -0.1548053E+01  0.8350757E+05 -0.4157077E-01  0.2652998E+06  0.1593540E+01
  0.9785714E+00  0.1369557E+06 -0.1543754E+01  0.8028355E+05 -0.4619046E-01  0.2796051E+06  0.1597838E+01
  0.1009524E+01  0.1447270E+06 -0.1538849E+01  0.7705847E+05 -0.5115879E-01  0.2942554E+06  0.1602743E+01
  0.1040476E+01  0.1525721E+06 -0.1533292E+01  0.7393014E+05 -0.5637296E-01  0.3087449E+06  0.1608299E+01
  0.1071429E+01  0.1606276E+06 -0.1527023E+01  0.7084073E+05 -0.6193857E-01  0.3235051E+06  0.1614568E+01
  0.1102381E+01  0.1686800E+06 -0.1519987E+01  0.6778320E+05 -0.6788631E-01  0.3381347E+06  0.1621604E+01
  0.1133333E+01  0.1767485E+06 -0.1512135E+01  0.6475943E+05 -0.7422309E-01  0.3524389E+06  0.1629455E+01
  0.1164286E+01  0.1849554E+06 -0.1503404E+01  0.6176596E+05 -0.8102592E-01  0.3668977E+06  0.1638185E+01
  0.1195238E+01  0.1930795E+06 -0.1493772E+01  0.5889506E+05 -0.8800790E-01  0.3808364E+06  0.1647815E+01
  0.1226190E+01  0.2013289E+06 -0.1483178E+01  0.5609145E+05 -0.9540427E-01  0.3948260E+06  0.1658408E+01
  0.1257143E+01  0.2092684E+06 -0.1471657E+01  0.5335327E+05 -0.1033226E+00  0.4082191E+06  0.1669929E+01
  0.1288095E+01  0.2173582E+06 -0.1458990E+01  0.5066895E+05 -0.1116340E+00  0.4214103E+06  0.1682593E+01
  0.1319048E+01  0.2251241E+06 -0.1445363E+01  0.4804646E+05 -0.1205857E+00  0.4338762E+06  0.1696220E+01
  0.1350000E+01  0.2327244E+06 -0.1430699E+01  0.4547762E+05 -0.1301986E+00  0.4457640E+06  0.1710878E+01
  0.1380952E+01  0.2400392E+06 -0.1415004E+01  0.4306104E+05 -0.1396323E+00  0.4567425E+06  0.1726566E+01
  0.1411905E+01  0.2469374E+06 -0.1398255E+01  0.4071986E+05 -0.1496595E+00  0.4669615E+06  0.1743307E+01
  0.1442857E+01  0.2536997E+06 -0.1380523E+01  0.3845820E+05 -0.1602785E+00  0.4764804E+06  0.1761035E+01
  0.1473810E+01  0.2598714E+06 -0.1361918E+01  0.3626882E+05 -0.1715966E+00  0.4846031E+06  0.1779633E+01
  0.1504762E+01  0.2654068E+06 -0.1342534E+01  0.3414985E+05 -0.1836762E+00  0.4912700E+06  0.1799004E+01
  0.1535714E+01  0.2705186E+06 -0.1322340E+01  0.3211085E+05 -0.1965913E+00  0.4971464E+06  0.1819198E+01
  0.1566667E+01  0.2749072E+06 -0.1301619E+01  0.3014948E+05 -0.2102335E+00  0.5013604E+06  0.1839897E+01
  0.1597619E+01  0.2786021E+06 -0.1280440E+01  0.2831740E+05 -0.2233365E+00  0.5041095E+06  0.1861062E+01
  0.1628572E+01  0.2816510E+06 -0.1258991E+01  0.2656656E+05 -0.2372656E+00  0.5055562E+06  0.1882487E+01
  0.1659524E+01  0.2839415E+06 -0.1237368E+01  0.2489882E+05 -0.2519097E+00  0.5056862E+06  0.1904104E+01
  0.1690476E+01  0.2852661E+06 -0.1215899E+01  0.2330717E+05 -0.2674751E+00  0.5039421E+06  0.1925574E+01
  0.1721429E+01  0.2856529E+06 -0.1194875E+01  0.2178343E+05 -0.2841578E+00  0.5002597E+06  0.1946533E+01
  0.1752381E+01  0.2853875E+06 -0.1174158E+01  0.2033975E+05 -0.3016581E+00  0.4954808E+06  0.1967234E+01
  0.1783333E+01  0.2845112E+06 -0.1153907E+01  0.1896706E+05 -0.3202537E+00  0.4896400E+06  0.1987478E+01
  0.1814286E+01  0.2826791E+06 -0.1134732E+01  0.1767050E+05 -0.3393115E+00  0.4818715E+06  0.2006558E+01
  0.1845238E+01  0.2802329E+06 -0.1116423E+01  0.1645836E+05 -0.3578948E+00  0.4731141E+06  0.2024810E+01
  0.1876190E+01  0.2772138E+06 -0.1099148E+01  0.1532414E+05 -0.3772491E+00  0.4635218E+06  0.2042019E+01
  0.1907143E+01  0.2736916E+06 -0.1083004E+01  0.1425814E+05 -0.3973140E+00  0.4533072E+06  0.2058142E+01
  0.1938095E+01  0.2694285E+06 -0.1068416E+01  0.1325838E+05 -0.4179930E+00  0.4419417E+06  0.2072739E+01
  0.1969048E+01  0.2646683E+06 -0.1055485E+01  0.1231357E+05 -0.4401601E+00  0.4296943E+06  0.2085550E+01
  0.2000000E+01  0.2594671E+06 -0.1044187E+01  0.1142418E+05 -0.4639372E+00  0.4168202E+06  0.2096693E+01
