VARIABLES="w (rad/s)"
"abs(F   1   1)" "angle(F   1   1)"
"abs(F   1   2)" "angle(F   1   2)"
"abs(F   1   3)" "angle(F   1   3)"
Zone t="Diffraction force - beta =   0.000 deg",I=    64,F=POINT
  0.5000000E-01  0.1875777E+04 -0.1570783E+01  0.3495226E+06 -0.2392280E-04  0.3854769E+02 -0.1571397E+01
  0.8095238E-01  0.3058976E+04 -0.1570796E+01  0.3489255E+06 -0.6436004E-04  0.6274996E+02 -0.1571149E+01
  0.1119048E+00  0.4274480E+04 -0.1570792E+01  0.3480490E+06 -0.1278163E-03  0.8784312E+02 -0.1571073E+01
  0.1428571E+00  0.5526783E+04 -0.1570795E+01  0.3468918E+06 -0.2191831E-03  0.1135900E+03 -0.1570992E+01
  0.1738095E+00  0.6837388E+04 -0.1570792E+01  0.3454519E+06 -0.3458579E-03  0.1412830E+03 -0.1570952E+01
  0.2047619E+00  0.8212098E+04 -0.1570794E+01  0.3437261E+06 -0.5184810E-03  0.1702368E+03 -0.1570917E+01
  0.2357143E+00  0.9685531E+04 -0.1570775E+01  0.3417137E+06 -0.7528809E-03  0.2017449E+03 -0.1570894E+01
  0.2666667E+00  0.1126232E+05 -0.1570777E+01  0.3394085E+06 -0.1068256E-02  0.2362211E+03 -0.1570870E+01
  0.2976190E+00  0.1296842E+05 -0.1570763E+01  0.3368107E+06 -0.1497174E-02  0.2730774E+03 -0.1570841E+01
  0.3285715E+00  0.1485160E+05 -0.1570746E+01  0.3339158E+06 -0.2072933E-02  0.3150708E+03 -0.1570819E+01
  0.3595238E+00  0.1691616E+05 -0.1570720E+01  0.3307334E+06 -0.2848094E-02  0.3618404E+03 -0.1570778E+01
  0.3904762E+00  0.1918431E+05 -0.1570679E+01  0.3272534E+06 -0.3881902E-02  0.4136879E+03 -0.1570732E+01
  0.4214286E+00  0.2171843E+05 -0.1570621E+01  0.3235157E+06 -0.5212683E-02  0.4727231E+03 -0.1570668E+01
  0.4523810E+00  0.2451941E+05 -0.1570536E+01  0.3195098E+06 -0.6942679E-02  0.5411248E+03 -0.1570577E+01
  0.4833333E+00  0.2754671E+05 -0.1570421E+01  0.3152769E+06 -0.9027796E-02  0.6109059E+03 -0.1570454E+01
  0.5142857E+00  0.3082457E+05 -0.1570256E+01  0.3108301E+06 -0.1158801E-01  0.6915090E+03 -0.1570289E+01
  0.5452381E+00  0.3438812E+05 -0.1570037E+01  0.3061792E+06 -0.1458758E-01  0.7810406E+03 -0.1570065E+01
  0.5761905E+00  0.3816867E+05 -0.1569753E+01  0.3013581E+06 -0.1803675E-01  0.8785164E+03 -0.1569776E+01
  0.6071429E+00  0.4211588E+05 -0.1569382E+01  0.2963739E+06 -0.2203577E-01  0.9798392E+03 -0.1569402E+01
  0.6380953E+00  0.4623200E+05 -0.1568918E+01  0.2912120E+06 -0.2649026E-01  0.1085731E+04 -0.1568936E+01
  0.6690477E+00  0.5056296E+05 -0.1568339E+01  0.2859268E+06 -0.3150379E-01  0.1204527E+04 -0.1568355E+01
  0.7000000E+00  0.5508798E+05 -0.1567624E+01  0.2805306E+06 -0.3713342E-01  0.1334065E+04 -0.1567639E+01
  0.7309524E+00  0.5975917E+05 -0.1566758E+01  0.2750125E+06 -0.4333401E-01  0.1468060E+04 -0.1566772E+01
  0.7619048E+00  0.6451384E+05 -0.1565713E+01  0.2694113E+06 -0.5016874E-01  0.1602764E+04 -0.1565725E+01
  0.7928572E+00  0.6937559E+05 -0.1564469E+01  0.2637373E+06 -0.5767054E-01  0.1747654E+04 -0.1564478E+01
  0.8238096E+00  0.7442316E+05 -0.1563000E+01  0.2580007E+06 -0.6585496E-01  0.1904652E+04 -0.1563012E+01
  0.8547620E+00  0.7961613E+05 -0.1561285E+01  0.2522247E+06 -0.7473522E-01  0.2068706E+04 -0.1561299E+01
  0.8857143E+00  0.8491427E+05 -0.1559295E+01  0.2464344E+06 -0.8432847E-01  0.2243915E+04 -0.1559308E+01
  0.9166667E+00  0.9030305E+05 -0.1557005E+01  0.2406257E+06 -0.9464424E-01  0.2430499E+04 -0.1557017E+01
  0.9476191E+00  0.9572821E+05 -0.1554388E+01  0.2348202E+06 -0.1056927E+00  0.2615680E+04 -0.1554394E+01
  0.9785714E+00  0.1011612E+06 -0.1551419E+01  0.2290283E+06 -0.1174849E+00  0.2802224E+04 -0.1551419E+01
  0.1009524E+01  0.1066641E+06 -0.1548091E+01  0.2232638E+06 -0.1300412E+00  0.3001823E+04 -0.1548096E+01
  0.1040476E+01  0.1122305E+06 -0.1544391E+01  0.2175398E+06 -0.1433682E+00  0.3216934E+04 -0.1544420E+01
  0.1071429E+01  0.1178556E+06 -0.1540305E+01  0.2118603E+06 -0.1574600E+00  0.3444208E+04 -0.1540340E+01
  0.1102381E+01  0.1234745E+06 -0.1535823E+01  0.2062386E+06 -0.1723210E+00  0.3673942E+04 -0.1535863E+01
  0.1133333E+01  0.1290387E+06 -0.1530934E+01  0.2006904E+06 -0.1879518E+00  0.3907642E+04 -0.1530978E+01
  0.1164286E+01  0.1345146E+06 -0.1525639E+01  0.1952128E+06 -0.2043579E+00  0.4146621E+04 -0.1525671E+01
  0.1195238E+01  0.1398283E+06 -0.1519944E+01  0.1898146E+06 -0.2215379E+00  0.4386718E+04 -0.1519936E+01
  0.1226190E+01  0.1449926E+06 -0.1513873E+01  0.1844791E+06 -0.2394878E+00  0.4631064E+04 -0.1513812E+01
  0.1257143E+01  0.1499725E+06 -0.1507456E+01  0.1792215E+06 -0.2583976E+00  0.4875619E+04 -0.1507393E+01
  0.1288095E+01  0.1548612E+06 -0.1500865E+01  0.1740608E+06 -0.2777531E+00  0.5127968E+04 -0.1500842E+01
  0.1319048E+01  0.1594974E+06 -0.1494039E+01  0.1690033E+06 -0.2980757E+00  0.5376542E+04 -0.1494077E+01
  0.1350000E+01  0.1638784E+06 -0.1487069E+01  0.1640533E+06 -0.3191832E+00  0.5628879E+04 -0.1487080E+01
  0.1380952E+01  0.1679536E+06 -0.1480023E+01  0.1591950E+06 -0.3410348E+00  0.5881797E+04 -0.1479989E+01
  0.1411905E+01  0.1713726E+06 -0.1473419E+01  0.1544921E+06 -0.3633799E+00  0.6099016E+04 -0.1473332E+01
  0.1442857E+01  0.1747643E+06 -0.1466562E+01  0.1498300E+06 -0.3867767E+00  0.6344875E+04 -0.1466507E+01
  0.1473810E+01  0.1777858E+06 -0.1459985E+01  0.1452769E+06 -0.4109596E+00  0.6578615E+04 -0.1459936E+01
  0.1504762E+01  0.1803912E+06 -0.1453791E+01  0.1408337E+06 -0.4359264E+00  0.6796771E+04 -0.1453830E+01
  0.1535714E+01  0.1825935E+06 -0.1448104E+01  0.1364952E+06 -0.4616596E+00  0.7008847E+04 -0.1448137E+01
  0.1566667E+01  0.1843557E+06 -0.1443027E+01  0.1322802E+06 -0.4881760E+00  0.7215555E+04 -0.1442961E+01
  0.1597619E+01  0.1856849E+06 -0.1438694E+01  0.1281596E+06 -0.5154710E+00  0.7413528E+04 -0.1438601E+01
  0.1628572E+01  0.1865982E+06 -0.1435274E+01  0.1241359E+06 -0.5435454E+00  0.7603027E+04 -0.1435158E+01
  0.1659524E+01  0.1870921E+06 -0.1432878E+01  0.1202121E+06 -0.5723804E+00  0.7777872E+04 -0.1432772E+01
  0.1690476E+01  0.1871787E+06 -0.1431608E+01  0.1163910E+06 -0.6019754E+00  0.7933720E+04 -0.1431575E+01
  0.1721429E+01  0.1868560E+06 -0.1431555E+01  0.1126752E+06 -0.6323530E+00  0.8072006E+04 -0.1431498E+01
  0.1752381E+01  0.1861555E+06 -0.1432826E+01  0.1090605E+06 -0.6635231E+00  0.8195838E+04 -0.1432795E+01
  0.1783333E+01  0.1851134E+06 -0.1435526E+01  0.1055484E+06 -0.6954629E+00  0.8309098E+04 -0.1435512E+01
  0.1814286E+01  0.1837374E+06 -0.1439716E+01  0.1021468E+06 -0.7281771E+00  0.8413643E+04 -0.1439723E+01
  0.1845238E+01  0.1820678E+06 -0.1445452E+01  0.9883189E+05 -0.7617065E+00  0.8504967E+04 -0.1445481E+01
  0.1876190E+01  0.1801276E+06 -0.1452796E+01  0.9560912E+05 -0.7960286E+00  0.8583581E+04 -0.1452709E+01
  0.1907143E+01  0.1779614E+06 -0.1461780E+01  0.9246793E+05 -0.8311135E+00  0.8649575E+04 -0.1461586E+01
  0.1938095E+01  0.1755933E+06 -0.1472427E+01  0.8941098E+05 -0.8669416E+00  0.8700228E+04 -0.1472145E+01
  0.1969048E+01  0.1730426E+06 -0.1484744E+01  0.8644195E+05 -0.9035446E+00  0.8739105E+04 -0.1484538E+01
  0.2000000E+01  0.1703369E+06 -0.1498753E+01  0.8356558E+05 -0.9410114E+00  0.8762749E+04 -0.1498826E+01
