VARIABLES="w (rad/s)"
"abs(F   1   1)" "angle(F   1   1)"
"abs(F   1   2)" "angle(F   1   2)"
"abs(F   1   3)" "angle(F   1   3)"
Zone t="Diffraction force - beta =   0.000 deg",I=    64,F=POINT
  0.5000000E-01  0.1659810E+04 -0.1570795E+01  0.2827292E+03 -0.3089453E+01  0.8621235E+03  0.1570797E+01
  0.8095238E-01  0.2713095E+04 -0.1570793E+01  0.7329579E+03 -0.3087570E+01  0.1416065E+04  0.1570798E+01
  0.1119048E+00  0.3792142E+04 -0.1570790E+01  0.1392676E+04 -0.3085261E+01  0.1980483E+04  0.1570800E+01
  0.1428571E+00  0.4909978E+04 -0.1570785E+01  0.2263013E+04 -0.3082337E+01  0.2555510E+04  0.1570802E+01
  0.1738095E+00  0.6069299E+04 -0.1570778E+01  0.3350567E+04 -0.3078686E+01  0.3158565E+04  0.1570806E+01
  0.2047619E+00  0.7295166E+04 -0.1570767E+01  0.4659181E+04 -0.3074100E+01  0.3782999E+04  0.1570812E+01
  0.2357143E+00  0.8595269E+04 -0.1570752E+01  0.6197636E+04 -0.3068330E+01  0.4448814E+04  0.1570820E+01
  0.2666667E+00  0.9989552E+04 -0.1570730E+01  0.7973511E+04 -0.3061308E+01  0.5163205E+04  0.1570832E+01
  0.2976190E+00  0.1150921E+05 -0.1570696E+01  0.9991882E+04 -0.3052461E+01  0.5921681E+04  0.1570849E+01
  0.3285715E+00  0.1317365E+05 -0.1570647E+01  0.1227127E+05 -0.3041930E+01  0.6750167E+04  0.1570876E+01
  0.3595238E+00  0.1498895E+05 -0.1570572E+01  0.1480006E+05 -0.3029092E+01  0.7670188E+04  0.1570915E+01
  0.3904762E+00  0.1700489E+05 -0.1570461E+01  0.1759425E+05 -0.3013875E+01  0.8666486E+04  0.1570974E+01
  0.4214286E+00  0.1925479E+05 -0.1570297E+01  0.2061289E+05 -0.2996789E+01  0.9748465E+04  0.1571059E+01
  0.4523810E+00  0.2171675E+05 -0.1570055E+01  0.2389553E+05 -0.2977166E+01  0.1094590E+05  0.1571184E+01
  0.4833333E+00  0.2439651E+05 -0.1569719E+01  0.2735946E+05 -0.2957126E+01  0.1224743E+05  0.1571355E+01
  0.5142857E+00  0.2733489E+05 -0.1569251E+01  0.3101005E+05 -0.2935388E+01  0.1359864E+05  0.1571595E+01
  0.5452381E+00  0.3048294E+05 -0.1568623E+01  0.3484282E+05 -0.2913718E+01  0.1508104E+05  0.1571911E+01
  0.5761905E+00  0.3380470E+05 -0.1567803E+01  0.3883270E+05 -0.2892404E+01  0.1665661E+05  0.1572322E+01
  0.6071429E+00  0.3732441E+05 -0.1566739E+01  0.4296150E+05 -0.2870522E+01  0.1826653E+05  0.1572850E+01
  0.6380953E+00  0.4101575E+05 -0.1565405E+01  0.4723167E+05 -0.2849788E+01  0.1991280E+05  0.1573504E+01
  0.6690477E+00  0.4490166E+05 -0.1563743E+01  0.5162389E+05 -0.2829262E+01  0.2159705E+05  0.1574311E+01
  0.7000000E+00  0.4892048E+05 -0.1561688E+01  0.5612609E+05 -0.2808710E+01  0.2335331E+05  0.1575297E+01
  0.7309524E+00  0.5305082E+05 -0.1559191E+01  0.6074999E+05 -0.2789000E+01  0.2516589E+05  0.1576479E+01
  0.7619048E+00  0.5735016E+05 -0.1556188E+01  0.6545507E+05 -0.2769599E+01  0.2699144E+05  0.1577881E+01
  0.7928572E+00  0.6177052E+05 -0.1552605E+01  0.7021412E+05 -0.2750346E+01  0.2876511E+05  0.1579526E+01
  0.8238096E+00  0.6637820E+05 -0.1548383E+01  0.7503629E+05 -0.2731527E+01  0.3053657E+05  0.1581434E+01
  0.8547620E+00  0.7103557E+05 -0.1543429E+01  0.7991341E+05 -0.2713228E+01  0.3236471E+05  0.1583635E+01
  0.8857143E+00  0.7582370E+05 -0.1537683E+01  0.8483745E+05 -0.2695545E+01  0.3422632E+05  0.1586141E+01
  0.9166667E+00  0.8066587E+05 -0.1531059E+01  0.8979696E+05 -0.2678445E+01  0.3604009E+05  0.1588966E+01
  0.9476191E+00  0.8560889E+05 -0.1523504E+01  0.9475372E+05 -0.2661731E+01  0.3784230E+05  0.1592112E+01
  0.9785714E+00  0.9058167E+05 -0.1514930E+01  0.9968954E+05 -0.2645345E+01  0.3958671E+05  0.1595579E+01
  0.1009524E+01  0.9563913E+05 -0.1505294E+01  0.1046157E+06 -0.2629506E+01  0.4128134E+05  0.1599366E+01
  0.1040476E+01  0.1007016E+06 -0.1494535E+01  0.1095320E+06 -0.2614294E+01  0.4284324E+05  0.1603422E+01
  0.1071429E+01  0.1057419E+06 -0.1482590E+01  0.1144234E+06 -0.2599701E+01  0.4444180E+05  0.1607785E+01
  0.1102381E+01  0.1107176E+06 -0.1469427E+01  0.1192869E+06 -0.2585755E+01  0.4603094E+05  0.1612397E+01
  0.1133333E+01  0.1155206E+06 -0.1454963E+01  0.1241015E+06 -0.2572291E+01  0.4751442E+05  0.1617193E+01
  0.1164286E+01  0.1202346E+06 -0.1439302E+01  0.1288813E+06 -0.2559515E+01  0.4891675E+05  0.1622084E+01
  0.1195238E+01  0.1247251E+06 -0.1422385E+01  0.1336095E+06 -0.2547217E+01  0.5016968E+05  0.1626986E+01
  0.1226190E+01  0.1289992E+06 -0.1404324E+01  0.1382778E+06 -0.2535441E+01  0.5131291E+05  0.1631789E+01
  0.1257143E+01  0.1329304E+06 -0.1385009E+01  0.1429309E+06 -0.2523908E+01  0.5236612E+05  0.1636452E+01
  0.1288095E+01  0.1366436E+06 -0.1364901E+01  0.1474124E+06 -0.2513331E+01  0.5322332E+05  0.1640620E+01
  0.1319048E+01  0.1398563E+06 -0.1343652E+01  0.1518764E+06 -0.2503017E+01  0.5396683E+05  0.1644338E+01
  0.1350000E+01  0.1426766E+06 -0.1321617E+01  0.1562688E+06 -0.2493246E+01  0.5471588E+05  0.1647582E+01
  0.1380952E+01  0.1449170E+06 -0.1298812E+01  0.1605833E+06 -0.2484071E+01  0.5527900E+05  0.1649948E+01
  0.1411905E+01  0.1456854E+06 -0.1276946E+01  0.1641790E+06 -0.2474918E+01  0.5594972E+05  0.1651066E+01
  0.1442857E+01  0.1468224E+06 -0.1253402E+01  0.1683388E+06 -0.2466577E+01  0.5633509E+05  0.1651546E+01
  0.1473810E+01  0.1473142E+06 -0.1229647E+01  0.1724307E+06 -0.2458573E+01  0.5665511E+05  0.1651015E+01
  0.1504762E+01  0.1471035E+06 -0.1205989E+01  0.1764268E+06 -0.2450778E+01  0.5677407E+05  0.1648826E+01
  0.1535714E+01  0.1463033E+06 -0.1182577E+01  0.1803599E+06 -0.2443194E+01  0.5692828E+05  0.1645844E+01
  0.1566667E+01  0.1448729E+06 -0.1159856E+01  0.1841922E+06 -0.2435878E+01  0.5701653E+05  0.1641534E+01
  0.1597619E+01  0.1427179E+06 -0.1137765E+01  0.1879350E+06 -0.2428656E+01  0.5694719E+05  0.1635524E+01
  0.1628572E+01  0.1399709E+06 -0.1116719E+01  0.1915795E+06 -0.2421749E+01  0.5689769E+05  0.1628605E+01
  0.1659524E+01  0.1366421E+06 -0.1097023E+01  0.1951251E+06 -0.2414933E+01  0.5685916E+05  0.1620726E+01
  0.1690476E+01  0.1327473E+06 -0.1078611E+01  0.1985519E+06 -0.2407981E+01  0.5688923E+05  0.1612380E+01
  0.1721429E+01  0.1282798E+06 -0.1061853E+01  0.2018529E+06 -0.2400970E+01  0.5689510E+05  0.1603314E+01
  0.1752381E+01  0.1233037E+06 -0.1046888E+01  0.2050030E+06 -0.2393804E+01  0.5692388E+05  0.1593963E+01
  0.1783333E+01  0.1179265E+06 -0.1034200E+01  0.2079901E+06 -0.2386564E+01  0.5703841E+05  0.1584984E+01
  0.1814286E+01  0.1121367E+06 -0.1024081E+01  0.2107731E+06 -0.2379150E+01  0.5716048E+05  0.1576060E+01
  0.1845238E+01  0.1059421E+06 -0.1016580E+01  0.2133458E+06 -0.2371561E+01  0.5729183E+05  0.1567543E+01
  0.1876190E+01  0.9946239E+05 -0.1012403E+01  0.2156786E+06 -0.2363868E+01  0.5749520E+05  0.1560099E+01
  0.1907143E+01  0.9271851E+05 -0.1012231E+01  0.2177259E+06 -0.2356080E+01  0.5770829E+05  0.1553457E+01
  0.1938095E+01  0.8579298E+05 -0.1016496E+01  0.2194826E+06 -0.2348095E+01  0.5800164E+05  0.1548507E+01
  0.1969048E+01  0.7869607E+05 -0.1026088E+01  0.2209052E+06 -0.2340012E+01  0.5833245E+05  0.1545077E+01
  0.2000000E+01  0.7144678E+05 -0.1042463E+01  0.2219715E+06 -0.2332041E+01  0.5861194E+05  0.1542561E+01
