VARIABLES="w (rad/s)"
"abs(F   1   1)" "angle(F   1   1)"
"abs(F   1   2)" "angle(F   1   2)"
"abs(F   1   3)" "angle(F   1   3)"
Zone t="Diffraction force - beta =   0.000 deg",I=    64,F=POINT
  0.5000000E-01  0.5703326E+03 -0.1570753E+01  0.1577695E+06 -0.1084066E-04  0.5902351E+01 -0.1570623E+01
  0.8095238E-01  0.9301099E+03 -0.1570797E+01  0.1575883E+06 -0.2918089E-04  0.9631886E+01 -0.1570740E+01
  0.1119048E+00  0.1299737E+04 -0.1570801E+01  0.1573218E+06 -0.5799913E-04  0.1349948E+02 -0.1570719E+01
  0.1428571E+00  0.1682627E+04 -0.1570790E+01  0.1569697E+06 -0.9956658E-04  0.1740890E+02 -0.1570700E+01
  0.1738095E+00  0.2080966E+04 -0.1570784E+01  0.1565314E+06 -0.1573397E-03  0.2168376E+02 -0.1570740E+01
  0.2047619E+00  0.2502021E+04 -0.1570792E+01  0.1560062E+06 -0.2362506E-03  0.2605542E+02 -0.1570772E+01
  0.2357143E+00  0.2952749E+04 -0.1570793E+01  0.1553934E+06 -0.3437052E-03  0.3097428E+02 -0.1570761E+01
  0.2666667E+00  0.3432945E+04 -0.1570788E+01  0.1546915E+06 -0.4888379E-03  0.3616235E+02 -0.1570768E+01
  0.2976190E+00  0.3960035E+04 -0.1570787E+01  0.1539001E+06 -0.6867947E-03  0.4186733E+02 -0.1570765E+01
  0.3285715E+00  0.4537756E+04 -0.1570782E+01  0.1530186E+06 -0.9537515E-03  0.4841256E+02 -0.1570760E+01
  0.3595238E+00  0.5171332E+04 -0.1570774E+01  0.1520466E+06 -0.1314516E-02  0.5559262E+02 -0.1570757E+01
  0.3904762E+00  0.5871009E+04 -0.1570757E+01  0.1509840E+06 -0.1798004E-02  0.6335320E+02 -0.1570739E+01
  0.4214286E+00  0.6655799E+04 -0.1570740E+01  0.1498355E+06 -0.2423793E-02  0.7249191E+02 -0.1570732E+01
  0.4523810E+00  0.7517979E+04 -0.1570712E+01  0.1486017E+06 -0.3240790E-02  0.8276112E+02 -0.1570708E+01
  0.4833333E+00  0.8454684E+04 -0.1570678E+01  0.1472875E+06 -0.4233143E-02  0.9390073E+02 -0.1570669E+01
  0.5142857E+00  0.9481873E+04 -0.1570625E+01  0.1458975E+06 -0.5457668E-02  0.1063283E+03 -0.1570618E+01
  0.5452381E+00  0.1059183E+05 -0.1570555E+01  0.1444346E+06 -0.6903178E-02  0.1207370E+03 -0.1570546E+01
  0.5761905E+00  0.1176890E+05 -0.1570465E+01  0.1429011E+06 -0.8578170E-02  0.1355706E+03 -0.1570458E+01
  0.6071429E+00  0.1299576E+05 -0.1570342E+01  0.1413034E+06 -0.1053304E-01  0.1505302E+03 -0.1570336E+01
  0.6380953E+00  0.1429854E+05 -0.1570190E+01  0.1396350E+06 -0.1273056E-01  0.1680150E+03 -0.1570185E+01
  0.6690477E+00  0.1567247E+05 -0.1569999E+01  0.1379079E+06 -0.1522322E-01  0.1865277E+03 -0.1569994E+01
  0.7000000E+00  0.1710104E+05 -0.1569762E+01  0.1361294E+06 -0.1804365E-01  0.2065955E+03 -0.1569755E+01
  0.7309524E+00  0.1857328E+05 -0.1569471E+01  0.1342916E+06 -0.2117829E-01  0.2274349E+03 -0.1569466E+01
  0.7619048E+00  0.2008342E+05 -0.1569117E+01  0.1324020E+06 -0.2466302E-01  0.2481895E+03 -0.1569112E+01
  0.7928572E+00  0.2165541E+05 -0.1568691E+01  0.1304692E+06 -0.2852052E-01  0.2707384E+03 -0.1568686E+01
  0.8238096E+00  0.2328696E+05 -0.1568183E+01  0.1284982E+06 -0.3276571E-01  0.2959411E+03 -0.1568179E+01
  0.8547620E+00  0.2497503E+05 -0.1567582E+01  0.1264882E+06 -0.3740909E-01  0.3231382E+03 -0.1567581E+01
  0.8857143E+00  0.2670700E+05 -0.1566878E+01  0.1244462E+06 -0.4246673E-01  0.3511270E+03 -0.1566876E+01
  0.9166667E+00  0.2846765E+05 -0.1566053E+01  0.1223764E+06 -0.4795198E-01  0.3789245E+03 -0.1566050E+01
  0.9476191E+00  0.3024548E+05 -0.1565099E+01  0.1202855E+06 -0.5387936E-01  0.4077522E+03 -0.1565096E+01
  0.9785714E+00  0.3207593E+05 -0.1564001E+01  0.1181706E+06 -0.6025858E-01  0.4396198E+03 -0.1564000E+01
  0.1009524E+01  0.3396162E+05 -0.1562749E+01  0.1160406E+06 -0.6710132E-01  0.4731003E+03 -0.1562752E+01
  0.1040476E+01  0.3588984E+05 -0.1561327E+01  0.1139015E+06 -0.7441774E-01  0.5078978E+03 -0.1561331E+01
  0.1071429E+01  0.3785057E+05 -0.1559720E+01  0.1117586E+06 -0.8221588E-01  0.5450363E+03 -0.1559726E+01
  0.1102381E+01  0.3983880E+05 -0.1557914E+01  0.1096111E+06 -0.9050061E-01  0.5845557E+03 -0.1557920E+01
  0.1133333E+01  0.4185027E+05 -0.1555894E+01  0.1074612E+06 -0.9927376E-01  0.6257546E+03 -0.1555897E+01
  0.1164286E+01  0.4386585E+05 -0.1553646E+01  0.1053114E+06 -0.1085437E+00  0.6655406E+03 -0.1553642E+01
  0.1195238E+01  0.4588043E+05 -0.1551158E+01  0.1031670E+06 -0.1183186E+00  0.7058820E+03 -0.1551147E+01
  0.1226190E+01  0.4791977E+05 -0.1548425E+01  0.1010297E+06 -0.1286066E+00  0.7490752E+03 -0.1548419E+01
  0.1257143E+01  0.4995898E+05 -0.1545437E+01  0.9890807E+05 -0.1395382E+00  0.7952096E+03 -0.1545452E+01
  0.1288095E+01  0.5205902E+05 -0.1542202E+01  0.9679627E+05 -0.1507412E+00  0.8452479E+03 -0.1542237E+01
  0.1319048E+01  0.5414603E+05 -0.1538696E+01  0.9470182E+05 -0.1625827E+00  0.8960608E+03 -0.1538733E+01
  0.1350000E+01  0.5622826E+05 -0.1534920E+01  0.9262769E+05 -0.1749408E+00  0.9477656E+03 -0.1534966E+01
  0.1380952E+01  0.5829336E+05 -0.1530868E+01  0.9057064E+05 -0.1878032E+00  0.1000217E+04 -0.1530916E+01
  0.1411905E+01  0.6021112E+05 -0.1526735E+01  0.8856030E+05 -0.2010196E+00  0.1045911E+04 -0.1526775E+01
  0.1442857E+01  0.6219595E+05 -0.1522157E+01  0.8655486E+05 -0.2149221E+00  0.1100147E+04 -0.1522168E+01
  0.1473810E+01  0.6413565E+05 -0.1517319E+01  0.8456895E+05 -0.2293421E+00  0.1154671E+04 -0.1517275E+01
  0.1504762E+01  0.6602597E+05 -0.1512239E+01  0.8260418E+05 -0.2442805E+00  0.1210773E+04 -0.1512161E+01
  0.1535714E+01  0.6787324E+05 -0.1506965E+01  0.8066307E+05 -0.2597503E+00  0.1266902E+04 -0.1506885E+01
  0.1566667E+01  0.6967136E+05 -0.1501528E+01  0.7875189E+05 -0.2757505E+00  0.1324329E+04 -0.1501481E+01
  0.1597619E+01  0.7140437E+05 -0.1495951E+01  0.7687059E+05 -0.2922822E+00  0.1381365E+04 -0.1495983E+01
  0.1628572E+01  0.7306871E+05 -0.1490268E+01  0.7501980E+05 -0.3093399E+00  0.1439424E+04 -0.1490306E+01
  0.1659524E+01  0.7463820E+05 -0.1484508E+01  0.7320576E+05 -0.3269358E+00  0.1498543E+04 -0.1484493E+01
  0.1690476E+01  0.7611509E+05 -0.1478717E+01  0.7141920E+05 -0.3450478E+00  0.1557800E+04 -0.1478670E+01
  0.1721429E+01  0.7749270E+05 -0.1472943E+01  0.6966112E+05 -0.3636775E+00  0.1617238E+04 -0.1472843E+01
  0.1752381E+01  0.7876245E+05 -0.1467262E+01  0.6793094E+05 -0.3828252E+00  0.1676346E+04 -0.1467186E+01
  0.1783333E+01  0.7992376E+05 -0.1461759E+01  0.6623354E+05 -0.4024972E+00  0.1732980E+04 -0.1461683E+01
  0.1814286E+01  0.8095971E+05 -0.1456485E+01  0.6456873E+05 -0.4226910E+00  0.1787512E+04 -0.1456462E+01
  0.1845238E+01  0.8187134E+05 -0.1451507E+01  0.6293752E+05 -0.4434107E+00  0.1839778E+04 -0.1451563E+01
  0.1876190E+01  0.8265778E+05 -0.1446889E+01  0.6133778E+05 -0.4646511E+00  0.1891045E+04 -0.1446918E+01
  0.1907143E+01  0.8330733E+05 -0.1442685E+01  0.5977747E+05 -0.4864289E+00  0.1941872E+04 -0.1442618E+01
  0.1938095E+01  0.8382513E+05 -0.1438971E+01  0.5824505E+05 -0.5087206E+00  0.1991249E+04 -0.1438846E+01
  0.1969048E+01  0.8421716E+05 -0.1435850E+01  0.5674301E+05 -0.5315369E+00  0.2039556E+04 -0.1435754E+01
  0.2000000E+01  0.8448211E+05 -0.1433387E+01  0.5526913E+05 -0.5548659E+00  0.2085823E+04 -0.1433246E+01
