VARIABLES="w (rad/s)"
"abs(F   1   1)" "angle(F   1   1)"
"abs(F   1   2)" "angle(F   1   2)"
"abs(F   1   3)" "angle(F   1   3)"
Zone t="Diffraction force - beta =   0.000 deg",I=    64,F=POINT
  0.5000000E-01  0.6389255E+03 -0.1570796E+01  0.3910371E+02 -0.3092266E+01  0.1179223E+04  0.1570797E+01
  0.8095238E-01  0.1050458E+04 -0.1570795E+01  0.1015732E+03 -0.3090568E+01  0.1936102E+04  0.1570798E+01
  0.1119048E+00  0.1468442E+04 -0.1570793E+01  0.1930753E+03 -0.3088384E+01  0.2702474E+04  0.1570800E+01
  0.1428571E+00  0.1902295E+04 -0.1570790E+01  0.3140150E+03 -0.3085622E+01  0.3492606E+04  0.1570802E+01
  0.1738095E+00  0.2349246E+04 -0.1570786E+01  0.4651209E+03 -0.3082146E+01  0.4307967E+04  0.1570806E+01
  0.2047619E+00  0.2821479E+04 -0.1570780E+01  0.6471730E+03 -0.3077771E+01  0.5165262E+04  0.1570811E+01
  0.2357143E+00  0.3325970E+04 -0.1570772E+01  0.8611764E+03 -0.3072233E+01  0.6070753E+04  0.1570819E+01
  0.2666667E+00  0.3856304E+04 -0.1570760E+01  0.1108709E+04 -0.3065511E+01  0.7031895E+04  0.1570831E+01
  0.2976190E+00  0.4440442E+04 -0.1570741E+01  0.1390364E+04 -0.3057004E+01  0.8074616E+04  0.1570847E+01
  0.3285715E+00  0.5074714E+04 -0.1570714E+01  0.1707802E+04 -0.3046793E+01  0.9198785E+04  0.1570873E+01
  0.3595238E+00  0.5771052E+04 -0.1570673E+01  0.2062716E+04 -0.3034422E+01  0.1042948E+05  0.1570911E+01
  0.3904762E+00  0.6533547E+04 -0.1570611E+01  0.2454956E+04 -0.3019686E+01  0.1177268E+05  0.1570967E+01
  0.4214286E+00  0.7393299E+04 -0.1570522E+01  0.2879643E+04 -0.3003013E+01  0.1325330E+05  0.1571050E+01
  0.4523810E+00  0.8316643E+04 -0.1570390E+01  0.3341596E+04 -0.2983727E+01  0.1485791E+05  0.1571172E+01
  0.4833333E+00  0.9320476E+04 -0.1570207E+01  0.3834350E+04 -0.2964056E+01  0.1659396E+05  0.1571341E+01
  0.5142857E+00  0.1042626E+05 -0.1569953E+01  0.4354920E+04 -0.2942555E+01  0.1846815E+05  0.1571576E+01
  0.5452381E+00  0.1160256E+05 -0.1569614E+01  0.4902042E+04 -0.2920868E+01  0.2045106E+05  0.1571888E+01
  0.5761905E+00  0.1285551E+05 -0.1569174E+01  0.5476715E+04 -0.2899466E+01  0.2253690E+05  0.1572295E+01
  0.6071429E+00  0.1413199E+05 -0.1568600E+01  0.6074896E+04 -0.2877362E+01  0.2467926E+05  0.1572822E+01
  0.6380953E+00  0.1549335E+05 -0.1567886E+01  0.6698549E+04 -0.2856182E+01  0.2690240E+05  0.1573480E+01
  0.6690477E+00  0.1694112E+05 -0.1567001E+01  0.7341877E+04 -0.2834945E+01  0.2921381E+05  0.1574295E+01
  0.7000000E+00  0.1839948E+05 -0.1565906E+01  0.8001018E+04 -0.2813283E+01  0.3153680E+05  0.1575302E+01
  0.7309524E+00  0.1989749E+05 -0.1564580E+01  0.8686238E+04 -0.2792376E+01  0.3390750E+05  0.1576519E+01
  0.7619048E+00  0.2144711E+05 -0.1562988E+01  0.9391392E+04 -0.2771723E+01  0.3631625E+05  0.1577978E+01
  0.7928572E+00  0.2303130E+05 -0.1561092E+01  0.1010701E+05 -0.2750896E+01  0.3874007E+05  0.1579714E+01
  0.8238096E+00  0.2466925E+05 -0.1558860E+01  0.1083364E+05 -0.2730119E+01  0.4118395E+05  0.1581760E+01
  0.8547620E+00  0.2634263E+05 -0.1556251E+01  0.1157058E+05 -0.2709535E+01  0.4362977E+05  0.1584151E+01
  0.8857143E+00  0.2807429E+05 -0.1553232E+01  0.1232020E+05 -0.2689384E+01  0.4611381E+05  0.1586915E+01
  0.9166667E+00  0.2977716E+05 -0.1549733E+01  0.1307805E+05 -0.2669500E+01  0.4854742E+05  0.1590105E+01
  0.9476191E+00  0.3148194E+05 -0.1545720E+01  0.1384194E+05 -0.2649906E+01  0.5095869E+05  0.1593751E+01
  0.9785714E+00  0.3322679E+05 -0.1541172E+01  0.1460842E+05 -0.2630539E+01  0.5333823E+05  0.1597887E+01
  0.1009524E+01  0.3504294E+05 -0.1536069E+01  0.1537527E+05 -0.2611437E+01  0.5571422E+05  0.1602539E+01
  0.1040476E+01  0.3687655E+05 -0.1530345E+01  0.1614015E+05 -0.2592609E+01  0.5808837E+05  0.1607745E+01
  0.1071429E+01  0.3867375E+05 -0.1523931E+01  0.1689641E+05 -0.2573807E+01  0.6034098E+05  0.1613569E+01
  0.1102381E+01  0.4048636E+05 -0.1516818E+01  0.1765346E+05 -0.2555636E+01  0.6258732E+05  0.1620007E+01
  0.1133333E+01  0.4227377E+05 -0.1508953E+01  0.1840439E+05 -0.2537821E+01  0.6469999E+05  0.1627122E+01
  0.1164286E+01  0.4406666E+05 -0.1500332E+01  0.1915399E+05 -0.2520692E+01  0.6676576E+05  0.1634899E+01
  0.1195238E+01  0.4581482E+05 -0.1490883E+01  0.1989606E+05 -0.2503984E+01  0.6876649E+05  0.1643369E+01
  0.1226190E+01  0.4750943E+05 -0.1480596E+01  0.2062500E+05 -0.2487410E+01  0.7058519E+05  0.1652586E+01
  0.1257143E+01  0.4915110E+05 -0.1469449E+01  0.2134847E+05 -0.2470756E+01  0.7227648E+05  0.1662551E+01
  0.1288095E+01  0.5086298E+05 -0.1457581E+01  0.2204434E+05 -0.2455240E+01  0.7394460E+05  0.1673189E+01
  0.1319048E+01  0.5247331E+05 -0.1444813E+01  0.2272972E+05 -0.2439583E+01  0.7540025E+05  0.1684608E+01
  0.1350000E+01  0.5405195E+05 -0.1431248E+01  0.2339928E+05 -0.2424448E+01  0.7676035E+05  0.1696702E+01
  0.1380952E+01  0.5552237E+05 -0.1416764E+01  0.2405438E+05 -0.2409874E+01  0.7797510E+05  0.1709522E+01
  0.1411905E+01  0.5645571E+05 -0.1401908E+01  0.2459663E+05 -0.2394581E+01  0.7870755E+05  0.1722234E+01
  0.1442857E+01  0.5765675E+05 -0.1385710E+01  0.2521470E+05 -0.2380769E+01  0.7945207E+05  0.1736378E+01
  0.1473810E+01  0.5875695E+05 -0.1368692E+01  0.2581812E+05 -0.2367602E+01  0.8009038E+05  0.1751077E+01
  0.1504762E+01  0.5968426E+05 -0.1350877E+01  0.2639766E+05 -0.2354597E+01  0.8039670E+05  0.1766386E+01
  0.1535714E+01  0.6052227E+05 -0.1332495E+01  0.2696112E+05 -0.2342212E+01  0.8053146E+05  0.1782123E+01
  0.1566667E+01  0.6126078E+05 -0.1313606E+01  0.2750276E+05 -0.2330285E+01  0.8052781E+05  0.1798171E+01
  0.1597619E+01  0.6179599E+05 -0.1294000E+01  0.2802095E+05 -0.2318370E+01  0.8028434E+05  0.1814674E+01
  0.1628572E+01  0.6215940E+05 -0.1273919E+01  0.2851193E+05 -0.2306718E+01  0.7976934E+05  0.1831439E+01
  0.1659524E+01  0.6232912E+05 -0.1253339E+01  0.2897882E+05 -0.2295356E+01  0.7901878E+05  0.1848407E+01
  0.1690476E+01  0.6234006E+05 -0.1232394E+01  0.2942584E+05 -0.2284563E+01  0.7813566E+05  0.1865393E+01
  0.1721429E+01  0.6214838E+05 -0.1211177E+01  0.2984533E+05 -0.2274119E+01  0.7699125E+05  0.1882293E+01
  0.1752381E+01  0.6176435E+05 -0.1189875E+01  0.3023967E+05 -0.2264094E+01  0.7558988E+05  0.1899016E+01
  0.1783333E+01  0.6122878E+05 -0.1168715E+01  0.3061060E+05 -0.2254748E+01  0.7403184E+05  0.1915326E+01
  0.1814286E+01  0.6052947E+05 -0.1147684E+01  0.3095800E+05 -0.2245964E+01  0.7235552E+05  0.1931101E+01
  0.1845238E+01  0.5959375E+05 -0.1126572E+01  0.3128101E+05 -0.2237009E+01  0.7046083E+05  0.1946525E+01
  0.1876190E+01  0.5846657E+05 -0.1105754E+01  0.3157258E+05 -0.2228316E+01  0.6836302E+05  0.1961169E+01
  0.1907143E+01  0.5714121E+05 -0.1085201E+01  0.3183546E+05 -0.2219860E+01  0.6608025E+05  0.1975017E+01
  0.1938095E+01  0.5567313E+05 -0.1065081E+01  0.3207910E+05 -0.2212033E+01  0.6375329E+05  0.1987949E+01
  0.1969048E+01  0.5406800E+05 -0.1045541E+01  0.3229905E+05 -0.2204697E+01  0.6137773E+05  0.1999707E+01
  0.2000000E+01  0.5225711E+05 -0.1026687E+01  0.3248014E+05 -0.2197196E+01  0.5875843E+05  0.2010067E+01
