VARIABLES="w (rad/s)"
"abs(F   1   1)" "angle(F   1   1)"
"abs(F   1   2)" "angle(F   1   2)"
"abs(F   1   3)" "angle(F   1   3)"
Zone t="Diffraction force - beta =   0.000 deg",I=    64,F=POINT
  0.5000000E-01  0.1685437E+04 -0.1570793E+01  0.5982703E+03 -0.3091690E+01  0.1352231E+04  0.1570795E+01
  0.8095238E-01  0.2757403E+04 -0.1570787E+01  0.1548417E+04 -0.3089915E+01  0.2216232E+04  0.1570794E+01
  0.1119048E+00  0.3862016E+04 -0.1570777E+01  0.2937498E+04 -0.3087797E+01  0.3117080E+04  0.1570791E+01
  0.1428571E+00  0.5013812E+04 -0.1570762E+01  0.4764593E+04 -0.3085132E+01  0.4081500E+04  0.1570788E+01
  0.1738095E+00  0.6199529E+04 -0.1570741E+01  0.7026533E+04 -0.3081745E+01  0.5068492E+04  0.1570782E+01
  0.2047619E+00  0.7461288E+04 -0.1570710E+01  0.9741502E+04 -0.3077585E+01  0.6158694E+04  0.1570776E+01
  0.2357143E+00  0.8827521E+04 -0.1570664E+01  0.1291376E+05 -0.3072381E+01  0.7359943E+04  0.1570766E+01
  0.2666667E+00  0.1024460E+05 -0.1570597E+01  0.1652210E+05 -0.3065988E+01  0.8623145E+04  0.1570752E+01
  0.2976190E+00  0.1184010E+05 -0.1570499E+01  0.2061854E+05 -0.3058099E+01  0.1011482E+05  0.1570735E+01
  0.3285715E+00  0.1363172E+05 -0.1570354E+01  0.2512670E+05 -0.3048524E+01  0.1175681E+05  0.1570710E+01
  0.3595238E+00  0.1551307E+05 -0.1570135E+01  0.3011036E+05 -0.3037090E+01  0.1356877E+05  0.1570676E+01
  0.3904762E+00  0.1763111E+05 -0.1569809E+01  0.3548821E+05 -0.3023474E+01  0.1562771E+05  0.1570629E+01
  0.4214286E+00  0.2009013E+05 -0.1569340E+01  0.4121093E+05 -0.3008368E+01  0.1809875E+05  0.1570573E+01
  0.4523810E+00  0.2273808E+05 -0.1568649E+01  0.4728914E+05 -0.2990919E+01  0.2072791E+05  0.1570497E+01
  0.4833333E+00  0.2556678E+05 -0.1567688E+01  0.5353186E+05 -0.2973336E+01  0.2370939E+05  0.1570410E+01
  0.5142857E+00  0.2874634E+05 -0.1566370E+01  0.6007024E+05 -0.2954708E+01  0.2718964E+05  0.1570320E+01
  0.5452381E+00  0.3232842E+05 -0.1564642E+01  0.6655988E+05 -0.2935649E+01  0.3097192E+05  0.1570233E+01
  0.5761905E+00  0.3598408E+05 -0.1562386E+01  0.7323137E+05 -0.2917580E+01  0.3501592E+05  0.1570161E+01
  0.6071429E+00  0.3973107E+05 -0.1559463E+01  0.7991136E+05 -0.2898942E+01  0.3927438E+05  0.1570105E+01
  0.6380953E+00  0.4383883E+05 -0.1555886E+01  0.8653879E+05 -0.2881499E+01  0.4409384E+05  0.1570121E+01
  0.6690477E+00  0.4829623E+05 -0.1551531E+01  0.9323297E+05 -0.2864823E+01  0.4944916E+05  0.1570255E+01
  0.7000000E+00  0.5289657E+05 -0.1546211E+01  0.9975768E+05 -0.2847908E+01  0.5495158E+05  0.1570501E+01
  0.7309524E+00  0.5762624E+05 -0.1539838E+01  0.1061004E+06 -0.2831603E+01  0.6078067E+05  0.1570929E+01
  0.7619048E+00  0.6226979E+05 -0.1532178E+01  0.1123927E+06 -0.2816180E+01  0.6682473E+05  0.1571559E+01
  0.7928572E+00  0.6705634E+05 -0.1523211E+01  0.1186108E+06 -0.2801718E+01  0.7349106E+05  0.1572476E+01
  0.8238096E+00  0.7239130E+05 -0.1513150E+01  0.1242699E+06 -0.2786353E+01  0.8035298E+05  0.1573574E+01
  0.8547620E+00  0.7781548E+05 -0.1501592E+01  0.1297835E+06 -0.2771974E+01  0.8795969E+05  0.1575261E+01
  0.8857143E+00  0.8310950E+05 -0.1488299E+01  0.1350755E+06 -0.2758582E+01  0.9563595E+05  0.1577414E+01
  0.9166667E+00  0.8825791E+05 -0.1473141E+01  0.1402134E+06 -0.2746589E+01  0.1037619E+06  0.1580192E+01
  0.9476191E+00  0.9324979E+05 -0.1456098E+01  0.1446114E+06 -0.2733360E+01  0.1113611E+06  0.1583361E+01
  0.9785714E+00  0.9813798E+05 -0.1437227E+01  0.1487577E+06 -0.2721001E+01  0.1198147E+06  0.1587288E+01
  0.1009524E+01  0.1028330E+06 -0.1416762E+01  0.1525706E+06 -0.2709622E+01  0.1283077E+06  0.1591453E+01
  0.1040476E+01  0.1074671E+06 -0.1394871E+01  0.1561256E+06 -0.2699567E+01  0.1375670E+06  0.1596376E+01
  0.1071429E+01  0.1116514E+06 -0.1371018E+01  0.1590514E+06 -0.2689319E+01  0.1464003E+06  0.1602088E+01
  0.1102381E+01  0.1153646E+06 -0.1345448E+01  0.1613755E+06 -0.2678920E+01  0.1547754E+06  0.1608299E+01
  0.1133333E+01  0.1184719E+06 -0.1318168E+01  0.1633595E+06 -0.2669376E+01  0.1636749E+06  0.1615455E+01
  0.1164286E+01  0.1207950E+06 -0.1289676E+01  0.1649694E+06 -0.2661035E+01  0.1720837E+06  0.1622381E+01
  0.1195238E+01  0.1224756E+06 -0.1260408E+01  0.1662502E+06 -0.2653846E+01  0.1808023E+06  0.1629705E+01
  0.1226190E+01  0.1232603E+06 -0.1229843E+01  0.1670353E+06 -0.2647239E+01  0.1889888E+06  0.1637597E+01
  0.1257143E+01  0.1229901E+06 -0.1198449E+01  0.1670018E+06 -0.2639457E+01  0.1953513E+06  0.1644622E+01
  0.1288095E+01  0.1220639E+06 -0.1167491E+01  0.1666074E+06 -0.2633133E+01  0.2023167E+06  0.1652067E+01
  0.1319048E+01  0.1199239E+06 -0.1136686E+01  0.1658388E+06 -0.2627662E+01  0.2084751E+06  0.1658274E+01
  0.1350000E+01  0.1166370E+06 -0.1105841E+01  0.1646537E+06 -0.2623369E+01  0.2137086E+06  0.1664004E+01
  0.1380952E+01  0.1123142E+06 -0.1075399E+01  0.1632054E+06 -0.2620476E+01  0.2186484E+06  0.1669364E+01
  0.1411905E+01  0.1067659E+06 -0.1044790E+01  0.1612830E+06 -0.2618403E+01  0.2225021E+06  0.1673296E+01
  0.1442857E+01  0.1003293E+06 -0.1018074E+01  0.1586105E+06 -0.2616005E+01  0.2242257E+06  0.1673722E+01
  0.1473810E+01  0.9302006E+05 -0.9936724E+00  0.1556612E+06 -0.2614852E+01  0.2256245E+06  0.1673230E+01
  0.1504762E+01  0.8480877E+05 -0.9721878E+00  0.1524748E+06 -0.2614896E+01  0.2265133E+06  0.1671263E+01
  0.1535714E+01  0.7563651E+05 -0.9544305E+00  0.1490669E+06 -0.2616557E+01  0.2262457E+06  0.1666409E+01
  0.1566667E+01  0.6569115E+05 -0.9424447E+00  0.1454603E+06 -0.2619872E+01  0.2251866E+06  0.1658877E+01
  0.1597619E+01  0.5511792E+05 -0.9386536E+00  0.1417508E+06 -0.2624700E+01  0.2237194E+06  0.1649636E+01
  0.1628572E+01  0.4397070E+05 -0.9496584E+00  0.1378619E+06 -0.2630970E+01  0.2213411E+06  0.1636863E+01
  0.1659524E+01  0.3236671E+05 -0.9949263E+00  0.1335841E+06 -0.2637754E+01  0.2169461E+06  0.1617509E+01
  0.1690476E+01  0.2069939E+05 -0.1125637E+01  0.1292973E+06 -0.2645243E+01  0.2121120E+06  0.1594825E+01
  0.1721429E+01  0.1049024E+05 -0.1614289E+01  0.1250375E+06 -0.2652928E+01  0.2072578E+06  0.1569383E+01
  0.1752381E+01  0.1073260E+05 -0.2914663E+01  0.1207934E+06 -0.2661437E+01  0.2018368E+06  0.1538624E+01
  0.1783333E+01  0.2169023E+05  0.2888795E+01  0.1165700E+06 -0.2670230E+01  0.1960760E+06  0.1502313E+01
  0.1814286E+01  0.3454557E+05  0.2754828E+01  0.1122810E+06 -0.2678042E+01  0.1902256E+06  0.1460948E+01
  0.1845238E+01  0.4785706E+05  0.2703994E+01  0.1079332E+06 -0.2685030E+01  0.1846458E+06  0.1414505E+01
  0.1876190E+01  0.6141311E+05  0.2682416E+01  0.1034677E+06 -0.2691542E+01  0.1792053E+06  0.1360973E+01
  0.1907143E+01  0.7522350E+05  0.2675910E+01  0.9873764E+05 -0.2697317E+01  0.1732041E+06  0.1293425E+01
  0.1938095E+01  0.8910874E+05  0.2676734E+01  0.9389355E+05 -0.2702454E+01  0.1679635E+06  0.1216581E+01
  0.1969048E+01  0.1028675E+06  0.2682941E+01  0.8895781E+05 -0.2707157E+01  0.1641336E+06  0.1135040E+01
  0.2000000E+01  0.1165235E+06  0.2692771E+01  0.8391107E+05 -0.2711677E+01  0.1617669E+06  0.1047436E+01
