VARIABLES="w (rad/s)"
"A   1   1" "B   1   1"
"A   1   2" "B   1   2"
"A   1   3" "B   1   3"
Zone t="Motion of body    1 in DoF   1",I=    64,F=POINT
  0.5000000E-01  0.3800921E+05  0.1641432E-02 -0.2670288E-03  0.8017501E-05 -0.7398655E+04  0.1239520E-04
  0.8095238E-01  0.3819425E+05  0.7177484E-02  0.3581327E-02  0.2398119E-04 -0.7608891E+04  0.6694614E-04
  0.1119048E+00  0.3825629E+05  0.2019132E-01  0.3886121E-02  0.4228047E-04 -0.7601532E+04  0.1920173E-03
  0.1428571E+00  0.3827154E+05  0.4535596E-01  0.1495361E-02  0.2673012E-05 -0.7650789E+04  0.6010773E-03
  0.1738095E+00  0.3835701E+05  0.9035731E-01  0.1404645E-02  0.2429786E-04 -0.7571293E+04  0.1333933E-02
  0.2047619E+00  0.3838180E+05  0.1666980E+00  0.4173101E-02  0.4188647E-04 -0.7605687E+04  0.2479274E-02
  0.2357143E+00  0.3844068E+05  0.2935444E+00  0.1129613E-01  0.1466335E-03 -0.7524495E+04  0.5142659E-02
  0.2666667E+00  0.3851840E+05  0.5009207E+00 -0.4692077E-02 -0.9222329E-04 -0.7515883E+04  0.9909956E-02
  0.2976190E+00  0.3853149E+05  0.8396266E+00 -0.8408203E-02 -0.1974246E-03 -0.7550863E+04  0.1817792E-01
  0.3285715E+00  0.3862273E+05  0.1389546E+01 -0.5665654E-02 -0.1023691E-03 -0.7462565E+04  0.3463012E-01
  0.3595238E+00  0.3872935E+05  0.2282416E+01  0.1752841E-01  0.6221384E-03 -0.7402422E+04  0.6403092E-01
  0.3904762E+00  0.3877963E+05  0.3719774E+01  0.1563095E-02 -0.3032386E-04 -0.7442805E+04  0.1136314E+00
  0.4214286E+00  0.3884117E+05  0.5980539E+01 -0.1303463E-02 -0.1480356E-03 -0.7425486E+04  0.2033288E+00
  0.4523810E+00  0.3900967E+05  0.9540713E+01  0.9950336E-02  0.7223189E-03 -0.7264071E+04  0.3712301E+00
  0.4833333E+00  0.3915438E+05  0.1484143E+02  0.5461594E-02  0.6700903E-03 -0.7219433E+04  0.6377732E+00
  0.5142857E+00  0.3926873E+05  0.2269921E+02  0.4272461E-02  0.4676580E-03 -0.7214180E+04  0.1061082E+01
  0.5452381E+00  0.3939123E+05  0.3388886E+02 -0.1623162E-02 -0.7045269E-04 -0.7172042E+04  0.1734168E+01
  0.5761905E+00  0.3955482E+05  0.4941899E+02  0.6938335E-02  0.7551908E-03 -0.7081837E+04  0.2780280E+01
  0.6071429E+00  0.3977177E+05  0.7076570E+02 -0.5679859E-02 -0.2244711E-03 -0.6982110E+04  0.4351792E+01
  0.6380953E+00  0.3994966E+05  0.9905909E+02 -0.1286521E-01 -0.1813889E-02 -0.6968381E+04  0.6554953E+01
  0.6690477E+00  0.4010689E+05  0.1362424E+03 -0.3968371E-02 -0.4856586E-03 -0.6942017E+04  0.9700764E+01
  0.7000000E+00  0.4030645E+05  0.1845910E+03  0.7237025E-02  0.1221180E-02 -0.6834923E+04  0.1423356E+02
  0.7309524E+00  0.4057055E+05  0.2463051E+03 -0.1962270E-02 -0.1803875E-02 -0.6730891E+04  0.2046398E+02
  0.7619048E+00  0.4083420E+05  0.3242924E+03 -0.1762390E-02 -0.1131535E-02 -0.6632007E+04  0.2892348E+02
  0.7928572E+00  0.4109671E+05  0.4217738E+03 -0.1308682E-02  0.8172989E-03 -0.6555972E+04  0.4018453E+02
  0.8238096E+00  0.4135391E+05  0.5422226E+03 -0.1926312E-02  0.3519058E-03 -0.6482849E+04  0.5504343E+02
  0.8547620E+00  0.4159948E+05  0.6893843E+03  0.1178199E-01  0.3760338E-02 -0.6403656E+04  0.7441348E+02
  0.8857143E+00  0.4189477E+05  0.8678682E+03 -0.2067320E-02 -0.1482010E-02 -0.6275920E+04  0.9966669E+02
  0.9166667E+00  0.4222297E+05  0.1082403E+04 -0.3129439E-02 -0.3253937E-02 -0.6116724E+04  0.1321547E+03
  0.9476191E+00  0.4257699E+05  0.1338066E+04  0.1056307E-01  0.4558563E-02 -0.5957275E+04  0.1732178E+03
  0.9785714E+00  0.4291888E+05  0.1640118E+04  0.1559292E-02  0.6904602E-03 -0.5840580E+04  0.2240641E+03
  0.1009524E+01  0.4322758E+05  0.1993905E+04  0.5441342E-03 -0.8010864E-03 -0.5725535E+04  0.2871213E+03
  0.1040476E+01  0.4353655E+05  0.2405076E+04  0.1818485E-02 -0.1777649E-02 -0.5606827E+04  0.3644420E+03
  0.1071429E+01  0.4384201E+05  0.2878913E+04  0.4785156E-02  0.3005981E-02 -0.5445045E+04  0.4590562E+03
  0.1102381E+01  0.4415894E+05  0.3420729E+04 -0.4761533E-02 -0.5050659E-02 -0.5266237E+04  0.5729330E+03
  0.1133333E+01  0.4446928E+05  0.4036043E+04  0.2638873E-02 -0.1289368E-02 -0.5087245E+04  0.7085798E+03
  0.1164286E+01  0.4476905E+05  0.4729750E+04  0.4455941E-02  0.3990173E-02 -0.4891324E+04  0.8696933E+03
  0.1195238E+01  0.4506267E+05  0.5506282E+04  0.6127832E-03  0.1831055E-03 -0.4713062E+04  0.1058253E+04
  0.1226190E+01  0.4531327E+05  0.6369008E+04  0.5077177E-02  0.9643555E-02 -0.4528762E+04  0.1278993E+04
  0.1257143E+01  0.4550618E+05  0.7324352E+04 -0.1942028E-02 -0.3402710E-02 -0.4373786E+04  0.1534739E+04
  0.1288095E+01  0.4568445E+05  0.8360933E+04 -0.2843042E-03 -0.1770020E-02 -0.4224360E+04  0.1825892E+04
  0.1319048E+01  0.4578036E+05  0.9488963E+04 -0.3331594E-02 -0.4104614E-02 -0.4074858E+04  0.2158227E+04
  0.1350000E+01  0.4583048E+05  0.1070186E+05 -0.2170139E-02 -0.1525879E-04 -0.3934224E+04  0.2531187E+04
  0.1380952E+01  0.4584302E+05  0.1199500E+05  0.2607675E-02  0.2700806E-02 -0.3792173E+04  0.2946922E+04
  0.1411905E+01  0.4531421E+05  0.1312150E+05 -0.3026026E-03 -0.2883911E-02 -0.3936369E+04  0.3331186E+04
  0.1442857E+01  0.4522145E+05  0.1453837E+05 -0.9306350E-03 -0.2227783E-02 -0.3810510E+04  0.3828952E+04
  0.1473810E+01  0.4506966E+05  0.1601487E+05 -0.3354468E-02 -0.7934570E-03 -0.3711109E+04  0.4371127E+04
  0.1504762E+01  0.4485015E+05  0.1754237E+05  0.3082662E-02  0.1953125E-02 -0.3646801E+04  0.4954901E+04
  0.1535714E+01  0.4455380E+05  0.1910685E+05  0.1430777E-02  0.6225586E-02 -0.3581132E+04  0.5584313E+04
  0.1566667E+01  0.4421370E+05  0.2069747E+05  0.4129612E-02 -0.1739502E-02 -0.3552417E+04  0.6249067E+04
  0.1597619E+01  0.4381215E+05  0.2229809E+05  0.5424943E-02  0.1080322E-01 -0.3535035E+04  0.6951245E+04
  0.1628572E+01  0.4334453E+05  0.2389819E+05  0.1649020E-02  0.3479004E-02 -0.3535806E+04  0.7688259E+04
  0.1659524E+01  0.4283135E+05  0.2548301E+05  0.3310084E-02  0.2197266E-02 -0.3563641E+04  0.8452183E+04
  0.1690476E+01  0.4226512E+05  0.2703813E+05  0.2744003E-02  0.7324219E-02 -0.3621588E+04  0.9240064E+04
  0.1721429E+01  0.4165189E+05  0.2855866E+05  0.3545611E-02 -0.6469727E-02 -0.3726319E+04  0.1004147E+05
  0.1752381E+01  0.4098964E+05  0.3002638E+05  0.9752357E-03 -0.2075195E-02 -0.3841889E+04  0.1086210E+05
  0.1783333E+01  0.4029406E+05  0.3143501E+05  0.3901687E-02  0.3601074E-02 -0.3983525E+04  0.1169058E+05
  0.1814286E+01  0.3958397E+05  0.3277668E+05 -0.5382628E-03  0.1770020E-02 -0.4160798E+04  0.1251777E+05
  0.1845238E+01  0.3885155E+05  0.3403893E+05 -0.1323085E-03 -0.5859375E-02 -0.4349103E+04  0.1334678E+05
  0.1876190E+01  0.3809605E+05  0.3522009E+05  0.1366320E-02  0.2746582E-02 -0.4552785E+04  0.1417291E+05
  0.1907143E+01  0.3734337E+05  0.3631288E+05 -0.3456373E-02  0.3784180E-02 -0.4776268E+04  0.1498245E+05
  0.1938095E+01  0.3658783E+05  0.3731252E+05  0.5668622E-03  0.4272461E-03 -0.5008786E+04  0.1578304E+05
  0.1969048E+01  0.3583983E+05  0.3822657E+05  0.1332884E-02 -0.3051758E-02 -0.5263780E+04  0.1656397E+05
  0.2000000E+01  0.3510157E+05  0.3905910E+05  0.1434326E-02 -0.1080322E-01 -0.5543749E+04  0.1731097E+05
Zone t="Motion of body    1 in DoF   2",I=    64,F=POINT
  0.5000000E-01 -0.3967285E-02  0.2384186E-05  0.6138537E+05  0.1484975E+03  0.7781982E-02  0.4768372E-05
  0.8095238E-01  0.7445391E-02 -0.1287460E-04  0.6080723E+05  0.2464544E+03  0.5277746E-02  0.1335144E-04
  0.1119048E+00  0.6476869E-02 -0.4529953E-04  0.6049681E+05  0.3534374E+03  0.2454392E-02  0.8583069E-05
  0.1428571E+00  0.6515502E-02  0.4291534E-05  0.6038804E+05  0.4735772E+03  0.3845215E-02 -0.1525879E-04
  0.1738095E+00 -0.3950563E-02 -0.5435944E-04  0.6037004E+05  0.6123792E+03  0.4038353E-02 -0.9536743E-05
  0.2047619E+00  0.1371162E-01  0.3242493E-04  0.6052037E+05  0.7763773E+03  0.5961573E-02  0.2670288E-04
  0.2357143E+00  0.6149754E-02 -0.2288818E-04  0.6074996E+05  0.9750829E+03  0.3107244E-02  0.1335144E-04
  0.2666667E+00  0.1487732E-02  0.1144409E-04  0.6101361E+05  0.1216998E+04  0.8125305E-02  0.1029968E-03
  0.2976190E+00  0.1107422E-01  0.1430511E-03  0.6138255E+05  0.1519487E+04  0.1076660E-01  0.3204346E-03
  0.3285715E+00  0.8080523E-02 -0.1029968E-03  0.6182018E+05  0.1893565E+04  0.9287957E-03 -0.8773804E-04
  0.3595238E+00 -0.2546500E-02  0.7095337E-03  0.6217578E+05  0.2360793E+04  0.1154413E-01  0.2059937E-03
  0.3904762E+00 -0.3360655E-02  0.2212524E-03  0.6258418E+05  0.2939552E+04  0.6408691E-02  0.3280640E-03
  0.4214286E+00  0.9413896E-03  0.3814697E-04  0.6288306E+05  0.3625572E+04  0.2896583E-03  0.1831055E-03
  0.4523810E+00  0.1005153E-01 -0.3662109E-03  0.6310718E+05  0.4455659E+04  0.4047594E-03  0.9918213E-04
  0.4833333E+00  0.8839574E-03 -0.7629395E-05  0.6310570E+05  0.5369049E+04  0.9976091E-02  0.6103516E-03
  0.5142857E+00  0.6052653E-02 -0.1144409E-03  0.6301828E+05  0.6405767E+04  0.7595486E-02 -0.2593994E-03
  0.5452381E+00  0.1130616E-01 -0.3356934E-03  0.6282082E+05  0.7517503E+04  0.1007480E-01  0.3967285E-03
  0.5761905E+00 -0.4766795E-02 -0.7629395E-04  0.6243662E+05  0.8689133E+04  0.2118575E-02  0.3814697E-03
  0.6071429E+00  0.1608456E-01  0.6103516E-04  0.6191704E+05  0.9943681E+04  0.7640165E-02  0.8544922E-03
  0.6380953E+00 -0.9373906E-02  0.7934570E-03  0.6138399E+05  0.1121930E+05  0.9947819E-02  0.1281738E-02
  0.6690477E+00 -0.7845515E-02 -0.2746582E-03  0.6077548E+05  0.1254160E+05  0.5838523E-02  0.6713867E-03
  0.7000000E+00  0.4010881E-02 -0.1525879E-04  0.6005932E+05  0.1391645E+05  0.6801060E-02  0.4882812E-03
  0.7309524E+00 -0.5594558E-02  0.1068115E-02  0.5927642E+05  0.1531087E+05  0.6680069E-02  0.1312256E-02
  0.7619048E+00 -0.1842499E-02  0.1159668E-02  0.5842051E+05  0.1673021E+05  0.3524780E-02  0.1342773E-02
  0.7928572E+00 -0.2386419E-02  0.5187988E-03  0.5752592E+05  0.1816740E+05  0.4310951E-02  0.1464844E-02
  0.8238096E+00  0.6593913E-02 -0.3173828E-02  0.5660728E+05  0.1961213E+05  0.4889868E-02  0.1953125E-02
  0.8547620E+00 -0.3498895E-02 -0.3662109E-03  0.5564787E+05  0.2105879E+05 -0.1999369E-02  0.1342773E-02
  0.8857143E+00  0.6891066E-03 -0.2166748E-02  0.5464191E+05  0.2250056E+05  0.2067320E-02  0.4272461E-03
  0.9166667E+00  0.2663352E-02  0.3875732E-02  0.5359074E+05  0.2393191E+05  0.3462358E-02  0.4882812E-03
  0.9476191E+00  0.1223770E-02  0.7019043E-03  0.5250449E+05  0.2534380E+05  0.8244347E-02  0.3356934E-02
  0.9785714E+00  0.5613453E-03  0.4669189E-02  0.5140601E+05  0.2672643E+05  0.3991788E-02  0.8544922E-03
  0.1009524E+01 -0.4715830E-02 -0.1159668E-02  0.5030341E+05  0.2807470E+05  0.3385724E-02  0.1586914E-02
  0.1040476E+01  0.1173216E-02 -0.8544922E-03  0.4920580E+05  0.2938183E+05  0.3636969E-02  0.2502441E-02
  0.1071429E+01  0.3873698E-02 -0.6103516E-04  0.4810448E+05  0.3064820E+05  0.1367188E-02  0.2136230E-02
  0.1102381E+01 -0.4318600E-02 -0.1525879E-02  0.4699860E+05  0.3187121E+05  0.6090333E-02  0.1708984E-02
  0.1133333E+01  0.2585018E-02  0.4699707E-02  0.4588670E+05  0.3304989E+05  0.4523782E-02  0.3906250E-02
  0.1164286E+01  0.3722021E-02 -0.3601074E-02  0.4477975E+05  0.3417955E+05  0.2935678E-02  0.3784180E-02
  0.1195238E+01  0.1480893E-02 -0.6103516E-04  0.4368485E+05  0.3525160E+05  0.2859655E-02  0.4882812E-03
  0.1226190E+01  0.4031876E-02 -0.1037598E-02  0.4261256E+05  0.3626257E+05  0.2488812E-02  0.4882812E-03
  0.1257143E+01 -0.2961592E-02  0.5493164E-03  0.4157434E+05  0.3723750E+05  0.4952170E-02  0.1953125E-02
  0.1288095E+01  0.6681150E-02  0.3051758E-02  0.4054374E+05  0.3809231E+05  0.3222115E-02  0.6347656E-02
  0.1319048E+01  0.1388164E-03 -0.2075195E-02  0.3954562E+05  0.3891733E+05  0.4719758E-02  0.3784180E-02
  0.1350000E+01  0.3797743E-02 -0.2136230E-02  0.3857555E+05  0.3968232E+05  0.8499711E-02  0.2807617E-02
  0.1380952E+01  0.2784466E-02 -0.2929688E-02  0.3763470E+05  0.4038110E+05 -0.8839575E-04  0.3417969E-02
  0.1411905E+01  0.3371858E-02  0.5310059E-02  0.3648036E+05  0.4099775E+05  0.7781210E-02  0.3173828E-02
  0.1442857E+01  0.2580397E-02 -0.6103516E-04  0.3559386E+05  0.4160195E+05  0.2876508E-02  0.4394531E-02
  0.1473810E+01  0.4141319E-04 -0.5493164E-03  0.3473236E+05  0.4214961E+05  0.2236312E-02  0.6958008E-02
  0.1504762E+01 -0.8112267E-04  0.3051758E-03  0.3390254E+05  0.4264141E+05  0.3163784E-02  0.1464844E-02
  0.1535714E+01 -0.1867960E-02 -0.8178711E-02  0.3309739E+05  0.4308094E+05  0.1907703E-02  0.6103516E-02
  0.1566667E+01  0.2337516E-03  0.7873535E-02  0.3233065E+05  0.4345889E+05  0.4908785E-02  0.1464844E-02
  0.1597619E+01 -0.8786879E-03  0.2441406E-03  0.3159128E+05  0.4378686E+05  0.8404841E-03  0.6713867E-02
  0.1628572E+01  0.2660919E-02  0.4882812E-03  0.3087965E+05  0.4406685E+05  0.0000000E+00  0.5249023E-02
  0.1659524E+01 -0.4523782E-02  0.3417969E-02  0.3020072E+05  0.4429132E+05  0.2280280E-02  0.5859375E-02
  0.1690476E+01 -0.1227580E-02 -0.4150391E-02  0.2954879E+05  0.4447270E+05  0.1588633E-02  0.3662109E-02
  0.1721429E+01  0.2836489E-02 -0.1953125E-02  0.2892866E+05  0.4461254E+05  0.2056454E-02  0.9765625E-03
  0.1752381E+01 -0.2960537E-02 -0.8056641E-02  0.2833305E+05  0.4471334E+05  0.1323534E-02  0.2441406E-02
  0.1783333E+01  0.3080279E-03  0.3051758E-02  0.2776646E+05  0.4477710E+05  0.3490983E-02  0.7324219E-02
  0.1814286E+01  0.8073942E-03  0.2197266E-02  0.2723062E+05  0.4479567E+05  0.4171537E-02  0.5249023E-02
  0.1845238E+01 -0.2778478E-02 -0.2319336E-02  0.2671973E+05  0.4477848E+05  0.7276966E-03  0.3295898E-02
  0.1876190E+01  0.2732640E-02 -0.1586914E-02  0.2623180E+05  0.4473278E+05  0.2212137E-02  0.9765625E-03
  0.1907143E+01 -0.1824197E-02 -0.1708984E-02  0.2577142E+05  0.4464189E+05 -0.7680829E-03  0.4272461E-02
  0.1938095E+01  0.2645357E-02  0.1586914E-02  0.2533391E+05  0.4451862E+05  0.5416683E-02  0.3051758E-02
  0.1969048E+01  0.2076819E-02 -0.2319336E-02  0.2492121E+05  0.4435968E+05  0.1549865E-02  0.3540039E-02
  0.2000000E+01  0.4882812E-03 -0.3295898E-02  0.2453486E+05  0.4417650E+05  0.1831055E-03  0.1953125E-02
Zone t="Motion of body    1 in DoF   3",I=    64,F=POINT
  0.5000000E-01 -0.7715461E+04 -0.5423192E-05 -0.3433228E-02 -0.1291161E-04  0.5451627E+05  0.5314725E-04
  0.8095238E-01 -0.7929069E+04 -0.1727307E-05  0.1279382E-01  0.4212543E-04  0.5467866E+05  0.8154562E-04
  0.1119048E+00 -0.7905938E+04 -0.1732436E-04 -0.5726916E-02 -0.5442836E-04  0.5479033E+05  0.1260284E-03
  0.1428571E+00 -0.7963411E+04  0.1299229E-03  0.1388550E-02  0.1133071E-05  0.5470414E+05 -0.1405212E-03
  0.1738095E+00 -0.7879338E+04  0.3366348E-03  0.3467717E-02 -0.2781052E-05  0.5479775E+05 -0.2139623E-03
  0.2047619E+00 -0.7926199E+04  0.7888631E-03  0.1527653E-02 -0.1717469E-04  0.5469748E+05 -0.3962680E-04
  0.2357143E+00 -0.7821201E+04  0.1959541E-02  0.2654104E-02 -0.1391181E-04  0.5488313E+05  0.8315756E-04
  0.2666667E+00 -0.7833044E+04  0.4602795E-02  0.1215935E-01  0.2116633E-03  0.5478920E+05  0.2819921E-03
  0.2976190E+00 -0.7874523E+04  0.9737510E-02  0.2463501E-01  0.5448258E-03  0.5470797E+05  0.3628338E-03
  0.3285715E+00 -0.7766715E+04  0.1985699E-01  0.3900942E-02  0.3706294E-04  0.5488042E+05  0.4785636E-03
  0.3595238E+00 -0.7715604E+04  0.3891347E-01  0.7299966E-02  0.1898010E-03  0.5487446E+05  0.1169386E-02
  0.3904762E+00 -0.7778088E+04  0.7596555E-01  0.6330536E-02  0.1763979E-03  0.5471052E+05  0.2599455E-02
  0.4214286E+00 -0.7748176E+04  0.1431127E+00  0.7350080E-02  0.2445537E-03  0.5477854E+05  0.4110158E-02
  0.4523810E+00 -0.7568098E+04  0.2622234E+00  0.3271805E-02 -0.1672562E-04  0.5500486E+05  0.9328432E-02
  0.4833333E+00 -0.7543248E+04  0.4680704E+00  0.1341721E-01  0.9925920E-03  0.5493577E+05  0.1972352E-01
  0.5142857E+00 -0.7542052E+04  0.8094004E+00  0.1830631E-01  0.1661779E-02  0.5490575E+05  0.3842149E-01
  0.5452381E+00 -0.7487111E+04  0.1357123E+01  0.1236961E-01  0.1258541E-02  0.5499977E+05  0.7029402E-01
  0.5761905E+00 -0.7398359E+04  0.2210063E+01 -0.2595255E-02 -0.7141717E-03  0.5506043E+05  0.1230475E+00
  0.6071429E+00 -0.7308613E+04  0.3504073E+01 -0.5755255E-02 -0.1257341E-02  0.5509386E+05  0.2238666E+00
  0.6380953E+00 -0.7310888E+04  0.5427042E+01  0.1425216E-01  0.2345793E-02  0.5499912E+05  0.3629543E+00
  0.6690477E+00 -0.7277347E+04  0.8197742E+01  0.4059598E-02  0.2191961E-03  0.5503497E+05  0.5874588E+00
  0.7000000E+00 -0.7158831E+04  0.1209854E+02  0.1277379E-01  0.2550185E-02  0.5518257E+05  0.9358989E+00
  0.7309524E+00 -0.7062217E+04  0.1755953E+02 -0.2087521E-03 -0.7068515E-03  0.5522266E+05  0.1442417E+01
  0.7619048E+00 -0.6978080E+04  0.2507119E+02 -0.3564834E-02 -0.1786232E-02  0.5521744E+05  0.2222145E+01
  0.7928572E+00 -0.6913819E+04  0.3528909E+02 -0.2347929E-02 -0.1984894E-02  0.5519197E+05  0.3382655E+01
  0.8238096E+00 -0.6839318E+04  0.4890111E+02 -0.3593312E-02 -0.1983285E-02  0.5521766E+05  0.5014222E+01
  0.8547620E+00 -0.6754774E+04  0.6667994E+02 -0.9104269E-02 -0.4453540E-02  0.5528940E+05  0.7212640E+01
  0.8857143E+00 -0.6627389E+04  0.8969346E+02 -0.6994432E-02 -0.4697442E-02  0.5538430E+05  0.1021534E+02
  0.9166667E+00 -0.6472375E+04  0.1192325E+03 -0.2197266E-02 -0.2722740E-02  0.5547857E+05  0.1436785E+02
  0.9476191E+00 -0.6323954E+04  0.1569571E+03 -0.1610224E-02 -0.2277851E-02  0.5552454E+05  0.2010397E+02
  0.9785714E+00 -0.6221105E+04  0.2047959E+03 -0.7921205E-02 -0.6721735E-02  0.5551709E+05  0.2791845E+02
  0.1009524E+01 -0.6115800E+04  0.2644902E+03  0.2690441E-02  0.9388924E-03  0.5551964E+05  0.3839444E+02
  0.1040476E+01 -0.5994825E+04  0.3378770E+03 -0.1701163E-02 -0.1406193E-02  0.5557659E+05  0.5168901E+02
  0.1071429E+01 -0.5827292E+04  0.4262781E+03  0.3389486E-02  0.9908676E-03  0.5571768E+05  0.6814153E+02
  0.1102381E+01 -0.5649812E+04  0.5330574E+03  0.3266633E-02  0.1455307E-02  0.5581682E+05  0.8864075E+02
  0.1133333E+01 -0.5476208E+04  0.6609339E+03  0.5196964E-02  0.2412796E-02  0.5591300E+05  0.1144750E+03
  0.1164286E+01 -0.5289095E+04  0.8127137E+03  0.4875323E-02  0.2898216E-02  0.5600782E+05  0.1472427E+03
  0.1195238E+01 -0.5119890E+04  0.9931432E+03  0.3574569E-03 -0.8754730E-03  0.5605743E+05  0.1886296E+03
  0.1226190E+01 -0.4945361E+04  0.1203717E+04  0.1393735E-02 -0.6370544E-03  0.5613838E+05  0.2407027E+03
  0.1257143E+01 -0.4792923E+04  0.1453058E+04  0.6311590E-02  0.5884171E-02  0.5618978E+05  0.3062562E+03
  0.1288095E+01 -0.4646811E+04  0.1734365E+04 -0.2843042E-03 -0.1926422E-02  0.5625023E+05  0.3833749E+03
  0.1319048E+01 -0.4497103E+04  0.2054091E+04  0.8976795E-02  0.7465363E-02  0.5635580E+05  0.4732445E+03
  0.1350000E+01 -0.4355318E+04  0.2413066E+04  0.3526476E-02  0.7934570E-03  0.5647518E+05  0.5765858E+03
  0.1380952E+01 -0.4209411E+04  0.2814701E+04  0.8839574E-03 -0.1003265E-02  0.5658544E+05  0.6953688E+03
  0.1411905E+01 -0.5172899E+04  0.2789193E+04  0.6354655E-02  0.8388519E-02  0.5604602E+05  0.7104971E+03
  0.1442857E+01 -0.5044473E+04  0.3228173E+04  0.9729366E-03 -0.2807617E-02  0.5614996E+05  0.8524550E+03
  0.1473810E+01 -0.4940596E+04  0.3714668E+04  0.2898923E-03 -0.7438660E-02  0.5620155E+05  0.1015603E+04
  0.1504762E+01 -0.4872746E+04  0.4240807E+04  0.1987505E-02  0.3242493E-02  0.5626344E+05  0.1198591E+04
  0.1535714E+01 -0.4807585E+04  0.4802802E+04  0.3417969E-02  0.4562378E-02  0.5632791E+05  0.1401359E+04
  0.1566667E+01 -0.4769515E+04  0.5403436E+04  0.5376288E-02  0.6240845E-02  0.5640391E+05  0.1624288E+04
  0.1597619E+01 -0.4738802E+04  0.6039333E+04  0.1833784E-02 -0.3814697E-04  0.5647565E+05  0.1869530E+04
  0.1628572E+01 -0.4726031E+04  0.6701575E+04  0.1873886E-03 -0.1000977E-01  0.5657263E+05  0.2140404E+04
  0.1659524E+01 -0.4732426E+04  0.7391464E+04  0.4303110E-02  0.4257202E-02  0.5667544E+05  0.2432994E+04
  0.1690476E+01 -0.4768473E+04  0.8114767E+04  0.3971583E-02  0.8438110E-02  0.5671937E+05  0.2746315E+04
  0.1721429E+01 -0.4849942E+04  0.8855738E+04 -0.1063683E-02 -0.1020813E-01  0.5676305E+05  0.3080837E+04
  0.1752381E+01 -0.4945702E+04  0.9610095E+04  0.2716728E-02 -0.1770020E-02  0.5679589E+05  0.3435951E+04
  0.1783333E+01 -0.5067274E+04  0.1037318E+05  0.4894221E-02  0.2288818E-02  0.5682420E+05  0.3813306E+04
  0.1814286E+01 -0.5217164E+04  0.1114931E+05  0.4407027E-02  0.1472473E-01  0.5683296E+05  0.4208739E+04
  0.1845238E+01 -0.5377438E+04  0.1192567E+05  0.3473097E-02  0.4135132E-02  0.5683336E+05  0.4615925E+04
  0.1876190E+01 -0.5559127E+04  0.1268804E+05  0.1626572E-02 -0.1007080E-02  0.5683443E+05  0.5039063E+04
  0.1907143E+01 -0.5754479E+04  0.1343963E+05  0.4224456E-02 -0.1831055E-02  0.5683733E+05  0.5471535E+04
  0.1938095E+01 -0.5961703E+04  0.1419124E+05  0.1448648E-02 -0.4882812E-03  0.5680327E+05  0.5914507E+04
  0.1969048E+01 -0.6188195E+04  0.1493400E+05  0.4122641E-02  0.2716064E-02  0.5675233E+05  0.6360347E+04
  0.2000000E+01 -0.6438879E+04  0.1564590E+05  0.7934570E-03 -0.8728027E-02  0.5672177E+05  0.6822429E+04
