VARIABLES="w (rad/s)"
"abs(F   1   1)" "angle(F   1   1)"
"abs(F   1   2)" "angle(F   1   2)"
"abs(F   1   3)" "angle(F   1   3)"
Zone t="Diffraction force - beta =   0.000 deg",I=    64,F=POINT
  0.5000000E-01  0.5215785E+04 -0.1570796E+01  0.2447067E+06 -0.1677111E-04  0.1173275E+05  0.1570803E+01
  0.8095238E-01  0.8542325E+04 -0.1570796E+01  0.2440316E+06 -0.4507595E-04  0.1922297E+05  0.1570802E+01
  0.1119048E+00  0.1193272E+05 -0.1570792E+01  0.2430402E+06 -0.8937064E-04  0.2684178E+05  0.1570801E+01
  0.1428571E+00  0.1544756E+05 -0.1570786E+01  0.2417324E+06 -0.1529863E-03  0.3472125E+05  0.1570804E+01
  0.1738095E+00  0.1911084E+05 -0.1570778E+01  0.2401085E+06 -0.2407363E-03  0.4291230E+05  0.1570816E+01
  0.2047619E+00  0.2295912E+05 -0.1570766E+01  0.2381742E+06 -0.3599059E-03  0.5152407E+05  0.1570826E+01
  0.2357143E+00  0.2707290E+05 -0.1570753E+01  0.2359269E+06 -0.5209033E-03  0.6068569E+05  0.1570838E+01
  0.2666667E+00  0.3148252E+05 -0.1570734E+01  0.2333709E+06 -0.7359819E-03  0.7050255E+05  0.1570861E+01
  0.2976190E+00  0.3626082E+05 -0.1570703E+01  0.2305143E+06 -0.1027309E-02  0.8112581E+05  0.1570891E+01
  0.3285715E+00  0.4153694E+05 -0.1570654E+01  0.2273583E+06 -0.1415145E-02  0.9276618E+05  0.1570940E+01
  0.3595238E+00  0.4729915E+05 -0.1570582E+01  0.2239207E+06 -0.1934572E-02  0.1054656E+06  0.1571011E+01
  0.3904762E+00  0.5368232E+05 -0.1570476E+01  0.2202105E+06 -0.2621562E-02  0.1195132E+06  0.1571116E+01
  0.4214286E+00  0.6079013E+05 -0.1570320E+01  0.2162463E+06 -0.3498507E-02  0.1351157E+06  0.1571273E+01
  0.4523810E+00  0.6860988E+05 -0.1570088E+01  0.2120639E+06 -0.4635912E-02  0.1522021E+06  0.1571505E+01
  0.4833333E+00  0.7723592E+05 -0.1569766E+01  0.2076435E+06 -0.5986773E-02  0.1709658E+06  0.1571828E+01
  0.5142857E+00  0.8654963E+05 -0.1569313E+01  0.2030959E+06 -0.7639619E-02  0.1912166E+06  0.1572279E+01
  0.5452381E+00  0.9665518E+05 -0.1568707E+01  0.1983467E+06 -0.9556479E-02  0.2130129E+06  0.1572885E+01
  0.5761905E+00  0.1073196E+06 -0.1567914E+01  0.1934614E+06 -0.1173549E-01  0.2359431E+06  0.1573678E+01
  0.6071429E+00  0.1186834E+06 -0.1566878E+01  0.1884768E+06 -0.1425800E-01  0.2602318E+06  0.1574715E+01
  0.6380953E+00  0.1307599E+06 -0.1565572E+01  0.1833242E+06 -0.1702667E-01  0.2859298E+06  0.1576020E+01
  0.6690477E+00  0.1432479E+06 -0.1563935E+01  0.1781215E+06 -0.2011812E-01  0.3124096E+06  0.1577658E+01
  0.7000000E+00  0.1563794E+06 -0.1561895E+01  0.1728581E+06 -0.2357941E-01  0.3401320E+06  0.1579697E+01
  0.7309524E+00  0.1702621E+06 -0.1559401E+01  0.1674802E+06 -0.2735489E-01  0.3689529E+06  0.1582191E+01
  0.7619048E+00  0.1845040E+06 -0.1556369E+01  0.1620696E+06 -0.3148564E-01  0.3984760E+06  0.1585223E+01
  0.7928572E+00  0.1994107E+06 -0.1552713E+01  0.1566850E+06 -0.3600585E-01  0.4293682E+06  0.1588879E+01
  0.8238096E+00  0.2148350E+06 -0.1548347E+01  0.1512553E+06 -0.4091411E-01  0.4608212E+06  0.1593245E+01
  0.8547620E+00  0.2310273E+06 -0.1543170E+01  0.1457722E+06 -0.4622551E-01  0.4937944E+06  0.1598422E+01
  0.8857143E+00  0.2475235E+06 -0.1537076E+01  0.1403814E+06 -0.5191890E-01  0.5270533E+06  0.1604516E+01
  0.9166667E+00  0.2648416E+06 -0.1529940E+01  0.1350278E+06 -0.5805377E-01  0.5616504E+06  0.1611652E+01
  0.9476191E+00  0.2825748E+06 -0.1521650E+01  0.1296949E+06 -0.6462673E-01  0.5963979E+06  0.1619941E+01
  0.9785714E+00  0.3011791E+06 -0.1512072E+01  0.1243741E+06 -0.7168300E-01  0.6329492E+06  0.1629518E+01
  0.1009524E+01  0.3199616E+06 -0.1501083E+01  0.1191328E+06 -0.7917500E-01  0.6694262E+06  0.1640506E+01
  0.1040476E+01  0.3391513E+06 -0.1488553E+01  0.1140556E+06 -0.8709196E-01  0.7063651E+06  0.1653036E+01
  0.1071429E+01  0.3589403E+06 -0.1474328E+01  0.1090416E+06 -0.9553771E-01  0.7440981E+06  0.1667259E+01
  0.1102381E+01  0.3790833E+06 -0.1458301E+01  0.1040825E+06 -0.1045594E+00  0.7818245E+06  0.1683284E+01
  0.1133333E+01  0.3997765E+06 -0.1440286E+01  0.9919098E+05 -0.1142158E+00  0.8202162E+06  0.1701296E+01
  0.1164286E+01  0.4202024E+06 -0.1420263E+01  0.9443241E+05 -0.1243424E+00  0.8571468E+06  0.1721315E+01
  0.1195238E+01  0.4404362E+06 -0.1398083E+01  0.8988300E+05 -0.1348560E+00  0.8932481E+06  0.1743490E+01
  0.1226190E+01  0.4607015E+06 -0.1373685E+01  0.8543913E+05 -0.1460550E+00  0.9294151E+06  0.1767888E+01
  0.1257143E+01  0.4793722E+06 -0.1347507E+01  0.8109907E+05 -0.1580524E+00  0.9613658E+06  0.1794060E+01
  0.1288095E+01  0.4992640E+06 -0.1318454E+01  0.7685941E+05 -0.1707356E+00  0.9948083E+06  0.1823103E+01
  0.1319048E+01  0.5169792E+06 -0.1287772E+01  0.7272887E+05 -0.1844238E+00  0.1024100E+07  0.1853782E+01
  0.1350000E+01  0.5329972E+06 -0.1255297E+01  0.6880565E+05 -0.1983419E+00  0.1049008E+07  0.1886241E+01
  0.1380952E+01  0.5472975E+06 -0.1221150E+01  0.6507157E+05 -0.2127690E+00  0.1070138E+07  0.1920373E+01
  0.1411905E+01  0.5590964E+06 -0.1185420E+01  0.6148235E+05 -0.2279796E+00  0.1087277E+07  0.1956107E+01
  0.1442857E+01  0.5687862E+06 -0.1149088E+01  0.5801595E+05 -0.2442107E+00  0.1097775E+07  0.1992416E+01
  0.1473810E+01  0.5764369E+06 -0.1112159E+01  0.5468054E+05 -0.2614447E+00  0.1103823E+07  0.2029307E+01
  0.1504762E+01  0.5817321E+06 -0.1075005E+01  0.5147597E+05 -0.2798338E+00  0.1105754E+07  0.2066444E+01
  0.1535714E+01  0.5835498E+06 -0.1038524E+01  0.4839567E+05 -0.2995754E+00  0.1101178E+07  0.2102917E+01
  0.1566667E+01  0.5823221E+06 -0.1003377E+01  0.4555191E+05 -0.3184099E+00  0.1090082E+07  0.2137989E+01
  0.1597619E+01  0.5787336E+06 -0.9694433E+00  0.4286690E+05 -0.3381469E+00  0.1074834E+07  0.2171900E+01
  0.1628572E+01  0.5730412E+06 -0.9371645E+00  0.4032289E+05 -0.3586501E+00  0.1056328E+07  0.2204205E+01
  0.1659524E+01  0.5645859E+06 -0.9077979E+00  0.3790346E+05 -0.3802576E+00  0.1031928E+07  0.2233487E+01
  0.1690476E+01  0.5549085E+06 -0.8805370E+00  0.3561118E+05 -0.4027087E+00  0.1005262E+07  0.2260672E+01
  0.1721429E+01  0.5439794E+06 -0.8557238E+00  0.3345611E+05 -0.4258855E+00  0.9770098E+06  0.2285412E+01
  0.1752381E+01  0.5314947E+06 -0.8339784E+00  0.3142011E+05 -0.4498819E+00  0.9466096E+06  0.2307146E+01
  0.1783333E+01  0.5179918E+06 -0.8149790E+00  0.2950272E+05 -0.4740528E+00  0.9142685E+06  0.2326069E+01
  0.1814286E+01  0.5035118E+06 -0.7990668E+00  0.2772725E+05 -0.4964468E+00  0.8798682E+06  0.2341760E+01
  0.1845238E+01  0.4888102E+06 -0.7857363E+00  0.2607529E+05 -0.5178847E+00  0.8459694E+06  0.2355033E+01
  0.1876190E+01  0.4741276E+06 -0.7750794E+00  0.2451927E+05 -0.5387191E+00  0.8129815E+06  0.2365775E+01
  0.1907143E+01  0.4590900E+06 -0.7677759E+00  0.2304453E+05 -0.5596265E+00  0.7790657E+06  0.2372848E+01
  0.1938095E+01  0.4443598E+06 -0.7624244E+00  0.2164168E+05 -0.5802941E+00  0.7462100E+06  0.2377980E+01
  0.1969048E+01  0.4299842E+06 -0.7593528E+00  0.2031637E+05 -0.5995309E+00  0.7146918E+06  0.2380857E+01
  0.2000000E+01  0.4160789E+06 -0.7585837E+00  0.1905401E+05 -0.6179004E+00  0.6847288E+06  0.2381606E+01
