VARIABLES="w (rad/s)"
"abs(F   1   1)" "angle(F   1   1)"
"abs(F   1   2)" "angle(F   1   2)"
"abs(F   1   3)" "angle(F   1   3)"
Zone t="Diffraction force - beta =   0.000 deg",I=    64,F=POINT
  0.5000000E-01  0.7020431E+03 -0.1570846E+01  0.1815728E+06 -0.1242690E-04  0.1038123E+02 -0.1570690E+01
  0.8095238E-01  0.1145113E+04 -0.1570799E+01  0.1813495E+06 -0.3344927E-04  0.1692267E+02 -0.1570737E+01
  0.1119048E+00  0.1598679E+04 -0.1570787E+01  0.1810211E+06 -0.6647330E-04  0.2364612E+02 -0.1570754E+01
  0.1428571E+00  0.2070756E+04 -0.1570807E+01  0.1805873E+06 -0.1140974E-03  0.3068084E+02 -0.1570774E+01
  0.1738095E+00  0.2559574E+04 -0.1570790E+01  0.1800474E+06 -0.1802611E-03  0.3797939E+02 -0.1570769E+01
  0.2047619E+00  0.3079795E+04 -0.1570796E+01  0.1794005E+06 -0.2706040E-03  0.4578773E+02 -0.1570778E+01
  0.2357143E+00  0.3630872E+04 -0.1570796E+01  0.1786456E+06 -0.3935767E-03  0.5426462E+02 -0.1570771E+01
  0.2666667E+00  0.4223283E+04 -0.1570783E+01  0.1777809E+06 -0.5595741E-03  0.6329574E+02 -0.1570775E+01
  0.2976190E+00  0.4871801E+04 -0.1570784E+01  0.1768064E+06 -0.7858897E-03  0.7329973E+02 -0.1570766E+01
  0.3285715E+00  0.5580147E+04 -0.1570780E+01  0.1757199E+06 -0.1090881E-02  0.8450980E+02 -0.1570768E+01
  0.3595238E+00  0.6356103E+04 -0.1570765E+01  0.1745229E+06 -0.1502833E-02  0.9662805E+02 -0.1570760E+01
  0.3904762E+00  0.7220741E+04 -0.1570750E+01  0.1732140E+06 -0.2054527E-02  0.1103497E+03 -0.1570744E+01
  0.4214286E+00  0.8184517E+04 -0.1570728E+01  0.1718012E+06 -0.2768004E-02  0.1260621E+03 -0.1570715E+01
  0.4523810E+00  0.9235480E+04 -0.1570698E+01  0.1702830E+06 -0.3698868E-02  0.1434871E+03 -0.1570691E+01
  0.4833333E+00  0.1038946E+05 -0.1570653E+01  0.1686676E+06 -0.4828305E-02  0.1623107E+03 -0.1570640E+01
  0.5142857E+00  0.1165377E+05 -0.1570588E+01  0.1669624E+06 -0.6220961E-02  0.1838840E+03 -0.1570580E+01
  0.5452381E+00  0.1301515E+05 -0.1570502E+01  0.1651670E+06 -0.7862858E-02  0.2077783E+03 -0.1570499E+01
  0.5761905E+00  0.1444188E+05 -0.1570391E+01  0.1632892E+06 -0.9763394E-02  0.2312246E+03 -0.1570385E+01
  0.6071429E+00  0.1595407E+05 -0.1570245E+01  0.1613334E+06 -0.1197943E-01  0.2580190E+03 -0.1570240E+01
  0.6380953E+00  0.1756209E+05 -0.1570062E+01  0.1592952E+06 -0.1446696E-01  0.2871016E+03 -0.1570056E+01
  0.6690477E+00  0.1924307E+05 -0.1569830E+01  0.1571905E+06 -0.1728509E-01  0.3179758E+03 -0.1569825E+01
  0.7000000E+00  0.2097975E+05 -0.1569542E+01  0.1550228E+06 -0.2046976E-01  0.3504568E+03 -0.1569537E+01
  0.7309524E+00  0.2276520E+05 -0.1569189E+01  0.1527844E+06 -0.2400400E-01  0.3831431E+03 -0.1569186E+01
  0.7619048E+00  0.2462280E+05 -0.1568763E+01  0.1504894E+06 -0.2792886E-01  0.4182161E+03 -0.1568760E+01
  0.7928572E+00  0.2655389E+05 -0.1568250E+01  0.1481492E+06 -0.3226864E-01  0.4567744E+03 -0.1568247E+01
  0.8238096E+00  0.2855619E+05 -0.1567640E+01  0.1457615E+06 -0.3703551E-01  0.4982144E+03 -0.1567637E+01
  0.8547620E+00  0.3061187E+05 -0.1566918E+01  0.1433331E+06 -0.4224286E-01  0.5408043E+03 -0.1566916E+01
  0.8857143E+00  0.3270257E+05 -0.1566071E+01  0.1408707E+06 -0.4790712E-01  0.5832606E+03 -0.1566069E+01
  0.9166667E+00  0.3481760E+05 -0.1565083E+01  0.1383788E+06 -0.5404340E-01  0.6275042E+03 -0.1565081E+01
  0.9476191E+00  0.3699945E+05 -0.1563945E+01  0.1358600E+06 -0.6066414E-01  0.6758690E+03 -0.1563943E+01
  0.9785714E+00  0.3924596E+05 -0.1562639E+01  0.1333232E+06 -0.6778150E-01  0.7264347E+03 -0.1562640E+01
  0.1009524E+01  0.4154423E+05 -0.1561151E+01  0.1307757E+06 -0.7540599E-01  0.7788128E+03 -0.1561153E+01
  0.1040476E+01  0.4387964E+05 -0.1559463E+01  0.1282241E+06 -0.8354743E-01  0.8344761E+03 -0.1559467E+01
  0.1071429E+01  0.4624916E+05 -0.1557560E+01  0.1256672E+06 -0.9220981E-01  0.8931975E+03 -0.1557564E+01
  0.1102381E+01  0.4863969E+05 -0.1555425E+01  0.1231061E+06 -0.1013964E+00  0.9528453E+03 -0.1555426E+01
  0.1133333E+01  0.5103411E+05 -0.1553044E+01  0.1205497E+06 -0.1111179E+00  0.1011508E+04 -0.1553037E+01
  0.1164286E+01  0.5343686E+05 -0.1550405E+01  0.1179980E+06 -0.1213807E+00  0.1071912E+04 -0.1550399E+01
  0.1195238E+01  0.5587032E+05 -0.1547504E+01  0.1154605E+06 -0.1321978E+00  0.1136556E+04 -0.1547504E+01
  0.1226190E+01  0.5832714E+05 -0.1544334E+01  0.1129369E+06 -0.1435687E+00  0.1205149E+04 -0.1544357E+01
  0.1257143E+01  0.6078505E+05 -0.1540879E+01  0.1104315E+06 -0.1556262E+00  0.1276481E+04 -0.1540909E+01
  0.1288095E+01  0.6328581E+05 -0.1537154E+01  0.1079466E+06 -0.1679692E+00  0.1349738E+04 -0.1537185E+01
  0.1319048E+01  0.6574945E+05 -0.1533130E+01  0.1054889E+06 -0.1810035E+00  0.1423827E+04 -0.1533167E+01
  0.1350000E+01  0.6818887E+05 -0.1528812E+01  0.1030568E+06 -0.1945872E+00  0.1499100E+04 -0.1528850E+01
  0.1380952E+01  0.7058206E+05 -0.1524201E+01  0.1006524E+06 -0.2087179E+00  0.1575279E+04 -0.1524220E+01
  0.1411905E+01  0.7276980E+05 -0.1519519E+01  0.9829898E+05 -0.2232760E+00  0.1640700E+04 -0.1519500E+01
  0.1442857E+01  0.7503970E+05 -0.1514379E+01  0.9594953E+05 -0.2385185E+00  0.1718054E+04 -0.1514314E+01
  0.1473810E+01  0.7725437E+05 -0.1509014E+01  0.9362772E+05 -0.2543196E+00  0.1796663E+04 -0.1508954E+01
  0.1504762E+01  0.7941407E+05 -0.1503467E+01  0.9134071E+05 -0.2706966E+00  0.1875648E+04 -0.1503417E+01
  0.1535714E+01  0.8149425E+05 -0.1497762E+01  0.8909091E+05 -0.2876442E+00  0.1953922E+04 -0.1497777E+01
  0.1566667E+01  0.8349342E+05 -0.1491938E+01  0.8687821E+05 -0.3051507E+00  0.2033210E+04 -0.1491970E+01
  0.1597619E+01  0.8538305E+05 -0.1486023E+01  0.8471050E+05 -0.3232346E+00  0.2113311E+04 -0.1486019E+01
  0.1628572E+01  0.8715792E+05 -0.1480067E+01  0.8257779E+05 -0.3418719E+00  0.2193351E+04 -0.1480029E+01
  0.1659524E+01  0.8881168E+05 -0.1474121E+01  0.8047952E+05 -0.3610650E+00  0.2273127E+04 -0.1474032E+01
  0.1690476E+01  0.9033373E+05 -0.1468266E+01  0.7841677E+05 -0.3808097E+00  0.2351895E+04 -0.1468201E+01
  0.1721429E+01  0.9172289E+05 -0.1462595E+01  0.7639314E+05 -0.4011239E+00  0.2427024E+04 -0.1462529E+01
  0.1752381E+01  0.9295855E+05 -0.1457167E+01  0.7441110E+05 -0.4219986E+00  0.2498911E+04 -0.1457151E+01
  0.1783333E+01  0.9404239E+05 -0.1452057E+01  0.7247026E+05 -0.4434350E+00  0.2567430E+04 -0.1452110E+01
  0.1814286E+01  0.9497348E+05 -0.1447334E+01  0.7056850E+05 -0.4654235E+00  0.2634156E+04 -0.1447362E+01
  0.1845238E+01  0.9573602E+05 -0.1443062E+01  0.6871326E+05 -0.4879796E+00  0.2699913E+04 -0.1442994E+01
  0.1876190E+01  0.9633711E+05 -0.1439322E+01  0.6689289E+05 -0.5110940E+00  0.2762984E+04 -0.1439222E+01
  0.1907143E+01  0.9678295E+05 -0.1436227E+01  0.6510955E+05 -0.5347759E+00  0.2824044E+04 -0.1436132E+01
  0.1938095E+01  0.9707175E+05 -0.1433848E+01  0.6336267E+05 -0.5590076E+00  0.2881650E+04 -0.1433730E+01
  0.1969048E+01  0.9720539E+05 -0.1432246E+01  0.6165310E+05 -0.5837837E+00  0.2934190E+04 -0.1432172E+01
  0.2000000E+01  0.9718773E+05 -0.1431482E+01  0.5998233E+05 -0.6091061E+00  0.2982464E+04 -0.1431444E+01
