VARIABLES="w (rad/s)"
"A   1   1" "B   1   1"
"A   1   2" "B   1   2"
"A   1   3" "B   1   3"
Zone t="Motion of body    1 in DoF   1",I=    64,F=POINT
  0.5000000E-01  0.8437070E+05  0.5598744E-02  0.2727509E-02  0.2648043E-04 -0.2838517E+06 -0.1929910E-01
  0.8095238E-01  0.8501755E+05  0.2421213E-01  0.1555050E-02  0.1991688E-04 -0.2855021E+06 -0.8298375E-01
  0.1119048E+00  0.8530908E+05  0.6754047E-01  0.3033902E-02  0.3264355E-04 -0.2859762E+06 -0.2307075E+00
  0.1428571E+00  0.8535028E+05  0.1515227E+00 -0.1428604E-02  0.2248801E-04 -0.2861355E+06 -0.5173801E+00
  0.1738095E+00  0.8547685E+05  0.3011694E+00 -0.5706369E-03  0.2237072E-04 -0.2864497E+06 -0.1027530E+01
  0.2047619E+00  0.8561601E+05  0.5545782E+00  0.3483794E-02  0.1136924E-03 -0.2866965E+06 -0.1889447E+01
  0.2357143E+00  0.8564534E+05  0.9716457E+00  0.3301447E-02  0.1017293E-03 -0.2868060E+06 -0.3306159E+01
  0.2666667E+00  0.8575604E+05  0.1649638E+01  0.1802444E-02  0.1226095E-03 -0.2871169E+06 -0.5604092E+01
  0.2976190E+00  0.8591624E+05  0.2753494E+01  0.1935425E-02  0.1096847E-03 -0.2874423E+06 -0.9334859E+01
  0.3285715E+00  0.8606116E+05  0.4529354E+01  0.7894764E-03  0.1595169E-03 -0.2877379E+06 -0.1531916E+02
  0.3595238E+00  0.8621272E+05  0.7390480E+01 -0.4244166E-04  0.1351982E-03 -0.2881502E+06 -0.2493981E+02
  0.3904762E+00  0.8641331E+05  0.1196496E+02  0.4884673E-02  0.4877709E-03 -0.2886935E+06 -0.4027574E+02
  0.4214286E+00  0.8660330E+05  0.1910618E+02  0.3240553E-02  0.4649013E-03 -0.2891192E+06 -0.6412548E+02
  0.4523810E+00  0.8689883E+05  0.3025241E+02 -0.1096223E-02 -0.1516938E-04 -0.2897918E+06 -0.1012180E+03
  0.4833333E+00  0.8711763E+05  0.4665820E+02  0.3078066E-02  0.6356984E-03 -0.2904516E+06 -0.1556275E+03
  0.5142857E+00  0.8743291E+05  0.7081111E+02  0.5785624E-03  0.6758273E-03 -0.2911962E+06 -0.2353552E+03
  0.5452381E+00  0.8775133E+05  0.1048475E+03  0.5009414E-02  0.1222849E-02 -0.2919271E+06 -0.3471487E+03
  0.5761905E+00  0.8807379E+05  0.1515013E+03 -0.4104740E-03  0.9977818E-04 -0.2927832E+06 -0.4996867E+03
  0.6071429E+00  0.8855173E+05  0.2150284E+03 -0.6283030E-03  0.3015995E-04 -0.2939832E+06 -0.7062247E+03
  0.6380953E+00  0.8890584E+05  0.2980891E+03  0.1733694E-02  0.1279235E-02 -0.2949496E+06 -0.9749103E+03
  0.6690477E+00  0.8934374E+05  0.4061499E+03 -0.2508740E-03  0.6008148E-03 -0.2960305E+06 -0.1322124E+04
  0.7000000E+00  0.8991650E+05  0.5453311E+03 -0.2179827E-02  0.1595020E-03 -0.2973623E+06 -0.1766065E+04
  0.7309524E+00  0.9036116E+05  0.7200526E+03  0.1461265E-02  0.3039837E-03 -0.2984683E+06 -0.2320144E+04
  0.7619048E+00  0.9091506E+05  0.9384703E+03 -0.9412764E-03  0.7126331E-03 -0.2999587E+06 -0.3008389E+04
  0.7928572E+00  0.9150385E+05  0.1208151E+04 -0.4041517E-03  0.1049995E-02 -0.3014020E+06 -0.3851117E+04
  0.8238096E+00  0.9216312E+05  0.1537814E+04  0.3519224E-03  0.4386902E-03 -0.3030015E+06 -0.4872883E+04
  0.8547620E+00  0.9270899E+05  0.1934718E+04 -0.3748816E-03  0.1606464E-02 -0.3042000E+06 -0.6092308E+04
  0.8857143E+00  0.9334727E+05  0.2410920E+04  0.1791677E-02  0.1809120E-02 -0.3056969E+06 -0.7543404E+04
  0.9166667E+00  0.9403905E+05  0.2976856E+04 -0.1831055E-03  0.7953644E-03 -0.3072135E+06 -0.9250200E+04
  0.9476191E+00  0.9477149E+05  0.3643896E+04 -0.1143259E-02  0.6656647E-03 -0.3089300E+06 -0.1124522E+05
  0.9785714E+00  0.9537275E+05  0.4419431E+04  0.4677877E-03  0.2136230E-02 -0.3102462E+06 -0.1354229E+05
  0.1009524E+01  0.9608275E+05  0.5320685E+04 -0.1828896E-02 -0.1964569E-03 -0.3118653E+06 -0.1618568E+05
  0.1040476E+01  0.9671073E+05  0.6353708E+04 -0.2933039E-04  0.5321503E-03 -0.3130275E+06 -0.1917453E+05
  0.1071429E+01  0.9743763E+05  0.7537597E+04 -0.1167806E-02  0.1510620E-02 -0.3143188E+06 -0.2255527E+05
  0.1102381E+01  0.9806860E+05  0.8877421E+04  0.5951916E-03  0.2634048E-02 -0.3154796E+06 -0.2634395E+05
  0.1133333E+01  0.9856814E+05  0.1037947E+05 -0.2558091E-03  0.3416061E-02 -0.3161626E+06 -0.3053287E+05
  0.1164286E+01  0.9915263E+05  0.1207007E+05 -0.3014313E-03  0.1502991E-02 -0.3171527E+06 -0.3519748E+05
  0.1195238E+01  0.9957670E+05  0.1393825E+05 -0.9830064E-03  0.1770020E-02 -0.3175333E+06 -0.4026752E+05
  0.1226190E+01  0.1000449E+06  0.1601025E+05 -0.6719793E-03  0.2059937E-03 -0.3179779E+06 -0.4581083E+05
  0.1257143E+01  0.1003334E+06  0.1826167E+05 -0.1844926E-02 -0.6065369E-03 -0.3180471E+06 -0.5175821E+05
  0.1288095E+01  0.1005799E+06  0.2071868E+05 -0.1255677E-02  0.2063751E-02 -0.3177059E+06 -0.5810618E+05
  0.1319048E+01  0.1006637E+06  0.2335953E+05 -0.2776328E-03  0.1724243E-02 -0.3170067E+06 -0.6482970E+05
  0.1350000E+01  0.1006911E+06  0.2620097E+05 -0.1491970E-02  0.3967285E-03 -0.3161287E+06 -0.7193739E+05
  0.1380952E+01  0.1005165E+06  0.2920805E+05  0.3314840E-03  0.6256104E-03 -0.3146009E+06 -0.7928296E+05
  0.1411905E+01  0.1001109E+06  0.3235127E+05 -0.2982797E-02 -0.7324219E-03 -0.3127355E+06 -0.8686497E+05
  0.1442857E+01  0.9974795E+05  0.3570138E+05 -0.1057540E-02  0.1815796E-02 -0.3107728E+06 -0.9473611E+05
  0.1473810E+01  0.9915698E+05  0.3916635E+05  0.1097450E-02 -0.1098633E-02 -0.3082695E+06 -0.1026894E+06
  0.1504762E+01  0.9831490E+05  0.4270027E+05 -0.1399366E-02  0.3585815E-03 -0.3050970E+06 -0.1105588E+06
  0.1535714E+01  0.9742338E+05  0.4636757E+05 -0.3378225E-03  0.1983643E-03 -0.3019883E+06 -0.1185985E+06
  0.1566667E+01  0.9634368E+05  0.5005733E+05 -0.1597303E-02  0.4501343E-03 -0.2984000E+06 -0.1264204E+06
  0.1597619E+01  0.9507761E+05  0.5371108E+05 -0.8786879E-03 -0.3356934E-03 -0.2943032E+06 -0.1338232E+06
  0.1628572E+01  0.9371625E+05  0.5734657E+05  0.2436052E-03  0.5569458E-03 -0.2900186E+06 -0.1409066E+06
  0.1659524E+01  0.9226455E+05  0.6094746E+05 -0.1213698E-02 -0.3280640E-03 -0.2856514E+06 -0.1476670E+06
  0.1690476E+01  0.9060386E+05  0.6440454E+05  0.8123693E-03 -0.4501343E-03 -0.2809710E+06 -0.1538855E+06
  0.1721429E+01  0.8871756E+05  0.6759377E+05 -0.7091222E-04  0.6179810E-03 -0.2757016E+06 -0.1590337E+06
  0.1752381E+01  0.8679921E+05  0.7067944E+05  0.7662566E-03 -0.5264282E-03 -0.2706187E+06 -0.1638615E+06
  0.1783333E+01  0.8486874E+05  0.7363062E+05 -0.7700697E-03 -0.1113892E-02 -0.2657160E+06 -0.1682453E+06
  0.1814286E+01  0.8279548E+05  0.7621871E+05  0.8410357E-03 -0.9918213E-03 -0.2605175E+06 -0.1714579E+06
  0.1845238E+01  0.8071500E+05  0.7854352E+05  0.1339623E-02 -0.2288818E-03 -0.2554233E+06 -0.1738606E+06
  0.1876190E+01  0.7865783E+05  0.8061163E+05 -0.6018314E-03 -0.7019043E-03 -0.2505151E+06 -0.1755342E+06
  0.1907143E+01  0.7664968E+05  0.8244605E+05 -0.1824197E-02 -0.2288818E-03 -0.2458778E+06 -0.1765579E+06
  0.1938095E+01  0.7458773E+05  0.8391567E+05  0.1763571E-02  0.5340576E-04 -0.2413683E+06 -0.1768244E+06
  0.1969048E+01  0.7253474E+05  0.8499973E+05 -0.1394878E-02  0.1564026E-03 -0.2369561E+06 -0.1760204E+06
  0.2000000E+01  0.7048163E+05  0.8568096E+05  0.3662109E-03 -0.7743835E-03 -0.2326516E+06 -0.1742159E+06
Zone t="Motion of body    1 in DoF   2",I=    64,F=POINT
  0.5000000E-01  0.6675720E-03  0.2741814E-05  0.1942283E+05  0.2234001E+02 -0.1235962E-01 -0.1764297E-04
  0.8095238E-01 -0.2898048E-02 -0.2145767E-04  0.1927888E+05  0.3692757E+02  0.9330301E-02  0.4887581E-04
  0.1119048E+00  0.5454206E-03  0.3814697E-05  0.1921979E+05  0.5263335E+02 -0.7226822E-02 -0.6866455E-04
  0.1428571E+00  0.4806518E-03 -0.2646446E-04  0.1917262E+05  0.6999805E+02 -0.5340576E-03 -0.1523495E-03
  0.1738095E+00 -0.1646068E-03  0.2622604E-04  0.1914544E+05  0.8957403E+02  0.1290517E-01 -0.1001358E-04
  0.2047619E+00 -0.1676692E-03 -0.3051758E-04  0.1915073E+05  0.1122726E+03  0.4918298E-02 -0.1349449E-03
  0.2357143E+00 -0.3414732E-02 -0.5722046E-04  0.1912593E+05  0.1391171E+03  0.7768110E-02 -0.5674362E-04
  0.2666667E+00 -0.9441375E-03  0.9155273E-04  0.1913699E+05  0.1707818E+03 -0.6179809E-02  0.1564026E-03
  0.2976190E+00 -0.1102295E-02 -0.1268387E-03  0.1912933E+05  0.2095766E+03  0.7690430E-02 -0.2365112E-03
  0.3285715E+00  0.1973691E-03 -0.1735687E-03  0.1914541E+05  0.2558660E+03  0.1300314E-02  0.6484985E-04
  0.3595238E+00  0.1379354E-02  0.4005432E-04  0.1912644E+05  0.3121745E+03  0.4923233E-02 -0.3166199E-03
  0.3904762E+00  0.1367708E-02 -0.1335144E-04  0.1914468E+05  0.3793419E+03 -0.4220357E-02 -0.1220703E-03
  0.4214286E+00  0.5974203E-03  0.1525879E-03  0.1908672E+05  0.4556497E+03  0.6806971E-02  0.2403259E-03
  0.4523810E+00 -0.1787687E-02  0.2632141E-03  0.1907365E+05  0.5455874E+03  0.9444387E-03 -0.3547668E-03
  0.4833333E+00  0.1089162E-02 -0.2784729E-03  0.1897996E+05  0.6373966E+03 -0.3977808E-02  0.2174377E-03
  0.5142857E+00  0.2136231E-02  0.1144409E-03  0.1889686E+05  0.7375760E+03  0.1044379E-01 -0.5455017E-03
  0.5452381E+00 -0.1553198E-02  0.3433228E-04  0.1880708E+05  0.8373353E+03 -0.3638122E-02 -0.5645752E-03
  0.5761905E+00 -0.2913041E-03  0.1144409E-04  0.1867061E+05  0.9337100E+03  0.1387667E-01 -0.1411438E-02
  0.6071429E+00 -0.1759248E-02 -0.2288818E-04  0.1856809E+05  0.1031073E+04  0.4222196E-02 -0.1262665E-02
  0.6380953E+00 -0.9206515E-03 -0.6332397E-03  0.1842939E+05  0.1117612E+04  0.2295651E-02 -0.2719879E-02
  0.6690477E+00  0.5359582E-03  0.7705688E-03  0.1827970E+05  0.1198787E+04  0.4561346E-03 -0.8392334E-03
  0.7000000E+00  0.9264264E-03  0.4196167E-03  0.1816494E+05  0.1275047E+04 -0.3487723E-03  0.1281738E-02
  0.7309524E+00  0.5949436E-03 -0.2136230E-03  0.1802584E+05  0.1339282E+04  0.1419515E-02 -0.1319885E-02
  0.7619048E+00 -0.5807876E-03  0.1525879E-04  0.1787205E+05  0.1394521E+04 -0.6969451E-02 -0.2059937E-02
  0.7928572E+00  0.2886798E-03 -0.2975464E-03  0.1774861E+05  0.1441083E+04 -0.3849063E-03  0.5798340E-03
  0.8238096E+00  0.2593112E-03  0.1373291E-03  0.1766755E+05  0.1478839E+04 -0.6001202E-02  0.1655579E-02
  0.8547620E+00 -0.1963666E-03 -0.5187988E-03  0.1750614E+05  0.1499592E+04 -0.4498580E-02 -0.3967285E-03
  0.8857143E+00 -0.1360986E-02  0.1113892E-02  0.1737621E+05  0.1511873E+04  0.1516034E-02 -0.1937866E-02
  0.9166667E+00  0.1231800E-02  0.6408691E-03  0.1728573E+05  0.1515700E+04 -0.1664595E-02  0.6591797E-02
  0.9476191E+00 -0.9057510E-03  0.1068115E-03  0.1723461E+05  0.1513789E+04 -0.1932269E-02 -0.7934570E-03
  0.9785714E+00 -0.8537126E-03  0.4119873E-03  0.1710996E+05  0.1487577E+04 -0.1247434E-03 -0.3044128E-02
  0.1009524E+01 -0.7632994E-03  0.1983643E-03  0.1701075E+05  0.1455859E+04 -0.8464310E-03 -0.3982544E-02
  0.1040476E+01  0.5059493E-03 -0.1754761E-02  0.1693991E+05  0.1419521E+04  0.0000000E+00  0.2899170E-03
  0.1071429E+01  0.3649394E-03 -0.1220703E-02  0.1690219E+05  0.1381781E+04  0.4842123E-02 -0.2990723E-02
  0.1102381E+01  0.6038427E-03  0.2746582E-03  0.1688505E+05  0.1341309E+04 -0.3377366E-02 -0.2784729E-02
  0.1133333E+01 -0.2852608E-03  0.1068115E-02  0.1680563E+05  0.1266967E+04 -0.1507927E-02 -0.2044678E-02
  0.1164286E+01  0.3621476E-03 -0.2746582E-03  0.1675442E+05  0.1196933E+04 -0.2673564E-02  0.1121521E-02
  0.1195238E+01  0.5545369E-03 -0.0000000E+00  0.1672580E+05  0.1130102E+04 -0.2961786E-02 -0.1331329E-02
  0.1226190E+01 -0.1326848E-02  0.1525879E-03  0.1672335E+05  0.1071573E+04  0.8262857E-02  0.1335144E-03
  0.1257143E+01 -0.5522641E-03  0.8697510E-03  0.1674714E+05  0.1027277E+04  0.7088401E-02 -0.1644135E-02
  0.1288095E+01 -0.7462986E-03 -0.3662109E-03  0.1672873E+05  0.9398264E+03  0.5496548E-02 -0.1674652E-02
  0.1319048E+01 -0.8589266E-03 -0.7781982E-03  0.1671244E+05  0.8508684E+03 -0.8328985E-03  0.1567841E-02
  0.1350000E+01 -0.1336557E-02  0.1220703E-03  0.1670772E+05  0.7695905E+03  0.5334925E-02 -0.3932953E-02
  0.1380952E+01 -0.1149145E-02 -0.1266479E-02  0.1671681E+05  0.7003622E+03  0.4066204E-02  0.2140045E-02
  0.1411905E+01 -0.3674460E-03  0.1525879E-04  0.1674043E+05  0.6489419E+03  0.2939568E-02 -0.8087158E-03
  0.1442857E+01 -0.1348363E-02 -0.1220703E-03  0.1677865E+05  0.6188552E+03  0.2199683E-02 -0.6523132E-03
  0.1473810E+01 -0.7247308E-03 -0.1098633E-02  0.1681029E+05  0.5746140E+03  0.1822180E-02  0.9117126E-03
  0.1504762E+01 -0.9633318E-04  0.2136230E-03  0.1681599E+05  0.4764661E+03  0.2920416E-02 -0.9155273E-03
  0.1535714E+01 -0.1286706E-02 -0.3204346E-03  0.1682916E+05  0.3995869E+03  0.4451308E-02 -0.2309799E-02
  0.1566667E+01 -0.4139352E-03 -0.1144409E-02  0.1685077E+05  0.3414064E+03  0.8570894E-03  0.3011703E-02
  0.1597619E+01 -0.4393440E-03 -0.5340576E-03  0.1687509E+05  0.2965090E+03  0.1069707E-02 -0.1462936E-02
  0.1628572E+01  0.1545956E-03 -0.1586914E-02  0.1690522E+05  0.2723907E+03  0.8994654E-03  0.1206398E-02
  0.1659524E+01  0.1701016E-03 -0.1663208E-02  0.1693790E+05  0.2686442E+03 -0.5149020E-03  0.1312256E-02
  0.1690476E+01 -0.6228164E-03 -0.4653931E-03  0.1697317E+05  0.2882313E+03  0.1516423E-02  0.1344681E-02
  0.1721429E+01  0.6160499E-03 -0.9155273E-04  0.1699284E+05  0.1998658E+03 -0.6665749E-02  0.1788139E-02
  0.1752381E+01 -0.1240813E-02 -0.4730225E-03  0.1701641E+05  0.1501424E+03  0.9752357E-03  0.1039505E-03
  0.1783333E+01  0.1839611E-03 -0.7705688E-03  0.1703744E+05  0.1060907E+03 -0.3901687E-02 -0.3013611E-03
  0.1814286E+01 -0.3952868E-03 -0.6027222E-03  0.1705960E+05  0.7933430E+02  0.2153051E-02  0.1131535E-02
  0.1845238E+01 -0.4051947E-03 -0.9231567E-03  0.1707995E+05  0.6157901E+02  0.6020035E-02  0.1750231E-02
  0.1876190E+01  0.7197579E-03  0.5035400E-03  0.1710005E+05  0.6054079E+02 -0.2667577E-02 -0.1183033E-02
  0.1907143E+01 -0.4760514E-03 -0.4119873E-03  0.1711777E+05  0.6984522E+02 -0.1664180E-02  0.5717278E-03
  0.1938095E+01  0.4763217E-03 -0.6332397E-03  0.1713264E+05  0.9575186E+02 -0.4282958E-02  0.5340576E-03
  0.1969048E+01 -0.1976078E-03 -0.5798340E-03  0.1715226E+05  0.7942621E+02  0.3657681E-02  0.4787445E-03
  0.2000000E+01 -0.2098083E-03 -0.1068115E-02  0.1717436E+05  0.4341457E+02  0.1342773E-02  0.1335621E-02
Zone t="Motion of body    1 in DoF   3",I=    64,F=POINT
  0.5000000E-01 -0.2836954E+06 -0.1917397E-01 -0.2174377E-02 -0.7254284E-04  0.1180327E+07  0.6617781E-01
  0.8095238E-01 -0.2853763E+06 -0.8276146E-01  0.1884909E-03 -0.8537417E-04  0.1183845E+07  0.2834044E+00
  0.1119048E+00 -0.2858917E+06 -0.2303440E+00 -0.3067991E-02 -0.1132918E-03  0.1184618E+07  0.7865857E+00
  0.1428571E+00 -0.2860419E+06 -0.5164835E+00  0.1655578E-02 -0.6607058E-04  0.1185146E+07  0.1763734E+01
  0.1738095E+00 -0.2863577E+06 -0.1025847E+01  0.8340077E-03 -0.2160962E-03  0.1185863E+07  0.3500396E+01
  0.2047619E+00 -0.2866164E+06 -0.1886312E+01 -0.4098582E-02 -0.2141949E-03  0.1186420E+07  0.6426538E+01
  0.2357143E+00 -0.2867206E+06 -0.3300726E+01 -0.5890817E-02 -0.2009124E-03  0.1186827E+07  0.1123121E+02
  0.2666667E+00 -0.2870166E+06 -0.5593970E+01 -0.1487732E-01 -0.7106718E-03  0.1187571E+07  0.1900409E+02
  0.2976190E+00 -0.2873601E+06 -0.9319559E+01 -0.6101074E-02 -0.6515495E-03  0.1188444E+07  0.3159333E+02
  0.3285715E+00 -0.2876519E+06 -0.1529533E+02  0.3668743E-02 -0.4886165E-03  0.1189112E+07  0.5172753E+02
  0.3595238E+00 -0.2880697E+06 -0.2489885E+02  0.2992137E-01  0.8514971E-03  0.1190321E+07  0.8401806E+02
  0.3904762E+00 -0.2886057E+06 -0.4020906E+02  0.6838542E-02 -0.8152872E-03  0.1191645E+07  0.1353491E+03
  0.4214286E+00 -0.2890336E+06 -0.6401866E+02 -0.1665535E-02 -0.6136000E-03  0.1192794E+07  0.2148599E+03
  0.4523810E+00 -0.2897166E+06 -0.1010706E+03 -0.1261500E-01 -0.1718581E-02  0.1194483E+07  0.3381768E+03
  0.4833333E+00 -0.2903599E+06 -0.1553600E+03 -0.6566541E-02 -0.2075791E-02  0.1196328E+07  0.5182007E+03
  0.5142857E+00 -0.2911110E+06 -0.2349762E+03 -0.1186795E-02 -0.2253652E-02  0.1198245E+07  0.7809817E+03
  0.5452381E+00 -0.2918374E+06 -0.3466289E+03 -0.1483234E-01 -0.4082918E-02  0.1200104E+07  0.1147690E+04
  0.5761905E+00 -0.2926981E+06 -0.4988815E+03 -0.6620548E-02 -0.5030632E-03  0.1202492E+07  0.1645417E+04
  0.6071429E+00 -0.2939005E+06 -0.7051867E+03  0.1558191E-01  0.1668930E-02  0.1205504E+07  0.2316175E+04
  0.6380953E+00 -0.2948440E+06 -0.9732848E+03 -0.2482172E-01 -0.7635593E-02  0.1208156E+07  0.3183155E+04
  0.6690477E+00 -0.2959349E+06 -0.1319919E+04  0.1423140E-01  0.1465797E-02  0.1210998E+07  0.4296660E+04
  0.7000000E+00 -0.2972770E+06 -0.1763619E+04  0.1041957E-01 -0.8640289E-03  0.1214247E+07  0.5711585E+04
  0.7309524E+00 -0.2983652E+06 -0.2316696E+04  0.3340034E-02 -0.1996994E-02  0.1217179E+07  0.7464779E+04
  0.7619048E+00 -0.2998500E+06 -0.3003255E+04  0.9412765E-02 -0.3668785E-02  0.1221072E+07  0.9627269E+04
  0.7928572E+00 -0.3012959E+06 -0.3844702E+04  0.2501891E-02 -0.3014565E-02  0.1224692E+07  0.1225533E+05
  0.8238096E+00 -0.3028911E+06 -0.4864892E+04 -0.3037645E-02 -0.8260727E-02  0.1228574E+07  0.1541518E+05
  0.8547620E+00 -0.3040808E+06 -0.6082591E+04 -0.3070459E-02 -0.7343292E-02  0.1231396E+07  0.1915341E+05
  0.8857143E+00 -0.3055808E+06 -0.7530923E+04 -0.1012987E-01 -0.8785248E-02  0.1234923E+07  0.2356274E+05
  0.9166667E+00 -0.3071068E+06 -0.9236466E+04  0.1138583E-01  0.2250671E-02  0.1238392E+07  0.2870069E+05
  0.9476191E+00 -0.3088149E+06 -0.1122773E+05 -0.4959490E-02 -0.8163452E-02  0.1242270E+07  0.3464809E+05
  0.9785714E+00 -0.3101040E+06 -0.1351945E+05 -0.2120638E-02 -0.5496979E-02  0.1244996E+07  0.4142567E+05
  0.1009524E+01 -0.3117181E+06 -0.1615487E+05  0.1801689E-01  0.3181458E-02  0.1248396E+07  0.4914141E+05
  0.1040476E+01 -0.3128918E+06 -0.1914035E+05 -0.2991700E-02 -0.6767273E-02  0.1250566E+07  0.5776014E+05
  0.1071429E+01 -0.3141881E+06 -0.2252090E+05  0.4614258E-02 -0.3585815E-03  0.1252492E+07  0.6738666E+05
  0.1102381E+01 -0.3153441E+06 -0.2630162E+05 -0.5868866E-02 -0.9666443E-02  0.1254353E+07  0.7804376E+05
  0.1133333E+01 -0.3160101E+06 -0.3048340E+05  0.7808910E-02 -0.1945496E-02  0.1254740E+07  0.8966438E+05
  0.1164286E+01 -0.3169940E+06 -0.3513220E+05  0.7391619E-02 -0.3730774E-02  0.1255761E+07  0.1024370E+06
  0.1195238E+01 -0.3173808E+06 -0.4019461E+05 -0.7353399E-02 -0.1357269E-01  0.1255170E+07  0.1161088E+06
  0.1226190E+01 -0.3178257E+06 -0.4573119E+05 -0.4678967E-02 -0.3089905E-02  0.1254402E+07  0.1308379E+06
  0.1257143E+01 -0.3178798E+06 -0.5165579E+05  0.9030429E-02 -0.9307861E-03  0.1252677E+07  0.1463781E+06
  0.1288095E+01 -0.3175290E+06 -0.5799379E+05 -0.1611057E-02 -0.2136230E-02  0.1249553E+07  0.1626037E+06
  0.1319048E+01 -0.3168270E+06 -0.6470196E+05  0.5228751E-02 -0.4180908E-02  0.1245752E+07  0.1795253E+06
  0.1350000E+01 -0.3159482E+06 -0.7178598E+05  0.1175492E-01 -0.3341675E-02  0.1241219E+07  0.1970416E+06
  0.1380952E+01 -0.3144368E+06 -0.7912701E+05 -0.1546926E-02 -0.1449585E-02  0.1235127E+07  0.2147198E+06
  0.1411905E+01 -0.3125275E+06 -0.8664304E+05  0.3415087E-02  0.2563477E-02  0.1228246E+07  0.2325768E+06
  0.1442857E+01 -0.3105552E+06 -0.9448109E+05  0.5499207E-03  0.2441406E-02  0.1220820E+07  0.2505948E+06
  0.1473810E+01 -0.3080508E+06 -0.1024017E+06  0.9028075E-02  0.3326416E-02  0.1212407E+07  0.2683359E+06
  0.1504762E+01 -0.3048624E+06 -0.1102394E+06  0.6976550E-02 -0.1281738E-02  0.1202316E+07  0.2852630E+06
  0.1535714E+01 -0.3017710E+06 -0.1182325E+06  0.7153888E-02 -0.3860474E-02  0.1192688E+07  0.3021933E+06
  0.1566667E+01 -0.2981933E+06 -0.1260080E+06  0.4830868E-02 -0.2212524E-02  0.1181956E+07  0.3180041E+06
  0.1597619E+01 -0.2941226E+06 -0.1334011E+06  0.7411542E-02 -0.1190186E-02  0.1170259E+07  0.3321058E+06
  0.1628572E+01 -0.2898438E+06 -0.1404592E+06  0.4872104E-02 -0.1617432E-02  0.1158192E+07  0.3448560E+06
  0.1659524E+01 -0.2854743E+06 -0.1471651E+06  0.3972101E-02  0.1419067E-02  0.1145974E+07  0.3561086E+06
  0.1690476E+01 -0.2808145E+06 -0.1533495E+06 -0.1223970E-01 -0.8392334E-03  0.1133954E+07  0.3659411E+06
  0.1721429E+01 -0.2755381E+06 -0.1584556E+06 -0.1701893E-02  0.1342773E-02  0.1120251E+07  0.3721622E+06
  0.1752381E+01 -0.2704736E+06 -0.1632609E+06 -0.7035629E-02 -0.1480103E-02  0.1107806E+07  0.3778537E+06
  0.1783333E+01 -0.2656047E+06 -0.1675890E+06 -0.1163661E-02  0.3356934E-03  0.1095953E+07  0.3820603E+06
  0.1814286E+01 -0.2604305E+06 -0.1707787E+06 -0.5046214E-03 -0.3967285E-03  0.1083833E+07  0.3832748E+06
  0.1845238E+01 -0.2553653E+06 -0.1732048E+06 -0.1131237E-01 -0.1373291E-02  0.1072421E+07  0.3824544E+06
  0.1876190E+01 -0.2504712E+06 -0.1748658E+06  0.5888189E-02  0.1617432E-02  0.1061639E+07  0.3798780E+06
  0.1907143E+01 -0.2458421E+06 -0.1758239E+06  0.1433755E-01  0.3204346E-03  0.1051476E+07  0.3751531E+06
  0.1938095E+01 -0.2413618E+06 -0.1760746E+06 -0.2519387E-02 -0.9918213E-03  0.1042476E+07  0.3695487E+06
  0.1969048E+01 -0.2369649E+06 -0.1752387E+06  0.1078706E-01  0.2288818E-03  0.1033799E+07  0.3611806E+06
  0.2000000E+01 -0.2326616E+06 -0.1734019E+06  0.5004883E-02  0.2975464E-03  0.1025580E+07  0.3506387E+06
