VARIABLES="w (rad/s)"
"abs(F   1   1)" "angle(F   1   1)"
"abs(F   1   2)" "angle(F   1   2)"
"abs(F   1   3)" "angle(F   1   3)"
Zone t="Diffraction force - beta =   0.000 deg",I=    64,F=POINT
  0.5000000E-01  0.1755691E+04 -0.1570804E+01  0.4118812E+06 -0.3058418E-04  0.4122231E+04 -0.1570791E+01
  0.8095238E-01  0.2862788E+04 -0.1570799E+01  0.4111471E+06 -0.8228541E-04  0.6713578E+04 -0.1570797E+01
  0.1119048E+00  0.3993759E+04 -0.1570798E+01  0.4100695E+06 -0.1634225E-03  0.9366215E+04 -0.1570793E+01
  0.1428571E+00  0.5162136E+04 -0.1570797E+01  0.4086459E+06 -0.2802534E-03  0.1211591E+05 -0.1570793E+01
  0.1738095E+00  0.6376730E+04 -0.1570791E+01  0.4068734E+06 -0.4422807E-03  0.1497588E+05 -0.1570790E+01
  0.2047619E+00  0.7656208E+04 -0.1570785E+01  0.4047464E+06 -0.6630768E-03  0.1800271E+05 -0.1570787E+01
  0.2357143E+00  0.9012135E+04 -0.1570780E+01  0.4022613E+06 -0.9629122E-03  0.2120924E+05 -0.1570781E+01
  0.2666667E+00  0.1046578E+05 -0.1570772E+01  0.3994079E+06 -0.1366483E-02  0.2466274E+05 -0.1570774E+01
  0.2976190E+00  0.1204085E+05 -0.1570759E+01  0.3961861E+06 -0.1915269E-02  0.2842196E+05 -0.1570761E+01
  0.3285715E+00  0.1375453E+05 -0.1570742E+01  0.3925848E+06 -0.2652122E-02  0.3251194E+05 -0.1570743E+01
  0.3595238E+00  0.1563404E+05 -0.1570718E+01  0.3886115E+06 -0.3644120E-02  0.3701673E+05 -0.1570717E+01
  0.3904762E+00  0.1770637E+05 -0.1570678E+01  0.3842567E+06 -0.4967593E-02  0.4201212E+05 -0.1570680E+01
  0.4214286E+00  0.1999019E+05 -0.1570622E+01  0.3795672E+06 -0.6670780E-02  0.4752684E+05 -0.1570624E+01
  0.4523810E+00  0.2248769E+05 -0.1570543E+01  0.3745198E+06 -0.8884446E-02  0.5357038E+05 -0.1570542E+01
  0.4833333E+00  0.2520690E+05 -0.1570432E+01  0.3691748E+06 -0.1155389E-01  0.6019045E+05 -0.1570432E+01
  0.5142857E+00  0.2814267E+05 -0.1570281E+01  0.3635516E+06 -0.1483099E-01  0.6737980E+05 -0.1570280E+01
  0.5452381E+00  0.3126801E+05 -0.1570080E+01  0.3576520E+06 -0.1867023E-01  0.7504690E+05 -0.1570080E+01
  0.5761905E+00  0.3455735E+05 -0.1569824E+01  0.3515108E+06 -0.2308520E-01  0.8314857E+05 -0.1569824E+01
  0.6071429E+00  0.3799844E+05 -0.1569499E+01  0.3451484E+06 -0.2820420E-01  0.9169091E+05 -0.1569499E+01
  0.6380953E+00  0.4157093E+05 -0.1569103E+01  0.3385568E+06 -0.3391076E-01  0.1006086E+06 -0.1569102E+01
  0.6690477E+00  0.4525134E+05 -0.1568621E+01  0.3317908E+06 -0.4033129E-01  0.1098440E+06 -0.1568621E+01
  0.7000000E+00  0.4902250E+05 -0.1568044E+01  0.3248528E+06 -0.4753813E-01  0.1193519E+06 -0.1568043E+01
  0.7309524E+00  0.5286739E+05 -0.1567368E+01  0.3177276E+06 -0.5547692E-01  0.1291109E+06 -0.1567366E+01
  0.7619048E+00  0.5677532E+05 -0.1566584E+01  0.3104739E+06 -0.6423479E-01  0.1391075E+06 -0.1566581E+01
  0.7928572E+00  0.6073262E+05 -0.1565687E+01  0.3031213E+06 -0.7385200E-01  0.1493180E+06 -0.1565683E+01
  0.8238096E+00  0.6472171E+05 -0.1564676E+01  0.2956767E+06 -0.8434720E-01  0.1596804E+06 -0.1564671E+01
  0.8547620E+00  0.6871975E+05 -0.1563554E+01  0.2881386E+06 -0.9573237E-01  0.1701268E+06 -0.1563547E+01
  0.8857143E+00  0.7270548E+05 -0.1562326E+01  0.2805307E+06 -0.1080323E+00  0.1806219E+06 -0.1562315E+01
  0.9166667E+00  0.7666217E+05 -0.1561006E+01  0.2728628E+06 -0.1212642E+00  0.1911369E+06 -0.1560992E+01
  0.9476191E+00  0.8057227E+05 -0.1559615E+01  0.2651692E+06 -0.1354702E+00  0.2016222E+06 -0.1559596E+01
  0.9785714E+00  0.8441506E+05 -0.1558174E+01  0.2574616E+06 -0.1506610E+00  0.2120307E+06 -0.1558152E+01
  0.1009524E+01  0.8816366E+05 -0.1556720E+01  0.2497724E+06 -0.1668623E+00  0.2222933E+06 -0.1556693E+01
  0.1040476E+01  0.9180117E+05 -0.1555295E+01  0.2420757E+06 -0.1840688E+00  0.2323539E+06 -0.1555259E+01
  0.1071429E+01  0.9529756E+05 -0.1553945E+01  0.2343798E+06 -0.2022919E+00  0.2421327E+06 -0.1553901E+01
  0.1102381E+01  0.9862997E+05 -0.1552733E+01  0.2266802E+06 -0.2215532E+00  0.2515589E+06 -0.1552678E+01
  0.1133333E+01  0.1017762E+06 -0.1551729E+01  0.2190038E+06 -0.2418605E+00  0.2605728E+06 -0.1551662E+01
  0.1164286E+01  0.1047067E+06 -0.1551010E+01  0.2113504E+06 -0.2632673E+00  0.2691081E+06 -0.1550931E+01
  0.1195238E+01  0.1074109E+06 -0.1550669E+01  0.2037049E+06 -0.2858406E+00  0.2771140E+06 -0.1550578E+01
  0.1226190E+01  0.1098662E+06 -0.1550802E+01  0.1960761E+06 -0.3095936E+00  0.2845371E+06 -0.1550700E+01
  0.1257143E+01  0.1120588E+06 -0.1551495E+01  0.1885024E+06 -0.3348654E+00  0.2913199E+06 -0.1551383E+01
  0.1288095E+01  0.1139687E+06 -0.1552918E+01  0.1809459E+06 -0.3609149E+00  0.2974135E+06 -0.1552801E+01
  0.1319048E+01  0.1155938E+06 -0.1555130E+01  0.1734433E+06 -0.3886348E+00  0.3027876E+06 -0.1555013E+01
  0.1350000E+01  0.1169206E+06 -0.1558268E+01  0.1659804E+06 -0.4178647E+00  0.3074042E+06 -0.1558163E+01
  0.1380952E+01  0.1179446E+06 -0.1562456E+01  0.1585208E+06 -0.4486778E+00  0.3112327E+06 -0.1562377E+01
  0.1411905E+01  0.1189247E+06 -0.1566971E+01  0.1512533E+06 -0.4780274E+00  0.3151279E+06 -0.1566930E+01
  0.1442857E+01  0.1193767E+06 -0.1573422E+01  0.1438415E+06 -0.5124615E+00  0.3174403E+06 -0.1573449E+01
  0.1473810E+01  0.1195333E+06 -0.1581249E+01  0.1364455E+06 -0.5493124E+00  0.3189440E+06 -0.1581379E+01
  0.1504762E+01  0.1194080E+06 -0.1590573E+01  0.1290835E+06 -0.5890538E+00  0.3196642E+06 -0.1590851E+01
  0.1535714E+01  0.1190079E+06 -0.1601488E+01  0.1217600E+06 -0.6320659E+00  0.3196153E+06 -0.1601965E+01
  0.1566667E+01  0.1183493E+06 -0.1614092E+01  0.1144925E+06 -0.6790407E+00  0.3188099E+06 -0.1614836E+01
  0.1597619E+01  0.1174437E+06 -0.1628484E+01  0.1072938E+06 -0.7307323E+00  0.3172846E+06 -0.1629575E+01
  0.1628572E+01  0.1163141E+06 -0.1644733E+01  0.1002246E+06 -0.7882116E+00  0.3150720E+06 -0.1646280E+01
  0.1659524E+01  0.1149758E+06 -0.1662928E+01  0.9330983E+05 -0.8527041E+00  0.3122254E+06 -0.1665048E+01
  0.1690476E+01  0.1134549E+06 -0.1683145E+01  0.8663688E+05 -0.9258829E+00  0.3088071E+06 -0.1685992E+01
  0.1721429E+01  0.1117670E+06 -0.1705451E+01  0.8032383E+05 -0.1009862E+01  0.3048602E+06 -0.1709207E+01
  0.1752381E+01  0.1099368E+06 -0.1729896E+01  0.7449238E+05 -0.1106239E+01  0.3004364E+06 -0.1734770E+01
  0.1783333E+01  0.1079825E+06 -0.1756519E+01  0.6932922E+05 -0.1216442E+01  0.2955910E+06 -0.1762760E+01
  0.1814286E+01  0.1059220E+06 -0.1785375E+01  0.6498361E+05 -0.1341668E+01  0.2903636E+06 -0.1793272E+01
  0.1845238E+01  0.1037700E+06 -0.1816495E+01  0.6166085E+05 -0.1481037E+01  0.2848078E+06 -0.1826379E+01
  0.1876190E+01  0.1015578E+06 -0.1849910E+01  0.5954051E+05 -0.1630971E+01  0.2790092E+06 -0.1862180E+01
  0.1907143E+01  0.9929199E+05 -0.1885650E+01  0.5874359E+05 -0.1785614E+01  0.2730089E+06 -0.1900736E+01
  0.1938095E+01  0.9699864E+05 -0.1923746E+01  0.5924122E+05 -0.1937594E+01  0.2668868E+06 -0.1942164E+01
  0.1969048E+01  0.9468873E+05 -0.1964216E+01  0.6086893E+05 -0.2080258E+01  0.2606740E+06 -0.1986517E+01
  0.2000000E+01  0.9238037E+05 -0.2007101E+01  0.6340525E+05 -0.2209202E+01  0.2544641E+06 -0.2033868E+01
