VARIABLES="w (rad/s)"
"abs(F   1   1)" "angle(F   1   1)"
"abs(F   1   2)" "angle(F   1   2)"
"abs(F   1   3)" "angle(F   1   3)"
Zone t="Diffraction force - beta =   0.000 deg",I=    64,F=POINT
  0.5000000E-01  0.4702852E+03 -0.1570795E+01  0.5111508E+03 -0.3088199E+01  0.1307195E+04 -0.1570795E+01
  0.8095238E-01  0.7661169E+03 -0.1570793E+01  0.1324303E+04 -0.3086245E+01  0.2125812E+04 -0.1570792E+01
  0.1119048E+00  0.1068279E+04 -0.1570789E+01  0.2516344E+04 -0.3083893E+01  0.2961805E+04 -0.1570788E+01
  0.1428571E+00  0.1379076E+04 -0.1570784E+01  0.4086915E+04 -0.3080895E+01  0.3825656E+04 -0.1570782E+01
  0.1738095E+00  0.1699783E+04 -0.1570776E+01  0.6051258E+04 -0.3077185E+01  0.4713086E+04 -0.1570773E+01
  0.2047619E+00  0.2035458E+04 -0.1570764E+01  0.8409916E+04 -0.3072492E+01  0.5645729E+04 -0.1570759E+01
  0.2357143E+00  0.2391013E+04 -0.1570748E+01  0.1118528E+05 -0.3066630E+01  0.6633611E+04 -0.1570740E+01
  0.2666667E+00  0.2766127E+04 -0.1570723E+01  0.1438846E+05 -0.3059501E+01  0.7672688E+04 -0.1570711E+01
  0.2976190E+00  0.3170164E+04 -0.1570686E+01  0.1801681E+05 -0.3050481E+01  0.8796797E+04 -0.1570669E+01
  0.3285715E+00  0.3610187E+04 -0.1570632E+01  0.2211592E+05 -0.3039786E+01  0.1002274E+05 -0.1570606E+01
  0.3595238E+00  0.4082492E+04 -0.1570550E+01  0.2666529E+05 -0.3026807E+01  0.1132982E+05 -0.1570510E+01
  0.3904762E+00  0.4596505E+04 -0.1570428E+01  0.3167369E+05 -0.3011373E+01  0.1275738E+05 -0.1570368E+01
  0.4214286E+00  0.5166426E+04 -0.1570250E+01  0.3706870E+05 -0.2994076E+01  0.1435062E+05 -0.1570161E+01
  0.4523810E+00  0.5777276E+04 -0.1569989E+01  0.4293314E+05 -0.2974293E+01  0.1604430E+05 -0.1569856E+01
  0.4833333E+00  0.6428224E+04 -0.1569625E+01  0.4911169E+05 -0.2954155E+01  0.1784874E+05 -0.1569431E+01
  0.5142857E+00  0.7121399E+04 -0.1569124E+01  0.5556983E+05 -0.2932203E+01  0.1977621E+05 -0.1568844E+01
  0.5452381E+00  0.7858458E+04 -0.1568458E+01  0.6235782E+05 -0.2910503E+01  0.2183877E+05 -0.1568064E+01
  0.5761905E+00  0.8613616E+04 -0.1567594E+01  0.6942407E+05 -0.2889332E+01  0.2392966E+05 -0.1567048E+01
  0.6071429E+00  0.9378000E+04 -0.1566479E+01  0.7669345E+05 -0.2867591E+01  0.2604833E+05 -0.1565734E+01
  0.6380953E+00  0.1015747E+05 -0.1565098E+01  0.8418348E+05 -0.2847075E+01  0.2822443E+05 -0.1564107E+01
  0.6690477E+00  0.1093497E+05 -0.1563393E+01  0.9180614E+05 -0.2826594E+01  0.3037250E+05 -0.1562087E+01
  0.7000000E+00  0.1170509E+05 -0.1561307E+01  0.9961497E+05 -0.2806289E+01  0.3248740E+05 -0.1559609E+01
  0.7309524E+00  0.1246259E+05 -0.1558814E+01  0.1076441E+06 -0.2787150E+01  0.3457071E+05 -0.1556637E+01
  0.7619048E+00  0.1318873E+05 -0.1555848E+01  0.1157549E+06 -0.2768305E+01  0.3655175E+05 -0.1553085E+01
  0.7928572E+00  0.1388272E+05 -0.1552365E+01  0.1238899E+06 -0.2749535E+01  0.3844202E+05 -0.1548898E+01
  0.8238096E+00  0.1453678E+05 -0.1548323E+01  0.1320448E+06 -0.2731032E+01  0.4020062E+05 -0.1544010E+01
  0.8547620E+00  0.1514391E+05 -0.1543687E+01  0.1402811E+06 -0.2713313E+01  0.4181222E+05 -0.1538368E+01
  0.8857143E+00  0.1568675E+05 -0.1538411E+01  0.1485447E+06 -0.2696316E+01  0.4320653E+05 -0.1531883E+01
  0.9166667E+00  0.1614971E+05 -0.1532462E+01  0.1568049E+06 -0.2679989E+01  0.4435523E+05 -0.1524509E+01
  0.9476191E+00  0.1652261E+05 -0.1525830E+01  0.1649899E+06 -0.2664082E+01  0.4521821E+05 -0.1516194E+01
  0.9785714E+00  0.1679783E+05 -0.1518529E+01  0.1730905E+06 -0.2648682E+01  0.4578388E+05 -0.1506930E+01
  0.1009524E+01  0.1695560E+05 -0.1510557E+01  0.1810434E+06 -0.2633515E+01  0.4596950E+05 -0.1496633E+01
  0.1040476E+01  0.1698686E+05 -0.1501962E+01  0.1888654E+06 -0.2618834E+01  0.4574707E+05 -0.1485284E+01
  0.1071429E+01  0.1687964E+05 -0.1492818E+01  0.1965622E+06 -0.2604882E+01  0.4507773E+05 -0.1472867E+01
  0.1102381E+01  0.1661421E+05 -0.1483196E+01  0.2041286E+06 -0.2591788E+01  0.4389736E+05 -0.1459314E+01
  0.1133333E+01  0.1617745E+05 -0.1473250E+01  0.2115255E+06 -0.2579505E+01  0.4215627E+05 -0.1444591E+01
  0.1164286E+01  0.1554915E+05 -0.1463151E+01  0.2187135E+06 -0.2567771E+01  0.3978788E+05 -0.1428568E+01
  0.1195238E+01  0.1471969E+05 -0.1453224E+01  0.2256680E+06 -0.2556551E+01  0.3675707E+05 -0.1411142E+01
  0.1226190E+01  0.1367946E+05 -0.1443967E+01  0.2323818E+06 -0.2545907E+01  0.3303384E+05 -0.1392142E+01
  0.1257143E+01  0.1242034E+05 -0.1435995E+01  0.2389240E+06 -0.2535589E+01  0.2858920E+05 -0.1370893E+01
  0.1288095E+01  0.1093166E+05 -0.1431225E+01  0.2449838E+06 -0.2525994E+01  0.2338338E+05 -0.1347180E+01
  0.1319048E+01  0.9212031E+04 -0.1431800E+01  0.2508452E+06 -0.2516852E+01  0.1740533E+05 -0.1317404E+01
  0.1350000E+01  0.7259241E+04 -0.1444105E+01  0.2563894E+06 -0.2508235E+01  0.1063917E+05 -0.1270774E+01
  0.1380952E+01  0.5077215E+04 -0.1486301E+01  0.2615971E+06 -0.2500299E+01  0.3107020E+04 -0.1076843E+01
  0.1411905E+01  0.3343208E+04 -0.1558886E+01  0.2621562E+06 -0.2486526E+01  0.3006378E+04  0.1524899E+01
  0.1442857E+01  0.1120368E+04 -0.2237967E+01  0.2666276E+06 -0.2479210E+01  0.1172583E+05  0.1776520E+01
  0.1473810E+01  0.2382986E+04  0.2300355E+01  0.2707302E+06 -0.2472289E+01  0.2133698E+05  0.1831684E+01
  0.1504762E+01  0.5325060E+04  0.2092821E+01  0.2744489E+06 -0.2465871E+01  0.3175083E+05  0.1865628E+01
  0.1535714E+01  0.8558818E+04  0.2044142E+01  0.2777685E+06 -0.2459829E+01  0.4289896E+05  0.1893278E+01
  0.1566667E+01  0.1201482E+05  0.2030687E+01  0.2806882E+06 -0.2454170E+01  0.5476020E+05  0.1918024E+01
  0.1597619E+01  0.1566507E+05  0.2030525E+01  0.2832091E+06 -0.2448765E+01  0.6726273E+05  0.1941333E+01
  0.1628572E+01  0.1949836E+05  0.2036404E+01  0.2853012E+06 -0.2443830E+01  0.8040107E+05  0.1963440E+01
  0.1659524E+01  0.2350209E+05  0.2045288E+01  0.2869457E+06 -0.2439395E+01  0.9414105E+05  0.1984465E+01
  0.1690476E+01  0.2765809E+05  0.2055729E+01  0.2881228E+06 -0.2435473E+01  0.1084388E+06  0.2004435E+01
  0.1721429E+01  0.3194954E+05  0.2066992E+01  0.2888183E+06 -0.2432063E+01  0.1232386E+06  0.2023497E+01
  0.1752381E+01  0.3635511E+05  0.2078670E+01  0.2890209E+06 -0.2429142E+01  0.1384626E+06  0.2041785E+01
  0.1783333E+01  0.4085273E+05  0.2090575E+01  0.2887453E+06 -0.2426621E+01  0.1540206E+06  0.2059500E+01
  0.1814286E+01  0.4542075E+05  0.2102632E+01  0.2879938E+06 -0.2424486E+01  0.1698433E+06  0.2076756E+01
  0.1845238E+01  0.5003781E+05  0.2114636E+01  0.2867842E+06 -0.2422661E+01  0.1858642E+06  0.2093504E+01
  0.1876190E+01  0.5468827E+05  0.2126378E+01  0.2850747E+06 -0.2421288E+01  0.2020316E+06  0.2109627E+01
  0.1907143E+01  0.5935389E+05  0.2137695E+01  0.2828665E+06 -0.2420375E+01  0.2182790E+06  0.2125021E+01
  0.1938095E+01  0.6401026E+05  0.2148537E+01  0.2801343E+06 -0.2419941E+01  0.2345306E+06  0.2139694E+01
  0.1969048E+01  0.6863595E+05  0.2158836E+01  0.2768781E+06 -0.2419958E+01  0.2507123E+06  0.2153604E+01
  0.2000000E+01  0.7320730E+05  0.2168777E+01  0.2731263E+06 -0.2420407E+01  0.2667097E+06  0.2167077E+01
