VARIABLES="w (rad/s)"
"A   1   1" "B   1   1"
"A   1   2" "B   1   2"
"A   1   3" "B   1   3"
Zone t="Motion of body    1 in DoF   1",I=    64,F=POINT
  0.5000000E-01  0.6325535E+05  0.5630908E-02  0.1514435E-01  0.1700304E-04  0.8346536E+03  0.1008173E-03
  0.8095238E-01  0.6356121E+05  0.2474764E-01  0.3110100E-02  0.2542190E-05  0.8244259E+03  0.4382053E-03
  0.1119048E+00  0.6360971E+05  0.6953531E-01  0.1288556E-01  0.5294596E-04  0.8268051E+03  0.1231787E-02
  0.1428571E+00  0.6392823E+05  0.1566986E+00 -0.2670288E-03 -0.3644571E-04  0.8393123E+03  0.2790836E-02
  0.1738095E+00  0.6385505E+05  0.3117638E+00  0.1079821E-01  0.8824957E-04  0.8365421E+03  0.5567258E-02
  0.2047619E+00  0.6409696E+05  0.5757055E+00  0.8718801E-02  0.1000912E-03  0.8415139E+03  0.1036148E-01
  0.2357143E+00  0.6423491E+05  0.1014277E+01 -0.5826083E-03 -0.9473576E-04  0.8553632E+03  0.1844081E-01
  0.2666667E+00  0.6428096E+05  0.1730674E+01  0.8068085E-02  0.4422013E-04  0.8511337E+03  0.3163598E-01
  0.2976190E+00  0.6457915E+05  0.2906192E+01  0.1277893E-01  0.2915887E-03  0.8644297E+03  0.5368408E-01
  0.3285715E+00  0.6478396E+05  0.4812173E+01  0.7859934E-02  0.1202459E-03  0.8785461E+03  0.8995979E-01
  0.3595238E+00  0.6490128E+05  0.7902884E+01  0.3416554E-02  0.2225935E-03  0.8857982E+03  0.1494017E+00
  0.3904762E+00  0.6520939E+05  0.1289869E+02 -0.2950342E-02 -0.4912242E-03  0.9009818E+03  0.2471890E+00
  0.4214286E+00  0.6566634E+05  0.2078635E+02 -0.8454403E-02 -0.6170981E-03  0.9378163E+03  0.4062283E+00
  0.4523810E+00  0.6582567E+05  0.3315443E+02  0.1332333E-01  0.1090720E-02  0.9268177E+03  0.6529374E+00
  0.4833333E+00  0.6610834E+05  0.5160424E+02 -0.4230367E-02 -0.7799417E-03  0.9483533E+03  0.1034114E+01
  0.5142857E+00  0.6665787E+05  0.7909864E+02  0.1151191E-01  0.9734631E-03  0.9731154E+03  0.1611662E+01
  0.5452381E+00  0.6716380E+05  0.1183393E+03  0.1140411E-01  0.8540452E-03  0.1006123E+04  0.2459226E+01
  0.5761905E+00  0.6747186E+05  0.1727042E+03  0.4038535E-02 -0.1470447E-03  0.1008439E+04  0.3637600E+01
  0.6071429E+00  0.6790635E+05  0.2474982E+03  0.3191779E-02 -0.1229048E-03  0.1020975E+04  0.5291667E+01
  0.6380953E+00  0.6854086E+05  0.3471270E+03  0.3622824E-02 -0.1104057E-02  0.1060041E+04  0.7586146E+01
  0.6690477E+00  0.6928524E+05  0.4787218E+03  0.6408691E-02  0.2089500E-02  0.1104611E+04  0.1070053E+02
  0.7000000E+00  0.6992681E+05  0.6499373E+03  0.4152570E-02  0.5213022E-03  0.1125390E+04  0.1478084E+02
  0.7309524E+00  0.7040253E+05  0.8679400E+03  0.2206510E-01  0.4500151E-02  0.1139828E+04  0.2008914E+02
  0.7619048E+00  0.7109830E+05  0.1144469E+04  0.7189750E-02  0.7247925E-03  0.1175454E+04  0.2705437E+02
  0.7928572E+00  0.7195541E+05  0.1491309E+04  0.6581899E-02  0.6771088E-04  0.1215300E+04  0.3599267E+02
  0.8238096E+00  0.7285570E+05  0.1921188E+04 -0.6927313E-02 -0.5689621E-02  0.1262843E+04  0.4743064E+02
  0.8547620E+00  0.7377491E+05  0.2448338E+04  0.1449542E-01  0.3468513E-02  0.1320895E+04  0.6198736E+02
  0.8857143E+00  0.7463377E+05  0.3087848E+04  0.5633446E-02 -0.2403259E-03  0.1358490E+04  0.7985987E+02
  0.9166667E+00  0.7539131E+05  0.3855444E+04  0.6491921E-03 -0.4749298E-02  0.1383554E+04  0.1016150E+03
  0.9476191E+00  0.7621995E+05  0.4769634E+04 -0.1223770E-02 -0.4131317E-02  0.1426033E+04  0.1284554E+03
  0.9785714E+00  0.7715233E+05  0.5849430E+04  0.1114894E-01  0.5161285E-02  0.1483750E+04  0.1613003E+03
  0.1009524E+01  0.7815528E+05  0.7114273E+04  0.8932870E-02  0.1600266E-02  0.1548593E+04  0.2011706E+03
  0.1040476E+01  0.7913027E+05  0.8581982E+04  0.2478418E-02 -0.3582001E-02  0.1608855E+04  0.2484796E+03
  0.1071429E+01  0.8004269E+05  0.1027103E+05 -0.1019694E-01 -0.1168251E-01  0.1668311E+04  0.3045358E+03
  0.1102381E+01  0.8080253E+05  0.1219567E+05 -0.9177024E-02 -0.1062965E-01  0.1721388E+04  0.3704325E+03
  0.1133333E+01  0.8142295E+05  0.1436953E+05  0.3500546E-03 -0.1897812E-02  0.1767041E+04  0.4471280E+03
  0.1164286E+01  0.8193155E+05  0.1680091E+05  0.5714089E-02 -0.3746033E-02  0.1815760E+04  0.5355191E+03
  0.1195238E+01  0.8237507E+05  0.1949140E+05  0.9868363E-02  0.2120972E-02  0.1861379E+04  0.6357638E+03
  0.1226190E+01  0.8270411E+05  0.2243983E+05  0.1031613E-01  0.1005936E-01  0.1901965E+04  0.7480258E+03
  0.1257143E+01  0.8284896E+05  0.2565517E+05  0.3349998E-02  0.9803772E-03  0.1941743E+04  0.8758735E+03
  0.1288095E+01  0.8286718E+05  0.2908482E+05  0.9630806E-02  0.5142212E-02  0.1986377E+04  0.1018746E+04
  0.1319048E+01  0.8266124E+05  0.3275273E+05  0.1226212E-01 -0.2861023E-02  0.2023928E+04  0.1177097E+04
  0.1350000E+01  0.8225241E+05  0.3660827E+05  0.1355207E-01  0.1629639E-01  0.2054972E+04  0.1348871E+04
  0.1380952E+01  0.8163977E+05  0.4061063E+05  0.6762275E-02 -0.6103516E-04  0.2072164E+04  0.1532284E+04
  0.1411905E+01  0.8043730E+05  0.4447655E+05 -0.1772387E-02 -0.9803772E-02  0.2031978E+04  0.1709532E+04
  0.1442857E+01  0.7938671E+05  0.4863520E+05  0.1042734E-01  0.1434326E-02  0.2028380E+04  0.1914493E+04
  0.1473810E+01  0.7809586E+05  0.5281717E+05  0.1530217E-01  0.8270264E-02  0.2019674E+04  0.2132336E+04
  0.1504762E+01  0.7662976E+05  0.5697073E+05  0.1048511E-01  0.5950928E-02  0.2005449E+04  0.2358477E+04
  0.1535714E+01  0.7499940E+05  0.6104150E+05  0.1194302E-01  0.1314545E-01  0.1983843E+04  0.2592016E+04
  0.1566667E+01  0.7321922E+05  0.6498530E+05  0.8415059E-02 -0.7675171E-02  0.1946708E+04  0.2825928E+04
  0.1597619E+01  0.7129077E+05  0.6876123E+05  0.4756376E-02 -0.3265381E-02  0.1900246E+04  0.3062269E+04
  0.1628572E+01  0.6923899E+05  0.7233901E+05  0.6221302E-02 -0.2006531E-02  0.1841803E+04  0.3298367E+04
  0.1659524E+01  0.6711529E+05  0.7568667E+05  0.1682626E-02  0.1365662E-02  0.1779321E+04  0.3533743E+04
  0.1690476E+01  0.6491132E+05  0.7877854E+05  0.8394483E-02  0.1335144E-02  0.1715779E+04  0.3769456E+04
  0.1721429E+01  0.6268281E+05  0.8159859E+05  0.3448107E-02  0.2059937E-03  0.1644442E+04  0.4000858E+04
  0.1752381E+01  0.6044622E+05  0.8413259E+05  0.5729510E-02  0.6355286E-02  0.1566484E+04  0.4227346E+04
  0.1783333E+01  0.5822641E+05  0.8637974E+05  0.6468586E-02  0.1472473E-02  0.1485280E+04  0.4447649E+04
  0.1814286E+01  0.5604278E+05  0.8834048E+05  0.7754349E-02 -0.2174377E-02  0.1395167E+04  0.4657008E+04
  0.1845238E+01  0.5389470E+05  0.9001812E+05  0.3927907E-02 -0.9231567E-03  0.1304651E+04  0.4856227E+04
  0.1876190E+01  0.5180105E+05  0.9142912E+05  0.8645227E-02  0.2578735E-02  0.1209990E+04  0.5042127E+04
  0.1907143E+01  0.4978786E+05  0.9258624E+05  0.1031311E-01 -0.3677368E-02  0.1116999E+04  0.5220589E+04
  0.1938095E+01  0.4783208E+05  0.9350028E+05  0.3905050E-02 -0.1228333E-02  0.1022769E+04  0.5395364E+04
  0.1969048E+01  0.4596198E+05  0.9418315E+05  0.1162399E-02  0.3204346E-03  0.9302432E+03  0.5562586E+04
  0.2000000E+01  0.4418574E+05  0.9465279E+05  0.6607056E-02 -0.3890991E-02  0.8387314E+03  0.5722685E+04
Zone t="Motion of body    1 in DoF   2",I=    64,F=POINT
  0.5000000E-01 -0.3147125E-02 -0.3147125E-04  0.1090558E+06  0.2919559E+03  0.5111694E-02  0.1627207E-04
  0.8095238E-01  0.1531489E-02 -0.2568960E-04  0.1077676E+06  0.4840592E+03  0.4123239E-02  0.1728535E-04
  0.1119048E+00  0.1983967E-01 -0.1317263E-04  0.1070391E+06  0.6931260E+03  0.2795280E-02  0.3015995E-04
  0.1428571E+00 -0.1869202E-03  0.5388260E-04  0.1066510E+06  0.9270366E+03  0.4005432E-02  0.5173683E-04
  0.1738095E+00  0.2469102E-02  0.6544590E-04  0.1065395E+06  0.1195739E+04  0.3555507E-02  0.3886223E-04
  0.2047619E+00  0.1149466E-01  0.1465082E-03  0.1066398E+06  0.1511670E+04  0.2384629E-02  0.1020432E-03
  0.2357143E+00  0.7120768E-02  0.4029274E-04  0.1068916E+06  0.1892211E+04  0.3560384E-02  0.9679794E-04
  0.2666667E+00 -0.5865096E-03  0.1041889E-03  0.1072848E+06  0.2352084E+04  0.4892349E-02  0.1420975E-03
  0.2976190E+00 -0.2896728E-02  0.3726482E-03  0.1077639E+06  0.2924019E+04  0.4716797E-02  0.1564026E-03
  0.3285715E+00 -0.8150183E-02  0.2980232E-03  0.1082960E+06  0.3625366E+04  0.4852958E-02  0.2050400E-03
  0.3595238E+00 -0.7957811E-03 -0.2198219E-03  0.1088080E+06  0.4494949E+04  0.4626141E-02  0.2851486E-03
  0.3904762E+00 -0.7229316E-03 -0.5960464E-04  0.1093063E+06  0.5562445E+04  0.3399732E-02  0.3204346E-03
  0.4214286E+00 -0.7060422E-02  0.5016327E-03  0.1095005E+06  0.6815686E+04  0.3548315E-02  0.3890991E-03
  0.4523810E+00 -0.2023797E-03 -0.1544952E-03  0.1095707E+06  0.8318835E+04  0.5093223E-02  0.5264282E-03
  0.4833333E+00 -0.8634370E-02 -0.2479553E-03  0.1093008E+06  0.9946208E+04  0.4546067E-02  0.3376007E-03
  0.5142857E+00 -0.1513163E-01  0.2916336E-02  0.1087334E+06  0.1177549E+05  0.4925198E-02  0.6828308E-03
  0.5452381E+00 -0.4295782E-02  0.3337860E-03  0.1079011E+06  0.1370617E+05  0.5653081E-02  0.5989075E-03
  0.5761905E+00 -0.4674107E-02 -0.1361847E-02  0.1068536E+06  0.1570101E+05  0.4078258E-02  0.9803772E-03
  0.6071429E+00 -0.1482795E-02 -0.9021759E-03  0.1055675E+06  0.1780866E+05  0.4021139E-02  0.1152039E-02
  0.6380953E+00 -0.5141300E-03 -0.1340866E-02  0.1041965E+06  0.1990323E+05  0.3299998E-02  0.1140594E-02
  0.6690477E+00  0.4903447E-03  0.5722046E-03  0.1026686E+06  0.2203290E+05  0.5245548E-02  0.1342773E-02
  0.7000000E+00  0.2103533E-02 -0.1392365E-03  0.1009681E+06  0.2420421E+05  0.5885533E-02  0.1548767E-02
  0.7309524E+00  0.6596568E-02  0.2054214E-02  0.9922275E+05  0.2634880E+05  0.2588527E-02  0.1186371E-02
  0.7619048E+00 -0.2483368E-02  0.2250671E-03  0.9742369E+05  0.2847701E+05  0.4225730E-02  0.1602173E-02
  0.7928572E+00  0.7650014E-02 -0.3196716E-02  0.9552306E+05  0.3058424E+05  0.3945290E-02  0.1968384E-02
  0.8238096E+00  0.1639217E-02  0.4154205E-02  0.9354752E+05  0.3265217E+05  0.4352724E-02  0.1487732E-02
  0.8547620E+00  0.8756164E-02  0.3246307E-02  0.9155891E+05  0.3465825E+05  0.4302213E-02  0.1930237E-02
  0.8857143E+00 -0.1111184E-01  0.1674652E-02  0.8955555E+05  0.3658973E+05  0.4220778E-02  0.2418518E-02
  0.9166667E+00 -0.6175648E-02 -0.2017975E-02  0.8753688E+05  0.3843834E+05  0.4244718E-02  0.1922607E-02
  0.9476191E+00 -0.4854825E-02  0.5485535E-02  0.8549359E+05  0.4019991E+05  0.3220448E-02  0.2639771E-02
  0.9785714E+00  0.5457523E-03 -0.4966736E-02  0.8346443E+05  0.4186164E+05  0.4755842E-02  0.2334595E-02
  0.1009524E+01  0.1070131E-01  0.1747131E-02  0.8146599E+05  0.4341259E+05  0.2811360E-02  0.2349854E-02
  0.1040476E+01 -0.2434423E-02  0.2609253E-02  0.7948601E+05  0.4485157E+05  0.2727727E-02  0.2929688E-02
  0.1071429E+01 -0.1002604E-01 -0.7820129E-03  0.7753470E+05  0.4616916E+05  0.2164714E-02  0.2876282E-02
  0.1102381E+01 -0.1100412E-01 -0.2937317E-02  0.7561493E+05  0.4736786E+05  0.2989800E-02  0.2838135E-02
  0.1133333E+01 -0.8495555E-02  0.6256104E-02  0.7375573E+05  0.4843865E+05  0.3177418E-02  0.2380371E-02
  0.1164286E+01 -0.2791516E-02 -0.2250671E-02  0.7197309E+05  0.4937348E+05  0.2647353E-02  0.3097534E-02
  0.1195238E+01 -0.6293795E-02  0.3337860E-02  0.7024635E+05  0.5018530E+05  0.2246872E-02  0.3227234E-02
  0.1226190E+01 -0.2862134E-03  0.2090454E-02  0.6858704E+05  0.5087116E+05  0.3061239E-02  0.2662659E-02
  0.1257143E+01  0.1857064E-02 -0.3646851E-02  0.6698934E+05  0.5147212E+05  0.2815940E-02  0.2822876E-02
  0.1288095E+01  0.4311948E-02 -0.2853394E-02  0.6544105E+05  0.5189141E+05  0.1634749E-02  0.3341675E-02
  0.1319048E+01  0.7877831E-02  0.9471893E-02  0.6398071E+05  0.5222257E+05  0.1365028E-02  0.3738403E-02
  0.1350000E+01 -0.1537182E-02 -0.5092621E-02  0.6260215E+05  0.5242827E+05  0.1537182E-02  0.4714966E-02
  0.1380952E+01  0.1502728E-02 -0.6839752E-02  0.6129598E+05  0.5251744E+05  0.2143597E-02  0.2174377E-02
  0.1411905E+01 -0.1102338E-02 -0.8907318E-02  0.6005359E+05  0.5256614E+05  0.6268197E-03  0.4714966E-02
  0.1442857E+01  0.1120992E-02 -0.1873016E-02  0.5888544E+05  0.5246182E+05  0.1713215E-02  0.3837585E-02
  0.1473810E+01 -0.5342301E-02 -0.4005432E-02  0.5778179E+05  0.5226340E+05  0.1594408E-02  0.4371643E-02
  0.1504762E+01 -0.3123223E-02  0.1430511E-02  0.5676226E+05  0.5197289E+05  0.1500770E-02  0.4776001E-02
  0.1535714E+01  0.1281738E-02  0.5519867E-02  0.5582163E+05  0.5159104E+05  0.2146166E-02  0.4264832E-02
  0.1566667E+01 -0.2532309E-03 -0.1197815E-02  0.5494988E+05  0.5112722E+05  0.1168758E-02  0.3837585E-02
  0.1597619E+01 -0.2072557E-02 -0.6259918E-02  0.5413739E+05  0.5058864E+05  0.1566357E-02  0.3494263E-02
  0.1628572E+01 -0.6745991E-03 -0.7255554E-02  0.5339263E+05  0.4998028E+05  0.2211186E-02  0.2548218E-02
  0.1659524E+01 -0.3567535E-02 -0.1098633E-01  0.5270700E+05  0.4930885E+05  0.1415981E-02  0.3051758E-02
  0.1690476E+01 -0.4729794E-02 -0.7820129E-03  0.5206869E+05  0.4858178E+05  0.1245633E-02  0.3234863E-02
  0.1721429E+01 -0.7977624E-03 -0.4768372E-03  0.5150065E+05  0.4779832E+05  0.9041307E-03  0.4440308E-02
  0.1752381E+01  0.4614955E-03 -0.4447937E-02  0.5099536E+05  0.4697121E+05  0.1236460E-02  0.4676819E-02
  0.1783333E+01  0.2832145E-02 -0.7137299E-02  0.5054631E+05  0.4609471E+05  0.1214999E-02  0.4783630E-02
  0.1814286E+01 -0.3784660E-02  0.2944946E-02  0.5014268E+05  0.4518516E+05  0.5214421E-03  0.4173279E-02
  0.1845238E+01 -0.6689847E-02 -0.4398346E-02  0.4978306E+05  0.4423549E+05  0.1604240E-02  0.4325867E-02
  0.1876190E+01 -0.2618780E-02 -0.4581451E-02  0.4947091E+05  0.4325599E+05  0.9759429E-03  0.2723694E-02
  0.1907143E+01 -0.9120984E-03 -0.7362366E-03  0.4919839E+05  0.4225234E+05  0.1008109E-02  0.4055023E-02
  0.1938095E+01 -0.1078613E-02  0.3231049E-02  0.4895199E+05  0.4123458E+05  0.1275440E-02  0.4791260E-02
  0.1969048E+01  0.1077156E-02 -0.1638412E-02  0.4875102E+05  0.4018886E+05  0.6354447E-03  0.4238129E-02
  0.2000000E+01 -0.5874634E-03  0.1226425E-02  0.4858767E+05  0.3914154E+05  0.1892090E-02  0.4428864E-02
Zone t="Motion of body    1 in DoF   3",I=    64,F=POINT
  0.5000000E-01  0.8144850E+03  0.1012569E-03 -0.3848076E-02 -0.6461301E-05  0.2150662E+04  0.1792776E-05
  0.8095238E-01  0.8027993E+03  0.4376778E-03 -0.2406204E-02 -0.7672476E-05  0.2165529E+04  0.6991678E-05
  0.1119048E+00  0.8078630E+03  0.1237184E-02 -0.1710831E-02 -0.1421528E-05  0.2178801E+04  0.2769034E-04
  0.1428571E+00  0.8190605E+03  0.2794059E-02 -0.1682281E-02 -0.5941323E-05  0.2179018E+04  0.4692451E-04
  0.1738095E+00  0.8168303E+03  0.5589457E-02 -0.2364851E-02 -0.1370157E-04  0.2182437E+04  0.1004987E-03
  0.2047619E+00  0.8204373E+03  0.1041267E-01 -0.3712011E-02 -0.3715679E-04  0.2179988E+04  0.2067301E-03
  0.2357143E+00  0.8358906E+03  0.1849287E-01  0.1114643E-02  0.3305859E-04  0.2180014E+04  0.3414251E-03
  0.2666667E+00  0.8306143E+03  0.3183905E-01 -0.4291534E-04  0.4683741E-04  0.2180063E+04  0.5863471E-03
  0.2976190E+00  0.8427455E+03  0.5397069E-01 -0.1336212E-02  0.4701025E-05  0.2175468E+04  0.9769218E-03
  0.3285715E+00  0.8586249E+03  0.9037365E-01  0.1047798E-02  0.9194488E-04  0.2182236E+04  0.1645742E-02
  0.3595238E+00  0.8660998E+03  0.1502347E+00  0.6154041E-02  0.3497260E-03  0.2179269E+04  0.2814719E-02
  0.3904762E+00  0.8819595E+03  0.2485469E+00  0.6130264E-03  0.1122787E-03  0.2186091E+04  0.4775258E-02
  0.4214286E+00  0.9203784E+03  0.4059547E+00  0.8463454E-03  0.1942822E-03  0.2184007E+04  0.7937917E-02
  0.4523810E+00  0.9077266E+03  0.6573119E+00  0.5856363E-02  0.6882951E-03  0.2188316E+04  0.1289046E-01
  0.4833333E+00  0.9296887E+03  0.1039034E+01  0.1209522E-02  0.1967575E-03  0.2182661E+04  0.2081360E-01
  0.5142857E+00  0.9542457E+03  0.1617584E+01 -0.5158849E-02 -0.4035051E-03  0.2188676E+04  0.3291759E-01
  0.5452381E+00  0.9890578E+03  0.2459977E+01  0.1889025E-02  0.4274664E-03  0.2195024E+04  0.5095807E-01
  0.5761905E+00  0.9890516E+03  0.3657080E+01 -0.3598268E-02 -0.2123900E-03  0.2184407E+04  0.7699645E-01
  0.6071429E+00  0.1001976E+04  0.5335828E+01 -0.4803376E-02 -0.6805640E-03  0.2193149E+04  0.1141499E+00
  0.6380953E+00  0.1041121E+04  0.7621530E+01 -0.5353529E-02 -0.1026902E-02  0.2191774E+04  0.1666190E+00
  0.6690477E+00  0.1086585E+04  0.1071268E+02 -0.1853047E-03  0.2602246E-03  0.2191893E+04  0.2394316E+00
  0.7000000E+00  0.1107669E+04  0.1484692E+02 -0.3787449E-02 -0.7578209E-03  0.2200504E+04  0.3381303E+00
  0.7309524E+00  0.1121696E+04  0.2025195E+02 -0.1779612E-02 -0.2208613E-03  0.2199905E+04  0.4688589E+00
  0.7619048E+00  0.1156279E+04  0.2725325E+02  0.2220511E-02  0.1293004E-02  0.2192943E+04  0.6421300E+00
  0.7928572E+00  0.1197411E+04  0.3627709E+02 -0.4171423E-02 -0.1273789E-02  0.2200195E+04  0.8745375E+00
  0.8238096E+00  0.1245146E+04  0.4773001E+02  0.1083550E-02  0.1408249E-02  0.2208838E+04  0.1181089E+01
  0.8547620E+00  0.1303922E+04  0.6215355E+02 -0.1115719E-02  0.1288950E-03  0.2209158E+04  0.1573430E+01
  0.8857143E+00  0.1339917E+04  0.8022883E+02 -0.5071394E-02 -0.1379624E-02  0.2204222E+04  0.2075366E+01
  0.9166667E+00  0.1367329E+04  0.1027120E+03  0.4280090E-02  0.3197372E-02  0.2212046E+04  0.2706746E+01
  0.9476191E+00  0.1410106E+04  0.1299726E+03  0.2240224E-02  0.2554268E-02  0.2217507E+04  0.3493575E+01
  0.9785714E+00  0.1467881E+04  0.1628850E+03  0.4260766E-02  0.4478365E-02  0.2218195E+04  0.4491539E+01
  0.1009524E+01  0.1530046E+04  0.2025625E+03  0.2267226E-04  0.1756728E-02  0.2213722E+04  0.5695085E+01
  0.1040476E+01  0.1592145E+04  0.2502670E+03  0.3413325E-02  0.3912210E-02  0.2221437E+04  0.7251367E+01
  0.1071429E+01  0.1653889E+04  0.3068596E+03 -0.2389018E-02 -0.5213618E-03  0.2235059E+04  0.9119311E+01
  0.1102381E+01  0.1706447E+04  0.3734579E+03  0.1207685E-02  0.2433598E-02  0.2238729E+04  0.1139046E+02
  0.1133333E+01  0.1751334E+04  0.4516206E+03  0.2861023E-03  0.2002299E-02  0.2235772E+04  0.1410724E+02
  0.1164286E+01  0.1799687E+04  0.5411798E+03 -0.3119158E-02 -0.4527569E-03  0.2232368E+04  0.1726154E+02
  0.1195238E+01  0.1847374E+04  0.6437548E+03  0.5393769E-03  0.2200127E-02  0.2236046E+04  0.2086982E+02
  0.1226190E+01  0.1892349E+04  0.7597015E+03 -0.1427956E-02  0.1888275E-03  0.2247478E+04  0.2537874E+02
  0.1257143E+01  0.1932859E+04  0.8908974E+03  0.1265352E-02  0.4469872E-02  0.2253841E+04  0.3050529E+02
  0.1288095E+01  0.1975134E+04  0.1034337E+04 -0.2348471E-02 -0.1111627E-02  0.2259969E+04  0.3637901E+02
  0.1319048E+01  0.2013407E+04  0.1194692E+04 -0.3487762E-02 -0.8974075E-03  0.2258447E+04  0.4288657E+02
  0.1350000E+01  0.2043820E+04  0.1367665E+04 -0.1133106E-02  0.2981186E-02  0.2258413E+04  0.5009010E+02
  0.1380952E+01  0.2063156E+04  0.1555789E+04 -0.2469556E-02  0.1745224E-03  0.2262307E+04  0.5808974E+02
  0.1411905E+01  0.1923880E+04  0.1679415E+04  0.8753862E-03  0.4460096E-02  0.2255802E+04  0.6462058E+02
  0.1442857E+01  0.1920260E+04  0.1884648E+04  0.9782243E-04  0.4143238E-02  0.2262491E+04  0.7480058E+02
  0.1473810E+01  0.1909551E+04  0.2098754E+04 -0.1213924E-02  0.8528233E-03  0.2266888E+04  0.8566694E+02
  0.1504762E+01  0.1894418E+04  0.2319543E+04 -0.1931734E-02  0.1571417E-02  0.2265308E+04  0.9677331E+02
  0.1535714E+01  0.1871274E+04  0.2546849E+04 -0.6483211E-03  0.7156849E-02  0.2258465E+04  0.1067675E+03
  0.1566667E+01  0.1834015E+04  0.2779006E+04 -0.1280764E-02  0.4796028E-02  0.2255884E+04  0.1182862E+03
  0.1597619E+01  0.1790857E+04  0.3017288E+04 -0.8548105E-03 -0.1842976E-02  0.2258296E+04  0.1326184E+03
  0.1628572E+01  0.1735777E+04  0.3258412E+04  0.1848120E-02  0.9188175E-02  0.2268028E+04  0.1480160E+03
  0.1659524E+01  0.1674083E+04  0.3494450E+04 -0.3792805E-03  0.1498699E-02  0.2277684E+04  0.1656239E+03
  0.1690476E+01  0.1611653E+04  0.3723933E+04 -0.1033514E-02 -0.3544331E-02  0.2280945E+04  0.1812787E+03
  0.1721429E+01  0.1541299E+04  0.3948543E+04 -0.2136230E-02  0.6117821E-03  0.2281697E+04  0.1966532E+03
  0.1752381E+01  0.1463360E+04  0.4171028E+04 -0.1373602E-02  0.2676487E-02  0.2270099E+04  0.2083924E+03
  0.1783333E+01  0.1379473E+04  0.4384446E+04 -0.2087745E-02  0.4777431E-02  0.2260022E+04  0.2203388E+03
  0.1814286E+01  0.1286943E+04  0.4594319E+04 -0.3910816E-03  0.2955914E-02  0.2254455E+04  0.2341259E+03
  0.1845238E+01  0.1198107E+04  0.4799129E+04 -0.4359977E-02  0.6670952E-03  0.2254229E+04  0.2514370E+03
  0.1876190E+01  0.1104759E+04  0.4996858E+04 -0.1291091E-02  0.3739834E-02  0.2259991E+04  0.2727765E+03
  0.1907143E+01  0.1009354E+04  0.5176683E+04 -0.1524164E-02  0.1764297E-03  0.2267236E+04  0.2978992E+03
  0.1938095E+01  0.9132877E+03  0.5347873E+04 -0.9487068E-03  0.4615784E-02  0.2266754E+04  0.3178129E+03
  0.1969048E+01  0.8200840E+03  0.5505645E+04 -0.1797843E-02  0.2741337E-02  0.2267248E+04  0.3376533E+03
  0.2000000E+01  0.7287137E+03  0.5659332E+04 -0.7305145E-03  0.3009319E-02  0.2260409E+04  0.3500161E+03
