VARIABLES="w (rad/s)"
"A   1   1" "B   1   1"
"A   1   2" "B   1   2"
"A   1   3" "B   1   3"
Zone t="Motion of body    1 in DoF   1",I=    64,F=POINT
  0.5000000E-01  0.2174712E+06  0.4518051E-01  0.2517700E-02  0.3423821E-04 -0.6109923E+06 -0.1229940E+00
  0.8095238E-01  0.2186813E+06  0.1990837E+00 -0.1036700E-01 -0.5977531E-04 -0.6139812E+06 -0.5420031E+00
  0.1119048E+00  0.2191795E+06  0.5574762E+00  0.1070388E-01  0.1172894E-03 -0.6154664E+06 -0.1516784E+01
  0.1428571E+00  0.2197214E+06  0.1254260E+01  0.1676941E-01  0.2215784E-03 -0.6162345E+06 -0.3409909E+01
  0.1738095E+00  0.2202525E+06  0.2493750E+01  0.2370338E-02  0.7762387E-04 -0.6177463E+06 -0.6777210E+01
  0.2047619E+00  0.2206699E+06  0.4592624E+01 -0.6259652E-02 -0.2137534E-03 -0.6184582E+06 -0.1247223E+02
  0.2357143E+00  0.2211084E+06  0.8069459E+01  0.1942028E-02 -0.3230572E-04 -0.6198146E+06 -0.2190358E+02
  0.2666667E+00  0.2220211E+06  0.1373888E+02 -0.1018524E-01 -0.3176183E-03 -0.6216784E+06 -0.3724738E+02
  0.2976190E+00  0.2228192E+06  0.2298550E+02  0.1640625E-02 -0.3936887E-04 -0.6232864E+06 -0.6224359E+02
  0.3285715E+00  0.2236432E+06  0.3791235E+02  0.1671832E-02 -0.3022850E-03 -0.6255259E+06 -0.1025716E+03
  0.3595238E+00  0.2246762E+06  0.6206532E+02 -0.9252283E-02 -0.6960630E-03 -0.6278771E+06 -0.1677011E+03
  0.3904762E+00  0.2258971E+06  0.1008554E+03  0.1789744E-01  0.8118153E-03 -0.6305164E+06 -0.2720855E+03
  0.4214286E+00  0.2273395E+06  0.1617414E+03 -0.7531117E-02 -0.1486063E-02 -0.6338186E+06 -0.4356286E+03
  0.4523810E+00  0.2286223E+06  0.2570038E+03 -0.1416658E-01 -0.1533508E-02 -0.6374521E+06 -0.6914612E+03
  0.4833333E+00  0.2306184E+06  0.3985606E+03 -0.6440261E-02 -0.1731873E-02 -0.6419543E+06 -0.1070096E+04
  0.5142857E+00  0.2325205E+06  0.6078587E+03  0.2824572E-01  0.2315998E-02 -0.6460451E+06 -0.1628449E+04
  0.5452381E+00  0.2345356E+06  0.9047946E+03 -0.1119422E-02 -0.6661415E-03 -0.6507714E+06 -0.2418919E+04
  0.5761905E+00  0.2365916E+06  0.1314394E+04  0.2542291E-01  0.6642342E-02 -0.6561633E+06 -0.3507740E+04
  0.6071429E+00  0.2392287E+06  0.1876013E+04  0.3116383E-02  0.3623962E-02 -0.6622774E+06 -0.4994278E+04
  0.6380953E+00  0.2422061E+06  0.2619295E+04  0.7365212E-02  0.1127243E-02 -0.6688581E+06 -0.6952684E+04
  0.6690477E+00  0.2449421E+06  0.3591369E+04  0.4196438E-02  0.5283356E-03 -0.6750114E+06 -0.9505964E+04
  0.7000000E+00  0.2479335E+06  0.4850913E+04  0.1377651E-01  0.4737854E-02 -0.6825928E+06 -0.1280970E+05
  0.7309524E+00  0.2511722E+06  0.6449474E+04 -0.8350085E-02 -0.3154755E-02 -0.6903974E+06 -0.1698319E+05
  0.7619048E+00  0.2548207E+06  0.8462913E+04 -0.1041412E-02  0.1468658E-02 -0.6987042E+06 -0.2221060E+05
  0.7928572E+00  0.2584531E+06  0.1096632E+05 -0.4080007E-02 -0.3768921E-02 -0.7066774E+06 -0.2867568E+05
  0.8238096E+00  0.2621442E+06  0.1404536E+05  0.1333600E-02  0.3593445E-02 -0.7148032E+06 -0.3659034E+05
  0.8547620E+00  0.2660548E+06  0.1779481E+05 -0.1021106E-01 -0.8865356E-02 -0.7236531E+06 -0.4618812E+05
  0.8857143E+00  0.2695188E+06  0.2229086E+05 -0.8269279E-02  0.2441406E-03 -0.7315100E+06 -0.5764715E+05
  0.9166667E+00  0.2730600E+06  0.2764041E+05 -0.4261364E-02 -0.1498413E-01 -0.7395873E+06 -0.7121180E+05
  0.9476191E+00  0.2765220E+06  0.3392591E+05 -0.1288179E-03 -0.9307861E-03 -0.7465704E+06 -0.8700285E+05
  0.9785714E+00  0.2799935E+06  0.4126464E+05 -0.4116532E-02 -0.6500244E-02 -0.7532212E+06 -0.1053035E+06
  0.1009524E+01  0.2829126E+06  0.4971136E+05  0.7255123E-03 -0.3051758E-02 -0.7587486E+06 -0.1262511E+06
  0.1040476E+01  0.2849602E+06  0.5929499E+05  0.1525181E-02  0.2838135E-02 -0.7614477E+06 -0.1497776E+06
  0.1071429E+01  0.2866579E+06  0.7012461E+05 -0.1139323E-03  0.3234863E-02 -0.7640243E+06 -0.1762663E+06
  0.1102381E+01  0.2872141E+06  0.8209622E+05  0.3322000E-03 -0.3356934E-02 -0.7633939E+06 -0.2052639E+06
  0.1133333E+01  0.2871374E+06  0.9524584E+05 -0.6462546E-02 -0.7019043E-02 -0.7613981E+06 -0.2368890E+06
  0.1164286E+01  0.2859209E+06  0.1093422E+06  0.1048457E-02 -0.4272461E-03 -0.7564370E+06 -0.2704002E+06
  0.1195238E+01  0.2833254E+06  0.1241986E+06 -0.1940480E-02  0.1159668E-02 -0.7471474E+06 -0.3050634E+06
  0.1226190E+01  0.2799137E+06  0.1398522E+06  0.3882547E-02  0.4882812E-03 -0.7367139E+06 -0.3413992E+06
  0.1257143E+01  0.2748242E+06  0.1558092E+06 -0.5826083E-03 -0.2441406E-02 -0.7219447E+06 -0.3777910E+06
  0.1288095E+01  0.2688987E+06  0.1719670E+06  0.2748274E-02 -0.1214600E-01 -0.7051976E+06 -0.4140643E+06
  0.1319048E+01  0.2618439E+06  0.1880070E+06 -0.6293011E-02 -0.8972168E-02 -0.6862760E+06 -0.4495786E+06
  0.1350000E+01  0.2535231E+06  0.2033499E+06 -0.2350984E-02 -0.9399414E-02 -0.6642331E+06 -0.4825938E+06
  0.1380952E+01  0.2441525E+06  0.2177440E+06  0.3977809E-02 -0.4028320E-02 -0.6394816E+06 -0.5123948E+06
  0.1411905E+01  0.2340018E+06  0.2311562E+06 -0.6916631E-03  0.4577637E-02 -0.6144874E+06 -0.5400800E+06
  0.1442857E+01  0.2234753E+06  0.2432624E+06 -0.3722540E-02 -0.4455566E-02 -0.5881291E+06 -0.5635904E+06
  0.1473810E+01  0.2125879E+06  0.2538625E+06 -0.1739354E-02  0.7934570E-03 -0.5613312E+06 -0.5830832E+06
  0.1504762E+01  0.2018152E+06  0.2629633E+06  0.0000000E+00  0.6469727E-02 -0.5351126E+06 -0.5984966E+06
  0.1535714E+01  0.1910428E+06  0.2704236E+06  0.4729514E-02 -0.1831055E-03 -0.5096400E+06 -0.6100234E+06
  0.1566667E+01  0.1803059E+06  0.2760067E+06 -0.1947930E-03 -0.3417969E-02 -0.4843412E+06 -0.6164938E+06
  0.1597619E+01  0.1697999E+06  0.2798523E+06 -0.9932994E-03 -0.5004883E-02 -0.4598789E+06 -0.6185336E+06
  0.1628572E+01  0.1600020E+06  0.2825427E+06  0.1424154E-02 -0.8544922E-03 -0.4379966E+06 -0.6185763E+06
  0.1659524E+01  0.1507189E+06  0.2836493E+06  0.5700701E-02  0.1464844E-02 -0.4173829E+06 -0.6144627E+06
  0.1690476E+01  0.1419462E+06  0.2833245E+06 -0.8665273E-03 -0.1464844E-02 -0.3981999E+06 -0.6070766E+06
  0.1721429E+01  0.1339301E+06  0.2819709E+06  0.6275731E-02  0.8422852E-02 -0.3810683E+06 -0.5974144E+06
  0.1752381E+01  0.1267147E+06  0.2798248E+06 -0.1323534E-02 -0.2441406E-03 -0.3661505E+06 -0.5863156E+06
  0.1783333E+01  0.1199970E+06  0.2766162E+06 -0.4449292E-03  0.1037598E-02 -0.3526860E+06 -0.5731033E+06
  0.1814286E+01  0.1138499E+06  0.2723919E+06 -0.1446581E-02  0.1525879E-02 -0.3404384E+06 -0.5570036E+06
  0.1845238E+01  0.1082838E+06  0.2675098E+06  0.2679246E-02 -0.9155273E-03 -0.3297047E+06 -0.5397423E+06
  0.1876190E+01  0.1034192E+06  0.2625554E+06  0.4651994E-02  0.2258301E-02 -0.3210003E+06 -0.5236206E+06
  0.1907143E+01  0.9917052E+05  0.2572142E+06  0.3200345E-03  0.8239746E-03 -0.3137269E+06 -0.5065998E+06
  0.1938095E+01  0.9528836E+05  0.2510651E+06  0.5070267E-02 -0.3356934E-03 -0.3071777E+06 -0.4875352E+06
  0.1969048E+01  0.9196783E+05  0.2448937E+06  0.2789757E-03  0.1068115E-02 -0.3019979E+06 -0.4690989E+06
  0.2000000E+01  0.8918573E+05  0.2386926E+06  0.9765625E-03 -0.8850098E-03 -0.2980889E+06 -0.4506557E+06
Zone t="Motion of body    1 in DoF   2",I=    64,F=POINT
  0.5000000E-01 -0.1495361E-01  0.1096725E-04  0.1346927E+06  0.2807498E+03 -0.8544922E-01 -0.1144409E-04
  0.8095238E-01  0.2120523E-01 -0.2145767E-04  0.1333846E+06  0.4638398E+03  0.1130946E-01  0.3852844E-03
  0.1119048E+00 -0.1752163E-01  0.2393723E-03  0.1324488E+06  0.6606663E+03 -0.5454205E-01  0.7209778E-03
  0.1428571E+00 -0.2499389E-01 -0.4863739E-04  0.1319392E+06  0.8777759E+03  0.5981445E-01  0.3051758E-03
  0.1738095E+00  0.9437457E-02  0.5722046E-04  0.1317673E+06  0.1121927E+04  0.3511612E-01 -0.7476807E-03
  0.2047619E+00  0.3539684E-02 -0.1602173E-03  0.1313237E+06  0.1404251E+04  0.0000000E+00 -0.1121521E-02
  0.2357143E+00  0.4078258E-02  0.2231598E-03  0.1312896E+06  0.1736874E+04  0.5593039E-01 -0.0000000E+00
  0.2666667E+00  0.8010864E-03 -0.4920959E-03  0.1312145E+06  0.2127985E+04  0.7141113E-01  0.3372192E-02
  0.2976190E+00 -0.1743164E-02  0.4653931E-03  0.1312215E+06  0.2605003E+04 -0.1476562E-01 -0.3326416E-02
  0.3285715E+00  0.8591360E-02 -0.4806519E-03  0.1311761E+06  0.3171786E+04 -0.2897843E-01 -0.2532959E-02
  0.3595238E+00  0.1273250E-02 -0.7553101E-03  0.1311411E+06  0.3857234E+04 -0.1901386E-01  0.2014160E-02
  0.3904762E+00 -0.2110179E-02 -0.1434326E-02  0.1308658E+06  0.4671685E+04  0.3001143E-01 -0.5218506E-02
  0.4214286E+00 -0.1918986E-02 -0.1518250E-02  0.1306525E+06  0.5588184E+04  0.4460738E-01 -0.4333496E-02
  0.4523810E+00  0.1821417E-02 -0.8926392E-03  0.1298004E+06  0.6665466E+04 -0.5720600E-01 -0.3417969E-02
  0.4833333E+00 -0.1193343E-01  0.1358032E-02  0.1292494E+06  0.7749727E+04  0.3030711E-01  0.2807617E-02
  0.5142857E+00 -0.3085666E-02 -0.7110596E-02  0.1278399E+06  0.8928150E+04 -0.7595486E-02  0.1647949E-02
  0.5452381E+00  0.2126902E-02 -0.4241943E-02  0.1265630E+06  0.1008798E+05  0.1522414E-01 -0.2685547E-02
  0.5761905E+00 -0.4184186E-02  0.2059937E-02  0.1253070E+06  0.1118655E+05  0.1186402E-01 -0.6164551E-02
  0.6071429E+00  0.1090734E-01 -0.3356934E-02  0.1234413E+06  0.1229808E+05  0.4503676E-01  0.2929688E-02
  0.6380953E+00 -0.7604342E-02  0.2319336E-02  0.1220603E+06  0.1325930E+05 -0.1224347E-01 -0.6103516E-03
  0.6690477E+00 -0.8392877E-02 -0.1556396E-02  0.1204997E+06  0.1413786E+05  0.2627335E-01  0.8178711E-02
  0.7000000E+00 -0.1495361E-01  0.1495361E-02  0.1185812E+06  0.1495840E+05  0.3627232E-01 -0.1354980E-01
  0.7309524E+00 -0.1252513E-02 -0.5401611E-02  0.1171049E+06  0.1562888E+05  0.5678058E-01  0.1293945E-01
  0.7619048E+00 -0.8010864E-04  0.1525879E-02  0.1158689E+06  0.1618033E+05 -0.2307129E-01  0.5371094E-02
  0.7928572E+00 -0.2155476E-02 -0.3997803E-02  0.1139996E+06  0.1661688E+05  0.1601210E-01  0.1440430E-01
  0.8238096E+00  0.3241390E-02 -0.1434326E-02  0.1124533E+06  0.1693066E+05  0.1126152E-01 -0.3088379E-01
  0.8547620E+00 -0.9300635E-02  0.5432129E-02  0.1113467E+06  0.1711831E+05  0.2741992E-01 -0.1330566E-01
  0.8857143E+00  0.4720380E-02 -0.4577637E-02  0.1101733E+06  0.1715484E+05  0.2591041E-01  0.5981445E-02
  0.9166667E+00 -0.1126931E-01  0.4394531E-02  0.1087830E+06  0.1706230E+05  0.3089488E-01 -0.2490234E-01
  0.9476191E+00 -0.8679107E-02  0.3967285E-02  0.1076338E+06  0.1686715E+05  0.3864538E-01  0.9765625E-02
  0.9785714E+00 -0.3945010E-02  0.1770020E-02  0.1068539E+06  0.1659061E+05 -0.4490762E-02 -0.1757812E-01
  0.1009524E+01 -0.2244554E-02 -0.4028320E-02  0.1064653E+06  0.1625064E+05  0.3627561E-01  0.3259277E-01
  0.1040476E+01 -0.1162217E-01  0.4638672E-02  0.1053517E+06  0.1565710E+05  0.3285004E-01  0.2832031E-01
  0.1071429E+01  0.6052653E-03  0.2197266E-02  0.1045544E+06  0.1505382E+05 -0.1139323E-01 -0.9155273E-02
  0.1102381E+01 -0.4515843E-03 -0.2258301E-02  0.1040457E+06  0.1440513E+05  0.7972799E-02 -0.5615234E-02
  0.1133333E+01 -0.1863872E-02 -0.4394531E-02  0.1038353E+06  0.1378122E+05  0.2240349E-01  0.1074219E-01
  0.1164286E+01 -0.3328850E-02  0.2136230E-02  0.1039853E+06  0.1322063E+05  0.2516296E-01  0.2062988E-01
  0.1195238E+01 -0.2866038E-02 -0.1239014E-01  0.1034087E+06  0.1222573E+05  0.0000000E+00  0.2905273E-01
  0.1226190E+01 -0.4629191E-02 -0.4760742E-02  0.1031207E+06  0.1136926E+05  0.3344963E-01  0.3320312E-01
  0.1257143E+01 -0.2184781E-02 -0.4699707E-02  0.1029823E+06  0.1052703E+05  0.1942028E-01  0.4101562E-01
  0.1288095E+01 -0.9168812E-02 -0.1043701E-01  0.1030748E+06  0.9789272E+04  0.6823302E-02  0.1574707E-01
  0.1319048E+01 -0.1850885E-03  0.7324219E-03  0.1033545E+06  0.9210344E+04  0.8143896E-02  0.3979492E-01
  0.1350000E+01  0.1966688E-02  0.3356934E-02  0.1037124E+06  0.8653237E+04  0.2097801E-01  0.1110840E-01
  0.1380952E+01 -0.5281646E-02  0.1037598E-02  0.1036451E+06  0.7563486E+04  0.3535830E-02 -0.1623535E-01
  0.1411905E+01 -0.1080724E-04  0.2990723E-02  0.1037242E+06  0.6744940E+04  0.1037495E-01 -0.1910400E-01
  0.1442857E+01  0.2982262E-02 -0.1037598E-02  0.1038864E+06  0.5970498E+04  0.1285968E-01  0.6164551E-02
  0.1473810E+01 -0.7454374E-03 -0.1089478E-01  0.1041737E+06  0.5376138E+04  0.2849227E-01  0.2059937E-01
  0.1504762E+01  0.4258940E-03  0.1403809E-02  0.1045079E+06  0.4954955E+04 -0.1492657E-01 -0.1672363E-01
  0.1535714E+01 -0.7292991E-02 -0.8972168E-02  0.1049202E+06  0.4750047E+04  0.2352834E-01  0.3182983E-01
  0.1566667E+01  0.7791722E-04 -0.1022339E-01  0.1052503E+06  0.4253519E+04 -0.6233377E-03  0.4028320E-02
  0.1597619E+01  0.1719172E-03 -0.6713867E-03  0.1054730E+06  0.3446972E+04 -0.8557657E-02 -0.1220703E-03
  0.1628572E+01 -0.1517848E-02 -0.9674072E-02  0.1057179E+06  0.2923562E+04  0.4797149E-02  0.6713867E-02
  0.1659524E+01 -0.1158530E-02 -0.9307861E-02  0.1059759E+06  0.2434104E+04  0.3471911E-01  0.7781982E-02
  0.1690476E+01  0.9026325E-04 -0.2929688E-02  0.1062764E+06  0.2143123E+04  0.1790823E-01  0.8377075E-02
  0.1721429E+01 -0.3456971E-02 -0.3906250E-02  0.1065564E+06  0.1945615E+04  0.1248055E-01  0.1333618E-01
  0.1752381E+01 -0.3935772E-02 -0.3326416E-02  0.1068197E+06  0.1842816E+04  0.6130053E-02  0.2348328E-01
  0.1783333E+01  0.1146548E-02 -0.9460449E-03  0.1070805E+06  0.1853352E+04  0.2245181E-01  0.7888794E-02
  0.1814286E+01 -0.7232907E-03  0.6103516E-04  0.1073514E+06  0.1497607E+04 -0.5382628E-02  0.2273560E-02
  0.1845238E+01  0.1918473E-02 -0.6103516E-04  0.1075975E+06  0.1136630E+04  0.1058468E-02 -0.3738403E-03
  0.1876190E+01  0.1447649E-02 -0.3204346E-02  0.1077997E+06  0.9680097E+03  0.1301257E-01  0.9063721E-02
  0.1907143E+01 -0.1856200E-02 -0.2273560E-02  0.1079942E+06  0.7980035E+03 -0.1126522E-01  0.1139069E-01
  0.1938095E+01 -0.2204464E-03 -0.4196167E-02  0.1081870E+06  0.7450784E+03 -0.1461245E-01  0.7736206E-02
  0.1969048E+01  0.8524258E-03 -0.1541138E-02  0.1083647E+06  0.7462990E+03  0.2479784E-01  0.3692627E-02
  0.2000000E+01  0.2990723E-02 -0.2502441E-02  0.1085209E+06  0.6924724E+03  0.8789062E-02  0.3787994E-02
Zone t="Motion of body    1 in DoF   3",I=    64,F=POINT
  0.5000000E-01 -0.6111940E+06 -0.1226768E+00 -0.5458832E-01 -0.1317674E-03  0.2168397E+07  0.3343236E+00
  0.8095238E-01 -0.6141228E+06 -0.5413856E+00  0.2989348E-01 -0.6911904E-04  0.2174736E+07  0.1474070E+01
  0.1119048E+00 -0.6157256E+06 -0.1514664E+01 -0.9907905E-01 -0.1131022E-02  0.2178884E+07  0.4121424E+01
  0.1428571E+00 -0.6164544E+06 -0.3406195E+01 -0.8849668E-01 -0.1130674E-02  0.2179970E+07  0.9259973E+01
  0.1738095E+00 -0.6179558E+06 -0.6769299E+01  0.1292163E-01  0.6449223E-04  0.2184295E+07  0.1839725E+02
  0.2047619E+00 -0.6186931E+06 -0.1245860E+02 -0.9827281E-03  0.5242005E-03  0.2185338E+07  0.3383680E+02
  0.2357143E+00 -0.6200084E+06 -0.2187462E+02 -0.1379042E-01 -0.1039043E-02  0.2188940E+07  0.5937589E+02
  0.2666667E+00 -0.6219128E+06 -0.3720685E+02  0.5789995E-01  0.1216561E-02  0.2192932E+07  0.1008729E+03
  0.2976190E+00 -0.6234900E+06 -0.6218499E+02  0.8756275E-02 -0.1859665E-04  0.2196349E+07  0.1683925E+03
  0.3285715E+00 -0.6257717E+06 -0.1024494E+03 -0.3975318E-02  0.2085567E-03  0.2202430E+07  0.2771723E+03
  0.3595238E+00 -0.6280272E+06 -0.1675056E+03 -0.1429753E-01 -0.8486509E-03  0.2207405E+07  0.4526004E+03
  0.3904762E+00 -0.6307361E+06 -0.2718105E+03 -0.4619924E-01 -0.6733656E-02  0.2213716E+07  0.7332899E+03
  0.4214286E+00 -0.6339656E+06 -0.4352286E+03  0.6030777E-01  0.4316092E-02  0.2221488E+07  0.1172223E+04
  0.4523810E+00 -0.6377135E+06 -0.6905127E+03  0.1120678E-01  0.1149178E-03  0.2231012E+07  0.1857803E+04
  0.4833333E+00 -0.6421528E+06 -0.1068834E+04  0.1104789E+00  0.1734447E-01  0.2241664E+07  0.2869708E+04
  0.5142857E+00 -0.6463059E+06 -0.1627015E+04 -0.6766956E-01 -0.1362514E-01  0.2250484E+07  0.4358750E+04
  0.5452381E+00 -0.6510194E+06 -0.2416856E+04 -0.2885311E-01 -0.2449036E-02  0.2262078E+07  0.6461376E+04
  0.5761905E+00 -0.6562640E+06 -0.3503194E+04 -0.3451954E-01 -0.1921463E-01  0.2275542E+07  0.9349022E+04
  0.6071429E+00 -0.6625370E+06 -0.4988435E+04  0.2565989E-01  0.2899170E-03  0.2289600E+07  0.1328038E+05
  0.6380953E+00 -0.6690932E+06 -0.6947001E+04  0.5086301E-01  0.1095963E-01  0.2304773E+07  0.1844020E+05
  0.6690477E+00 -0.6751239E+06 -0.9499581E+04 -0.1120723E+00 -0.3517914E-01  0.2318838E+07  0.2514421E+05
  0.7000000E+00 -0.6828560E+06 -0.1279526E+05 -0.3611973E-01 -0.1731110E-01  0.2337834E+07  0.3378855E+05
  0.7309524E+00 -0.6905792E+06 -0.1696034E+05  0.3538349E-01  0.1251221E-01  0.2356710E+07  0.4466109E+05
  0.7619048E+00 -0.6987928E+06 -0.2218306E+05  0.4830551E-01  0.1770020E-02  0.2375898E+07  0.5821818E+05
  0.7928572E+00 -0.7068691E+06 -0.2864686E+05  0.8575714E-01  0.3262329E-01  0.2393405E+07  0.7490727E+05
  0.8238096E+00 -0.7150097E+06 -0.3655947E+05  0.1963356E-01  0.1013184E-01  0.2411858E+07  0.9524359E+05
  0.8547620E+00 -0.7238488E+06 -0.4614633E+05  0.3670270E-01  0.4760742E-02  0.2431968E+07  0.1197785E+06
  0.8857143E+00 -0.7315351E+06 -0.5758087E+05  0.2032864E-01  0.1562500E-01  0.2449510E+07  0.1489118E+06
  0.9166667E+00 -0.7396996E+06 -0.7110291E+05  0.1198509E-02  0.1928711E-01  0.2467461E+07  0.1831847E+06
  0.9476191E+00 -0.7466900E+06 -0.8687920E+05  0.7970608E-01  0.1251221E-01  0.2481299E+07  0.2227983E+06
  0.9785714E+00 -0.7533568E+06 -0.1051826E+06  0.8292317E-01  0.4681396E-01  0.2493537E+07  0.2684140E+06
  0.1009524E+01 -0.7588256E+06 -0.1261094E+06  0.1460093E-01 -0.2258301E-01  0.2504170E+07  0.3202828E+06
  0.1040476E+01 -0.7615089E+06 -0.1496551E+06 -0.9121753E-02 -0.6652832E-02  0.2505098E+07  0.3780088E+06
  0.1071429E+01 -0.7642269E+06 -0.1760735E+06 -0.4386393E-02 -0.2392578E-01  0.2507847E+07  0.4425604E+06
  0.1102381E+01 -0.7635026E+06 -0.2050266E+06  0.1857552E-01 -0.4028320E-02  0.2502559E+07  0.5126498E+06
  0.1133333E+01 -0.7614679E+06 -0.2365308E+06  0.2033009E-01  0.2404785E-01  0.2492807E+07  0.5882957E+06
  0.1164286E+01 -0.7564238E+06 -0.2699154E+06  0.2150647E-01 -0.1379395E-01  0.2476900E+07  0.6675283E+06
  0.1195238E+01 -0.7470652E+06 -0.3045811E+06  0.2629861E-01 -0.5981445E-02  0.2446752E+07  0.7480348E+06
  0.1226190E+01 -0.7368463E+06 -0.3408102E+06 -0.4616747E-02 -0.3454590E-01  0.2417192E+07  0.8318820E+06
  0.1257143E+01 -0.7220336E+06 -0.3770696E+06 -0.1685619E-01 -0.3405762E-01  0.2376227E+07  0.9142047E+06
  0.1288095E+01 -0.7053097E+06 -0.4133276E+06 -0.3133270E-01  0.5004883E-02  0.2331454E+07  0.9952459E+06
  0.1319048E+01 -0.6864262E+06 -0.4486515E+06  0.3641617E-01  0.2636719E-01  0.2281963E+07  0.1072857E+07
  0.1350000E+01 -0.6643161E+06 -0.4815435E+06  0.3680194E-01  0.2075195E-01  0.2225502E+07  0.1142833E+07
  0.1380952E+01 -0.6395084E+06 -0.5113660E+06  0.2178955E-01 -0.7324219E-03  0.2160864E+07  0.1202976E+07
  0.1411905E+01 -0.6147708E+06 -0.5386635E+06 -0.1789678E-01 -0.4614258E-01  0.2100284E+07  0.1258245E+07
  0.1442857E+01 -0.5885170E+06 -0.5620710E+06  0.6040667E-01  0.9521484E-02  0.2035439E+07  0.1301721E+07
  0.1473810E+01 -0.5617164E+06 -0.5815099E+06 -0.9193728E-02 -0.3662109E-02  0.1972061E+07  0.1335744E+07
  0.1504762E+01 -0.5355874E+06 -0.5968368E+06 -0.3106998E-01 -0.2099609E-01  0.1909103E+07  0.1358145E+07
  0.1535714E+01 -0.5102421E+06 -0.6082808E+06 -0.1510265E-02 -0.2563477E-01  0.1850949E+07  0.1372177E+07
  0.1566667E+01 -0.4848840E+06 -0.6146721E+06  0.3171231E-01  0.2563477E-02  0.1792474E+07  0.1372620E+07
  0.1597619E+01 -0.4603847E+06 -0.6167222E+06  0.2391559E-01  0.1306152E-01  0.1735898E+07  0.1361848E+07
  0.1628572E+01 -0.4388432E+06 -0.6168547E+06 -0.2061275E-01  0.1220703E-02  0.1688921E+07  0.1349433E+07
  0.1659524E+01 -0.4183732E+06 -0.6127173E+06 -0.1529995E-01 -0.1501465E-01  0.1643917E+07  0.1325376E+07
  0.1690476E+01 -0.3991675E+06 -0.6053752E+06  0.2122992E-01  0.1904297E-01  0.1604274E+07  0.1296515E+07
  0.1721429E+01 -0.3820953E+06 -0.5956920E+06 -0.5290052E-01 -0.1367188E-01  0.1568970E+07  0.1261424E+07
  0.1752381E+01 -0.3673230E+06 -0.5845769E+06 -0.1114555E-02  0.2563477E-02  0.1539406E+07  0.1223693E+07
  0.1783333E+01 -0.3539374E+06 -0.5714368E+06  0.4832615E-01 -0.0000000E+00  0.1514811E+07  0.1183958E+07
  0.1814286E+01 -0.3415853E+06 -0.5552469E+06  0.2946989E-01 -0.4638672E-02  0.1491178E+07  0.1133754E+07
  0.1845238E+01 -0.3307900E+06 -0.5379891E+06  0.1455393E-01 -0.4394531E-02  0.1471173E+07  0.1081983E+07
  0.1876190E+01 -0.3223236E+06 -0.5222532E+06 -0.5205029E-03 -0.5371094E-02  0.1457735E+07  0.1038752E+07
  0.1907143E+01 -0.3152402E+06 -0.5054017E+06 -0.1216131E-01 -0.1647949E-02  0.1446876E+07  0.9910880E+06
  0.1938095E+01 -0.3086223E+06 -0.4863807E+06  0.1637602E-02 -0.5249023E-02  0.1437565E+07  0.9408603E+06
  0.1969048E+01 -0.3034050E+06 -0.4680052E+06 -0.2293800E-01 -0.4821777E-02  0.1431608E+07  0.8947292E+06
  0.2000000E+01 -0.2995982E+06 -0.4495897E+06 -0.1391602E-01  0.7934570E-03  0.1428154E+07  0.8453766E+06
