VARIABLES="w (rad/s)"
"A   1   1" "B   1   1"
"A   1   2" "B   1   2"
"A   1   3" "B   1   3"
Zone t="Motion of body    1 in DoF   1",I=    64,F=POINT
  0.5000000E-01  0.1349529E+05  0.1808768E-03 -0.5245209E-03 -0.4169369E-05 -0.1022501E+05 -0.1150966E-03
  0.8095238E-01  0.1354483E+05  0.7283890E-03  0.3769818E-03 -0.1063956E-05 -0.1030147E+05 -0.4770972E-03
  0.1119048E+00  0.1358048E+05  0.2084391E-02 -0.1874883E-02 -0.6495664E-05 -0.1034414E+05 -0.1358904E-02
  0.1428571E+00  0.1360715E+05  0.4660148E-02  0.1201630E-03 -0.4776219E-05 -0.1036849E+05 -0.3031413E-02
  0.1738095E+00  0.1363146E+05  0.9266056E-02 -0.8120602E-03 -0.7377610E-05 -0.1036789E+05 -0.5948688E-02
  0.2047619E+00  0.1363946E+05  0.1717996E-01  0.5961573E-03  0.3726105E-05 -0.1037758E+05 -0.1104222E-01
  0.2357143E+00  0.1364958E+05  0.3029422E-01 -0.6554343E-03 -0.7173105E-05 -0.1037852E+05 -0.1947545E-01
  0.2666667E+00  0.1367727E+05  0.5176583E-01 -0.1459122E-02 -0.2107368E-04 -0.1037545E+05 -0.3319873E-01
  0.2976190E+00  0.1368337E+05  0.8693465E-01 -0.1217651E-02 -0.1647690E-04 -0.1038787E+05 -0.5565573E-01
  0.3285715E+00  0.1368121E+05  0.1440110E+00 -0.1648612E-02 -0.3976654E-04 -0.1038945E+05 -0.9199175E-01
  0.3595238E+00  0.1372106E+05  0.2369563E+00 -0.4031958E-03 -0.1172163E-04 -0.1038856E+05 -0.1507276E+00
  0.3904762E+00  0.1374158E+05  0.3869925E+00 -0.6838542E-03 -0.4032627E-04 -0.1039322E+05 -0.2452899E+00
  0.4214286E+00  0.1374009E+05  0.6236242E+00 -0.1221996E-02 -0.7849652E-04 -0.1040410E+05 -0.3943544E+00
  0.4523810E+00  0.1375999E+05  0.9967798E+00  0.1349198E-03 -0.7490721E-04 -0.1040602E+05 -0.6279498E+00
  0.4833333E+00  0.1381616E+05  0.1555772E+01  0.5130110E-03  0.6376952E-04 -0.1040563E+05 -0.9745643E+00
  0.5142857E+00  0.1384443E+05  0.2386342E+01  0.8159214E-03  0.3553368E-04 -0.1042249E+05 -0.1488875E+01
  0.5452381E+00  0.1385379E+05  0.3571788E+01  0.6296749E-03  0.2300739E-04 -0.1043269E+05 -0.2219855E+01
  0.5761905E+00  0.1390012E+05  0.5227039E+01 -0.1761066E-02 -0.2192371E-03 -0.1043446E+05 -0.3230067E+01
  0.6071429E+00  0.1394304E+05  0.7508409E+01 -0.1130945E-02 -0.7736683E-04 -0.1044688E+05 -0.4615524E+01
  0.6380953E+00  0.1398525E+05  0.1054908E+02  0.2749998E-03  0.1316518E-03 -0.1046412E+05 -0.6450085E+01
  0.6690477E+00  0.1401955E+05  0.1456514E+02  0.5701683E-03  0.1125336E-03 -0.1048346E+05 -0.8858998E+01
  0.7000000E+00  0.1404689E+05  0.1980611E+02  0.3051758E-02  0.3208071E-03 -0.1049256E+05 -0.1197795E+02
  0.7309524E+00  0.1410436E+05  0.2654315E+02  0.6366940E-03  0.8538365E-04 -0.1050874E+05 -0.1594770E+02
  0.7619048E+00  0.1417192E+05  0.3512048E+02  0.1301765E-03  0.5009770E-04 -0.1052367E+05 -0.2095061E+02
  0.7928572E+00  0.1423470E+05  0.4590913E+02  0.1183587E-02  0.4397631E-03 -0.1054975E+05 -0.2720441E+02
  0.8238096E+00  0.1427792E+05  0.5931262E+02  0.2407890E-03 -0.1657009E-03 -0.1057249E+05 -0.3491946E+02
  0.8547620E+00  0.1432469E+05  0.7583150E+02 -0.2151106E-02 -0.6691813E-03 -0.1059129E+05 -0.4433007E+02
  0.8857143E+00  0.1439342E+05  0.9606728E+02  0.6977204E-03 -0.2503395E-03 -0.1060928E+05 -0.5571166E+02
  0.9166667E+00  0.1446844E+05  0.1206245E+03  0.5826083E-03  0.3069639E-03 -0.1063318E+05 -0.6939062E+02
  0.9476191E+00  0.1454419E+05  0.1501857E+03  0.3703515E-03 -0.1487732E-03 -0.1065583E+05 -0.8567451E+02
  0.9785714E+00  0.1462696E+05  0.1855442E+03  0.7640533E-03  0.4303455E-03 -0.1068243E+05 -0.1049364E+03
  0.1009524E+01  0.1471067E+05  0.2275161E+03  0.1269646E-02  0.3597736E-03 -0.1070733E+05 -0.1275191E+03
  0.1040476E+01  0.1478873E+05  0.2769605E+03  0.1745158E-02  0.1051188E-02 -0.1074113E+05 -0.1539024E+03
  0.1071429E+01  0.1485693E+05  0.3347830E+03  0.1851400E-02  0.3743172E-03 -0.1076512E+05 -0.1843485E+03
  0.1102381E+01  0.1493900E+05  0.4022062E+03  0.1827100E-02  0.2555847E-03 -0.1079193E+05 -0.2193683E+03
  0.1133333E+01  0.1503071E+05  0.4803533E+03  0.1386755E-02  0.3194809E-04 -0.1081316E+05 -0.2592960E+03
  0.1164286E+01  0.1513394E+05  0.5705140E+03 -0.9173995E-03 -0.3485680E-03 -0.1083610E+05 -0.3046647E+03
  0.1195238E+01  0.1524189E+05  0.6739077E+03  0.1148969E-02 -0.2593994E-03 -0.1086633E+05 -0.3560543E+03
  0.1226190E+01  0.1534092E+05  0.7916793E+03 -0.5475387E-03 -0.5083084E-03 -0.1089311E+05 -0.4137520E+03
  0.1257143E+01  0.1542420E+05  0.9249137E+03  0.5826083E-03  0.4377365E-03 -0.1091366E+05 -0.4780684E+03
  0.1288095E+01  0.1553445E+05  0.1076125E+04 -0.6396846E-03 -0.1325607E-03 -0.1094721E+05 -0.5499294E+03
  0.1319048E+01  0.1561826E+05  0.1245243E+04 -0.6940820E-04 -0.1053810E-02 -0.1096470E+05 -0.6288498E+03
  0.1350000E+01  0.1570933E+05  0.1434340E+04  0.8929217E-03  0.1449585E-03 -0.1098100E+05 -0.7154468E+03
  0.1380952E+01  0.1580318E+05  0.1644737E+04  0.1723717E-02  0.1573563E-02 -0.1099886E+05 -0.8102177E+03
  0.1411905E+01  0.1577252E+05  0.1853248E+04 -0.1394134E-02 -0.1827240E-02 -0.1099710E+05 -0.9038465E+03
  0.1442857E+01  0.1585626E+05  0.2106193E+04  0.1004663E-02  0.1277924E-02 -0.1100014E+05 -0.1013521E+04
  0.1473810E+01  0.1594495E+05  0.2384090E+04  0.6004912E-03 -0.7400513E-03 -0.1100973E+05 -0.1132041E+04
  0.1504762E+01  0.1602380E+05  0.2687208E+04  0.5070167E-03  0.8010864E-04 -0.1101005E+05 -0.1258344E+04
  0.1535714E+01  0.1609742E+05  0.3016652E+04 -0.2185910E-03  0.1041412E-02 -0.1100605E+05 -0.1392477E+04
  0.1566667E+01  0.1616422E+05  0.3372752E+04  0.1110320E-02  0.6523132E-03 -0.1099740E+05 -0.1533968E+04
  0.1597619E+01  0.1621810E+05  0.3755976E+04 -0.1203420E-02 -0.7171631E-03 -0.1098948E+05 -0.1683210E+04
  0.1628572E+01  0.1625371E+05  0.4165864E+04 -0.3935161E-03 -0.8926392E-03 -0.1097377E+05 -0.1838686E+04
  0.1659524E+01  0.1626855E+05  0.4601616E+04 -0.4413446E-03  0.2365112E-03 -0.1094543E+05 -0.1998917E+04
  0.1690476E+01  0.1627762E+05  0.5063564E+04  0.2166318E-03 -0.1953125E-02 -0.1091780E+05 -0.2164616E+04
  0.1721429E+01  0.1627611E+05  0.5549831E+04  0.3545611E-04 -0.8239746E-03 -0.1088153E+05 -0.2333384E+04
  0.1752381E+01  0.1625424E+05  0.6058051E+04 -0.2612238E-03  0.3311157E-02 -0.1083127E+05 -0.2503348E+04
  0.1783333E+01  0.1622622E+05  0.6588057E+04 -0.8042951E-03 -0.9918213E-04 -0.1077802E+05 -0.2674777E+04
  0.1814286E+01  0.1618620E+05  0.7137231E+04  0.3532350E-03 -0.1251221E-02 -0.1072118E+05 -0.2846275E+04
  0.1845238E+01  0.1612874E+05  0.7704152E+04 -0.7607737E-03 -0.2113342E-02 -0.1066381E+05 -0.3017974E+04
  0.1876190E+01  0.1605192E+05  0.8285113E+04 -0.1041006E-02 -0.1167297E-02 -0.1060036E+05 -0.3186739E+04
  0.1907143E+01  0.1595141E+05  0.8875778E+04  0.3040328E-03  0.9155273E-04 -0.1052358E+05 -0.3348532E+04
  0.1938095E+01  0.1584001E+05  0.9475302E+04  0.7558162E-03  0.1708984E-02 -0.1044839E+05 -0.3506208E+04
  0.1969048E+01  0.1571745E+05  0.1007933E+05 -0.1968329E-02 -0.3128052E-02 -0.1037187E+05 -0.3657261E+04
  0.2000000E+01  0.1557443E+05  0.1068200E+05 -0.2593994E-03 -0.0000000E+00 -0.1028494E+05 -0.3797105E+04
Zone t="Motion of body    1 in DoF   2",I=    64,F=POINT
  0.5000000E-01 -0.3166199E-02  0.1221895E-05  0.1043581E+05  0.1768682E+02 -0.1239777E-02  0.2160668E-05
  0.8095238E-01  0.2356137E-03 -0.5960464E-06  0.1038318E+05  0.2938116E+02  0.4123239E-03 -0.1549721E-05
  0.1119048E+00  0.1533995E-03 -0.2384186E-05  0.1035982E+05  0.4219098E+02 -0.5795093E-03  0.1370907E-05
  0.1428571E+00 -0.1014709E-02  0.3814697E-05  0.1035860E+05  0.5664290E+02 -0.1468658E-02 -0.3695488E-05
  0.1738095E+00 -0.1075431E-02  0.5722046E-05  0.1036595E+05  0.7341853E+02  0.9108243E-03  0.1788139E-05
  0.2047619E+00  0.4657479E-03 -0.1668930E-05  0.1039343E+05  0.9334389E+02  0.3632834E-03  0.8225441E-05
  0.2357143E+00 -0.2265699E-03 -0.2908707E-04  0.1043540E+05  0.1176253E+03 -0.5664247E-03 -0.1907349E-05
  0.2666667E+00 -0.1573563E-02  0.6437302E-05  0.1048270E+05  0.1473879E+03 -0.1573562E-03 -0.5364418E-05
  0.2976190E+00  0.9997559E-03  0.7152557E-05  0.1054439E+05  0.1848363E+03  0.2217407E-02 -0.2050400E-04
  0.3285715E+00  0.1160995E-03 -0.2622604E-04  0.1061523E+05  0.2315277E+03  0.4527879E-03  0.2408028E-04
  0.3595238E+00  0.3607541E-03  0.4482269E-04  0.1068246E+05  0.2902809E+03 -0.7427291E-04  0.1883507E-04
  0.3904762E+00  0.1172321E-03 -0.7820129E-04  0.1075439E+05  0.3636877E+03 -0.2549799E-02  0.3385544E-04
  0.4214286E+00  0.1176737E-02 -0.8678436E-04  0.1081864E+05  0.4517325E+03 -0.5612130E-03 -0.4482269E-04
  0.4523810E+00 -0.1433523E-02 -0.3337860E-04  0.1087237E+05  0.5592650E+03  0.9444387E-03 -0.4339218E-04
  0.4833333E+00 -0.2304603E-02 -0.1411438E-03  0.1090460E+05  0.6793419E+03  0.0000000E+00 -0.8296967E-04
  0.5142857E+00  0.2581279E-02 -0.5149841E-04  0.1092360E+05  0.8173777E+03  0.1527998E-02  0.6198883E-04
  0.5452381E+00  0.5876966E-03 -0.2670288E-04  0.1093274E+05  0.9678951E+03  0.2238844E-03 -0.1239777E-03
  0.5761905E+00 -0.1721343E-02  0.3051758E-04  0.1092059E+05  0.1129235E+04  0.7679836E-03 -0.6771088E-04
  0.6071429E+00 -0.2161362E-02 -0.3433228E-04  0.1088585E+05  0.1304882E+04 -0.7916618E-03  0.6294250E-04
  0.6380953E+00 -0.7652169E-03 -0.5722046E-04  0.1085107E+05  0.1487498E+04  0.4902171E-03 -0.1335144E-04
  0.6690477E+00 -0.3078908E-02 -0.7629395E-05  0.1080972E+05  0.1680637E+04 -0.1721908E-02 -0.1087189E-03
  0.7000000E+00  0.2201625E-02  0.2441406E-03  0.1075098E+05  0.1885350E+04  0.8719308E-04 -0.3452301E-03
  0.7309524E+00  0.2024896E-02 -0.1678467E-03  0.1068396E+05  0.2097740E+04 -0.1805706E-02 -0.5474091E-03
  0.7619048E+00 -0.2142906E-02 -0.3814697E-03  0.1060443E+05  0.2318884E+04 -0.2303123E-02  0.3089905E-03
  0.7928572E+00  0.1096983E-02 -0.9155273E-04  0.1051666E+05  0.2548193E+04  0.1481889E-02 -0.8010864E-04
  0.8238096E+00 -0.2759812E-02 -0.2441406E-03  0.1042261E+05  0.2784612E+04  0.9261115E-04 -0.1258850E-03
  0.8547620E+00  0.1071090E-03 -0.1296997E-03  0.1032247E+05  0.3027018E+04  0.1606636E-03 -0.5416870E-03
  0.8857143E+00 -0.6374236E-03 -0.1602173E-03  0.1021392E+05  0.3274669E+04  0.7407896E-03 -0.1792908E-03
  0.9166667E+00  0.1581365E-02 -0.1754761E-03  0.1009435E+05  0.3526721E+04 -0.1098633E-02 -0.7247925E-04
  0.9476191E+00  0.3864537E-03  0.3814697E-04  0.9963598E+04  0.3782219E+04  0.2898403E-03 -0.3166199E-03
  0.9785714E+00  0.2494868E-03 -0.4119873E-03  0.9827291E+04  0.4039658E+04  0.6549028E-03  0.2555847E-03
  0.1009524E+01 -0.1587058E-02  0.8239746E-03  0.9688309E+04  0.4297844E+04 -0.1466139E-02 -0.6866455E-04
  0.1040476E+01  0.8212511E-03  0.1312256E-02  0.9545436E+04  0.4555892E+04  0.5132819E-03  0.2136230E-03
  0.1071429E+01  0.1538086E-02  0.8087158E-03  0.9396944E+04  0.4813411E+04 -0.1438395E-02 -0.8163452E-03
  0.1102381E+01  0.4152500E-03 -0.4272461E-03  0.9244977E+04  0.5069114E+04  0.2339242E-02  0.2670288E-03
  0.1133333E+01 -0.5385455E-04 -0.7476807E-03  0.9086763E+04  0.5322567E+04 -0.7135728E-03 -0.4653931E-03
  0.1164286E+01  0.3407484E-03 -0.6866455E-03  0.8925604E+04  0.5572434E+04 -0.1179514E-02  0.6484985E-03
  0.1195238E+01  0.1531958E-03 -0.3051758E-04  0.8760412E+04  0.5817943E+04  0.7787453E-03  0.5569458E-03
  0.1226190E+01  0.1319070E-02 -0.5035400E-03  0.8593335E+04  0.6058389E+04 -0.1057745E-02 -0.3585815E-03
  0.1257143E+01 -0.4369562E-03 -0.3051758E-04  0.8425100E+04  0.6298101E+04  0.7768110E-03 -0.1266479E-02
  0.1288095E+01 -0.2061206E-02  0.6866455E-03  0.8259977E+04  0.6519582E+04 -0.9121427E-03 -0.3738403E-03
  0.1319048E+01 -0.4627214E-04  0.6103516E-04  0.8093372E+04  0.6739925E+04  0.1272484E-03 -0.2517700E-03
  0.1350000E+01  0.6103516E-03  0.7781982E-03  0.7928474E+04  0.6952034E+04 -0.4521123E-03 -0.5569458E-03
  0.1380952E+01 -0.5745724E-03  0.8392334E-03  0.7764704E+04  0.7155645E+04 -0.1016551E-02 -0.1441956E-02
  0.1411905E+01 -0.1296868E-03  0.1205444E-02  0.7572033E+04  0.7337240E+04 -0.1091531E-02 -0.6027222E-03
  0.1442857E+01  0.8460319E-03 -0.4577637E-03  0.7407740E+04  0.7526515E+04  0.1057540E-03  0.4730225E-03
  0.1473810E+01 -0.1449462E-03 -0.9307861E-03  0.7245810E+04  0.7706253E+04 -0.5280182E-03 -0.1525879E-04
  0.1504762E+01 -0.2839294E-03 -0.1190186E-02  0.7084955E+04  0.7877356E+04 -0.5070167E-03 -0.1129150E-02
  0.1535714E+01  0.6160292E-03  0.2227783E-02  0.6927387E+04  0.8038449E+04  0.2980786E-04 -0.7934570E-03
  0.1566667E+01 -0.9739652E-04  0.1190186E-02  0.6772852E+04  0.8189104E+04  0.4188051E-03 -0.1068115E-02
  0.1597619E+01  0.7640765E-04 -0.4577637E-03  0.6622323E+04  0.8329333E+04 -0.3915892E-03 -0.9918213E-03
  0.1628572E+01 -0.3560384E-03 -0.1098633E-02  0.6475414E+04  0.8460092E+04 -0.2904524E-03  0.9918213E-03
  0.1659524E+01  0.9930254E-03 -0.1068115E-02  0.6330959E+04  0.8581878E+04  0.4413446E-03 -0.8087158E-03
  0.1690476E+01  0.9206852E-03 -0.6103516E-03  0.6192204E+04  0.8692829E+04 -0.9928958E-04 -0.7629395E-03
  0.1721429E+01 -0.3191050E-03  0.5187988E-03  0.6056602E+04  0.8794289E+04 -0.2570568E-03 -0.7171631E-03
  0.1752381E+01  0.1219045E-03  0.1434326E-02  0.5923600E+04  0.8888248E+04  0.1741492E-04 -0.1449585E-02
  0.1783333E+01  0.5647178E-03 -0.5798340E-03  0.5795424E+04  0.8971942E+04  0.5390488E-03 -0.1693726E-02
  0.1814286E+01  0.3027728E-03  0.1251221E-02  0.5670487E+04  0.9046426E+04 -0.1093346E-03 -0.1525879E-03
  0.1845238E+01 -0.2976941E-03  0.7629395E-03  0.5549598E+04  0.9112458E+04  0.7938508E-03  0.4577637E-04
  0.1876190E+01 -0.1057271E-02  0.6408691E-03  0.5432729E+04  0.9170593E+04 -0.1626571E-03 -0.9155273E-04
  0.1907143E+01  0.9921071E-03  0.5187988E-03  0.5317902E+04  0.9221146E+04  0.8320898E-03 -0.9155273E-04
  0.1938095E+01  0.8266740E-03  0.1861572E-02  0.5209118E+04  0.9262119E+04 -0.5196236E-03 -0.4272461E-03
  0.1969048E+01 -0.7981805E-03  0.1586914E-02  0.5104756E+04  0.9293494E+04 -0.4107142E-03  0.4425049E-03
  0.2000000E+01 -0.8087158E-03  0.2258301E-02  0.5003881E+04  0.9317957E+04 -0.1602173E-03 -0.1098633E-02
Zone t="Motion of body    1 in DoF   3",I=    64,F=POINT
  0.5000000E-01 -0.1021250E+05 -0.1158512E-03  0.2718717E-02  0.4957097E-05  0.1858607E+05  0.6760992E-04
  0.8095238E-01 -0.1029079E+05 -0.4727279E-03  0.2719681E-02  0.9601758E-05  0.1867733E+05  0.3278679E-03
  0.1119048E+00 -0.1033631E+05 -0.1358896E-02  0.3944445E-02  0.1670532E-04  0.1870332E+05  0.8743253E-03
  0.1428571E+00 -0.1036326E+05 -0.3015818E-02 -0.5751550E-03  0.7736453E-06  0.1870746E+05  0.1977266E-02
  0.1738095E+00 -0.1036289E+05 -0.5923440E-02  0.2121027E-02  0.1609575E-04  0.1870759E+05  0.3770840E-02
  0.2047619E+00 -0.1037368E+05 -0.1099387E-01  0.1564622E-02  0.1337622E-04  0.1870690E+05  0.7024080E-02
  0.2357143E+00 -0.1037438E+05 -0.1939089E-01  0.1640356E-02  0.2598304E-04  0.1870787E+05  0.1245654E-01
  0.2666667E+00 -0.1037051E+05 -0.3307102E-01  0.1733377E-02  0.2659817E-04  0.1871167E+05  0.2121755E-01
  0.2976190E+00 -0.1038450E+05 -0.5541068E-01  0.1092682E-02  0.1968903E-04  0.1870908E+05  0.3548482E-01
  0.3285715E+00 -0.1038460E+05 -0.9154486E-01  0.1168614E-02  0.2226944E-04  0.1871124E+05  0.5851255E-01
  0.3595238E+00 -0.1038427E+05 -0.1501461E+00  0.1135314E-02  0.4152337E-04  0.1871179E+05  0.9552632E-01
  0.3904762E+00 -0.1038935E+05 -0.2443616E+00  0.1561874E-02  0.5307305E-04  0.1871343E+05  0.1548724E+00
  0.4214286E+00 -0.1039979E+05 -0.3925020E+00  0.2594479E-02  0.7649418E-04  0.1871229E+05  0.2482400E+00
  0.4523810E+00 -0.1040089E+05 -0.6251187E+00  0.1553422E-02  0.4048087E-04  0.1871625E+05  0.3939131E+00
  0.4833333E+00 -0.1040012E+05 -0.9715589E+00 -0.1368605E-02 -0.1012450E-03  0.1872395E+05  0.6085449E+00
  0.5142857E+00 -0.1041857E+05 -0.1483736E+01 -0.1690951E-02 -0.1323000E-03  0.1872303E+05  0.9255700E+00
  0.5452381E+00 -0.1042644E+05 -0.2210673E+01 -0.1403650E-03  0.1696385E-03  0.1873204E+05  0.1373850E+01
  0.5761905E+00 -0.1042803E+05 -0.3219836E+01 -0.1238456E-02 -0.1548640E-03  0.1873624E+05  0.1989799E+01
  0.6071429E+00 -0.1044146E+05 -0.4601782E+01 -0.1207520E-02 -0.1200475E-03  0.1873885E+05  0.2829236E+01
  0.6380953E+00 -0.1045938E+05 -0.6429965E+01 -0.2559441E-03 -0.3436953E-04  0.1874430E+05  0.3931683E+01
  0.6690477E+00 -0.1047843E+05 -0.8826146E+01 -0.2886120E-02 -0.3696308E-03  0.1874981E+05  0.5368772E+01
  0.7000000E+00 -0.1048538E+05 -0.1193120E+02 -0.2896786E-02 -0.5288869E-03  0.1875993E+05  0.7216419E+01
  0.7309524E+00 -0.1050184E+05 -0.1589066E+02 -0.1400596E-02 -0.2541691E-03  0.1876838E+05  0.9548032E+01
  0.7619048E+00 -0.1051785E+05 -0.2088907E+02 -0.1879737E-02 -0.6450266E-03  0.1877327E+05  0.1246111E+02
  0.7928572E+00 -0.1054513E+05 -0.2711814E+02  0.1183587E-02  0.2102852E-03  0.1878008E+05  0.1606937E+02
  0.8238096E+00 -0.1056733E+05 -0.3478259E+02 -0.1992297E-02 -0.5517900E-03  0.1878803E+05  0.2047825E+02
  0.8547620E+00 -0.1058423E+05 -0.4414010E+02 -0.2447330E-02 -0.7329583E-03  0.1879931E+05  0.2580507E+02
  0.8857143E+00 -0.1060163E+05 -0.5549318E+02  0.1825594E-02  0.3585815E-03  0.1880908E+05  0.3218237E+02
  0.9166667E+00 -0.1062593E+05 -0.6912685E+02 -0.4911596E-02 -0.1589835E-02  0.1881890E+05  0.3976402E+02
  0.9476191E+00 -0.1064910E+05 -0.8536108E+02 -0.1533235E-02 -0.8931160E-03  0.1882734E+05  0.4868997E+02
  0.9785714E+00 -0.1067633E+05 -0.1045542E+03 -0.1590965E-02 -0.9280443E-03  0.1883502E+05  0.5912496E+02
  0.1009524E+01 -0.1070147E+05 -0.1270681E+03 -0.7821929E-03 -0.5879402E-03  0.1884476E+05  0.7121662E+02
  0.1040476E+01 -0.1073501E+05 -0.1532310E+03 -0.1701163E-02 -0.1254201E-02  0.1885218E+05  0.8515386E+02
  0.1071429E+01 -0.1075744E+05 -0.1834628E+03 -0.1750819E-02 -0.7288456E-03  0.1886224E+05  0.1010358E+03
  0.1102381E+01 -0.1078298E+05 -0.2182740E+03  0.4308218E-03  0.5021095E-03  0.1887607E+05  0.1190556E+03
  0.1133333E+01 -0.1080394E+05 -0.2581058E+03 -0.1146092E-02 -0.7536411E-03  0.1888502E+05  0.1393122E+03
  0.1164286E+01 -0.1082756E+05 -0.3034236E+03 -0.5864804E-03  0.1962185E-03  0.1889266E+05  0.1619936E+03
  0.1195238E+01 -0.1085862E+05 -0.3545788E+03  0.3063916E-03  0.3843307E-03  0.1889588E+05  0.1872720E+03
  0.1226190E+01 -0.1088573E+05 -0.4119669E+03 -0.1573396E-02 -0.1011372E-02  0.1890152E+05  0.2152252E+03
  0.1257143E+01 -0.1090639E+05 -0.4758108E+03 -0.1210733E-02 -0.1521587E-02  0.1890556E+05  0.2458739E+03
  0.1288095E+01 -0.1093925E+05 -0.5470376E+03 -0.2526902E-02 -0.1791954E-02  0.1891120E+05  0.2795310E+03
  0.1319048E+01 -0.1095589E+05 -0.6253554E+03 -0.3130599E-03 -0.5388260E-03  0.1891472E+05  0.3158622E+03
  0.1350000E+01 -0.1097121E+05 -0.7114631E+03 -0.1678467E-02 -0.1857758E-02  0.1891796E+05  0.3549665E+03
  0.1380952E+01 -0.1098811E+05 -0.8055158E+03 -0.1071798E-02 -0.1325607E-02  0.1891811E+05  0.3968281E+03
  0.1411905E+01 -0.1106875E+05 -0.9151068E+03 -0.1567049E-02 -0.1832962E-02  0.1892656E+05  0.4461867E+03
  0.1442857E+01 -0.1107327E+05 -0.1026780E+04 -0.5327357E-03  0.6008148E-04  0.1892105E+05  0.4937774E+03
  0.1473810E+01 -0.1108373E+05 -0.1146848E+04  0.3494238E-04  0.2536774E-03  0.1891568E+05  0.5439999E+03
  0.1504762E+01 -0.1108520E+05 -0.1275159E+04 -0.5894069E-03 -0.2346039E-03  0.1890631E+05  0.5963950E+03
  0.1535714E+01 -0.1108233E+05 -0.1411674E+04 -0.1196041E-02 -0.2460480E-03  0.1889757E+05  0.6508130E+03
  0.1566667E+01 -0.1107489E+05 -0.1555494E+04  0.4650684E-03  0.6713867E-03  0.1888094E+05  0.7066641E+03
  0.1597619E+01 -0.1106690E+05 -0.1706155E+04  0.3509976E-03  0.3452301E-03  0.1886535E+05  0.7639803E+03
  0.1628572E+01 -0.1105093E+05 -0.1862975E+04  0.1656047E-02  0.3839493E-02  0.1884887E+05  0.8220952E+03
  0.1659524E+01 -0.1102286E+05 -0.2025332E+04  0.2413603E-03  0.7400513E-03  0.1882752E+05  0.8801293E+03
  0.1690476E+01 -0.1099442E+05 -0.2192829E+04  0.1029001E-02  0.1840591E-02  0.1881017E+05  0.9381192E+03
  0.1721429E+01 -0.1095731E+05 -0.2363854E+04  0.9905550E-03  0.1117706E-02  0.1878658E+05  0.9944983E+03
  0.1752381E+01 -0.1090764E+05 -0.2537891E+04 -0.2895231E-03 -0.1075745E-02  0.1876049E+05  0.1049108E+04
  0.1783333E+01 -0.1085452E+05 -0.2713537E+04  0.1708057E-02  0.9384155E-03  0.1873356E+05  0.1101639E+04
  0.1814286E+01 -0.1079767E+05 -0.2887776E+04 -0.1686277E-02 -0.9155273E-03  0.1869761E+05  0.1150761E+04
  0.1845238E+01 -0.1073953E+05 -0.3060491E+04  0.5168300E-03  0.2063751E-02  0.1866367E+05  0.1197317E+04
  0.1876190E+01 -0.1067551E+05 -0.3230286E+04 -0.7736381E-03  0.1754761E-03  0.1863065E+05  0.1240667E+04
  0.1907143E+01 -0.1059956E+05 -0.3395028E+04 -0.3720401E-03  0.1205444E-02  0.1859134E+05  0.1278674E+04
  0.1938095E+01 -0.1052451E+05 -0.3554889E+04  0.9920087E-03  0.1327515E-02  0.1855723E+05  0.1313138E+04
  0.1969048E+01 -0.1044743E+05 -0.3707001E+04 -0.1358554E-02  0.8773804E-04  0.1852110E+05  0.1341437E+04
  0.2000000E+01 -0.1036083E+05 -0.3850516E+04 -0.5488396E-03  0.7743835E-03  0.1848481E+05  0.1364245E+04
