VARIABLES="w (rad/s)"
"abs(F   1   1)" "angle(F   1   1)"
"abs(F   1   2)" "angle(F   1   2)"
"abs(F   1   3)" "angle(F   1   3)"
Zone t="Diffraction force - beta =   0.000 deg",I=    64,F=POINT
  0.5000000E-01  0.1022071E+05 -0.1570787E+01  0.3957884E+06 -0.2646359E-04  0.4090289E+05  0.1570787E+01
  0.8095238E-01  0.1666808E+05 -0.1570796E+01  0.3940135E+06 -0.7101666E-04  0.6663673E+05  0.1570807E+01
  0.1119048E+00  0.2323737E+05 -0.1570788E+01  0.3914086E+06 -0.1404851E-03  0.9285412E+05  0.1570819E+01
  0.1428571E+00  0.3000491E+05 -0.1570771E+01  0.3879782E+06 -0.2397845E-03  0.1197417E+06  0.1570822E+01
  0.1738095E+00  0.3701524E+05 -0.1570763E+01  0.3837279E+06 -0.3757536E-03  0.1475942E+06  0.1570832E+01
  0.2047619E+00  0.4436627E+05 -0.1570737E+01  0.3786752E+06 -0.5593862E-03  0.1766391E+06  0.1570854E+01
  0.2357143E+00  0.5214802E+05 -0.1570710E+01  0.3728255E+06 -0.8055519E-03  0.2072533E+06  0.1570883E+01
  0.2666667E+00  0.6042782E+05 -0.1570672E+01  0.3661986E+06 -0.1130935E-02  0.2397842E+06  0.1570920E+01
  0.2976190E+00  0.6936766E+05 -0.1570610E+01  0.3588288E+06 -0.1568645E-02  0.2745976E+06  0.1570982E+01
  0.3285715E+00  0.7903223E+05 -0.1570522E+01  0.3507375E+06 -0.2144318E-02  0.3121751E+06  0.1571071E+01
  0.3595238E+00  0.8960063E+05 -0.1570388E+01  0.3419888E+06 -0.2908339E-02  0.3530736E+06  0.1571205E+01
  0.3904762E+00  0.1011746E+06 -0.1570191E+01  0.3326309E+06 -0.3909713E-02  0.3975126E+06  0.1571401E+01
  0.4214286E+00  0.1138867E+06 -0.1569904E+01  0.3227392E+06 -0.5169505E-02  0.4460256E+06  0.1571688E+01
  0.4523810E+00  0.1277880E+06 -0.1569486E+01  0.3124219E+06 -0.6800520E-02  0.4988820E+06  0.1572107E+01
  0.4833333E+00  0.1427768E+06 -0.1568913E+01  0.3016805E+06 -0.8701617E-02  0.5555292E+06  0.1572678E+01
  0.5142857E+00  0.1589940E+06 -0.1568125E+01  0.2907622E+06 -0.1101956E-01  0.6160124E+06  0.1573469E+01
  0.5452381E+00  0.1760620E+06 -0.1567082E+01  0.2795490E+06 -0.1368147E-01  0.6793907E+06  0.1574510E+01
  0.5761905E+00  0.1940239E+06 -0.1565744E+01  0.2681950E+06 -0.1667232E-01  0.7455585E+06  0.1575848E+01
  0.6071429E+00  0.2128480E+06 -0.1564030E+01  0.2567974E+06 -0.2013625E-01  0.8142956E+06  0.1577562E+01
  0.6380953E+00  0.2321749E+06 -0.1561917E+01  0.2452318E+06 -0.2389957E-01  0.8837823E+06  0.1579675E+01
  0.6690477E+00  0.2520698E+06 -0.1559323E+01  0.2337380E+06 -0.2807341E-01  0.9543011E+06  0.1582269E+01
  0.7000000E+00  0.2725296E+06 -0.1556165E+01  0.2223268E+06 -0.3274982E-01  0.1026238E+07  0.1585427E+01
  0.7309524E+00  0.2930997E+06 -0.1552400E+01  0.2108942E+06 -0.3784893E-01  0.1097710E+07  0.1589193E+01
  0.7619048E+00  0.3140394E+06 -0.1547945E+01  0.1996172E+06 -0.4341150E-01  0.1169162E+07  0.1593647E+01
  0.7928572E+00  0.3354448E+06 -0.1542724E+01  0.1886076E+06 -0.4947096E-01  0.1240617E+07  0.1598866E+01
  0.8238096E+00  0.3566518E+06 -0.1536664E+01  0.1777481E+06 -0.5611149E-01  0.1310135E+07  0.1604927E+01
  0.8547620E+00  0.3779460E+06 -0.1529695E+01  0.1670338E+06 -0.6338743E-01  0.1378867E+07  0.1611894E+01
  0.8857143E+00  0.3990239E+06 -0.1521754E+01  0.1567244E+06 -0.7109255E-01  0.1445002E+07  0.1619835E+01
  0.9166667E+00  0.4201450E+06 -0.1512779E+01  0.1467355E+06 -0.7939795E-01  0.1510264E+07  0.1628808E+01
  0.9476191E+00  0.4405044E+06 -0.1502747E+01  0.1370424E+06 -0.8844645E-01  0.1571469E+07  0.1638839E+01
  0.9785714E+00  0.4604454E+06 -0.1491653E+01  0.1276326E+06 -0.9833696E-01  0.1629061E+07  0.1649928E+01
  0.1009524E+01  0.4796941E+06 -0.1479475E+01  0.1186119E+06 -0.1088385E+00  0.1682121E+07  0.1662096E+01
  0.1040476E+01  0.4982454E+06 -0.1466197E+01  0.1100930E+06 -0.1196897E+00  0.1731104E+07  0.1675369E+01
  0.1071429E+01  0.5157418E+06 -0.1451831E+01  0.1019465E+06 -0.1314046E+00  0.1775454E+07  0.1689732E+01
  0.1102381E+01  0.5315296E+06 -0.1436481E+01  0.9413729E+05 -0.1441463E+00  0.1812088E+07  0.1705068E+01
  0.1133333E+01  0.5460568E+06 -0.1420156E+01  0.8670007E+05 -0.1580796E+00  0.1843638E+07  0.1721394E+01
  0.1164286E+01  0.5587224E+06 -0.1403065E+01  0.7967610E+05 -0.1726639E+00  0.1867295E+07  0.1738465E+01
  0.1195238E+01  0.5697432E+06 -0.1385385E+01  0.7315138E+05 -0.1872632E+00  0.1884007E+07  0.1756128E+01
  0.1226190E+01  0.5790335E+06 -0.1367325E+01  0.6701420E+05 -0.2028252E+00  0.1893800E+07  0.1774163E+01
  0.1257143E+01  0.5856060E+06 -0.1349066E+01  0.6125201E+05 -0.2196571E+00  0.1893694E+07  0.1792398E+01
  0.1288095E+01  0.5901717E+06 -0.1330899E+01  0.5581671E+05 -0.2378006E+00  0.1885543E+07  0.1810522E+01
  0.1319048E+01  0.5926326E+06 -0.1312796E+01  0.5075432E+05 -0.2575054E+00  0.1871335E+07  0.1828629E+01
  0.1350000E+01  0.5923581E+06 -0.1295394E+01  0.4606853E+05 -0.2770762E+00  0.1846756E+07  0.1845937E+01
  0.1380952E+01  0.5903299E+06 -0.1278714E+01  0.4174714E+05 -0.2968156E+00  0.1816760E+07  0.1862561E+01
  0.1411905E+01  0.5856098E+06 -0.1263533E+01  0.3777472E+05 -0.3170953E+00  0.1780085E+07  0.1877709E+01
  0.1442857E+01  0.5793366E+06 -0.1249263E+01  0.3410114E+05 -0.3387879E+00  0.1737277E+07  0.1891945E+01
  0.1473810E+01  0.5709614E+06 -0.1236689E+01  0.3069117E+05 -0.3627490E+00  0.1687765E+07  0.1904349E+01
  0.1504762E+01  0.5612031E+06 -0.1225511E+01  0.2758128E+05 -0.3874280E+00  0.1635624E+07  0.1915525E+01
  0.1535714E+01  0.5500504E+06 -0.1216262E+01  0.2471749E+05 -0.4147873E+00  0.1579846E+07  0.1924683E+01
  0.1566667E+01  0.5376540E+06 -0.1209225E+01  0.2209900E+05 -0.4403442E+00  0.1520480E+07  0.1931485E+01
  0.1597619E+01  0.5245228E+06 -0.1204092E+01  0.1972864E+05 -0.4666917E+00  0.1460568E+07  0.1936487E+01
  0.1628572E+01  0.5107467E+06 -0.1200924E+01  0.1758807E+05 -0.4930450E+00  0.1400601E+07  0.1939706E+01
  0.1659524E+01  0.4959834E+06 -0.1200172E+01  0.1563884E+05 -0.5206635E+00  0.1338670E+07  0.1940430E+01
  0.1690476E+01  0.4807011E+06 -0.1201980E+01  0.1386250E+05 -0.5522320E+00  0.1275990E+07  0.1938238E+01
  0.1721429E+01  0.4653124E+06 -0.1205876E+01  0.1225944E+05 -0.5844727E+00  0.1214605E+07  0.1934177E+01
  0.1752381E+01  0.4499586E+06 -0.1211710E+01  0.1082519E+05 -0.6167832E+00  0.1155164E+07  0.1928487E+01
  0.1783333E+01  0.4345036E+06 -0.1220131E+01  0.9524104E+04 -0.6539355E+00  0.1096093E+07  0.1919720E+01
  0.1814286E+01  0.4192501E+06 -0.1230644E+01  0.8348839E+04 -0.6935216E+00  0.1038848E+07  0.1908855E+01
  0.1845238E+01  0.4043190E+06 -0.1243013E+01  0.7308408E+04 -0.7301173E+00  0.9842218E+06  0.1896390E+01
  0.1876190E+01  0.3897058E+06 -0.1257195E+01  0.6384381E+04 -0.7643183E+00  0.9320459E+06  0.1882506E+01
  0.1907143E+01  0.3751994E+06 -0.1273696E+01  0.5554262E+04 -0.8034469E+00  0.8811451E+06  0.1866047E+01
  0.1938095E+01  0.3610718E+06 -0.1292276E+01  0.4821849E+04 -0.8513444E+00  0.8323231E+06  0.1847231E+01
  0.1969048E+01  0.3473481E+06 -0.1312826E+01  0.4178932E+04 -0.9070352E+00  0.7856419E+06  0.1826338E+01
  0.2000000E+01  0.3340858E+06 -0.1334891E+01  0.3606997E+04 -0.9594187E+00  0.7414608E+06  0.1804433E+01
