VARIABLES="w (rad/s)"
"abs(F   1   1)" "angle(F   1   1)"
"abs(F   1   2)" "angle(F   1   2)"
"abs(F   1   3)" "angle(F   1   3)"
Zone t="Diffraction force - beta =   0.000 deg",I=    64,F=POINT
  0.5000000E-01  0.3561510E+03 -0.1570796E+01  0.1171455E+02 -0.3098509E+01  0.7255002E+03  0.1570797E+01
  0.8095238E-01  0.5854655E+03 -0.1570795E+01  0.3051370E+02 -0.3097139E+01  0.1190703E+04  0.1570797E+01
  0.1119048E+00  0.8175778E+03 -0.1570794E+01  0.5807036E+02 -0.3095273E+01  0.1661958E+04  0.1570798E+01
  0.1428571E+00  0.1059826E+04 -0.1570793E+01  0.9453874E+02 -0.3092886E+01  0.2148929E+04  0.1570799E+01
  0.1738095E+00  0.1309902E+04 -0.1570791E+01  0.1400515E+03 -0.3089834E+01  0.2652114E+04  0.1570801E+01
  0.2047619E+00  0.1572875E+04 -0.1570788E+01  0.1948677E+03 -0.3085977E+01  0.3179632E+04  0.1570804E+01
  0.2357143E+00  0.1852993E+04 -0.1570784E+01  0.2594234E+03 -0.3081119E+01  0.3738132E+04  0.1570808E+01
  0.2666667E+00  0.2151493E+04 -0.1570777E+01  0.3337444E+03 -0.3075128E+01  0.4332197E+04  0.1570814E+01
  0.2976190E+00  0.2476684E+04 -0.1570768E+01  0.4184918E+03 -0.3067592E+01  0.4975772E+04  0.1570824E+01
  0.3285715E+00  0.2826914E+04 -0.1570754E+01  0.5141225E+03 -0.3058543E+01  0.5668043E+04  0.1570837E+01
  0.3595238E+00  0.3220123E+04 -0.1570733E+01  0.6206323E+03 -0.3047492E+01  0.6432816E+04  0.1570857E+01
  0.3904762E+00  0.3646476E+04 -0.1570701E+01  0.7381421E+03 -0.3034283E+01  0.7263483E+04  0.1570887E+01
  0.4214286E+00  0.4122743E+04 -0.1570655E+01  0.8664649E+03 -0.3019432E+01  0.8180562E+04  0.1570931E+01
  0.4523810E+00  0.4634325E+04 -0.1570586E+01  0.1005678E+04 -0.3002145E+01  0.9172374E+04  0.1570996E+01
  0.4833333E+00  0.5206272E+04 -0.1570492E+01  0.1153890E+04 -0.2984367E+01  0.1025576E+05  0.1571086E+01
  0.5142857E+00  0.5820758E+04 -0.1570360E+01  0.1311366E+04 -0.2964986E+01  0.1141819E+05  0.1571212E+01
  0.5452381E+00  0.6467723E+04 -0.1570183E+01  0.1478362E+04 -0.2945507E+01  0.1264162E+05  0.1571380E+01
  0.5761905E+00  0.7165193E+04 -0.1569954E+01  0.1653913E+04 -0.2926155E+01  0.1394200E+05  0.1571598E+01
  0.6071429E+00  0.7893840E+04 -0.1569656E+01  0.1836118E+04 -0.2905961E+01  0.1528155E+05  0.1571881E+01
  0.6380953E+00  0.8655273E+04 -0.1569283E+01  0.2027233E+04 -0.2886582E+01  0.1666879E+05  0.1572236E+01
  0.6690477E+00  0.9455653E+04 -0.1568819E+01  0.2226612E+04 -0.2867272E+01  0.1810866E+05  0.1572677E+01
  0.7000000E+00  0.1025591E+05 -0.1568243E+01  0.2432083E+04 -0.2847543E+01  0.1955118E+05  0.1573223E+01
  0.7309524E+00  0.1109022E+05 -0.1567546E+01  0.2645304E+04 -0.2828208E+01  0.2103013E+05  0.1573884E+01
  0.7619048E+00  0.1198351E+05 -0.1566712E+01  0.2865206E+04 -0.2808965E+01  0.2256146E+05  0.1574677E+01
  0.7928572E+00  0.1287120E+05 -0.1565710E+01  0.3089314E+04 -0.2789487E+01  0.2408297E+05  0.1575626E+01
  0.8238096E+00  0.1377641E+05 -0.1564524E+01  0.3319621E+04 -0.2770179E+01  0.2561713E+05  0.1576750E+01
  0.8547620E+00  0.1470003E+05 -0.1563132E+01  0.3555357E+04 -0.2751058E+01  0.2714953E+05  0.1578069E+01
  0.8857143E+00  0.1565588E+05 -0.1561515E+01  0.3796934E+04 -0.2732259E+01  0.2872455E+05  0.1579598E+01
  0.9166667E+00  0.1660935E+05 -0.1559640E+01  0.4040653E+04 -0.2713342E+01  0.3026489E+05  0.1581371E+01
  0.9476191E+00  0.1759196E+05 -0.1557490E+01  0.4287268E+04 -0.2694548E+01  0.3181529E+05  0.1583404E+01
  0.9785714E+00  0.1859389E+05 -0.1555037E+01  0.4535808E+04 -0.2675853E+01  0.3335500E+05  0.1585725E+01
  0.1009524E+01  0.1963377E+05 -0.1552266E+01  0.4787622E+04 -0.2657547E+01  0.3491708E+05  0.1588350E+01
  0.1040476E+01  0.2065752E+05 -0.1549124E+01  0.5041359E+04 -0.2639472E+01  0.3645027E+05  0.1591314E+01
  0.1071429E+01  0.2166890E+05 -0.1545586E+01  0.5295072E+04 -0.2621451E+01  0.3791896E+05  0.1594651E+01
  0.1102381E+01  0.2269039E+05 -0.1541632E+01  0.5552015E+04 -0.2603995E+01  0.3940404E+05  0.1598366E+01
  0.1133333E+01  0.2371457E+05 -0.1537238E+01  0.5807158E+04 -0.2586513E+01  0.4082605E+05  0.1602499E+01
  0.1164286E+01  0.2479739E+05 -0.1532421E+01  0.6063311E+04 -0.2569510E+01  0.4227977E+05  0.1607043E+01
  0.1195238E+01  0.2586708E+05 -0.1527099E+01  0.6317926E+04 -0.2552661E+01  0.4369498E+05  0.1612051E+01
  0.1226190E+01  0.2691884E+05 -0.1521248E+01  0.6569164E+04 -0.2535833E+01  0.4502751E+05  0.1617559E+01
  0.1257143E+01  0.2794226E+05 -0.1514838E+01  0.6820391E+04 -0.2518973E+01  0.4630592E+05  0.1623571E+01
  0.1288095E+01  0.2900608E+05 -0.1507880E+01  0.7068158E+04 -0.2503330E+01  0.4758147E+05  0.1630111E+01
  0.1319048E+01  0.3004918E+05 -0.1500341E+01  0.7314700E+04 -0.2487634E+01  0.4877571E+05  0.1637191E+01
  0.1350000E+01  0.3111130E+05 -0.1492235E+01  0.7560318E+04 -0.2472596E+01  0.4997276E+05  0.1644789E+01
  0.1380952E+01  0.3210349E+05 -0.1483424E+01  0.7803098E+04 -0.2457778E+01  0.5106561E+05  0.1653001E+01
  0.1411905E+01  0.3286550E+05 -0.1474035E+01  0.8017305E+04 -0.2442150E+01  0.5193654E+05  0.1661560E+01
  0.1442857E+01  0.3381080E+05 -0.1463958E+01  0.8250651E+04 -0.2427612E+01  0.5285615E+05  0.1670931E+01
  0.1473810E+01  0.3475327E+05 -0.1453239E+01  0.8480358E+04 -0.2413485E+01  0.5375043E+05  0.1680881E+01
  0.1504762E+01  0.3566652E+05 -0.1441886E+01  0.8702239E+04 -0.2399292E+01  0.5451262E+05  0.1691453E+01
  0.1535714E+01  0.3658222E+05 -0.1429927E+01  0.8921179E+04 -0.2385754E+01  0.5524493E+05  0.1702587E+01
  0.1566667E+01  0.3747131E+05 -0.1417322E+01  0.9135856E+04 -0.2372732E+01  0.5593850E+05  0.1714272E+01
  0.1597619E+01  0.3826560E+05 -0.1403950E+01  0.9344321E+04 -0.2359665E+01  0.5647458E+05  0.1726630E+01
  0.1628572E+01  0.3899502E+05 -0.1389920E+01  0.9544577E+04 -0.2346727E+01  0.5686327E+05  0.1739557E+01
  0.1659524E+01  0.3967380E+05 -0.1375244E+01  0.9741636E+04 -0.2334330E+01  0.5715398E+05  0.1753059E+01
  0.1690476E+01  0.4030006E+05 -0.1359887E+01  0.9935652E+04 -0.2322540E+01  0.5739150E+05  0.1767095E+01
  0.1721429E+01  0.4084739E+05 -0.1343933E+01  0.1012088E+05 -0.2310805E+01  0.5746512E+05  0.1781620E+01
  0.1752381E+01  0.4134205E+05 -0.1327434E+01  0.1030156E+05 -0.2299569E+01  0.5744709E+05  0.1796591E+01
  0.1783333E+01  0.4179766E+05 -0.1310494E+01  0.1047606E+05 -0.2288817E+01  0.5736522E+05  0.1811883E+01
  0.1814286E+01  0.4219532E+05 -0.1293075E+01  0.1064618E+05 -0.2278425E+01  0.5721891E+05  0.1827557E+01
  0.1845238E+01  0.4247302E+05 -0.1275085E+01  0.1080794E+05 -0.2267822E+01  0.5689172E+05  0.1843704E+01
  0.1876190E+01  0.4266543E+05 -0.1256747E+01  0.1095884E+05 -0.2257286E+01  0.5641610E+05  0.1860070E+01
  0.1907143E+01  0.4277714E+05 -0.1238060E+01  0.1110406E+05 -0.2247071E+01  0.5582796E+05  0.1876722E+01
  0.1938095E+01  0.4280961E+05 -0.1218964E+01  0.1124515E+05 -0.2237343E+01  0.5518400E+05  0.1893629E+01
  0.1969048E+01  0.4275426E+05 -0.1199605E+01  0.1137880E+05 -0.2227985E+01  0.5444359E+05  0.1910589E+01
  0.2000000E+01  0.4259416E+05 -0.1180128E+01  0.1150101E+05 -0.2218624E+01  0.5352659E+05  0.1927498E+01
