VARIABLES="w (rad/s)"
"A   1   1" "B   1   1"
"A   1   2" "B   1   2"
"A   1   3" "B   1   3"
Zone t="Motion of body    1 in DoF   1",I=    64,F=POINT
  0.5000000E-01  0.4025984E+05  0.2286935E-02  0.1273155E-01  0.2431890E-04  0.4629028E+03  0.3482302E-04
  0.8095238E-01  0.4035839E+05  0.1000893E-01  0.7539637E-03  0.1163224E-04  0.4553267E+03  0.1534616E-03
  0.1119048E+00  0.4053990E+05  0.2817431E-01  0.1047378E-01  0.5577409E-04  0.4578343E+03  0.4273443E-03
  0.1428571E+00  0.4054882E+05  0.6341150E-01  0.7863998E-02  0.6298261E-04  0.4521325E+03  0.9689984E-03
  0.1738095E+00  0.4067850E+05  0.1263944E+00  0.3533559E-02  0.4800095E-04  0.4601810E+03  0.1945904E-02
  0.2047619E+00  0.4066320E+05  0.2332367E+00  0.1480147E-01  0.1313724E-03  0.4585539E+03  0.3598139E-02
  0.2357143E+00  0.4081339E+05  0.4114048E+00  0.1286593E-01  0.2081316E-03  0.4624799E+03  0.6390181E-02
  0.2666667E+00  0.4089323E+05  0.7027441E+00 -0.3297329E-02 -0.7781968E-04  0.4692101E+03  0.1102035E-01
  0.2976190E+00  0.4091911E+05  0.1179475E+01 -0.1409912E-02 -0.1139243E-03  0.4667169E+03  0.1859245E-01
  0.3285715E+00  0.4110161E+05  0.1955826E+01  0.3900942E-02  0.7341709E-04  0.4734176E+03  0.3114171E-01
  0.3595238E+00  0.4124347E+05  0.3217360E+01  0.1082262E-02 -0.4667230E-04  0.4817981E+03  0.5184143E-01
  0.3904762E+00  0.4127887E+05  0.5250266E+01  0.5050752E-02  0.2598995E-03  0.4841031E+03  0.8542763E-01
  0.4214286E+00  0.4148721E+05  0.8466012E+01  0.1801313E-02  0.2460927E-04  0.4922869E+03  0.1394835E+00
  0.4523810E+00  0.4175206E+05  0.1353899E+02  0.5304035E-02  0.2850890E-03  0.5128573E+03  0.2273188E+00
  0.4833333E+00  0.4189302E+05  0.2109932E+02 -0.4759164E-02 -0.5484782E-03  0.5096176E+03  0.3573336E+00
  0.5142857E+00  0.4199195E+05  0.3232695E+02  0.5971061E-02  0.6528348E-03  0.5136977E+03  0.5544732E+00
  0.5452381E+00  0.4230405E+05  0.4843704E+02  0.1360098E-01  0.1696199E-02  0.5288869E+03  0.8448890E+00
  0.5761905E+00  0.4261790E+05  0.7087699E+02  0.6521240E-02  0.3841519E-03  0.5446669E+03  0.1258182E+01
  0.6071429E+00  0.4285504E+05  0.1017449E+03  0.5328009E-02  0.9011626E-03  0.5541412E+03  0.1834281E+01
  0.6380953E+00  0.4303351E+05  0.1427587E+03  0.5332605E-02  0.8903444E-03  0.5529764E+03  0.2603393E+01
  0.6690477E+00  0.4335247E+05  0.1970684E+03  0.1167705E-01  0.2181709E-02  0.5669960E+03  0.3657217E+01
  0.7000000E+00  0.4376628E+05  0.2681392E+03  0.1214164E-01  0.2506316E-02  0.5899344E+03  0.5083037E+01
  0.7309524E+00  0.4419854E+05  0.3592507E+03  0.7285450E-02  0.1987636E-02  0.6097063E+03  0.6945204E+01
  0.7619048E+00  0.4455002E+05  0.4747288E+03  0.1406908E-01  0.3811359E-02  0.6171892E+03  0.9318768E+01
  0.7928572E+00  0.4484028E+05  0.6194290E+03  0.1145096E-02  0.9818077E-03  0.6264303E+03  0.1236829E+02
  0.8238096E+00  0.4526334E+05  0.7996285E+03  0.1102073E-01  0.4116654E-02  0.6444564E+03  0.1627811E+02
  0.8547620E+00  0.4576809E+05  0.1021615E+04  0.3373935E-02  0.3398418E-02  0.6647277E+03  0.2120265E+02
  0.8857143E+00  0.4629819E+05  0.1292525E+04  0.1000066E-01  0.4101276E-02  0.6884806E+03  0.2739119E+02
  0.9166667E+00  0.4683968E+05  0.1620217E+04 -0.6292169E-02 -0.3077984E-02  0.7174855E+03  0.3514051E+02
  0.9476191E+00  0.4735920E+05  0.2012852E+04  0.7495592E-02  0.1735210E-02  0.7398450E+03  0.4457772E+02
  0.9785714E+00  0.4781554E+05  0.2478837E+04  0.3609762E-02  0.1027584E-02  0.7520164E+03  0.5586382E+02
  0.1009524E+01  0.4828729E+05  0.3028070E+04  0.8456753E-02  0.6427288E-02  0.7691583E+03  0.6952964E+02
  0.1040476E+01  0.4880562E+05  0.3670597E+04  0.5330799E-02  0.1914024E-02  0.7971513E+03  0.8613147E+02
  0.1071429E+01  0.4938969E+05  0.4417598E+04  0.9029134E-02  0.5584717E-02  0.8303250E+03  0.1061008E+03
  0.1102381E+01  0.4997625E+05  0.5278628E+04  0.2671442E-02  0.2840042E-02  0.8604140E+03  0.1296223E+03
  0.1133333E+01  0.5053850E+05  0.6263969E+04  0.7633883E-02  0.4514694E-02  0.8909133E+03  0.1572153E+03
  0.1164286E+01  0.5106112E+05  0.7383437E+04  0.1334161E-01  0.1014805E-01  0.9205268E+03  0.1894695E+03
  0.1195238E+01  0.5148417E+05  0.8643464E+04  0.1248546E-01  0.1063156E-01  0.9468815E+03  0.2268533E+03
  0.1226190E+01  0.5183840E+05  0.1005234E+05  0.1455955E-02 -0.2843857E-02  0.9697719E+03  0.2698216E+03
  0.1257143E+01  0.5209922E+05  0.1161665E+05  0.6165938E-02  0.7743835E-02  0.9921107E+03  0.3186957E+03
  0.1288095E+01  0.5239507E+05  0.1332693E+05 -0.5330705E-03  0.5983353E-02  0.1017859E+04  0.3736728E+03
  0.1319048E+01  0.5259100E+05  0.1519287E+05  0.1110531E-01  0.4724503E-02  0.1038395E+04  0.4346403E+03
  0.1350000E+01  0.5271720E+05  0.1720941E+05  0.3209997E-02  0.9452820E-02  0.1060263E+04  0.5033096E+03
  0.1380952E+01  0.5273330E+05  0.1936960E+05  0.1513777E-02  0.6481171E-02  0.1081846E+04  0.5799594E+03
  0.1411905E+01  0.5240355E+05  0.2154208E+05  0.4020292E-02  0.9986877E-02  0.1077409E+04  0.6575887E+03
  0.1442857E+01  0.5220627E+05  0.2394422E+05  0.3384127E-03  0.1159668E-02  0.1095861E+04  0.7485642E+03
  0.1473810E+01  0.5190302E+05  0.2644203E+05  0.3458001E-02  0.5531311E-02  0.1106984E+04  0.8454988E+03
  0.1504762E+01  0.5146811E+05  0.2901214E+05  0.3173925E-02  0.4718781E-02  0.1111552E+04  0.9476208E+03
  0.1535714E+01  0.5092071E+05  0.3163587E+05  0.5593942E-02  0.7698059E-02  0.1111660E+04  0.1055635E+04
  0.1566667E+01  0.5024657E+05  0.3429038E+05  0.3145908E-02  0.6347656E-02  0.1108851E+04  0.1170483E+04
  0.1597619E+01  0.4945305E+05  0.3694931E+05  0.3457446E-02  0.9960175E-02  0.1103483E+04  0.1291125E+04
  0.1628572E+01  0.4856768E+05  0.3958317E+05  0.1424154E-02  0.2456665E-02  0.1095261E+04  0.1415747E+04
  0.1659524E+01  0.4759259E+05  0.4216268E+05  0.2758404E-03  0.1531982E-01  0.1083566E+04  0.1543770E+04
  0.1690476E+01  0.4653679E+05  0.4466521E+05  0.2364897E-02  0.8666992E-02  0.1064194E+04  0.1671731E+04
  0.1721429E+01  0.4539925E+05  0.4706748E+05  0.6470740E-02  0.4074097E-02  0.1040777E+04  0.1801115E+04
  0.1752381E+01  0.4419263E+05  0.4935368E+05  0.2620946E-02 -0.1525879E-04  0.1011345E+04  0.1930273E+04
  0.1783333E+01  0.4294586E+05  0.5150568E+05 -0.7615134E-03 -0.3967285E-03  0.9806057E+03  0.2059238E+04
  0.1814286E+01  0.4165318E+05  0.5351022E+05  0.3271629E-02 -0.6683350E-02  0.9479763E+03  0.2188259E+04
  0.1845238E+01  0.4034231E+05  0.5535523E+05  0.9840443E-03  0.6515503E-02  0.9132220E+03  0.2315667E+04
  0.1876190E+01  0.3902164E+05  0.5703489E+05  0.3505262E-02  0.7362366E-02  0.8741356E+03  0.2440390E+04
  0.1907143E+01  0.3770712E+05  0.5854420E+05  0.3160341E-02  0.4608154E-02  0.8344274E+03  0.2562667E+04
  0.1938095E+01  0.3640745E+05  0.5988412E+05  0.1653348E-02  0.1625061E-02  0.7905734E+03  0.2680786E+04
  0.1969048E+01  0.3512891E+05  0.6105538E+05  0.1813342E-02 -0.3242493E-02  0.7447982E+03  0.2793012E+04
  0.2000000E+01  0.3386884E+05  0.6206346E+05  0.3204346E-03  0.4074097E-02  0.6977695E+03  0.2899184E+04
Zone t="Motion of body    1 in DoF   2",I=    64,F=POINT
  0.5000000E-01  0.9832382E-02  0.1078844E-04  0.6888677E+05  0.1597763E+03  0.1106262E-02  0.3725290E-05
  0.8095238E-01  0.4241046E-02  0.1427531E-04  0.6829404E+05  0.2650528E+03  0.6125955E-03  0.8821487E-05
  0.1119048E+00  0.2139071E-02 -0.6765127E-05  0.6792282E+05  0.3798432E+03  0.5454206E-03  0.8881092E-05
  0.1428571E+00 -0.3044128E-02  0.2127886E-04  0.6774562E+05  0.5085675E+03  0.5340576E-03  0.1358986E-04
  0.1738095E+00 -0.5322286E-02  0.5531311E-04  0.6771493E+05  0.6568865E+03  0.2787342E-02  0.1788139E-04
  0.2047619E+00  0.4126526E-02  0.4792213E-04  0.6782038E+05  0.8317792E+03  0.5588975E-03  0.1883507E-04
  0.2357143E+00  0.9766781E-02 -0.1478195E-04  0.6799153E+05  0.1043159E+04  0.5178740E-03  0.2670288E-04
  0.2666667E+00  0.4577636E-03 -0.8738041E-04  0.6826582E+05  0.1299637E+04  0.4577636E-03  0.2980232E-04
  0.2976190E+00  0.8914490E-02  0.3933907E-04  0.6858370E+05  0.1619693E+04  0.1268921E-02  0.5006790E-05
  0.3285715E+00 -0.2670288E-02  0.1366138E-03  0.6896081E+05  0.2014066E+04  0.2194280E-02  0.1668930E-04
  0.3595238E+00  0.6482964E-02  0.1032352E-03  0.6929558E+05  0.2505143E+04  0.1740108E-02  0.5006790E-04
  0.3904762E+00  0.6369614E-02 -0.1556873E-03  0.6966907E+05  0.3111052E+04  0.1270015E-02  0.4673004E-04
  0.4214286E+00  0.5322472E-02 -0.2913475E-03  0.6986448E+05  0.3826851E+04  0.5793167E-03  0.4196167E-04
  0.4523810E+00 -0.4890843E-03  0.1254082E-03  0.6999796E+05  0.4689712E+04  0.2057527E-02  0.6580353E-04
  0.4833333E+00  0.3022819E-02  0.7152557E-04  0.6993857E+05  0.5632216E+04  0.1357506E-02  0.1697540E-03
  0.5142857E+00  0.2877977E-02 -0.9241104E-03  0.6971149E+05  0.6698501E+04  0.9642707E-03  0.2002716E-03
  0.5452381E+00  0.4428714E-02 -0.3719330E-04  0.6936941E+05  0.7834197E+04  0.6436677E-03  0.6294250E-04
  0.5761905E+00  0.6739718E-02 -0.1211166E-03  0.6885632E+05  0.9020736E+04  0.1006323E-02  0.2422333E-03
  0.6071429E+00  0.4372989E-02 -0.6446838E-03  0.6821888E+05  0.1028429E+05  0.1796947E-02  0.7438660E-04
  0.6380953E+00  0.9696732E-02 -0.4959106E-03  0.6754881E+05  0.1155537E+05  0.6456517E-03  0.1049042E-03
  0.6690477E+00  0.6363078E-02 -0.6647110E-03  0.6675910E+05  0.1286407E+05  0.5815716E-03  0.4329681E-03
  0.7000000E+00 -0.1318795E-02 -0.2002716E-03  0.6587619E+05  0.1421278E+05  0.7629394E-03  0.4768372E-03
  0.7309524E+00  0.8725840E-02 -0.1256943E-02  0.6496279E+05  0.1556258E+05  0.1628267E-02  0.4024506E-03
  0.7619048E+00  0.1484012E-01 -0.7343292E-03  0.6397647E+05  0.1692181E+05  0.1682281E-02  0.1602173E-03
  0.7928572E+00  0.2655854E-02 -0.1068115E-02  0.6293177E+05  0.1828510E+05  0.1404908E-02  0.6408691E-03
  0.8238096E+00  0.5630758E-02 -0.3356934E-03  0.6186152E+05  0.1963970E+05  0.1444734E-02  0.2136230E-03
  0.8547620E+00  0.5935626E-02 -0.2098083E-04  0.6075385E+05  0.2097703E+05  0.8390208E-03  0.6103516E-03
  0.8857143E+00  0.8906703E-02 -0.2288818E-03  0.5960320E+05  0.2229037E+05  0.1205937E-02  0.1144409E-03
  0.9166667E+00  0.1265092E-02  0.8220673E-03  0.5843590E+05  0.2356980E+05  0.6325461E-03  0.4310608E-03
  0.9476191E+00  0.4033611E-02 -0.4405975E-03  0.5725332E+05  0.2480760E+05  0.5635784E-03  0.5722046E-03
  0.9785714E+00  0.5730399E-02  0.1577377E-02  0.5605729E+05  0.2599860E+05  0.1122691E-02  0.9346008E-03
  0.1009524E+01  0.7406271E-02  0.1333237E-02  0.5485441E+05  0.2713799E+05  0.4383303E-03  0.5378723E-03
  0.1040476E+01  0.2119121E-02  0.3372192E-02  0.5365154E+05  0.2822203E+05  0.1173216E-02  0.9346008E-03
  0.1071429E+01  0.5525716E-02  0.4463196E-03  0.5246461E+05  0.2924352E+05  0.1096598E-02  0.4768372E-03
  0.1102381E+01  0.5266754E-02 -0.1010895E-02  0.5129404E+05  0.3019814E+05  0.7889749E-03  0.8468628E-03
  0.1133333E+01 -0.3837137E-02 -0.1407623E-02  0.5013060E+05  0.3108464E+05  0.9559183E-03  0.1113892E-02
  0.1164286E+01  0.1059596E-01 -0.2517700E-03  0.4898713E+05  0.3189938E+05  0.5242283E-04  0.9193420E-03
  0.1195238E+01 -0.1653238E-02 -0.8888245E-03  0.4786124E+05  0.3264296E+05  0.1263865E-02  0.4768372E-03
  0.1226190E+01  0.1567952E-02  0.2162933E-02  0.4677609E+05  0.3330968E+05  0.7217556E-03  0.6866455E-03
  0.1257143E+01  0.8095828E-02 -0.1365662E-02  0.4573354E+05  0.3392070E+05  0.7161227E-03  0.1140594E-02
  0.1288095E+01  0.5395858E-02 -0.1056671E-02  0.4470777E+05  0.3441339E+05  0.6159925E-03  0.3433228E-03
  0.1319048E+01  0.6287227E-02 -0.3128052E-02  0.4372305E+05  0.3485640E+05  0.7866264E-03  0.8544922E-03
  0.1350000E+01  0.1017818E-01 -0.6240845E-02  0.4276996E+05  0.3522833E+05  0.8929217E-03  0.9956360E-03
  0.1380952E+01  0.2088350E-02  0.6790161E-03  0.4185552E+05  0.3552505E+05  0.7845123E-03  0.5874634E-03
  0.1411905E+01  0.3009815E-02  0.4577637E-04  0.4097870E+05  0.3578739E+05  0.2593737E-03  0.1029968E-02
  0.1442857E+01  0.7852233E-02 -0.3017426E-02  0.4015105E+05  0.3594581E+05  0.3172619E-04  0.1464844E-02
  0.1473810E+01  0.8153222E-02 -0.4241943E-02  0.3936173E+05  0.3603942E+05  0.2898923E-03  0.2174377E-03
  0.1504762E+01  0.5014395E-02  0.8163452E-03  0.3861288E+05  0.3606801E+05  0.5678587E-03  0.8087158E-03
  0.1535714E+01  0.5941701E-02  0.1411438E-03  0.3790270E+05  0.3603554E+05  0.7551326E-03  0.1594543E-02
  0.1566667E+01  0.6379472E-02  0.1064301E-02  0.3722472E+05  0.3594971E+05  0.6233377E-03  0.8316040E-03
  0.1597619E+01  0.4336134E-02 -0.3288269E-02  0.3658913E+05  0.3580433E+05  0.5539554E-03  0.1007080E-02
  0.1628572E+01  0.5415531E-02  0.2164841E-02  0.3599685E+05  0.3560789E+05  0.1049376E-02  0.1098633E-02
  0.1659524E+01  0.3889349E-02  0.4253387E-03  0.3544891E+05  0.3535654E+05  0.9378573E-03  0.1155853E-02
  0.1690476E+01  0.4495110E-02 -0.6814957E-02  0.3493690E+05  0.3505848E+05  0.3700793E-03  0.8316040E-03
  0.1721429E+01  0.2109638E-02 -0.8602142E-03  0.3445714E+05  0.3471578E+05  0.4697934E-03  0.1499176E-02
  0.1752381E+01  0.3861759E-02  0.4657745E-02  0.3401543E+05  0.3433200E+05  0.3570059E-03  0.1220703E-02
  0.1783333E+01 -0.5390488E-03 -0.2996445E-02  0.3360735E+05  0.3390984E+05  0.3508095E-03  0.9231567E-03
  0.1814286E+01 -0.2472645E-02 -0.3147125E-02  0.3322196E+05  0.3345668E+05  0.4793903E-03  0.2899170E-03
  0.1845238E+01  0.2811555E-02 -0.7492065E-02  0.3287534E+05  0.3296577E+05  0.6780809E-03  0.8049011E-03
  0.1876190E+01  0.1988484E-02  0.2126694E-02  0.3256356E+05  0.3245210E+05 -0.8132857E-04  0.1552582E-02
  0.1907143E+01  0.7600820E-04  0.2038956E-02  0.3228465E+05  0.3190765E+05  0.1200130E-03  0.9651184E-03
  0.1938095E+01 -0.2243829E-03 -0.2759933E-02  0.3203467E+05  0.3133706E+05 -0.7085777E-04  0.1403809E-02
  0.1969048E+01  0.2305424E-02 -0.9574890E-03  0.3180575E+05  0.3074837E+05  0.2169811E-03  0.9956360E-03
  0.2000000E+01  0.1174927E-02  0.7877350E-03  0.3160477E+05  0.3013860E+05  0.1983643E-03  0.8850098E-03
Zone t="Motion of body    1 in DoF   3",I=    64,F=POINT
  0.5000000E-01  0.4548416E+03  0.3571326E-04  0.4971027E-03  0.2225279E-05  0.1022366E+04  0.8847566E-06
  0.8095238E-01  0.4454998E+03  0.1529930E-03  0.6314446E-02  0.2799686E-04  0.1020501E+04  0.1579644E-05
  0.1119048E+00  0.4477837E+03  0.4299056E-03  0.7061705E-02  0.4950772E-04  0.1028124E+04  0.6933594E-05
  0.1428571E+00  0.4406315E+03  0.9752552E-03  0.4531145E-02  0.3740592E-04  0.1023046E+04  0.1704296E-04
  0.1738095E+00  0.4497034E+03  0.1948011E-02  0.2355249E-02  0.3382713E-04  0.1029167E+04  0.2783778E-04
  0.2047619E+00  0.4475684E+03  0.3610864E-02  0.1471763E-02  0.3195852E-04  0.1026073E+04  0.6079903E-04
  0.2357143E+00  0.4510629E+03  0.6420668E-02  0.3843596E-03  0.1323807E-04  0.1025784E+04  0.1112977E-03
  0.2666667E+00  0.4586123E+03  0.1106032E-01  0.1350045E-02  0.4450257E-04  0.1025808E+04  0.1736369E-03
  0.2976190E+00  0.4555284E+03  0.1871203E-01  0.2005921E-02  0.6431303E-04  0.1026130E+04  0.2994877E-03
  0.3285715E+00  0.4614044E+03  0.3132908E-01  0.2526615E-02  0.9978709E-04  0.1022773E+04  0.4917908E-03
  0.3595238E+00  0.4708637E+03  0.5206893E-01  0.7851708E-03  0.4895874E-04  0.1026685E+04  0.8159766E-03
  0.3904762E+00  0.4732997E+03  0.8597469E-01  0.2239622E-02  0.1361176E-03  0.1024537E+04  0.1375697E-02
  0.4214286E+00  0.4815983E+03  0.1402773E+00  0.3032361E-02  0.1940865E-03  0.1027961E+04  0.2317739E-02
  0.4523810E+00  0.5034273E+03  0.2271274E+00  0.5179656E-02  0.4137534E-03  0.1027594E+04  0.3806805E-02
  0.4833333E+00  0.4993128E+03  0.3591366E+00  0.4023190E-02  0.4183023E-03  0.1029259E+04  0.6046148E-02
  0.5142857E+00  0.5031828E+03  0.5578346E+00  0.2392133E-02  0.3344899E-03  0.1027932E+04  0.9557893E-02
  0.5452381E+00  0.5182711E+03  0.8478464E+00  0.4692827E-02  0.6174191E-03  0.1026879E+04  0.1476598E-01
  0.5761905E+00  0.5351522E+03  0.1259921E+01  0.2121886E-02  0.4034624E-03  0.1032691E+04  0.2233496E-01
  0.6071429E+00  0.5441113E+03  0.1836934E+01  0.3865634E-02  0.7765181E-03  0.1028660E+04  0.3306974E-01
  0.6380953E+00  0.5423306E+03  0.2623805E+01  0.2310596E-02  0.6712507E-03  0.1029102E+04  0.4791418E-01
  0.6690477E+00  0.5568242E+03  0.3682930E+01  0.4488649E-02  0.1156821E-02  0.1032679E+04  0.6847109E-01
  0.7000000E+00  0.5796838E+03  0.5095150E+01  0.3215245E-03  0.5361158E-04  0.1030716E+04  0.9683675E-01
  0.7309524E+00  0.6002177E+03  0.6953369E+01  0.6471316E-03  0.2224110E-03  0.1032915E+04  0.1344227E+00
  0.7619048E+00  0.6073293E+03  0.9369184E+01  0.1330554E-02  0.6645638E-03  0.1035036E+04  0.1840270E+00
  0.7928572E+00  0.6164688E+03  0.1246576E+02  0.2303424E-02  0.8500367E-03  0.1034115E+04  0.2492014E+00
  0.8238096E+00  0.6339851E+03  0.1639822E+02  0.2565329E-02  0.1170468E-02  0.1031984E+04  0.3327009E+00
  0.8547620E+00  0.6549375E+03  0.2136987E+02  0.2369788E-02  0.1259066E-02  0.1035176E+04  0.4429338E+00
  0.8857143E+00  0.6787307E+03  0.2757149E+02  0.6686487E-03  0.3873035E-03  0.1038887E+04  0.5853121E+00
  0.9166667E+00  0.7081751E+03  0.3525666E+02  0.3393693E-02  0.2158605E-02  0.1039998E+04  0.7651793E+00
  0.9476191E+00  0.7297338E+03  0.4473115E+02  0.1195591E-02  0.6696805E-03  0.1037404E+04  0.9906135E+00
  0.9785714E+00  0.7427471E+03  0.5640443E+02  0.6042258E-04  0.3563166E-03  0.1038588E+04  0.1272538E+01
  0.1009524E+01  0.7603103E+03  0.7041071E+02  0.1343331E-02  0.1321509E-02  0.1042156E+04  0.1622615E+01
  0.1040476E+01  0.7885948E+03  0.8705076E+02  0.4496716E-02  0.3364816E-02  0.1044639E+04  0.2035061E+01
  0.1071429E+01  0.8212450E+03  0.1069288E+03  0.3701019E-02  0.3418297E-02  0.1042823E+04  0.2558884E+01
  0.1102381E+01  0.8502476E+03  0.1305261E+03  0.1211146E-03  0.7557869E-04  0.1042525E+04  0.3194211E+01
  0.1133333E+01  0.8826027E+03  0.1584511E+03  0.2070034E-02  0.1681328E-02  0.1047190E+04  0.3975893E+01
  0.1164286E+01  0.9127416E+03  0.1909972E+03  0.1838075E-02  0.1975626E-02  0.1052177E+04  0.4915403E+01
  0.1195238E+01  0.9385836E+03  0.2287517E+03  0.2783057E-02  0.3090829E-02  0.1053570E+04  0.6031565E+01
  0.1226190E+01  0.9611950E+03  0.2726187E+03 -0.2348817E-03  0.5412102E-03  0.1051396E+04  0.7340758E+01
  0.1257143E+01  0.9838082E+03  0.3224611E+03 -0.7343292E-03 -0.5347729E-03  0.1050119E+04  0.8853184E+01
  0.1288095E+01  0.1010136E+04  0.3783339E+03  0.1418560E-02  0.2674699E-02  0.1052013E+04  0.1054345E+02
  0.1319048E+01  0.1033054E+04  0.4413491E+03 -0.5234536E-03  0.4932880E-03  0.1056813E+04  0.1262776E+02
  0.1350000E+01  0.1055086E+04  0.5114901E+03  0.5058006E-03  0.7452369E-03  0.1060284E+04  0.1499080E+02
  0.1380952E+01  0.1075773E+04  0.5889109E+03  0.2530328E-02  0.3713846E-02  0.1062847E+04  0.1768482E+02
  0.1411905E+01  0.1015032E+04  0.6424383E+03 -0.1238780E-02 -0.1389980E-02  0.1055525E+04  0.1968661E+02
  0.1442857E+01  0.1033427E+04  0.7307938E+03  0.2555281E-02  0.5704641E-02  0.1055151E+04  0.2267523E+02
  0.1473810E+01  0.1044881E+04  0.8265533E+03  0.3636596E-03 -0.9218454E-03  0.1055707E+04  0.2621414E+02
  0.1504762E+01  0.1051838E+04  0.9294542E+03  0.6540515E-03  0.1649141E-02  0.1058541E+04  0.3008693E+02
  0.1535714E+01  0.1052470E+04  0.1037821E+04  0.1376130E-02  0.6941199E-02  0.1063329E+04  0.3486951E+02
  0.1566667E+01  0.1049301E+04  0.1152153E+04  0.9764002E-03  0.2918363E-02  0.1065071E+04  0.3970941E+02
  0.1597619E+01  0.1042933E+04  0.1270354E+04 -0.2984674E-04  0.2024174E-03  0.1066960E+04  0.4482510E+02
  0.1628572E+01  0.1034323E+04  0.1392237E+04  0.5598235E-03  0.3277540E-02  0.1065017E+04  0.5006491E+02
  0.1659524E+01  0.1021844E+04  0.1516808E+04  0.1505629E-03  0.4136562E-02  0.1062351E+04  0.5475804E+02
  0.1690476E+01  0.1002577E+04  0.1644088E+04  0.8687838E-04  0.1678228E-02  0.1061461E+04  0.6024623E+02
  0.1721429E+01  0.9808271E+03  0.1774419E+04  0.2858649E-03 -0.2210855E-02  0.1062426E+04  0.6699958E+02
  0.1752381E+01  0.9533058E+03  0.1906682E+04  0.1042719E-02  0.3827095E-02  0.1066387E+04  0.7418410E+02
  0.1783333E+01  0.9228890E+03  0.2035601E+04  0.1169009E-02  0.4127264E-02  0.1071144E+04  0.8237691E+02
  0.1814286E+01  0.8908665E+03  0.2162528E+04  0.4215691E-03  0.5972385E-03  0.1072697E+04  0.8984678E+02
  0.1845238E+01  0.8566451E+03  0.2285749E+04  0.3927908E-03  0.3423214E-02  0.1074164E+04  0.9732026E+02
  0.1876190E+01  0.8177514E+03  0.2408110E+04 -0.7766879E-03  0.1966953E-02  0.1070760E+04  0.1038816E+03
  0.1907143E+01  0.7776719E+03  0.2527149E+04 -0.2500270E-03  0.2926588E-02  0.1065945E+04  0.1088390E+03
  0.1938095E+01  0.7317723E+03  0.2642836E+04  0.4723851E-04  0.3938675E-03  0.1061387E+04  0.1147203E+03
  0.1969048E+01  0.6857870E+03  0.2756499E+04 -0.3487196E-04  0.2966881E-02  0.1059884E+04  0.1217703E+03
  0.2000000E+01  0.6398754E+03  0.2868121E+04  0.9822845E-03  0.2805233E-02  0.1061223E+04  0.1305733E+03
