VARIABLES="w (rad/s)"
"abs(F   1   1)" "angle(F   1   1)"
"abs(F   1   2)" "angle(F   1   2)"
"abs(F   1   3)" "angle(F   1   3)"
Zone t="Diffraction force - beta =   0.000 deg",I=    64,F=POINT
  0.5000000E-01  0.7911015E+04 -0.1570798E+01  0.6917129E+06 -0.4679104E-04  0.8612144E+04  0.1570801E+01
  0.8095238E-01  0.1290791E+05 -0.1570791E+01  0.6894979E+06 -0.1257039E-03  0.1406398E+05  0.1570805E+01
  0.1119048E+00  0.1803892E+05 -0.1570786E+01  0.6862454E+06 -0.2490937E-03  0.1968355E+05  0.1570813E+01
  0.1428571E+00  0.2331242E+05 -0.1570778E+01  0.6819676E+06 -0.4260234E-03  0.2547912E+05  0.1570816E+01
  0.1738095E+00  0.2885951E+05 -0.1570770E+01  0.6766638E+06 -0.6697227E-03  0.3158844E+05  0.1570823E+01
  0.2047619E+00  0.3462475E+05 -0.1570754E+01  0.6703205E+06 -0.9999451E-03  0.3796827E+05  0.1570840E+01
  0.2357143E+00  0.4083400E+05 -0.1570732E+01  0.6629492E+06 -0.1445150E-02  0.4490722E+05  0.1570862E+01
  0.2666667E+00  0.4750368E+05 -0.1570700E+01  0.6545694E+06 -0.2038310E-02  0.5237297E+05  0.1570892E+01
  0.2976190E+00  0.5465636E+05 -0.1570652E+01  0.6451538E+06 -0.2839350E-02  0.6046252E+05  0.1570939E+01
  0.3285715E+00  0.6260271E+05 -0.1570581E+01  0.6347808E+06 -0.3902370E-02  0.6946555E+05  0.1571012E+01
  0.3595238E+00  0.7129984E+05 -0.1570475E+01  0.6234371E+06 -0.5321188E-02  0.7942957E+05  0.1571117E+01
  0.3904762E+00  0.8083298E+05 -0.1570315E+01  0.6111967E+06 -0.7190532E-02  0.9035120E+05  0.1571277E+01
  0.4214286E+00  0.9146632E+05 -0.1570082E+01  0.5981928E+06 -0.9566053E-02  0.1027356E+06  0.1571511E+01
  0.4523810E+00  0.1032350E+06 -0.1569739E+01  0.5843781E+06 -0.1263251E-01  0.1164403E+06  0.1571854E+01
  0.4833333E+00  0.1160866E+06 -0.1569263E+01  0.5700984E+06 -0.1625800E-01  0.1316123E+06  0.1572330E+01
  0.5142857E+00  0.1298089E+06 -0.1568601E+01  0.5551161E+06 -0.2066414E-01  0.1479278E+06  0.1572993E+01
  0.5452381E+00  0.1447980E+06 -0.1567717E+01  0.5399554E+06 -0.2575377E-01  0.1657341E+06  0.1573876E+01
  0.5761905E+00  0.1607311E+06 -0.1566567E+01  0.5243185E+06 -0.3150717E-01  0.1849375E+06  0.1575028E+01
  0.6071429E+00  0.1773779E+06 -0.1565078E+01  0.5083426E+06 -0.3811780E-01  0.2051750E+06  0.1576519E+01
  0.6380953E+00  0.1948425E+06 -0.1563219E+01  0.4922958E+06 -0.4533005E-01  0.2266145E+06  0.1578380E+01
  0.6690477E+00  0.2128289E+06 -0.1560911E+01  0.4759336E+06 -0.5333171E-01  0.2489090E+06  0.1580691E+01
  0.7000000E+00  0.2318377E+06 -0.1558075E+01  0.4594319E+06 -0.6221675E-01  0.2725869E+06  0.1583528E+01
  0.7309524E+00  0.2516152E+06 -0.1554649E+01  0.4431032E+06 -0.7185343E-01  0.2974294E+06  0.1586960E+01
  0.7619048E+00  0.2716181E+06 -0.1550539E+01  0.4266305E+06 -0.8233418E-01  0.3229251E+06  0.1591084E+01
  0.7928572E+00  0.2919364E+06 -0.1545664E+01  0.4099870E+06 -0.9366735E-01  0.3492020E+06  0.1595976E+01
  0.8238096E+00  0.3126093E+06 -0.1539957E+01  0.3938650E+06 -0.1058842E+00  0.3756233E+06  0.1601699E+01
  0.8547620E+00  0.3340211E+06 -0.1533364E+01  0.3778079E+06 -0.1190206E+00  0.4039028E+06  0.1608300E+01
  0.8857143E+00  0.3556315E+06 -0.1525799E+01  0.3618312E+06 -0.1330416E+00  0.4322034E+06  0.1615875E+01
  0.9166667E+00  0.3772429E+06 -0.1517166E+01  0.3457401E+06 -0.1479639E+00  0.4612668E+06  0.1624550E+01
  0.9476191E+00  0.3986570E+06 -0.1507438E+01  0.3304828E+06 -0.1637369E+00  0.4895427E+06  0.1634331E+01
  0.9785714E+00  0.4199528E+06 -0.1496578E+01  0.3154706E+06 -0.1804934E+00  0.5187578E+06  0.1645280E+01
  0.1009524E+01  0.4403012E+06 -0.1484614E+01  0.3006524E+06 -0.1981855E+00  0.5468148E+06  0.1657342E+01
  0.1040476E+01  0.4597297E+06 -0.1471595E+01  0.2859609E+06 -0.2168549E+00  0.5739491E+06  0.1670473E+01
  0.1071429E+01  0.4783726E+06 -0.1457671E+01  0.2716288E+06 -0.2364284E+00  0.6002654E+06  0.1684480E+01
  0.1102381E+01  0.4961431E+06 -0.1442999E+01  0.2581644E+06 -0.2566878E+00  0.6244579E+06  0.1699154E+01
  0.1133333E+01  0.5126304E+06 -0.1427531E+01  0.2449517E+06 -0.2781786E+00  0.6486230E+06  0.1714799E+01
  0.1164286E+01  0.5268825E+06 -0.1411594E+01  0.2320278E+06 -0.3006157E+00  0.6696192E+06  0.1730925E+01
  0.1195238E+01  0.5389031E+06 -0.1395417E+01  0.2193533E+06 -0.3241703E+00  0.6877732E+06  0.1747356E+01
  0.1226190E+01  0.5487264E+06 -0.1379346E+01  0.2068784E+06 -0.3489555E+00  0.7036164E+06  0.1763719E+01
  0.1257143E+01  0.5562039E+06 -0.1363929E+01  0.1955148E+06 -0.3737638E+00  0.7148622E+06  0.1779176E+01
  0.1288095E+01  0.5617272E+06 -0.1349293E+01  0.1844540E+06 -0.3995435E+00  0.7241543E+06  0.1794032E+01
  0.1319048E+01  0.5645078E+06 -0.1335668E+01  0.1737609E+06 -0.4267719E+00  0.7305019E+06  0.1808072E+01
  0.1350000E+01  0.5643927E+06 -0.1323656E+01  0.1634064E+06 -0.4549133E+00  0.7323481E+06  0.1820437E+01
  0.1380952E+01  0.5618236E+06 -0.1313532E+01  0.1533075E+06 -0.4844584E+00  0.7308582E+06  0.1830944E+01
  0.1411905E+01  0.5565306E+06 -0.1305472E+01  0.1435349E+06 -0.5155863E+00  0.7263620E+06  0.1839474E+01
  0.1442857E+01  0.5496153E+06 -0.1300084E+01  0.1345473E+06 -0.5460970E+00  0.7181151E+06  0.1845099E+01
  0.1473810E+01  0.5408816E+06 -0.1297430E+01  0.1260033E+06 -0.5769891E+00  0.7070701E+06  0.1847946E+01
  0.1504762E+01  0.5308060E+06 -0.1297487E+01  0.1177875E+06 -0.6095314E+00  0.6951415E+06  0.1848466E+01
  0.1535714E+01  0.5189924E+06 -0.1300829E+01  0.1098801E+06 -0.6433391E+00  0.6802458E+06  0.1845520E+01
  0.1566667E+01  0.5058543E+06 -0.1307449E+01  0.1023015E+06 -0.6787533E+00  0.6630718E+06  0.1839232E+01
  0.1597619E+01  0.4917941E+06 -0.1317351E+01  0.9504807E+05 -0.7161903E+00  0.6447547E+06  0.1829896E+01
  0.1628572E+01  0.4769882E+06 -0.1330619E+01  0.8808338E+05 -0.7556694E+00  0.6254633E+06  0.1817285E+01
  0.1659524E+01  0.4617198E+06 -0.1347628E+01  0.8161084E+05 -0.7941572E+00  0.6044776E+06  0.1800101E+01
  0.1690476E+01  0.4460819E+06 -0.1368399E+01  0.7556651E+05 -0.8328561E+00  0.5822974E+06  0.1778563E+01
  0.1721429E+01  0.4304120E+06 -0.1392553E+01  0.6983774E+05 -0.8742574E+00  0.5607542E+06  0.1754436E+01
  0.1752381E+01  0.4147137E+06 -0.1420544E+01  0.6441307E+05 -0.9177394E+00  0.5390480E+06  0.1726308E+01
  0.1783333E+01  0.3990043E+06 -0.1452662E+01  0.5929027E+05 -0.9637365E+00  0.5169827E+06  0.1693439E+01
  0.1814286E+01  0.3834763E+06 -0.1488906E+01  0.5451373E+05 -0.1011383E+01  0.4950100E+06  0.1655996E+01
  0.1845238E+01  0.3684212E+06 -0.1529084E+01  0.5005784E+05 -0.1060996E+01  0.4739058E+06  0.1614892E+01
  0.1876190E+01  0.3538956E+06 -0.1573496E+01  0.4586719E+05 -0.1112755E+01  0.4535739E+06  0.1569312E+01
  0.1907143E+01  0.3400880E+06 -0.1622485E+01  0.4196311E+05 -0.1163637E+01  0.4338760E+06  0.1517680E+01
  0.1938095E+01  0.3271485E+06 -0.1676131E+01  0.3832250E+05 -0.1214348E+01  0.4151000E+06  0.1459531E+01
  0.1969048E+01  0.3152082E+06 -0.1733914E+01  0.3489530E+05 -0.1268476E+01  0.3979339E+06  0.1397014E+01
  0.2000000E+01  0.3044447E+06 -0.1795409E+01  0.3171216E+05 -0.1325467E+01  0.3825990E+06  0.1330687E+01
