VARIABLES="w (rad/s)"
"abs(F   1   1)" "angle(F   1   1)"
"abs(F   1   2)" "angle(F   1   2)"
"abs(F   1   3)" "angle(F   1   3)"
Zone t="Diffraction force - beta =   0.000 deg",I=    64,F=POINT
  0.5000000E-01  0.2648141E+04 -0.1570809E+01  0.4040913E+06 -0.2754463E-04  0.1631290E+04  0.1570844E+01
  0.8095238E-01  0.4322416E+04 -0.1570792E+01  0.4033863E+06 -0.7410171E-04  0.2666062E+04  0.1570786E+01
  0.1119048E+00  0.6034580E+04 -0.1570795E+01  0.4023519E+06 -0.1471595E-03  0.3712761E+04  0.1570802E+01
  0.1428571E+00  0.7798467E+04 -0.1570786E+01  0.4009858E+06 -0.2523293E-03  0.4782585E+04  0.1570821E+01
  0.1738095E+00  0.9639339E+04 -0.1570793E+01  0.3992862E+06 -0.3981306E-03  0.5889684E+04  0.1570827E+01
  0.2047619E+00  0.1157034E+05 -0.1570782E+01  0.3972472E+06 -0.5967814E-03  0.7038392E+04  0.1570811E+01
  0.2357143E+00  0.1362589E+05 -0.1570776E+01  0.3948718E+06 -0.8664846E-03  0.8244525E+04  0.1570819E+01
  0.2666667E+00  0.1583071E+05 -0.1570763E+01  0.3921445E+06 -0.1229250E-02  0.9517589E+04  0.1570832E+01
  0.2976190E+00  0.1820410E+05 -0.1570747E+01  0.3890714E+06 -0.1722547E-02  0.1087679E+05  0.1570844E+01
  0.3285715E+00  0.2080878E+05 -0.1570727E+01  0.3856512E+06 -0.2384484E-02  0.1233892E+05  0.1570866E+01
  0.3595238E+00  0.2366345E+05 -0.1570687E+01  0.3818830E+06 -0.3275407E-02  0.1391463E+05  0.1570908E+01
  0.3904762E+00  0.2680064E+05 -0.1570633E+01  0.3777572E+06 -0.4463180E-02  0.1561389E+05  0.1570954E+01
  0.4214286E+00  0.3027269E+05 -0.1570556E+01  0.3733369E+06 -0.5991427E-02  0.1744953E+05  0.1571037E+01
  0.4523810E+00  0.3409797E+05 -0.1570443E+01  0.3686049E+06 -0.7977078E-02  0.1941938E+05  0.1571150E+01
  0.4833333E+00  0.3822823E+05 -0.1570283E+01  0.3636009E+06 -0.1037022E-01  0.2155265E+05  0.1571311E+01
  0.5142857E+00  0.4269238E+05 -0.1570064E+01  0.3583467E+06 -0.1330678E-01  0.2377287E+05  0.1571530E+01
  0.5452381E+00  0.4749711E+05 -0.1569772E+01  0.3528768E+06 -0.1674603E-01  0.2607481E+05  0.1571821E+01
  0.5761905E+00  0.5257015E+05 -0.1569394E+01  0.3472160E+06 -0.2069948E-01  0.2844960E+05  0.1572202E+01
  0.6071429E+00  0.5786288E+05 -0.1568905E+01  0.3413607E+06 -0.2527608E-01  0.3086267E+05  0.1572688E+01
  0.6380953E+00  0.6335556E+05 -0.1568299E+01  0.3353056E+06 -0.3037960E-01  0.3328743E+05  0.1573296E+01
  0.6690477E+00  0.6907921E+05 -0.1567549E+01  0.3291225E+06 -0.3611863E-01  0.3567214E+05  0.1574045E+01
  0.7000000E+00  0.7500289E+05 -0.1566630E+01  0.3228425E+06 -0.4256080E-01  0.3799692E+05  0.1574965E+01
  0.7309524E+00  0.8108345E+05 -0.1565525E+01  0.3164286E+06 -0.4965454E-01  0.4032264E+05  0.1576069E+01
  0.7619048E+00  0.8725267E+05 -0.1564208E+01  0.3099108E+06 -0.5746588E-01  0.4258679E+05  0.1577386E+01
  0.7928572E+00  0.9353638E+05 -0.1562652E+01  0.3033165E+06 -0.6603736E-01  0.4472740E+05  0.1578942E+01
  0.8238096E+00  0.9996718E+05 -0.1560837E+01  0.2966836E+06 -0.7539082E-01  0.4673427E+05  0.1580757E+01
  0.8547620E+00  0.1064791E+06 -0.1558741E+01  0.2900383E+06 -0.8554547E-01  0.4861366E+05  0.1582857E+01
  0.8857143E+00  0.1130919E+06 -0.1556337E+01  0.2833893E+06 -0.9650742E-01  0.5038045E+05  0.1585266E+01
  0.9166667E+00  0.1197349E+06 -0.1553608E+01  0.2767338E+06 -0.1082873E+00  0.5196884E+05  0.1587998E+01
  0.9476191E+00  0.1263829E+06 -0.1550534E+01  0.2700880E+06 -0.1208960E+00  0.5341907E+05  0.1591070E+01
  0.9785714E+00  0.1329698E+06 -0.1547102E+01  0.2634693E+06 -0.1343560E+00  0.5469996E+05  0.1594496E+01
  0.1009524E+01  0.1395205E+06 -0.1543311E+01  0.2568996E+06 -0.1486900E+00  0.5572705E+05  0.1598287E+01
  0.1040476E+01  0.1460411E+06 -0.1539169E+01  0.2504030E+06 -0.1639075E+00  0.5650790E+05  0.1602442E+01
  0.1071429E+01  0.1524958E+06 -0.1534677E+01  0.2439913E+06 -0.1800095E+00  0.5703123E+05  0.1606958E+01
  0.1102381E+01  0.1588347E+06 -0.1529850E+01  0.2376797E+06 -0.1969943E+00  0.5736218E+05  0.1611815E+01
  0.1133333E+01  0.1649692E+06 -0.1524702E+01  0.2314725E+06 -0.2148538E+00  0.5744690E+05  0.1616988E+01
  0.1164286E+01  0.1708841E+06 -0.1519265E+01  0.2253372E+06 -0.2335722E+00  0.5728319E+05  0.1622432E+01
  0.1195238E+01  0.1765355E+06 -0.1513582E+01  0.2192877E+06 -0.2531515E+00  0.5688071E+05  0.1628079E+01
  0.1226190E+01  0.1818686E+06 -0.1507717E+01  0.2133244E+06 -0.2736135E+00  0.5617027E+05  0.1633879E+01
  0.1257143E+01  0.1868608E+06 -0.1501717E+01  0.2074706E+06 -0.2951766E+00  0.5517320E+05  0.1639807E+01
  0.1288095E+01  0.1915302E+06 -0.1495792E+01  0.2017535E+06 -0.3172705E+00  0.5393760E+05  0.1645690E+01
  0.1319048E+01  0.1957597E+06 -0.1489898E+01  0.1961831E+06 -0.3404770E+00  0.5237511E+05  0.1651536E+01
  0.1350000E+01  0.1995956E+06 -0.1484177E+01  0.1907316E+06 -0.3645694E+00  0.5062253E+05  0.1657225E+01
  0.1380952E+01  0.2029805E+06 -0.1478740E+01  0.1854035E+06 -0.3894918E+00  0.4862771E+05  0.1662575E+01
  0.1411905E+01  0.2052320E+06 -0.1474899E+01  0.1807154E+06 -0.4118694E+00  0.4653355E+05  0.1666301E+01
  0.1442857E+01  0.2076703E+06 -0.1470447E+01  0.1756358E+06 -0.4382760E+00  0.4407887E+05  0.1670605E+01
  0.1473810E+01  0.2096136E+06 -0.1466641E+01  0.1706812E+06 -0.4655669E+00  0.4147111E+05  0.1674295E+01
  0.1504762E+01  0.2110369E+06 -0.1463605E+01  0.1658624E+06 -0.4937589E+00  0.3868041E+05  0.1677202E+01
  0.1535714E+01  0.2119445E+06 -0.1461461E+01  0.1611801E+06 -0.5228093E+00  0.3572169E+05  0.1679131E+01
  0.1566667E+01  0.2123895E+06 -0.1460335E+01  0.1566017E+06 -0.5527084E+00  0.3269285E+05  0.1680082E+01
  0.1597619E+01  0.2123430E+06 -0.1460343E+01  0.1521592E+06 -0.5834652E+00  0.2955530E+05  0.1679800E+01
  0.1628572E+01  0.2118320E+06 -0.1461588E+01  0.1478373E+06 -0.6150713E+00  0.2635182E+05  0.1678201E+01
  0.1659524E+01  0.2108988E+06 -0.1464189E+01  0.1436268E+06 -0.6474950E+00  0.2310651E+05  0.1675127E+01
  0.1690476E+01  0.2095734E+06 -0.1468210E+01  0.1395386E+06 -0.6808034E+00  0.1986937E+05  0.1670496E+01
  0.1721429E+01  0.2078690E+06 -0.1473691E+01  0.1355859E+06 -0.7150645E+00  0.1666858E+05  0.1664601E+01
  0.1752381E+01  0.2058058E+06 -0.1480752E+01  0.1317755E+06 -0.7500979E+00  0.1343647E+05  0.1655940E+01
  0.1783333E+01  0.2034584E+06 -0.1489406E+01  0.1280580E+06 -0.7859836E+00  0.1028540E+05  0.1645636E+01
  0.1814286E+01  0.2008596E+06 -0.1499701E+01  0.1244314E+06 -0.8227196E+00  0.7209188E+04  0.1632629E+01
  0.1845238E+01  0.1980174E+06 -0.1511672E+01  0.1209128E+06 -0.8602082E+00  0.4196017E+04  0.1613753E+01
  0.1876190E+01  0.1949727E+06 -0.1525320E+01  0.1174806E+06 -0.8984643E+00  0.1282693E+04  0.1564026E+01
  0.1907143E+01  0.1917620E+06 -0.1540666E+01  0.1141291E+06 -0.9375440E+00  0.1529130E+04 -0.1499252E+01
  0.1938095E+01  0.1884149E+06 -0.1557736E+01  0.1108736E+06 -0.9775215E+00  0.4244654E+04 -0.1542662E+01
  0.1969048E+01  0.1849615E+06 -0.1576450E+01  0.1077448E+06 -0.1018535E+01  0.6825993E+04 -0.1568470E+01
  0.2000000E+01  0.1814212E+06 -0.1596844E+01  0.1047199E+06 -0.1060435E+01  0.9290381E+04 -0.1592429E+01
