VARIABLES="w (rad/s)"
"abs(F   1   1)" "angle(F   1   1)"
"abs(F   1   2)" "angle(F   1   2)"
"abs(F   1   3)" "angle(F   1   3)"
Zone t="Diffraction force - beta =   0.000 deg",I=    64,F=POINT
  0.5000000E-01  0.5745374E+03 -0.1570795E+01  0.2152865E+03 -0.3096646E+01  0.5871392E+03 -0.1570795E+01
  0.8095238E-01  0.9385493E+03 -0.1570793E+01  0.5590689E+03 -0.3095100E+01  0.9527449E+03 -0.1570791E+01
  0.1119048E+00  0.1309390E+04 -0.1570790E+01  0.1062725E+04 -0.3093131E+01  0.1327405E+04 -0.1570787E+01
  0.1428571E+00  0.1691427E+04 -0.1570786E+01  0.1727850E+04 -0.3090636E+01  0.1718367E+04 -0.1570779E+01
  0.1738095E+00  0.2086223E+04 -0.1570779E+01  0.2557759E+04 -0.3087480E+01  0.2116050E+04 -0.1570768E+01
  0.2047619E+00  0.2501075E+04 -0.1570769E+01  0.3556388E+04 -0.3083519E+01  0.2542559E+04 -0.1570753E+01
  0.2357143E+00  0.2938999E+04 -0.1570755E+01  0.4725761E+04 -0.3078473E+01  0.2986493E+04 -0.1570730E+01
  0.2666667E+00  0.3404625E+04 -0.1570734E+01  0.6076593E+04 -0.3072370E+01  0.3458121E+04 -0.1570696E+01
  0.2976190E+00  0.3908441E+04 -0.1570703E+01  0.7608868E+04 -0.3064659E+01  0.3980931E+04 -0.1570647E+01
  0.3285715E+00  0.4453849E+04 -0.1570657E+01  0.9328537E+04 -0.3055388E+01  0.4538032E+04 -0.1570572E+01
  0.3595238E+00  0.5045539E+04 -0.1570587E+01  0.1123883E+05 -0.3044142E+01  0.5136797E+04 -0.1570460E+01
  0.3904762E+00  0.5694221E+04 -0.1570484E+01  0.1334702E+05 -0.3030813E+01  0.5806573E+04 -0.1570292E+01
  0.4214286E+00  0.6409856E+04 -0.1570332E+01  0.1561444E+05 -0.3015749E+01  0.6552488E+04 -0.1570049E+01
  0.4523810E+00  0.7182971E+04 -0.1570111E+01  0.1807088E+05 -0.2998391E+01  0.7338205E+04 -0.1569688E+01
  0.4833333E+00  0.8014181E+04 -0.1569803E+01  0.2067420E+05 -0.2980764E+01  0.8185158E+04 -0.1569186E+01
  0.5142857E+00  0.8909343E+04 -0.1569377E+01  0.2341576E+05 -0.2961628E+01  0.9123148E+04 -0.1568493E+01
  0.5452381E+00  0.9857343E+04 -0.1568812E+01  0.2627934E+05 -0.2942424E+01  0.1011188E+05 -0.1567570E+01
  0.5761905E+00  0.1083833E+05 -0.1568077E+01  0.2925937E+05 -0.2923542E+01  0.1110921E+05 -0.1566357E+01
  0.6071429E+00  0.1184899E+05 -0.1567130E+01  0.3235121E+05 -0.2904261E+01  0.1214241E+05 -0.1564790E+01
  0.6380953E+00  0.1288588E+05 -0.1565954E+01  0.3554684E+05 -0.2886002E+01  0.1321150E+05 -0.1562838E+01
  0.6690477E+00  0.1394191E+05 -0.1564503E+01  0.3880745E+05 -0.2867736E+01  0.1431043E+05 -0.1560421E+01
  0.7000000E+00  0.1500704E+05 -0.1562728E+01  0.4213858E+05 -0.2849432E+01  0.1540125E+05 -0.1557439E+01
  0.7309524E+00  0.1606768E+05 -0.1560598E+01  0.4556151E+05 -0.2832001E+01  0.1646180E+05 -0.1553818E+01
  0.7619048E+00  0.1711467E+05 -0.1558062E+01  0.4903370E+05 -0.2814872E+01  0.1750017E+05 -0.1549463E+01
  0.7928572E+00  0.1814955E+05 -0.1555079E+01  0.5253470E+05 -0.2797938E+01  0.1853262E+05 -0.1544313E+01
  0.8238096E+00  0.1916778E+05 -0.1551614E+01  0.5605342E+05 -0.2781307E+01  0.1954903E+05 -0.1538286E+01
  0.8547620E+00  0.2015326E+05 -0.1547627E+01  0.5957862E+05 -0.2765072E+01  0.2050272E+05 -0.1531241E+01
  0.8857143E+00  0.2109379E+05 -0.1543077E+01  0.6310998E+05 -0.2749404E+01  0.2137120E+05 -0.1523047E+01
  0.9166667E+00  0.2197522E+05 -0.1537931E+01  0.6664229E+05 -0.2734412E+01  0.2214370E+05 -0.1513594E+01
  0.9476191E+00  0.2278852E+05 -0.1532174E+01  0.7014594E+05 -0.2719942E+01  0.2280564E+05 -0.1502769E+01
  0.9785714E+00  0.2352557E+05 -0.1525802E+01  0.7360323E+05 -0.2705923E+01  0.2334478E+05 -0.1490461E+01
  0.1009524E+01  0.2416724E+05 -0.1518807E+01  0.7699748E+05 -0.2692341E+01  0.2375040E+05 -0.1476561E+01
  0.1040476E+01  0.2471172E+05 -0.1511228E+01  0.8032328E+05 -0.2679321E+01  0.2400581E+05 -0.1460949E+01
  0.1071429E+01  0.2513795E+05 -0.1503081E+01  0.8356627E+05 -0.2666869E+01  0.2406685E+05 -0.1443351E+01
  0.1102381E+01  0.2542966E+05 -0.1494414E+01  0.8673102E+05 -0.2655200E+01  0.2390068E+05 -0.1423458E+01
  0.1133333E+01  0.2557461E+05 -0.1485301E+01  0.8979736E+05 -0.2644287E+01  0.2347734E+05 -0.1400868E+01
  0.1164286E+01  0.2554889E+05 -0.1475817E+01  0.9275992E+05 -0.2634156E+01  0.2277654E+05 -0.1375069E+01
  0.1195238E+01  0.2534720E+05 -0.1466133E+01  0.9561070E+05 -0.2624814E+01  0.2177898E+05 -0.1345361E+01
  0.1226190E+01  0.2495339E+05 -0.1456413E+01  0.9833922E+05 -0.2616187E+01  0.2046246E+05 -0.1310544E+01
  0.1257143E+01  0.2435908E+05 -0.1446796E+01  0.1009548E+06 -0.2607984E+01  0.1880936E+05 -0.1268389E+01
  0.1288095E+01  0.2355530E+05 -0.1437982E+01  0.1033740E+06 -0.2601171E+01  0.1682362E+05 -0.1216707E+01
  0.1319048E+01  0.2253217E+05 -0.1430019E+01  0.1056555E+06 -0.2594718E+01  0.1448719E+05 -0.1147787E+01
  0.1350000E+01  0.2128488E+05 -0.1423638E+01  0.1077756E+06 -0.2589025E+01  0.1182125E+05 -0.1047713E+01
  0.1380952E+01  0.1980965E+05 -0.1419734E+01  0.1097366E+06 -0.2584374E+01  0.8916146E+04 -0.8809255E+00
  0.1411905E+01  0.1825369E+05 -0.1417823E+01  0.1111119E+06 -0.2581356E+01  0.6358296E+04 -0.5772613E+00
  0.1442857E+01  0.1635208E+05 -0.1422598E+01  0.1127175E+06 -0.2578444E+01  0.4695453E+04  0.1348625E+00
  0.1473810E+01  0.1422865E+05 -0.1436321E+01  0.1141436E+06 -0.2576518E+01  0.6312754E+04  0.9447233E+00
  0.1504762E+01  0.1190865E+05 -0.1465654E+01  0.1154025E+06 -0.2575441E+01  0.1026304E+05  0.1330900E+01
  0.1535714E+01  0.9412378E+04 -0.1524895E+01  0.1164845E+06 -0.2575138E+01  0.1518367E+05  0.1514832E+01
  0.1566667E+01  0.6825282E+04 -0.1651973E+01  0.1173993E+06 -0.2575958E+01  0.2070249E+05  0.1623504E+01
  0.1597619E+01  0.4398181E+04 -0.1970069E+01  0.1181608E+06 -0.2578036E+01  0.2669677E+05  0.1698212E+01
  0.1628572E+01  0.3256059E+04 -0.2772955E+01  0.1187493E+06 -0.2581020E+01  0.3310809E+05  0.1754991E+01
  0.1659524E+01  0.4886671E+04  0.2760385E+01  0.1191839E+06 -0.2585202E+01  0.3989210E+05  0.1801178E+01
  0.1690476E+01  0.7904333E+04  0.2472900E+01  0.1194721E+06 -0.2590449E+01  0.4700377E+05  0.1840623E+01
  0.1721429E+01  0.1137407E+05  0.2354558E+01  0.1196220E+06 -0.2596742E+01  0.5440750E+05  0.1875400E+01
  0.1752381E+01  0.1506977E+05  0.2297156E+01  0.1196636E+06 -0.2603889E+01  0.6207171E+05  0.1906663E+01
  0.1783333E+01  0.1891279E+05  0.2266842E+01  0.1195756E+06 -0.2611766E+01  0.6996748E+05  0.1935149E+01
  0.1814286E+01  0.2286558E+05  0.2250494E+01  0.1193795E+06 -0.2620546E+01  0.7805845E+05  0.1961377E+01
  0.1845238E+01  0.2689880E+05  0.2241987E+01  0.1190850E+06 -0.2630150E+01  0.8631128E+05  0.1985628E+01
  0.1876190E+01  0.3097939E+05  0.2238432E+01  0.1186677E+06 -0.2640036E+01  0.9467438E+05  0.2008262E+01
  0.1907143E+01  0.3509262E+05  0.2237929E+01  0.1181467E+06 -0.2650450E+01  0.1031012E+06  0.2029528E+01
  0.1938095E+01  0.3921042E+05  0.2239475E+01  0.1175105E+06 -0.2660741E+01  0.1115504E+06  0.2049651E+01
  0.1969048E+01  0.4331872E+05  0.2242236E+01  0.1167356E+06 -0.2670964E+01  0.1199783E+06  0.2068613E+01
  0.2000000E+01  0.4739243E+05  0.2245846E+01  0.1157984E+06 -0.2680892E+01  0.1283357E+06  0.2086607E+01
