VARIABLES="w (rad/s)"
"abs(F   1   1)" "angle(F   1   1)"
"abs(F   1   2)" "angle(F   1   2)"
"abs(F   1   3)" "angle(F   1   3)"
Zone t="Diffraction force - beta =   0.000 deg",I=    64,F=POINT
  0.5000000E-01  0.1225910E+04 -0.1570776E+01  0.3585463E+06 -0.2404261E-04  0.1080595E+04 -0.1570776E+01
  0.8095238E-01  0.1999478E+04 -0.1570794E+01  0.3580365E+06 -0.6470329E-04  0.1759942E+04 -0.1570777E+01
  0.1119048E+00  0.2790677E+04 -0.1570808E+01  0.3572881E+06 -0.1285613E-03  0.2456343E+04 -0.1570784E+01
  0.1428571E+00  0.3608265E+04 -0.1570789E+01  0.3562977E+06 -0.2205508E-03  0.3178143E+04 -0.1570787E+01
  0.1738095E+00  0.4461938E+04 -0.1570796E+01  0.3550664E+06 -0.3482876E-03  0.3935324E+04 -0.1570789E+01
  0.2047619E+00  0.5360554E+04 -0.1570785E+01  0.3535850E+06 -0.5225121E-03  0.4734411E+04 -0.1570786E+01
  0.2357143E+00  0.6314789E+04 -0.1570787E+01  0.3518548E+06 -0.7593952E-03  0.5586457E+04 -0.1570783E+01
  0.2666667E+00  0.7342336E+04 -0.1570779E+01  0.3498709E+06 -0.1078782E-02  0.6507680E+04 -0.1570778E+01
  0.2976190E+00  0.8455438E+04 -0.1570773E+01  0.3476203E+06 -0.1513499E-02  0.7510099E+04 -0.1570770E+01
  0.3285715E+00  0.9669287E+04 -0.1570763E+01  0.3451079E+06 -0.2098422E-02  0.8608029E+04 -0.1570759E+01
  0.3595238E+00  0.1100899E+05 -0.1570747E+01  0.3423416E+06 -0.2887041E-02  0.9826098E+04 -0.1570743E+01
  0.3904762E+00  0.1249016E+05 -0.1570722E+01  0.3392935E+06 -0.3941338E-02  0.1118140E+05 -0.1570719E+01
  0.4214286E+00  0.1411721E+05 -0.1570686E+01  0.3360079E+06 -0.5300159E-02  0.1267172E+05 -0.1570684E+01
  0.4523810E+00  0.1591227E+05 -0.1570633E+01  0.3324841E+06 -0.7069647E-02  0.1433042E+05 -0.1570632E+01
  0.4833333E+00  0.1787760E+05 -0.1570561E+01  0.3287532E+06 -0.9210030E-02  0.1615462E+05 -0.1570559E+01
  0.5142857E+00  0.2000422E+05 -0.1570460E+01  0.3247955E+06 -0.1183954E-01  0.1814534E+05 -0.1570460E+01
  0.5452381E+00  0.2226882E+05 -0.1570325E+01  0.3206526E+06 -0.1492912E-01  0.2027271E+05 -0.1570324E+01
  0.5761905E+00  0.2468094E+05 -0.1570150E+01  0.3163527E+06 -0.1849421E-01  0.2256626E+05 -0.1570149E+01
  0.6071429E+00  0.2722407E+05 -0.1569925E+01  0.3119073E+06 -0.2263246E-01  0.2499811E+05 -0.1569924E+01
  0.6380953E+00  0.2986615E+05 -0.1569645E+01  0.3072752E+06 -0.2725804E-01  0.2752844E+05 -0.1569643E+01
  0.6690477E+00  0.3260639E+05 -0.1569295E+01  0.3024986E+06 -0.3247312E-01  0.3018214E+05 -0.1569296E+01
  0.7000000E+00  0.3544680E+05 -0.1568869E+01  0.2976215E+06 -0.3834305E-01  0.3297168E+05 -0.1568869E+01
  0.7309524E+00  0.3837787E+05 -0.1568357E+01  0.2926434E+06 -0.4483274E-01  0.3587573E+05 -0.1568357E+01
  0.7619048E+00  0.4139386E+05 -0.1567745E+01  0.2875751E+06 -0.5200087E-01  0.3888321E+05 -0.1567745E+01
  0.7928572E+00  0.4447615E+05 -0.1567022E+01  0.2824127E+06 -0.5987983E-01  0.4198268E+05 -0.1567022E+01
  0.8238096E+00  0.4761456E+05 -0.1566177E+01  0.2771751E+06 -0.6849017E-01  0.4516478E+05 -0.1566177E+01
  0.8547620E+00  0.5080043E+05 -0.1565201E+01  0.2718884E+06 -0.7785735E-01  0.4844255E+05 -0.1565201E+01
  0.8857143E+00  0.5404723E+05 -0.1564082E+01  0.2665782E+06 -0.8800041E-01  0.5182925E+05 -0.1564084E+01
  0.9166667E+00  0.5734626E+05 -0.1562815E+01  0.2612608E+06 -0.9893844E-01  0.5531651E+05 -0.1562817E+01
  0.9476191E+00  0.6067414E+05 -0.1561391E+01  0.2559589E+06 -0.1106814E+00  0.5885822E+05 -0.1561394E+01
  0.9785714E+00  0.6401412E+05 -0.1559802E+01  0.2506504E+06 -0.1232287E+00  0.6245161E+05 -0.1559805E+01
  0.1009524E+01  0.6736276E+05 -0.1558046E+01  0.2453371E+06 -0.1365874E+00  0.6608991E+05 -0.1558049E+01
  0.1040476E+01  0.7070227E+05 -0.1556126E+01  0.2400349E+06 -0.1507737E+00  0.6977899E+05 -0.1556129E+01
  0.1071429E+01  0.7402635E+05 -0.1554050E+01  0.2347748E+06 -0.1658056E+00  0.7350747E+05 -0.1554054E+01
  0.1102381E+01  0.7732651E+05 -0.1551826E+01  0.2295742E+06 -0.1816972E+00  0.7725854E+05 -0.1551834E+01
  0.1133333E+01  0.8058593E+05 -0.1549469E+01  0.2244514E+06 -0.1984562E+00  0.8103481E+05 -0.1549481E+01
  0.1164286E+01  0.8380050E+05 -0.1546998E+01  0.2193965E+06 -0.2160692E+00  0.8480555E+05 -0.1547014E+01
  0.1195238E+01  0.8694241E+05 -0.1544434E+01  0.2144085E+06 -0.2345187E+00  0.8855411E+05 -0.1544454E+01
  0.1226190E+01  0.9000025E+05 -0.1541808E+01  0.2094703E+06 -0.2537847E+00  0.9225976E+05 -0.1541827E+01
  0.1257143E+01  0.9293995E+05 -0.1539124E+01  0.2045945E+06 -0.2741258E+00  0.9587761E+05 -0.1539139E+01
  0.1288095E+01  0.9577224E+05 -0.1536515E+01  0.1998000E+06 -0.2948060E+00  0.9944253E+05 -0.1536524E+01
  0.1319048E+01  0.9846019E+05 -0.1533949E+01  0.1950759E+06 -0.3165792E+00  0.1029019E+06 -0.1533954E+01
  0.1350000E+01  0.1010021E+06 -0.1531522E+01  0.1904404E+06 -0.3391918E+00  0.1062561E+06 -0.1531524E+01
  0.1380952E+01  0.1033815E+06 -0.1529293E+01  0.1858829E+06 -0.3626086E+00  0.1094926E+06 -0.1529292E+01
  0.1411905E+01  0.1053510E+06 -0.1527941E+01  0.1824455E+06 -0.3810584E+00  0.1122611E+06 -0.1527937E+01
  0.1442857E+01  0.1074078E+06 -0.1526283E+01  0.1781031E+06 -0.4057952E+00  0.1152415E+06 -0.1526274E+01
  0.1473810E+01  0.1092738E+06 -0.1525020E+01  0.1738633E+06 -0.4313454E+00  0.1180454E+06 -0.1525008E+01
  0.1504762E+01  0.1109363E+06 -0.1524237E+01  0.1697148E+06 -0.4576871E+00  0.1206752E+06 -0.1524220E+01
  0.1535714E+01  0.1124003E+06 -0.1524026E+01  0.1656418E+06 -0.4848014E+00  0.1231126E+06 -0.1524003E+01
  0.1566667E+01  0.1136521E+06 -0.1524462E+01  0.1616615E+06 -0.5127111E+00  0.1253505E+06 -0.1524437E+01
  0.1597619E+01  0.1146885E+06 -0.1525627E+01  0.1577678E+06 -0.5413958E+00  0.1273754E+06 -0.1525600E+01
  0.1628572E+01  0.1155118E+06 -0.1527605E+01  0.1539501E+06 -0.5708298E+00  0.1291804E+06 -0.1527575E+01
  0.1659524E+01  0.1161217E+06 -0.1530480E+01  0.1502375E+06 -0.6010715E+00  0.1307697E+06 -0.1530446E+01
  0.1690476E+01  0.1165253E+06 -0.1534317E+01  0.1466214E+06 -0.6321091E+00  0.1321305E+06 -0.1534282E+01
  0.1721429E+01  0.1167206E+06 -0.1539189E+01  0.1431013E+06 -0.6639167E+00  0.1332751E+06 -0.1539150E+01
  0.1752381E+01  0.1167231E+06 -0.1545167E+01  0.1396676E+06 -0.6965056E+00  0.1342003E+06 -0.1545128E+01
  0.1783333E+01  0.1165405E+06 -0.1552314E+01  0.1363181E+06 -0.7298516E+00  0.1349156E+06 -0.1552278E+01
  0.1814286E+01  0.1161794E+06 -0.1560673E+01  0.1330554E+06 -0.7639568E+00  0.1354228E+06 -0.1560637E+01
  0.1845238E+01  0.1156543E+06 -0.1570292E+01  0.1298863E+06 -0.7988277E+00  0.1357375E+06 -0.1570258E+01
  0.1876190E+01  0.1149757E+06 -0.1581212E+01  0.1267848E+06 -0.8343883E+00  0.1358619E+06 -0.1581183E+01
  0.1907143E+01  0.1141560E+06 -0.1593476E+01  0.1237652E+06 -0.8706705E+00  0.1358194E+06 -0.1593447E+01
  0.1938095E+01  0.1132101E+06 -0.1607096E+01  0.1208170E+06 -0.9076706E+00  0.1356106E+06 -0.1607069E+01
  0.1969048E+01  0.1121466E+06 -0.1622083E+01  0.1179382E+06 -0.9453788E+00  0.1352425E+06 -0.1622064E+01
  0.2000000E+01  0.1109775E+06 -0.1638448E+01  0.1151410E+06 -0.9838129E+00  0.1347289E+06 -0.1638443E+01
