VARIABLES="w (rad/s)"
"abs(F   1   1)" "angle(F   1   1)"
"abs(F   1   2)" "angle(F   1   2)"
"abs(F   1   3)" "angle(F   1   3)"
Zone t="Diffraction force - beta =   0.000 deg",I=    64,F=POINT
  0.5000000E-01  0.1818133E+03 -0.1570796E+01  0.4911613E+02 -0.3110407E+01  0.1919940E+01 -0.1570795E+01
  0.8095238E-01  0.2968274E+03 -0.1570795E+01  0.1279499E+03 -0.3109402E+01  0.3126026E+01 -0.1570793E+01
  0.1119048E+00  0.4156375E+03 -0.1570794E+01  0.2439619E+03 -0.3108090E+01  0.4389299E+01 -0.1570792E+01
  0.1428571E+00  0.5384346E+03 -0.1570793E+01  0.3972787E+03 -0.3106348E+01  0.5621474E+01 -0.1570790E+01
  0.1738095E+00  0.6662025E+03 -0.1570791E+01  0.5883787E+03 -0.3104085E+01  0.7046459E+01 -0.1570786E+01
  0.2047619E+00  0.8004136E+03 -0.1570788E+01  0.8182283E+03 -0.3101221E+01  0.8401547E+01 -0.1570782E+01
  0.2357143E+00  0.9464661E+03 -0.1570784E+01  0.1087572E+04 -0.3097566E+01  0.1003475E+02 -0.1570776E+01
  0.2666667E+00  0.1098732E+04 -0.1570778E+01  0.1397477E+04 -0.3093065E+01  0.1169759E+02 -0.1570768E+01
  0.2976190E+00  0.1267675E+04 -0.1570768E+01  0.1749373E+04 -0.3087386E+01  0.1348043E+02 -0.1570755E+01
  0.3285715E+00  0.1454314E+04 -0.1570754E+01  0.2143587E+04 -0.3080483E+01  0.1560042E+02 -0.1570737E+01
  0.3595238E+00  0.1657443E+04 -0.1570732E+01  0.2581091E+04 -0.3072051E+01  0.1795922E+02 -0.1570710E+01
  0.3904762E+00  0.1878645E+04 -0.1570700E+01  0.3062800E+04 -0.3061942E+01  0.2030098E+02 -0.1570666E+01
  0.4214286E+00  0.2132900E+04 -0.1570653E+01  0.3585225E+04 -0.3050494E+01  0.2327186E+02 -0.1570607E+01
  0.4523810E+00  0.2412093E+04 -0.1570583E+01  0.4149326E+04 -0.3037119E+01  0.2665677E+02 -0.1570519E+01
  0.4833333E+00  0.2709318E+04 -0.1570484E+01  0.4750529E+04 -0.3023331E+01  0.3030279E+02 -0.1570397E+01
  0.5142857E+00  0.3038253E+04 -0.1570346E+01  0.5388312E+04 -0.3008285E+01  0.3412646E+02 -0.1570222E+01
  0.5452381E+00  0.3399099E+04 -0.1570162E+01  0.6058907E+04 -0.2992952E+01  0.3899328E+02 -0.1569997E+01
  0.5761905E+00  0.3783057E+04 -0.1569920E+01  0.6761945E+04 -0.2977618E+01  0.4424244E+02 -0.1569704E+01
  0.6071429E+00  0.4171860E+04 -0.1569601E+01  0.7494254E+04 -0.2961685E+01  0.4830824E+02 -0.1569289E+01
  0.6380953E+00  0.4586047E+04 -0.1569199E+01  0.8260029E+04 -0.2946324E+01  0.5389968E+02 -0.1568794E+01
  0.6690477E+00  0.5034840E+04 -0.1568698E+01  0.9052971E+04 -0.2930819E+01  0.6017389E+02 -0.1568187E+01
  0.7000000E+00  0.5503640E+04 -0.1568075E+01  0.9867766E+04 -0.2914940E+01  0.6676842E+02 -0.1567430E+01
  0.7309524E+00  0.5981507E+04 -0.1567310E+01  0.1070921E+05 -0.2899302E+01  0.7373470E+02 -0.1566507E+01
  0.7619048E+00  0.6464276E+04 -0.1566375E+01  0.1157575E+05 -0.2883709E+01  0.7982449E+02 -0.1565329E+01
  0.7928572E+00  0.6967678E+04 -0.1565250E+01  0.1246126E+05 -0.2868033E+01  0.8662567E+02 -0.1563928E+01
  0.8238096E+00  0.7498747E+04 -0.1563915E+01  0.1336192E+05 -0.2852287E+01  0.9479988E+02 -0.1562325E+01
  0.8547620E+00  0.8056781E+04 -0.1562345E+01  0.1427934E+05 -0.2836636E+01  0.1042846E+03 -0.1560495E+01
  0.8857143E+00  0.8633215E+04 -0.1560504E+01  0.1520994E+05 -0.2821074E+01  0.1138972E+03 -0.1558336E+01
  0.9166667E+00  0.9214229E+04 -0.1558348E+01  0.1615066E+05 -0.2805598E+01  0.1228536E+03 -0.1555730E+01
  0.9476191E+00  0.9789765E+04 -0.1555830E+01  0.1709641E+05 -0.2790156E+01  0.1311997E+03 -0.1552612E+01
  0.9785714E+00  0.1037708E+05 -0.1552931E+01  0.1805088E+05 -0.2774928E+01  0.1409674E+03 -0.1549133E+01
  0.1009524E+01  0.1099632E+05 -0.1549643E+01  0.1901028E+05 -0.2759896E+01  0.1519727E+03 -0.1545270E+01
  0.1040476E+01  0.1163875E+05 -0.1545925E+01  0.1996865E+05 -0.2744977E+01  0.1635456E+03 -0.1540914E+01
  0.1071429E+01  0.1229859E+05 -0.1541736E+01  0.2092359E+05 -0.2730193E+01  0.1754599E+03 -0.1535980E+01
  0.1102381E+01  0.1296388E+05 -0.1537020E+01  0.2187216E+05 -0.2715532E+01  0.1889464E+03 -0.1530614E+01
  0.1133333E+01  0.1363993E+05 -0.1531748E+01  0.2281650E+05 -0.2701145E+01  0.2033589E+03 -0.1524700E+01
  0.1164286E+01  0.1431082E+05 -0.1525852E+01  0.2375518E+05 -0.2687066E+01  0.2163662E+03 -0.1517800E+01
  0.1195238E+01  0.1497147E+05 -0.1519277E+01  0.2468420E+05 -0.2673232E+01  0.2282664E+03 -0.1509860E+01
  0.1226190E+01  0.1563219E+05 -0.1512019E+01  0.2560271E+05 -0.2659677E+01  0.2409699E+03 -0.1501220E+01
  0.1257143E+01  0.1628760E+05 -0.1504042E+01  0.2651119E+05 -0.2645908E+01  0.2548117E+03 -0.1491924E+01
  0.1288095E+01  0.1698827E+05 -0.1495493E+01  0.2739352E+05 -0.2633126E+01  0.2715689E+03 -0.1482457E+01
  0.1319048E+01  0.1768345E+05 -0.1486197E+01  0.2826466E+05 -0.2620253E+01  0.2893401E+03 -0.1472289E+01
  0.1350000E+01  0.1837478E+05 -0.1476144E+01  0.2911667E+05 -0.2607662E+01  0.3061162E+03 -0.1460971E+01
  0.1380952E+01  0.1905613E+05 -0.1465296E+01  0.2994836E+05 -0.2595396E+01  0.3234115E+03 -0.1448852E+01
  0.1411905E+01  0.1960872E+05 -0.1453658E+01  0.3073800E+05 -0.2583176E+01  0.3327999E+03 -0.1434095E+01
  0.1442857E+01  0.2023945E+05 -0.1441084E+01  0.3152107E+05 -0.2571300E+01  0.3495442E+03 -0.1419774E+01
  0.1473810E+01  0.2082927E+05 -0.1427551E+01  0.3228049E+05 -0.2559726E+01  0.3655516E+03 -0.1404167E+01
  0.1504762E+01  0.2138639E+05 -0.1413095E+01  0.3301749E+05 -0.2548530E+01  0.3814358E+03 -0.1387471E+01
  0.1535714E+01  0.2191106E+05 -0.1397772E+01  0.3373074E+05 -0.2537724E+01  0.3979757E+03 -0.1370226E+01
  0.1566667E+01  0.2241068E+05 -0.1381719E+01  0.3441778E+05 -0.2527190E+01  0.4134745E+03 -0.1351833E+01
  0.1597619E+01  0.2287382E+05 -0.1364907E+01  0.3507581E+05 -0.2516890E+01  0.4289626E+03 -0.1332853E+01
  0.1628572E+01  0.2329455E+05 -0.1347350E+01  0.3570352E+05 -0.2506815E+01  0.4437550E+03 -0.1312935E+01
  0.1659524E+01  0.2366704E+05 -0.1329053E+01  0.3630003E+05 -0.2496953E+01  0.4587808E+03 -0.1292273E+01
  0.1690476E+01  0.2397519E+05 -0.1309934E+01  0.3686445E+05 -0.2487294E+01  0.4735692E+03 -0.1270908E+01
  0.1721429E+01  0.2422290E+05 -0.1290089E+01  0.3739885E+05 -0.2477972E+01  0.4879751E+03 -0.1249034E+01
  0.1752381E+01  0.2440515E+05 -0.1269546E+01  0.3790221E+05 -0.2468989E+01  0.5018985E+03 -0.1226703E+01
  0.1783333E+01  0.2451744E+05 -0.1248433E+01  0.3837375E+05 -0.2460328E+01  0.5141402E+03 -0.1203790E+01
  0.1814286E+01  0.2455830E+05 -0.1226858E+01  0.3881166E+05 -0.2451884E+01  0.5239643E+03 -0.1179701E+01
  0.1845238E+01  0.2451428E+05 -0.1204749E+01  0.3921547E+05 -0.2443666E+01  0.5308765E+03 -0.1154493E+01
  0.1876190E+01  0.2439116E+05 -0.1182246E+01  0.3958493E+05 -0.2435696E+01  0.5360197E+03 -0.1128672E+01
  0.1907143E+01  0.2418676E+05 -0.1159394E+01  0.3991955E+05 -0.2427968E+01  0.5399831E+03 -0.1102378E+01
  0.1938095E+01  0.2389051E+05 -0.1136085E+01  0.4021835E+05 -0.2420387E+01  0.5431936E+03 -0.1076184E+01
  0.1969048E+01  0.2350835E+05 -0.1112473E+01  0.4048375E+05 -0.2413139E+01  0.5445347E+03 -0.1050053E+01
  0.2000000E+01  0.2304327E+05 -0.1088777E+01  0.4071502E+05 -0.2406175E+01  0.5444423E+03 -0.1024553E+01
