VARIABLES="w (rad/s)"
"abs(F   1   1)" "angle(F   1   1)"
"abs(F   1   2)" "angle(F   1   2)"
"abs(F   1   3)" "angle(F   1   3)"
Zone t="Diffraction force - beta =   0.000 deg",I=    64,F=POINT
  0.5000000E-01  0.5248280E+03 -0.1570809E+01  0.1495905E+06 -0.1023784E-04  0.7047305E+01 -0.1571820E+01
  0.8095238E-01  0.8558666E+03 -0.1570796E+01  0.1494237E+06 -0.2755963E-04  0.1148973E+02 -0.1571447E+01
  0.1119048E+00  0.1196064E+04 -0.1570803E+01  0.1491781E+06 -0.5477859E-04  0.1608003E+02 -0.1571282E+01
  0.1428571E+00  0.1547940E+04 -0.1570794E+01  0.1488536E+06 -0.9404626E-04  0.2076920E+02 -0.1571147E+01
  0.1738095E+00  0.1915083E+04 -0.1570803E+01  0.1484497E+06 -0.1486270E-03  0.2582521E+02 -0.1571086E+01
  0.2047619E+00  0.2301943E+04 -0.1570787E+01  0.1479658E+06 -0.2231890E-03  0.3103551E+02 -0.1571045E+01
  0.2357143E+00  0.2717350E+04 -0.1570794E+01  0.1474012E+06 -0.3247378E-03  0.3680634E+02 -0.1570991E+01
  0.2666667E+00  0.3159646E+04 -0.1570789E+01  0.1467548E+06 -0.4619240E-03  0.4295658E+02 -0.1570952E+01
  0.2976190E+00  0.3643848E+04 -0.1570788E+01  0.1460255E+06 -0.6490676E-03  0.4965445E+02 -0.1570939E+01
  0.3285715E+00  0.4176042E+04 -0.1570783E+01  0.1452134E+06 -0.9015146E-03  0.5720470E+02 -0.1570906E+01
  0.3595238E+00  0.4760430E+04 -0.1570779E+01  0.1443178E+06 -0.1242737E-02  0.6560411E+02 -0.1570883E+01
  0.3904762E+00  0.5403882E+04 -0.1570761E+01  0.1433387E+06 -0.1700146E-02  0.7469296E+02 -0.1570858E+01
  0.4214286E+00  0.6125934E+04 -0.1570747E+01  0.1422803E+06 -0.2292366E-02  0.8520505E+02 -0.1570834E+01
  0.4523810E+00  0.6921523E+04 -0.1570721E+01  0.1411429E+06 -0.3065745E-02  0.9699258E+02 -0.1570796E+01
  0.4833333E+00  0.7784813E+04 -0.1570686E+01  0.1399317E+06 -0.4005498E-02  0.1099415E+03 -0.1570755E+01
  0.5142857E+00  0.8728543E+04 -0.1570638E+01  0.1386488E+06 -0.5165424E-02  0.1239781E+03 -0.1570696E+01
  0.5452381E+00  0.9750465E+04 -0.1570574E+01  0.1372989E+06 -0.6535318E-02  0.1399547E+03 -0.1570622E+01
  0.5761905E+00  0.1083867E+05 -0.1570490E+01  0.1358832E+06 -0.8123402E-02  0.1571872E+03 -0.1570536E+01
  0.6071429E+00  0.1197175E+05 -0.1570378E+01  0.1344071E+06 -0.9977400E-02  0.1740874E+03 -0.1570419E+01
  0.6380953E+00  0.1316761E+05 -0.1570240E+01  0.1328661E+06 -0.1206277E-01  0.1933489E+03 -0.1570278E+01
  0.6690477E+00  0.1443322E+05 -0.1570064E+01  0.1312685E+06 -0.1442920E-01  0.2141209E+03 -0.1570098E+01
  0.7000000E+00  0.1575229E+05 -0.1569846E+01  0.1296220E+06 -0.1710796E-01  0.2360414E+03 -0.1569875E+01
  0.7309524E+00  0.1711247E+05 -0.1569578E+01  0.1279220E+06 -0.2008722E-01  0.2591681E+03 -0.1569603E+01
  0.7619048E+00  0.1850835E+05 -0.1569253E+01  0.1261719E+06 -0.2340047E-01  0.2822621E+03 -0.1569275E+01
  0.7928572E+00  0.1995456E+05 -0.1568860E+01  0.1243799E+06 -0.2706989E-01  0.3069224E+03 -0.1568881E+01
  0.8238096E+00  0.2145704E+05 -0.1568391E+01  0.1225516E+06 -0.3111012E-01  0.3338251E+03 -0.1568411E+01
  0.8547620E+00  0.2301398E+05 -0.1567837E+01  0.1206862E+06 -0.3553266E-01  0.3629181E+03 -0.1567856E+01
  0.8857143E+00  0.2461571E+05 -0.1567186E+01  0.1187892E+06 -0.4035157E-01  0.3930328E+03 -0.1567202E+01
  0.9166667E+00  0.2624727E+05 -0.1566427E+01  0.1168651E+06 -0.4558118E-01  0.4233980E+03 -0.1566440E+01
  0.9476191E+00  0.2789739E+05 -0.1565544E+01  0.1149208E+06 -0.5123500E-01  0.4540698E+03 -0.1565557E+01
  0.9785714E+00  0.2958214E+05 -0.1564529E+01  0.1129537E+06 -0.5732304E-01  0.4870929E+03 -0.1564541E+01
  0.1009524E+01  0.3132038E+05 -0.1563370E+01  0.1109687E+06 -0.6385636E-01  0.5222928E+03 -0.1563383E+01
  0.1040476E+01  0.3310202E+05 -0.1562053E+01  0.1089736E+06 -0.7084574E-01  0.5590079E+03 -0.1562068E+01
  0.1071429E+01  0.3491990E+05 -0.1560563E+01  0.1069721E+06 -0.7829848E-01  0.5970195E+03 -0.1560577E+01
  0.1102381E+01  0.3676066E+05 -0.1558887E+01  0.1049683E+06 -0.8622304E-01  0.6375636E+03 -0.1558901E+01
  0.1133333E+01  0.3862804E+05 -0.1557010E+01  0.1029605E+06 -0.9462096E-01  0.6800000E+03 -0.1557025E+01
  0.1164286E+01  0.4050459E+05 -0.1554921E+01  0.1009506E+06 -0.1034967E+00  0.7219955E+03 -0.1554930E+01
  0.1195238E+01  0.4238360E+05 -0.1552605E+01  0.9894412E+05 -0.1128589E+00  0.7638472E+03 -0.1552605E+01
  0.1226190E+01  0.4427362E+05 -0.1550053E+01  0.9694221E+05 -0.1227134E+00  0.8074639E+03 -0.1550056E+01
  0.1257143E+01  0.4616754E+05 -0.1547261E+01  0.9495340E+05 -0.1331915E+00  0.8531738E+03 -0.1547270E+01
  0.1288095E+01  0.4811410E+05 -0.1544230E+01  0.9297334E+05 -0.1439379E+00  0.9027488E+03 -0.1544260E+01
  0.1319048E+01  0.5006050E+05 -0.1540943E+01  0.9100723E+05 -0.1553035E+00  0.9542714E+03 -0.1540978E+01
  0.1350000E+01  0.5200641E+05 -0.1537398E+01  0.8905671E+05 -0.1671666E+00  0.1005719E+04 -0.1537435E+01
  0.1380952E+01  0.5394353E+05 -0.1533588E+01  0.8712254E+05 -0.1795204E+00  0.1058564E+04 -0.1533629E+01
  0.1411905E+01  0.5575125E+05 -0.1529679E+01  0.8522693E+05 -0.1922764E+00  0.1104366E+04 -0.1529724E+01
  0.1442857E+01  0.5763332E+05 -0.1525356E+01  0.8333814E+05 -0.2056453E+00  0.1158361E+04 -0.1525387E+01
  0.1473810E+01  0.5946859E+05 -0.1520774E+01  0.8147021E+05 -0.2195176E+00  0.1212407E+04 -0.1520772E+01
  0.1504762E+01  0.6126273E+05 -0.1515944E+01  0.7962102E+05 -0.2338947E+00  0.1267077E+04 -0.1515895E+01
  0.1535714E+01  0.6301355E+05 -0.1510896E+01  0.7779130E+05 -0.2487730E+00  0.1323120E+04 -0.1510840E+01
  0.1566667E+01  0.6472613E+05 -0.1505674E+01  0.7598579E+05 -0.2641745E+00  0.1378776E+04 -0.1505614E+01
  0.1597619E+01  0.6638650E+05 -0.1500298E+01  0.7420749E+05 -0.2800929E+00  0.1435041E+04 -0.1500285E+01
  0.1628572E+01  0.6798613E+05 -0.1494797E+01  0.7245798E+05 -0.2965250E+00  0.1491158E+04 -0.1494838E+01
  0.1659524E+01  0.6951670E+05 -0.1489203E+01  0.7073833E+05 -0.3134713E+00  0.1547990E+04 -0.1489227E+01
  0.1690476E+01  0.7095944E+05 -0.1483544E+01  0.6904939E+05 -0.3309313E+00  0.1605007E+04 -0.1483525E+01
  0.1721429E+01  0.7231605E+05 -0.1477867E+01  0.6738611E+05 -0.3488967E+00  0.1662014E+04 -0.1477817E+01
  0.1752381E+01  0.7357927E+05 -0.1472221E+01  0.6574870E+05 -0.3673631E+00  0.1718853E+04 -0.1472137E+01
  0.1783333E+01  0.7474316E+05 -0.1466688E+01  0.6413809E+05 -0.3863330E+00  0.1774273E+04 -0.1466634E+01
  0.1814286E+01  0.7580489E+05 -0.1461337E+01  0.6255843E+05 -0.4058200E+00  0.1827420E+04 -0.1461281E+01
  0.1845238E+01  0.7674933E+05 -0.1456221E+01  0.6100968E+05 -0.4258186E+00  0.1877757E+04 -0.1456222E+01
  0.1876190E+01  0.7758151E+05 -0.1451406E+01  0.5949099E+05 -0.4463232E+00  0.1926394E+04 -0.1451464E+01
  0.1907143E+01  0.7829855E+05 -0.1446951E+01  0.5800261E+05 -0.4673309E+00  0.1973854E+04 -0.1446974E+01
  0.1938095E+01  0.7888884E+05 -0.1442908E+01  0.5654825E+05 -0.4888523E+00  0.2020583E+04 -0.1442838E+01
  0.1969048E+01  0.7935871E+05 -0.1439353E+01  0.5511994E+05 -0.5108815E+00  0.2065487E+04 -0.1439254E+01
  0.2000000E+01  0.7971271E+05 -0.1436384E+01  0.5371946E+05 -0.5334256E+00  0.2109062E+04 -0.1436292E+01
