VARIABLES="w (rad/s)"
"A   1   1" "B   1   1"
"A   1   2" "B   1   2"
"A   1   3" "B   1   3"
Zone t="Motion of body    1 in DoF   1",I=    64,F=POINT
  0.5000000E-01  0.3064618E+06  0.6728252E-01 -0.3318787E-01 -0.6011548E-04 -0.4004433E+06 -0.5016291E-01
  0.8095238E-01  0.3072592E+06  0.2956437E+00 -0.1244040E-01 -0.1057936E-03 -0.4013306E+06 -0.2180566E+00
  0.1119048E+00  0.3077001E+06  0.8284725E+00 -0.2536206E-01 -0.3030044E-03 -0.4012564E+06 -0.6093379E+00
  0.1428571E+00  0.3078725E+06  0.1861340E+01  0.1495361E-01  0.2040500E-03 -0.4017912E+06 -0.1364103E+01
  0.1738095E+00  0.3086315E+06  0.3696249E+01  0.5179627E-02  0.1420453E-04 -0.4013702E+06 -0.2688310E+01
  0.2047619E+00  0.3089149E+06  0.6795710E+01  0.8942360E-02  0.9549037E-04 -0.4019553E+06 -0.4920557E+01
  0.2357143E+00  0.3096660E+06  0.1192827E+02  0.1178163E-01 -0.2216771E-03 -0.4014455E+06 -0.8558648E+01
  0.2666667E+00  0.3104959E+06  0.2027131E+02 -0.2117157E-01 -0.9527057E-04 -0.4015867E+06 -0.1441208E+02
  0.2976190E+00  0.3111354E+06  0.3383615E+02  0.1599609E-01  0.4860759E-03 -0.4021234E+06 -0.2384965E+02
  0.3285715E+00  0.3122432E+06  0.5570367E+02  0.1458209E-01  0.9375215E-03 -0.4017712E+06 -0.3875869E+02
  0.3595238E+00  0.3135416E+06  0.9099991E+02  0.2478593E-01  0.2943635E-02 -0.4015564E+06 -0.6246075E+02
  0.3904762E+00  0.3147216E+06  0.1474786E+03 -0.5126953E-01 -0.3053248E-02 -0.4020626E+06 -0.9992062E+02
  0.4214286E+00  0.3160824E+06  0.2356539E+03 -0.1926228E-01 -0.1079202E-02 -0.4024732E+06 -0.1572886E+03
  0.4523810E+00  0.3178875E+06  0.3734308E+03  0.3170615E-01  0.1234055E-02 -0.4021327E+06 -0.2448568E+03
  0.4833333E+00  0.3199071E+06  0.5768001E+03 -0.9849811E-02  0.9045601E-03 -0.4022326E+06 -0.3709866E+03
  0.5142857E+00  0.3217204E+06  0.8757979E+03 -0.1329210E-01  0.8559227E-03 -0.4031400E+06 -0.5536238E+03
  0.5452381E+00  0.3238369E+06  0.1297442E+04  0.6839669E-01  0.6255150E-02 -0.4035267E+06 -0.8035117E+03
  0.5761905E+00  0.3264710E+06  0.1876690E+04  0.2785927E-01  0.4295349E-02 -0.4032892E+06 -0.1134230E+04
  0.6071429E+00  0.3292810E+06  0.2663687E+04 -0.1507927E-01  0.7362366E-03 -0.4035558E+06 -0.1571448E+04
  0.6380953E+00  0.3320045E+06  0.3693883E+04 -0.1166956E-01 -0.1106262E-02 -0.4041198E+06 -0.2125299E+04
  0.6690477E+00  0.3347965E+06  0.5029877E+04  0.3785917E-01  0.3997803E-02 -0.4048715E+06 -0.2819750E+04
  0.7000000E+00  0.3379814E+06  0.6742052E+04 -0.6277902E-02  0.9040833E-03 -0.4049442E+06 -0.3669564E+04
  0.7309524E+00  0.3413883E+06  0.8888979E+04 -0.1503015E-02 -0.1274109E-02 -0.4045058E+06 -0.4680341E+04
  0.7619048E+00  0.3449217E+06  0.1155337E+05  0.5783843E-01  0.1109314E-01 -0.4044711E+06 -0.5879578E+04
  0.7928572E+00  0.3481621E+06  0.1481270E+05  0.1077738E-02  0.1171112E-01 -0.4045451E+06 -0.7277831E+04
  0.8238096E+00  0.3512898E+06  0.1874429E+05 -0.5749300E-01 -0.1794434E-01 -0.4044032E+06 -0.8870100E+04
  0.8547620E+00  0.3543547E+06  0.2341943E+05 -0.5569670E-01 -0.2568054E-01 -0.4037998E+06 -0.1063948E+05
  0.8857143E+00  0.3572942E+06  0.2890945E+05  0.1061224E-01  0.1403809E-02 -0.4027207E+06 -0.1256355E+05
  0.9166667E+00  0.3599554E+06  0.3527286E+05 -0.6724964E-01 -0.2500916E-01 -0.4011982E+06 -0.1460679E+05
  0.9476191E+00  0.3621466E+06  0.4254884E+05  0.4122173E-02  0.1766968E-01 -0.3994130E+06 -0.1672746E+05
  0.9785714E+00  0.3637781E+06  0.5075957E+05 -0.1646613E-01 -0.8850098E-02 -0.3975122E+06 -0.1887520E+05
  0.1009524E+01  0.3647162E+06  0.5989207E+05  0.3869399E-01 -0.2105713E-02 -0.3956615E+06 -0.2099661E+05
  0.1040476E+01  0.3646543E+06  0.6988015E+05  0.5631436E-02  0.1300049E-01 -0.3932600E+06 -0.2296137E+05
  0.1071429E+01  0.3639315E+06  0.8064892E+05  0.2529297E-01 -0.2789307E-01 -0.3907203E+06 -0.2471387E+05
  0.1102381E+01  0.3622169E+06  0.9205970E+05 -0.2137153E-01  0.1123047E-01 -0.3874845E+06 -0.2608776E+05
  0.1133333E+01  0.3596678E+06  0.1039647E+06 -0.1712575E-01 -0.1116943E-01 -0.3838837E+06 -0.2699997E+05
  0.1164286E+01  0.3562797E+06  0.1162233E+06  0.2390481E-01  0.9155273E-03 -0.3804604E+06 -0.2744505E+05
  0.1195238E+01  0.3518238E+06  0.1286123E+06 -0.8272573E-02 -0.1068115E-01 -0.3767409E+06 -0.2724848E+05
  0.1226190E+01  0.3466713E+06  0.1409603E+06 -0.1632661E-01 -0.4882812E-03 -0.3733070E+06 -0.2645367E+05
  0.1257143E+01  0.3406819E+06  0.1531513E+06 -0.1359419E-01 -0.8544922E-02 -0.3697873E+06 -0.2495638E+05
  0.1288095E+01  0.3340535E+06  0.1646423E+06  0.2843042E-01  0.2551270E-01 -0.3664436E+06 -0.2272669E+05
  0.1319048E+01  0.3268916E+06  0.1756118E+06 -0.3331594E-01  0.2502441E-01 -0.3632172E+06 -0.1975259E+05
  0.1350000E+01  0.3194052E+06  0.1859010E+06  0.2549913E-01  0.4406738E-01 -0.3608115E+06 -0.1632121E+05
  0.1380952E+01  0.3114234E+06  0.1952487E+06 -0.3624226E-02 -0.1257324E-01 -0.3581461E+06 -0.1204344E+05
  0.1411905E+01  0.3028230E+06  0.2031950E+06  0.1582179E-01  0.1477051E-01 -0.3568909E+06 -0.7359945E+04
  0.1442857E+01  0.2948130E+06  0.2107177E+06  0.1116762E-01  0.2502441E-01 -0.3552223E+06 -0.2133476E+04
  0.1473810E+01  0.2868403E+06  0.2172706E+06  0.1408048E-01  0.1342773E-01 -0.3539986E+06  0.3475240E+04
  0.1504762E+01  0.2790345E+06  0.2228127E+06  0.1573780E-01  0.1721191E-01 -0.3531532E+06  0.9435846E+04
  0.1535714E+01  0.2714939E+06  0.2273859E+06 -0.6120548E-02  0.2795410E-01 -0.3526673E+06  0.1573666E+05
  0.1566667E+01  0.2642364E+06  0.2311411E+06  0.7791722E-04 -0.2124023E-01 -0.3528447E+06  0.2194873E+05
  0.1597619E+01  0.2571391E+06  0.2339632E+06 -0.1253085E-01 -0.4638672E-02 -0.3529837E+06  0.2856857E+05
  0.1628572E+01  0.2505814E+06  0.2361067E+06 -0.3747772E-03 -0.2612305E-01 -0.3538500E+06  0.3487399E+05
  0.1659524E+01  0.2443470E+06  0.2374075E+06  0.1581485E-01  0.1757812E-01 -0.3547530E+06  0.4146292E+05
  0.1690476E+01  0.2384092E+06  0.2380720E+06 -0.1776381E-01  0.7568359E-02 -0.3558938E+06  0.4788142E+05
  0.1721429E+01  0.2329337E+06  0.2381628E+06  0.2212461E-01  0.9521484E-02 -0.3574120E+06  0.5402698E+05
  0.1752381E+01  0.2278288E+06  0.2375778E+06 -0.3552644E-02 -0.9765625E-02 -0.3588873E+06  0.6044584E+05
  0.1783333E+01  0.2231283E+06  0.2366825E+06  0.1102055E-01  0.3149414E-01 -0.3608122E+06  0.6635270E+05
  0.1814286E+01  0.2187453E+06  0.2353502E+06  0.9352316E-02 -0.1464844E-01 -0.3628677E+06  0.7194282E+05
  0.1845238E+01  0.2145985E+06  0.2335710E+06  0.2613092E-02  0.8789062E-02 -0.3648185E+06  0.7762571E+05
  0.1876190E+01  0.2109384E+06  0.2316522E+06  0.1014981E-01  0.4882812E-02 -0.3671453E+06  0.8256558E+05
  0.1907143E+01  0.2076204E+06  0.2293291E+06 -0.1308941E-01  0.1977539E-01 -0.3694406E+06  0.8771488E+05
  0.1938095E+01  0.2044515E+06  0.2267537E+06  0.7558162E-02 -0.2246094E-01 -0.3716614E+06  0.9242904E+05
  0.1969048E+01  0.2016093E+06  0.2240505E+06 -0.1884636E-01 -0.1708984E-01 -0.3740592E+06  0.9651435E+05
  0.2000000E+01  0.1990315E+06  0.2210654E+06 -0.1312256E-01 -0.5126953E-02 -0.3763927E+06  0.1005964E+06
Zone t="Motion of body    1 in DoF   2",I=    64,F=POINT
  0.5000000E-01 -0.1022339E-01 -0.3814697E-05  0.2651517E+06  0.9774277E+03 -0.5615234E-01  0.3757477E-03
  0.8095238E-01 -0.1922607E-01  0.1220703E-03  0.2603124E+06  0.1618256E+04 -0.9801527E-02  0.5722046E-03
  0.1119048E+00  0.7363177E-02  0.4959106E-04  0.2576207E+06  0.2312267E+04  0.1150837E+00  0.2593994E-03
  0.1428571E+00  0.3204345E-02 -0.3929138E-03  0.2561375E+06  0.3084232E+04 -0.4272461E-01  0.8316040E-03
  0.1738095E+00 -0.1755806E-03 -0.7476807E-03  0.2553551E+06  0.3964088E+04  0.4319282E-01 -0.4959106E-03
  0.2047619E+00  0.1773568E-01 -0.2517700E-03  0.2553025E+06  0.4990635E+04  0.7153888E-01 -0.5569458E-03
  0.2357143E+00 -0.1450047E-01 -0.3471375E-03  0.2556119E+06  0.6216681E+04 -0.3469756E-01 -0.3814697E-03
  0.2666667E+00  0.6179809E-02  0.2517700E-03  0.2562665E+06  0.7682165E+04 -0.6225586E-01 -0.9918213E-03
  0.2976190E+00 -0.8818359E-02 -0.2441406E-03  0.2571841E+06  0.9488788E+04 -0.1021289E+00 -0.8850098E-03
  0.3285715E+00  0.4959769E-01  0.4043579E-03  0.2582393E+06  0.1167594E+05 -0.8842135E-01 -0.1037598E-02
  0.3595238E+00 -0.2682313E-01  0.6103516E-03  0.2589442E+06  0.1435932E+05  0.4074400E-01  0.1464844E-02
  0.3904762E+00  0.1875714E-02  0.5035400E-03  0.2597132E+06  0.1760473E+05  0.3001143E-01 -0.8850098E-03
  0.4214286E+00 -0.1462775E-01  0.2456665E-02  0.2594284E+06  0.2135678E+05  0.5445577E-01  0.4333496E-02
  0.4523810E+00 -0.3507915E-02 -0.1556396E-02  0.2586292E+06  0.2579886E+05  0.2374589E-01 -0.2136230E-02
  0.4833333E+00  0.2197266E-01  0.2471924E-02  0.2567575E+06  0.3049949E+05  0.3535830E-02 -0.3234863E-02
  0.5142857E+00 -0.1400418E-01 -0.3631592E-02  0.2540315E+06  0.3569620E+05 -0.9541830E-01  0.4150391E-02
  0.5452381E+00  0.1567191E-02 -0.1525879E-02  0.2506374E+06  0.4104776E+05 -0.5328449E-01  0.4638672E-02
  0.5761905E+00  0.3071934E-01  0.2319336E-02  0.2464488E+06  0.4644275E+05  0.6821813E-01 -0.1220703E-01
  0.6071429E+00 -0.2613741E-02 -0.1220703E-03  0.2416735E+06  0.5201459E+05 -0.1286765E-01 -0.3906250E-02
  0.6380953E+00  0.1932172E-01  0.8972168E-02  0.2368689E+06  0.5737268E+05  0.1189912E+00  0.2502441E-01
  0.6690477E+00 -0.1952256E-01 -0.4089355E-02  0.2316538E+06  0.6266552E+05  0.1094723E-01 -0.4272461E-02
  0.7000000E+00  0.2790178E-02  0.2929688E-02  0.2260808E+06  0.6792569E+05 -0.1325335E-01  0.6347656E-02
  0.7309524E+00  0.2371424E-01  0.4516602E-02  0.2205266E+06  0.7294333E+05  0.2939230E-01  0.6835938E-02
  0.7619048E+00 -0.3380584E-01 -0.3417969E-02  0.2148999E+06  0.7774692E+05 -0.4005432E-01 -0.9033203E-02
  0.7928572E+00  0.7082277E-02  0.6713867E-03  0.2091728E+06  0.8233602E+05  0.5234727E-01  0.1000977E-01
  0.8238096E+00  0.2474570E-01  0.5676270E-02  0.2034945E+06  0.8666138E+05 -0.5512215E-01  0.6835938E-02
  0.8547620E+00 -0.1656620E-01 -0.1220703E-03  0.1979436E+06  0.9068137E+05 -0.1428121E-02 -0.1586914E-01
  0.8857143E+00 -0.1075006E-01 -0.3173828E-02  0.1924542E+06  0.9441118E+05  0.9371850E-02  0.2905273E-01
  0.9166667E+00  0.4527699E-02  0.1354980E-01  0.1870827E+06  0.9780878E+05  0.2849787E-01  0.4638672E-02
  0.9476191E+00 -0.4895081E-02 -0.1672363E-01  0.1818271E+06  0.1008681E+06 -0.2086850E-01 -0.1953125E-02
  0.9785714E+00 -0.4989735E-02  0.1989746E-01  0.1767930E+06  0.1035549E+06  0.9231010E-02  0.7324219E-02
  0.1009524E+01  0.1366381E-01  0.1159668E-01  0.1719769E+06  0.1058788E+06  0.5078586E-02  0.1098633E-01
  0.1040476E+01 -0.1360930E-01 -0.1062012E-01  0.1673522E+06  0.1078694E+06 -0.2299503E-01 -0.1464844E-01
  0.1071429E+01 -0.1822917E-01  0.8544922E-03  0.1629945E+06  0.1094925E+06  0.3964844E-01  0.3100586E-01
  0.1102381E+01 -0.2602233E-01 -0.3662109E-02  0.1588905E+06  0.1108224E+06 -0.2103933E-01  0.6347656E-02
  0.1133333E+01 -0.4739200E-02  0.8666992E-02  0.1550235E+06  0.1118266E+06  0.6031710E-02  0.1074219E-01
  0.1164286E+01 -0.1541231E-01 -0.1538086E-01  0.1514575E+06  0.1125070E+06 -0.3103432E-01  0.1855469E-01
  0.1195238E+01 -0.2961786E-02 -0.1733398E-01  0.1481035E+06  0.1129202E+06  0.2553263E-01 -0.1416016E-01
  0.1226190E+01  0.9955249E-02 -0.3784180E-02  0.1450803E+06  0.1130203E+06 -0.4201115E-01  0.1074219E-01
  0.1257143E+01  0.2369274E-01 -0.1220703E-02  0.1422972E+06  0.1129700E+06  0.1029275E-01  0.5371094E-02
  0.1288095E+01 -0.1070879E-01 -0.6958008E-02  0.1398293E+06  0.1125675E+06 -0.3222115E-02  0.3369141E-01
  0.1319048E+01 -0.2035974E-02 -0.6591797E-02  0.1376160E+06  0.1120408E+06  0.1573253E-01  0.1367188E-01
  0.1350000E+01  0.2983941E-02  0.8544922E-03  0.1357097E+06  0.1113721E+06 -0.2694589E-01 -0.1464844E-02
  0.1380952E+01 -0.2775626E-01  0.2319336E-02  0.1339946E+06  0.1105793E+06 -0.2404364E-01 -0.2148438E-01
  0.1411905E+01  0.5014558E-02  0.3784180E-02  0.1328370E+06  0.1097297E+06 -0.1037495E-02 -0.1904297E-01
  0.1442857E+01 -0.4060953E-02  0.1843262E-01  0.1317055E+06  0.1088725E+06  0.6937461E-02 -0.9765625E-03
  0.1473810E+01 -0.4555451E-02 -0.2673340E-01  0.1308046E+06  0.1080568E+06  0.1871876E-01  0.1953125E-02
  0.1504762E+01  0.3244907E-03  0.7324219E-02  0.1301485E+06  0.1073182E+06  0.3163784E-01 -0.1464844E-02
  0.1535714E+01 -0.1740779E-01 -0.9643555E-02  0.1296757E+06  0.1067332E+06  0.2273346E-01  0.5859375E-02
  0.1566667E+01 -0.3942611E-01  0.9765625E-02  0.1293235E+06  0.1064370E+06  0.1542761E-01 -0.9765625E-03
  0.1597619E+01 -0.1298930E-01 -0.7568359E-02  0.1290079E+06  0.1064249E+06 -0.3514752E-02 -0.2001953E-01
  0.1628572E+01  0.7120768E-02 -0.4638672E-02  0.1287929E+06  0.1066788E+06  0.9294476E-02 -0.4394531E-02
  0.1659524E+01 -0.2868740E-02  0.2026367E-01  0.1285440E+06  0.1072167E+06  0.1250476E-01  0.3417969E-02
  0.1690476E+01  0.1335896E-01  0.1843262E-01  0.1281558E+06  0.1080692E+06  0.6498954E-01 -0.1123047E-01
  0.1721429E+01  0.2765576E-02  0.8300781E-02  0.1276972E+06  0.1091422E+06 -0.3687435E-01  0.9765625E-02
  0.1752381E+01 -0.4876179E-03 -0.1953125E-02  0.1271218E+06  0.1103679E+06  0.5530979E-01 -0.1953125E-02
  0.1783333E+01  0.2594279E-01 -0.1037598E-01  0.1263368E+06  0.1116683E+06  0.2327322E-02  0.1464844E-01
  0.1814286E+01 -0.9015902E-02 -0.6591797E-02  0.1253750E+06  0.1129250E+06 -0.9150468E-02  0.6835938E-02
  0.1845238E+01 -0.3506174E-02  0.1953125E-02  0.1242401E+06  0.1140812E+06  0.1323085E-02 -0.4882812E-02
  0.1876190E+01  0.4294149E-02  0.7080078E-02  0.1230416E+06  0.1150139E+06 -0.1405358E-01  0.2929688E-02
  0.1907143E+01  0.5248567E-02  0.4150391E-02  0.1218197E+06  0.1156703E+06  0.3968428E-01  0.4882812E-02
  0.1938095E+01 -0.1007755E-02  0.7324219E-03  0.1205094E+06  0.1160408E+06  0.1373066E-01 -0.2441406E-02
  0.1969048E+01 -0.6974393E-02  0.5615234E-02  0.1192235E+06  0.1160849E+06  0.5567115E-01  0.1464844E-02
  0.2000000E+01  0.2380371E-02 -0.2685547E-02  0.1180070E+06  0.1158332E+06 -0.2246094E-01  0.2587891E-01
Zone t="Motion of body    1 in DoF   3",I=    64,F=POINT
  0.5000000E-01 -0.3956167E+06 -0.4667877E-01  0.1099396E+00  0.2313103E-03  0.1865486E+07  0.3717717E-01
  0.8095238E-01 -0.3966551E+06 -0.2019924E+00  0.1292105E+00  0.1243097E-02  0.1865675E+07  0.1496262E+00
  0.1119048E+00 -0.3964693E+06 -0.5637538E+00 -0.3252070E-01  0.4291534E-05  0.1867358E+07  0.4115615E+00
  0.1428571E+00 -0.3969810E+06 -0.1261008E+01 -0.1155167E+00 -0.9103422E-03  0.1866704E+07  0.9267985E+00
  0.1738095E+00 -0.3965740E+06 -0.2489495E+01  0.2747836E-01  0.2121031E-03  0.1867709E+07  0.1809592E+01
  0.2047619E+00 -0.3971666E+06 -0.4545743E+01 -0.8718801E-02 -0.8115880E-03  0.1866459E+07  0.3299669E+01
  0.2357143E+00 -0.3964859E+06 -0.7914516E+01  0.1194994E+00  0.2264671E-02  0.1868393E+07  0.5675842E+01
  0.2666667E+00 -0.3967140E+06 -0.1332000E+02 -0.8468628E-02 -0.6927028E-03  0.1867572E+07  0.9470860E+01
  0.2976190E+00 -0.3972189E+06 -0.2200220E+02 -0.1223291E+00 -0.6039590E-02  0.1866568E+07  0.1549998E+02
  0.3285715E+00 -0.3966836E+06 -0.3577316E+02 -0.3826638E-01 -0.1917973E-02  0.1868642E+07  0.2489105E+02
  0.3595238E+00 -0.3964840E+06 -0.5767389E+02 -0.2325803E+00 -0.1369634E-01  0.1868601E+07  0.3956227E+02
  0.3904762E+00 -0.3969796E+06 -0.9203616E+02  0.1223122E+00  0.8024931E-02  0.1867867E+07  0.6236551E+02
  0.4214286E+00 -0.3972473E+06 -0.1446754E+03  0.6828696E-01  0.6530881E-02  0.1868072E+07  0.9648307E+02
  0.4523810E+00 -0.3967874E+06 -0.2254561E+03  0.5956710E-01  0.9521008E-02  0.1869595E+07  0.1480631E+03
  0.4833333E+00 -0.3969395E+06 -0.3413871E+03  0.7974558E-01  0.1629019E-01  0.1869082E+07  0.2194998E+03
  0.5142857E+00 -0.3977628E+06 -0.5078304E+03  0.5755955E-02  0.9326458E-02  0.1868170E+07  0.3207752E+03
  0.5452381E+00 -0.3979122E+06 -0.7359871E+03 -0.3940366E-01 -0.1888275E-03  0.1869442E+07  0.4556829E+03
  0.5761905E+00 -0.3975742E+06 -0.1039477E+04  0.4004108E-01  0.1235867E-01  0.1870674E+07  0.6278024E+03
  0.6071429E+00 -0.3978387E+06 -0.1438255E+04 -0.1411420E+00 -0.2197552E-01  0.1870371E+07  0.8502632E+03
  0.6380953E+00 -0.3982919E+06 -0.1938913E+04 -0.6456517E-01 -0.1980019E-01  0.1869679E+07  0.1115538E+04
  0.6690477E+00 -0.3988246E+06 -0.2562317E+04 -0.4470119E-02  0.6902695E-02  0.1869456E+07  0.1435693E+04
  0.7000000E+00 -0.3987135E+06 -0.3330360E+04 -0.2179827E-02  0.8831024E-02  0.1870718E+07  0.1812563E+04
  0.7309524E+00 -0.3981494E+06 -0.4247766E+04 -0.4959951E-01 -0.9088516E-02  0.1872217E+07  0.2234352E+04
  0.7619048E+00 -0.3980675E+06 -0.5319543E+04 -0.3516769E-01 -0.3735733E-01  0.1871540E+07  0.2705290E+04
  0.7928572E+00 -0.3980106E+06 -0.6552068E+04 -0.1156259E+00 -0.2849197E-01  0.1870573E+07  0.3219089E+04
  0.8238096E+00 -0.3976705E+06 -0.7944801E+04  0.1926312E-01  0.2245331E-01  0.1869817E+07  0.3757929E+04
  0.8547620E+00 -0.3968734E+06 -0.9493983E+04  0.6026669E-01  0.2661133E-01  0.1870048E+07  0.4304990E+04
  0.8857143E+00 -0.3956842E+06 -0.1117793E+05  0.6064138E-01  0.3654480E-01  0.1870620E+07  0.4837282E+04
  0.9166667E+00 -0.3940982E+06 -0.1295622E+05  0.1950905E-01  0.1567841E-01  0.1871167E+07  0.5340388E+04
  0.9476191E+00 -0.3922930E+06 -0.1475944E+05 -0.7117189E-01 -0.4833984E-01  0.1870490E+07  0.5785399E+04
  0.9785714E+00 -0.3903619E+06 -0.1652844E+05  0.1347229E-01  0.3743744E-01  0.1869546E+07  0.6149229E+04
  0.1009524E+01 -0.3884017E+06 -0.1817126E+05  0.1444979E-01  0.2182007E-02  0.1868090E+07  0.6403740E+04
  0.1040476E+01 -0.3859850E+06 -0.1965999E+05  0.7097956E-02 -0.7171631E-03  0.1866986E+07  0.6515961E+04
  0.1071429E+01 -0.3833771E+06 -0.2088574E+05  0.5240886E-01  0.4821777E-01  0.1866546E+07  0.6471041E+04
  0.1102381E+01 -0.3802440E+06 -0.2181454E+05  0.1804953E-01  0.2256775E-01  0.1866841E+07  0.6243580E+04
  0.1133333E+01 -0.3767644E+06 -0.2227587E+05  0.3715964E-01  0.3938293E-01  0.1867029E+07  0.5815030E+04
  0.1164286E+01 -0.3734326E+06 -0.2214738E+05  0.3449422E-01  0.2105713E-01  0.1866805E+07  0.5255289E+04
  0.1195238E+01 -0.3699798E+06 -0.2144169E+05 -0.3901387E-01 -0.5436707E-01  0.1866438E+07  0.4554737E+04
  0.1226190E+01 -0.3667875E+06 -0.2007950E+05  0.2140379E-01 -0.3762817E-01  0.1866378E+07  0.3706095E+04
  0.1257143E+01 -0.3635768E+06 -0.1803282E+05 -0.3922896E-01 -0.3123474E-01  0.1866483E+07  0.2760186E+04
  0.1288095E+01 -0.3605497E+06 -0.1545438E+05 -0.3146300E-01  0.4791260E-02  0.1867336E+07  0.1842103E+04
  0.1319048E+01 -0.3576439E+06 -0.1204567E+05  0.2119264E-01  0.1972198E-01  0.1867467E+07  0.8367961E+03
  0.1350000E+01 -0.3554763E+06 -0.8079386E+04 -0.3707320E-02 -0.4340363E-01  0.1868722E+07  0.1524286E+03
  0.1380952E+01 -0.3532239E+06 -0.3597927E+04  0.4419787E-01  0.2321625E-01  0.1869637E+07 -0.5388655E+03
  0.1411905E+01 -0.3560079E+06 -0.3337592E+04  0.1279577E-01  0.5363464E-02  0.1867477E+07 -0.7995214E+03
  0.1442857E+01 -0.3544023E+06  0.1959819E+04  0.3942509E-01  0.1608467E-01  0.1868941E+07 -0.1130474E+04
  0.1473810E+01 -0.3532798E+06  0.7538601E+04  0.3081141E-01  0.7744217E-01  0.1870686E+07 -0.1216316E+04
  0.1504762E+01 -0.3525191E+06  0.1351958E+05 -0.3228682E-01 -0.5724335E-01  0.1872426E+07 -0.8737537E+03
  0.1535714E+01 -0.3520698E+06  0.1997754E+05  0.5715161E-01  0.3701782E-01  0.1873218E+07 -0.7530692E+03
  0.1566667E+01 -0.3522676E+06  0.2634697E+05 -0.2781645E-01 -0.1429749E-01  0.1875150E+07  0.3079829E+03
  0.1597619E+01 -0.3525306E+06  0.3282680E+05  0.9168918E-03 -0.5371094E-01  0.1876632E+07  0.1494385E+04
  0.1628572E+01 -0.3534097E+06  0.3934372E+05 -0.1049376E-02  0.1861572E-01  0.1878376E+07  0.3166479E+04
  0.1659524E+01 -0.3542864E+06  0.4614400E+05 -0.1147496E-01 -0.1873779E-01  0.1879396E+07  0.4578588E+04
  0.1690476E+01 -0.3554678E+06  0.5251612E+05 -0.2527371E-01  0.1812744E-01  0.1881023E+07  0.6839985E+04
  0.1721429E+01 -0.3569562E+06  0.5880006E+05  0.2212461E-01  0.1495361E-01  0.1882750E+07  0.9670576E+04
  0.1752381E+01 -0.3584173E+06  0.6542112E+05  0.4207445E-01  0.4125977E-01  0.1883446E+07  0.1186109E+05
  0.1783333E+01 -0.3603214E+06  0.7173753E+05  0.4216560E-01  0.1208496E-01  0.1884241E+07  0.1447088E+05
  0.1814286E+01 -0.3623611E+06  0.7764052E+05  0.1170722E-01 -0.8728027E-02  0.1885401E+07  0.1804175E+05
  0.1845238E+01 -0.3644052E+06  0.8334751E+05 -0.7409274E-02  0.1568604E-01  0.1886228E+07  0.2147579E+05
  0.1876190E+01 -0.3667742E+06  0.8874982E+05  0.6571349E-01  0.3771973E-01  0.1887064E+07  0.2575980E+05
  0.1907143E+01 -0.3691127E+06  0.9457088E+05  0.9345009E-02 -0.9033203E-02  0.1887118E+07  0.2853680E+05
  0.1938095E+01 -0.3714581E+06  0.9947945E+05 -0.1776168E-01 -0.4040527E-01  0.1887738E+07  0.3324127E+05
  0.1969048E+01 -0.3739147E+06  0.1040125E+06  0.6211859E-01  0.3503418E-01  0.1888196E+07  0.3776486E+05
  0.2000000E+01 -0.3763980E+06  0.1084699E+06 -0.3344727E-01  0.2380371E-02  0.1888578E+07  0.4294899E+05
