VARIABLES="w (rad/s)"
"abs(F   1   1)" "angle(F   1   1)"
"abs(F   1   2)" "angle(F   1   2)"
"abs(F   1   3)" "angle(F   1   3)"
Zone t="Diffraction force - beta =   0.000 deg",I=    64,F=POINT
  0.5000000E-01  0.3952394E+03 -0.1570796E+01  0.1275233E+02 -0.3097060E+01  0.8379669E+03  0.1570797E+01
  0.8095238E-01  0.6478270E+03 -0.1570795E+01  0.3317111E+02 -0.3095581E+01  0.1372334E+04  0.1570797E+01
  0.1119048E+00  0.9040237E+03 -0.1570794E+01  0.6311421E+02 -0.3093647E+01  0.1914844E+04  0.1570798E+01
  0.1428571E+00  0.1170753E+04 -0.1570793E+01  0.1027230E+03 -0.3091173E+01  0.2474510E+04  0.1570800E+01
  0.1738095E+00  0.1448554E+04 -0.1570791E+01  0.1521895E+03 -0.3088032E+01  0.3055565E+04  0.1570802E+01
  0.2047619E+00  0.1738155E+04 -0.1570787E+01  0.2117304E+03 -0.3084049E+01  0.3661188E+04  0.1570805E+01
  0.2357143E+00  0.2047909E+04 -0.1570782E+01  0.2818537E+03 -0.3079037E+01  0.4303367E+04  0.1570810E+01
  0.2666667E+00  0.2377963E+04 -0.1570775E+01  0.3626470E+03 -0.3072878E+01  0.4987989E+04  0.1570816E+01
  0.2976190E+00  0.2735599E+04 -0.1570765E+01  0.4547336E+03 -0.3065117E+01  0.5725150E+04  0.1570826E+01
  0.3285715E+00  0.3125043E+04 -0.1570749E+01  0.5588209E+03 -0.3055835E+01  0.6522624E+04  0.1570841E+01
  0.3595238E+00  0.3556631E+04 -0.1570726E+01  0.6743776E+03 -0.3044439E+01  0.7398859E+04  0.1570863E+01
  0.3904762E+00  0.4026894E+04 -0.1570691E+01  0.8022306E+03 -0.3030887E+01  0.8351508E+04  0.1570896E+01
  0.4214286E+00  0.4550646E+04 -0.1570640E+01  0.9418801E+03 -0.3015667E+01  0.9405281E+04  0.1570945E+01
  0.4523810E+00  0.5116632E+04 -0.1570565E+01  0.1093127E+04 -0.2997922E+01  0.1054352E+05  0.1571016E+01
  0.4833333E+00  0.5751800E+04 -0.1570462E+01  0.1254322E+04 -0.2979725E+01  0.1179111E+05  0.1571115E+01
  0.5142857E+00  0.6421495E+04 -0.1570317E+01  0.1425152E+04 -0.2959842E+01  0.1311098E+05  0.1571253E+01
  0.5452381E+00  0.7135946E+04 -0.1570123E+01  0.1606568E+04 -0.2939927E+01  0.1451316E+05  0.1571437E+01
  0.5761905E+00  0.7904091E+04 -0.1569872E+01  0.1796733E+04 -0.2920105E+01  0.1600179E+05  0.1571677E+01
  0.6071429E+00  0.8706929E+04 -0.1569546E+01  0.1994374E+04 -0.2899490E+01  0.1753618E+05  0.1571987E+01
  0.6380953E+00  0.9549689E+04 -0.1569138E+01  0.2201364E+04 -0.2879705E+01  0.1911897E+05  0.1572375E+01
  0.6690477E+00  0.1041807E+05 -0.1568630E+01  0.2417031E+04 -0.2859987E+01  0.2075095E+05  0.1572858E+01
  0.7000000E+00  0.1129756E+05 -0.1568000E+01  0.2639679E+04 -0.2839929E+01  0.2240112E+05  0.1573454E+01
  0.7309524E+00  0.1222637E+05 -0.1567241E+01  0.2869748E+04 -0.2820195E+01  0.2408479E+05  0.1574176E+01
  0.7619048E+00  0.1319919E+05 -0.1566330E+01  0.3107047E+04 -0.2800601E+01  0.2582491E+05  0.1575042E+01
  0.7928572E+00  0.1416888E+05 -0.1565238E+01  0.3348521E+04 -0.2780758E+01  0.2753975E+05  0.1576078E+01
  0.8238096E+00  0.1515892E+05 -0.1563945E+01  0.3596824E+04 -0.2761151E+01  0.2927580E+05  0.1577302E+01
  0.8547620E+00  0.1618686E+05 -0.1562436E+01  0.3851673E+04 -0.2741874E+01  0.3103691E+05  0.1578734E+01
  0.8857143E+00  0.1721751E+05 -0.1560674E+01  0.4111380E+04 -0.2722761E+01  0.3280430E+05  0.1580398E+01
  0.9166667E+00  0.1826466E+05 -0.1558639E+01  0.4372857E+04 -0.2703521E+01  0.3453595E+05  0.1582324E+01
  0.9476191E+00  0.1934394E+05 -0.1556308E+01  0.4637382E+04 -0.2684465E+01  0.3628935E+05  0.1584530E+01
  0.9785714E+00  0.2045256E+05 -0.1553657E+01  0.4904667E+04 -0.2665651E+01  0.3803631E+05  0.1587043E+01
  0.1009524E+01  0.2157590E+05 -0.1550652E+01  0.5174691E+04 -0.2647162E+01  0.3979317E+05  0.1589885E+01
  0.1040476E+01  0.2267607E+05 -0.1547247E+01  0.5445164E+04 -0.2628746E+01  0.4147553E+05  0.1593100E+01
  0.1071429E+01  0.2377997E+05 -0.1543423E+01  0.5718366E+04 -0.2610769E+01  0.4314313E+05  0.1596701E+01
  0.1102381E+01  0.2488569E+05 -0.1539154E+01  0.5991542E+04 -0.2592988E+01  0.4477363E+05  0.1600716E+01
  0.1133333E+01  0.2604035E+05 -0.1534448E+01  0.6264959E+04 -0.2575534E+01  0.4640479E+05  0.1605156E+01
  0.1164286E+01  0.2720918E+05 -0.1529253E+01  0.6537848E+04 -0.2558389E+01  0.4802903E+05  0.1610050E+01
  0.1195238E+01  0.2835588E+05 -0.1523520E+01  0.6807140E+04 -0.2541215E+01  0.4956067E+05  0.1615451E+01
  0.1226190E+01  0.2949147E+05 -0.1517228E+01  0.7075380E+04 -0.2524411E+01  0.5103479E+05  0.1621372E+01
  0.1257143E+01  0.3060021E+05 -0.1510350E+01  0.7342301E+04 -0.2507507E+01  0.5245214E+05  0.1627820E+01
  0.1288095E+01  0.3175476E+05 -0.1502904E+01  0.7605147E+04 -0.2491832E+01  0.5383495E+05  0.1634832E+01
  0.1319048E+01  0.3290591E+05 -0.1494867E+01  0.7867646E+04 -0.2476338E+01  0.5518862E+05  0.1642377E+01
  0.1350000E+01  0.3399933E+05 -0.1486136E+01  0.8127413E+04 -0.2461121E+01  0.5645062E+05  0.1650531E+01
  0.1380952E+01  0.3504657E+05 -0.1476719E+01  0.8382312E+04 -0.2446107E+01  0.5758965E+05  0.1659303E+01
  0.1411905E+01  0.3586564E+05 -0.1466725E+01  0.8609017E+04 -0.2430467E+01  0.5851397E+05  0.1668430E+01
  0.1442857E+01  0.3689345E+05 -0.1456012E+01  0.8855749E+04 -0.2416058E+01  0.5954181E+05  0.1678383E+01
  0.1473810E+01  0.3788677E+05 -0.1444638E+01  0.9093729E+04 -0.2401553E+01  0.6041529E+05  0.1688979E+01
  0.1504762E+01  0.3888814E+05 -0.1432648E+01  0.9328680E+04 -0.2387719E+01  0.6125660E+05  0.1700158E+01
  0.1535714E+01  0.3986405E+05 -0.1419993E+01  0.9558931E+04 -0.2374413E+01  0.6205809E+05  0.1711907E+01
  0.1566667E+01  0.4073483E+05 -0.1406546E+01  0.9782592E+04 -0.2361079E+01  0.6267955E+05  0.1724351E+01
  0.1597619E+01  0.4153563E+05 -0.1392421E+01  0.9997220E+04 -0.2347851E+01  0.6313157E+05  0.1737387E+01
  0.1628572E+01  0.4228201E+05 -0.1377621E+01  0.1020841E+05 -0.2335178E+01  0.6347685E+05  0.1751023E+01
  0.1659524E+01  0.4297403E+05 -0.1362126E+01  0.1041637E+05 -0.2323160E+01  0.6376268E+05  0.1765211E+01
  0.1690476E+01  0.4357642E+05 -0.1346010E+01  0.1061447E+05 -0.2311161E+01  0.6384861E+05  0.1779915E+01
  0.1721429E+01  0.4412732E+05 -0.1329335E+01  0.1080806E+05 -0.2299725E+01  0.6384421E+05  0.1795078E+01
  0.1752381E+01  0.4463313E+05 -0.1312181E+01  0.1099510E+05 -0.2288818E+01  0.6377159E+05  0.1810578E+01
  0.1783333E+01  0.4505748E+05 -0.1294487E+01  0.1117698E+05 -0.2278153E+01  0.6359501E+05  0.1826515E+01
  0.1814286E+01  0.4536877E+05 -0.1276253E+01  0.1135019E+05 -0.2267386E+01  0.6323606E+05  0.1842908E+01
  0.1845238E+01  0.4557638E+05 -0.1257634E+01  0.1151098E+05 -0.2256607E+01  0.6268642E+05  0.1859551E+01
  0.1876190E+01  0.4570875E+05 -0.1238667E+01  0.1166687E+05 -0.2246272E+01  0.6203713E+05  0.1876494E+01
  0.1907143E+01  0.4574886E+05 -0.1219246E+01  0.1181795E+05 -0.2236402E+01  0.6132241E+05  0.1893709E+01
  0.1938095E+01  0.4568377E+05 -0.1199593E+01  0.1195891E+05 -0.2226769E+01  0.6045593E+05  0.1910953E+01
  0.1969048E+01  0.4551939E+05 -0.1179812E+01  0.1208995E+05 -0.2217350E+01  0.5943319E+05  0.1928177E+01
  0.2000000E+01  0.4528521E+05 -0.1159965E+01  0.1221559E+05 -0.2208628E+01  0.5835009E+05  0.1945298E+01
