VARIABLES="w (rad/s)"
"abs(F   1   1)" "angle(F   1   1)"
"abs(F   1   2)" "angle(F   1   2)"
"abs(F   1   3)" "angle(F   1   3)"
Zone t="Diffraction force - beta =   0.000 deg",I=    64,F=POINT
  0.5000000E-01  0.5842421E+04 -0.1570790E+01  0.3511104E+03 -0.3094772E+01  0.2456350E+05  0.1570803E+01
  0.8095238E-01  0.9552573E+04 -0.1570779E+01  0.9073514E+03 -0.3093225E+01  0.4011637E+05  0.1570814E+01
  0.1119048E+00  0.1331971E+05 -0.1570761E+01  0.1718475E+04 -0.3091453E+01  0.5591806E+05  0.1570831E+01
  0.1428571E+00  0.1722335E+05 -0.1570735E+01  0.2780621E+04 -0.3089232E+01  0.7220919E+05  0.1570858E+01
  0.1738095E+00  0.2126053E+05 -0.1570697E+01  0.4092615E+04 -0.3086545E+01  0.8905677E+05  0.1570896E+01
  0.2047619E+00  0.2551473E+05 -0.1570642E+01  0.5654433E+04 -0.3083170E+01  0.1067241E+06  0.1570952E+01
  0.2357143E+00  0.3002763E+05 -0.1570562E+01  0.7441167E+04 -0.3078786E+01  0.1254380E+06  0.1571032E+01
  0.2666667E+00  0.3484224E+05 -0.1570446E+01  0.9482213E+04 -0.3073812E+01  0.1452343E+06  0.1571148E+01
  0.2976190E+00  0.4008118E+05 -0.1570276E+01  0.1171195E+05 -0.3067217E+01  0.1666881E+06  0.1571319E+01
  0.3285715E+00  0.4572996E+05 -0.1570026E+01  0.1418845E+05 -0.3059849E+01  0.1898799E+06  0.1571570E+01
  0.3595238E+00  0.5201423E+05 -0.1569656E+01  0.1678071E+05 -0.3050522E+01  0.2153079E+06  0.1571941E+01
  0.3904762E+00  0.5886908E+05 -0.1569110E+01  0.1958805E+05 -0.3039982E+01  0.2429856E+06  0.1572490E+01
  0.4214286E+00  0.6648617E+05 -0.1568324E+01  0.2240743E+05 -0.3028121E+01  0.2735277E+06  0.1573279E+01
  0.4523810E+00  0.7478682E+05 -0.1567184E+01  0.2533755E+05 -0.3014356E+01  0.3068623E+06  0.1574423E+01
  0.4833333E+00  0.8392462E+05 -0.1565634E+01  0.2823610E+05 -0.3001193E+01  0.3428862E+06  0.1575979E+01
  0.5142857E+00  0.9384445E+05 -0.1563515E+01  0.3104913E+05 -0.2986474E+01  0.3818290E+06  0.1578108E+01
  0.5452381E+00  0.1043637E+06 -0.1560740E+01  0.3390219E+05 -0.2972884E+01  0.4231669E+06  0.1580889E+01
  0.5761905E+00  0.1156783E+06 -0.1557217E+01  0.3645277E+05 -0.2959031E+01  0.4670343E+06  0.1584422E+01
  0.6071429E+00  0.1274661E+06 -0.1552746E+01  0.3895108E+05 -0.2944984E+01  0.5119916E+06  0.1588911E+01
  0.6380953E+00  0.1398203E+06 -0.1547292E+01  0.4136362E+05 -0.2932906E+01  0.5586935E+06  0.1594382E+01
  0.6690477E+00  0.1528237E+06 -0.1540689E+01  0.4345909E+05 -0.2920318E+01  0.6074312E+06  0.1601004E+01
  0.7000000E+00  0.1659493E+06 -0.1532713E+01  0.4543629E+05 -0.2907940E+01  0.6565290E+06  0.1608984E+01
  0.7309524E+00  0.1796388E+06 -0.1523354E+01  0.4732971E+05 -0.2897048E+01  0.7066338E+06  0.1618356E+01
  0.7619048E+00  0.1938952E+06 -0.1512454E+01  0.4878341E+05 -0.2885512E+01  0.7573401E+06  0.1629299E+01
  0.7928572E+00  0.2082755E+06 -0.1499802E+01  0.5007937E+05 -0.2874333E+01  0.8081234E+06  0.1641980E+01
  0.8238096E+00  0.2227158E+06 -0.1485266E+01  0.5127160E+05 -0.2863960E+01  0.8583656E+06  0.1656536E+01
  0.8547620E+00  0.2372009E+06 -0.1468762E+01  0.5215074E+05 -0.2853904E+01  0.9078011E+06  0.1673054E+01
  0.8857143E+00  0.2520061E+06 -0.1450264E+01  0.5268477E+05 -0.2843577E+01  0.9577975E+06  0.1691537E+01
  0.9166667E+00  0.2664335E+06 -0.1429668E+01  0.5307910E+05 -0.2833853E+01  0.1004804E+07  0.1712133E+01
  0.9476191E+00  0.2805750E+06 -0.1406927E+01  0.5332177E+05 -0.2824501E+01  0.1049214E+07  0.1734897E+01
  0.9785714E+00  0.2942827E+06 -0.1381999E+01  0.5331859E+05 -0.2815573E+01  0.1090513E+07  0.1759864E+01
  0.1009524E+01  0.3075477E+06 -0.1354923E+01  0.5291227E+05 -0.2806615E+01  0.1128907E+07  0.1786997E+01
  0.1040476E+01  0.3200264E+06 -0.1325632E+01  0.5233775E+05 -0.2797734E+01  0.1164157E+07  0.1816267E+01
  0.1071429E+01  0.3309440E+06 -0.1294093E+01  0.5165077E+05 -0.2789195E+01  0.1192309E+07  0.1847784E+01
  0.1102381E+01  0.3408880E+06 -0.1260550E+01  0.5085530E+05 -0.2780791E+01  0.1217118E+07  0.1881166E+01
  0.1133333E+01  0.3491444E+06 -0.1225362E+01  0.4979955E+05 -0.2772966E+01  0.1233707E+07  0.1916256E+01
  0.1164286E+01  0.3561731E+06 -0.1188920E+01  0.4848411E+05 -0.2765660E+01  0.1244620E+07  0.1952653E+01
  0.1195238E+01  0.3615542E+06 -0.1151160E+01  0.4703646E+05 -0.2758300E+01  0.1249591E+07  0.1990296E+01
  0.1226190E+01  0.3645000E+06 -0.1112153E+01  0.4553404E+05 -0.2751204E+01  0.1244994E+07  0.2029208E+01
  0.1257143E+01  0.3652687E+06 -0.1071988E+01  0.4396062E+05 -0.2743844E+01  0.1233167E+07  0.2069170E+01
  0.1288095E+01  0.3644136E+06 -0.1031748E+01  0.4236997E+05 -0.2736921E+01  0.1215578E+07  0.2109143E+01
  0.1319048E+01  0.3611793E+06 -0.9914320E+00  0.4053484E+05 -0.2731579E+01  0.1188764E+07  0.2149323E+01
  0.1350000E+01  0.3564121E+06 -0.9515522E+00  0.3864235E+05 -0.2726290E+01  0.1157468E+07  0.2188979E+01
  0.1380952E+01  0.3497207E+06 -0.9119216E+00  0.3670639E+05 -0.2721361E+01  0.1120903E+07  0.2228293E+01
  0.1411905E+01  0.3403094E+06 -0.8718680E+00  0.3478612E+05 -0.2715869E+01  0.1076482E+07  0.2267633E+01
  0.1442857E+01  0.3296478E+06 -0.8334485E+00  0.3290551E+05 -0.2710902E+01  0.1027571E+07  0.2305700E+01
  0.1473810E+01  0.3179635E+06 -0.7962635E+00  0.3101531E+05 -0.2706123E+01  0.9773018E+06  0.2342369E+01
  0.1504762E+01  0.3046444E+06 -0.7605385E+00  0.2915605E+05 -0.2702393E+01  0.9214903E+06  0.2377637E+01
  0.1535714E+01  0.2905013E+06 -0.7262081E+00  0.2729076E+05 -0.2700023E+01  0.8646670E+06  0.2411541E+01
  0.1566667E+01  0.2757924E+06 -0.6934109E+00  0.2543504E+05 -0.2697733E+01  0.8081688E+06  0.2443628E+01
  0.1597619E+01  0.2601100E+06 -0.6616659E+00  0.2360619E+05 -0.2696132E+01  0.7504488E+06  0.2474641E+01
  0.1628572E+01  0.2437522E+06 -0.6316714E+00  0.2188785E+05 -0.2694477E+01  0.6913632E+06  0.2503812E+01
  0.1659524E+01  0.2269644E+06 -0.6031725E+00  0.2026581E+05 -0.2692658E+01  0.6323458E+06  0.2531519E+01
  0.1690476E+01  0.2101890E+06 -0.5758055E+00  0.1866532E+05 -0.2691982E+01  0.5759668E+06  0.2557997E+01
  0.1721429E+01  0.1933071E+06 -0.5502100E+00  0.1717552E+05 -0.2690992E+01  0.5204228E+06  0.2582483E+01
  0.1752381E+01  0.1763795E+06 -0.5262511E+00  0.1576862E+05 -0.2691833E+01  0.4657581E+06  0.2605241E+01
  0.1783333E+01  0.1597581E+06 -0.5036365E+00  0.1441307E+05 -0.2693386E+01  0.4141368E+06  0.2626574E+01
  0.1814286E+01  0.1434689E+06 -0.4822813E+00  0.1309955E+05 -0.2695912E+01  0.3655147E+06  0.2646419E+01
  0.1845238E+01  0.1272335E+06 -0.4615587E+00  0.1188056E+05 -0.2699128E+01  0.3183451E+06  0.2665595E+01
  0.1876190E+01  0.1113005E+06 -0.4422947E+00  0.1078370E+05 -0.2701686E+01  0.2731306E+06  0.2682780E+01
  0.1907143E+01  0.9566919E+05 -0.4240696E+00  0.9787171E+04 -0.2703421E+01  0.2299517E+06  0.2698495E+01
  0.1938095E+01  0.8057680E+05 -0.4061840E+00  0.8834716E+04 -0.2707238E+01  0.1900006E+06  0.2713977E+01
  0.1969048E+01  0.6602405E+05 -0.3886419E+00  0.7920454E+04 -0.2713253E+01  0.1529576E+06  0.2728840E+01
  0.2000000E+01  0.5185177E+05 -0.3720798E+00  0.7148929E+04 -0.2716305E+01  0.1176006E+06  0.2740455E+01
