VARIABLES="w (rad/s)"
"abs(F   1   1)" "angle(F   1   1)"
"abs(F   1   2)" "angle(F   1   2)"
"abs(F   1   3)" "angle(F   1   3)"
Zone t="Diffraction force - beta =   0.000 deg",I=    64,F=POINT
  0.5000000E-01  0.1484785E+04 -0.1570794E+01  0.4082428E+03 -0.3080366E+01  0.3151228E+02 -0.1570793E+01
  0.8095238E-01  0.2424089E+04 -0.1570789E+01  0.1054409E+04 -0.3077991E+01  0.5117061E+02 -0.1570788E+01
  0.1119048E+00  0.3379153E+04 -0.1570782E+01  0.1998708E+04 -0.3075228E+01  0.7075788E+02 -0.1570779E+01
  0.1428571E+00  0.4367986E+04 -0.1570771E+01  0.3242367E+04 -0.3071812E+01  0.9286504E+02 -0.1570765E+01
  0.1738095E+00  0.5405771E+04 -0.1570754E+01  0.4792152E+04 -0.3067593E+01  0.1145509E+03 -0.1570745E+01
  0.2047619E+00  0.6495960E+04 -0.1570731E+01  0.6654541E+04 -0.3062342E+01  0.1396526E+03 -0.1570714E+01
  0.2357143E+00  0.7637520E+04 -0.1570696E+01  0.8836783E+04 -0.3055742E+01  0.1644544E+03 -0.1570670E+01
  0.2666667E+00  0.8891926E+04 -0.1570646E+01  0.1135150E+05 -0.3047797E+01  0.1935988E+03 -0.1570608E+01
  0.2976190E+00  0.1023781E+05 -0.1570571E+01  0.1420040E+05 -0.3037783E+01  0.2258161E+03 -0.1570514E+01
  0.3285715E+00  0.1169085E+05 -0.1570460E+01  0.1740419E+05 -0.3025937E+01  0.2607214E+03 -0.1570373E+01
  0.3595238E+00  0.1332373E+05 -0.1570294E+01  0.2093862E+05 -0.3011492E+01  0.3020404E+03 -0.1570167E+01
  0.3904762E+00  0.1513572E+05 -0.1570046E+01  0.2483246E+05 -0.2994545E+01  0.3518243E+03 -0.1569865E+01
  0.4214286E+00  0.1707246E+05 -0.1569682E+01  0.2899546E+05 -0.2975498E+01  0.3959012E+03 -0.1569397E+01
  0.4523810E+00  0.1924147E+05 -0.1569150E+01  0.3348045E+05 -0.2953593E+01  0.4562107E+03 -0.1568749E+01
  0.4833333E+00  0.2167259E+05 -0.1568419E+01  0.3816191E+05 -0.2931449E+01  0.5242618E+03 -0.1567853E+01
  0.5142857E+00  0.2426389E+05 -0.1567402E+01  0.4303065E+05 -0.2907354E+01  0.6002576E+03 -0.1566626E+01
  0.5452381E+00  0.2696188E+05 -0.1566041E+01  0.4808799E+05 -0.2883552E+01  0.6707537E+03 -0.1564921E+01
  0.5761905E+00  0.2988448E+05 -0.1564285E+01  0.5325270E+05 -0.2860123E+01  0.7560719E+03 -0.1562771E+01
  0.6071429E+00  0.3304750E+05 -0.1562040E+01  0.5851112E+05 -0.2836003E+01  0.8635347E+03 -0.1560151E+01
  0.6380953E+00  0.3634870E+05 -0.1559252E+01  0.6389077E+05 -0.2813560E+01  0.9714875E+03 -0.1556843E+01
  0.6690477E+00  0.3964587E+05 -0.1555772E+01  0.6930312E+05 -0.2791231E+01  0.1068162E+04 -0.1552543E+01
  0.7000000E+00  0.4305130E+05 -0.1551511E+01  0.7475263E+05 -0.2768875E+01  0.1185890E+04 -0.1547485E+01
  0.7309524E+00  0.4668724E+05 -0.1546451E+01  0.8025012E+05 -0.2747585E+01  0.1315920E+04 -0.1541536E+01
  0.7619048E+00  0.5046743E+05 -0.1540453E+01  0.8571372E+05 -0.2726577E+01  0.1456134E+04 -0.1534520E+01
  0.7928572E+00  0.5431128E+05 -0.1533378E+01  0.9112023E+05 -0.2705798E+01  0.1616589E+04 -0.1526525E+01
  0.8238096E+00  0.5816620E+05 -0.1525095E+01  0.9648686E+05 -0.2685626E+01  0.1769567E+04 -0.1516891E+01
  0.8547620E+00  0.6193337E+05 -0.1515443E+01  0.1017910E+06 -0.2666114E+01  0.1907620E+04 -0.1505253E+01
  0.8857143E+00  0.6577709E+05 -0.1504452E+01  0.1069921E+06 -0.2647087E+01  0.2069765E+04 -0.1492475E+01
  0.9166667E+00  0.6970624E+05 -0.1492091E+01  0.1120756E+06 -0.2628599E+01  0.2259022E+04 -0.1478715E+01
  0.9476191E+00  0.7368101E+05 -0.1478291E+01  0.1170041E+06 -0.2610580E+01  0.2458962E+04 -0.1463403E+01
  0.9785714E+00  0.7757631E+05 -0.1462901E+01  0.1217566E+06 -0.2593028E+01  0.2655619E+04 -0.1446141E+01
  0.1009524E+01  0.8131979E+05 -0.1445814E+01  0.1263271E+06 -0.2575994E+01  0.2851014E+04 -0.1426852E+01
  0.1040476E+01  0.8475484E+05 -0.1426829E+01  0.1307013E+06 -0.2559477E+01  0.3040760E+04 -0.1405251E+01
  0.1071429E+01  0.8791892E+05 -0.1405994E+01  0.1348912E+06 -0.2543717E+01  0.3229161E+04 -0.1381589E+01
  0.1102381E+01  0.9084595E+05 -0.1383549E+01  0.1388863E+06 -0.2528692E+01  0.3412884E+04 -0.1356207E+01
  0.1133333E+01  0.9349517E+05 -0.1359601E+01  0.1426389E+06 -0.2514065E+01  0.3592411E+04 -0.1329370E+01
  0.1164286E+01  0.9579278E+05 -0.1334176E+01  0.1461553E+06 -0.2499993E+01  0.3765881E+04 -0.1300799E+01
  0.1195238E+01  0.9759904E+05 -0.1307142E+01  0.1494069E+06 -0.2486269E+01  0.3938924E+04 -0.1270836E+01
  0.1226190E+01  0.9890130E+05 -0.1278645E+01  0.1524173E+06 -0.2473273E+01  0.4103957E+04 -0.1239721E+01
  0.1257143E+01  0.9962291E+05 -0.1248579E+01  0.1552041E+06 -0.2460723E+01  0.4247623E+04 -0.1207182E+01
  0.1288095E+01  0.9979427E+05 -0.1218142E+01  0.1576477E+06 -0.2448985E+01  0.4360029E+04 -0.1173572E+01
  0.1319048E+01  0.9926563E+05 -0.1186434E+01  0.1598467E+06 -0.2437495E+01  0.4424053E+04 -0.1137421E+01
  0.1350000E+01  0.9807547E+05 -0.1154018E+01  0.1617638E+06 -0.2426507E+01  0.4469706E+04 -0.1100508E+01
  0.1380952E+01  0.9616264E+05 -0.1120823E+01  0.1633930E+06 -0.2416101E+01  0.4495943E+04 -0.1063573E+01
  0.1411905E+01  0.9300030E+05 -0.1087339E+01  0.1645947E+06 -0.2405765E+01  0.4422562E+04 -0.1023003E+01
  0.1442857E+01  0.8971470E+05 -0.1053594E+01  0.1656645E+06 -0.2396432E+01  0.4385199E+04 -0.9864606E+00
  0.1473810E+01  0.8574789E+05 -0.1019733E+01  0.1664412E+06 -0.2387614E+01  0.4293614E+04 -0.9486752E+00
  0.1504762E+01  0.8109200E+05 -0.9855706E+00  0.1669302E+06 -0.2379244E+01  0.4150746E+04 -0.9086959E+00
  0.1535714E+01  0.7579989E+05 -0.9512780E+00  0.1671345E+06 -0.2371369E+01  0.3966404E+04 -0.8685306E+00
  0.1566667E+01  0.6992212E+05 -0.9169363E+00  0.1670473E+06 -0.2363835E+01  0.3748352E+04 -0.8291804E+00
  0.1597619E+01  0.6349151E+05 -0.8821715E+00  0.1666785E+06 -0.2356812E+01  0.3491667E+04 -0.7904334E+00
  0.1628572E+01  0.5655979E+05 -0.8465832E+00  0.1660358E+06 -0.2350302E+01  0.3192532E+04 -0.7500509E+00
  0.1659524E+01  0.4920225E+05 -0.8097138E+00  0.1651078E+06 -0.2344430E+01  0.2850746E+04 -0.7075454E+00
  0.1690476E+01  0.4147571E+05 -0.7701821E+00  0.1638923E+06 -0.2339145E+01  0.2459480E+04 -0.6582754E+00
  0.1721429E+01  0.3342601E+05 -0.7247624E+00  0.1623997E+06 -0.2334343E+01  0.2022345E+04 -0.5992087E+00
  0.1752381E+01  0.2511953E+05 -0.6664564E+00  0.1606503E+06 -0.2329999E+01  0.1540476E+04 -0.5152879E+00
  0.1783333E+01  0.1665415E+05 -0.5737858E+00  0.1586375E+06 -0.2326209E+01  0.1036670E+04 -0.3750922E+00
  0.1814286E+01  0.8278036E+04 -0.3371435E+00  0.1563650E+06 -0.2322681E+01  0.5477565E+03 -0.2033133E-01
  0.1845238E+01  0.3593558E+04  0.1205955E+01  0.1538427E+06 -0.2319835E+01  0.3628886E+03  0.1331864E+01
  0.1876190E+01  0.1075759E+05  0.2112416E+01  0.1510786E+06 -0.2317625E+01  0.8186010E+03  0.2103452E+01
  0.1907143E+01  0.1945536E+05  0.2275543E+01  0.1480655E+06 -0.2316229E+01  0.1424416E+04  0.2307592E+01
  0.1938095E+01  0.2827725E+05  0.2348101E+01  0.1448112E+06 -0.2315555E+01  0.2079862E+04  0.2402610E+01
  0.1969048E+01  0.3707130E+05  0.2393571E+01  0.1413187E+06 -0.2315631E+01  0.2770094E+04  0.2461987E+01
  0.2000000E+01  0.4576825E+05  0.2427252E+01  0.1376065E+06 -0.2316461E+01  0.3492426E+04  0.2504636E+01
