VARIABLES="w (rad/s)"
"A   1   1" "B   1   1"
"A   1   2" "B   1   2"
"A   1   3" "B   1   3"
Zone t="Motion of body    1 in DoF   1",I=    64,F=POINT
  0.5000000E-01  0.1538378E+06  0.1110236E-01 -0.5569458E-02 -0.1959324E-04 -0.2083248E+06 -0.1229746E-01
  0.8095238E-01  0.1548974E+06  0.4891517E-01 -0.9094687E-02 -0.5651466E-04 -0.2097820E+06 -0.5437693E-01
  0.1119048E+00  0.1551542E+06  0.1376293E+00 -0.4874696E-02 -0.5409942E-04 -0.2102277E+06 -0.1523943E+00
  0.1428571E+00  0.1554857E+06  0.3095248E+00  0.5153656E-02  0.1592631E-04 -0.2103248E+06 -0.3412809E+00
  0.1738095E+00  0.1556663E+06  0.6164157E+00 -0.1119326E-01 -0.1269020E-03 -0.2105598E+06 -0.6797099E+00
  0.2047619E+00  0.1559652E+06  0.1137837E+01 -0.1061905E-01 -0.2706577E-03 -0.2105995E+06 -0.1252092E+01
  0.2357143E+00  0.1561180E+06  0.2002936E+01  0.1356183E-01  0.3924724E-03 -0.2108595E+06 -0.2200267E+01
  0.2666667E+00  0.1564168E+06  0.3417776E+01  0.1822471E-01 -0.1032185E-03 -0.2110607E+06 -0.3746694E+01
  0.2976190E+00  0.1568965E+06  0.5736533E+01  0.2512207E-01  0.9995941E-03 -0.2112069E+06 -0.6268773E+01
  0.3285715E+00  0.1571565E+06  0.9488056E+01 -0.1021675E-01 -0.1766086E-03 -0.2116111E+06 -0.1034600E+02
  0.3595238E+00  0.1575424E+06  0.1558183E+02 -0.7427291E-02 -0.8662790E-03 -0.2119328E+06 -0.1694649E+02
  0.3904762E+00  0.1581318E+06  0.2541893E+02 -0.9769346E-02 -0.8848459E-03 -0.2121258E+06 -0.2752359E+02
  0.4214286E+00  0.1587883E+06  0.4093217E+02 -0.2165196E-01 -0.6529391E-03 -0.2126447E+06 -0.4415468E+02
  0.4523810E+00  0.1592706E+06  0.6528643E+02 -0.1328960E-01 -0.1044005E-02 -0.2131596E+06 -0.7020716E+02
  0.4833333E+00  0.1600270E+06  0.1016447E+03 -0.8681725E-02  0.7079542E-03 -0.2136460E+06 -0.1087953E+03
  0.5142857E+00  0.1608728E+06  0.1557279E+03 -0.3204346E-02 -0.1213551E-02 -0.2141409E+06 -0.1658453E+03
  0.5452381E+00  0.1617063E+06  0.2328841E+03 -0.2420750E-01 -0.1956284E-02 -0.2148312E+06 -0.2468931E+03
  0.5761905E+00  0.1625171E+06  0.3399955E+03 -0.8950981E-02 -0.2062798E-02 -0.2156308E+06 -0.3589078E+03
  0.6071429E+00  0.1635453E+06  0.4876131E+03  0.6484087E-02  0.2611876E-03 -0.2164242E+06 -0.5120345E+03
  0.6380953E+00  0.1647288E+06  0.6841893E+03  0.1348695E-01  0.2649784E-02 -0.2171270E+06 -0.7138389E+03
  0.6690477E+00  0.1659602E+06  0.9437388E+03  0.3302414E-01  0.6159306E-02 -0.2180851E+06 -0.9788510E+03
  0.7000000E+00  0.1671836E+06  0.1282167E+04  0.1307896E-01  0.9822845E-03 -0.2192063E+06 -0.1322736E+04
  0.7309524E+00  0.1684561E+06  0.1714952E+04 -0.8684089E-02 -0.6103516E-03 -0.2202108E+06 -0.1758235E+04
  0.7619048E+00  0.1699912E+06  0.2265252E+04 -0.8571624E-02 -0.4434586E-02 -0.2213882E+06 -0.2306812E+04
  0.7928572E+00  0.1715482E+06  0.2955933E+04  0.1501135E-01  0.7737160E-02 -0.2224652E+06 -0.2988067E+04
  0.8238096E+00  0.1732651E+06  0.3815315E+04 -0.1411394E-01 -0.1981735E-02 -0.2236172E+06 -0.3826630E+04
  0.8547620E+00  0.1750217E+06  0.4872025E+04 -0.1952955E-01 -0.4171371E-02 -0.2249220E+06 -0.4849540E+04
  0.8857143E+00  0.1767383E+06  0.6158829E+04  0.7924726E-02  0.1010513E-01 -0.2263280E+06 -0.6086349E+04
  0.9166667E+00  0.1784877E+06  0.7711551E+04  0.5456543E-01  0.1703644E-01 -0.2276420E+06 -0.7561381E+04
  0.9476191E+00  0.1803396E+06  0.9570453E+04 -0.2615004E-01 -0.1192093E-01 -0.2288791E+06 -0.9303648E+04
  0.9785714E+00  0.1822775E+06  0.1177843E+05  0.1553055E-01  0.7987976E-02 -0.2300630E+06 -0.1134449E+05
  0.1009524E+01  0.1842612E+06  0.1437976E+05 -0.1178957E-01 -0.1208878E-01 -0.2312712E+06 -0.1371952E+05
  0.1040476E+01  0.1860763E+06  0.1741086E+05  0.9503048E-02  0.1055145E-01 -0.2322657E+06 -0.1644875E+05
  0.1071429E+01  0.1878876E+06  0.2092330E+05 -0.8032227E-02 -0.1056671E-01 -0.2333960E+06 -0.1958128E+05
  0.1102381E+01  0.1894340E+06  0.2493943E+05 -0.1716367E-02 -0.3028870E-02 -0.2341948E+06 -0.2310831E+05
  0.1133333E+01  0.1908509E+06  0.2949768E+05 -0.1680262E-01  0.5538940E-02 -0.2348322E+06 -0.2705358E+05
  0.1164286E+01  0.1920946E+06  0.3462199E+05 -0.1310571E-02  0.3448486E-02 -0.2352797E+06 -0.3141976E+05
  0.1195238E+01  0.1929659E+06  0.4030806E+05 -0.3033277E-01 -0.2711487E-01 -0.2352616E+06 -0.3617112E+05
  0.1226190E+01  0.1936292E+06  0.4658349E+05  0.1269294E-01  0.7278442E-02 -0.2350581E+06 -0.4132605E+05
  0.1257143E+01  0.1937671E+06  0.5339932E+05 -0.5486228E-02 -0.4714966E-02 -0.2343343E+06 -0.4681189E+05
  0.1288095E+01  0.1937567E+06  0.6076029E+05 -0.2179666E-01 -0.1467896E-01 -0.2333190E+06 -0.5258182E+05
  0.1319048E+01  0.1931939E+06  0.6858050E+05 -0.1383537E-01 -0.9704590E-02 -0.2319587E+06 -0.5860374E+05
  0.1350000E+01  0.1921095E+06  0.7680693E+05  0.1835576E-01  0.3103638E-01 -0.2303223E+06 -0.6482704E+05
  0.1380952E+01  0.1903793E+06  0.8528948E+05  0.2589995E-01  0.1174927E-01 -0.2280200E+06 -0.7102733E+05
  0.1411905E+01  0.1873315E+06  0.9308021E+05  0.9380681E-02  0.1168823E-01 -0.2252666E+06 -0.7666018E+05
  0.1442857E+01  0.1846822E+06  0.1017432E+06  0.7233573E-02 -0.9155273E-03 -0.2223336E+06 -0.8264048E+05
  0.1473810E+01  0.1815058E+06  0.1103028E+06 -0.4182732E-02 -0.8605957E-02 -0.2189677E+06 -0.8829330E+05
  0.1504762E+01  0.1779443E+06  0.1186714E+06 -0.3569398E-02 -0.3662109E-02 -0.2153457E+06 -0.9357319E+05
  0.1535714E+01  0.1740577E+06  0.1267558E+06 -0.3974382E-02  0.1037598E-02 -0.2115905E+06 -0.9844627E+05
  0.1566667E+01  0.1698025E+06  0.1344225E+06 -0.1480427E-02 -0.4760742E-02 -0.2076425E+06 -0.1027869E+06
  0.1597619E+01  0.1652065E+06  0.1415326E+06  0.2368637E-02 -0.2862549E-01 -0.2034253E+06 -0.1064371E+06
  0.1628572E+01  0.1605364E+06  0.1481505E+06 -0.1476622E-01  0.7324219E-02 -0.1993918E+06 -0.1096226E+06
  0.1659524E+01  0.1557701E+06  0.1541197E+06  0.4192774E-02 -0.1354980E-01 -0.1953718E+06 -0.1121327E+06
  0.1690476E+01  0.1508473E+06  0.1593617E+06 -0.1191475E-02 -0.4516602E-02 -0.1913057E+06 -0.1139205E+06
  0.1721429E+01  0.1459882E+06  0.1639323E+06  0.6665749E-02  0.5267334E-01 -0.1874398E+06 -0.1151183E+06
  0.1752381E+01  0.1412186E+06  0.1677967E+06  0.2542579E-02 -0.2685547E-02 -0.1837203E+06 -0.1156657E+06
  0.1783333E+01  0.1365479E+06  0.1710388E+06 -0.1071253E-01 -0.2301025E-01 -0.1802687E+06 -0.1157544E+06
  0.1814286E+01  0.1320006E+06  0.1736084E+06 -0.3027728E-02  0.3112793E-02 -0.1769860E+06 -0.1152733E+06
  0.1845238E+01  0.1275677E+06  0.1755035E+06  0.9923135E-02  0.1098633E-02 -0.1738298E+06 -0.1141917E+06
  0.1876190E+01  0.1234021E+06  0.1769225E+06 -0.4782120E-02  0.2746582E-02 -0.1710562E+06 -0.1128768E+06
  0.1907143E+01  0.1194980E+06  0.1778305E+06  0.2912314E-02  0.7995605E-02 -0.1685517E+06 -0.1111906E+06
  0.1938095E+01  0.1157147E+06  0.1781444E+06  0.3353934E-02  0.5310059E-02 -0.1661453E+06 -0.1090049E+06
  0.1969048E+01  0.1121982E+06  0.1780861E+06 -0.8601750E-02 -0.2606201E-01 -0.1640545E+06 -0.1066754E+06
  0.2000000E+01  0.1089116E+06  0.1775938E+06 -0.6484985E-02  0.1562500E-01 -0.1621471E+06 -0.1040083E+06
Zone t="Motion of body    1 in DoF   2",I=    64,F=POINT
  0.5000000E-01  0.7553101E-02  0.9775162E-05  0.8256261E+05  0.2249780E+03  0.2944946E-01 -0.1478195E-04
  0.8095238E-01  0.1795376E-01  0.4005432E-04  0.8158779E+05  0.3731566E+03 -0.2695420E-01  0.4243851E-04
  0.1119048E+00  0.6135981E-02  0.1125336E-03  0.8107795E+05  0.5346371E+03 -0.1404458E-01  0.1120567E-03
  0.1428571E+00 -0.6675720E-02 -0.1130104E-03  0.8080640E+05  0.7155758E+03 -0.1142883E-01 -0.2970695E-03
  0.1738095E+00  0.1316854E-02 -0.8583069E-04  0.8078529E+05  0.9238751E+03  0.1878712E-01 -0.2498627E-03
  0.2047619E+00 -0.4098582E-02  0.2479553E-04  0.8090420E+05  0.1169267E+04 -0.7302927E-02 -0.4310608E-03
  0.2357143E+00  0.2913041E-02  0.1621246E-04  0.8115627E+05  0.1465526E+04 -0.5444151E-01 -0.5817413E-04
  0.2666667E+00 -0.2746582E-02 -0.7820129E-04  0.8152513E+05  0.1824553E+04 -0.1173019E-01 -0.1331329E-02
  0.2976190E+00 -0.3588867E-03 -0.1157761E-02  0.8196005E+05  0.2272067E+04 -0.4768067E-02  0.7972717E-03
  0.3285715E+00 -0.7198167E-02  0.8201599E-04  0.8246782E+05  0.2822586E+04  0.1825084E-01 -0.1197815E-02
  0.3595238E+00  0.6790666E-03  0.9765625E-03  0.8294326E+05  0.3507194E+04 -0.1018600E-01 -0.8010864E-03
  0.3904762E+00 -0.1742851E-01 -0.7057190E-03  0.8343246E+05  0.4350473E+04  0.7737322E-02 -0.1640320E-03
  0.4214286E+00  0.8689750E-02  0.4196167E-03  0.8369236E+05  0.5344400E+04  0.1151392E-01  0.6065369E-03
  0.4523810E+00  0.8365029E-02 -0.1983643E-03  0.8387763E+05  0.6540515E+04  0.3042442E-01 -0.8087158E-03
  0.4833333E+00  0.2336173E-02 -0.9002686E-03  0.8378453E+05  0.7844070E+04  0.1010237E-02  0.1777649E-02
  0.5142857E+00  0.2213372E-01 -0.2136230E-03  0.8344706E+05  0.9315506E+04 -0.4450480E-02  0.2357483E-02
  0.5452381E+00  0.5149342E-02  0.1296997E-03  0.8294825E+05  0.1087784E+05  0.2641836E-01 -0.5722046E-03
  0.5761905E+00  0.1588932E-01 -0.3097534E-02  0.8226229E+05  0.1250513E+05  0.2992488E-01  0.1953125E-02
  0.6071429E+00  0.9047563E-02  0.2578735E-02  0.8137942E+05  0.1423359E+05  0.1332002E-01 -0.2716064E-02
  0.6380953E+00  0.2104346E-02  0.2777100E-02  0.8042938E+05  0.1596961E+05 -0.2286085E-01 -0.1342773E-02
  0.6690477E+00 -0.2371900E-02  0.1174927E-02  0.7934645E+05  0.1774883E+05  0.1090162E-01  0.6179810E-02
  0.7000000E+00 -0.1081194E-01  0.2304077E-02  0.7814515E+05  0.1957649E+05 -0.1020159E-01 -0.1632690E-02
  0.7309524E+00  0.5344055E-02 -0.2410889E-02  0.7692047E+05  0.2140229E+05 -0.1035411E-01 -0.1235962E-02
  0.7619048E+00 -0.1449966E-01 -0.3967285E-03  0.7560908E+05  0.2323554E+05 -0.3701019E-01 -0.1708984E-02
  0.7928572E+00  0.1539625E-02  0.9460449E-03  0.7419795E+05  0.2507205E+05 -0.4618876E-02 -0.9155273E-03
  0.8238096E+00  0.4519424E-02  0.5065918E-02  0.7274805E+05  0.2689280E+05  0.2956148E-01 -0.2777100E-02
  0.8547620E+00 -0.7854663E-03  0.2136230E-02  0.7128044E+05  0.2868347E+05 -0.1370996E-01 -0.6958008E-02
  0.8857143E+00  0.5857406E-02  0.5096436E-02  0.6978363E+05  0.3043792E+05 -0.3280148E-01  0.5371094E-02
  0.9166667E+00  0.1731179E-02  0.1220703E-02  0.6827198E+05  0.3214662E+05 -0.1411577E-01 -0.8911133E-02
  0.9476191E+00 -0.1739042E-02 -0.4089355E-02  0.6673298E+05  0.3380532E+05  0.1152920E-01  0.3417969E-02
  0.9785714E+00  0.3929417E-02 -0.1922607E-02  0.6518417E+05  0.3540314E+05  0.8732037E-02 -0.1385498E-01
  0.1009524E+01 -0.7799257E-02  0.7324219E-03  0.6363674E+05  0.3693161E+05  0.8887526E-02  0.1074219E-01
  0.1040476E+01  0.8447153E-02 -0.3417969E-02  0.6209769E+05  0.3838944E+05  0.1196680E-01  0.1498413E-01
  0.1071429E+01  0.9342448E-02 -0.2197266E-02  0.6058698E+05  0.3976373E+05 -0.1538086E-01  0.5676270E-02
  0.1102381E+01  0.8304999E-03  0.2746582E-02  0.5910591E+05  0.4106009E+05  0.1051967E-01 -0.4089355E-02
  0.1133333E+01  0.2261891E-02 -0.3662109E-02  0.5766267E+05  0.4227179E+05  0.1012466E-01 -0.2441406E-03
  0.1164286E+01  0.2516296E-02 -0.7019043E-02  0.5625792E+05  0.4339872E+05  0.8492499E-02 -0.2807617E-02
  0.1195238E+01  0.1940480E-02  0.3173828E-02  0.5487873E+05  0.4444923E+05 -0.9753467E-02  0.5737305E-02
  0.1226190E+01 -0.3185680E-02  0.8056641E-02  0.5354805E+05  0.4541272E+05  0.5823821E-02  0.4211426E-02
  0.1257143E+01  0.5534779E-02  0.7263184E-02  0.5225689E+05  0.4632259E+05 -0.9855790E-02  0.1098633E-02
  0.1288095E+01  0.6396845E-02  0.4943848E-02  0.5101829E+05  0.4709346E+05  0.3269499E-02 -0.2990723E-02
  0.1319048E+01  0.4534670E-02 -0.2441406E-03  0.4983305E+05  0.4780832E+05 -0.7912535E-02  0.7812500E-02
  0.1350000E+01  0.3255208E-02 -0.2441406E-02  0.4870659E+05  0.4844483E+05  0.1772280E-01  0.2685547E-02
  0.1380952E+01  0.3182247E-02  0.1525879E-02  0.4762175E+05  0.4900724E+05  0.8265002E-02  0.4089355E-02
  0.1411905E+01 -0.2161447E-03  0.7812500E-02  0.4661251E+05  0.4957696E+05  0.1491399E-02 -0.8300781E-02
  0.1442857E+01  0.4864683E-03  0.2136230E-02  0.4564637E+05  0.5002054E+05  0.1732250E-01  0.7873535E-02
  0.1473810E+01 -0.3416588E-02 -0.5493164E-02  0.4473632E+05  0.5040735E+05  0.9939165E-03  0.5493164E-03
  0.1504762E+01  0.1703576E-02 -0.1477051E-01  0.4388115E+05  0.5074514E+05 -0.8031145E-02 -0.3173828E-02
  0.1535714E+01 -0.1430777E-02  0.1190186E-01  0.4306911E+05  0.5103107E+05  0.2642964E-02  0.3967285E-02
  0.1566667E+01 -0.4752950E-02 -0.4211426E-02  0.4230469E+05  0.5128843E+05  0.1513542E-01  0.1757812E-01
  0.1597619E+01 -0.8061007E-02  0.8605957E-02  0.4157310E+05  0.5152284E+05 -0.1575908E-01 -0.1831055E-01
  0.1628572E+01 -0.1855147E-02  0.2197266E-02  0.4090489E+05  0.5171441E+05 -0.9500603E-02 -0.7385254E-02
  0.1659524E+01  0.2795182E-02  0.9338379E-02  0.4027087E+05  0.5188180E+05 -0.9360183E-02 -0.1647949E-02
  0.1690476E+01 -0.3610530E-03  0.6347656E-02  0.3967275E+05  0.5205155E+05  0.1624739E-02 -0.1940918E-01
  0.1721429E+01 -0.6009811E-02  0.3784180E-02  0.3911442E+05  0.5220423E+05  0.6949397E-02 -0.6896973E-02
  0.1752381E+01  0.3117271E-02  0.4577637E-02  0.3857925E+05  0.5234364E+05  0.8550728E-02 -0.2624512E-02
  0.1783333E+01 -0.5886755E-02  0.5615234E-02  0.3806897E+05  0.5249526E+05 -0.4380841E-02  0.2807617E-02
  0.1814286E+01  0.5685401E-02 -0.4028320E-02  0.3757031E+05  0.5265468E+05  0.8561742E-02 -0.3662109E-02
  0.1845238E+01 -0.1637317E-02  0.6774902E-02  0.3707604E+05  0.5282253E+05 -0.1157699E-03 -0.1226807E-01
  0.1876190E+01  0.2927829E-02 -0.1025391E-01  0.3660181E+05  0.5298780E+05  0.5383952E-02  0.3173828E-02
  0.1907143E+01  0.6496701E-02  0.7507324E-02  0.3612874E+05  0.5313713E+05 -0.9793057E-02 -0.9094238E-02
  0.1938095E+01 -0.9605164E-03 -0.1257324E-01  0.3564086E+05  0.5329120E+05  0.6471676E-02  0.2014160E-02
  0.1969048E+01 -0.6315700E-02  0.5371094E-02  0.3516311E+05  0.5342604E+05  0.1767621E-01 -0.5493164E-02
  0.2000000E+01  0.2983093E-02  0.9460449E-02  0.3467570E+05  0.5353485E+05 -0.5592346E-02 -0.6958008E-02
Zone t="Motion of body    1 in DoF   3",I=    64,F=POINT
  0.5000000E-01 -0.2067652E+06 -0.1192366E-01 -0.1642227E-01 -0.2052434E-04  0.4877148E+06  0.1343958E-01
  0.8095238E-01 -0.2084610E+06 -0.5279574E-01  0.3845215E-01  0.1471283E-03  0.4897491E+06  0.5929653E-01
  0.1119048E+00 -0.2089853E+06 -0.1482297E+00  0.1970332E-01  0.2091262E-03  0.4899224E+06  0.1642981E+00
  0.1428571E+00 -0.2091109E+06 -0.3324236E+00  0.5906677E-01  0.4545233E-03  0.4900433E+06  0.3660881E+00
  0.1738095E+00 -0.2093424E+06 -0.6612565E+00 -0.1085307E-01  0.3698654E-04  0.4901909E+06  0.7279068E+00
  0.2047619E+00 -0.2093877E+06 -0.1218714E+01  0.4150745E-01  0.5536126E-03  0.4903383E+06  0.1339422E+01
  0.2357143E+00 -0.2096295E+06 -0.2141368E+01  0.2184781E-02 -0.3251527E-04  0.4903837E+06  0.2353297E+01
  0.2666667E+00 -0.2098119E+06 -0.3645905E+01  0.1663685E-01  0.6379699E-03  0.4906063E+06  0.3998215E+01
  0.2976190E+00 -0.2099793E+06 -0.6103643E+01  0.2123840E-01  0.4654564E-03  0.4907956E+06  0.6668968E+01
  0.3285715E+00 -0.2103503E+06 -0.1006717E+02  0.2096756E-01  0.2865605E-03  0.4909667E+06  0.1098124E+02
  0.3595238E+00 -0.2106410E+06 -0.1647929E+02  0.8526530E-01  0.3505945E-02  0.4911983E+06  0.1792154E+02
  0.3904762E+00 -0.2108466E+06 -0.2679729E+02  0.5728744E-01  0.3755994E-02  0.4915549E+06  0.2901484E+02
  0.4214286E+00 -0.2113742E+06 -0.4298645E+02  0.3238742E-01  0.1388863E-02  0.4918436E+06  0.4636795E+02
  0.4523810E+00 -0.2118361E+06 -0.6829390E+02  0.5390047E-01  0.5350888E-02  0.4921904E+06  0.7343761E+02
  0.4833333E+00 -0.2123124E+06 -0.1058741E+03  0.2149911E-01 -0.2100676E-02  0.4926645E+06  0.1133156E+03
  0.5142857E+00 -0.2128124E+06 -0.1615024E+03  0.3229565E-01  0.5321562E-02  0.4931189E+06  0.1719825E+03
  0.5452381E+00 -0.2134816E+06 -0.2403660E+03 -0.9808936E-02 -0.4398763E-02  0.4936080E+06  0.2548284E+03
  0.5761905E+00 -0.2142285E+06 -0.3490915E+03  0.3512863E-01  0.8803964E-02  0.4941636E+06  0.3685024E+03
  0.6071429E+00 -0.2149922E+06 -0.4980380E+03 -0.3103817E-02  0.1116991E-02  0.4948742E+06  0.5230364E+03
  0.6380953E+00 -0.2156998E+06 -0.6949178E+03  0.1001956E-01  0.2033949E-02  0.4954988E+06  0.7250306E+03
  0.6690477E+00 -0.2166395E+06 -0.9527797E+03 -0.7298153E-02  0.1017809E-02  0.4962301E+06  0.9882474E+03
  0.7000000E+00 -0.2177108E+06 -0.1286219E+04 -0.1150949E-01 -0.9989738E-03  0.4970027E+06  0.1326961E+04
  0.7309524E+00 -0.2186475E+06 -0.1709202E+04 -0.2833810E-01 -0.1919746E-02  0.4978323E+06  0.1752311E+04
  0.7619048E+00 -0.2197920E+06 -0.2242286E+04  0.2681637E-01  0.6764412E-02  0.4988027E+06  0.2283399E+04
  0.7928572E+00 -0.2208428E+06 -0.2905374E+04  0.8321675E-01  0.2024269E-01  0.4996742E+06  0.2936961E+04
  0.8238096E+00 -0.2219863E+06 -0.3722171E+04  0.2556068E-02  0.5983353E-02  0.5005250E+06  0.3733068E+04
  0.8547620E+00 -0.2232555E+06 -0.4715548E+04 -0.1303160E-02 -0.8710861E-02  0.5013957E+06  0.4693775E+04
  0.8857143E+00 -0.2245716E+06 -0.5911912E+04  0.2246488E-01 -0.3309250E-02  0.5023482E+06  0.5842176E+04
  0.9166667E+00 -0.2258110E+06 -0.7340368E+04 -0.4361239E-01 -0.3212166E-01  0.5032730E+06  0.7197171E+04
  0.9476191E+00 -0.2270001E+06 -0.9031786E+04  0.5635784E-02  0.3936768E-02  0.5041381E+06  0.8779686E+04
  0.9785714E+00 -0.2281666E+06 -0.1101712E+05 -0.1359703E-01 -0.5447388E-02  0.5049481E+06  0.1061042E+05
  0.1009524E+01 -0.2293570E+06 -0.1332475E+05  0.5501802E-02  0.7335663E-02  0.5056863E+06  0.1271233E+05
  0.1040476E+01 -0.2303264E+06 -0.1597747E+05  0.2452021E-01  0.1020813E-01  0.5061438E+06  0.1509281E+05
  0.1071429E+01 -0.2313923E+06 -0.1900386E+05 -0.2026571E-01 -0.1092529E-01  0.5066620E+06  0.1778444E+05
  0.1102381E+01 -0.2321310E+06 -0.2241571E+05  0.6671683E-02  0.3921509E-02  0.5068971E+06  0.2076775E+05
  0.1133333E+01 -0.2327053E+06 -0.2622612E+05  0.4793055E-02  0.7919312E-02  0.5069330E+06  0.2405351E+05
  0.1164286E+01 -0.2331133E+06 -0.3044317E+05  0.2665701E-01  0.2413940E-01  0.5068269E+06  0.2762419E+05
  0.1195238E+01 -0.2330796E+06 -0.3504723E+05  0.5617179E-02  0.2551270E-01  0.5063520E+06  0.3144706E+05
  0.1226190E+01 -0.2328743E+06 -0.4003453E+05 -0.1585373E-01 -0.1707458E-01  0.5057297E+06  0.3550942E+05
  0.1257143E+01 -0.2321529E+06 -0.4533344E+05  0.4976446E-02  0.1203918E-01  0.5046213E+06  0.3973516E+05
  0.1288095E+01 -0.2311998E+06 -0.5096088E+05  0.3307406E-01  0.4071045E-01  0.5033104E+06  0.4408603E+05
  0.1319048E+01 -0.2298554E+06 -0.5676259E+05 -0.1954998E-01 -0.3509521E-01  0.5015212E+06  0.4849160E+05
  0.1350000E+01 -0.2282099E+06 -0.6271898E+05  0.4543728E-02  0.1245117E-01  0.4996915E+06  0.5292861E+05
  0.1380952E+01 -0.2259546E+06 -0.6867969E+05 -0.1396653E-01 -0.2145386E-01  0.4971797E+06  0.5718240E+05
  0.1411905E+01 -0.2245549E+06 -0.7501113E+05  0.2183062E-02 -0.1953125E-02  0.4951858E+06  0.6177057E+05
  0.1442857E+01 -0.2216645E+06 -0.8082130E+05  0.4900640E-01  0.5358887E-01  0.4923169E+06  0.6564158E+05
  0.1473810E+01 -0.2183923E+06 -0.8638461E+05 -0.9090195E-02 -0.2496338E-01  0.4893426E+06  0.6913711E+05
  0.1504762E+01 -0.2148552E+06 -0.9156687E+05  0.2119330E-02  0.2297974E-01  0.4861535E+06  0.7217398E+05
  0.1535714E+01 -0.2111675E+06 -0.9629258E+05  0.1232058E-01  0.1675415E-01  0.4828785E+06  0.7476088E+05
  0.1566667E+01 -0.2073017E+06 -0.1005273E+06 -0.4704252E-02  0.2136230E-03  0.4796812E+06  0.7683234E+05
  0.1597619E+01 -0.2032026E+06 -0.1041418E+06 -0.3753526E-02 -0.1086426E-01  0.4762216E+06  0.7823919E+05
  0.1628572E+01 -0.1992522E+06 -0.1072289E+06  0.4038225E-02 -0.3845215E-02  0.4731428E+06  0.7927066E+05
  0.1659524E+01 -0.1953164E+06 -0.1096075E+06  0.5985736E-02  0.3912354E-01  0.4699649E+06  0.7962423E+05
  0.1690476E+01 -0.1913674E+06 -0.1114076E+06  0.1785407E-01  0.3070068E-01  0.4670424E+06  0.7951329E+05
  0.1721429E+01 -0.1876035E+06 -0.1125959E+06 -0.2225979E-01 -0.1483154E-01  0.4643564E+06  0.7892811E+05
  0.1752381E+01 -0.1839657E+06 -0.1130867E+06 -0.4908831E-03 -0.4150391E-02  0.4616666E+06  0.7774822E+05
  0.1783333E+01 -0.1805908E+06 -0.1131151E+06 -0.1549498E-02 -0.1171875E-01  0.4593852E+06  0.7628691E+05
  0.1814286E+01 -0.1773944E+06 -0.1126291E+06 -0.1901371E-01 -0.2093506E-01  0.4573306E+06  0.7448474E+05
  0.1845238E+01 -0.1743382E+06 -0.1116267E+06  0.4076755E-02 -0.2770996E-01  0.4553587E+06  0.7225093E+05
  0.1876190E+01 -0.1716324E+06 -0.1103184E+06 -0.6782803E-02  0.9582520E-02  0.4538400E+06  0.6998163E+05
  0.1907143E+01 -0.1691841E+06 -0.1085495E+06 -0.5708616E-02 -0.2166748E-01  0.4523864E+06  0.6732288E+05
  0.1938095E+01 -0.1668486E+06 -0.1064876E+06  0.2343817E-01  0.2301025E-01  0.4511871E+06  0.6456206E+05
  0.1969048E+01 -0.1648057E+06 -0.1042664E+06  0.1415802E-01  0.2703857E-01  0.4503599E+06  0.6187579E+05
  0.2000000E+01 -0.1629407E+06 -0.1016709E+06 -0.1618195E-01 -0.2642822E-01  0.4495312E+06  0.5892034E+05
