VARIABLES="w (rad/s)"
"A   1   1" "B   1   1"
"A   1   2" "B   1   2"
"A   1   3" "B   1   3"
Zone t="Motion of body    1 in DoF   1",I=    64,F=POINT
  0.5000000E-01  0.3828736E+05  0.2083303E-02 -0.8296967E-03 -0.1724368E-05  0.6075497E+03  0.4187272E-04
  0.8095238E-01  0.3836609E+05  0.9109156E-02  0.4158581E-02  0.2243315E-04  0.6006310E+03  0.1828289E-03
  0.1119048E+00  0.3852968E+05  0.2564435E-01  0.3281045E-02  0.3355988E-04  0.6016466E+03  0.5106893E-03
  0.1428571E+00  0.3852583E+05  0.5770511E-01  0.5327224E-02  0.7851707E-04  0.5977252E+03  0.1154970E-02
  0.1738095E+00  0.3866511E+05  0.1150557E+00 -0.7440227E-02 -0.2832897E-04  0.6049037E+03  0.2317562E-02
  0.2047619E+00  0.3863884E+05  0.2123010E+00 -0.3073936E-03 -0.1352676E-04  0.6033074E+03  0.4278281E-02
  0.2357143E+00  0.3878327E+05  0.3744943E+00  0.5219199E-02  0.1003816E-03  0.6071587E+03  0.7594964E-02
  0.2666667E+00  0.3886571E+05  0.6398152E+00  0.1223087E-02  0.1004683E-03  0.6140497E+03  0.1307263E-01
  0.2976190E+00  0.3888451E+05  0.1073828E+01  0.1845703E-02  0.1617202E-03  0.6123367E+03  0.2201480E-01
  0.3285715E+00  0.3905113E+05  0.1780744E+01 -0.2809607E-02  0.8750707E-05  0.6189467E+03  0.3676025E-01
  0.3595238E+00  0.3919287E+05  0.2929817E+01  0.1150169E-01  0.5728919E-03  0.6263297E+03  0.6097056E-01
  0.3904762E+00  0.3922438E+05  0.4781538E+01  0.1185022E-01  0.5870108E-03  0.6291136E+03  0.1002802E+00
  0.4214286E+00  0.3941351E+05  0.7710487E+01  0.2226749E-02  0.3747065E-03  0.6373250E+03  0.1631655E+00
  0.4523810E+00  0.3965830E+05  0.1233142E+02 -0.4249974E-02 -0.3048703E-03  0.6571181E+03  0.2645997E+00
  0.4833333E+00  0.3980930E+05  0.1922288E+02  0.1515356E-02  0.2469234E-03  0.6567457E+03  0.4152478E+00
  0.5142857E+00  0.3989038E+05  0.2945321E+02 -0.1587338E-02 -0.4187077E-03  0.6588007E+03  0.6417826E+00
  0.5452381E+00  0.4017480E+05  0.4413303E+02 -0.5177328E-03  0.7184297E-03  0.6752095E+03  0.9741500E+00
  0.5761905E+00  0.4047440E+05  0.6458908E+02 -0.2277469E-02 -0.9539723E-04  0.6893771E+03  0.1443371E+01
  0.6071429E+00  0.4070608E+05  0.9273954E+02  0.2915326E-02  0.1549274E-03  0.7010035E+03  0.2097903E+01
  0.6380953E+00  0.4087059E+05  0.1301435E+03  0.8357603E-02  0.1490504E-02  0.7006027E+03  0.2969285E+01
  0.6690477E+00  0.4115565E+05  0.1796637E+03  0.3067505E-02  0.5998015E-03  0.7130457E+03  0.4150795E+01
  0.7000000E+00  0.4153794E+05  0.2444831E+03  0.8098057E-02  0.2827168E-02  0.7356492E+03  0.5739692E+01
  0.7309524E+00  0.4194865E+05  0.3276196E+03  0.1007229E-01  0.2544224E-02  0.7562850E+03  0.7808710E+01
  0.7619048E+00  0.4229648E+05  0.4330705E+03  0.6048202E-02  0.2557635E-02  0.7653041E+03  0.1044226E+02
  0.7928572E+00  0.4256198E+05  0.5651779E+03 -0.3454535E-02  0.4470348E-03  0.7736595E+03  0.1380037E+02
  0.8238096E+00  0.4294538E+05  0.7297064E+03 -0.8603576E-02 -0.6067753E-04  0.7928809E+03  0.1809370E+02
  0.8547620E+00  0.4341065E+05  0.9324440E+03  0.5078754E-02  0.3433228E-02  0.8135949E+03  0.2346744E+02
  0.8857143E+00  0.4391368E+05  0.1180021E+04  0.8355418E-03  0.1987696E-02  0.8361287E+03  0.3016497E+02
  0.9166667E+00  0.4441777E+05  0.1479507E+04  0.4644220E-02  0.2242088E-02  0.8638875E+03  0.3849708E+02
  0.9476191E+00  0.4491614E+05  0.1838709E+04 -0.5853164E-02 -0.1858234E-02  0.8893203E+03  0.4867318E+02
  0.9785714E+00  0.4535854E+05  0.2265316E+04  0.4545337E-02  0.4633427E-02  0.9034076E+03  0.6080614E+02
  0.1009524E+01  0.4579695E+05  0.2768306E+04  0.5063471E-03 -0.4777908E-03  0.9200381E+03  0.7538412E+02
  0.1040476E+01  0.4627849E+05  0.3357154E+04  0.2529747E-02  0.2410889E-02  0.9454129E+03  0.9295328E+02
  0.1071429E+01  0.4681827E+05  0.4041930E+04  0.6259155E-02  0.5473137E-02  0.9775348E+03  0.1139774E+03
  0.1102381E+01  0.4737668E+05  0.4832254E+04 -0.3024404E-02  0.1335144E-03  0.1008858E+04  0.1387601E+03
  0.1133333E+01  0.4791701E+05  0.5737409E+04 -0.3231273E-02  0.3273964E-02  0.1039670E+04  0.1676918E+03
  0.1164286E+01  0.4842311E+05  0.6766849E+04  0.2149336E-02  0.3054619E-02  0.1069003E+04  0.2012928E+03
  0.1195238E+01  0.4884511E+05  0.7927621E+04 -0.8681096E-03  0.5765915E-02  0.1094791E+04  0.2400955E+03
  0.1226190E+01  0.4919804E+05  0.9226863E+04 -0.1057745E-02  0.1482010E-02  0.1117747E+04  0.2845683E+03
  0.1257143E+01  0.4945923E+05  0.1067263E+05 -0.5826083E-02 -0.6961823E-03  0.1139652E+04  0.3351940E+03
  0.1288095E+01  0.4975798E+05  0.1225663E+05 -0.2001976E-02 -0.1194000E-02  0.1164158E+04  0.3918964E+03
  0.1319048E+01  0.4996358E+05  0.1398770E+05  0.3192778E-02  0.9685516E-02  0.1185215E+04  0.4548315E+03
  0.1350000E+01  0.5011349E+05  0.1586214E+05 -0.3458659E-02  0.2277374E-02  0.1205539E+04  0.5249403E+03
  0.1380952E+01  0.5016211E+05  0.1787512E+05 -0.3922561E-02  0.2632141E-02  0.1225640E+04  0.6031099E+03
  0.1411905E+01  0.4989261E+05  0.1991285E+05  0.2701809E-02  0.3955841E-02  0.1220611E+04  0.6825784E+03
  0.1442857E+01  0.4974370E+05  0.2216526E+05  0.8460318E-04  0.9456635E-02  0.1237568E+04  0.7752650E+03
  0.1473810E+01  0.4949328E+05  0.2451542E+05  0.1200982E-02  0.7362366E-02  0.1247242E+04  0.8738582E+03
  0.1504762E+01  0.4912626E+05  0.2694208E+05 -0.3985151E-02 -0.2079010E-02  0.1251802E+04  0.9780770E+03
  0.1535714E+01  0.4864769E+05  0.2942652E+05 -0.1241994E-02 -0.2716064E-02  0.1249758E+04  0.1087134E+04
  0.1566667E+01  0.4806387E+05  0.3194888E+05 -0.2434913E-03 -0.8811951E-02  0.1245211E+04  0.1202742E+04
  0.1597619E+01  0.4735582E+05  0.3448538E+05 -0.3237774E-02 -0.8041382E-02  0.1237907E+04  0.1324478E+04
  0.1628572E+01  0.4655477E+05  0.3701000E+05  0.1873886E-03  0.1480103E-02  0.1227617E+04  0.1449806E+04
  0.1659524E+01  0.4566730E+05  0.3949386E+05  0.3227332E-02  0.3101349E-02  0.1214474E+04  0.1578802E+04
  0.1690476E+01  0.4469842E+05  0.4191282E+05  0.2455160E-02 -0.8392334E-03  0.1194723E+04  0.1708291E+04
  0.1721429E+01  0.4365814E+05  0.4424673E+05  0.2065318E-02 -0.1663208E-02  0.1169837E+04  0.1837857E+04
  0.1752381E+01  0.4254105E+05  0.4647746E+05  0.3839991E-02  0.7873535E-02  0.1138865E+04  0.1967167E+04
  0.1783333E+01  0.4137755E+05  0.4858881E+05  0.1540139E-02 -0.5355835E-02  0.1105608E+04  0.2095915E+04
  0.1814286E+01  0.4017421E+05  0.5056612E+05  0.6307767E-03  0.1091003E-02  0.1070031E+04  0.2223795E+04
  0.1845238E+01  0.3893914E+05  0.5239689E+05 -0.4961567E-03  0.4699707E-02  0.1032910E+04  0.2350015E+04
  0.1876190E+01  0.3769264E+05  0.5407508E+05 -0.6587614E-03 -0.2662659E-02  0.9921929E+03  0.2473164E+04
  0.1907143E+01  0.3644343E+05  0.5559298E+05  0.2176235E-02  0.3135681E-02  0.9497418E+03  0.2593953E+04
  0.1938095E+01  0.3520636E+05  0.5695082E+05 -0.5141125E-02 -0.4852295E-02  0.9058510E+03  0.2710906E+04
  0.1969048E+01  0.3398988E+05  0.5814884E+05 -0.1239892E-03  0.3067017E-02  0.8583406E+03  0.2821537E+04
  0.2000000E+01  0.3279180E+05  0.5918808E+05 -0.2861023E-02  0.2548218E-02  0.8109523E+03  0.2926748E+04
Zone t="Motion of body    1 in DoF   2",I=    64,F=POINT
  0.5000000E-01 -0.3919601E-02  0.1281500E-04  0.6576898E+05  0.1506480E+03 -0.2059937E-02 -0.6467104E-05
  0.8095238E-01 -0.4700492E-02  0.2014637E-04  0.6522270E+05  0.2499230E+03 -0.2591750E-02 -0.8106232E-05
  0.1119048E+00  0.1039708E-01 -0.1910329E-04  0.6487629E+05  0.3581880E+03 -0.3391834E-02 -0.2199411E-04
  0.1428571E+00  0.1168251E-02  0.4893541E-04  0.6471314E+05  0.4796234E+03 -0.2363205E-02 -0.2932549E-04
  0.1738095E+00  0.3774982E-02  0.4577637E-04  0.6468986E+05  0.6195826E+03 -0.2864158E-02 -0.3504753E-04
  0.2047619E+00 -0.1797787E-02 -0.7724762E-04  0.6479018E+05  0.7846648E+03 -0.3353385E-02 -0.4935265E-04
  0.2357143E+00 -0.4604224E-02 -0.1668930E-05  0.6495776E+05  0.9842481E+03 -0.3058693E-02 -0.5888939E-04
  0.2666667E+00  0.1630783E-02 -0.1204014E-04  0.6521988E+05  0.1226509E+04 -0.2503395E-02 -0.5459785E-04
  0.2976190E+00 -0.6966248E-02  0.1699924E-03  0.6552606E+05  0.1528918E+04 -0.1614990E-02 -0.5650520E-04
  0.3285715E+00 -0.5735314E-02 -0.8559227E-04  0.6588918E+05  0.1901721E+04 -0.2809607E-02 -0.1063347E-03
  0.3595238E+00 -0.9358387E-02 -0.1587868E-03  0.6621268E+05  0.2366123E+04 -0.2525279E-02 -0.1606941E-03
  0.3904762E+00  0.3008958E-02  0.3068447E-03  0.6657186E+05  0.2939398E+04 -0.2989420E-02 -0.1931190E-03
  0.4214286E+00 -0.7793620E-02  0.4806519E-03  0.6676852E+05  0.3617037E+04 -0.2824169E-02 -0.1707077E-03
  0.4523810E+00 -0.8398758E-02 -0.4620552E-03  0.6690097E+05  0.4434324E+04 -0.2951371E-02 -0.2250671E-03
  0.4833333E+00  0.1183871E-03  0.2679825E-03  0.6685534E+05  0.5327804E+04 -0.2509808E-02 -0.3519058E-03
  0.5142857E+00 -0.6468032E-02 -0.4796982E-03  0.6664975E+05  0.6339212E+04 -0.3041162E-02 -0.3213882E-03
  0.5452381E+00 -0.1021473E-02  0.6694794E-03  0.6633739E+05  0.7417452E+04 -0.3526180E-02 -0.5025864E-03
  0.5761905E+00  0.8017484E-02 -0.7257462E-03  0.6586629E+05  0.8544992E+04 -0.3098417E-02 -0.4787445E-03
  0.6071429E+00  0.6854786E-02  0.2136230E-03  0.6526864E+05  0.9746969E+04 -0.3380270E-02 -0.5970001E-03
  0.6380953E+00  0.4268475E-02 -0.2603531E-03  0.6464473E+05  0.1095737E+05 -0.2582607E-02 -0.7114410E-03
  0.6690477E+00  0.7206927E-02 -0.3862381E-03  0.6390973E+05  0.1220486E+05 -0.2463127E-02 -0.9632111E-03
  0.7000000E+00 -0.2550398E-02 -0.2582550E-02  0.6308113E+05  0.1349211E+05 -0.3062657E-02 -0.7400513E-03
  0.7309524E+00 -0.1774393E-02 -0.1716614E-04  0.6222581E+05  0.1478191E+05 -0.3392222E-02 -0.8754730E-03
  0.7619048E+00  0.7440089E-02 -0.3433228E-03  0.6130299E+05  0.1608230E+05 -0.2363205E-02 -0.1180649E-02
  0.7928572E+00 -0.3579629E-02 -0.3944397E-02  0.6031568E+05  0.1738863E+05 -0.2251702E-02 -0.9346008E-03
  0.8238096E+00  0.1315078E-02  0.1234055E-02  0.5930679E+05  0.1868824E+05 -0.2889468E-02 -0.1438141E-02
  0.8547620E+00  0.8184916E-02  0.3738403E-03  0.5826407E+05  0.1997308E+05 -0.2365325E-02 -0.1281738E-02
  0.8857143E+00  0.4840974E-02  0.4011154E-02  0.5717989E+05  0.2123668E+05 -0.2532467E-02 -0.1243591E-02
  0.9166667E+00 -0.3479004E-02  0.6484985E-03  0.5607297E+05  0.2247025E+05 -0.2646706E-02 -0.1377106E-02
  0.9476191E+00 -0.6312078E-02 -0.3398895E-02  0.5495216E+05  0.2366596E+05 -0.2689074E-02 -0.1644135E-02
  0.9785714E+00 -0.2190806E-02  0.3814697E-05  0.5381892E+05  0.2481852E+05 -0.2011487E-02 -0.1998901E-02
  0.1009524E+01  0.4511780E-02 -0.7896423E-03  0.5267816E+05  0.2592233E+05 -0.2236996E-02 -0.1758575E-02
  0.1040476E+01  0.3937606E-02 -0.1422882E-02  0.5153216E+05  0.2697584E+05 -0.2463753E-02 -0.1689911E-02
  0.1071429E+01  0.8438110E-02 -0.1728058E-02  0.5040156E+05  0.2797106E+05 -0.2264404E-02 -0.1884460E-02
  0.1102381E+01  0.4318600E-02 -0.1323700E-02  0.4928725E+05  0.2890286E+05 -0.2574550E-02 -0.1811981E-02
  0.1133333E+01  0.1104018E-02  0.2876282E-02  0.4817861E+05  0.2977121E+05 -0.1763736E-02 -0.2315521E-02
  0.1164286E+01  0.2555613E-02 -0.9803772E-03  0.4708888E+05  0.3057105E+05 -0.1834799E-02 -0.2571106E-02
  0.1195238E+01 -0.2968169E-02  0.5325317E-02  0.4601092E+05  0.3130563E+05 -0.2004312E-02 -0.2410889E-02
  0.1226190E+01 -0.4106540E-02 -0.2010345E-02  0.4496982E+05  0.3196722E+05 -0.1567952E-02 -0.2944946E-02
  0.1257143E+01 -0.2615669E-02  0.7728577E-02  0.4396779E+05  0.3257655E+05 -0.1602173E-02 -0.2090454E-02
  0.1288095E+01  0.1972361E-02 -0.2128601E-02  0.4298487E+05  0.3307075E+05 -0.1847978E-02 -0.2567291E-02
  0.1319048E+01  0.1607957E-02  0.1949310E-02  0.4204034E+05  0.3351842E+05 -0.1561685E-02 -0.2979279E-02
  0.1350000E+01 -0.5515770E-02 -0.1171112E-02  0.4112634E+05  0.3389686E+05 -0.1559787E-02 -0.3112793E-02
  0.1380952E+01 -0.2375636E-02 -0.3437042E-02  0.4024325E+05  0.3420671E+05 -0.1502728E-02 -0.2910614E-02
  0.1411905E+01 -0.7732578E-02  0.3040314E-02  0.3940405E+05  0.3449016E+05 -0.1480591E-02 -0.2986908E-02
  0.1442857E+01  0.1887709E-02 -0.3929138E-03  0.3860302E+05  0.3466859E+05 -0.1152718E-02 -0.3341675E-02
  0.1473810E+01  0.2986926E-02  0.6027222E-03  0.3784165E+05  0.3478146E+05 -0.1304516E-02 -0.2735138E-02
  0.1504762E+01 -0.4061204E-02  0.3242493E-03  0.3711598E+05  0.3483379E+05 -0.1064735E-02 -0.2975464E-02
  0.1535714E+01 -0.5464775E-04 -0.1876831E-02  0.3642762E+05  0.3482686E+05 -0.3378225E-03 -0.3234863E-02
  0.1566667E+01 -0.1821315E-02  0.1037598E-02  0.3577272E+05  0.3476502E+05 -0.8473498E-03 -0.3105164E-02
  0.1597619E+01 -0.1738274E-02  0.1150131E-02  0.3515047E+05  0.3465017E+05 -0.1079258E-02 -0.3562927E-02
  0.1628572E+01 -0.1166494E-02 -0.7444382E-02  0.3457329E+05  0.3448315E+05 -0.5059493E-03 -0.3765106E-02
  0.1659524E+01  0.2887129E-02  0.1640320E-03  0.3403712E+05  0.3426644E+05 -0.1140140E-02 -0.3482819E-02
  0.1690476E+01 -0.1340409E-02 -0.1585007E-02  0.3353862E+05  0.3399975E+05 -0.6769744E-03 -0.3055573E-02
  0.1721429E+01  0.2481928E-03 -0.1317978E-02  0.3306997E+05  0.3369194E+05 -0.1010499E-02 -0.4196167E-02
  0.1752381E+01  0.1998362E-02 -0.2841949E-02  0.3263690E+05  0.3334322E+05 -0.7401342E-03 -0.3177643E-02
  0.1783333E+01 -0.1711266E-03  0.2157211E-02  0.3223595E+05  0.3295818E+05 -0.5133798E-03 -0.2994537E-02
  0.1814286E+01 -0.1089141E-02 -0.1071930E-02  0.3186057E+05  0.3254050E+05 -0.1185860E-02 -0.3917694E-02
  0.1845238E+01 -0.3948581E-02 -0.5418777E-02  0.3151546E+05  0.3208846E+05 -0.7359658E-03 -0.3604889E-02
  0.1876190E+01  0.1720099E-02 -0.2088547E-02  0.3120732E+05  0.3161225E+05 -0.5123700E-03 -0.3669739E-02
  0.1907143E+01 -0.3520380E-03 -0.8449554E-02  0.3093077E+05  0.3111024E+05 -0.5440587E-03 -0.3726959E-02
  0.1938095E+01  0.7125142E-03 -0.1356316E-01  0.3068142E+05  0.3057932E+05 -0.8660394E-04 -0.3356934E-02
  0.1969048E+01 -0.8330524E-03 -0.8188248E-02  0.3045488E+05  0.3003035E+05 -0.7981805E-03 -0.3696442E-02
  0.2000000E+01  0.2372742E-02 -0.7266998E-03  0.3025046E+05  0.2945749E+05 -0.8926392E-03 -0.3833771E-02
Zone t="Motion of body    1 in DoF   3",I=    64,F=POINT
  0.5000000E-01  0.6232697E+03  0.4355083E-04 -0.4692078E-02 -0.1125415E-04  0.9899625E+03  0.1084095E-05
  0.8095238E-01  0.6147047E+03  0.1889964E-03 -0.2890685E-02 -0.1365368E-04  0.9875692E+03  0.3029144E-05
  0.1119048E+00  0.6153450E+03  0.5306026E-03 -0.1956909E-02 -0.1379082E-04  0.9950331E+03  0.1093373E-04
  0.1428571E+00  0.6102579E+03  0.1198026E-02 -0.1862526E-02 -0.1686476E-04  0.9894561E+03  0.2667979E-04
  0.1738095E+00  0.6181157E+03  0.2398337E-02 -0.5090465E-02 -0.5341887E-04  0.9938898E+03  0.4631261E-04
  0.2047619E+00  0.6162043E+03  0.4436960E-02 -0.1922374E-02 -0.1960018E-04  0.9921343E+03  0.9177315E-04
  0.2357143E+00  0.6195431E+03  0.7877486E-02 -0.4820679E-02 -0.8030592E-04  0.9910984E+03  0.1671151E-03
  0.2666667E+00  0.6271872E+03  0.1352796E-01 -0.3587007E-02 -0.6582502E-04  0.9905971E+03  0.2767849E-03
  0.2976190E+00  0.6253251E+03  0.2282938E-01 -0.3111420E-02 -0.8216898E-04  0.9923489E+03  0.4739947E-03
  0.3285715E+00  0.6310494E+03  0.3811987E-01 -0.2610787E-02 -0.8203743E-04  0.9880602E+03  0.7827794E-03
  0.3595238E+00  0.6393164E+03  0.6316876E-01 -0.1461585E-02 -0.6336189E-04  0.9920320E+03  0.1295101E-02
  0.3904762E+00  0.6424153E+03  0.1039559E+00 -0.1879378E-02 -0.6810194E-04  0.9902601E+03  0.2157362E-02
  0.4214286E+00  0.6509195E+03  0.1690238E+00 -0.5063363E-02 -0.2965275E-03  0.9933917E+03  0.3562852E-02
  0.4523810E+00  0.6719890E+03  0.2726921E+00 -0.9001681E-03 -0.7635145E-04  0.9935038E+03  0.5835586E-02
  0.4833333E+00  0.6710833E+03  0.4294738E+00 -0.2030340E-02 -0.2122420E-03  0.9947261E+03  0.9240905E-02
  0.5142857E+00  0.6729890E+03  0.6645458E+00 -0.1520581E-02 -0.1626575E-03  0.9948001E+03  0.1446489E-01
  0.5452381E+00  0.6894651E+03  0.1005903E+01 -0.4477689E-02 -0.5644390E-03  0.9922759E+03  0.2221228E-01
  0.5761905E+00  0.7045164E+03  0.1488718E+01  0.5031617E-03  0.7453584E-04  0.9976191E+03  0.3324764E-01
  0.6071429E+00  0.7163349E+03  0.2161577E+01 -0.1847211E-02 -0.3099539E-03  0.9955536E+03  0.4884462E-01
  0.6380953E+00  0.7152754E+03  0.3072929E+01 -0.1566303E-02 -0.3249114E-03  0.9943632E+03  0.7019566E-01
  0.6690477E+00  0.7283347E+03  0.4294801E+01 -0.1633532E-02 -0.3614901E-03  0.9981543E+03  0.9933764E-01
  0.7000000E+00  0.7512145E+03  0.5915684E+01 -0.2557209E-02 -0.7174090E-03  0.9972311E+03  0.1390280E+00
  0.7309524E+00  0.7724141E+03  0.8033633E+01 -0.2944710E-02 -0.8797199E-03  0.9980659E+03  0.1914884E+00
  0.7619048E+00  0.7817137E+03  0.1077496E+02 -0.1794934E-02 -0.5773753E-03  0.1001086E+04  0.2598415E+00
  0.7928572E+00  0.7901490E+03  0.1426812E+02 -0.1981065E-02 -0.8000210E-03  0.1001253E+04  0.3484308E+00
  0.8238096E+00  0.8092582E+03  0.1868308E+02 -0.3790111E-02 -0.1678742E-02  0.9983972E+03  0.4624862E+00
  0.8547620E+00  0.8309479E+03  0.2423265E+02 -0.5511653E-03 -0.1072139E-03  0.1000774E+04  0.6090351E+00
  0.8857143E+00  0.8536876E+03  0.3112373E+02 -0.3111747E-03 -0.1833141E-03  0.1004717E+04  0.7959867E+00
  0.9166667E+00  0.8820374E+03  0.3961274E+02 -0.3568476E-02 -0.1951240E-02  0.1006735E+04  0.1031370E+01
  0.9476191E+00  0.9073845E+03  0.5001463E+02 -0.3244601E-02 -0.2190880E-02  0.1004359E+04  0.1323125E+01
  0.9785714E+00  0.9221225E+03  0.6272727E+02 -0.3937213E-03 -0.4746020E-04  0.1004847E+04  0.1685889E+01
  0.1009524E+01  0.9399081E+03  0.7797160E+02 -0.9692390E-03 -0.7682145E-03  0.1008985E+04  0.2129324E+01
  0.1040476E+01  0.9658157E+03  0.9606455E+02 -0.3471985E-02 -0.2320170E-02  0.1011283E+04  0.2654212E+01
  0.1071429E+01  0.9980333E+03  0.1174945E+03 -0.9292603E-03 -0.4358292E-03  0.1010166E+04  0.3307387E+01
  0.1102381E+01  0.1028476E+04  0.1427835E+03 -0.2816779E-02 -0.2100319E-02  0.1009626E+04  0.4086039E+01
  0.1133333E+01  0.1060685E+04  0.1725259E+03 -0.1553367E-02 -0.1230657E-02  0.1013083E+04  0.5044840E+01
  0.1164286E+01  0.1091348E+04  0.2071161E+03 -0.1051733E-02 -0.2883971E-03  0.1018606E+04  0.6170571E+01
  0.1195238E+01  0.1117332E+04  0.2471150E+03 -0.2157508E-02 -0.2691925E-02  0.1020364E+04  0.7499610E+01
  0.1226190E+01  0.1140210E+04  0.2931417E+03  0.4122095E-03  0.6467700E-03  0.1020082E+04  0.9072247E+01
  0.1257143E+01  0.1162677E+04  0.3455956E+03 -0.4193566E-02 -0.5453229E-02  0.1018540E+04  0.1084409E+02
  0.1288095E+01  0.1187169E+04  0.4041204E+03 -0.2041956E-02 -0.1990557E-02  0.1018898E+04  0.1287274E+02
  0.1319048E+01  0.1211021E+04  0.4699520E+03 -0.1188616E-02 -0.2369523E-02  0.1023092E+04  0.1523135E+02
  0.1350000E+01  0.1232033E+04  0.5427842E+03 -0.7728294E-03  0.1061440E-02  0.1027703E+04  0.1798993E+02
  0.1380952E+01  0.1251355E+04  0.6231462E+03 -0.1926751E-02 -0.2155542E-02  0.1029527E+04  0.2106343E+02
  0.1411905E+01  0.1194618E+04  0.6829915E+03 -0.2084446E-02 -0.4055738E-02  0.1024016E+04  0.2349859E+02
  0.1442857E+01  0.1211593E+04  0.7750613E+03 -0.1721146E-02 -0.2221823E-02  0.1023334E+04  0.2696932E+02
  0.1473810E+01  0.1220936E+04  0.8739905E+03 -0.6690819E-03 -0.1985669E-02  0.1023314E+04  0.3100161E+02
  0.1504762E+01  0.1227000E+04  0.9798377E+03 -0.2296786E-02 -0.6018877E-02  0.1025237E+04  0.3528323E+02
  0.1535714E+01  0.1226182E+04  0.1091657E+04  0.6359011E-03  0.3057599E-02  0.1029478E+04  0.4042505E+02
  0.1566667E+01  0.1221117E+04  0.1209064E+04 -0.7609103E-03 -0.3476143E-02  0.1031764E+04  0.4579439E+02
  0.1597619E+01  0.1212300E+04  0.1330648E+04 -0.1006432E-02 -0.2262115E-02  0.1033319E+04  0.5156770E+02
  0.1628572E+01  0.1201206E+04  0.1455174E+04 -0.1017754E-02 -0.1592636E-02  0.1033339E+04  0.5737938E+02
  0.1659524E+01  0.1186907E+04  0.1582791E+04 -0.4712273E-03 -0.2180815E-02  0.1030283E+04  0.6293729E+02
  0.1690476E+01  0.1165918E+04  0.1711850E+04 -0.1323485E-02 -0.6000996E-02  0.1028091E+04  0.6867255E+02
  0.1721429E+01  0.1141453E+04  0.1843327E+04 -0.2046482E-02 -0.4968166E-02  0.1027650E+04  0.7550240E+02
  0.1752381E+01  0.1111957E+04  0.1977475E+04 -0.7455764E-03 -0.2568007E-02  0.1030282E+04  0.8293990E+02
  0.1783333E+01  0.1078093E+04  0.2107686E+04 -0.6556288E-03 -0.1705170E-02  0.1034910E+04  0.9147157E+02
  0.1814286E+01  0.1042120E+04  0.2236584E+04 -0.6928031E-03 -0.1322269E-02  0.1036461E+04  0.9970890E+02
  0.1845238E+01  0.1004618E+04  0.2360876E+04 -0.1821309E-02 -0.8231640E-02  0.1037693E+04  0.1075810E+03
  0.1876190E+01  0.9635817E+03  0.2482762E+04 -0.9586606E-03 -0.4045486E-02  0.1036482E+04  0.1149999E+03
  0.1907143E+01  0.9202166E+03  0.2602569E+04 -0.4960535E-03 -0.3502607E-02  0.1031111E+04  0.1205886E+03
  0.1938095E+01  0.8740917E+03  0.2716572E+04 -0.1180963E-03 -0.3258228E-02  0.1026759E+04  0.1267553E+03
  0.1969048E+01  0.8247428E+03  0.2828366E+04 -0.1046159E-02 -0.1150608E-02  0.1024109E+04  0.1332391E+03
  0.2000000E+01  0.7772718E+03  0.2936626E+04 -0.4291534E-03 -0.7246494E-02  0.1023360E+04  0.1414546E+03
