VARIABLES="w (rad/s)"
"abs(F   1   1)" "angle(F   1   1)"
"abs(F   1   2)" "angle(F   1   2)"
"abs(F   1   3)" "angle(F   1   3)"
Zone t="Diffraction force - beta =   0.000 deg",I=    64,F=POINT
  0.5000000E-01  0.2681001E+04 -0.1570798E+01  0.4808838E+06 -0.3238898E-04  0.1737044E+04 -0.1570818E+01
  0.8095238E-01  0.4368846E+04 -0.1570793E+01  0.4798161E+06 -0.8709511E-04  0.2817198E+04 -0.1570780E+01
  0.1119048E+00  0.6093986E+04 -0.1570793E+01  0.4782494E+06 -0.1728433E-03  0.3924862E+04 -0.1570790E+01
  0.1428571E+00  0.7878315E+04 -0.1570792E+01  0.4761854E+06 -0.2961178E-03  0.5056311E+04 -0.1570783E+01
  0.1738095E+00  0.9761837E+04 -0.1570787E+01  0.4736205E+06 -0.4666769E-03  0.6205334E+04 -0.1570787E+01
  0.2047619E+00  0.1172478E+05 -0.1570781E+01  0.4705458E+06 -0.6986324E-03  0.7422864E+04 -0.1570783E+01
  0.2357143E+00  0.1383614E+05 -0.1570774E+01  0.4669656E+06 -0.1012836E-02  0.8667729E+04 -0.1570774E+01
  0.2666667E+00  0.1610493E+05 -0.1570763E+01  0.4628749E+06 -0.1434245E-02  0.1000100E+05 -0.1570761E+01
  0.2976190E+00  0.1854754E+05 -0.1570747E+01  0.4582660E+06 -0.2005856E-02  0.1142414E+05 -0.1570747E+01
  0.3285715E+00  0.2125096E+05 -0.1570722E+01  0.4531508E+06 -0.2770305E-02  0.1292378E+05 -0.1570725E+01
  0.3595238E+00  0.2424450E+05 -0.1570686E+01  0.4475323E+06 -0.3796275E-02  0.1453025E+05 -0.1570684E+01
  0.3904762E+00  0.2752647E+05 -0.1570631E+01  0.4414119E+06 -0.5159216E-02  0.1630502E+05 -0.1570631E+01
  0.4214286E+00  0.3113605E+05 -0.1570550E+01  0.4348702E+06 -0.6905696E-02  0.1819748E+05 -0.1570549E+01
  0.4523810E+00  0.3519151E+05 -0.1570432E+01  0.4278509E+06 -0.9168055E-02  0.2016725E+05 -0.1570432E+01
  0.4833333E+00  0.3964034E+05 -0.1570267E+01  0.4205250E+06 -0.1187852E-01  0.2228917E+05 -0.1570269E+01
  0.5142857E+00  0.4437886E+05 -0.1570038E+01  0.4127940E+06 -0.1519109E-01  0.2454810E+05 -0.1570041E+01
  0.5452381E+00  0.4946250E+05 -0.1569731E+01  0.4048220E+06 -0.1905233E-01  0.2688985E+05 -0.1569733E+01
  0.5761905E+00  0.5500589E+05 -0.1569332E+01  0.3965536E+06 -0.2346485E-01  0.2910473E+05 -0.1569334E+01
  0.6071429E+00  0.6080154E+05 -0.1568815E+01  0.3880058E+06 -0.2855577E-01  0.3141811E+05 -0.1568819E+01
  0.6380953E+00  0.6686959E+05 -0.1568168E+01  0.3793193E+06 -0.3418420E-01  0.3375441E+05 -0.1568177E+01
  0.6690477E+00  0.7306446E+05 -0.1567361E+01  0.3703874E+06 -0.4048116E-01  0.3604926E+05 -0.1567379E+01
  0.7000000E+00  0.7958839E+05 -0.1566371E+01  0.3612644E+06 -0.4750751E-01  0.3813207E+05 -0.1566388E+01
  0.7309524E+00  0.8649088E+05 -0.1565177E+01  0.3521227E+06 -0.5520144E-01  0.4015816E+05 -0.1565198E+01
  0.7619048E+00  0.9353471E+05 -0.1563743E+01  0.3428218E+06 -0.6362747E-01  0.4202437E+05 -0.1563783E+01
  0.7928572E+00  0.1006710E+06 -0.1562035E+01  0.3333881E+06 -0.7279138E-01  0.4381936E+05 -0.1562110E+01
  0.8238096E+00  0.1079313E+06 -0.1560025E+01  0.3239914E+06 -0.8274634E-01  0.4552387E+05 -0.1560153E+01
  0.8547620E+00  0.1153554E+06 -0.1557692E+01  0.3146099E+06 -0.9348875E-01  0.4699244E+05 -0.1557873E+01
  0.8857143E+00  0.1230336E+06 -0.1555030E+01  0.3051858E+06 -0.1050070E+00  0.4804238E+05 -0.1555186E+01
  0.9166667E+00  0.1308343E+06 -0.1551990E+01  0.2956734E+06 -0.1172668E+00  0.4890538E+05 -0.1552197E+01
  0.9476191E+00  0.1387056E+06 -0.1548546E+01  0.2863468E+06 -0.1303432E+00  0.4962560E+05 -0.1548871E+01
  0.9785714E+00  0.1466192E+06 -0.1544672E+01  0.2771652E+06 -0.1442148E+00  0.5012189E+05 -0.1545237E+01
  0.1009524E+01  0.1544022E+06 -0.1540348E+01  0.2680008E+06 -0.1588731E+00  0.5029707E+05 -0.1541275E+01
  0.1040476E+01  0.1620314E+06 -0.1535567E+01  0.2588613E+06 -0.1742895E+00  0.5022773E+05 -0.1536981E+01
  0.1071429E+01  0.1695018E+06 -0.1530360E+01  0.2497542E+06 -0.1904424E+00  0.4978722E+05 -0.1532294E+01
  0.1102381E+01  0.1770331E+06 -0.1524855E+01  0.2410242E+06 -0.2074154E+00  0.4915715E+05 -0.1526973E+01
  0.1133333E+01  0.1845126E+06 -0.1519026E+01  0.2324145E+06 -0.2251243E+00  0.4801748E+05 -0.1521484E+01
  0.1164286E+01  0.1915852E+06 -0.1512830E+01  0.2238884E+06 -0.2435558E+00  0.4659132E+05 -0.1516155E+01
  0.1195238E+01  0.1982614E+06 -0.1506328E+01  0.2154479E+06 -0.2626475E+00  0.4487698E+05 -0.1511056E+01
  0.1226190E+01  0.2044795E+06 -0.1499610E+01  0.2070840E+06 -0.2823771E+00  0.4278349E+05 -0.1506313E+01
  0.1257143E+01  0.2102298E+06 -0.1492866E+01  0.1990465E+06 -0.3029893E+00  0.4060912E+05 -0.1501470E+01
  0.1288095E+01  0.2157070E+06 -0.1486440E+01  0.1912790E+06 -0.3237591E+00  0.3823518E+05 -0.1496200E+01
  0.1319048E+01  0.2205649E+06 -0.1480087E+01  0.1836063E+06 -0.3455253E+00  0.3532344E+05 -0.1493197E+01
  0.1350000E+01  0.2246783E+06 -0.1474046E+01  0.1760547E+06 -0.3677936E+00  0.3228103E+05 -0.1491498E+01
  0.1380952E+01  0.2280907E+06 -0.1468460E+01  0.1685953E+06 -0.3905071E+00  0.2902345E+05 -0.1492514E+01
  0.1411905E+01  0.2305440E+06 -0.1463422E+01  0.1612502E+06 -0.4137044E+00  0.2569210E+05 -0.1495576E+01
  0.1442857E+01  0.2325649E+06 -0.1459636E+01  0.1541566E+06 -0.4372717E+00  0.2222588E+05 -0.1499374E+01
  0.1473810E+01  0.2338525E+06 -0.1456908E+01  0.1473839E+06 -0.4610727E+00  0.1906662E+05 -0.1509190E+01
  0.1504762E+01  0.2344060E+06 -0.1455399E+01  0.1407017E+06 -0.4854458E+00  0.1572210E+05 -0.1526854E+01
  0.1535714E+01  0.2341756E+06 -0.1455315E+01  0.1341048E+06 -0.5103354E+00  0.1225417E+05 -0.1558857E+01
  0.1566667E+01  0.2332282E+06 -0.1456985E+01  0.1276064E+06 -0.5353484E+00  0.8848699E+04 -0.1611725E+01
  0.1597619E+01  0.2315322E+06 -0.1460438E+01  0.1211618E+06 -0.5607439E+00  0.5653679E+04 -0.1720656E+01
  0.1628572E+01  0.2291254E+06 -0.1465779E+01  0.1147682E+06 -0.5867420E+00  0.2739666E+04 -0.2076796E+01
  0.1659524E+01  0.2261179E+06 -0.1473357E+01  0.1085368E+06 -0.6132153E+00  0.1769616E+04  0.2832089E+01
  0.1690476E+01  0.2226177E+06 -0.1483537E+01  0.1025750E+06 -0.6395065E+00  0.3323550E+04  0.2125126E+01
  0.1721429E+01  0.2185848E+06 -0.1496238E+01  0.9668277E+05 -0.6662690E+00  0.5065077E+04  0.1902872E+01
  0.1752381E+01  0.2141526E+06 -0.1511400E+01  0.9084041E+05 -0.6947345E+00  0.7117853E+04  0.1795779E+01
  0.1783333E+01  0.2092112E+06 -0.1529431E+01  0.8505120E+05 -0.7247517E+00  0.8813933E+04  0.1717469E+01
  0.1814286E+01  0.2039282E+06 -0.1550407E+01  0.7933697E+05 -0.7569062E+00  0.1029976E+05  0.1646005E+01
  0.1845238E+01  0.1982906E+06 -0.1574569E+01  0.7373906E+05 -0.7919559E+00  0.1147824E+05  0.1574866E+01
  0.1876190E+01  0.1923830E+06 -0.1602077E+01  0.6828036E+05 -0.8304175E+00  0.1248667E+05  0.1497898E+01
  0.1907143E+01  0.1863205E+06 -0.1633280E+01  0.6302964E+05 -0.8732438E+00  0.1336555E+05  0.1410075E+01
  0.1938095E+01  0.1801927E+06 -0.1668850E+01  0.5814461E+05 -0.9189669E+00  0.1354833E+05  0.1277524E+01
  0.1969048E+01  0.1739948E+06 -0.1708844E+01  0.5356921E+05 -0.9692494E+00  0.1369506E+05  0.1116040E+01
  0.2000000E+01  0.1678464E+06 -0.1753399E+01  0.4929918E+05 -0.1025151E+01  0.1415224E+05  0.9367334E+00
