VARIABLES="w (rad/s)"
"A   1   1" "B   1   1"
"A   1   2" "B   1   2"
"A   1   3" "B   1   3"
Zone t="Motion of body    1 in DoF   1",I=    64,F=POINT
  0.5000000E-01  0.2336908E+06  0.5770804E-01  0.6103516E-02  0.3490242E-04 -0.4148777E+06 -0.7615604E-01
  0.8095238E-01  0.2350340E+06  0.2547708E+00  0.2139372E-01  0.9967876E-04 -0.4170636E+06 -0.3360018E+00
  0.1119048E+00  0.2360273E+06  0.7150494E+00  0.3954299E-02  0.5067419E-04 -0.4182550E+06 -0.9439969E+00
  0.1428571E+00  0.2363156E+06  0.1610118E+01  0.2696991E-01  0.4614787E-03 -0.4188902E+06 -0.2128729E+01
  0.1738095E+00  0.2373706E+06  0.3207571E+01 -0.9832513E-02 -0.2038721E-03 -0.4204962E+06 -0.4245735E+01
  0.2047619E+00  0.2375649E+06  0.5914374E+01  0.1781020E-01  0.3527552E-03 -0.4211034E+06 -0.7843393E+01
  0.2357143E+00  0.2388584E+06  0.1042653E+02  0.2116810E-01  0.4282594E-03 -0.4224257E+06 -0.1384112E+02
  0.2666667E+00  0.2398380E+06  0.1779352E+02  0.2975464E-02  0.1490116E-07 -0.4240234E+06 -0.2367557E+02
  0.2976190E+00  0.2404521E+06  0.2983051E+02  0.2358398E-01  0.8155107E-03 -0.4248458E+06 -0.3977682E+02
  0.3285715E+00  0.2423913E+06  0.4943885E+02  0.2786387E-01  0.1652777E-02 -0.4277677E+06 -0.6610724E+02
  0.3595238E+00  0.2437006E+06  0.8121620E+02 -0.6366249E-02  0.4231930E-05 -0.4295209E+06 -0.1088779E+03
  0.3904762E+00  0.2450492E+06  0.1324402E+03 -0.4845595E-02 -0.2905130E-03 -0.4318641E+06 -0.1781591E+03
  0.4214286E+00  0.2469676E+06  0.2132739E+03 -0.1397601E-01 -0.2930164E-03 -0.4346489E+06 -0.2878156E+03
  0.4523810E+00  0.2497796E+06  0.3409913E+03  0.6813450E-02  0.2634525E-03 -0.4385199E+06 -0.4615866E+03
  0.4833333E+00  0.2516985E+06  0.5308110E+03  0.9786671E-02  0.2072811E-02 -0.4414372E+06 -0.7212162E+03
  0.5142857E+00  0.2537926E+06  0.8127452E+03  0.1863268E-01  0.1680851E-02 -0.4441829E+06 -0.1107743E+04
  0.5452381E+00  0.2572553E+06  0.1217263E+04 -0.3380655E-01 -0.8446693E-02 -0.4495587E+06 -0.1665844E+04
  0.5761905E+00  0.2605371E+06  0.1779622E+04 -0.8368373E-02 -0.2107620E-02 -0.4543409E+06 -0.2445141E+04
  0.6071429E+00  0.2642547E+06  0.2555195E+04 -0.9550205E-02 -0.1918793E-02 -0.4596538E+06 -0.3524132E+04
  0.6380953E+00  0.2673424E+06  0.3582446E+04  0.2094781E-01  0.5598068E-02 -0.4644003E+06 -0.4961497E+04
  0.6690477E+00  0.2710621E+06  0.4938274E+04 -0.1788048E-01 -0.1071167E-01 -0.4700818E+06 -0.6868072E+04
  0.7000000E+00  0.2762785E+06  0.6718479E+04  0.1656668E-02  0.1678467E-03 -0.4773109E+06 -0.9375719E+04
  0.7309524E+00  0.2810384E+06  0.8990903E+04  0.2338024E-02  0.3974915E-02 -0.4844492E+06 -0.1260045E+05
  0.7619048E+00  0.2855900E+06  0.1186518E+05  0.2491379E-01  0.1767731E-01 -0.4915765E+06 -0.1670842E+05
  0.7928572E+00  0.2902743E+06  0.1545776E+05  0.7005296E-02  0.1831055E-03 -0.4978857E+06 -0.2183820E+05
  0.8238096E+00  0.2953480E+06  0.1990193E+05  0.1718863E-01  0.4043579E-02 -0.5064386E+06 -0.2826073E+05
  0.8547620E+00  0.3006099E+06  0.2531839E+05  0.3855926E-02  0.4119873E-03 -0.5139830E+06 -0.3606562E+05
  0.8857143E+00  0.3059825E+06  0.3188005E+05  0.5650674E-02 -0.2532959E-02 -0.5222470E+06 -0.4560534E+05
  0.9166667E+00  0.3111754E+06  0.3972343E+05  0.2397017E-02 -0.3356934E-03 -0.5292722E+06 -0.5699096E+05
  0.9476191E+00  0.3160438E+06  0.4900314E+05  0.2189904E-02 -0.1678467E-02 -0.5375814E+06 -0.7066261E+05
  0.9785714E+00  0.3196676E+06  0.5975053E+05  0.4366018E-02  0.1464844E-02 -0.5432268E+06 -0.8649994E+05
  0.1009524E+01  0.3224260E+06  0.7207528E+05 -0.2418374E-02  0.4302979E-02 -0.5481810E+06 -0.1048144E+06
  0.1040476E+01  0.3242621E+06  0.8597923E+05 -0.5631436E-02 -0.5310059E-02 -0.5510089E+06 -0.1254346E+06
  0.1071429E+01  0.3258021E+06  0.1015125E+06  0.2620443E-02  0.2056885E-01 -0.5531975E+06 -0.1484313E+06
  0.1102381E+01  0.3259645E+06  0.1186023E+06 -0.4540066E-02 -0.2001953E-01 -0.5541461E+06 -0.1740265E+06
  0.1133333E+01  0.3241804E+06  0.1369715E+06  0.1001695E-01  0.2929688E-01 -0.5516316E+06 -0.2015816E+06
  0.1164286E+01  0.3206713E+06  0.1564442E+06 -0.3145370E-03 -0.2136230E-02 -0.5470341E+06 -0.2310758E+06
  0.1195238E+01  0.3154083E+06  0.1766274E+06 -0.2757525E-02 -0.1104736E-01 -0.5392341E+06 -0.2615808E+06
  0.1226190E+01  0.3088164E+06  0.1971619E+06 -0.5475387E-02 -0.9765625E-02 -0.5288984E+06 -0.2923848E+06
  0.1257143E+01  0.3008472E+06  0.2178481E+06  0.1029275E-01  0.1843262E-01 -0.5177161E+06 -0.3239892E+06
  0.1288095E+01  0.2911776E+06  0.2379130E+06  0.6349461E-02  0.4638672E-02 -0.5034019E+06 -0.3546962E+06
  0.1319048E+01  0.2797644E+06  0.2569465E+06  0.3239050E-02  0.5859375E-02 -0.4860282E+06 -0.3838101E+06
  0.1350000E+01  0.2673380E+06  0.2747559E+06  0.1627604E-02 -0.7690430E-02 -0.4674650E+06 -0.4114183E+06
  0.1380952E+01  0.2543965E+06  0.2909635E+06 -0.4154600E-02  0.2478027E-01 -0.4473928E+06 -0.4359327E+06
  0.1411905E+01  0.2405172E+06  0.3052096E+06  0.1093692E-01  0.1306152E-01 -0.4259709E+06 -0.4573810E+06
  0.1442857E+01  0.2273182E+06  0.3182175E+06 -0.1277508E-01 -0.8422852E-02 -0.4063845E+06 -0.4779848E+06
  0.1473810E+01  0.2136231E+06  0.3288404E+06  0.2236312E-02 -0.0000000E+00 -0.3855656E+06 -0.4945718E+06
  0.1504762E+01  0.2001871E+06  0.3373796E+06 -0.2170032E-02  0.9887695E-02 -0.3646639E+06 -0.5074321E+06
  0.1535714E+01  0.1871832E+06  0.3441812E+06  0.2603220E-02  0.2758789E-01 -0.3446462E+06 -0.5180876E+06
  0.1566667E+01  0.1747342E+06  0.3492446E+06  0.4402323E-02 -0.1464844E-02 -0.3254992E+06 -0.5263642E+06
  0.1597619E+01  0.1629847E+06  0.3525380E+06  0.3686669E-02  0.7568359E-02 -0.3068283E+06 -0.5304224E+06
  0.1628572E+01  0.1521799E+06  0.3546228E+06  0.1873886E-03  0.7690430E-02 -0.2896753E+06 -0.5323389E+06
  0.1659524E+01  0.1422392E+06  0.3559659E+06  0.5958152E-02  0.1342773E-02 -0.2745845E+06 -0.5346216E+06
  0.1690476E+01  0.1326551E+06  0.3557188E+06  0.6029585E-02  0.4394531E-02 -0.2598337E+06 -0.5342609E+06
  0.1721429E+01  0.1238145E+06  0.3543287E+06  0.1050387E-01  0.3234863E-02 -0.2460285E+06 -0.5315811E+06
  0.1752381E+01  0.1156004E+06  0.3519699E+06  0.2829925E-02  0.4760742E-02 -0.2329867E+06 -0.5269208E+06
  0.1783333E+01  0.1080203E+06  0.3492763E+06  0.7165927E-02  0.6591797E-02 -0.2211477E+06 -0.5224584E+06
  0.1814286E+01  0.1010718E+06  0.3460757E+06 -0.3511324E-02  0.8544922E-02 -0.2102608E+06 -0.5172348E+06
  0.1845238E+01  0.9480860E+05  0.3422689E+06  0.6698116E-02 -0.5798340E-02 -0.2003751E+06 -0.5093716E+06
  0.1876190E+01  0.8915693E+05  0.3381413E+06  0.1065404E-01 -0.1110840E-01 -0.1915223E+06 -0.5008452E+06
  0.1907143E+01  0.8393767E+05  0.3340459E+06  0.1944210E-02  0.2258301E-02 -0.1835605E+06 -0.4939576E+06
  0.1938095E+01  0.7900496E+05  0.3296245E+06  0.7321970E-02  0.4089355E-02 -0.1760955E+06 -0.4868234E+06
  0.1969048E+01  0.7430390E+05  0.3244482E+06  0.6598550E-02 -0.9826660E-02 -0.1688926E+06 -0.4776329E+06
  0.2000000E+01  0.6992226E+05  0.3187157E+06  0.9231567E-03  0.1470947E-01 -0.1621279E+06 -0.4670922E+06
Zone t="Motion of body    1 in DoF   2",I=    64,F=POINT
  0.5000000E-01  0.3814697E-02  0.2002716E-04  0.2803219E+06  0.7326230E+03  0.4272461E-01  0.1258850E-03
  0.8095238E-01  0.6974164E-02 -0.1907349E-05  0.2768391E+06  0.1211198E+04 -0.1206342E-01  0.3890991E-03
  0.1119048E+00  0.4090654E-03  0.3623962E-04  0.2744268E+06  0.1726962E+04 -0.3272523E-02  0.2059937E-03
  0.1428571E+00  0.2563477E-02  0.3395081E-03  0.2731536E+06  0.2297275E+04 -0.4272461E-02  0.1068115E-03
  0.1738095E+00 -0.1246622E-01 -0.1487732E-03  0.2724701E+06  0.2941673E+04  0.1123716E-01 -0.4425049E-03
  0.2047619E+00  0.9538517E-02  0.1754761E-03  0.2717248E+06  0.3688730E+04 -0.2384629E-01  0.1983643E-03
  0.2357143E+00 -0.1592463E-01  0.8392334E-04  0.2718180E+06  0.4572703E+04  0.4453716E-01  0.1007080E-02
  0.2666667E+00  0.2746582E-02 -0.1068115E-03  0.2716408E+06  0.5618121E+04  0.4669189E-01  0.1556396E-02
  0.2976190E+00 -0.1845703E-02 -0.3967285E-03  0.2719644E+06  0.6896377E+04 -0.9023437E-02  0.4272461E-03
  0.3285715E+00  0.6687329E-02  0.2136230E-03  0.2719468E+06  0.8425977E+04  0.5498471E-01 -0.1647949E-02
  0.3595238E+00 -0.4413933E-02 -0.4882812E-03  0.2722011E+06  0.1028201E+05  0.2716266E-01  0.1831055E-03
  0.3904762E+00 -0.6096072E-02  0.8850098E-03  0.2716648E+06  0.1250217E+05 -0.4501715E-01  0.4882812E-03
  0.4214286E+00  0.1361394E-01 -0.1373291E-02  0.2713355E+06  0.1501894E+05 -0.6604210E-01 -0.2990723E-02
  0.4523810E+00 -0.1214278E-02  0.1190186E-02  0.2694315E+06  0.1798715E+05  0.4749177E-01  0.5981445E-02
  0.4833333E+00  0.2525593E-02  0.8544922E-03  0.2676216E+06  0.2102314E+05 -0.5051185E-02 -0.5004883E-02
  0.5142857E+00  0.7239448E-02  0.4272461E-03  0.2646668E+06  0.2433596E+05  0.9494358E-03  0.1220703E-02
  0.5452381E+00  0.1119422E-02  0.1892090E-02  0.2613575E+06  0.2765892E+05 -0.2686613E-02  0.4882812E-03
  0.5761905E+00 -0.2775334E-01  0.1159668E-02  0.2583468E+06  0.3086385E+05  0.8813274E-01  0.5859375E-02
  0.6071429E+00  0.2814797E-02  0.1708984E-02  0.2536138E+06  0.3414840E+05  0.2010570E-01  0.1293945E-01
  0.6380953E+00 -0.3921736E-02  0.1831055E-03  0.2496552E+06  0.3708734E+05 -0.2831302E-01 -0.7812500E-02
  0.6690477E+00 -0.5929750E-02  0.3051758E-03  0.2459181E+06  0.3984705E+05  0.5546597E-01  0.7324219E-03
  0.7000000E+00 -0.3226144E-02  0.2258301E-02  0.2409194E+06  0.4252708E+05  0.3417968E-01  0.1708984E-02
  0.7309524E+00 -0.1002010E-01 -0.0000000E+00  0.2366565E+06  0.4484993E+05  0.4008041E-01 -0.8300781E-02
  0.7619048E+00  0.1409912E-01  0.1831055E-02  0.2331440E+06  0.4685496E+05  0.8972167E-02 -0.1123047E-01
  0.7928572E+00  0.1963022E-01  0.6347656E-02  0.2283146E+06  0.4863894E+05 -0.4926801E-01 -0.1342773E-01
  0.8238096E+00  0.4741691E-02  0.8422852E-02  0.2240333E+06  0.5014223E+05 -0.1363236E-01  0.1660156E-01
  0.8547620E+00  0.2999053E-02  0.1184082E-01  0.2203500E+06  0.5127864E+05  0.6283730E-02  0.1708984E-02
  0.8857143E+00  0.5719585E-02  0.1098633E-02  0.2172481E+06  0.5207122E+05  0.1543599E-01  0.1000977E-01
  0.9166667E+00 -0.1065341E-02  0.4882812E-03  0.2131805E+06  0.5255972E+05 -0.3302557E-01 -0.7324219E-03
  0.9476191E+00 -0.5603579E-02 -0.6469727E-02  0.2097011E+06  0.5278548E+05  0.1597342E-01 -0.3173828E-02
  0.9785714E+00  0.1871151E-03 -0.8422852E-02  0.2067309E+06  0.5264304E+05 -0.1796305E-01 -0.5615234E-02
  0.1009524E+01  0.8615458E-02  0.6103516E-03  0.2046037E+06  0.5220759E+05  0.1112452E-01  0.1562500E-01
  0.1040476E+01 -0.1554511E-02  0.9765625E-03  0.2019087E+06  0.5143954E+05 -0.1877145E-02 -0.1171875E-01
  0.1071429E+01 -0.9997559E-02 -0.8056641E-02  0.1992018E+06  0.5044820E+05  0.0000000E+00  0.5371094E-01
  0.1102381E+01 -0.4027925E-02  0.4150391E-02  0.1971522E+06  0.4931702E+05  0.3587760E-01  0.2929688E-02
  0.1133333E+01  0.7391537E-02 -0.5859375E-02  0.1955536E+06  0.4792494E+05  0.5600873E-02 -0.1000977E-01
  0.1164286E+01 -0.2624418E-02  0.8178711E-02  0.1947272E+06  0.4645148E+05 -0.7548888E-02 -0.3662109E-02
  0.1195238E+01 -0.3159663E-03 -0.6835938E-02  0.1934815E+06  0.4463882E+05  0.1062158E-01 -0.2685547E-02
  0.1226190E+01  0.7049561E-02  0.6469727E-02  0.1919689E+06  0.4254647E+05  0.3982100E-02 -0.1147461E-01
  0.1257143E+01 -0.2245469E-02 -0.4394531E-02  0.1910342E+06  0.4066355E+05  0.7768110E-03  0.4516602E-01
  0.1288095E+01 -0.4501484E-02  0.1953125E-02  0.1904754E+06  0.3862284E+05  0.1364660E-01 -0.4882812E-02
  0.1319048E+01 -0.1281738E-01 -0.9765625E-02  0.1903374E+06  0.3663976E+05 -0.1480708E-02  0.1391602E-01
  0.1350000E+01  0.5154080E-02  0.8300781E-02  0.1906978E+06  0.3484127E+05 -0.5787037E-02 -0.1733398E-01
  0.1380952E+01 -0.6033009E-02 -0.5126953E-02  0.1905213E+06  0.3254213E+05  0.3040814E-01  0.9033203E-02
  0.1411905E+01  0.1383326E-02  0.3784180E-02  0.1901914E+06  0.3001404E+05  0.8299958E-02 -0.4882812E-03
  0.1442857E+01  0.5753017E-02  0.2441406E-01  0.1902472E+06  0.2791288E+05  0.3790223E-01 -0.3820801E-01
  0.1473810E+01 -0.6211979E-03  0.1281738E-01  0.1905301E+06  0.2590748E+05  0.8613943E-02  0.1525879E-01
  0.1504762E+01 -0.2677048E-02  0.6347656E-02  0.1910311E+06  0.2400071E+05  0.9085740E-02 -0.3625488E-01
  0.1535714E+01  0.3974382E-04  0.7568359E-02  0.1917361E+06  0.2246689E+05 -0.5723110E-02 -0.7202148E-02
  0.1566667E+01  0.5454205E-03 -0.1293945E-01  0.1926072E+06  0.2114099E+05 -0.2493351E-02  0.3173828E-01
  0.1597619E+01 -0.9550956E-03  0.1049805E-01  0.1930246E+06  0.1898513E+05  0.1405901E-01 -0.4394531E-02
  0.1628572E+01 -0.5246882E-03  0.3051758E-02  0.1935106E+06  0.1688353E+05  0.7195723E-02  0.1403809E-01
  0.1659524E+01  0.3788208E-02  0.4150391E-02  0.1940930E+06  0.1535597E+05  0.2942297E-02 -0.8789062E-02
  0.1690476E+01  0.5054742E-03 -0.4760742E-02  0.1947404E+06  0.1399413E+05 -0.9242957E-02  0.1330566E-01
  0.1721429E+01 -0.2978313E-02 -0.9399414E-02  0.1954529E+06  0.1273955E+05  0.1077866E-01  0.2575684E-01
  0.1752381E+01  0.1811152E-02 -0.5615234E-02  0.1962035E+06  0.1166747E+05 -0.4458220E-02  0.1739502E-01
  0.1783333E+01 -0.4586193E-02 -0.1684570E-01  0.1969405E+06  0.1077638E+05  0.0000000E+00  0.2209473E-01
  0.1814286E+01 -0.3364143E-03  0.7019043E-02  0.1976705E+06  0.9852842E+04  0.2260704E-01 -0.8544922E-02
  0.1845238E+01  0.2976940E-02  0.5249023E-02  0.1983020E+06  0.8617065E+04 -0.6350806E-02 -0.8239746E-02
  0.1876190E+01 -0.2992891E-02 -0.6103516E-03  0.1989223E+06  0.7533068E+04  0.1405358E-01  0.6683350E-02
  0.1907143E+01 -0.2560276E-03 -0.4760742E-02  0.1995071E+06  0.6915369E+04 -0.5120553E-03  0.1733398E-01
  0.1938095E+01 -0.1385663E-02 -0.5615234E-02  0.2000431E+06  0.6403312E+04  0.9069795E-02  0.2352905E-01
  0.1969048E+01 -0.1549865E-02 -0.6103516E-02  0.2005871E+06  0.5914268E+04  0.3025336E-01  0.1214600E-01
  0.2000000E+01  0.1403809E-02  0.1770020E-02  0.2011142E+06  0.5421780E+04 -0.9765625E-02 -0.4425049E-02
Zone t="Motion of body    1 in DoF   3",I=    64,F=POINT
  0.5000000E-01 -0.4117952E+06 -0.7423041E-01  0.6072998E-01  0.2430980E-03  0.1453114E+07  0.9875192E-01
  0.8095238E-01 -0.4138280E+06 -0.3282951E+00 -0.4618027E-01 -0.2653387E-03  0.1459220E+07  0.4322920E+00
  0.1119048E+00 -0.4152822E+06 -0.9222896E+00 -0.4908785E-02 -0.2549468E-03  0.1459214E+07  0.1217944E+01
  0.1428571E+00 -0.4158215E+06 -0.2078558E+01 -0.9997558E-01 -0.1426561E-02  0.1460706E+07  0.2748752E+01
  0.1738095E+00 -0.4173977E+06 -0.4146258E+01 -0.5934624E-01 -0.4270636E-03  0.1464835E+07  0.5489109E+01
  0.2047619E+00 -0.4181522E+06 -0.7657676E+01 -0.3934639E-01 -0.1193114E-02  0.1464503E+07  0.1015498E+02
  0.2357143E+00 -0.4193514E+06 -0.1352385E+02 -0.7612748E-01 -0.2127498E-02  0.1466199E+07  0.1795706E+02
  0.2666667E+00 -0.4210852E+06 -0.2312824E+02  0.3547668E-01  0.4538298E-03  0.1468172E+07  0.3077965E+02
  0.2976190E+00 -0.4216611E+06 -0.3886540E+02 -0.2522461E-01 -0.1557529E-02  0.1469490E+07  0.5183037E+02
  0.3285715E+00 -0.4248749E+06 -0.6459576E+02  0.5034073E-01  0.3495812E-02  0.1473541E+07  0.8638267E+02
  0.3595238E+00 -0.4262803E+06 -0.1064219E+03  0.6637876E-01 -0.3159046E-05  0.1476988E+07  0.1426596E+03
  0.3904762E+00 -0.4288448E+06 -0.1740642E+03 -0.2360274E-01 -0.2543330E-02  0.1479764E+07  0.2341547E+03
  0.4214286E+00 -0.4312247E+06 -0.2812908E+03 -0.2375198E-01 -0.4391193E-02  0.1486339E+07  0.3795745E+03
  0.4523810E+00 -0.4355639E+06 -0.4512679E+03  0.4614257E-01  0.9305716E-02  0.1488758E+07  0.6108365E+03
  0.4833333E+00 -0.4380741E+06 -0.7050979E+03 -0.3838901E-01 -0.4206181E-02  0.1494653E+07  0.9580474E+03
  0.5142857E+00 -0.4407392E+06 -0.1083483E+04 -0.3038195E-01 -0.1510620E-02  0.1496161E+07  0.1476753E+04
  0.5452381E+00 -0.4463881E+06 -0.1628940E+04 -0.1858241E-01 -0.3943443E-02  0.1504666E+07  0.2229028E+04
  0.5761905E+00 -0.4506592E+06 -0.2391954E+04  0.3304978E-01  0.2328873E-02  0.1514561E+07  0.3286439E+04
  0.6071429E+00 -0.4562742E+06 -0.3448226E+04 -0.3820082E-02  0.3526688E-02  0.1518867E+07  0.4756337E+04
  0.6380953E+00 -0.4607356E+06 -0.4853660E+04 -0.8953037E-01 -0.1476288E-01  0.1526379E+07  0.6722542E+04
  0.6690477E+00 -0.4659681E+06 -0.6719150E+04  0.1824538E-03  0.2834320E-02  0.1537280E+07  0.9344770E+04
  0.7000000E+00 -0.4736694E+06 -0.9178480E+04 -0.6190708E-01 -0.1712036E-01  0.1544187E+07  0.1280785E+05
  0.7309524E+00 -0.4807209E+06 -0.1233680E+05  0.9368797E-01  0.3652191E-01  0.1555014E+07  0.1728957E+05
  0.7619048E+00 -0.4871667E+06 -0.1636012E+05 -0.3556823E-01 -0.2936554E-01  0.1569678E+07  0.2304357E+05
  0.7928572E+00 -0.4935445E+06 -0.2139926E+05 -0.5080764E-01 -0.2862549E-01  0.1573760E+07  0.3023382E+05
  0.8238096E+00 -0.5020908E+06 -0.2765976E+05 -0.6045656E-01 -0.5287170E-01  0.1588217E+07  0.3928010E+05
  0.8547620E+00 -0.5095442E+06 -0.3532268E+05 -0.7826100E-01 -0.2226257E-01  0.1599203E+07  0.5030555E+05
  0.8857143E+00 -0.5174245E+06 -0.4468715E+05 -0.1929498E-01 -0.4434204E-01  0.1615020E+07  0.6392917E+05
  0.9166667E+00 -0.5247039E+06 -0.5590530E+05 -0.7350852E-01 -0.2194214E-01  0.1620056E+07  0.8019278E+05
  0.9476191E+00 -0.5330254E+06 -0.6926145E+05 -0.5938506E-01 -0.3079224E-01  0.1634520E+07  0.9989171E+05
  0.9785714E+00 -0.5383463E+06 -0.8480082E+05 -0.8058423E-01 -0.8538818E-01  0.1642893E+07  0.1227957E+06
  0.1009524E+01 -0.5427576E+06 -0.1027424E+06  0.4921392E-01  0.4479980E-01  0.1654526E+07  0.1494984E+06
  0.1040476E+01 -0.5454593E+06 -0.1229875E+06  0.8541011E-01  0.7617188E-01  0.1657096E+07  0.1794735E+06
  0.1071429E+01 -0.5481016E+06 -0.1456175E+06 -0.3873698E-01 -0.5468750E-01  0.1657995E+07  0.2128448E+06
  0.1102381E+01 -0.5492860E+06 -0.1706908E+06  0.1063040E-01 -0.1129150E-01  0.1661170E+07  0.2503990E+06
  0.1133333E+01 -0.5466914E+06 -0.1977925E+06  0.6247128E-02 -0.8764648E-01  0.1657796E+07  0.2910754E+06
  0.1164286E+01 -0.5418976E+06 -0.2267726E+06 -0.5556820E-01 -0.5615234E-01  0.1655163E+07  0.3351368E+06
  0.1195238E+01 -0.5341109E+06 -0.2567860E+06  0.1021305E-01 -0.7446289E-02  0.1643171E+07  0.3804498E+06
  0.1226190E+01 -0.5242201E+06 -0.2871975E+06  0.3603800E-01  0.2563477E-01  0.1623738E+07  0.4256518E+06
  0.1257143E+01 -0.5136630E+06 -0.3180883E+06 -0.3864635E-01 -0.1818848E-01  0.1609464E+07  0.4728639E+06
  0.1288095E+01 -0.4996280E+06 -0.3482279E+06  0.4548868E-02  0.1049805E-01  0.1589000E+07  0.5190615E+06
  0.1319048E+01 -0.4823084E+06 -0.3769293E+06 -0.5830289E-01 -0.4699707E-01  0.1563854E+07  0.5631672E+06
  0.1350000E+01 -0.4638072E+06 -0.4041754E+06  0.2531829E-01 -0.9399414E-02  0.1540227E+07  0.6061232E+06
  0.1380952E+01 -0.4440844E+06 -0.4284920E+06  0.1025391E-01 -0.3723145E-01  0.1507986E+07  0.6423221E+06
  0.1411905E+01 -0.4229903E+06 -0.4496276E+06 -0.1417909E-01 -0.1525879E-01  0.1471112E+07  0.6727965E+06
  0.1442857E+01 -0.4041968E+06 -0.4696396E+06  0.7580446E-01  0.4797363E-01  0.1443576E+07  0.7048542E+06
  0.1473810E+01 -0.3838443E+06 -0.4858413E+06 -0.9939165E-03  0.1354980E-01  0.1413218E+07  0.7304109E+06
  0.1504762E+01 -0.3631292E+06 -0.4985718E+06 -0.3050213E-01  0.1879883E-01  0.1380963E+07  0.7494254E+06
  0.1535714E+01 -0.3432988E+06 -0.5091791E+06 -0.5119004E-01 -0.3442383E-01  0.1353289E+07  0.7675314E+06
  0.1566667E+01 -0.3242092E+06 -0.5174637E+06 -0.5921708E-02  0.2197266E-01  0.1328221E+07  0.7836982E+06
  0.1597619E+01 -0.3057873E+06 -0.5215209E+06  0.1589279E-01  0.3283691E-01  0.1295537E+07  0.7857394E+06
  0.1628572E+01 -0.2889270E+06 -0.5235969E+06 -0.1499109E-02  0.9765625E-02  0.1264768E+07  0.7833219E+06
  0.1659524E+01 -0.2746375E+06 -0.5259524E+06  0.1735955E-01  0.1770020E-01  0.1243244E+07  0.7879275E+06
  0.1690476E+01 -0.2603985E+06 -0.5256182E+06 -0.1068717E-01  0.3906250E-02  0.1222144E+07  0.7886694E+06
  0.1721429E+01 -0.2468016E+06 -0.5229492E+06 -0.2779759E-01 -0.1708984E-01  0.1201168E+07  0.7838883E+06
  0.1752381E+01 -0.2336405E+06 -0.5184245E+06 -0.3176482E-01 -0.3051758E-02  0.1181081E+07  0.7761449E+06
  0.1783333E+01 -0.2218310E+06 -0.5143018E+06 -0.5120108E-01 -0.1367188E-01  0.1165308E+07  0.7736532E+06
  0.1814286E+01 -0.2108834E+06 -0.5094334E+06  0.1560962E-01 -0.0000000E+00  0.1150902E+07  0.7707972E+06
  0.1845238E+01 -0.2010882E+06 -0.5014994E+06 -0.6880040E-02 -0.4638672E-02  0.1132719E+07  0.7493294E+06
  0.1876190E+01 -0.1923274E+06 -0.4928497E+06 -0.2602514E-01  0.2557373E-01  0.1116280E+07  0.7250466E+06
  0.1907143E+01 -0.1849186E+06 -0.4864274E+06 -0.1612974E-01  0.5249023E-02  0.1104796E+07  0.7151804E+06
  0.1938095E+01 -0.1779767E+06 -0.4800168E+06 -0.1259694E-02 -0.3967285E-02  0.1094653E+07  0.7077131E+06
  0.1969048E+01 -0.1709150E+06 -0.4710980E+06 -0.6695417E-02  0.5310059E-02  0.1084054E+07  0.6925513E+06
  0.2000000E+01 -0.1641239E+06 -0.4604924E+06 -0.7568359E-02 -0.1306152E-01  0.1073829E+07  0.6733983E+06
