VARIABLES="w (rad/s)"
"abs(F   1   1)" "angle(F   1   1)"
"abs(F   1   2)" "angle(F   1   2)"
"abs(F   1   3)" "angle(F   1   3)"
Zone t="Diffraction force - beta =   0.000 deg",I=    64,F=POINT
  0.5000000E-01  0.5097101E+03 -0.1570796E+01  0.1128405E+03 -0.3096035E+01  0.1910894E+03  0.1570797E+01
  0.8095238E-01  0.8348917E+03 -0.1570794E+01  0.2932802E+03 -0.3094482E+01  0.3161232E+03  0.1570797E+01
  0.1119048E+00  0.1165369E+04 -0.1570793E+01  0.5581982E+03 -0.3092509E+01  0.4416202E+03  0.1570798E+01
  0.1428571E+00  0.1507747E+04 -0.1570790E+01  0.9078881E+03 -0.3089949E+01  0.5711205E+03  0.1570800E+01
  0.1738095E+00  0.1863623E+04 -0.1570785E+01  0.1344870E+04 -0.3086714E+01  0.7015999E+03  0.1570802E+01
  0.2047619E+00  0.2239502E+04 -0.1570779E+01  0.1870677E+04 -0.3082625E+01  0.8404375E+03  0.1570805E+01
  0.2357143E+00  0.2635385E+04 -0.1570770E+01  0.2490308E+04 -0.3077500E+01  0.9854233E+03  0.1570809E+01
  0.2666667E+00  0.3063257E+04 -0.1570757E+01  0.3203259E+04 -0.3071168E+01  0.1138030E+04  0.1570816E+01
  0.2976190E+00  0.3524574E+04 -0.1570736E+01  0.4014677E+04 -0.3063203E+01  0.1305590E+04  0.1570825E+01
  0.3285715E+00  0.4026403E+04 -0.1570707E+01  0.4933596E+04 -0.3053715E+01  0.1482515E+04  0.1570840E+01
  0.3595238E+00  0.4581803E+04 -0.1570662E+01  0.5951401E+04 -0.3042059E+01  0.1670713E+04  0.1570861E+01
  0.3904762E+00  0.5191917E+04 -0.1570596E+01  0.7073875E+04 -0.3028133E+01  0.1882220E+04  0.1570892E+01
  0.4214286E+00  0.5860071E+04 -0.1570497E+01  0.8296881E+04 -0.3012549E+01  0.2116597E+04  0.1570937E+01
  0.4523810E+00  0.6601359E+04 -0.1570353E+01  0.9629040E+04 -0.2994559E+01  0.2350664E+04  0.1571003E+01
  0.4833333E+00  0.7412222E+04 -0.1570153E+01  0.1103158E+05 -0.2975907E+01  0.2609384E+04  0.1571093E+01
  0.5142857E+00  0.8289821E+04 -0.1569874E+01  0.1251902E+05 -0.2955670E+01  0.2888450E+04  0.1571216E+01
  0.5452381E+00  0.9215971E+04 -0.1569500E+01  0.1409786E+05 -0.2935506E+01  0.3188122E+04  0.1571375E+01
  0.5761905E+00  0.1019087E+05 -0.1569011E+01  0.1574208E+05 -0.2915375E+01  0.3490485E+04  0.1571579E+01
  0.6071429E+00  0.1123642E+05 -0.1568380E+01  0.1744298E+05 -0.2894464E+01  0.3785427E+04  0.1571836E+01
  0.6380953E+00  0.1232871E+05 -0.1567590E+01  0.1921500E+05 -0.2874476E+01  0.4100268E+04  0.1572148E+01
  0.6690477E+00  0.1343863E+05 -0.1566600E+01  0.2105253E+05 -0.2854612E+01  0.4428214E+04  0.1572523E+01
  0.7000000E+00  0.1457993E+05 -0.1565378E+01  0.2295021E+05 -0.2834637E+01  0.4745808E+04  0.1572968E+01
  0.7309524E+00  0.1576625E+05 -0.1563900E+01  0.2490069E+05 -0.2815093E+01  0.5053468E+04  0.1573485E+01
  0.7619048E+00  0.1698899E+05 -0.1562124E+01  0.2688303E+05 -0.2795458E+01  0.5349175E+04  0.1574076E+01
  0.7928572E+00  0.1824751E+05 -0.1560011E+01  0.2889988E+05 -0.2775863E+01  0.5645677E+04  0.1574740E+01
  0.8238096E+00  0.1952435E+05 -0.1557514E+01  0.3096284E+05 -0.2756676E+01  0.5939063E+04  0.1575473E+01
  0.8547620E+00  0.2079735E+05 -0.1554580E+01  0.3306443E+05 -0.2737908E+01  0.6246357E+04  0.1576269E+01
  0.8857143E+00  0.2207807E+05 -0.1551172E+01  0.3519082E+05 -0.2719420E+01  0.6523381E+04  0.1577113E+01
  0.9166667E+00  0.2338632E+05 -0.1547261E+01  0.3732988E+05 -0.2701125E+01  0.6769951E+04  0.1577983E+01
  0.9476191E+00  0.2472156E+05 -0.1542809E+01  0.3946966E+05 -0.2682961E+01  0.6990010E+04  0.1578851E+01
  0.9785714E+00  0.2606428E+05 -0.1537766E+01  0.4160516E+05 -0.2664988E+01  0.7214500E+04  0.1579688E+01
  0.1009524E+01  0.2738514E+05 -0.1532065E+01  0.4373938E+05 -0.2647372E+01  0.7415840E+04  0.1580435E+01
  0.1040476E+01  0.2869866E+05 -0.1525684E+01  0.4588037E+05 -0.2630394E+01  0.7622874E+04  0.1581051E+01
  0.1071429E+01  0.2996740E+05 -0.1518552E+01  0.4801782E+05 -0.2613930E+01  0.7801143E+04  0.1581445E+01
  0.1102381E+01  0.3121794E+05 -0.1510688E+01  0.5014627E+05 -0.2597973E+01  0.7945332E+04  0.1581538E+01
  0.1133333E+01  0.3243383E+05 -0.1502058E+01  0.5224658E+05 -0.2582237E+01  0.8078956E+04  0.1581285E+01
  0.1164286E+01  0.3360387E+05 -0.1492643E+01  0.5431548E+05 -0.2566734E+01  0.8157863E+04  0.1580484E+01
  0.1195238E+01  0.3474672E+05 -0.1482478E+01  0.5635076E+05 -0.2551572E+01  0.8229704E+04  0.1579096E+01
  0.1226190E+01  0.3582159E+05 -0.1471507E+01  0.5834809E+05 -0.2536750E+01  0.8267092E+04  0.1576882E+01
  0.1257143E+01  0.3680929E+05 -0.1459653E+01  0.6033353E+05 -0.2522146E+01  0.8297938E+04  0.1573761E+01
  0.1288095E+01  0.3774192E+05 -0.1447190E+01  0.6222949E+05 -0.2508718E+01  0.8311646E+04  0.1569494E+01
  0.1319048E+01  0.3853344E+05 -0.1433769E+01  0.6410909E+05 -0.2495521E+01  0.8330367E+04  0.1564038E+01
  0.1350000E+01  0.3919742E+05 -0.1419548E+01  0.6594310E+05 -0.2482860E+01  0.8325632E+04  0.1557093E+01
  0.1380952E+01  0.3975440E+05 -0.1404693E+01  0.6773204E+05 -0.2470927E+01  0.8309598E+04  0.1548666E+01
  0.1411905E+01  0.3971946E+05 -0.1390540E+01  0.6888669E+05 -0.2457495E+01  0.8431924E+04  0.1540797E+01
  0.1442857E+01  0.3999805E+05 -0.1374607E+01  0.7054567E+05 -0.2446093E+01  0.8376468E+04  0.1529355E+01
  0.1473810E+01  0.4012859E+05 -0.1358225E+01  0.7213979E+05 -0.2435000E+01  0.8323134E+04  0.1516285E+01
  0.1504762E+01  0.4009465E+05 -0.1341392E+01  0.7366854E+05 -0.2424189E+01  0.8295933E+04  0.1502073E+01
  0.1535714E+01  0.3988031E+05 -0.1324204E+01  0.7512562E+05 -0.2413676E+01  0.8259257E+04  0.1486151E+01
  0.1566667E+01  0.3949476E+05 -0.1306841E+01  0.7651422E+05 -0.2403683E+01  0.8246116E+04  0.1469492E+01
  0.1597619E+01  0.3893690E+05 -0.1289486E+01  0.7783212E+05 -0.2394247E+01  0.8254052E+04  0.1452468E+01
  0.1628572E+01  0.3818126E+05 -0.1272150E+01  0.7907640E+05 -0.2385140E+01  0.8266510E+04  0.1435075E+01
  0.1659524E+01  0.3724702E+05 -0.1255126E+01  0.8024633E+05 -0.2376570E+01  0.8305999E+04  0.1418520E+01
  0.1690476E+01  0.3612183E+05 -0.1238516E+01  0.8133545E+05 -0.2368352E+01  0.8369217E+04  0.1403154E+01
  0.1721429E+01  0.3481300E+05 -0.1222506E+01  0.8234468E+05 -0.2360524E+01  0.8471875E+04  0.1390294E+01
  0.1752381E+01  0.3331704E+05 -0.1207230E+01  0.8327308E+05 -0.2353035E+01  0.8610800E+04  0.1380531E+01
  0.1783333E+01  0.3162989E+05 -0.1192878E+01  0.8411563E+05 -0.2345735E+01  0.8768748E+04  0.1373567E+01
  0.1814286E+01  0.2978292E+05 -0.1180017E+01  0.8487339E+05 -0.2338968E+01  0.8969899E+04  0.1371249E+01
  0.1845238E+01  0.2777632E+05 -0.1169026E+01  0.8554443E+05 -0.2332592E+01  0.9200034E+04  0.1373105E+01
  0.1876190E+01  0.2560623E+05 -0.1160210E+01  0.8612730E+05 -0.2326418E+01  0.9454454E+04  0.1379173E+01
  0.1907143E+01  0.2329964E+05 -0.1154560E+01  0.8661884E+05 -0.2320721E+01  0.9744268E+04  0.1390117E+01
  0.1938095E+01  0.2086199E+05 -0.1153227E+01  0.8701641E+05 -0.2315384E+01  0.1005820E+05  0.1405323E+01
  0.1969048E+01  0.1831189E+05 -0.1158165E+01  0.8731980E+05 -0.2310384E+01  0.1039750E+05  0.1424743E+01
  0.2000000E+01  0.1566606E+05 -0.1172217E+01  0.8753425E+05 -0.2305713E+01  0.1077477E+05  0.1448559E+01
