VARIABLES="w (rad/s)"
"abs(F   1   1)" "angle(F   1   1)"
"abs(F   1   2)" "angle(F   1   2)"
"abs(F   1   3)" "angle(F   1   3)"
Zone t="Diffraction force - beta =   0.000 deg",I=    64,F=POINT
  0.5000000E-01  0.1470058E+04 -0.1570830E+01  0.2339802E+06 -0.1599498E-04  0.1404453E+04  0.1570790E+01
  0.8095238E-01  0.2402592E+04 -0.1570805E+01  0.2336439E+06 -0.4304362E-04  0.2296779E+04  0.1570803E+01
  0.1119048E+00  0.3353117E+04 -0.1570796E+01  0.2331488E+06 -0.8551833E-04  0.3204867E+04  0.1570790E+01
  0.1428571E+00  0.4337197E+04 -0.1570796E+01  0.2324959E+06 -0.1467270E-03  0.4136810E+04  0.1570801E+01
  0.1738095E+00  0.5360543E+04 -0.1570787E+01  0.2316828E+06 -0.2316899E-03  0.5103826E+04  0.1570804E+01
  0.2047619E+00  0.6440546E+04 -0.1570788E+01  0.2307093E+06 -0.3476148E-03  0.6113970E+04  0.1570806E+01
  0.2357143E+00  0.7582031E+04 -0.1570783E+01  0.2295728E+06 -0.5052411E-03  0.7183475E+04  0.1570811E+01
  0.2666667E+00  0.8812051E+04 -0.1570771E+01  0.2282730E+06 -0.7177326E-03  0.8320707E+04  0.1570812E+01
  0.2976190E+00  0.1014912E+05 -0.1570768E+01  0.2268090E+06 -0.1007168E-02  0.9542961E+04  0.1570820E+01
  0.3285715E+00  0.1159488E+05 -0.1570754E+01  0.2251776E+06 -0.1396529E-02  0.1087232E+05  0.1570838E+01
  0.3595238E+00  0.1318988E+05 -0.1570733E+01  0.2233832E+06 -0.1921894E-02  0.1231554E+05  0.1570856E+01
  0.3904762E+00  0.1496297E+05 -0.1570705E+01  0.2214250E+06 -0.2624277E-02  0.1389051E+05  0.1570885E+01
  0.4214286E+00  0.1691037E+05 -0.1570658E+01  0.2193151E+06 -0.3530802E-02  0.1562341E+05  0.1570932E+01
  0.4523810E+00  0.1903762E+05 -0.1570597E+01  0.2170495E+06 -0.4712049E-02  0.1750286E+05  0.1570999E+01
  0.4833333E+00  0.2138354E+05 -0.1570505E+01  0.2146526E+06 -0.6142275E-02  0.1953176E+05  0.1571087E+01
  0.5142857E+00  0.2391485E+05 -0.1570376E+01  0.2121328E+06 -0.7902947E-02  0.2170515E+05  0.1571214E+01
  0.5452381E+00  0.2661331E+05 -0.1570208E+01  0.2094831E+06 -0.9973329E-02  0.2399902E+05  0.1571386E+01
  0.5761905E+00  0.2945766E+05 -0.1569988E+01  0.2067203E+06 -0.1236494E-01  0.2639578E+05  0.1571605E+01
  0.6071429E+00  0.3247035E+05 -0.1569701E+01  0.2038610E+06 -0.1514706E-01  0.2887306E+05  0.1571892E+01
  0.6380953E+00  0.3563384E+05 -0.1569343E+01  0.2008983E+06 -0.1826573E-01  0.3141955E+05  0.1572250E+01
  0.6690477E+00  0.3889220E+05 -0.1568899E+01  0.1978456E+06 -0.2178803E-01  0.3402293E+05  0.1572694E+01
  0.7000000E+00  0.4224358E+05 -0.1568350E+01  0.1947065E+06 -0.2575846E-01  0.3667248E+05  0.1573244E+01
  0.7309524E+00  0.4570962E+05 -0.1567685E+01  0.1914836E+06 -0.3015937E-01  0.3931950E+05  0.1573906E+01
  0.7619048E+00  0.4928986E+05 -0.1566886E+01  0.1882019E+06 -0.3503564E-01  0.4199654E+05  0.1574707E+01
  0.7928572E+00  0.5295818E+05 -0.1565934E+01  0.1848743E+06 -0.4041530E-01  0.4467659E+05  0.1575660E+01
  0.8238096E+00  0.5670989E+05 -0.1564809E+01  0.1814957E+06 -0.4631105E-01  0.4734589E+05  0.1576784E+01
  0.8547620E+00  0.6053170E+05 -0.1563496E+01  0.1780641E+06 -0.5273515E-01  0.5001104E+05  0.1578097E+01
  0.8857143E+00  0.6437016E+05 -0.1561970E+01  0.1745989E+06 -0.5971200E-01  0.5263968E+05  0.1579622E+01
  0.9166667E+00  0.6828317E+05 -0.1560216E+01  0.1711079E+06 -0.6725960E-01  0.5521806E+05  0.1581377E+01
  0.9476191E+00  0.7226529E+05 -0.1558215E+01  0.1676125E+06 -0.7539532E-01  0.5772505E+05  0.1583380E+01
  0.9785714E+00  0.7631995E+05 -0.1555946E+01  0.1641136E+06 -0.8412372E-01  0.6018689E+05  0.1585650E+01
  0.1009524E+01  0.8039065E+05 -0.1553390E+01  0.1606208E+06 -0.9345747E-01  0.6260409E+05  0.1588208E+01
  0.1040476E+01  0.8445032E+05 -0.1550529E+01  0.1571352E+06 -0.1034046E+00  0.6489945E+05  0.1591070E+01
  0.1071429E+01  0.8852166E+05 -0.1547349E+01  0.1536491E+06 -0.1139637E+00  0.6713974E+05  0.1594250E+01
  0.1102381E+01  0.9255039E+05 -0.1543838E+01  0.1501750E+06 -0.1251583E+00  0.6923304E+05  0.1597757E+01
  0.1133333E+01  0.9658090E+05 -0.1539997E+01  0.1467221E+06 -0.1369925E+00  0.7120784E+05  0.1601595E+01
  0.1164286E+01  0.1005689E+06 -0.1535816E+01  0.1433026E+06 -0.1494918E+00  0.7306684E+05  0.1605777E+01
  0.1195238E+01  0.1045027E+06 -0.1531301E+01  0.1399323E+06 -0.1626568E+00  0.7473148E+05  0.1610298E+01
  0.1226190E+01  0.1084055E+06 -0.1526453E+01  0.1365977E+06 -0.1764728E+00  0.7630250E+05  0.1615158E+01
  0.1257143E+01  0.1121750E+06 -0.1521264E+01  0.1333169E+06 -0.1911163E+00  0.7766933E+05  0.1620358E+01
  0.1288095E+01  0.1159195E+06 -0.1515805E+01  0.1300734E+06 -0.2060824E+00  0.7888352E+05  0.1625828E+01
  0.1319048E+01  0.1195075E+06 -0.1510045E+01  0.1268720E+06 -0.2218488E+00  0.7993738E+05  0.1631589E+01
  0.1350000E+01  0.1229105E+06 -0.1504018E+01  0.1237175E+06 -0.2382836E+00  0.8079246E+05  0.1637606E+01
  0.1380952E+01  0.1261136E+06 -0.1497768E+01  0.1206107E+06 -0.2553648E+00  0.8140828E+05  0.1643823E+01
  0.1411905E+01  0.1286865E+06 -0.1492209E+01  0.1177416E+06 -0.2715099E+00  0.8177545E+05  0.1649348E+01
  0.1442857E+01  0.1315143E+06 -0.1485784E+01  0.1147432E+06 -0.2898546E+00  0.8196727E+05  0.1655737E+01
  0.1473810E+01  0.1341402E+06 -0.1479337E+01  0.1118050E+06 -0.3088875E+00  0.8193783E+05  0.1662161E+01
  0.1504762E+01  0.1365583E+06 -0.1472940E+01  0.1089280E+06 -0.3285703E+00  0.8170429E+05  0.1668535E+01
  0.1535714E+01  0.1387234E+06 -0.1466629E+01  0.1061159E+06 -0.3489402E+00  0.8129721E+05  0.1674832E+01
  0.1566667E+01  0.1406072E+06 -0.1460501E+01  0.1033749E+06 -0.3699863E+00  0.8065751E+05  0.1680926E+01
  0.1597619E+01  0.1422090E+06 -0.1454643E+01  0.1006974E+06 -0.3916815E+00  0.7979410E+05  0.1686729E+01
  0.1628572E+01  0.1435567E+06 -0.1449155E+01  0.9806587E+05 -0.4140260E+00  0.7877138E+05  0.1692176E+01
  0.1659524E+01  0.1446181E+06 -0.1444151E+01  0.9549387E+05 -0.4370175E+00  0.7752798E+05  0.1697126E+01
  0.1690476E+01  0.1453920E+06 -0.1439723E+01  0.9298298E+05 -0.4606891E+00  0.7607974E+05  0.1701503E+01
  0.1721429E+01  0.1458998E+06 -0.1435965E+01  0.9052791E+05 -0.4850150E+00  0.7447234E+05  0.1705207E+01
  0.1752381E+01  0.1461404E+06 -0.1432947E+01  0.8813241E+05 -0.5099916E+00  0.7273617E+05  0.1708161E+01
  0.1783333E+01  0.1460918E+06 -0.1430726E+01  0.8580180E+05 -0.5356814E+00  0.7086744E+05  0.1710349E+01
  0.1814286E+01  0.1457655E+06 -0.1429436E+01  0.8353816E+05 -0.5619936E+00  0.6883757E+05  0.1711523E+01
  0.1845238E+01  0.1451872E+06 -0.1429128E+01  0.8133862E+05 -0.5890041E+00  0.6670870E+05  0.1711736E+01
  0.1876190E+01  0.1443948E+06 -0.1429871E+01  0.7918330E+05 -0.6166958E+00  0.6452660E+05  0.1710971E+01
  0.1907143E+01  0.1433851E+06 -0.1431746E+01  0.7708643E+05 -0.6450292E+00  0.6226441E+05  0.1709029E+01
  0.1938095E+01  0.1421532E+06 -0.1434820E+01  0.7505646E+05 -0.6739920E+00  0.5991187E+05  0.1705808E+01
  0.1969048E+01  0.1407529E+06 -0.1439116E+01  0.7306953E+05 -0.7036219E+00  0.5754128E+05  0.1701421E+01
  0.2000000E+01  0.1391903E+06 -0.1444696E+01  0.7113735E+05 -0.7338722E+00  0.5514229E+05  0.1695677E+01
