VARIABLES="w (rad/s)"
"A   1   1" "B   1   1"
"A   1   2" "B   1   2"
"A   1   3" "B   1   3"
Zone t="Motion of body    1 in DoF   1",I=    64,F=POINT
  0.5000000E-01  0.4491816E+05  0.2849010E-02  0.9021759E-02  0.7796725E-05  0.5310207E+03  0.4738579E-04
  0.8095238E-01  0.4507281E+05  0.1248330E-01 -0.1284094E-02  0.3997618E-05  0.5257722E+03  0.1966567E-03
  0.1119048E+00  0.4526738E+05  0.3515280E-01  0.3783855E-02  0.2542109E-04  0.5313901E+03  0.5542111E-03
  0.1428571E+00  0.4534420E+05  0.7913726E-01  0.2656936E-02 -0.6898961E-05  0.5246883E+03  0.1256945E-02
  0.1738095E+00  0.4541582E+05  0.1576370E+00  0.2414233E-03 -0.3061557E-04  0.5337582E+03  0.2517243E-02
  0.2047619E+00  0.4545291E+05  0.2909625E+00 -0.2924897E-02  0.2195605E-04  0.5313854E+03  0.4656520E-02
  0.2357143E+00  0.4561730E+05  0.5131012E+00  0.2557003E-02  0.3158813E-04  0.5391816E+03  0.8298527E-02
  0.2666667E+00  0.4566888E+05  0.8761395E+00  0.3275871E-02  0.1196305E-03  0.5433556E+03  0.1426946E-01
  0.2976190E+00  0.4574400E+05  0.1470700E+01 -0.6267700E-02 -0.2349871E-03  0.5423322E+03  0.2409219E-01
  0.3285715E+00  0.4596155E+05  0.2438434E+01 -0.1520903E-02  0.1288624E-04  0.5511782E+03  0.4038293E-01
  0.3595238E+00  0.4607725E+05  0.4009006E+01 -0.3501437E-03 -0.2699634E-03  0.5595983E+03  0.6715112E-01
  0.3904762E+00  0.4614601E+05  0.6541693E+01 -0.5099598E-02 -0.2357084E-03  0.5617719E+03  0.1107109E+00
  0.4214286E+00  0.4641390E+05  0.1054797E+02 -0.1882779E-02 -0.4686415E-05  0.5759094E+03  0.1811751E+00
  0.4523810E+00  0.4671187E+05  0.1686382E+02  0.1121521E-02  0.3215671E-04  0.5972609E+03  0.2948949E+00
  0.4833333E+00  0.4679446E+05  0.2625731E+02 -0.2107291E-02 -0.2753139E-03  0.5885524E+03  0.4625247E+00
  0.5142857E+00  0.4700140E+05  0.4024248E+02 -0.3530714E-02 -0.3396347E-03  0.6027081E+03  0.7205711E+00
  0.5452381E+00  0.4737854E+05  0.6028638E+02  0.2420750E-02 -0.1927018E-03  0.6177216E+03  0.1096568E+01
  0.5761905E+00  0.4771292E+05  0.8817274E+02 -0.2118576E-03  0.4959852E-03  0.6375889E+03  0.1634460E+01
  0.6071429E+00  0.4793335E+05  0.1264785E+03  0.1068115E-02  0.6300509E-03  0.6391779E+03  0.2373321E+01
  0.6380953E+00  0.4819833E+05  0.1774522E+03 -0.4938040E-02 -0.2091110E-02  0.6453331E+03  0.3377788E+01
  0.6690477E+00  0.4860456E+05  0.2449206E+03  0.2850841E-02  0.9734631E-03  0.6662402E+03  0.4754399E+01
  0.7000000E+00  0.4909834E+05  0.3331508E+03  0.4490444E-02  0.1533747E-02  0.6930989E+03  0.6606327E+01
  0.7309524E+00  0.4956129E+05  0.4460622E+03  0.9216407E-02  0.3244042E-02  0.7118077E+03  0.9010450E+01
  0.7619048E+00  0.4990127E+05  0.5889138E+03 -0.4896640E-02 -0.1603484E-02  0.7175164E+03  0.1207802E+02
  0.7928572E+00  0.5029668E+05  0.7682192E+03 -0.3031137E-02  0.1007318E-03  0.7365012E+03  0.1607086E+02
  0.8238096E+00  0.5083527E+05  0.9913514E+03 -0.3111734E-02 -0.2459049E-02  0.7593751E+03  0.2114588E+02
  0.8547620E+00  0.5143630E+05  0.1265929E+04  0.2713429E-02  0.1681566E-02  0.7831878E+03  0.2753929E+02
  0.8857143E+00  0.5203710E+05  0.1600559E+04  0.1487609E-01  0.4589558E-02  0.8154489E+03  0.3562543E+02
  0.9166667E+00  0.5265303E+05  0.2004927E+04  0.1706210E-02  0.1594543E-02  0.8494610E+03  0.4569194E+02
  0.9476191E+00  0.5320421E+05  0.2488219E+04  0.3832333E-02  0.1022339E-02  0.8669740E+03  0.5777312E+02
  0.9785714E+00  0.5371496E+05  0.3061171E+04  0.9386940E-02  0.4086494E-02  0.8834020E+03  0.7237058E+02
  0.1009524E+01  0.5428218E+05  0.3735666E+04  0.0000000E+00 -0.4974365E-02  0.9104067E+03  0.9017158E+02
  0.1040476E+01  0.5492237E+05  0.4523953E+04 -0.4912841E-02 -0.5524635E-02  0.9469007E+03  0.1117193E+03
  0.1071429E+01  0.5559446E+05  0.5438082E+04 -0.4785156E-02 -0.2072334E-02  0.9848942E+03  0.1374852E+03
  0.1102381E+01  0.5624731E+05  0.6489442E+04 -0.2602233E-02 -0.2343178E-02  0.1021162E+04  0.1677776E+03
  0.1133333E+01  0.5686022E+05  0.7689779E+04  0.4012164E-02 -0.2561569E-02  0.1056851E+04  0.2033264E+03
  0.1164286E+01  0.5737700E+05  0.9048069E+04  0.6893602E-02 -0.2155304E-03  0.1089100E+04  0.2447692E+03
  0.1195238E+01  0.5780273E+05  0.1057279E+05 -0.4302249E-02 -0.3860474E-02  0.1116474E+04  0.2925880E+03
  0.1226190E+01  0.5815228E+05  0.1227031E+05  0.2563477E-02 -0.2367020E-02  0.1145742E+04  0.3474438E+03
  0.1257143E+01  0.5842629E+05  0.1414638E+05  0.5194924E-02  0.7589340E-02  0.1169718E+04  0.4092661E+03
  0.1288095E+01  0.5870321E+05  0.1618587E+05  0.2831196E-02 -0.2923965E-02  0.1198281E+04  0.4782623E+03
  0.1319048E+01  0.5887099E+05  0.1840282E+05  0.1330324E-02 -0.1670837E-02  0.1223549E+04  0.5557875E+03
  0.1350000E+01  0.5890535E+05  0.2078413E+05  0.6860803E-02  0.6862640E-02  0.1248879E+04  0.6428142E+03
  0.1380952E+01  0.5883111E+05  0.2332258E+05 -0.4883865E-02 -0.1846313E-02  0.1272285E+04  0.7388885E+03
  0.1411905E+01  0.5835872E+05  0.2585420E+05 -0.5954787E-02 -0.1181412E-01  0.1267495E+04  0.8357463E+03
  0.1442857E+01  0.5803088E+05  0.2863068E+05 -0.2506369E-02 -0.4467010E-02  0.1281364E+04  0.9470853E+03
  0.1473810E+01  0.5755447E+05  0.3149295E+05 -0.5363008E-02  0.5561829E-02  0.1288126E+04  0.1064828E+04
  0.1504762E+01  0.5694457E+05  0.3441864E+05 -0.1074875E-02 -0.1533508E-02  0.1288378E+04  0.1189141E+04
  0.1535714E+01  0.5619107E+05  0.3738202E+05  0.4113486E-02  0.2178192E-02  0.1285465E+04  0.1321601E+04
  0.1566667E+01  0.5529600E+05  0.4035276E+05 -0.2425173E-02 -0.5531311E-02  0.1279371E+04  0.1461088E+04
  0.1597619E+01  0.5429327E+05  0.4329700E+05 -0.2655166E-02 -0.9407043E-02  0.1269918E+04  0.1605307E+04
  0.1628572E+01  0.5318666E+05  0.4618067E+05  0.3429212E-02 -0.6378174E-02  0.1256270E+04  0.1753642E+04
  0.1659524E+01  0.5198626E+05  0.4897712E+05  0.2188334E-02 -0.4058838E-02  0.1233493E+04  0.1901954E+04
  0.1690476E+01  0.5069116E+05  0.5165968E+05 -0.2067029E-02  0.3578186E-02  0.1205756E+04  0.2051901E+04
  0.1721429E+01  0.4931674E+05  0.5420977E+05  0.1967814E-02 -0.1884460E-02  0.1170927E+04  0.2201607E+04
  0.1752381E+01  0.4789623E+05  0.5660661E+05  0.1741492E-04 -0.4402161E-02  0.1134356E+04  0.2351018E+04
  0.1783333E+01  0.4642273E+05  0.5883459E+05  0.8385204E-03 -0.1571655E-02  0.1095964E+04  0.2500564E+04
  0.1814286E+01  0.4493002E+05  0.6088075E+05  0.3893995E-02 -0.4402161E-02  0.1054625E+04  0.2648072E+04
  0.1845238E+01  0.4342723E+05  0.6273785E+05 -0.7028888E-03 -0.7514954E-02  0.1008132E+04  0.2792351E+04
  0.1876190E+01  0.4193248E+05  0.6440133E+05  0.1650970E-02  0.1041412E-01  0.9608419E+03  0.2933479E+04
  0.1907143E+01  0.4045697E+05  0.6587218E+05  0.6976753E-02  0.6980896E-02  0.9084019E+03  0.3069385E+04
  0.1938095E+01  0.3900681E+05  0.6715088E+05 -0.3149234E-04  0.3097534E-02  0.8544875E+03  0.3198735E+04
  0.1969048E+01  0.3757782E+05  0.6824604E+05  0.1472372E-02 -0.1037598E-02  0.7984723E+03  0.3320244E+04
  0.2000000E+01  0.3619768E+05  0.6916712E+05  0.2235413E-02  0.3051758E-04  0.7417678E+03  0.3435411E+04
Zone t="Motion of body    1 in DoF   2",I=    64,F=POINT
  0.5000000E-01 -0.2298355E-02  0.2531707E-04  0.7709081E+05  0.1851742E+03  0.1792908E-02  0.3188848E-05
  0.8095238E-01 -0.8717705E-03  0.1445413E-04  0.7635709E+05  0.3071467E+03  0.3534205E-02  0.1353025E-04
  0.1119048E+00  0.1073797E-01 -0.1847744E-04  0.7591830E+05  0.4400833E+03  0.2693014E-02  0.1567602E-04
  0.1428571E+00  0.2336502E-02  0.1430511E-05  0.7570167E+05  0.5890790E+03  0.2122879E-02  0.2348423E-04
  0.1738095E+00 -0.3544533E-02 -0.9566545E-04  0.7565191E+05  0.7606343E+03  0.1755806E-02  0.1990795E-04
  0.2047619E+00 -0.2962157E-02  0.1871586E-04  0.7576957E+05  0.9627899E+03  0.9314959E-03  0.3147125E-04
  0.2357143E+00  0.2370892E-02 -0.1032352E-03  0.7595255E+05  0.1206935E+04  0.1440337E-02  0.6985664E-04
  0.2666667E+00 -0.1051426E-02  0.9536743E-04  0.7625684E+05  0.1502882E+04  0.2832412E-02  0.5412102E-04
  0.2976190E+00 -0.1922607E-02 -0.6413460E-04  0.7660916E+05  0.1871919E+04  0.1089478E-02  0.2002716E-04
  0.3285715E+00  0.1091335E-02 -0.1192093E-04  0.7702220E+05  0.2326135E+04  0.2809607E-02  0.6675720E-04
  0.3595238E+00 -0.6960433E-02  0.3857613E-03  0.7738961E+05  0.2891184E+04  0.1527900E-02  0.1139641E-03
  0.3904762E+00 -0.4679516E-02 -0.1745224E-03  0.7780229E+05  0.3587509E+04  0.1797560E-02  0.1459122E-03
  0.4214286E+00  0.6517313E-03 -0.1721382E-03  0.7799456E+05  0.4409026E+04  0.2480200E-02  0.1802444E-03
  0.4523810E+00  0.3904242E-02 -0.7462502E-03  0.7812622E+05  0.5398078E+04  0.1770822E-02  0.2079010E-03
  0.4833333E+00 -0.2667657E-02 -0.1088142E-02  0.7802404E+05  0.6476313E+04  0.1894194E-02  0.3890991E-03
  0.5142857E+00 -0.6067488E-02 -0.7534027E-04  0.7774828E+05  0.7694155E+04  0.2343920E-02  0.3070831E-03
  0.5452381E+00 -0.3519183E-02  0.4472733E-03  0.7731606E+05  0.8988705E+04  0.1931003E-02  0.4138947E-03
  0.5761905E+00 -0.2568773E-02 -0.1053810E-02  0.7669480E+05  0.1033793E+05  0.2330433E-02  0.4119873E-03
  0.6071429E+00  0.1244040E-02 -0.6170273E-03  0.7594345E+05  0.1177164E+05  0.1721550E-02  0.4653931E-03
  0.6380953E+00 -0.7915212E-02 -0.1513481E-02  0.7514342E+05  0.1320994E+05  0.2749998E-02  0.4062653E-03
  0.6690477E+00 -0.5177128E-02  0.1375198E-02  0.7420757E+05  0.1468726E+05  0.3033295E-02  0.2212524E-03
  0.7000000E+00  0.5362374E-02  0.3910065E-03  0.7317281E+05  0.1620518E+05  0.3487723E-02  0.6523132E-03
  0.7309524E+00  0.1659580E-02 -0.2376556E-02  0.7209747E+05  0.1771981E+05  0.2505026E-02  0.7934570E-03
  0.7619048E+00  0.5146980E-02  0.2836227E-02  0.7094368E+05  0.1924062E+05  0.2122879E-02  0.7629395E-03
  0.7928572E+00  0.9160771E-02 -0.3160477E-02  0.6974191E+05  0.2076011E+05  0.2809816E-02  0.7286072E-03
  0.8238096E+00 -0.1022427E-01 -0.1209259E-02  0.6849694E+05  0.2226635E+05  0.2222667E-02  0.2288818E-03
  0.8547620E+00  0.2633097E-02 -0.1218796E-02  0.6721376E+05  0.2374775E+05  0.1731596E-02  0.1247406E-02
  0.8857143E+00 -0.3169890E-02 -0.1163483E-02  0.6588456E+05  0.2519738E+05  0.1653856E-02  0.1422882E-02
  0.9166667E+00  0.3853538E-02 -0.6612778E-02  0.6455214E+05  0.2660150E+05  0.2580123E-02  0.1113892E-02
  0.9476191E+00  0.7149394E-02 -0.2569199E-02  0.6319716E+05  0.2795600E+05  0.2544154E-02  0.1052856E-02
  0.9785714E+00  0.9308975E-02 -0.1693726E-02  0.6183178E+05  0.2925317E+05  0.1980301E-02  0.1720428E-02
  0.1009524E+01 -0.1707977E-02 -0.1819611E-02  0.6045832E+05  0.3049022E+05  0.1012694E-02  0.1579285E-02
  0.1040476E+01  0.4450887E-02 -0.1129150E-02  0.5910205E+05  0.3165868E+05  0.9825683E-03  0.8163452E-03
  0.1071429E+01 -0.7476807E-03 -0.2773285E-02  0.5776288E+05  0.3275206E+05  0.9114583E-03  0.1281738E-02
  0.1102381E+01  0.2325400E-02 -0.9586334E-02  0.5643771E+05  0.3376933E+05  0.1744050E-02  0.1190186E-02
  0.1133333E+01 -0.3190882E-02 -0.1899719E-02  0.5512646E+05  0.3470570E+05  0.2019546E-02  0.1213074E-02
  0.1164286E+01  0.5963097E-03  0.6557465E-02  0.5383659E+05  0.3556214E+05  0.9960338E-03  0.1777649E-02
  0.1195238E+01 -0.2604329E-02  0.1472473E-02  0.5258705E+05  0.3633231E+05  0.1863882E-02  0.2143860E-02
  0.1226190E+01 -0.5450499E-02 -0.4283905E-02  0.5138312E+05  0.3701196E+05  0.1543064E-02  0.1197815E-02
  0.1257143E+01 -0.3884055E-02 -0.1960754E-02  0.5022407E+05  0.3763291E+05  0.8253618E-03  0.1235962E-02
  0.1288095E+01  0.4738404E-03  0.1174927E-02  0.4908850E+05  0.3812094E+05  0.1990130E-02  0.1480103E-02
  0.1319048E+01  0.1070043E-02  0.5622864E-02  0.4799649E+05  0.3855323E+05  0.1700501E-02  0.2029419E-02
  0.1350000E+01  0.3910771E-02 -0.1331329E-02  0.4694051E+05  0.3890781E+05  0.1186795E-02  0.2349854E-02
  0.1380952E+01 -0.4419787E-03 -0.4825592E-02  0.4594206E+05  0.3917423E+05  0.1259639E-02  0.2067566E-02
  0.1411905E+01 -0.2172254E-02 -0.8209229E-02  0.4498746E+05  0.3939864E+05  0.1383326E-02  0.1663208E-02
  0.1442857E+01 -0.1168582E-02 -0.7202148E-02  0.4408388E+05  0.3951286E+05  0.1163294E-02  0.2952576E-02
  0.1473810E+01 -0.4110259E-02 -0.6885529E-02  0.4322558E+05  0.3955358E+05  0.9835633E-03  0.2098083E-02
  0.1504762E+01  0.4005432E-03  0.5390167E-02  0.4241256E+05  0.3952427E+05  0.7301040E-03  0.1983643E-02
  0.1535714E+01  0.1445681E-02 -0.7717133E-02  0.4163838E+05  0.3943307E+05  0.1251930E-02  0.1457214E-02
  0.1566667E+01 -0.5429856E-02 -0.7774353E-02  0.4091131E+05  0.3927525E+05  0.1840794E-02  0.1995087E-02
  0.1597619E+01 -0.1403991E-02 -0.5382538E-02  0.4023533E+05  0.3905846E+05  0.1614112E-02  0.2616882E-02
  0.1628572E+01  0.3738403E-02 -0.5802155E-02  0.3961038E+05  0.3877951E+05  0.6933379E-03  0.3005981E-02
  0.1659524E+01  0.1176919E-02 -0.3547668E-02  0.3902738E+05  0.3844701E+05  0.9010785E-03  0.2223969E-02
  0.1690476E+01  0.1534475E-03 -0.1128006E-01  0.3848193E+05  0.3806386E+05  0.6589217E-03  0.2265930E-02
  0.1721429E+01  0.5030335E-02  0.5111694E-03  0.3798023E+05  0.3763397E+05  0.6116179E-03  0.2098083E-02
  0.1752381E+01 -0.2799449E-02 -0.5073547E-03  0.3751762E+05  0.3716093E+05  0.4005432E-03  0.3604889E-02
  0.1783333E+01  0.2181864E-02  0.4234314E-03  0.3708124E+05  0.3665188E+05  0.7529571E-03  0.1651764E-02
  0.1814286E+01  0.3364143E-04 -0.3311157E-02  0.3669055E+05  0.3610093E+05  0.9503703E-03  0.1682281E-02
  0.1845238E+01 -0.2125205E-02 -0.4940033E-03  0.3633938E+05  0.3552395E+05  0.7276966E-03  0.2334595E-02
  0.1876190E+01  0.7262642E-02  0.2815247E-02  0.3602625E+05  0.3491229E+05  0.4635729E-03  0.2159119E-02
  0.1907143E+01  0.4840523E-02  0.7402420E-02  0.3574484E+05  0.3427244E+05  0.8560924E-03  0.2182007E-02
  0.1938095E+01  0.1062867E-02 -0.5071640E-02  0.3548952E+05  0.3360936E+05  0.1023501E-03  0.2456665E-02
  0.1969048E+01  0.1356132E-02 -0.2510071E-02  0.3526575E+05  0.3292439E+05  0.6509433E-03  0.2285004E-02
  0.2000000E+01  0.8773804E-03 -0.3147125E-03  0.3506733E+05  0.3222060E+05  0.3051758E-03  0.2933502E-02
Zone t="Motion of body    1 in DoF   3",I=    64,F=POINT
  0.5000000E-01  0.5198409E+03  0.4600092E-04  0.3407001E-02  0.1217068E-04  0.1221581E+04  0.1170882E-05
  0.8095238E-01  0.5135128E+03  0.1979424E-03  0.5625276E-02  0.2907263E-04  0.1222718E+04  0.2387058E-05
  0.1119048E+00  0.5198896E+03  0.5577373E-03  0.3673066E-02  0.3341414E-04  0.1232786E+04  0.9661984E-05
  0.1428571E+00  0.5105749E+03  0.1261538E-02  0.3229379E-02  0.3583090E-04  0.1226504E+04  0.2125316E-04
  0.1738095E+00  0.5221363E+03  0.2520756E-02  0.3400502E-02  0.4898466E-04  0.1239206E+04  0.3811962E-04
  0.2047619E+00  0.5183802E+03  0.4678031E-02  0.3940227E-02  0.7701189E-04  0.1233697E+04  0.8337292E-04
  0.2357143E+00  0.5261033E+03  0.8320803E-02  0.3198277E-02  0.7692022E-04  0.1232418E+04  0.1422491E-03
  0.2666667E+00  0.5315195E+03  0.1432800E-01  0.4275441E-02  0.1288510E-03  0.1236334E+04  0.2339085E-03
  0.2976190E+00  0.5289301E+03  0.2424611E-01  0.5764618E-02  0.1841073E-03  0.1231326E+04  0.3993575E-03
  0.3285715E+00  0.5376511E+03  0.4060702E-01  0.4122982E-02  0.1874852E-03  0.1232510E+04  0.6562504E-03
  0.3595238E+00  0.5471257E+03  0.6746984E-01  0.7187230E-02  0.3163703E-03  0.1234161E+04  0.1105068E-02
  0.3904762E+00  0.5493318E+03  0.1114803E+00  0.6252381E-03  0.7493599E-04  0.1233414E+04  0.1875803E-02
  0.4214286E+00  0.5638853E+03  0.1819237E+00  0.5641548E-02  0.4181410E-03  0.1237317E+04  0.3131274E-02
  0.4523810E+00  0.5862938E+03  0.2946160E+00  0.3105264E-02  0.3009870E-03  0.1235515E+04  0.5129965E-02
  0.4833333E+00  0.5764647E+03  0.4656917E+00  0.8573203E-02  0.8978508E-03  0.1238232E+04  0.8165135E-02
  0.5142857E+00  0.5907673E+03  0.7236156E+00  0.5027188E-02  0.7438223E-03  0.1234703E+04  0.1293990E-01
  0.5452381E+00  0.6057060E+03  0.1100413E+01  0.3498194E-04  0.1279351E-03  0.1238310E+04  0.1998750E-01
  0.5761905E+00  0.6268436E+03  0.1635093E+01  0.4220600E-02  0.7776455E-03  0.1242225E+04  0.3024593E-01
  0.6071429E+00  0.6267081E+03  0.2384694E+01  0.6416544E-02  0.1432111E-02  0.1235826E+04  0.4469863E-01
  0.6380953E+00  0.6332516E+03  0.3405798E+01  0.5582197E-02  0.1278565E-02  0.1240564E+04  0.6487559E-01
  0.6690477E+00  0.6543449E+03  0.4781322E+01  0.6716582E-02  0.1768209E-02  0.1241555E+04  0.9287444E-01
  0.7000000E+00  0.6811442E+03  0.6618052E+01  0.1963207E-02  0.8598790E-03  0.1239717E+04  0.1314374E+00
  0.7309524E+00  0.7008957E+03  0.9034136E+01  0.5548893E-02  0.1752988E-02  0.1244867E+04  0.1825173E+00
  0.7619048E+00  0.7058756E+03  0.1217040E+02  0.4096806E-02  0.1656745E-02  0.1245048E+04  0.2498123E+00
  0.7928572E+00  0.7246592E+03  0.1618525E+02  0.5525812E-02  0.2495930E-02  0.1241812E+04  0.3381136E+00
  0.8238096E+00  0.7478095E+03  0.2130055E+02  0.6765244E-02  0.3101993E-02  0.1241963E+04  0.4540678E+00
  0.8547620E+00  0.7717181E+03  0.2775526E+02  0.2916490E-02  0.1179039E-02  0.1247856E+04  0.6032685E+00
  0.8857143E+00  0.8045861E+03  0.3579848E+02  0.5562382E-02  0.3293008E-02  0.1251528E+04  0.7975169E+00
  0.9166667E+00  0.8384369E+03  0.4577990E+02  0.1643788E-02  0.1360007E-02  0.1249180E+04  0.1043475E+01
  0.9476191E+00  0.8555075E+03  0.5813403E+02  0.2369042E-02  0.1990795E-02  0.1247532E+04  0.1351312E+01
  0.9785714E+00  0.8733528E+03  0.7318871E+02  0.3272565E-02  0.2291769E-02  0.1253013E+04  0.1735936E+01
  0.1009524E+01  0.9003324E+03  0.9122378E+02  0.3255358E-02  0.2166122E-02  0.1255155E+04  0.2196755E+01
  0.1040476E+01  0.9367742E+03  0.1127614E+03  0.1878978E-02  0.1642004E-02  0.1254666E+04  0.2780987E+01
  0.1071429E+01  0.9730815E+03  0.1384438E+03  0.3053030E-02  0.3362030E-02  0.1252804E+04  0.3480356E+01
  0.1102381E+01  0.1010642E+04  0.1689953E+03  0.5626637E-02  0.5983382E-02  0.1257177E+04  0.4372198E+01
  0.1133333E+01  0.1047700E+04  0.2048785E+03 -0.4173728E-03 -0.1064807E-02  0.1264571E+04  0.5429736E+01
  0.1164286E+01  0.1079676E+04  0.2467400E+03  0.2850491E-03  0.3342032E-03  0.1266569E+04  0.6699955E+01
  0.1195238E+01  0.1106520E+04  0.2954348E+03 -0.9702401E-03 -0.1329184E-02  0.1265780E+04  0.8212735E+01
  0.1226190E+01  0.1135727E+04  0.3510487E+03  0.8850839E-03  0.1007676E-02  0.1263791E+04  0.9924955E+01
  0.1257143E+01  0.1160667E+04  0.4147079E+03  0.1412522E-02  0.3971577E-02  0.1263657E+04  0.1194082E+02
  0.1288095E+01  0.1191790E+04  0.4854352E+03  0.1855381E-02  0.2772033E-02  0.1269294E+04  0.1427252E+02
  0.1319048E+01  0.1217781E+04  0.5648584E+03  0.4945335E-03  0.1997352E-02  0.1274993E+04  0.1708837E+02
  0.1350000E+01  0.1241998E+04  0.6529202E+03  0.3570274E-02  0.5908489E-02  0.1277516E+04  0.2023513E+02
  0.1380952E+01  0.1265374E+04  0.7501785E+03  0.1763771E-02  0.2990007E-02  0.1278715E+04  0.2388119E+02
  0.1411905E+01  0.1195288E+04  0.8159678E+03  0.1737263E-02  0.3085732E-02  0.1269141E+04  0.2617269E+02
  0.1442857E+01  0.1209175E+04  0.9257249E+03  0.1729078E-02  0.3533721E-02  0.1269480E+04  0.3041325E+02
  0.1473810E+01  0.1218479E+04  0.1043896E+04  0.7984980E-03  0.4761934E-02  0.1272568E+04  0.3498475E+02
  0.1504762E+01  0.1219805E+04  0.1168922E+04  0.2149751E-02  0.2603292E-02  0.1278342E+04  0.4063641E+02
  0.1535714E+01  0.1216545E+04  0.1300934E+04  0.1701532E-02  0.4353285E-02  0.1280712E+04  0.4643227E+02
  0.1566667E+01  0.1209263E+04  0.1437694E+04  0.2556659E-02  0.6298304E-02  0.1283057E+04  0.5258942E+02
  0.1597619E+01  0.1199341E+04  0.1578686E+04  0.8213822E-03 -0.4668236E-03  0.1281015E+04  0.5888429E+02
  0.1628572E+01  0.1184767E+04  0.1723031E+04  0.1913706E-02  0.2993107E-02  0.1277656E+04  0.6452460E+02
  0.1659524E+01  0.1162084E+04  0.1870505E+04  0.1167724E-02  0.2993345E-02  0.1276524E+04  0.7111584E+02
  0.1690476E+01  0.1136327E+04  0.2021604E+04  0.1629252E-02  0.4065752E-02  0.1277747E+04  0.7923816E+02
  0.1721429E+01  0.1103672E+04  0.2174771E+04  0.1196644E-02  0.1139641E-03  0.1282713E+04  0.8789754E+02
  0.1752381E+01  0.1067511E+04  0.2324255E+04  0.9730589E-03  0.1826763E-02  0.1288339E+04  0.9778035E+02
  0.1783333E+01  0.1029810E+04  0.2470931E+04  0.1319814E-02  0.4261017E-02  0.1290193E+04  0.1067302E+03
  0.1814286E+01  0.9890604E+03  0.2613569E+04  0.1101757E-02  0.2219200E-02  0.1291759E+04  0.1156529E+03
  0.1845238E+01  0.9427575E+03  0.2755335E+04  0.1370633E-02  0.3034830E-02  0.1286932E+04  0.1232612E+03
  0.1876190E+01  0.8947581E+03  0.2892619E+04  0.1545243E-03  0.6003380E-03  0.1281153E+04  0.1294935E+03
  0.1907143E+01  0.8400854E+03  0.3026462E+04  0.2680289E-03  0.3411770E-02  0.1276247E+04  0.1366651E+03
  0.1938095E+01  0.7862961E+03  0.3157634E+04 -0.1220328E-03  0.1517773E-02  0.1274331E+04  0.1452771E+03
  0.1969048E+01  0.7316683E+03  0.3286824E+04  0.1166273E-02  0.2527237E-04  0.1276543E+04  0.1562601E+03
  0.2000000E+01  0.6746647E+03  0.3405743E+04  0.1245499E-02  0.6251335E-03  0.1281336E+04  0.1699195E+03
