VARIABLES="w (rad/s)"
"abs(F   1   1)" "angle(F   1   1)"
"abs(F   1   2)" "angle(F   1   2)"
"abs(F   1   3)" "angle(F   1   3)"
Zone t="Diffraction force - beta =   0.000 deg",I=    64,F=POINT
  0.5000000E-01  0.4298362E+03 -0.1570795E+01  0.2997917E+03 -0.3094886E+01  0.1233066E+04 -0.1570795E+01
  0.8095238E-01  0.7007883E+03 -0.1570793E+01  0.7782728E+03 -0.3093271E+01  0.2003133E+04 -0.1570792E+01
  0.1119048E+00  0.9762802E+03 -0.1570789E+01  0.1479173E+04 -0.3091226E+01  0.2787578E+04 -0.1570787E+01
  0.1428571E+00  0.1259241E+04 -0.1570783E+01  0.2404395E+04 -0.3088636E+01  0.3594207E+04 -0.1570779E+01
  0.1738095E+00  0.1551144E+04 -0.1570775E+01  0.3558486E+04 -0.3085362E+01  0.4425527E+04 -0.1570768E+01
  0.2047619E+00  0.1856053E+04 -0.1570763E+01  0.4946332E+04 -0.3081252E+01  0.5293351E+04 -0.1570753E+01
  0.2357143E+00  0.2176315E+04 -0.1570746E+01  0.6574056E+04 -0.3076056E+01  0.6202129E+04 -0.1570730E+01
  0.2666667E+00  0.2515640E+04 -0.1570720E+01  0.8450317E+04 -0.3069735E+01  0.7165957E+04 -0.1570696E+01
  0.2976190E+00  0.2879349E+04 -0.1570683E+01  0.1057917E+05 -0.3061773E+01  0.8196520E+04 -0.1570646E+01
  0.3285715E+00  0.3270548E+04 -0.1570627E+01  0.1297247E+05 -0.3052244E+01  0.9302686E+04 -0.1570572E+01
  0.3595238E+00  0.3693864E+04 -0.1570544E+01  0.1562564E+05 -0.3040662E+01  0.1049767E+05 -0.1570461E+01
  0.3904762E+00  0.4152485E+04 -0.1570419E+01  0.1854688E+05 -0.3026911E+01  0.1178763E+05 -0.1570293E+01
  0.4214286E+00  0.4651893E+04 -0.1570238E+01  0.2169786E+05 -0.3011486E+01  0.1318976E+05 -0.1570049E+01
  0.4523810E+00  0.5188132E+04 -0.1569973E+01  0.2510156E+05 -0.2993684E+01  0.1468632E+05 -0.1569692E+01
  0.4833333E+00  0.5760907E+04 -0.1569607E+01  0.2869826E+05 -0.2975606E+01  0.1628432E+05 -0.1569196E+01
  0.5142857E+00  0.6364659E+04 -0.1569101E+01  0.3247339E+05 -0.2955976E+01  0.1795676E+05 -0.1568507E+01
  0.5452381E+00  0.6992494E+04 -0.1568431E+01  0.3642794E+05 -0.2936444E+01  0.1968188E+05 -0.1567591E+01
  0.5761905E+00  0.7633037E+04 -0.1567566E+01  0.4052775E+05 -0.2917238E+01  0.2142658E+05 -0.1566398E+01
  0.6071429E+00  0.8281881E+04 -0.1566459E+01  0.4475283E+05 -0.2897542E+01  0.2318390E+05 -0.1564864E+01
  0.6380953E+00  0.8929047E+04 -0.1565093E+01  0.4911778E+05 -0.2879025E+01  0.2491685E+05 -0.1562955E+01
  0.6690477E+00  0.9565374E+04 -0.1563417E+01  0.5357393E+05 -0.2860664E+01  0.2657929E+05 -0.1560586E+01
  0.7000000E+00  0.1018027E+05 -0.1561383E+01  0.5809731E+05 -0.2842203E+01  0.2813729E+05 -0.1557674E+01
  0.7309524E+00  0.1076917E+05 -0.1558969E+01  0.6272256E+05 -0.2824638E+01  0.2960128E+05 -0.1554182E+01
  0.7619048E+00  0.1132454E+05 -0.1556132E+01  0.6740139E+05 -0.2807476E+01  0.3093400E+05 -0.1550022E+01
  0.7928572E+00  0.1183440E+05 -0.1552836E+01  0.7208384E+05 -0.2790474E+01  0.3208145E+05 -0.1545095E+01
  0.8238096E+00  0.1229087E+05 -0.1549056E+01  0.7678023E+05 -0.2773939E+01  0.3301839E+05 -0.1539328E+01
  0.8547620E+00  0.1268106E+05 -0.1544779E+01  0.8147947E+05 -0.2758003E+01  0.3369498E+05 -0.1532626E+01
  0.8857143E+00  0.1299391E+05 -0.1539998E+01  0.8614461E+05 -0.2742566E+01  0.3406805E+05 -0.1524889E+01
  0.9166667E+00  0.1321905E+05 -0.1534736E+01  0.9076238E+05 -0.2727721E+01  0.3410567E+05 -0.1516032E+01
  0.9476191E+00  0.1334492E+05 -0.1529030E+01  0.9531202E+05 -0.2713477E+01  0.3376850E+05 -0.1505951E+01
  0.9785714E+00  0.1335864E+05 -0.1522952E+01  0.9976591E+05 -0.2699764E+01  0.3300273E+05 -0.1494497E+01
  0.1009524E+01  0.1324926E+05 -0.1516624E+01  0.1041035E+06 -0.2686650E+01  0.3176601E+05 -0.1481516E+01
  0.1040476E+01  0.1300407E+05 -0.1510222E+01  0.1083110E+06 -0.2674212E+01  0.3000428E+05 -0.1466737E+01
  0.1071429E+01  0.1260706E+05 -0.1503984E+01  0.1123654E+06 -0.2662410E+01  0.2766225E+05 -0.1449707E+01
  0.1102381E+01  0.1204819E+05 -0.1498313E+01  0.1162653E+06 -0.2651423E+01  0.2468979E+05 -0.1429636E+01
  0.1133333E+01  0.1131449E+05 -0.1493792E+01  0.1199821E+06 -0.2641204E+01  0.2103268E+05 -0.1404823E+01
  0.1164286E+01  0.1039792E+05 -0.1491418E+01  0.1235195E+06 -0.2632002E+01  0.1666144E+05 -0.1371378E+01
  0.1195238E+01  0.9289396E+04 -0.1492873E+01  0.1268433E+06 -0.2623595E+01  0.1154974E+05 -0.1316746E+01
  0.1226190E+01  0.7984689E+04 -0.1501372E+01  0.1299364E+06 -0.2615889E+01  0.5726717E+04 -0.1170922E+01
  0.1257143E+01  0.6484100E+04 -0.1523890E+01  0.1328201E+06 -0.2608615E+01  0.1850794E+04  0.8461671E+00
  0.1288095E+01  0.4789697E+04 -0.1579209E+01  0.1353598E+06 -0.2602858E+01  0.8841489E+04  0.1589422E+01
  0.1319048E+01  0.2949900E+04 -0.1737824E+01  0.1376666E+06 -0.2597613E+01  0.1717573E+05  0.1687212E+01
  0.1350000E+01  0.1353685E+04 -0.2468843E+01  0.1396904E+06 -0.2593242E+01  0.2636319E+05  0.1735347E+01
  0.1380952E+01  0.2245928E+04  0.2468056E+01  0.1414162E+06 -0.2589846E+01  0.3637795E+05  0.1769506E+01
  0.1411905E+01  0.4235235E+04  0.2190065E+01  0.1422179E+06 -0.2588159E+01  0.4533646E+05  0.1795308E+01
  0.1442857E+01  0.6890356E+04  0.2089325E+01  0.1433597E+06 -0.2586814E+01  0.5675537E+05  0.1821231E+01
  0.1473810E+01  0.9775816E+04  0.2051204E+01  0.1442100E+06 -0.2586856E+01  0.6893976E+05  0.1844955E+01
  0.1504762E+01  0.1284922E+05  0.2036423E+01  0.1447812E+06 -0.2587956E+01  0.8182185E+05  0.1867299E+01
  0.1535714E+01  0.1608905E+05  0.2032691E+01  0.1450718E+06 -0.2590260E+01  0.9533805E+05  0.1888713E+01
  0.1566667E+01  0.1947754E+05  0.2034833E+01  0.1450756E+06 -0.2593812E+01  0.1094249E+06  0.1909364E+01
  0.1597619E+01  0.2299792E+05  0.2040338E+01  0.1448034E+06 -0.2598706E+01  0.1240240E+06  0.1929275E+01
  0.1628572E+01  0.2663008E+05  0.2047837E+01  0.1442569E+06 -0.2604801E+01  0.1390673E+06  0.1948473E+01
  0.1659524E+01  0.3035555E+05  0.2056513E+01  0.1434581E+06 -0.2612352E+01  0.1544819E+06  0.1966965E+01
  0.1690476E+01  0.3415628E+05  0.2065812E+01  0.1424108E+06 -0.2621360E+01  0.1701805E+06  0.1984770E+01
  0.1721429E+01  0.3800709E+05  0.2075470E+01  0.1411509E+06 -0.2631634E+01  0.1860719E+06  0.2001895E+01
  0.1752381E+01  0.4188906E+05  0.2085204E+01  0.1396952E+06 -0.2642967E+01  0.2020718E+06  0.2018352E+01
  0.1783333E+01  0.4577806E+05  0.2094876E+01  0.1380355E+06 -0.2655353E+01  0.2180736E+06  0.2034150E+01
  0.1814286E+01  0.4965448E+05  0.2104339E+01  0.1361633E+06 -0.2668730E+01  0.2339887E+06  0.2049295E+01
  0.1845238E+01  0.5349739E+05  0.2113415E+01  0.1340923E+06 -0.2683024E+01  0.2497202E+06  0.2063725E+01
  0.1876190E+01  0.5727856E+05  0.2122165E+01  0.1317854E+06 -0.2697905E+01  0.2651630E+06  0.2077502E+01
  0.1907143E+01  0.6097854E+05  0.2130554E+01  0.1292445E+06 -0.2713358E+01  0.2802008E+06  0.2090744E+01
  0.1938095E+01  0.6457850E+05  0.2138431E+01  0.1264469E+06 -0.2729103E+01  0.2947493E+06  0.2103307E+01
  0.1969048E+01  0.6805123E+05  0.2145808E+01  0.1233539E+06 -0.2745059E+01  0.3087033E+06  0.2115222E+01
  0.2000000E+01  0.7137354E+05  0.2152664E+01  0.1199102E+06 -0.2761360E+01  0.3219515E+06  0.2126509E+01
