VARIABLES="w (rad/s)"
"abs(F   1   1)" "angle(F   1   1)"
"abs(F   1   2)" "angle(F   1   2)"
"abs(F   1   3)" "angle(F   1   3)"
Zone t="Diffraction force - beta =   0.000 deg",I=    64,F=POINT
  0.5000000E-01  0.3408614E+03 -0.1570804E+01  0.1120962E+06 -0.7671736E-05  0.3964327E+01 -0.1571158E+01
  0.8095238E-01  0.5556403E+03 -0.1570782E+01  0.1119881E+06 -0.2065482E-04  0.6458713E+01 -0.1571028E+01
  0.1119048E+00  0.7761264E+03 -0.1570810E+01  0.1118287E+06 -0.4106260E-04  0.9008228E+01 -0.1570950E+01
  0.1428571E+00  0.1003370E+04 -0.1570788E+01  0.1116182E+06 -0.7051963E-04  0.1167017E+02 -0.1570928E+01
  0.1738095E+00  0.1242997E+04 -0.1570798E+01  0.1113561E+06 -0.1114911E-03  0.1447035E+02 -0.1570907E+01
  0.2047619E+00  0.1493674E+04 -0.1570797E+01  0.1110422E+06 -0.1674949E-03  0.1744976E+02 -0.1570885E+01
  0.2357143E+00  0.1762184E+04 -0.1570796E+01  0.1106760E+06 -0.2438259E-03  0.2058689E+02 -0.1570867E+01
  0.2666667E+00  0.2052658E+04 -0.1570795E+01  0.1102566E+06 -0.3470499E-03  0.2409938E+02 -0.1570849E+01
  0.2976190E+00  0.2365118E+04 -0.1570792E+01  0.1097838E+06 -0.4879785E-03  0.2787029E+02 -0.1570846E+01
  0.3285715E+00  0.2710148E+04 -0.1570786E+01  0.1092566E+06 -0.6783065E-03  0.3200406E+02 -0.1570836E+01
  0.3595238E+00  0.3092383E+04 -0.1570783E+01  0.1086761E+06 -0.9358433E-03  0.3668568E+02 -0.1570822E+01
  0.3904762E+00  0.3513687E+04 -0.1570774E+01  0.1080408E+06 -0.1281448E-02  0.4193493E+02 -0.1570811E+01
  0.4214286E+00  0.3978674E+04 -0.1570764E+01  0.1073535E+06 -0.1729642E-02  0.4762401E+02 -0.1570792E+01
  0.4523810E+00  0.4496919E+04 -0.1570747E+01  0.1066134E+06 -0.2315613E-02  0.5410775E+02 -0.1570775E+01
  0.4833333E+00  0.5066956E+04 -0.1570727E+01  0.1058254E+06 -0.3029117E-02  0.6141112E+02 -0.1570749E+01
  0.5142857E+00  0.5679615E+04 -0.1570693E+01  0.1049896E+06 -0.3910988E-02  0.6938418E+02 -0.1570716E+01
  0.5452381E+00  0.6339973E+04 -0.1570650E+01  0.1041060E+06 -0.4954482E-02  0.7782985E+02 -0.1570671E+01
  0.5761905E+00  0.7050117E+04 -0.1570596E+01  0.1031797E+06 -0.6167098E-02  0.8726097E+02 -0.1570614E+01
  0.6071429E+00  0.7804224E+04 -0.1570522E+01  0.1022105E+06 -0.7585236E-02  0.9772232E+02 -0.1570537E+01
  0.6380953E+00  0.8588329E+04 -0.1570431E+01  0.1011972E+06 -0.9184155E-02  0.1079415E+03 -0.1570443E+01
  0.6690477E+00  0.9401723E+04 -0.1570314E+01  0.1001448E+06 -0.1100290E-01  0.1187939E+03 -0.1570325E+01
  0.7000000E+00  0.1026148E+05 -0.1570170E+01  0.9905406E+05 -0.1306619E-01  0.1310360E+03 -0.1570179E+01
  0.7309524E+00  0.1116060E+05 -0.1569992E+01  0.9792550E+05 -0.1536711E-01  0.1437909E+03 -0.1570001E+01
  0.7619048E+00  0.1209103E+05 -0.1569775E+01  0.9676423E+05 -0.1793325E-01  0.1573687E+03 -0.1569784E+01
  0.7928572E+00  0.1304651E+05 -0.1569511E+01  0.9557070E+05 -0.2078157E-01  0.1713749E+03 -0.1569520E+01
  0.8238096E+00  0.1402470E+05 -0.1569199E+01  0.9434564E+05 -0.2392425E-01  0.1854043E+03 -0.1569205E+01
  0.8547620E+00  0.1503748E+05 -0.1568826E+01  0.9309232E+05 -0.2737397E-01  0.2003783E+03 -0.1568834E+01
  0.8857143E+00  0.1608629E+05 -0.1568388E+01  0.9181564E+05 -0.3114522E-01  0.2166577E+03 -0.1568394E+01
  0.9166667E+00  0.1717086E+05 -0.1567874E+01  0.9051502E+05 -0.3524902E-01  0.2341691E+03 -0.1567880E+01
  0.9476191E+00  0.1828475E+05 -0.1567279E+01  0.8919498E+05 -0.3969589E-01  0.2522879E+03 -0.1567284E+01
  0.9785714E+00  0.1941952E+05 -0.1566588E+01  0.8785752E+05 -0.4449689E-01  0.2706767E+03 -0.1566594E+01
  0.1009524E+01  0.2056722E+05 -0.1565796E+01  0.8650548E+05 -0.4966278E-01  0.2890508E+03 -0.1565799E+01
  0.1040476E+01  0.2173101E+05 -0.1564891E+01  0.8513893E+05 -0.5520258E-01  0.3083986E+03 -0.1564894E+01
  0.1071429E+01  0.2292993E+05 -0.1563863E+01  0.8375900E+05 -0.6112447E-01  0.3293842E+03 -0.1563868E+01
  0.1102381E+01  0.2415934E+05 -0.1562704E+01  0.8237072E+05 -0.6743807E-01  0.3511224E+03 -0.1562711E+01
  0.1133333E+01  0.2541402E+05 -0.1561403E+01  0.8097738E+05 -0.7414928E-01  0.3735147E+03 -0.1561410E+01
  0.1164286E+01  0.2668825E+05 -0.1559946E+01  0.7958126E+05 -0.8126539E-01  0.3971122E+03 -0.1559955E+01
  0.1195238E+01  0.2797831E+05 -0.1558325E+01  0.7818307E+05 -0.8878963E-01  0.4219565E+03 -0.1558332E+01
  0.1226190E+01  0.2928390E+05 -0.1556525E+01  0.7678202E+05 -0.9672520E-01  0.4478025E+03 -0.1556533E+01
  0.1257143E+01  0.3058091E+05 -0.1554538E+01  0.7538324E+05 -0.1051689E+00  0.4725638E+03 -0.1554541E+01
  0.1288095E+01  0.3190202E+05 -0.1552353E+01  0.7398324E+05 -0.1138502E+00  0.4982028E+03 -0.1552349E+01
  0.1319048E+01  0.3322064E+05 -0.1549965E+01  0.7258876E+05 -0.1230524E+00  0.5246711E+03 -0.1549963E+01
  0.1350000E+01  0.3455326E+05 -0.1547371E+01  0.7120170E+05 -0.1326896E+00  0.5526307E+03 -0.1547374E+01
  0.1380952E+01  0.3589802E+05 -0.1544563E+01  0.6981956E+05 -0.1427520E+00  0.5821115E+03 -0.1544587E+01
  0.1411905E+01  0.3718255E+05 -0.1541654E+01  0.6845750E+05 -0.1531760E+00  0.6086895E+03 -0.1541686E+01
  0.1442857E+01  0.3853648E+05 -0.1538420E+01  0.6709521E+05 -0.1641056E+00  0.6395848E+03 -0.1538452E+01
  0.1473810E+01  0.3988636E+05 -0.1534960E+01  0.6574545E+05 -0.1754715E+00  0.6711943E+03 -0.1534998E+01
  0.1504762E+01  0.4122427E+05 -0.1531270E+01  0.6440810E+05 -0.1872726E+00  0.7029395E+03 -0.1531312E+01
  0.1535714E+01  0.4254856E+05 -0.1527352E+01  0.6308378E+05 -0.1995098E+00  0.7352952E+03 -0.1527390E+01
  0.1566667E+01  0.4384211E+05 -0.1523205E+01  0.6177577E+05 -0.2121901E+00  0.7679558E+03 -0.1523220E+01
  0.1597619E+01  0.4510948E+05 -0.1518840E+01  0.6047915E+05 -0.2253041E+00  0.8006647E+03 -0.1518817E+01
  0.1628572E+01  0.4634886E+05 -0.1514264E+01  0.5919485E+05 -0.2388527E+00  0.8340054E+03 -0.1514202E+01
  0.1659524E+01  0.4756157E+05 -0.1509516E+01  0.5792373E+05 -0.2528399E+00  0.8678515E+03 -0.1509459E+01
  0.1690476E+01  0.4874828E+05 -0.1504622E+01  0.5666961E+05 -0.2672815E+00  0.9016071E+03 -0.1504567E+01
  0.1721429E+01  0.4989844E+05 -0.1499599E+01  0.5543325E+05 -0.2821707E+00  0.9353804E+03 -0.1499593E+01
  0.1752381E+01  0.5100961E+05 -0.1494472E+01  0.5421541E+05 -0.2975028E+00  0.9693020E+03 -0.1494511E+01
  0.1783333E+01  0.5207543E+05 -0.1489265E+01  0.5301713E+05 -0.3132815E+00  0.1003597E+04 -0.1489287E+01
  0.1814286E+01  0.5308379E+05 -0.1484001E+01  0.5183893E+05 -0.3295047E+00  0.1038008E+04 -0.1483983E+01
  0.1845238E+01  0.5403684E+05 -0.1478719E+01  0.5067724E+05 -0.3461646E+00  0.1072407E+04 -0.1478675E+01
  0.1876190E+01  0.5492987E+05 -0.1473456E+01  0.4953248E+05 -0.3632591E+00  0.1106717E+04 -0.1473368E+01
  0.1907143E+01  0.5575846E+05 -0.1468272E+01  0.4840491E+05 -0.3807882E+00  0.1140522E+04 -0.1468209E+01
  0.1938095E+01  0.5652318E+05 -0.1463235E+01  0.4729640E+05 -0.3987656E+00  0.1172834E+04 -0.1463168E+01
  0.1969048E+01  0.5721410E+05 -0.1458382E+01  0.4620834E+05 -0.4171812E+00  0.1204174E+04 -0.1458350E+01
  0.2000000E+01  0.5783039E+05 -0.1453764E+01  0.4513974E+05 -0.4360421E+00  0.1233777E+04 -0.1453803E+01
