VARIABLES="w (rad/s)"
"A   1   1" "B   1   1"
"A   1   2" "B   1   2"
"A   1   3" "B   1   3"
Zone t="Motion of body    1 in DoF   1",I=    64,F=POINT
  0.5000000E-01  0.2241500E+06  0.4409465E-01 -0.1091003E-01 -0.4983650E-04 -0.7189031E+06 -0.1403787E+00
  0.8095238E-01  0.2256466E+06  0.1939320E+00 -0.9424546E-03 -0.1663761E-04 -0.7225711E+06 -0.6163974E+00
  0.1119048E+00  0.2260583E+06  0.5437623E+00  0.1097659E-01  0.5078129E-04 -0.7237997E+06 -0.1727727E+01
  0.1428571E+00  0.2265365E+06  0.1221254E+01  0.6408691E-03 -0.5593151E-04 -0.7246882E+06 -0.3876737E+01
  0.1738095E+00  0.2270630E+06  0.2426172E+01  0.1229064E-01  0.1772456E-03 -0.7263263E+06 -0.7695904E+01
  0.2047619E+00  0.2275505E+06  0.4464923E+01 -0.1341354E-02 -0.1125783E-03 -0.7274355E+06 -0.1414929E+02
  0.2357143E+00  0.2280969E+06  0.7840657E+01 -0.1145796E-01 -0.5774423E-03 -0.7285042E+06 -0.2481375E+02
  0.2666667E+00  0.2287106E+06  0.1332648E+02  0.1132965E-01  0.2159774E-03 -0.7303356E+06 -0.4212390E+02
  0.2976190E+00  0.2295179E+06  0.2227074E+02 -0.4101563E-03 -0.4213005E-03 -0.7321266E+06 -0.7027763E+02
  0.3285715E+00  0.2303920E+06  0.3668751E+02 -0.5572775E-03 -0.4041791E-03 -0.7343212E+06 -0.1155674E+03
  0.3595238E+00  0.2312173E+06  0.5995387E+02 -0.2376733E-02 -0.2314448E-03 -0.7369824E+06 -0.1885832E+03
  0.3904762E+00  0.2324581E+06  0.9727264E+02 -0.1594357E-01 -0.1249492E-02 -0.7400208E+06 -0.3052963E+03
  0.4214286E+00  0.2337006E+06  0.1556786E+03  0.7748360E-02  0.2527237E-03 -0.7430225E+06 -0.4874295E+03
  0.4523810E+00  0.2352157E+06  0.2470813E+03  0.2496016E-02 -0.7510185E-03 -0.7471544E+06 -0.7718959E+03
  0.4833333E+00  0.2365636E+06  0.3819892E+03 -0.2588732E-02 -0.7586479E-03 -0.7510334E+06 -0.1190552E+04
  0.5142857E+00  0.2384464E+06  0.5814787E+03 -0.5340577E-02 -0.3250122E-02 -0.7554549E+06 -0.1806672E+04
  0.5452381E+00  0.2404218E+06  0.8637506E+03  0.2653030E-01  0.4908085E-02 -0.7605135E+06 -0.2675552E+04
  0.5761905E+00  0.2424159E+06  0.1252222E+04  0.6779442E-02  0.2741814E-02 -0.7661886E+06 -0.3867863E+04
  0.6071429E+00  0.2448918E+06  0.1783073E+04 -0.5227481E-02 -0.4467964E-02 -0.7730648E+06 -0.5490691E+04
  0.6380953E+00  0.2472555E+06  0.2481221E+04  0.5739126E-02 -0.3204346E-03 -0.7787610E+06 -0.7611113E+04
  0.6690477E+00  0.2499916E+06  0.3394565E+04  0.3466623E-02 -0.1047134E-02 -0.7858812E+06 -0.1037352E+05
  0.7000000E+00  0.2530693E+06  0.4575721E+04  0.2702985E-02  0.1110077E-02 -0.7937595E+06 -0.1392664E+05
  0.7309524E+00  0.2558629E+06  0.6066111E+04  0.4258544E-02 -0.1331329E-02 -0.8011831E+06 -0.1839043E+05
  0.7619048E+00  0.2590689E+06  0.7937560E+04  0.8331298E-02 -0.6828308E-03 -0.8101429E+06 -0.2397132E+05
  0.7928572E+00  0.2623764E+06  0.1025594E+05 -0.3926045E-02 -0.9895325E-02 -0.8179377E+06 -0.3081795E+05
  0.8238096E+00  0.2660445E+06  0.1310453E+05  0.2963557E-02  0.1663208E-02 -0.8270029E+06 -0.3918289E+05
  0.8547620E+00  0.2692695E+06  0.1654306E+05  0.6569355E-02  0.7553101E-03 -0.8344316E+06 -0.4920243E+05
  0.8857143E+00  0.2727288E+06  0.2067907E+05 -0.6201959E-02 -0.1094055E-01 -0.8430321E+06 -0.6119190E+05
  0.9166667E+00  0.2760475E+06  0.2558677E+05 -0.9321733E-03 -0.5508423E-02 -0.8507892E+06 -0.7530013E+05
  0.9476191E+00  0.2793664E+06  0.3135710E+05 -0.4895081E-02 -0.6820679E-02 -0.8589618E+06 -0.9179445E+05
  0.9785714E+00  0.2821061E+06  0.3801923E+05  0.7359860E-02  0.1235962E-02 -0.8642107E+06 -0.1105871E+06
  0.1009524E+01  0.2848768E+06  0.4571024E+05  0.3385724E-02  0.4058838E-02 -0.8698613E+06 -0.1321313E+06
  0.1040476E+01  0.2869272E+06  0.5442553E+05  0.2111788E-02 -0.1831055E-02 -0.8726981E+06 -0.1562382E+06
  0.1071429E+01  0.2887443E+06  0.6426176E+05 -0.2734375E-02 -0.1361084E-01 -0.8748558E+06 -0.1831807E+06
  0.1102381E+01  0.2896705E+06  0.7517562E+05  0.1661000E-02  0.3662109E-03 -0.8749749E+06 -0.2128274E+06
  0.1133333E+01  0.2894408E+06  0.8707770E+05  0.5924000E-02  0.1129150E-02 -0.8711394E+06 -0.2446521E+06
  0.1164286E+01  0.2886683E+06  0.1000544E+06  0.2201759E-02 -0.3143311E-02 -0.8667795E+06 -0.2791552E+06
  0.1195238E+01  0.2866015E+06  0.1137836E+06  0.5106527E-02 -0.9094238E-02 -0.8582221E+06 -0.3150007E+06
  0.1226190E+01  0.2837448E+06  0.1281892E+06 -0.5973150E-03 -0.1403809E-02 -0.8470881E+06 -0.3518955E+06
  0.1257143E+01  0.2797326E+06  0.1430782E+06 -0.3884055E-02 -0.7934570E-03 -0.8333668E+06 -0.3895265E+06
  0.1288095E+01  0.2745995E+06  0.1581354E+06  0.1099310E-01  0.1159668E-02 -0.8161192E+06 -0.4265982E+06
  0.1319048E+01  0.2681243E+06  0.1730979E+06  0.5830289E-02  0.4882812E-03 -0.7957208E+06 -0.4626769E+06
  0.1350000E+01  0.2610015E+06  0.1879645E+06 -0.5425347E-03  0.1281738E-02 -0.7746008E+06 -0.4980612E+06
  0.1380952E+01  0.2525610E+06  0.2019316E+06  0.5657328E-02 -0.3295898E-02 -0.7495018E+06 -0.5297631E+06
  0.1411905E+01  0.2431870E+06  0.2145350E+06  0.2074989E-02  0.1525879E-02 -0.7230064E+06 -0.5574410E+06
  0.1442857E+01  0.2339719E+06  0.2267670E+06  0.3299524E-02  0.1831055E-02 -0.6970291E+06 -0.5832759E+06
  0.1473810E+01  0.2240136E+06  0.2374842E+06  0.3064576E-02  0.2502441E-02 -0.6695528E+06 -0.6044028E+06
  0.1504762E+01  0.2135650E+06  0.2465168E+06  0.4705115E-02  0.2502441E-02 -0.6408493E+06 -0.6200154E+06
  0.1535714E+01  0.2032817E+06  0.2543571E+06 -0.2384629E-02 -0.5004883E-02 -0.6138345E+06 -0.6328349E+06
  0.1566667E+01  0.1932467E+06  0.2606960E+06  0.1238884E-01  0.6103516E-03 -0.5879434E+06 -0.6413029E+06
  0.1597619E+01  0.1832379E+06  0.2651308E+06  0.3438344E-02  0.1525879E-02 -0.5622203E+06 -0.6440888E+06
  0.1628572E+01  0.1737692E+06  0.2682822E+06 -0.6333736E-02  0.7934570E-03 -0.5385213E+06 -0.6436071E+06
  0.1659524E+01  0.1649270E+06  0.2702623E+06  0.2721625E-02 -0.9155273E-03 -0.5171073E+06 -0.6404019E+06
  0.1690476E+01  0.1563761E+06  0.2706783E+06  0.2419055E-02  0.4272461E-03 -0.4970527E+06 -0.6334498E+06
  0.1721429E+01  0.1483401E+06  0.2696354E+06 -0.3332874E-02  0.3051758E-03 -0.4783055E+06 -0.6221502E+06
  0.1752381E+01  0.1409110E+06  0.2675490E+06  0.4353731E-02 -0.3723145E-02 -0.4614675E+06 -0.6085323E+06
  0.1783333E+01  0.1342389E+06  0.2649533E+06 -0.2258871E-02  0.1403809E-02 -0.4472260E+06 -0.5948832E+06
  0.1814286E+01  0.1281642E+06  0.2614058E+06  0.3801481E-02 -0.1739502E-02 -0.4345635E+06 -0.5786629E+06
  0.1845238E+01  0.1226001E+06  0.2568900E+06  0.2381552E-02  0.6408691E-03 -0.4232042E+06 -0.5600064E+06
  0.1876190E+01  0.1177326E+06  0.2520469E+06  0.1099562E-01  0.2807617E-02 -0.4137998E+06 -0.5410634E+06
  0.1907143E+01  0.1135370E+06  0.2470211E+06  0.2240242E-03 -0.6103516E-03 -0.4062530E+06 -0.5222106E+06
  0.1938095E+01  0.1097154E+06  0.2415235E+06  0.1921033E-02 -0.9155273E-04 -0.3999569E+06 -0.5032489E+06
  0.1969048E+01  0.1063521E+06  0.2355889E+06  0.2355795E-02 -0.2166748E-02 -0.3947259E+06 -0.4831849E+06
  0.2000000E+01  0.1033629E+06  0.2289870E+06  0.1708984E-02  0.1785278E-02 -0.3903410E+06 -0.4608476E+06
Zone t="Motion of body    1 in DoF   2",I=    64,F=POINT
  0.5000000E-01  0.4806519E-02 -0.6675720E-05  0.1035212E+06  0.1969425E+03 -0.4272461E-01  0.1163483E-03
  0.8095238E-01 -0.2167646E-02 -0.3337860E-04  0.1023119E+06  0.3252653E+03 -0.3015855E-02  0.2422333E-03
  0.1119048E+00  0.6817757E-03  0.8010864E-04  0.1017485E+06  0.4630245E+03 -0.1145383E-01  0.3433228E-04
  0.1428571E+00 -0.6408691E-03 -0.5531311E-04  0.1013227E+06  0.6147553E+03 -0.2221680E-01  0.2021790E-03
  0.1738095E+00  0.7023223E-03  0.4959106E-04  0.1010732E+06  0.7849927E+03  0.9832513E-02  0.2136230E-03
  0.2047619E+00 -0.1862992E-02 -0.2517700E-03  0.1010880E+06  0.9813976E+03 -0.5425032E-01 -0.2746582E-03
  0.2357143E+00  0.4855069E-02  0.5340576E-04  0.1008031E+06  0.1212432E+04  0.3676905E-01 -0.1312256E-02
  0.2666667E+00  0.2002716E-02 -0.4959106E-04  0.1008626E+06  0.1482962E+04 -0.9155273E-03  0.7629395E-04
  0.2976190E+00 -0.9331055E-02  0.6179810E-03  0.1007211E+06  0.1812596E+04  0.6562500E-02 -0.2441406E-02
  0.3285715E+00  0.2043351E-02 -0.3051758E-04  0.1008254E+06  0.2202369E+04 -0.3343665E-01  0.1205444E-02
  0.3595238E+00  0.7130199E-02 -0.1449585E-03  0.1005703E+06  0.2673327E+04 -0.6043693E-01 -0.1068115E-02
  0.3904762E+00 -0.6174226E-02 -0.1205444E-02  0.1006832E+06  0.3229362E+04 -0.4376667E-02 -0.1037598E-02
  0.4214286E+00 -0.4344875E-03  0.5187988E-03  0.1000825E+06  0.3854389E+04 -0.2896583E-02  0.3112793E-02
  0.4523810E+00  0.4317434E-02  0.5187988E-03  0.9982248E+05  0.4584597E+04 -0.5288856E-01  0.1220703E-02
  0.4833333E+00  0.1452216E-02  0.4730225E-03  0.9905348E+05  0.5315412E+04  0.5556304E-02 -0.2136230E-02
  0.5142857E+00  0.3501045E-02 -0.1220703E-03  0.9821898E+05  0.6104557E+04 -0.2753364E-01 -0.9155273E-03
  0.5452381E+00 -0.4197833E-02 -0.1831055E-03  0.9746225E+05  0.6872320E+04 -0.4477689E-02 -0.1708984E-02
  0.5761905E+00 -0.6726477E-02 -0.3356934E-03  0.9623765E+05  0.7599134E+04 -0.8474302E-03  0.4699707E-02
  0.6071429E+00 -0.1115866E-01  0.3479004E-02  0.9527703E+05  0.8319401E+04  0.1849724E-01 -0.1220703E-01
  0.6380953E+00  0.1324782E-01  0.1373291E-02  0.9418257E+05  0.8929606E+04 -0.1913042E-01  0.1043701E-01
  0.6690477E+00  0.2554354E-02 -0.3417969E-02  0.9291708E+05  0.9488425E+04 -0.1824538E-01  0.1654053E-01
  0.7000000E+00 -0.5972726E-02  0.2441406E-03  0.9191062E+05  0.9991960E+04  0.1325335E-01 -0.1708984E-02
  0.7309524E+00  0.5427556E-03  0.1708984E-02  0.9087076E+05  0.1038107E+05 -0.3340034E-02  0.3845215E-02
  0.7619048E+00 -0.5567550E-02 -0.5493164E-03  0.8964603E+05  0.1069637E+05 -0.1922607E-02  0.3173828E-02
  0.7928572E+00  0.3002269E-02 -0.1220703E-03  0.8865226E+05  0.1092862E+05 -0.1354870E-01 -0.2441406E-02
  0.8238096E+00 -0.3593312E-02 -0.3662109E-03  0.8802644E+05  0.1108403E+05  0.1778134E-02 -0.3906250E-02
  0.8547620E+00 -0.7890366E-02  0.4760742E-02  0.8689840E+05  0.1110734E+05  0.1713745E-02  0.1464844E-02
  0.8857143E+00 -0.4617014E-02  0.3906250E-02  0.8591781E+05  0.1106409E+05  0.6064138E-02  0.7324219E-02
  0.9166667E+00  0.4993785E-03 -0.1586914E-02  0.8526886E+05  0.1094815E+05  0.1598011E-02  0.1086426E-01
  0.9476191E+00  0.5201023E-02  0.1708984E-02  0.8491261E+05  0.1078979E+05 -0.5616461E-01 -0.1477051E-01
  0.9785714E+00 -0.3524001E-02  0.6713867E-03  0.8416905E+05  0.1046737E+05  0.7983577E-02  0.2197266E-02
  0.1009524E+01  0.3499085E-02  0.6958008E-02  0.8352027E+05  0.1011247E+05 -0.2998784E-01 -0.2026367E-01
  0.1040476E+01 -0.2493083E-02  0.5432129E-02  0.8305695E+05  0.9712710E+04 -0.1079359E-01  0.3417969E-02
  0.1071429E+01  0.2768199E-02  0.3417969E-02  0.8284223E+05  0.9321773E+04 -0.1914063E-01  0.2325439E-01
  0.1102381E+01  0.5484760E-03 -0.5615234E-02  0.8293562E+05  0.8977827E+04 -0.2879066E-01  0.7141113E-02
  0.1133333E+01  0.8212819E-03 -0.4272461E-02  0.8243623E+05  0.8313279E+04 -0.2369600E-01 -0.1220703E-03
  0.1164286E+01 -0.1172961E-02 -0.3051758E-02  0.8217663E+05  0.7738953E+04 -0.1425901E-01  0.1300049E-01
  0.1195238E+01 -0.1493659E-02 -0.2563477E-02  0.8204967E+05  0.7173331E+04  0.1756645E-01  0.1129150E-01
  0.1226190E+01  0.6222030E-03  0.6835938E-02  0.8210568E+05  0.6692845E+04 -0.1274272E-01  0.1000977E-01
  0.1257143E+01  0.8496371E-03 -0.5249023E-02  0.8233151E+05  0.6334324E+04 -0.1087535E-01  0.6225586E-02
  0.1288095E+01  0.9713728E-03 -0.3112793E-02  0.8245947E+05  0.5818240E+04  0.6065157E-02  0.9704590E-02
  0.1319048E+01  0.3239050E-03 -0.6103516E-03  0.8238752E+05  0.5108387E+04 -0.1258602E-01 -0.9490967E-02
  0.1350000E+01  0.2938730E-03 -0.1464844E-02  0.8242664E+05  0.4531356E+04 -0.1446759E-01 -0.1525879E-03
  0.1380952E+01 -0.3668424E-02 -0.5920410E-02  0.8255996E+05  0.4026376E+04 -0.2828664E-02  0.1824951E-01
  0.1411905E+01  0.1966917E-02  0.2563477E-02  0.8276337E+05  0.3662792E+04 -0.2835819E-01 -0.4455566E-02
  0.1442857E+01 -0.2749603E-02 -0.7507324E-02  0.8304197E+05  0.3449075E+04 -0.4060953E-02  0.7446289E-02
  0.1473810E+01  0.9732100E-03 -0.2868652E-02  0.8337425E+05  0.3336015E+04 -0.1789050E-01  0.1007080E-02
  0.1504762E+01 -0.3447714E-03 -0.3051758E-02  0.8347225E+05  0.2619635E+04 -0.1297963E-01  0.1205444E-01
  0.1535714E+01  0.3974382E-04  0.9155273E-03  0.8363566E+05  0.2195485E+04 -0.1462573E-01 -0.3570557E-02
  0.1566667E+01 -0.3116689E-03 -0.4943848E-02  0.8380046E+05  0.1799515E+04 -0.2493351E-01  0.1556396E-01
  0.1597619E+01 -0.8022803E-03 -0.2502441E-02  0.8400944E+05  0.1536574E+04 -0.1772657E-01  0.5569458E-02
  0.1628572E+01  0.7495545E-04 -0.2868652E-02  0.8422079E+05  0.1380511E+04 -0.6596080E-02  0.1455688E-01
  0.1659524E+01  0.1986051E-02 -0.5554199E-02  0.8442434E+05  0.1323450E+04 -0.1529995E-01  0.3967285E-02
  0.1690476E+01  0.2780108E-02 -0.5065918E-02  0.8463785E+05  0.1400142E+04 -0.1039833E-01  0.1094055E-01
  0.1721429E+01 -0.3581067E-02 -0.3967285E-02  0.8483518E+05  0.1096908E+04 -0.8509466E-02  0.6965637E-02
  0.1752381E+01  0.3517814E-02 -0.1647949E-02  0.8500825E+05  0.7786464E+03 -0.3343665E-01 -0.3044128E-02
  0.1783333E+01  0.1369013E-02 -0.5310059E-02  0.8516016E+05  0.6108341E+03 -0.1423773E-01  0.4589081E-02
  0.1814286E+01  0.4474310E-02 -0.5798340E-03  0.8530722E+05  0.4406998E+03 -0.1830094E-01  0.6320953E-02
  0.1845238E+01  0.3969254E-03 -0.5493164E-03  0.8545553E+05  0.4032050E+03 -0.1587702E-02  0.3116608E-02
  0.1876190E+01  0.3188080E-02 -0.1037598E-02  0.8558520E+05  0.3931302E+03 -0.1821760E-01  0.5245209E-02
  0.1907143E+01  0.3840415E-03 -0.9155273E-03  0.8569542E+05  0.3797940E+03 -0.1536166E-01  0.3730774E-02
  0.1938095E+01  0.4094004E-03 -0.2105713E-02  0.8579905E+05  0.4211022E+03 -0.7558162E-02  0.2395630E-02
  0.1969048E+01  0.9299190E-03 -0.2609253E-02  0.8591274E+05  0.4077206E+03 -0.2876549E-01  0.4409790E-02
  0.2000000E+01  0.2380371E-02 -0.2090454E-02  0.8605932E+05  0.2394430E+03 -0.1611328E-01  0.2771378E-02
Zone t="Motion of body    1 in DoF   3",I=    64,F=POINT
  0.5000000E-01 -0.7208206E+06 -0.1408288E+00  0.1161194E+00  0.4857399E-03  0.2835596E+07  0.4486096E+00
  0.8095238E-01 -0.7245760E+06 -0.6190463E+00  0.1456092E-01  0.3403588E-03  0.2843194E+07  0.1967338E+01
  0.1119048E+00 -0.7258223E+06 -0.1734531E+01  0.2133958E-01  0.2159476E-03  0.2846636E+07  0.5511207E+01
  0.1428571E+00 -0.7267121E+06 -0.3892830E+01  0.2830505E-01  0.5116574E-03  0.2848424E+07  0.1235769E+02
  0.1738095E+00 -0.7283967E+06 -0.7727409E+01 -0.1071042E-01 -0.4885793E-03  0.2853282E+07  0.2451365E+02
  0.2047619E+00 -0.7294377E+06 -0.1420817E+02 -0.2049291E-01 -0.3017038E-03  0.2855780E+07  0.4502958E+02
  0.2357143E+00 -0.7305770E+06 -0.2492152E+02  0.5224054E-01  0.2213150E-02  0.2858614E+07  0.7887477E+02
  0.2666667E+00 -0.7323215E+06 -0.4230036E+02 -0.2397537E-01 -0.1263559E-02  0.2863296E+07  0.1337104E+03
  0.2976190E+00 -0.7341981E+06 -0.7058237E+02 -0.1984131E-01  0.4479289E-03  0.2868105E+07  0.2227235E+03
  0.3285715E+00 -0.7363416E+06 -0.1160739E+03  0.4792586E-01  0.2873063E-02  0.2873552E+07  0.3656336E+03
  0.3595238E+00 -0.7390699E+06 -0.1893333E+03  0.2096618E-01  0.1605153E-02  0.2881705E+07  0.5955348E+03
  0.3904762E+00 -0.7420666E+06 -0.3065583E+03  0.1142623E+00  0.1051259E-01  0.2889420E+07  0.9621567E+03
  0.4214286E+00 -0.7451723E+06 -0.4895042E+03  0.1108667E+00  0.8253098E-02  0.2896936E+07  0.1532623E+04
  0.4523810E+00 -0.7493045E+06 -0.7751506E+03 -0.5342824E-01 -0.2332687E-02  0.2908658E+07  0.2421663E+04
  0.4833333E+00 -0.7531416E+06 -0.1195179E+04  0.2778152E-01  0.8835793E-02  0.2919379E+07  0.3725002E+04
  0.5142857E+00 -0.7576221E+06 -0.1814352E+04 -0.5939908E-01 -0.5801201E-02  0.2930584E+07  0.5637187E+04
  0.5452381E+00 -0.7626139E+06 -0.2687152E+04 -0.1255992E+00 -0.2542877E-01  0.2943745E+07  0.8323684E+04
  0.5761905E+00 -0.7684313E+06 -0.3883327E+04 -0.3654543E-01 -0.1882553E-02  0.2959970E+07  0.1199475E+05
  0.6071429E+00 -0.7752896E+06 -0.5511698E+04  0.1910041E-01  0.1461792E-01  0.2978847E+07  0.1697295E+05
  0.6380953E+00 -0.7808978E+06 -0.7641890E+04  0.8254777E-01  0.3625870E-01  0.2992869E+07  0.2344121E+05
  0.6690477E+00 -0.7881788E+06 -0.1041524E+05  0.5455370E-01  0.2485657E-01  0.3012200E+07  0.3182794E+05
  0.7000000E+00 -0.7960878E+06 -0.1398403E+05 -0.1290458E-01  0.1093292E-01  0.3032854E+07  0.4256216E+05
  0.7309524E+00 -0.8033836E+06 -0.1846144E+05  0.1953920E-01  0.7202148E-02  0.3052418E+07  0.5596851E+05
  0.7619048E+00 -0.8124698E+06 -0.2405132E+05  0.4550171E-01  0.1716614E-01  0.3076984E+07  0.7263394E+05
  0.7928572E+00 -0.8202556E+06 -0.3092978E+05  0.8160015E-02  0.2168274E-01  0.3096115E+07  0.9294031E+05
  0.8238096E+00 -0.8293441E+06 -0.3932723E+05 -0.2444934E-01 -0.6652832E-02  0.3118945E+07  0.1175893E+06
  0.8547620E+00 -0.8367514E+06 -0.4939057E+05 -0.2427805E-02  0.1718140E-01  0.3135700E+07  0.1468954E+06
  0.8857143E+00 -0.8454721E+06 -0.6140980E+05  0.5237210E-02  0.1477051E-01  0.3157065E+07  0.1817157E+06
  0.9166667E+00 -0.8532085E+06 -0.7556424E+05 -0.9721235E-02  0.4577637E-03  0.3175454E+07  0.2223818E+06
  0.9476191E+00 -0.8613306E+06 -0.9207541E+05  0.4147937E-01  0.2600098E-01  0.3194784E+07  0.2695405E+06
  0.9785714E+00 -0.8664642E+06 -0.1109342E+06  0.1110216E-01  0.3588867E-01  0.3202950E+07  0.3226580E+06
  0.1009524E+01 -0.8722772E+06 -0.1325302E+06  0.2466742E-01  0.1428223E-01  0.3213888E+07  0.3830778E+06
  0.1040476E+01 -0.8751221E+06 -0.1567430E+06 -0.5068292E-01  0.9521484E-02  0.3215545E+07  0.4499565E+06
  0.1071429E+01 -0.8772952E+06 -0.1837872E+06  0.6722006E-02  0.1232910E-01  0.3214178E+07  0.5238793E+06
  0.1102381E+01 -0.8773227E+06 -0.2134767E+06  0.1893540E-01  0.4687500E-01  0.3208894E+07  0.6043662E+06
  0.1133333E+01 -0.8733598E+06 -0.2454016E+06 -0.1971077E-01  0.5249023E-02  0.3189643E+07  0.6894102E+06
  0.1164286E+01 -0.8690975E+06 -0.2798888E+06 -0.9436109E-02  0.1513672E-01  0.3172039E+07  0.7808354E+06
  0.1195238E+01 -0.8604734E+06 -0.3157662E+06 -0.4401826E-01 -0.2270508E-01  0.3141490E+07  0.8741293E+06
  0.1226190E+01 -0.8492649E+06 -0.3527386E+06 -0.2429081E-01 -0.2111816E-01  0.3103250E+07  0.9682725E+06
  0.1257143E+01 -0.8354287E+06 -0.3903018E+06  0.1568187E-01  0.3576660E-01  0.3059046E+07  0.1062505E+07
  0.1288095E+01 -0.8180474E+06 -0.4274844E+06  0.5496548E-02  0.1586914E-02  0.3004693E+07  0.1153043E+07
  0.1319048E+01 -0.7976042E+06 -0.4636212E+06  0.1092022E-01  0.2929688E-02  0.2942875E+07  0.1238949E+07
  0.1350000E+01 -0.7766141E+06 -0.4988998E+06  0.1397027E-01  0.2258301E-01  0.2881928E+07  0.1321598E+07
  0.1380952E+01 -0.7514015E+06 -0.5306213E+06 -0.2227573E-01  0.2563477E-02  0.2809952E+07  0.1391820E+07
  0.1411905E+01 -0.7249999E+06 -0.5583646E+06 -0.3665815E-01 -0.1184082E-01  0.2736726E+07  0.1450642E+07
  0.1442857E+01 -0.6990276E+06 -0.5841379E+06 -0.1510696E-01  0.7568359E-02  0.2665152E+07  0.1502051E+07
  0.1473810E+01 -0.6714436E+06 -0.6051902E+06 -0.1812345E-01 -0.7446289E-02  0.2591817E+07  0.1539931E+07
  0.1504762E+01 -0.6425266E+06 -0.6207749E+06  0.1288836E-01  0.1953125E-02  0.2513895E+07  0.1560108E+07
  0.1535714E+01 -0.6156565E+06 -0.6336153E+06  0.3994254E-01  0.2197266E-01  0.2445412E+07  0.1575524E+07
  0.1566667E+01 -0.5898918E+06 -0.6420051E+06 -0.3759506E-01 -0.1123047E-01  0.2380050E+07  0.1577731E+07
  0.1597619E+01 -0.5640633E+06 -0.6448084E+06 -0.2185259E-01 -0.1220703E-02  0.2316506E+07  0.1565403E+07
  0.1628572E+01 -0.5403158E+06 -0.6442715E+06 -0.1427901E-01 -0.1989746E-01  0.2259198E+07  0.1544624E+07
  0.1659524E+01 -0.5189693E+06 -0.6409223E+06 -0.1162207E-01 -0.2075195E-02  0.2208630E+07  0.1516927E+07
  0.1690476E+01 -0.4989622E+06 -0.6338604E+06  0.4910321E-02  0.3784180E-02  0.2164267E+07  0.1482198E+07
  0.1721429E+01 -0.4800957E+06 -0.6223475E+06  0.1648709E-01  0.5615234E-02  0.2121748E+07  0.1433384E+07
  0.1752381E+01 -0.4632186E+06 -0.6087421E+06  0.3723311E-01  0.1281738E-01  0.2085045E+07  0.1380806E+07
  0.1783333E+01 -0.4491936E+06 -0.5953117E+06 -0.2676420E-01 -0.1135254E-01  0.2057264E+07  0.1333156E+07
  0.1814286E+01 -0.4366330E+06 -0.5790886E+06  0.5147138E-02  0.7080078E-02  0.2032764E+07  0.1276995E+07
  0.1845238E+01 -0.4251922E+06 -0.5604326E+06 -0.1329700E-01 -0.8544922E-02  0.2012201E+07  0.1218081E+07
  0.1876190E+01 -0.4157722E+06 -0.5414344E+06 -0.5084663E-01 -0.6164551E-02  0.1996503E+07  0.1158862E+07
  0.1907143E+01 -0.4083410E+06 -0.5224252E+06  0.4390874E-01  0.7202148E-02  0.1985151E+07  0.1098912E+07
  0.1938095E+01 -0.4021539E+06 -0.5035449E+06 -0.2708341E-02  0.7934570E-03  0.1978467E+07  0.1044790E+07
  0.1969048E+01 -0.3969556E+06 -0.4833448E+06  0.5858490E-02  0.4211426E-02  0.1973711E+07  0.9871626E+06
  0.2000000E+01 -0.3924427E+06 -0.4607292E+06 -0.5645752E-02  0.1647949E-02  0.1970186E+07  0.9194244E+06
