VARIABLES="w (rad/s)"
"A   1   1" "B   1   1"
"A   1   2" "B   1   2"
"A   1   3" "B   1   3"
Zone t="Motion of body    1 in DoF   1",I=    64,F=POINT
  0.5000000E-01  0.7434539E+05  0.7351737E-02  0.9536743E-02  0.2024032E-04  0.2306837E+05  0.7269293E-02
  0.8095238E-01  0.7464705E+05  0.3234111E-01  0.1213410E-01  0.2416922E-04  0.2289864E+05  0.3191528E-01
  0.1119048E+00  0.7469343E+05  0.9076061E-01  0.5317851E-02  0.3252330E-04  0.2290587E+05  0.8969969E-01
  0.1428571E+00  0.7475800E+05  0.2039560E+00 -0.1335144E-02  0.4789606E-04  0.2288671E+05  0.2022609E+00
  0.1738095E+00  0.7484313E+05  0.4054613E+00 -0.1330023E-01 -0.2262699E-03  0.2312625E+05  0.4033946E+00
  0.2047619E+00  0.7493875E+05  0.7464929E+00 -0.1900251E-02  0.6335508E-04  0.2319580E+05  0.7443731E+00
  0.2357143E+00  0.7501491E+05  0.1311474E+01  0.2246279E-01  0.3025988E-03  0.2331590E+05  0.1312726E+01
  0.2666667E+00  0.7517041E+05  0.2232414E+01  0.1264572E-01  0.9491853E-04  0.2365817E+05  0.2245995E+01
  0.2976190E+00  0.7529978E+05  0.3733266E+01  0.3435059E-02 -0.6229430E-04  0.2376128E+05  0.3771599E+01
  0.3285715E+00  0.7542965E+05  0.6155815E+01  0.7012408E-02 -0.2297014E-04  0.2395113E+05  0.6252146E+01
  0.3595238E+00  0.7563436E+05  0.1007205E+02 -0.9209841E-02 -0.3974587E-03  0.2437450E+05  0.1029540E+02
  0.3904762E+00  0.7584725E+05  0.1635866E+02 -0.9847500E-02 -0.3038198E-03  0.2468115E+05  0.1682847E+02
  0.4214286E+00  0.7604191E+05  0.2619181E+02  0.1050011E-01  0.7166713E-03  0.2486588E+05  0.2711654E+02
  0.4523810E+00  0.7629824E+05  0.4157567E+02 -0.3001966E-02  0.7123053E-03  0.2535042E+05  0.4336383E+02
  0.4833333E+00  0.7662631E+05  0.6434110E+02 -0.1673205E-01 -0.1003027E-02  0.2593624E+05  0.6767528E+02
  0.5142857E+00  0.7695026E+05  0.9790646E+02  0.2020518E-01  0.1379073E-02  0.2637255E+05  0.1037846E+03
  0.5452381E+00  0.7725307E+05  0.1453449E+03 -0.8955377E-03 -0.1265407E-02  0.2673579E+05  0.1552897E+03
  0.5761905E+00  0.7760007E+05  0.2106175E+03 -0.9533590E-02 -0.2857447E-03  0.2727972E+05  0.2270266E+03
  0.6071429E+00  0.7804239E+05  0.2995083E+03  0.2362419E-02  0.1220942E-02  0.2804605E+05  0.3258933E+03
  0.6380953E+00  0.7851409E+05  0.4163103E+03 -0.9373906E-02 -0.1281977E-02  0.2875160E+05  0.4573161E+03
  0.6690477E+00  0.7895158E+05  0.5683370E+03  0.1587348E-01  0.2956867E-02  0.2926818E+05  0.6300383E+03
  0.7000000E+00  0.7940765E+05  0.7637187E+03  0.8632114E-02  0.2189159E-02  0.2992376E+05  0.8548407E+03
  0.7309524E+00  0.7993040E+05  0.1009645E+04 -0.1724293E-01 -0.9298325E-03  0.3079191E+05  0.1141888E+04
  0.7619048E+00  0.8049791E+05  0.1316216E+04 -0.6488800E-02  0.1402855E-02  0.3173680E+05  0.1504602E+04
  0.7928572E+00  0.8109898E+05  0.1693920E+04  0.5927558E-02  0.1152039E-02  0.3268384E+05  0.1957350E+04
  0.8238096E+00  0.8167395E+05  0.2153314E+04 -0.3482179E-02 -0.3517151E-02  0.3353237E+05  0.2515068E+04
  0.8547620E+00  0.8222759E+05  0.2705060E+04 -0.7854663E-02 -0.4005432E-04  0.3434724E+05  0.3193770E+04
  0.8857143E+00  0.8277520E+05  0.3360271E+04 -0.8579377E-02 -0.6309509E-02  0.3524758E+05  0.4011358E+04
  0.9166667E+00  0.8334158E+05  0.4129786E+04  0.1042037E-01  0.7541656E-02  0.3625866E+05  0.4986061E+04
  0.9476191E+00  0.8389856E+05  0.5023956E+04 -0.6762940E-02 -0.4394531E-02  0.3731516E+05  0.6136239E+04
  0.9785714E+00  0.8443035E+05  0.6052510E+04 -0.6798515E-02 -0.3395081E-03  0.3834418E+05  0.7480086E+04
  0.1009524E+01  0.8490290E+05  0.7223884E+04 -0.4957667E-02  0.4692078E-02  0.3924570E+05  0.9034383E+04
  0.1040476E+01  0.8530093E+05  0.8543937E+04  0.4047594E-02 -0.2037048E-02  0.4000808E+05  0.1081325E+05
  0.1071429E+01  0.8560730E+05  0.1001454E+05 -0.1708984E-02  0.3799438E-02  0.4068257E+05  0.1282753E+05
  0.1102381E+01  0.8582848E+05  0.1163453E+05  0.5979599E-02  0.1678467E-02  0.4127948E+05  0.1508257E+05
  0.1133333E+01  0.8594921E+05  0.1339914E+05 -0.1529469E-01 -0.8514404E-02  0.4181020E+05  0.1758286E+05
  0.1164286E+01  0.8596427E+05  0.1530260E+05 -0.4036558E-02  0.2273560E-02  0.4219178E+05  0.2032661E+05
  0.1195238E+01  0.8587325E+05  0.1733356E+05 -0.6740616E-02 -0.1091003E-01  0.4244002E+05  0.2330831E+05
  0.1226190E+01  0.8566873E+05  0.1947614E+05  0.3484337E-03  0.3753662E-02  0.4254834E+05  0.2651318E+05
  0.1257143E+01  0.8533493E+05  0.2173177E+05  0.6554343E-02  0.4547119E-02  0.4248014E+05  0.2994850E+05
  0.1288095E+01  0.8488145E+05  0.2402081E+05 -0.7249758E-02 -0.1831055E-02  0.4223386E+05  0.3350881E+05
  0.1319048E+01  0.8430415E+05  0.2637966E+05 -0.7866263E-02  0.2838135E-02  0.4178575E+05  0.3724984E+05
  0.1350000E+01  0.8359584E+05  0.2876326E+05 -0.9087456E-02  0.8972168E-02  0.4114721E+05  0.4111184E+05
  0.1380952E+01  0.8278709E+05  0.3114551E+05 -0.9723532E-03 -0.6042480E-02  0.4031795E+05  0.4505101E+05
  0.1411905E+01  0.8169002E+05  0.3342970E+05  0.1988532E-02 -0.4211426E-02  0.3891857E+05  0.4895814E+05
  0.1442857E+01  0.8067698E+05  0.3574892E+05  0.3384127E-03  0.1312256E-02  0.3775247E+05  0.5297800E+05
  0.1473810E+01  0.7959239E+05  0.3800026E+05 -0.2609031E-02  0.2136230E-03  0.3642386E+05  0.5697669E+05
  0.1504762E+01  0.7842712E+05  0.4016078E+05  0.6408691E-02  0.1068115E-02  0.3497688E+05  0.6093060E+05
  0.1535714E+01  0.7722440E+05  0.4222346E+05  0.1347315E-01  0.5645752E-02  0.3337138E+05  0.6479666E+05
  0.1566667E+01  0.7595034E+05  0.4417061E+05  0.5181495E-02  0.1013184E-01  0.3167649E+05  0.6857337E+05
  0.1597619E+01  0.7467026E+05  0.4598924E+05 -0.5692370E-02 -0.5493164E-03  0.2988350E+05  0.7220617E+05
  0.1628572E+01  0.7336891E+05  0.4767189E+05 -0.2848307E-02  0.2624512E-02  0.2802182E+05  0.7568522E+05
  0.1659524E+01  0.7205491E+05  0.4922013E+05  0.2979076E-02  0.4211426E-02  0.2609441E+05  0.7900011E+05
  0.1690476E+01  0.7075698E+05  0.5062391E+05 -0.3105056E-02 -0.6713867E-03  0.2413291E+05  0.8212888E+05
  0.1721429E+01  0.6946623E+05  0.5188384E+05 -0.1560069E-02  0.2258301E-02  0.2214781E+05  0.8506859E+05
  0.1752381E+01  0.6820052E+05  0.5300459E+05  0.6582841E-02 -0.6408691E-02  0.2015838E+05  0.8782552E+05
  0.1783333E+01  0.6696549E+05  0.5399371E+05  0.3422532E-04  0.4577637E-02  0.1815509E+05  0.9037411E+05
  0.1814286E+01  0.6575170E+05  0.5485559E+05 -0.2018486E-03  0.5676270E-02  0.1616660E+05  0.9273994E+05
  0.1845238E+01  0.6459198E+05  0.5558870E+05  0.2150013E-02 -0.3479004E-02  0.1419754E+05  0.9489394E+05
  0.1876190E+01  0.6346889E+05  0.5619477E+05  0.2407326E-02 -0.5310059E-02  0.1226838E+05  0.9684777E+05
  0.1907143E+01  0.6238098E+05  0.5670015E+05 -0.3264352E-02  0.5798340E-02  0.1035886E+05  0.9861090E+05
  0.1938095E+01  0.6134644E+05  0.5709203E+05  0.2928788E-02  0.7324219E-03  0.8497428E+04  0.1001745E+06
  0.1969048E+01  0.6035377E+05  0.5739018E+05 -0.5873988E-02 -0.1092529E-01  0.6670254E+04  0.1015482E+06
  0.2000000E+01  0.5940202E+05  0.5757734E+05 -0.4364014E-02  0.9460449E-02  0.4917788E+04  0.1027651E+06
Zone t="Motion of body    1 in DoF   2",I=    64,F=POINT
  0.5000000E-01  0.1480103E-01  0.9536743E-05  0.1197376E+06  0.3265366E+03  0.1525879E-02  0.4386902E-04
  0.8095238E-01 -0.2120523E-02 -0.5722046E-05  0.1182018E+06  0.5413393E+03  0.1507927E-02 -0.3814697E-05
  0.1119048E+00  0.9476682E-02  0.2670288E-04  0.1174544E+06  0.7750184E+03  0.5181495E-02  0.8773804E-04
  0.1428571E+00  0.1490021E-01 -0.4768372E-06  0.1170204E+06  0.1036407E+04 -0.4272461E-03  0.7629395E-05
  0.1738095E+00  0.3818878E-02  0.1797676E-03  0.1168994E+06  0.1336520E+04  0.2106967E-02  0.3433228E-04
  0.2047619E+00 -0.6334172E-02  0.1239777E-03  0.1169931E+06  0.1689159E+04 -0.2086551E-02 -0.8773804E-04
  0.2357143E+00 -0.5826083E-03  0.1230240E-03  0.1172948E+06  0.2113666E+04  0.5437677E-02  0.1220703E-03
  0.2666667E+00 -0.2746582E-02 -0.1106262E-03  0.1177010E+06  0.2626344E+04 -0.2288818E-02 -0.8392334E-04
  0.2976190E+00 -0.6357422E-02 -0.4062653E-03  0.1181977E+06  0.3263469E+04  0.1230469E-02  0.1907349E-03
  0.3285715E+00 -0.1300314E-02 -0.1335144E-03  0.1188316E+06  0.4043887E+04 -0.7801884E-02  0.4577637E-04
  0.3595238E+00 -0.1561853E-01  0.2155304E-03  0.1193519E+06  0.5010988E+04 -0.1697666E-03  0.1373291E-03
  0.3904762E+00  0.1066813E-01 -0.4806519E-03  0.1198551E+06  0.6196424E+04  0.1250476E-02 -0.4577637E-04
  0.4214286E+00 -0.3403486E-02 -0.2288818E-03  0.1200744E+06  0.7586603E+04  0.0000000E+00  0.7629395E-04
  0.4523810E+00 -0.1038883E-01  0.5531311E-03  0.1201690E+06  0.9251465E+04 -0.1619038E-01 -0.7629395E-03
  0.4833333E+00  0.3030711E-02 -0.1831055E-03  0.1198054E+06  0.1105192E+05 -0.3535830E-02 -0.1373291E-02
  0.5142857E+00  0.4331801E-02 -0.1296997E-02  0.1191280E+06  0.1307243E+05  0.4272461E-02 -0.3662109E-03
  0.5452381E+00 -0.9011348E-02 -0.6027222E-03  0.1182457E+06  0.1519873E+05 -0.2462729E-02 -0.2136230E-03
  0.5761905E+00 -0.1265849E-01  0.1884460E-02  0.1170562E+06  0.1739312E+05  0.5296438E-02 -0.3051758E-04
  0.6071429E+00  0.5529067E-03 -0.1632690E-02  0.1155867E+06  0.1970738E+05  0.1226447E-01 -0.1281738E-02
  0.6380953E+00  0.1291303E-02  0.1022339E-02  0.1140365E+06  0.2200293E+05  0.7652169E-02  0.1403809E-02
  0.6690477E+00  0.1865591E-01 -0.1617432E-02  0.1123365E+06  0.2432932E+05  0.2736808E-02  0.6713867E-03
  0.7000000E+00  0.1229422E-01 -0.1113892E-02  0.1104812E+06  0.2669378E+05 -0.2790178E-02  0.6103516E-04
  0.7309524E+00 -0.6262565E-02 -0.3662109E-03  0.1085699E+06  0.2902555E+05 -0.5010052E-02  0.2624512E-02
  0.7619048E+00  0.7369994E-02 -0.6408691E-03  0.1065371E+06  0.3133968E+05  0.1714325E-01 -0.1770020E-02
  0.7928572E+00 -0.1862947E-01  0.5859375E-02  0.1044188E+06  0.3362164E+05 -0.1539625E-01 -0.2624512E-02
  0.8238096E+00 -0.1166900E-01 -0.9765625E-03  0.1022597E+06  0.3584914E+05 -0.1333600E-02 -0.3662109E-03
  0.8547620E+00  0.4998422E-02  0.2166748E-02  0.1001061E+06  0.3799951E+05  0.2856241E-02  0.1708984E-02
  0.8857143E+00 -0.1409223E-01 -0.4302979E-02  0.9791947E+05  0.4006782E+05  0.2067320E-02 -0.0000000E+00
  0.9166667E+00  0.9721235E-02  0.7629395E-03  0.9572658E+05  0.4204255E+05 -0.2663352E-02  0.9765625E-03
  0.9476191E+00  0.5410352E-02  0.2410889E-02  0.9350151E+05  0.4392175E+05  0.3993355E-02 -0.0000000E+00
  0.9785714E+00 -0.4116532E-02 -0.1892090E-02  0.9128357E+05  0.4568532E+05  0.1621664E-02  0.1220703E-02
  0.1009524E+01 -0.7255123E-03 -0.1373291E-02  0.8909099E+05  0.4732318E+05  0.1209187E-02  0.2807617E-02
  0.1040476E+01 -0.6335365E-02 -0.6103516E-03  0.8695283E+05  0.4882196E+05  0.3285004E-02 -0.2685547E-02
  0.1071429E+01  0.8886719E-02 -0.1220703E-02  0.8487593E+05  0.5017737E+05 -0.4899089E-02 -0.1220703E-02
  0.1102381E+01  0.3266633E-02 -0.3295898E-02  0.8285554E+05  0.5138560E+05 -0.3432733E-02 -0.1464844E-02
  0.1133333E+01 -0.8401310E-02  0.3936768E-02  0.8088442E+05  0.5244871E+05  0.2692728E-02 -0.3784180E-02
  0.1164286E+01  0.8177961E-02 -0.1220703E-03  0.7899440E+05  0.5337883E+05 -0.1100879E-01  0.1220703E-03
  0.1195238E+01  0.2936253E-02  0.4486084E-02  0.7716920E+05  0.5416363E+05  0.8068313E-02 -0.2685547E-02
  0.1226190E+01 -0.6918898E-02  0.3601074E-02  0.7542912E+05  0.5479875E+05 -0.1174719E-01  0.4028320E-02
  0.1257143E+01  0.3859780E-02  0.6042480E-02  0.7374980E+05  0.5533219E+05 -0.6797097E-03  0.3417969E-02
  0.1288095E+01 -0.7320834E-02 -0.9277344E-02  0.7216118E+05  0.5564666E+05  0.7012838E-02  0.3906250E-02
  0.1319048E+01  0.8120760E-02  0.6408691E-02  0.7065134E+05  0.5585747E+05 -0.2591240E-02 -0.3662109E-03
  0.1350000E+01 -0.7369430E-02  0.1617432E-02  0.6923017E+05  0.5593438E+05 -0.7595486E-02 -0.9765625E-03
  0.1380952E+01  0.7137957E-02  0.2380371E-02  0.6791684E+05  0.5585736E+05  0.6364494E-02 -0.3662109E-02
  0.1411905E+01 -0.6678872E-02 -0.4180908E-02  0.6672962E+05  0.5565151E+05 -0.1729158E-02  0.7324219E-03
  0.1442857E+01 -0.1184445E-02  0.2380371E-02  0.6561005E+05  0.5533796E+05  0.3130318E-02  0.6103516E-02
  0.1473810E+01 -0.3043870E-02 -0.1159668E-02  0.6460576E+05  0.5490929E+05 -0.2484791E-02 -0.5859375E-02
  0.1504762E+01 -0.6165323E-02  0.1199341E-01  0.6370613E+05  0.5437700E+05  0.3975011E-02  0.6591797E-02
  0.1535714E+01  0.7988508E-02 -0.8544922E-03  0.6292634E+05  0.5374580E+05  0.2384629E-03  0.8544922E-02
  0.1566667E+01 -0.4149092E-02  0.1525879E-03  0.6223433E+05  0.5305385E+05 -0.2493351E-02  0.4394531E-02
  0.1597619E+01 -0.1146115E-03 -0.4028320E-02  0.6166754E+05  0.5227457E+05  0.4278828E-02  0.3662109E-02
  0.1628572E+01  0.9744209E-03 -0.2807617E-02  0.6121268E+05  0.5144304E+05  0.3522906E-02 -0.4150391E-02
  0.1659524E+01  0.2997465E-02 -0.7934570E-03  0.6085221E+05  0.5060371E+05 -0.1449081E-01  0.1196289E-01
  0.1690476E+01  0.1462265E-02  0.3662109E-03  0.6060600E+05  0.4976621E+05 -0.7076639E-02  0.2441406E-02
  0.1721429E+01 -0.4556110E-02 -0.2075195E-02  0.6045540E+05  0.4895900E+05  0.4396557E-02  0.4638672E-02
  0.1752381E+01  0.5015498E-02  0.1831055E-03  0.6039204E+05  0.4819733E+05 -0.1950471E-02  0.6103516E-02
  0.1783333E+01 -0.1557252E-02  0.5004883E-02  0.6041060E+05  0.4752020E+05 -0.8214077E-03 -0.1708984E-02
  0.1814286E+01  0.2674493E-02  0.1220703E-03  0.6048198E+05  0.4695567E+05 -0.1076526E-02  0.6835938E-02
  0.1845238E+01  0.1025391E-02  0.3417969E-02  0.6061939E+05  0.4649724E+05  0.2712324E-02  0.3662109E-02
  0.1876190E+01 -0.5562874E-02 -0.1147461E-01  0.6078230E+05  0.4621099E+05 -0.9759429E-02 -0.1904297E-01
  0.1907143E+01  0.1488161E-02  0.1831055E-02  0.6093534E+05  0.4607535E+05  0.4992539E-02  0.3173828E-02
  0.1938095E+01 -0.2409164E-02 -0.4638672E-02  0.6109507E+05  0.4607753E+05  0.2015510E-02 -0.3173828E-02
  0.1969048E+01 -0.4029649E-02 -0.1098633E-02  0.6122488E+05  0.4622161E+05  0.1016711E-01 -0.8789062E-02
  0.2000000E+01  0.1058960E-01  0.1104736E-01  0.6132784E+05  0.4648231E+05  0.9521484E-02  0.1660156E-01
Zone t="Motion of body    1 in DoF   3",I=    64,F=POINT
  0.5000000E-01  0.2361389E+05  0.7398393E-02 -0.5035400E-02 -0.1653919E-04  0.3098079E+06  0.7579848E-02
  0.8095238E-01  0.2340293E+05  0.3261793E-01  0.1668145E-01  0.9145471E-04  0.3092911E+06  0.3234821E-01
  0.1119048E+00  0.2346696E+05  0.9156683E-01  0.4186103E-01  0.3279536E-03  0.3097703E+06  0.9060211E-01
  0.1428571E+00  0.2339280E+05  0.2065312E+00  0.3524780E-02 -0.2587365E-04  0.3089989E+06  0.2041098E+00
  0.1738095E+00  0.2369434E+05  0.4114764E+00  0.1790922E-01  0.1886475E-03  0.3101704E+06  0.4087176E+00
  0.2047619E+00  0.2371179E+05  0.7597838E+00  0.9687557E-03 -0.2447376E-04  0.3096594E+06  0.7587376E+00
  0.2357143E+00  0.2386806E+05  0.1339545E+01 -0.8609655E-02 -0.2952721E-03  0.3101725E+06  0.1341992E+01
  0.2666667E+00  0.2422371E+05  0.2289556E+01 -0.3318786E-02 -0.7004663E-04  0.3110175E+06  0.2302978E+01
  0.2976190E+00  0.2427347E+05  0.3845713E+01 -0.1466309E-01 -0.5128458E-03  0.3104668E+06  0.3884005E+01
  0.3285715E+00  0.2448937E+05  0.6373477E+01  0.7337486E-02 -0.9026378E-05  0.3109874E+06  0.6473595E+01
  0.3595238E+00  0.2494892E+05  0.1048404E+02  0.1010112E-01  0.4292279E-03  0.3121821E+06  0.1071621E+02
  0.3904762E+00  0.2520548E+05  0.1713430E+02  0.1031643E-01  0.2115220E-03  0.3121573E+06  0.1762461E+02
  0.4214286E+00  0.2536620E+05  0.2760906E+02 -0.1759674E-01 -0.6930828E-03  0.3119449E+06  0.2857621E+02
  0.4523810E+00  0.2591940E+05  0.4409870E+02 -0.2118241E-01 -0.1720339E-02  0.3135386E+06  0.4599854E+02
  0.4833333E+00  0.2650782E+05  0.6874068E+02  0.1325936E-01  0.4112124E-03  0.3146668E+06  0.7229529E+02
  0.5142857E+00  0.2689280E+05  0.1053785E+03  0.1471626E-01  0.1760840E-02  0.3147468E+06  0.1116936E+03
  0.5452381E+00  0.2725886E+05  0.1576616E+03  0.2826541E-01  0.4131675E-02  0.3151258E+06  0.1684514E+03
  0.5761905E+00  0.2785230E+05  0.2302878E+03 -0.5932011E-02 -0.5295277E-03  0.3164886E+06  0.2481907E+03
  0.6071429E+00  0.2863159E+05  0.3301332E+03  0.1779354E-01  0.2425194E-02  0.3180097E+06  0.3593108E+03
  0.6380953E+00  0.2929837E+05  0.4630146E+03  0.1224347E-01  0.2495766E-02  0.3187307E+06  0.5086496E+03
  0.6690477E+00  0.2978693E+05  0.6380417E+03 -0.1605594E-01 -0.2150536E-02  0.3189641E+06  0.7074208E+03
  0.7000000E+00  0.3047207E+05  0.8651816E+03 -0.2441406E-01 -0.8041382E-02  0.3201650E+06  0.9685168E+03
  0.7309524E+00  0.3138568E+05  0.1154212E+04  0.1260863E-01  0.3534317E-02  0.3220956E+06  0.1305030E+04
  0.7619048E+00  0.3233129E+05  0.1519119E+04  0.1642227E-01  0.5840302E-02  0.3237652E+06  0.1735924E+04
  0.7928572E+00  0.3325118E+05  0.1975091E+04 -0.7005296E-02 -0.2492905E-02  0.3250584E+06  0.2282051E+04
  0.8238096E+00  0.3407394E+05  0.2537588E+04 -0.5704846E-02 -0.1113892E-02  0.3260287E+06  0.2964775E+04
  0.8547620E+00  0.3488681E+05  0.3221715E+04 -0.4855610E-02 -0.5992889E-02  0.3271154E+06  0.3804672E+04
  0.8857143E+00  0.3580804E+05  0.4042875E+04  0.1536708E-01  0.4615784E-02  0.3288397E+06  0.4825334E+04
  0.9166667E+00  0.3685078E+05  0.5019166E+04 -0.2516868E-01 -0.1422501E-01  0.3309782E+06  0.6056176E+04
  0.9476191E+00  0.3791232E+05  0.6169499E+04  0.1481406E-02  0.5031586E-02  0.3330905E+06  0.7529424E+04
  0.9785714E+00  0.3892331E+05  0.7514472E+04  0.4615505E-02  0.1319885E-02  0.3348885E+06  0.9281911E+04
  0.1009524E+01  0.3979403E+05  0.9073752E+04 -0.7255123E-02  0.3059387E-02  0.3362356E+06  0.1135001E+05
  0.1040476E+01  0.4053878E+05  0.1086077E+05  0.1372662E-01  0.9262085E-02  0.3373617E+06  0.1375867E+05
  0.1071429E+01  0.4120846E+05  0.1287914E+05 -0.1971029E-01 -0.1136780E-01  0.3386185E+06  0.1651830E+05
  0.1102381E+01  0.4182027E+05  0.1513238E+05  0.7751333E-02  0.3875732E-02  0.3400866E+06  0.1964335E+05
  0.1133333E+01  0.4236948E+05  0.1762346E+05 -0.4523782E-02  0.9765625E-03  0.3416034E+06  0.2315475E+05
  0.1164286E+01  0.4276654E+05  0.2035746E+05 -0.2526780E-01 -0.2471924E-01  0.3428844E+06  0.2707576E+05
  0.1195238E+01  0.4301810E+05  0.2332789E+05  0.1756645E-01  0.1156616E-01  0.3438995E+06  0.3140831E+05
  0.1226190E+01  0.4312844E+05  0.2651656E+05 -0.1682437E-01 -0.1995850E-01  0.3447263E+06  0.3613229E+05
  0.1257143E+01  0.4305176E+05  0.2993578E+05 -0.8447820E-02 -0.1190186E-01  0.3452723E+06  0.4127442E+05
  0.1288095E+01  0.4280522E+05  0.3346429E+05 -0.7865750E-02 -0.2526855E-01  0.3456205E+06  0.4668880E+05
  0.1319048E+01  0.4235683E+05  0.3718234E+05 -0.3053961E-02 -0.1242065E-01  0.3455535E+06  0.5249745E+05
  0.1350000E+01  0.4170768E+05  0.4101131E+05 -0.8409288E-02 -0.1324463E-01  0.3452189E+06  0.5859454E+05
  0.1380952E+01  0.4088823E+05  0.4491674E+05  0.1538086E-01  0.1770020E-01  0.3446958E+06  0.6493378E+05
  0.1411905E+01  0.3841296E+05  0.4792475E+05 -0.1383326E-01 -0.8178711E-02  0.3405865E+06  0.7013377E+05
  0.1442857E+01  0.3729256E+05  0.5182967E+05  0.5922223E-02  0.8728027E-02  0.3396838E+06  0.7675842E+05
  0.1473810E+01  0.3602358E+05  0.5571910E+05  0.8282638E-03 -0.7019043E-02  0.3384829E+06  0.8349315E+05
  0.1504762E+01  0.3463526E+05  0.5955599E+05 -0.1046482E-01 -0.1367188E-01  0.3370321E+06  0.9028362E+05
  0.1535714E+01  0.3310432E+05  0.6332568E+05 -0.1923601E-01 -0.7324219E-03  0.3352920E+06  0.9710092E+05
  0.1566667E+01  0.3146687E+05  0.6698039E+05 -0.2103765E-02  0.1049805E-01  0.3333572E+06  0.1038949E+06
  0.1597619E+01  0.2975894E+05  0.7051862E+05  0.7105911E-02  0.1324463E-01  0.3312267E+06  0.1106110E+06
  0.1628572E+01  0.2799199E+05  0.7390448E+05 -0.8320055E-02  0.1611328E-01  0.3290002E+06  0.1172197E+06
  0.1659524E+01  0.2615974E+05  0.7712540E+05 -0.1353457E-01 -0.2899170E-01  0.3266401E+06  0.1237032E+06
  0.1690476E+01  0.2430806E+05  0.8018288E+05  0.1285349E-01  0.1330566E-01  0.3241384E+06  0.1300030E+06
  0.1721429E+01  0.2243513E+05  0.8305333E+05  0.5176592E-02  0.9643555E-02  0.3215948E+06  0.1361322E+06
  0.1752381E+01  0.2056596E+05  0.8576980E+05  0.1114555E-02  0.8056641E-02  0.3188825E+06  0.1420422E+06
  0.1783333E+01  0.1868868E+05  0.8829446E+05  0.3490983E-02  0.9277344E-02  0.3161477E+06  0.1477390E+06
  0.1814286E+01  0.1681435E+05  0.9063722E+05 -0.2287617E-02 -0.1184082E-01  0.3133600E+06  0.1532388E+06
  0.1845238E+01  0.1498052E+05  0.9282050E+05  0.7276966E-03 -0.9643555E-02  0.3105322E+06  0.1584764E+06
  0.1876190E+01  0.1318456E+05  0.9481531E+05 -0.6961726E-02 -0.4199219E-01  0.3077530E+06  0.1635197E+06
  0.1907143E+01  0.1140084E+05  0.9663279E+05  0.8320898E-03  0.1489258E-01  0.3049593E+06  0.1683021E+06
  0.1938095E+01  0.9676682E+04  0.9829670E+05 -0.4408928E-02 -0.4882812E-02  0.3021714E+06  0.1727939E+06
  0.1969048E+01  0.7982050E+04  0.9979092E+05  0.1016711E-01  0.3906250E-02  0.2994214E+06  0.1771235E+06
  0.2000000E+01  0.6356322E+04  0.1011544E+06  0.4882812E-02  0.8178711E-02  0.2967056E+06  0.1811842E+06
