VARIABLES="w (rad/s)"
"abs(F   1   1)" "angle(F   1   1)"
"abs(F   1   2)" "angle(F   1   2)"
"abs(F   1   3)" "angle(F   1   3)"
Zone t="Diffraction force - beta =   0.000 deg",I=    64,F=POINT
  0.5000000E-01  0.2330256E+04 -0.1570794E+01  0.4011829E+03 -0.3096663E+01  0.3284132E+04  0.1570798E+01
  0.8095238E-01  0.3815510E+04 -0.1570789E+01  0.1040708E+04 -0.3095170E+01  0.5367594E+04  0.1570802E+01
  0.1119048E+00  0.5339577E+04 -0.1570782E+01  0.1974744E+04 -0.3093275E+01  0.7521960E+04  0.1570808E+01
  0.1428571E+00  0.6920284E+04 -0.1570771E+01  0.3205059E+04 -0.3090905E+01  0.9739324E+04  0.1570817E+01
  0.1738095E+00  0.8553199E+04 -0.1570754E+01  0.4737000E+04 -0.3087977E+01  0.1205679E+05  0.1570830E+01
  0.2047619E+00  0.1032473E+05 -0.1570731E+01  0.6559090E+04 -0.3084163E+01  0.1454029E+05  0.1570849E+01
  0.2357143E+00  0.1217054E+05 -0.1570696E+01  0.8688565E+04 -0.3079430E+01  0.1715242E+05  0.1570876E+01
  0.2666667E+00  0.1416999E+05 -0.1570646E+01  0.1112491E+05 -0.3073724E+01  0.2000475E+05  0.1570917E+01
  0.2976190E+00  0.1640841E+05 -0.1570571E+01  0.1385697E+05 -0.3066464E+01  0.2313708E+05  0.1570977E+01
  0.3285715E+00  0.1881873E+05 -0.1570460E+01  0.1690065E+05 -0.3057886E+01  0.2657071E+05  0.1571067E+01
  0.3595238E+00  0.2147173E+05 -0.1570292E+01  0.2022346E+05 -0.3047407E+01  0.3032592E+05  0.1571202E+01
  0.3904762E+00  0.2448601E+05 -0.1570043E+01  0.2382831E+05 -0.3035042E+01  0.3461835E+05  0.1571403E+01
  0.4214286E+00  0.2783323E+05 -0.1569677E+01  0.2767885E+05 -0.3021382E+01  0.3934736E+05  0.1571698E+01
  0.4523810E+00  0.3153108E+05 -0.1569140E+01  0.3170320E+05 -0.3005225E+01  0.4464850E+05  0.1572131E+01
  0.4833333E+00  0.3554459E+05 -0.1568394E+01  0.3597874E+05 -0.2989651E+01  0.5041123E+05  0.1572735E+01
  0.5142857E+00  0.4015882E+05 -0.1567365E+01  0.4022039E+05 -0.2971914E+01  0.5689741E+05  0.1573572E+01
  0.5452381E+00  0.4501059E+05 -0.1565985E+01  0.4465738E+05 -0.2954889E+01  0.6379648E+05  0.1574694E+01
  0.5761905E+00  0.5014942E+05 -0.1564185E+01  0.4913336E+05 -0.2938297E+01  0.7110479E+05  0.1576161E+01
  0.6071429E+00  0.5574032E+05 -0.1561866E+01  0.5355800E+05 -0.2920778E+01  0.7915976E+05  0.1578051E+01
  0.6380953E+00  0.6175285E+05 -0.1558980E+01  0.5814819E+05 -0.2905392E+01  0.8768414E+05  0.1580417E+01
  0.6690477E+00  0.6811518E+05 -0.1555394E+01  0.6259972E+05 -0.2889679E+01  0.9657248E+05  0.1583373E+01
  0.7000000E+00  0.7482119E+05 -0.1550983E+01  0.6696634E+05 -0.2873672E+01  0.1062131E+06  0.1587004E+01
  0.7309524E+00  0.8170991E+05 -0.1545636E+01  0.7140792E+05 -0.2859244E+01  0.1160429E+06  0.1591420E+01
  0.7619048E+00  0.8892721E+05 -0.1539224E+01  0.7575289E+05 -0.2845203E+01  0.1263267E+06  0.1596730E+01
  0.7928572E+00  0.9691871E+05 -0.1531705E+01  0.7980994E+05 -0.2830528E+01  0.1375507E+06  0.1603003E+01
  0.8238096E+00  0.1051066E+06 -0.1522823E+01  0.8383137E+05 -0.2816784E+01  0.1491282E+06  0.1610429E+01
  0.8547620E+00  0.1134995E+06 -0.1512439E+01  0.8784920E+05 -0.2804413E+01  0.1610015E+06  0.1619134E+01
  0.8857143E+00  0.1221713E+06 -0.1500429E+01  0.9151914E+05 -0.2791550E+01  0.1731201E+06  0.1629253E+01
  0.9166667E+00  0.1313412E+06 -0.1486743E+01  0.9497798E+05 -0.2778898E+01  0.1861138E+06  0.1640809E+01
  0.9476191E+00  0.1405270E+06 -0.1471107E+01  0.9829365E+05 -0.2766999E+01  0.1991709E+06  0.1654023E+01
  0.9785714E+00  0.1500178E+06 -0.1453511E+01  0.1014979E+06 -0.2756247E+01  0.2125432E+06  0.1668953E+01
  0.1009524E+01  0.1599472E+06 -0.1433909E+01  0.1044554E+06 -0.2745956E+01  0.2263413E+06  0.1685670E+01
  0.1040476E+01  0.1700235E+06 -0.1412103E+01  0.1069348E+06 -0.2734796E+01  0.2400641E+06  0.1704410E+01
  0.1071429E+01  0.1802053E+06 -0.1388031E+01  0.1092772E+06 -0.2724431E+01  0.2544684E+06  0.1725033E+01
  0.1102381E+01  0.1899167E+06 -0.1361421E+01  0.1114528E+06 -0.2715043E+01  0.2680157E+06  0.1747879E+01
  0.1133333E+01  0.1993472E+06 -0.1332384E+01  0.1134932E+06 -0.2706653E+01  0.2813537E+06  0.1772806E+01
  0.1164286E+01  0.2083757E+06 -0.1301031E+01  0.1152242E+06 -0.2698557E+01  0.2940229E+06  0.1799748E+01
  0.1195238E+01  0.2169240E+06 -0.1267524E+01  0.1164413E+06 -0.2689431E+01  0.3055630E+06  0.1828630E+01
  0.1226190E+01  0.2252207E+06 -0.1232203E+01  0.1175032E+06 -0.2680974E+01  0.3174403E+06  0.1858889E+01
  0.1257143E+01  0.2324346E+06 -0.1194800E+01  0.1183584E+06 -0.2673032E+01  0.3274358E+06  0.1890871E+01
  0.1288095E+01  0.2389210E+06 -0.1155886E+01  0.1190284E+06 -0.2666297E+01  0.3362735E+06  0.1924237E+01
  0.1319048E+01  0.2440845E+06 -0.1115202E+01  0.1195569E+06 -0.2660265E+01  0.3436585E+06  0.1958848E+01
  0.1350000E+01  0.2479536E+06 -0.1073433E+01  0.1196436E+06 -0.2653678E+01  0.3488666E+06  0.1994280E+01
  0.1380952E+01  0.2505159E+06 -0.1030914E+01  0.1193375E+06 -0.2646644E+01  0.3519561E+06  0.2030181E+01
  0.1411905E+01  0.2514523E+06 -0.9873930E+00  0.1188804E+06 -0.2639739E+01  0.3539664E+06  0.2066130E+01
  0.1442857E+01  0.2511270E+06 -0.9444569E+00  0.1182221E+06 -0.2633379E+01  0.3535968E+06  0.2101376E+01
  0.1473810E+01  0.2491515E+06 -0.9015652E+00  0.1173908E+06 -0.2627674E+01  0.3507161E+06  0.2136157E+01
  0.1504762E+01  0.2457529E+06 -0.8590415E+00  0.1164194E+06 -0.2622530E+01  0.3462918E+06  0.2170001E+01
  0.1535714E+01  0.2409147E+06 -0.8170821E+00  0.1153043E+06 -0.2618056E+01  0.3401029E+06  0.2202545E+01
  0.1566667E+01  0.2346935E+06 -0.7764955E+00  0.1136369E+06 -0.2611893E+01  0.3313160E+06  0.2233202E+01
  0.1597619E+01  0.2274176E+06 -0.7374616E+00  0.1117510E+06 -0.2605810E+01  0.3211087E+06  0.2261654E+01
  0.1628572E+01  0.2193315E+06 -0.7000329E+00  0.1097347E+06 -0.2599933E+01  0.3105558E+06  0.2287620E+01
  0.1659524E+01  0.2098677E+06 -0.6635635E+00  0.1075492E+06 -0.2594196E+01  0.2980342E+06  0.2311540E+01
  0.1690476E+01  0.1994554E+06 -0.6285321E+00  0.1051986E+06 -0.2588685E+01  0.2841255E+06  0.2332814E+01
  0.1721429E+01  0.1882338E+06 -0.5949366E+00  0.1026946E+06 -0.2583598E+01  0.2691846E+06  0.2351190E+01
  0.1752381E+01  0.1764720E+06 -0.5628440E+00  0.1000445E+06 -0.2579259E+01  0.2538531E+06  0.2366324E+01
  0.1783333E+01  0.1641978E+06 -0.5322845E+00  0.9718669E+05 -0.2575285E+01  0.2378263E+06  0.2377832E+01
  0.1814286E+01  0.1513972E+06 -0.5033480E+00  0.9395952E+05 -0.2570315E+01  0.2206667E+06  0.2385216E+01
  0.1845238E+01  0.1383015E+06 -0.4759292E+00  0.9060793E+05 -0.2566227E+01  0.2033882E+06  0.2388054E+01
  0.1876190E+01  0.1251483E+06 -0.4502527E+00  0.8720983E+05 -0.2563257E+01  0.1867314E+06  0.2385746E+01
  0.1907143E+01  0.1116577E+06 -0.4255404E+00  0.8375164E+05 -0.2561521E+01  0.1697265E+06  0.2377053E+01
  0.1938095E+01  0.9798923E+05 -0.4012679E+00  0.8023562E+05 -0.2560919E+01  0.1526350E+06  0.2360864E+01
  0.1969048E+01  0.8415960E+05 -0.3776732E+00  0.7670527E+05 -0.2561659E+01  0.1355606E+06  0.2334474E+01
  0.2000000E+01  0.7043338E+05 -0.3550786E+00  0.7319610E+05 -0.2563708E+01  0.1193115E+06  0.2295573E+01
