VARIABLES="w (rad/s)"
"A   1   1" "B   1   1"
"A   1   2" "B   1   2"
"A   1   3" "B   1   3"
Zone t="Motion of body    1 in DoF   1",I=    64,F=POINT
  0.5000000E-01  0.1027815E+06  0.1043433E-01 -0.1075745E-01 -0.2643096E-04 -0.1097926E+06 -0.8660663E-02
  0.8095238E-01  0.1034539E+06  0.4583528E-01  0.5466237E-02  0.5235354E-04 -0.1104152E+06 -0.3767811E-01
  0.1119048E+00  0.1035732E+06  0.1285765E+00  0.3211163E-01  0.2878197E-03 -0.1104960E+06 -0.1051395E+00
  0.1428571E+00  0.1038398E+06  0.2891605E+00  0.1815796E-01  0.3175824E-03 -0.1105171E+06 -0.2357883E+00
  0.1738095E+00  0.1038993E+06  0.5747423E+00  0.1615341E-01  0.3948370E-03 -0.1105387E+06 -0.4669140E+00
  0.2047619E+00  0.1040758E+06  0.1058522E+01  0.2787036E-01  0.3576437E-03 -0.1105791E+06 -0.8566822E+00
  0.2357143E+00  0.1043513E+06  0.1861095E+01  0.1281738E-01  0.4557893E-03 -0.1105655E+06 -0.1496887E+01
  0.2666667E+00  0.1043795E+06  0.3166737E+01  0.2975464E-02  0.1100823E-03 -0.1106397E+06 -0.2534330E+01
  0.2976190E+00  0.1046765E+06  0.5300456E+01  0.1876465E-01  0.8134246E-03 -0.1107002E+06 -0.4214521E+01
  0.3285715E+00  0.1049918E+06  0.8747627E+01  0.9380837E-02  0.7794946E-03 -0.1107187E+06 -0.6897718E+01
  0.3595238E+00  0.1052334E+06  0.1431843E+02  0.1740108E-01  0.7210672E-03 -0.1108067E+06 -0.1119976E+02
  0.3904762E+00  0.1055411E+06  0.2326792E+02  0.7033929E-02  0.9972155E-03 -0.1107861E+06 -0.1802856E+02
  0.4214286E+00  0.1060939E+06  0.3732303E+02  0.3801766E-01  0.2712518E-02 -0.1108087E+06 -0.2859722E+02
  0.4523810E+00  0.1063899E+06  0.5928330E+02  0.2833316E-02 -0.5185604E-04 -0.1110584E+06 -0.4500111E+02
  0.4833333E+00  0.1067665E+06  0.9181742E+02  0.1123889E-01  0.2046943E-02 -0.1110821E+06 -0.6886249E+02
  0.5142857E+00  0.1073562E+06  0.1399456E+03  0.1530965E-01  0.2467871E-02 -0.1111515E+06 -0.1036231E+03
  0.5452381E+00  0.1080177E+06  0.2082111E+03 -0.2574671E-02  0.1240730E-02 -0.1113282E+06 -0.1521168E+03
  0.5761905E+00  0.1085839E+06  0.3022961E+03 -0.1641896E-01 -0.1729488E-02 -0.1116309E+06 -0.2179422E+03
  0.6071429E+00  0.1091014E+06  0.4305518E+03  0.1688878E-01  0.4856110E-02 -0.1118083E+06 -0.3060192E+03
  0.6380953E+00  0.1098886E+06  0.5999734E+03 -0.1626086E-01  0.9384155E-03 -0.1118942E+06 -0.4194410E+03
  0.6690477E+00  0.1108121E+06  0.8217427E+03  0.7663061E-02  0.9546280E-03 -0.1121036E+06 -0.5647209E+03
  0.7000000E+00  0.1116287E+06  0.1107886E+04 -0.1456124E-01 -0.1440048E-02 -0.1123590E+06 -0.7483823E+03
  0.7309524E+00  0.1124051E+06  0.1469725E+04 -0.2171022E-02  0.2319336E-02 -0.1126826E+06 -0.9754788E+03
  0.7619048E+00  0.1133101E+06  0.1923461E+04 -0.7209777E-03 -0.2441406E-03 -0.1128560E+06 -0.1251688E+04
  0.7928572E+00  0.1142636E+06  0.2485671E+04 -0.5542651E-02  0.3585815E-03 -0.1129889E+06 -0.1584318E+04
  0.8238096E+00  0.1153693E+06  0.3175518E+04  0.0000000E+00  0.1827240E-02 -0.1131917E+06 -0.1980719E+04
  0.8547620E+00  0.1164615E+06  0.4011156E+04 -0.1171059E-01  0.1445770E-02 -0.1132925E+06 -0.2444617E+04
  0.8857143E+00  0.1175545E+06  0.5013687E+04  0.2894248E-02  0.4638672E-02 -0.1134952E+06 -0.2984363E+04
  0.9166667E+00  0.1184778E+06  0.6201874E+04 -0.1052024E-01  0.4348755E-03 -0.1136697E+06 -0.3603006E+04
  0.9476191E+00  0.1194415E+06  0.7597792E+04 -0.5667988E-02 -0.5416870E-03 -0.1137561E+06 -0.4301501E+04
  0.9785714E+00  0.1204049E+06  0.9220788E+04 -0.8732037E-03 -0.6256104E-03 -0.1136226E+06 -0.5076606E+04
  0.1009524E+01  0.1214315E+06  0.1109195E+05 -0.1209187E-01 -0.1525879E-03 -0.1134330E+06 -0.5930383E+04
  0.1040476E+01  0.1223782E+06  0.1322802E+05  0.1454788E-01  0.7369995E-02 -0.1133193E+06 -0.6866402E+04
  0.1071429E+01  0.1231545E+06  0.1564032E+05 -0.2392578E-01 -0.1956177E-01 -0.1130054E+06 -0.7864482E+04
  0.1102381E+01  0.1238604E+06  0.1834351E+05 -0.1461680E-01 -0.8300781E-02 -0.1127561E+06 -0.8926633E+04
  0.1133333E+01  0.1243064E+06  0.2133607E+05 -0.1163258E-01 -0.6683350E-02 -0.1123079E+06 -0.1002244E+05
  0.1164286E+01  0.1245917E+06  0.2461265E+05  0.2149336E-01  0.1589966E-01 -0.1117564E+06 -0.1113786E+05
  0.1195238E+01  0.1246748E+06  0.2816360E+05 -0.1889415E-01 -0.1953125E-01 -0.1111739E+06 -0.1226503E+05
  0.1226190E+01  0.1244887E+06  0.3196237E+05  0.1304138E-01  0.9948730E-02 -0.1103206E+06 -0.1335533E+05
  0.1257143E+01  0.1241401E+06  0.3602175E+05 -0.2077970E-01 -0.1220703E-01 -0.1095033E+06 -0.1442829E+05
  0.1288095E+01  0.1235904E+06  0.4022791E+05 -0.5591317E-02 -0.3662109E-03 -0.1085325E+06 -0.1539702E+05
  0.1319048E+01  0.1227818E+06  0.4461829E+05 -0.2221063E-02  0.1831055E-02 -0.1075021E+06 -0.1627679E+05
  0.1350000E+01  0.1217397E+06  0.4910895E+05  0.1808449E-03 -0.1342773E-02 -0.1064234E+06 -0.1702658E+05
  0.1380952E+01  0.1204539E+06  0.5366602E+05 -0.1219861E-01 -0.4333496E-02 -0.1053895E+06 -0.1765513E+05
  0.1411905E+01  0.1180459E+06  0.5747326E+05 -0.9164536E-02  0.1098633E-02 -0.1043454E+06 -0.1792148E+05
  0.1442857E+01  0.1163375E+06  0.6195009E+05  0.1015238E-02  0.3173828E-02 -0.1032007E+06 -0.1818884E+05
  0.1473810E+01  0.1144515E+06  0.6632926E+05  0.3478708E-02  0.7324219E-02 -0.1020544E+06 -0.1825111E+05
  0.1504762E+01  0.1123424E+06  0.7055799E+05 -0.5029606E-02  0.6347656E-02 -0.1008561E+06 -0.1809152E+05
  0.1535714E+01  0.1101173E+06  0.7459394E+05 -0.5723110E-02 -0.3051758E-02 -0.9974053E+05 -0.1773581E+05
  0.1566667E+01  0.1077999E+06  0.7839561E+05 -0.1620678E-01  0.7324219E-02 -0.9870208E+05 -0.1717586E+05
  0.1597619E+01  0.1053767E+06  0.8196229E+05 -0.7793580E-02  0.5615234E-02 -0.9781974E+05 -0.1647102E+05
  0.1628572E+01  0.1028259E+06  0.8521801E+05 -0.7345634E-02  0.1049805E-01 -0.9684216E+05 -0.1548137E+05
  0.1659524E+01  0.1002961E+06  0.8819455E+05 -0.1287255E-01 -0.6469727E-02 -0.9605555E+05 -0.1438454E+05
  0.1690476E+01  0.9780343E+05  0.9086529E+05 -0.7365481E-02 -0.8056641E-02 -0.9540188E+05 -0.1314151E+05
  0.1721429E+01  0.9527598E+05  0.9319970E+05  0.3403786E-02 -0.7324219E-02 -0.9473246E+05 -0.1170613E+05
  0.1752381E+01  0.9282707E+05  0.9522966E+05  0.1880812E-02 -0.8056641E-02 -0.9420851E+05 -0.1019702E+05
  0.1783333E+01  0.9043866E+05  0.9692950E+05 -0.6708163E-02  0.5004883E-02 -0.9373197E+05 -0.8529839E+04
  0.1814286E+01  0.8814896E+05  0.9836070E+05 -0.4238820E-02  0.1037598E-01 -0.9342650E+05 -0.6828377E+04
  0.1845238E+01  0.8592323E+05  0.9954786E+05 -0.4432334E-02  0.4028320E-02 -0.9326615E+05 -0.5153634E+04
  0.1876190E+01  0.8372442E+05  0.1004152E+06  0.1106069E-02 -0.1220703E-03 -0.9302250E+05 -0.3239475E+04
  0.1907143E+01  0.8164751E+05  0.1010773E+06 -0.1056114E-01  0.8300781E-02 -0.9295271E+05 -0.1404954E+04
  0.1938095E+01  0.7970830E+05  0.1015385E+06 -0.6235484E-02 -0.1623535E-01 -0.9302211E+05  0.3977661E+03
  0.1969048E+01  0.7786696E+05  0.1017588E+06  0.7067384E-02 -0.1708984E-01 -0.9310857E+05  0.2265655E+04
  0.2000000E+01  0.7609545E+05  0.1017602E+06 -0.8239746E-02  0.7568359E-02 -0.9320197E+05  0.4167465E+04
Zone t="Motion of body    1 in DoF   2",I=    64,F=POINT
  0.5000000E-01 -0.8239746E-02 -0.3433228E-04  0.1078457E+06  0.3506984E+03  0.6103516E-02  0.2384186E-04
  0.8095238E-01  0.1357135E-01 -0.3528595E-04  0.1062281E+06  0.5814439E+03 -0.5277746E-02 -0.2288818E-04
  0.1119048E+00  0.5726916E-02 -0.1239777E-03  0.1053794E+06  0.8325481E+03 -0.3217981E-01  0.7629395E-05
  0.1428571E+00  0.2563477E-02  0.4577637E-04  0.1048816E+06  0.1113446E+04  0.1858521E-01 -0.4577637E-04
  0.1738095E+00  0.5267417E-03  0.9346008E-04  0.1048230E+06  0.1436054E+04 -0.1545109E-01 -0.3890991E-03
  0.2047619E+00 -0.3427905E-02  0.1029968E-03  0.1049172E+06  0.1815340E+04  0.1818280E-01  0.1983643E-03
  0.2357143E+00  0.8027047E-02 -0.7133484E-03  0.1052496E+06  0.2272086E+04 -0.6732362E-02 -0.8392334E-04
  0.2666667E+00 -0.3204345E-02 -0.8010864E-04  0.1057546E+06  0.2823862E+04  0.2197265E-01 -0.6866455E-04
  0.2976190E+00  0.1763672E-01 -0.1296997E-03  0.1062808E+06  0.3510143E+04 -0.9638672E-02 -0.1907349E-03
  0.3285715E+00 -0.5572775E-03 -0.1907349E-03  0.1069502E+06  0.4351101E+04 -0.1857591E-02 -0.1449585E-02
  0.3595238E+00  0.7130199E-02  0.4043579E-03  0.1076248E+06  0.5393583E+04 -0.1392087E-01 -0.1281738E-02
  0.3904762E+00  0.2813572E-01 -0.8544922E-03  0.1082251E+06  0.6672901E+04  0.1563095E-02 -0.6408691E-03
  0.4214286E+00  0.9993212E-02  0.8544922E-03  0.1084331E+06  0.8174386E+04 -0.3475900E-02 -0.1464844E-02
  0.4523810E+00 -0.9174547E-02  0.8239746E-03  0.1085684E+06  0.9973036E+04 -0.2698396E-03 -0.1953125E-02
  0.4833333E+00 -0.5808863E-02 -0.8239746E-03  0.1083081E+06  0.1192237E+05 -0.1363820E-01  0.3295898E-02
  0.5142857E+00 -0.1305474E-01 -0.3173828E-02  0.1076120E+06  0.1411325E+05 -0.1732720E-01 -0.6713867E-03
  0.5452381E+00  0.1298530E-01  0.1861572E-02  0.1066415E+06  0.1642344E+05  0.3604539E-01  0.2502441E-02
  0.5761905E+00  0.3177863E-02 -0.7324219E-03  0.1054568E+06  0.1881013E+05 -0.5720154E-02  0.4272461E-03
  0.6071429E+00  0.2855009E-01 -0.2655029E-02  0.1039954E+06  0.2132845E+05 -0.1226447E-01  0.1831055E-02
  0.6380953E+00 -0.7652169E-03 -0.1220703E-02  0.1024094E+06  0.2384051E+05 -0.7269560E-02 -0.3967285E-02
  0.6690477E+00  0.1021742E-01  0.3479004E-02  0.1005940E+06  0.2639526E+05 -0.1021742E-01 -0.6103516E-04
  0.7000000E+00 -0.1412528E-01 -0.1647949E-02  0.9862220E+05  0.2899812E+05  0.1988002E-01  0.7202148E-02
  0.7309524E+00  0.2004021E-02 -0.3479004E-02  0.9665435E+05  0.3157086E+05 -0.5678058E-02 -0.2563477E-02
  0.7619048E+00 -0.1522064E-01  0.1831055E-02  0.9459791E+05  0.3412942E+05  0.4165649E-02 -0.2319336E-02
  0.7928572E+00  0.1847550E-01  0.5065918E-02  0.9239596E+05  0.3667347E+05  0.1324078E-01 -0.2319336E-02
  0.8238096E+00 -0.1185423E-02  0.4272461E-03  0.9011770E+05  0.3917621E+05 -0.5630758E-02 -0.9521484E-02
  0.8547620E+00 -0.1742307E-01  0.3601074E-02  0.8781622E+05  0.4161423E+05  0.6283730E-02  0.3662109E-02
  0.8857143E+00 -0.1460906E-01  0.1464844E-02  0.8551576E+05  0.4396777E+05 -0.1075006E-01 -0.3906250E-02
  0.9166667E+00 -0.6525213E-02  0.5981445E-02  0.8321777E+05  0.4623257E+05 -0.1171875E-01  0.1708984E-02
  0.9476191E+00 -0.4122173E-02  0.2929688E-02  0.8091757E+05  0.4840063E+05 -0.1391234E-01 -0.8666992E-02
  0.9785714E+00 -0.1297331E-01  0.1220703E-03  0.7860708E+05  0.5047023E+05 -0.1147639E-01 -0.7690430E-02
  0.1009524E+01  0.1185003E-01 -0.5004883E-02  0.7630920E+05  0.5242813E+05 -0.8464310E-02 -0.8422852E-02
  0.1040476E+01 -0.3050361E-02  0.1220703E-02  0.7403280E+05  0.5427091E+05  0.8447153E-02 -0.3662109E-02
  0.1071429E+01  0.1139323E-02  0.7934570E-02  0.7178254E+05  0.5599235E+05 -0.2962240E-02  0.1220703E-02
  0.1102381E+01  0.5093733E-02 -0.4028320E-02  0.6961622E+05  0.5756507E+05 -0.1350947E-01 -0.8056641E-02
  0.1133333E+01 -0.9262983E-02  0.8544922E-02  0.6750555E+05  0.5900603E+05  0.2154182E-02 -0.1293945E-01
  0.1164286E+01  0.1048457E-01  0.2929688E-02  0.6547895E+05  0.6030375E+05 -0.1111364E-01  0.6103516E-02
  0.1195238E+01 -0.1337910E-01 -0.4760742E-02  0.6352345E+05  0.6147320E+05  0.1429828E-02 -0.1220703E-02
  0.1226190E+01 -0.3185680E-02 -0.3784180E-02  0.6161904E+05  0.6253027E+05  0.1174719E-01 -0.6591797E-02
  0.1257143E+01 -0.1320579E-01  0.6591797E-02  0.5980646E+05  0.6348928E+05  0.9321732E-02 -0.2685547E-02
  0.1288095E+01  0.3127347E-02  0.5249023E-02  0.5803526E+05  0.6426572E+05 -0.6823302E-02 -0.9765625E-03
  0.1319048E+01 -0.8328985E-03  0.4638672E-02  0.5635069E+05  0.6494891E+05 -0.4627214E-02  0.1708984E-02
  0.1350000E+01  0.5967882E-02 -0.1586914E-02  0.5474483E+05  0.6550146E+05 -0.5063657E-02  0.5371094E-02
  0.1380952E+01 -0.1025391E-01 -0.2075195E-02  0.5323507E+05  0.6593020E+05 -0.4242996E-02  0.5126953E-02
  0.1411905E+01  0.7694752E-02  0.4272461E-02  0.5150452E+05  0.6632496E+05  0.2420821E-02 -0.9765625E-02
  0.1442857E+01 -0.4399366E-02  0.6835938E-02  0.5014284E+05  0.6657841E+05 -0.7783493E-02 -0.4150391E-02
  0.1473810E+01  0.5300888E-02  0.4882812E-02  0.4885087E+05  0.6672502E+05 -0.3810013E-02  0.1464844E-02
  0.1504762E+01 -0.1200616E-01 -0.1513672E-01  0.4762432E+05  0.6679023E+05  0.1622453E-02 -0.1220703E-02
  0.1535714E+01 -0.5007721E-02  0.2685547E-02  0.4647816E+05  0.6675884E+05  0.1112827E-01 -0.2441406E-03
  0.1566667E+01 -0.4675033E-02 -0.3173828E-02  0.4540017E+05  0.6663129E+05 -0.6233377E-02 -0.1049805E-01
  0.1597619E+01  0.4431644E-02  0.1318359E-01  0.4440287E+05  0.6645072E+05 -0.1130833E-01 -0.7324219E-03
  0.1628572E+01  0.9594298E-02  0.4150391E-02  0.4344271E+05  0.6621121E+05  0.7795367E-02 -0.3906250E-02
  0.1659524E+01 -0.9121122E-02  0.1586914E-01  0.4256535E+05  0.6589992E+05 -0.5516808E-02  0.7324219E-03
  0.1690476E+01 -0.7004429E-02  0.2685547E-02  0.4175351E+05  0.6550695E+05  0.5343585E-02  0.1708984E-02
  0.1721429E+01 -0.1418244E-03 -0.7324219E-02  0.4098455E+05  0.6507057E+05 -0.9998622E-02 -0.9521484E-02
  0.1752381E+01 -0.6478352E-02 -0.9765625E-02  0.4027799E+05  0.6456231E+05 -0.1393194E-02 -0.5126953E-02
  0.1783333E+01 -0.1437464E-02 -0.3906250E-02  0.3961985E+05  0.6398910E+05 -0.3833236E-02 -0.7812500E-02
  0.1814286E+01  0.1278374E-02  0.1708984E-01  0.3902328E+05  0.6336295E+05 -0.2018486E-01 -0.1953125E-02
  0.1845238E+01 -0.3770791E-02 -0.1220703E-02  0.3848100E+05  0.6273284E+05 -0.9129284E-02 -0.7568359E-02
  0.1876190E+01 -0.2082011E-02 -0.6103516E-02  0.3795936E+05  0.6206831E+05 -0.1424877E-01 -0.9277344E-02
  0.1907143E+01  0.6400691E-03 -0.1416016E-01  0.3749545E+05  0.6138771E+05 -0.1363347E-01 -0.1464844E-01
  0.1938095E+01 -0.7432193E-02  0.1733398E-01  0.3708115E+05  0.6066056E+05 -0.4031020E-02 -0.4882812E-02
  0.1969048E+01 -0.5393530E-02 -0.4150391E-02  0.3669846E+05  0.5989238E+05  0.1277089E-01 -0.9277344E-02
  0.2000000E+01  0.2868652E-02  0.4394531E-02  0.3634023E+05  0.5910259E+05  0.4394531E-02 -0.1245117E-01
Zone t="Motion of body    1 in DoF   3",I=    64,F=POINT
  0.5000000E-01 -0.1099031E+06 -0.8652737E-02 -0.1113892E-01 -0.5690220E-04  0.4122451E+06  0.7825033E-02
  0.8095238E-01 -0.1106282E+06 -0.3768951E-01 -0.3298591E-02 -0.2617502E-04  0.4123597E+06  0.3112833E-01
  0.1119048E+00 -0.1107096E+06 -0.1050712E+00 -0.1288556E-01 -0.7565331E-04  0.4123712E+06  0.8565988E-01
  0.1428571E+00 -0.1107722E+06 -0.2357346E+00 -0.1578140E-01 -0.3329390E-03  0.4122475E+06  0.1917393E+00
  0.1738095E+00 -0.1107624E+06 -0.4667960E+00  0.5245470E-02 -0.9558629E-05  0.4124404E+06  0.3784297E+00
  0.2047619E+00 -0.1108209E+06 -0.8563128E+00 -0.3759517E-01 -0.6553316E-03  0.4123745E+06  0.6939338E+00
  0.2357143E+00 -0.1108052E+06 -0.1497506E+01 -0.3806374E-01 -0.8742753E-03  0.4124759E+06  0.1204808E+01
  0.2666667E+00 -0.1108524E+06 -0.2532891E+01 -0.8754730E-02 -0.2582408E-03  0.4125601E+06  0.2027171E+01
  0.2976190E+00 -0.1109441E+06 -0.4213156E+01 -0.4163086E-01 -0.1433592E-02  0.4124104E+06  0.3350410E+01
  0.3285715E+00 -0.1109645E+06 -0.6897399E+01  0.3018586E-03 -0.1798645E-03  0.4124448E+06  0.5439267E+01
  0.3595238E+00 -0.1110195E+06 -0.1119664E+02 -0.2266385E-01 -0.1110345E-02  0.4126944E+06  0.8754047E+01
  0.3904762E+00 -0.1109871E+06 -0.1802737E+02 -0.2454060E-01 -0.1296237E-02  0.4127761E+06  0.1396840E+02
  0.4214286E+00 -0.1110373E+06 -0.2863385E+02 -0.4127631E-01 -0.2497375E-02  0.4127235E+06  0.2193513E+02
  0.4523810E+00 -0.1112950E+06 -0.4500169E+02 -0.9545577E-02 -0.9281635E-03  0.4126764E+06  0.3418542E+02
  0.4833333E+00 -0.1112712E+06 -0.6888930E+02 -0.3359038E-01 -0.3602445E-02  0.4130375E+06  0.5166391E+02
  0.5142857E+00 -0.1113609E+06 -0.1037627E+03 -0.7568783E-01 -0.9918094E-02  0.4130303E+06  0.7681247E+02
  0.5452381E+00 -0.1115668E+06 -0.1523696E+03 -0.5345241E-02 -0.2094269E-02  0.4130160E+06  0.1113156E+03
  0.5761905E+00 -0.1118782E+06 -0.2180557E+03 -0.1424742E-01 -0.4914522E-02  0.4129782E+06  0.1572006E+03
  0.6071429E+00 -0.1120155E+06 -0.3060836E+03 -0.7062126E-02 -0.3355980E-02  0.4133292E+06  0.2177269E+03
  0.6380953E+00 -0.1120985E+06 -0.4199868E+03 -0.1473042E-01 -0.5330086E-02  0.4135636E+06  0.2935497E+03
  0.6690477E+00 -0.1123403E+06 -0.5657214E+03  0.1578226E-01  0.5579472E-02  0.4135087E+06  0.3886448E+03
  0.7000000E+00 -0.1126186E+06 -0.7493805E+03  0.1024519E-01  0.3999710E-02  0.4134757E+06  0.5063359E+03
  0.7309524E+00 -0.1129273E+06 -0.9755498E+03  0.2486238E-01  0.1044083E-01  0.4135629E+06  0.6477004E+03
  0.7619048E+00 -0.1130737E+06 -0.1252163E+04  0.7810592E-03  0.4480362E-02  0.4138079E+06  0.8149355E+03
  0.7928572E+00 -0.1132070E+06 -0.1585806E+04  0.1649324E-01  0.5722046E-02  0.4139541E+06  0.1010277E+04
  0.8238096E+00 -0.1134263E+06 -0.1982849E+04  0.2650531E-01  0.1321983E-01  0.4139655E+06  0.1235694E+04
  0.8547620E+00 -0.1135456E+06 -0.2448864E+04 -0.3727395E-01 -0.1877213E-01  0.4140039E+06  0.1491258E+04
  0.8857143E+00 -0.1137637E+06 -0.2987014E+04  0.5512853E-03  0.6980896E-03  0.4137944E+06  0.1777854E+04
  0.9166667E+00 -0.1139275E+06 -0.3601197E+04  0.4727450E-02  0.2136230E-02  0.4137310E+06  0.2094025E+04
  0.9476191E+00 -0.1139875E+06 -0.4297312E+04  0.9822366E-02  0.1701355E-02  0.4138425E+06  0.2434347E+04
  0.9785714E+00 -0.1138461E+06 -0.5077710E+04  0.7890020E-02 -0.1258850E-02  0.4139406E+06  0.2793247E+04
  0.1009524E+01 -0.1136702E+06 -0.5937360E+04 -0.1357313E-01 -0.4371643E-02  0.4137575E+06  0.3166572E+04
  0.1040476E+01 -0.1135623E+06 -0.6870322E+04 -0.3924407E-01 -0.3125000E-01  0.4135558E+06  0.3554016E+04
  0.1071429E+01 -0.1132744E+06 -0.7870441E+04 -0.1139323E-02  0.1136017E-01  0.4132213E+06  0.3944693E+04
  0.1102381E+01 -0.1130236E+06 -0.8920029E+04 -0.9384649E-02 -0.1177979E-01  0.4128682E+06  0.4333023E+04
  0.1133333E+01 -0.1125792E+06 -0.1000958E+05  0.1445995E-01  0.1739502E-01  0.4126118E+06  0.4709293E+04
  0.1164286E+01 -0.1120142E+06 -0.1111777E+05 -0.2028763E-01 -0.1023865E-01  0.4122800E+06  0.5050519E+04
  0.1195238E+01 -0.1114075E+06 -0.1223029E+05 -0.4468211E-02 -0.2777100E-02  0.4120515E+06  0.5347780E+04
  0.1226190E+01 -0.1105637E+06 -0.1332701E+05  0.4255869E-02 -0.1205444E-01  0.4116793E+06  0.5579365E+04
  0.1257143E+01 -0.1097274E+06 -0.1436494E+05  0.8617748E-02  0.1225281E-01  0.4112958E+06  0.5749831E+04
  0.1288095E+01 -0.1087752E+06 -0.1533403E+05 -0.8102671E-02 -0.1803589E-01  0.4108072E+06  0.5854788E+04
  0.1319048E+01 -0.1077511E+06 -0.1620033E+05  0.1642661E-01  0.9002686E-02  0.4104238E+06  0.5895055E+04
  0.1350000E+01 -0.1066796E+06 -0.1692098E+05 -0.1057943E-01 -0.2133179E-01  0.4098330E+06  0.5834000E+04
  0.1380952E+01 -0.1056520E+06 -0.1751256E+05  0.4729172E-02  0.1675415E-01  0.4095024E+06  0.5710242E+04
  0.1411905E+01 -0.1063671E+06 -0.1923146E+05  0.1227702E-01  0.1562500E-01  0.4087139E+06  0.5906647E+04
  0.1442857E+01 -0.1051970E+06 -0.1960348E+05 -0.2876508E-02  0.6164551E-02  0.4084902E+06  0.5640445E+04
  0.1473810E+01 -0.1040030E+06 -0.1975063E+05 -0.6004912E-02 -0.8056641E-02  0.4081944E+06  0.5278677E+04
  0.1504762E+01 -0.1027757E+06 -0.1972941E+05 -0.3204346E-02  0.2508545E-01  0.4080800E+06  0.4874581E+04
  0.1535714E+01 -0.1016122E+06 -0.1948523E+05  0.8346202E-02 -0.4333496E-02  0.4080074E+06  0.4419698E+04
  0.1566667E+01 -0.1005166E+06 -0.1898274E+05 -0.2220641E-02  0.3479004E-02  0.4077352E+06  0.3845521E+04
  0.1597619E+01 -0.9958559E+05 -0.1832356E+05 -0.9932994E-03 -0.2047729E-01  0.4077989E+06  0.3367283E+04
  0.1628572E+01 -0.9858863E+05 -0.1744340E+05 -0.7533023E-02 -0.1593018E-01  0.4076744E+06  0.2776154E+04
  0.1659524E+01 -0.9776593E+05 -0.1642352E+05  0.1033482E-01 -0.4089355E-02  0.4077887E+06  0.2250994E+04
  0.1690476E+01 -0.9706438E+05 -0.1519696E+05 -0.7112744E-02 -0.3024292E-01  0.4078116E+06  0.1649938E+04
  0.1721429E+01 -0.9636997E+05 -0.1387815E+05  0.1985542E-02 -0.4089355E-02  0.4079753E+06  0.1127115E+04
  0.1752381E+01 -0.9579904E+05 -0.1246353E+05 -0.9752357E-03 -0.6607056E-02  0.4082754E+06  0.6695421E+03
  0.1783333E+01 -0.9527642E+05 -0.1086693E+05  0.6160558E-03  0.6469727E-02  0.4084394E+06  0.1569208E+03
  0.1814286E+01 -0.9491435E+05 -0.9152472E+04 -0.2018486E-03 -0.2548218E-02  0.4085771E+06 -0.3823652E+03
  0.1845238E+01 -0.9470527E+05 -0.7487449E+04 -0.5953881E-03 -0.5920410E-02  0.4090181E+06 -0.5833593E+03
  0.1876190E+01 -0.9443369E+05 -0.5675149E+04  0.9043737E-02 -0.1586151E-01  0.4092098E+06 -0.1033225E+04
  0.1907143E+01 -0.9433591E+05 -0.3900244E+04 -0.3520380E-02 -0.1078033E-01  0.4095690E+06 -0.1209987E+04
  0.1938095E+01 -0.9436991E+05 -0.2080046E+04  0.1889540E-03  0.1306152E-01  0.4098794E+06 -0.1430902E+04
  0.1969048E+01 -0.9442750E+05 -0.2159987E+03  0.1580862E-01  0.9422302E-02  0.4101405E+06 -0.1645179E+04
  0.2000000E+01 -0.9449601E+05  0.1584123E+04 -0.4272461E-03  0.1277924E-02  0.4104776E+06 -0.1719502E+04
