VARIABLES="w (rad/s)"
"abs(F   1   1)" "angle(F   1   1)"
"abs(F   1   2)" "angle(F   1   2)"
"abs(F   1   3)" "angle(F   1   3)"
Zone t="Diffraction force - beta =   0.000 deg",I=    64,F=POINT
  0.5000000E-01  0.2184730E+04 -0.1570772E+01  0.1037083E+06 -0.7183153E-05  0.7153172E+04  0.1570775E+01
  0.8095238E-01  0.3571433E+04 -0.1570776E+01  0.1033683E+06 -0.1929730E-04  0.1168058E+05  0.1570799E+01
  0.1119048E+00  0.4984347E+04 -0.1570801E+01  0.1028683E+06 -0.3823477E-04  0.1628287E+05  0.1570790E+01
  0.1428571E+00  0.6438210E+04 -0.1570798E+01  0.1022094E+06 -0.6539662E-04  0.2101580E+05  0.1570790E+01
  0.1738095E+00  0.7950402E+04 -0.1570789E+01  0.1013923E+06 -0.1027719E-03  0.2591864E+05  0.1570800E+01
  0.2047619E+00  0.9536938E+04 -0.1570783E+01  0.1004187E+06 -0.1534608E-03  0.3105292E+05  0.1570814E+01
  0.2357143E+00  0.1121179E+05 -0.1570783E+01  0.9929130E+05 -0.2217915E-03  0.3645673E+05  0.1570812E+01
  0.2666667E+00  0.1300475E+05 -0.1570771E+01  0.9801072E+05 -0.3127687E-03  0.4221879E+05  0.1570826E+01
  0.2976190E+00  0.1493467E+05 -0.1570754E+01  0.9658483E+05 -0.4358229E-03  0.4840049E+05  0.1570837E+01
  0.3285715E+00  0.1704018E+05 -0.1570740E+01  0.9501297E+05 -0.5990451E-03  0.5509882E+05  0.1570859E+01
  0.3595238E+00  0.1933212E+05 -0.1570709E+01  0.9330955E+05 -0.8172708E-03  0.6237380E+05  0.1570883E+01
  0.3904762E+00  0.2185587E+05 -0.1570665E+01  0.9147455E+05 -0.1105017E-02  0.7033828E+05  0.1570928E+01
  0.4214286E+00  0.2461938E+05 -0.1570601E+01  0.8952690E+05 -0.1471170E-02  0.7903166E+05  0.1570995E+01
  0.4523810E+00  0.2764888E+05 -0.1570507E+01  0.8747127E+05 -0.1946081E-02  0.8847767E+05  0.1571086E+01
  0.4833333E+00  0.3092802E+05 -0.1570379E+01  0.8532234E+05 -0.2507628E-02  0.9866562E+05  0.1571213E+01
  0.5142857E+00  0.3445355E+05 -0.1570202E+01  0.8309550E+05 -0.3194694E-02  0.1095702E+06  0.1571390E+01
  0.5452381E+00  0.3822186E+05 -0.1569967E+01  0.8078746E+05 -0.3990402E-02  0.1211064E+06  0.1571624E+01
  0.5761905E+00  0.4215446E+05 -0.1569663E+01  0.7843152E+05 -0.4892925E-02  0.1330665E+06  0.1571931E+01
  0.6071429E+00  0.4627043E+05 -0.1569271E+01  0.7601700E+05 -0.5939009E-02  0.1454582E+06  0.1572321E+01
  0.6380953E+00  0.5054529E+05 -0.1568785E+01  0.7355007E+05 -0.7087140E-02  0.1582337E+06  0.1572807E+01
  0.6690477E+00  0.5492590E+05 -0.1568184E+01  0.7106124E+05 -0.8369527E-02  0.1712326E+06  0.1573409E+01
  0.7000000E+00  0.5941885E+05 -0.1567448E+01  0.6853930E+05 -0.9808908E-02  0.1843408E+06  0.1574145E+01
  0.7309524E+00  0.6403951E+05 -0.1566562E+01  0.6598617E+05 -0.1138651E-01  0.1976753E+06  0.1575029E+01
  0.7619048E+00  0.6868890E+05 -0.1565506E+01  0.6344392E+05 -0.1310884E-01  0.2109551E+06  0.1576087E+01
  0.7928572E+00  0.7342835E+05 -0.1564254E+01  0.6089384E+05 -0.1500468E-01  0.2243163E+06  0.1577338E+01
  0.8238096E+00  0.7827313E+05 -0.1562786E+01  0.5834089E+05 -0.1708212E-01  0.2377562E+06  0.1578807E+01
  0.8547620E+00  0.8310688E+05 -0.1561081E+01  0.5580362E+05 -0.1933257E-01  0.2509825E+06  0.1580512E+01
  0.8857143E+00  0.8797740E+05 -0.1559113E+01  0.5330050E+05 -0.2175485E-01  0.2640767E+06  0.1582479E+01
  0.9166667E+00  0.9287257E+05 -0.1556858E+01  0.5081852E+05 -0.2438782E-01  0.2769728E+06  0.1584734E+01
  0.9476191E+00  0.9784024E+05 -0.1554292E+01  0.4836477E+05 -0.2724884E-01  0.2897689E+06  0.1587299E+01
  0.9785714E+00  0.1027594E+06 -0.1551388E+01  0.4594765E+05 -0.3034880E-01  0.3022870E+06  0.1590202E+01
  0.1009524E+01  0.1076130E+06 -0.1548127E+01  0.4359903E+05 -0.3358755E-01  0.3143474E+06  0.1593464E+01
  0.1040476E+01  0.1124850E+06 -0.1544479E+01  0.4129739E+05 -0.3709552E-01  0.3262508E+06  0.1597110E+01
  0.1071429E+01  0.1173081E+06 -0.1540434E+01  0.3904758E+05 -0.4088971E-01  0.3375865E+06  0.1601154E+01
  0.1102381E+01  0.1221491E+06 -0.1535963E+01  0.3684893E+05 -0.4500918E-01  0.3486490E+06  0.1605623E+01
  0.1133333E+01  0.1268476E+06 -0.1531045E+01  0.3471763E+05 -0.4939811E-01  0.3590776E+06  0.1610538E+01
  0.1164286E+01  0.1314220E+06 -0.1525664E+01  0.3266983E+05 -0.5389395E-01  0.3688532E+06  0.1615917E+01
  0.1195238E+01  0.1359668E+06 -0.1519789E+01  0.3069027E+05 -0.5873597E-01  0.3783318E+06  0.1621789E+01
  0.1226190E+01  0.1403451E+06 -0.1513427E+01  0.2877882E+05 -0.6395630E-01  0.3869418E+06  0.1628147E+01
  0.1257143E+01  0.1446109E+06 -0.1506577E+01  0.2693619E+05 -0.6963789E-01  0.3949992E+06  0.1634991E+01
  0.1288095E+01  0.1488518E+06 -0.1499146E+01  0.2516238E+05 -0.7576228E-01  0.4027042E+06  0.1642416E+01
  0.1319048E+01  0.1527736E+06 -0.1491250E+01  0.2347839E+05 -0.8192049E-01  0.4092797E+06  0.1650300E+01
  0.1350000E+01  0.1565287E+06 -0.1482854E+01  0.2187407E+05 -0.8835287E-01  0.4150854E+06  0.1658689E+01
  0.1380952E+01  0.1601571E+06 -0.1473930E+01  0.2034618E+05 -0.9518092E-01  0.4203280E+06  0.1667605E+01
  0.1411905E+01  0.1632910E+06 -0.1464565E+01  0.1889342E+05 -0.1024698E+00  0.4241855E+06  0.1676952E+01
  0.1442857E+01  0.1664784E+06 -0.1454685E+01  0.1751156E+05 -0.1103064E+00  0.4275885E+06  0.1686815E+01
  0.1473810E+01  0.1694622E+06 -0.1444318E+01  0.1619931E+05 -0.1188168E+00  0.4303029E+06  0.1697158E+01
  0.1504762E+01  0.1720839E+06 -0.1433511E+01  0.1496205E+05 -0.1277494E+00  0.4319215E+06  0.1707949E+01
  0.1535714E+01  0.1743356E+06 -0.1422358E+01  0.1380080E+05 -0.1363978E+00  0.4323043E+06  0.1719054E+01
  0.1566667E+01  0.1763781E+06 -0.1410740E+01  0.1271427E+05 -0.1453908E+00  0.4321375E+06  0.1730661E+01
  0.1597619E+01  0.1781428E+06 -0.1398780E+01  0.1169345E+05 -0.1549536E+00  0.4311582E+06  0.1742598E+01
  0.1628572E+01  0.1795065E+06 -0.1386631E+01  0.1073805E+05 -0.1649902E+00  0.4289031E+06  0.1754688E+01
  0.1659524E+01  0.1806334E+06 -0.1374260E+01  0.9842919E+04 -0.1756502E+00  0.4259718E+06  0.1767008E+01
  0.1690476E+01  0.1815148E+06 -0.1361775E+01  0.9003297E+04 -0.1873384E+00  0.4223460E+06  0.1779422E+01
  0.1721429E+01  0.1819303E+06 -0.1349233E+01  0.8226236E+04 -0.1993136E+00  0.4176654E+06  0.1791933E+01
  0.1752381E+01  0.1819729E+06 -0.1336827E+01  0.7501451E+04 -0.2113204E+00  0.4119223E+06  0.1804225E+01
  0.1783333E+01  0.1816521E+06 -0.1324536E+01  0.6826217E+04 -0.2239805E+00  0.4053083E+06  0.1816404E+01
  0.1814286E+01  0.1810666E+06 -0.1312223E+01  0.6211462E+04 -0.2357579E+00  0.3983298E+06  0.1828700E+01
  0.1845238E+01  0.1801774E+06 -0.1300155E+01  0.5641047E+04 -0.2484821E+00  0.3907108E+06  0.1840726E+01
  0.1876190E+01  0.1788873E+06 -0.1288615E+01  0.5115063E+04 -0.2613917E+00  0.3820441E+06  0.1852075E+01
  0.1907143E+01  0.1773837E+06 -0.1277384E+01  0.4629583E+04 -0.2750006E+00  0.3730713E+06  0.1863162E+01
  0.1938095E+01  0.1756850E+06 -0.1266630E+01  0.4180067E+04 -0.2904904E+00  0.3638118E+06  0.1873738E+01
  0.1969048E+01  0.1736844E+06 -0.1256429E+01  0.3770624E+04 -0.3056934E+00  0.3541727E+06  0.1883887E+01
  0.2000000E+01  0.1713679E+06 -0.1246956E+01  0.3395523E+04 -0.3214459E+00  0.3439900E+06  0.1893301E+01
