VARIABLES="w (rad/s)"
"abs(F   1   1)" "angle(F   1   1)"
"abs(F   1   2)" "angle(F   1   2)"
"abs(F   1   3)" "angle(F   1   3)"
Zone t="Diffraction force - beta =   0.000 deg",I=    64,F=POINT
  0.5000000E-01  0.1833655E+04 -0.1570795E+01  0.1543381E+06 -0.1098274E-04  0.3329448E+04  0.1570817E+01
  0.8095238E-01  0.3000281E+04 -0.1570794E+01  0.1541050E+06 -0.2955719E-04  0.5445075E+04  0.1570794E+01
  0.1119048E+00  0.4193592E+04 -0.1570803E+01  0.1537622E+06 -0.5871902E-04  0.7599486E+04  0.1570804E+01
  0.1428571E+00  0.5421131E+04 -0.1570797E+01  0.1533095E+06 -0.1007582E-03  0.9815561E+04  0.1570798E+01
  0.1738095E+00  0.6702086E+04 -0.1570794E+01  0.1527471E+06 -0.1590965E-03  0.1211833E+05  0.1570809E+01
  0.2047619E+00  0.8044437E+04 -0.1570787E+01  0.1520738E+06 -0.2387126E-03  0.1453295E+05  0.1570805E+01
  0.2357143E+00  0.9477308E+04 -0.1570778E+01  0.1512900E+06 -0.3469966E-03  0.1708972E+05  0.1570804E+01
  0.2666667E+00  0.1100980E+05 -0.1570772E+01  0.1503951E+06 -0.4929398E-03  0.1982245E+05  0.1570819E+01
  0.2976190E+00  0.1266715E+05 -0.1570761E+01  0.1493884E+06 -0.6918536E-03  0.2276678E+05  0.1570833E+01
  0.3285715E+00  0.1448013E+05 -0.1570746E+01  0.1482711E+06 -0.9594966E-03  0.2596713E+05  0.1570853E+01
  0.3595238E+00  0.1647117E+05 -0.1570714E+01  0.1470450E+06 -0.1320829E-02  0.2946815E+05  0.1570877E+01
  0.3904762E+00  0.1865380E+05 -0.1570678E+01  0.1457092E+06 -0.1803960E-02  0.3330603E+05  0.1570916E+01
  0.4214286E+00  0.2107814E+05 -0.1570620E+01  0.1442713E+06 -0.2428445E-02  0.3752382E+05  0.1570975E+01
  0.4523810E+00  0.2374474E+05 -0.1570532E+01  0.1427343E+06 -0.3243139E-02  0.4213509E+05  0.1571058E+01
  0.4833333E+00  0.2664678E+05 -0.1570414E+01  0.1411048E+06 -0.4229989E-02  0.4713888E+05  0.1571179E+01
  0.5142857E+00  0.2978453E+05 -0.1570248E+01  0.1393858E+06 -0.5447109E-02  0.5252585E+05  0.1571347E+01
  0.5452381E+00  0.3313486E+05 -0.1570026E+01  0.1375854E+06 -0.6881162E-02  0.5823177E+05  0.1571567E+01
  0.5761905E+00  0.3670014E+05 -0.1569737E+01  0.1357081E+06 -0.8539992E-02  0.6423100E+05  0.1571854E+01
  0.6071429E+00  0.4044168E+05 -0.1569361E+01  0.1337581E+06 -0.1047368E-01  0.7049829E+05  0.1572232E+01
  0.6380953E+00  0.4433119E+05 -0.1568889E+01  0.1317325E+06 -0.1264602E-01  0.7698887E+05  0.1572702E+01
  0.6690477E+00  0.4837209E+05 -0.1568304E+01  0.1296422E+06 -0.1510684E-01  0.8364844E+05  0.1573289E+01
  0.7000000E+00  0.5257378E+05 -0.1567579E+01  0.1274971E+06 -0.1788962E-01  0.9048043E+05  0.1574013E+01
  0.7309524E+00  0.5691353E+05 -0.1566699E+01  0.1252938E+06 -0.2098152E-01  0.9746880E+05  0.1574893E+01
  0.7619048E+00  0.6135319E+05 -0.1565637E+01  0.1230385E+06 -0.2441720E-01  0.1045440E+06  0.1575954E+01
  0.7928572E+00  0.6592011E+05 -0.1564370E+01  0.1207362E+06 -0.2822036E-01  0.1117556E+06  0.1577222E+01
  0.8238096E+00  0.7054580E+05 -0.1562868E+01  0.1183956E+06 -0.3240825E-01  0.1189973E+06  0.1578723E+01
  0.8547620E+00  0.7530481E+05 -0.1561107E+01  0.1160204E+06 -0.3699358E-01  0.1263214E+06  0.1580484E+01
  0.8857143E+00  0.8018065E+05 -0.1559055E+01  0.1136154E+06 -0.4199497E-01  0.1336674E+06  0.1582534E+01
  0.9166667E+00  0.8515955E+05 -0.1556681E+01  0.1111867E+06 -0.4742621E-01  0.1410786E+06  0.1584907E+01
  0.9476191E+00  0.9015195E+05 -0.1553952E+01  0.1087425E+06 -0.5330684E-01  0.1484177E+06  0.1587634E+01
  0.9785714E+00  0.9524083E+05 -0.1550838E+01  0.1062780E+06 -0.5964903E-01  0.1558043E+06  0.1590747E+01
  0.1009524E+01  0.1003405E+06 -0.1547307E+01  0.1038021E+06 -0.6647708E-01  0.1630798E+06  0.1594276E+01
  0.1040476E+01  0.1055132E+06 -0.1543329E+01  0.1013176E+06 -0.7380325E-01  0.1703087E+06  0.1598249E+01
  0.1071429E+01  0.1107052E+06 -0.1538873E+01  0.9883588E+05 -0.8164682E-01  0.1774358E+06  0.1602701E+01
  0.1102381E+01  0.1159087E+06 -0.1533909E+01  0.9636009E+05 -0.9002326E-01  0.1843890E+06  0.1607658E+01
  0.1133333E+01  0.1211693E+06 -0.1528406E+01  0.9389099E+05 -0.9893748E-01  0.1912727E+06  0.1613154E+01
  0.1164286E+01  0.1263811E+06 -0.1522340E+01  0.9142938E+05 -0.1084139E+00  0.1979202E+06  0.1619211E+01
  0.1195238E+01  0.1315820E+06 -0.1515694E+01  0.8897723E+05 -0.1184675E+00  0.2043725E+06  0.1625846E+01
  0.1226190E+01  0.1367160E+06 -0.1508438E+01  0.8653583E+05 -0.1291231E+00  0.2106501E+06  0.1633090E+01
  0.1257143E+01  0.1416013E+06 -0.1500603E+01  0.8412395E+05 -0.1405143E+00  0.2164104E+06  0.1640907E+01
  0.1288095E+01  0.1466075E+06 -0.1492103E+01  0.8171759E+05 -0.1523555E+00  0.2221467E+06  0.1649387E+01
  0.1319048E+01  0.1513811E+06 -0.1483027E+01  0.7934107E+05 -0.1649782E+00  0.2273833E+06  0.1658438E+01
  0.1350000E+01  0.1560315E+06 -0.1473364E+01  0.7698966E+05 -0.1783072E+00  0.2322189E+06  0.1668071E+01
  0.1380952E+01  0.1605679E+06 -0.1463134E+01  0.7466290E+05 -0.1923441E+00  0.2366580E+06  0.1678264E+01
  0.1411905E+01  0.1644125E+06 -0.1452906E+01  0.7237325E+05 -0.2074468E+00  0.2403604E+06  0.1688457E+01
  0.1442857E+01  0.1684107E+06 -0.1441664E+01  0.7012360E+05 -0.2230451E+00  0.2437752E+06  0.1699647E+01
  0.1473810E+01  0.1721724E+06 -0.1429938E+01  0.6789980E+05 -0.2394670E+00  0.2467522E+06  0.1711319E+01
  0.1504762E+01  0.1756783E+06 -0.1417809E+01  0.6570486E+05 -0.2567503E+00  0.2492444E+06  0.1723382E+01
  0.1535714E+01  0.1787650E+06 -0.1405378E+01  0.6354480E+05 -0.2749844E+00  0.2509976E+06  0.1735729E+01
  0.1566667E+01  0.1815492E+06 -0.1392711E+01  0.6141050E+05 -0.2942523E+00  0.2522331E+06  0.1748303E+01
  0.1597619E+01  0.1839799E+06 -0.1379937E+01  0.5931173E+05 -0.3145745E+00  0.2528550E+06  0.1760953E+01
  0.1628572E+01  0.1859913E+06 -0.1367086E+01  0.5725266E+05 -0.3360682E+00  0.2529080E+06  0.1773677E+01
  0.1659524E+01  0.1875369E+06 -0.1354386E+01  0.5524423E+05 -0.3587521E+00  0.2521865E+06  0.1786211E+01
  0.1690476E+01  0.1886868E+06 -0.1341903E+01  0.5328036E+05 -0.3827815E+00  0.2508589E+06  0.1798524E+01
  0.1721429E+01  0.1894935E+06 -0.1329722E+01  0.5135853E+05 -0.4082145E+00  0.2490451E+06  0.1810522E+01
  0.1752381E+01  0.1898664E+06 -0.1318025E+01  0.4948556E+05 -0.4351361E+00  0.2465848E+06  0.1822015E+01
  0.1783333E+01  0.1898186E+06 -0.1306885E+01  0.4766009E+05 -0.4637141E+00  0.2435493E+06  0.1832928E+01
  0.1814286E+01  0.1893983E+06 -0.1296425E+01  0.4588021E+05 -0.4941283E+00  0.2400398E+06  0.1843141E+01
  0.1845238E+01  0.1886148E+06 -0.1286777E+01  0.4414834E+05 -0.5264413E+00  0.2360670E+06  0.1852484E+01
  0.1876190E+01  0.1874337E+06 -0.1277951E+01  0.4247925E+05 -0.5609452E+00  0.2317176E+06  0.1861038E+01
  0.1907143E+01  0.1858732E+06 -0.1270207E+01  0.4087326E+05 -0.5977452E+00  0.2269005E+06  0.1868450E+01
  0.1938095E+01  0.1839535E+06 -0.1263638E+01  0.3934270E+05 -0.6369805E+00  0.2216640E+06  0.1874625E+01
  0.1969048E+01  0.1818098E+06 -0.1258159E+01  0.3787624E+05 -0.6791072E+00  0.2162923E+06  0.1879773E+01
  0.2000000E+01  0.1794413E+06 -0.1253945E+01  0.3649202E+05 -0.7241459E+00  0.2107140E+06  0.1883608E+01
