VARIABLES="w (rad/s)"
"abs(F   1   1)" "angle(F   1   1)"
"abs(F   1   2)" "angle(F   1   2)"
"abs(F   1   3)" "angle(F   1   3)"
Zone t="Diffraction force - beta =   0.000 deg",I=    64,F=POINT
  0.5000000E-01  0.1370462E+03 -0.1570796E+01  0.1772524E+02 -0.3112210E+01  0.8548788E+02  0.1570796E+01
  0.8095238E-01  0.2241085E+03 -0.1570796E+01  0.4624753E+02 -0.3111294E+01  0.1399053E+03  0.1570797E+01
  0.1119048E+00  0.3135859E+03 -0.1570795E+01  0.8828349E+02 -0.3110073E+01  0.1961461E+03  0.1570797E+01
  0.1428571E+00  0.4070407E+03 -0.1570795E+01  0.1438184E+03 -0.3108413E+01  0.2540536E+03  0.1570798E+01
  0.1738095E+00  0.5030576E+03 -0.1570794E+01  0.2132676E+03 -0.3106282E+01  0.3140651E+03  0.1570799E+01
  0.2047619E+00  0.6057212E+03 -0.1570792E+01  0.2966787E+03 -0.3103542E+01  0.3769926E+03  0.1570800E+01
  0.2357143E+00  0.7132764E+03 -0.1570790E+01  0.3947340E+03 -0.3100066E+01  0.4442247E+03  0.1570801E+01
  0.2666667E+00  0.8298150E+03 -0.1570787E+01  0.5078001E+03 -0.3095780E+01  0.5157026E+03  0.1570804E+01
  0.2976190E+00  0.9573007E+03 -0.1570782E+01  0.6359319E+03 -0.3090323E+01  0.5929968E+03  0.1570808E+01
  0.3285715E+00  0.1095088E+04 -0.1570775E+01  0.7804481E+03 -0.3083732E+01  0.6778245E+03  0.1570814E+01
  0.3595238E+00  0.1246084E+04 -0.1570765E+01  0.9411196E+03 -0.3075655E+01  0.7705278E+03  0.1570823E+01
  0.3904762E+00  0.1416022E+04 -0.1570749E+01  0.1117914E+04 -0.3065909E+01  0.8721068E+03  0.1570836E+01
  0.4214286E+00  0.1604658E+04 -0.1570725E+01  0.1310997E+04 -0.3054886E+01  0.9841940E+03  0.1570856E+01
  0.4523810E+00  0.1806630E+04 -0.1570690E+01  0.1521064E+04 -0.3042041E+01  0.1108556E+04  0.1570885E+01
  0.4833333E+00  0.2031403E+04 -0.1570642E+01  0.1745393E+04 -0.3028693E+01  0.1242830E+04  0.1570925E+01
  0.5142857E+00  0.2279219E+04 -0.1570574E+01  0.1983813E+04 -0.3014049E+01  0.1387287E+04  0.1570982E+01
  0.5452381E+00  0.2545301E+04 -0.1570482E+01  0.2238170E+04 -0.2999219E+01  0.1542132E+04  0.1571059E+01
  0.5761905E+00  0.2819182E+04 -0.1570361E+01  0.2506671E+04 -0.2984330E+01  0.1706174E+04  0.1571159E+01
  0.6071429E+00  0.3114425E+04 -0.1570204E+01  0.2788372E+04 -0.2968832E+01  0.1876140E+04  0.1571290E+01
  0.6380953E+00  0.3428675E+04 -0.1570006E+01  0.3083138E+04 -0.2953665E+01  0.2055303E+04  0.1571454E+01
  0.6690477E+00  0.3752605E+04 -0.1569756E+01  0.3390161E+04 -0.2938268E+01  0.2240144E+04  0.1571661E+01
  0.7000000E+00  0.4086182E+04 -0.1569444E+01  0.3711580E+04 -0.2922676E+01  0.2431261E+04  0.1571918E+01
  0.7309524E+00  0.4431539E+04 -0.1569063E+01  0.4047631E+04 -0.2907308E+01  0.2627398E+04  0.1572232E+01
  0.7619048E+00  0.4788390E+04 -0.1568599E+01  0.4393670E+04 -0.2891697E+01  0.2825573E+04  0.1572614E+01
  0.7928572E+00  0.5163200E+04 -0.1568041E+01  0.4749439E+04 -0.2875867E+01  0.3030146E+04  0.1573073E+01
  0.8238096E+00  0.5550973E+04 -0.1567376E+01  0.5115583E+04 -0.2859954E+01  0.3237479E+04  0.1573621E+01
  0.8547620E+00  0.5946667E+04 -0.1566588E+01  0.5493385E+04 -0.2844136E+01  0.3451920E+04  0.1574266E+01
  0.8857143E+00  0.6341788E+04 -0.1565655E+01  0.5881518E+04 -0.2828360E+01  0.3666477E+04  0.1575025E+01
  0.9166667E+00  0.6748112E+04 -0.1564567E+01  0.6279932E+04 -0.2812689E+01  0.3883634E+04  0.1575909E+01
  0.9476191E+00  0.7169004E+04 -0.1563308E+01  0.6685105E+04 -0.2796963E+01  0.4099249E+04  0.1576933E+01
  0.9785714E+00  0.7605087E+04 -0.1561863E+01  0.7096033E+04 -0.2781203E+01  0.4320062E+04  0.1578108E+01
  0.1009524E+01  0.8044767E+04 -0.1560202E+01  0.7510664E+04 -0.2765337E+01  0.4539431E+04  0.1579454E+01
  0.1040476E+01  0.8496909E+04 -0.1558314E+01  0.7931955E+04 -0.2749650E+01  0.4764013E+04  0.1580979E+01
  0.1071429E+01  0.8950820E+04 -0.1556169E+01  0.8359415E+04 -0.2734158E+01  0.4984324E+04  0.1582707E+01
  0.1102381E+01  0.9410660E+04 -0.1553750E+01  0.8793435E+04 -0.2718954E+01  0.5206596E+04  0.1584646E+01
  0.1133333E+01  0.9870248E+04 -0.1551028E+01  0.9231643E+04 -0.2703938E+01  0.5431189E+04  0.1586811E+01
  0.1164286E+01  0.1033065E+05 -0.1547983E+01  0.9671752E+04 -0.2688987E+01  0.5645754E+04  0.1589232E+01
  0.1195238E+01  0.1080407E+05 -0.1544611E+01  0.1011353E+05 -0.2674181E+01  0.5862108E+04  0.1591907E+01
  0.1226190E+01  0.1128509E+05 -0.1540887E+01  0.1055525E+05 -0.2659460E+01  0.6072386E+04  0.1594863E+01
  0.1257143E+01  0.1176449E+05 -0.1536779E+01  0.1099731E+05 -0.2644407E+01  0.6278055E+04  0.1598109E+01
  0.1288095E+01  0.1226696E+05 -0.1532305E+01  0.1143722E+05 -0.2630477E+01  0.6488686E+04  0.1601643E+01
  0.1319048E+01  0.1275287E+05 -0.1527379E+01  0.1187696E+05 -0.2616289E+01  0.6693111E+04  0.1605494E+01
  0.1350000E+01  0.1323043E+05 -0.1521993E+01  0.1231581E+05 -0.2602376E+01  0.6887207E+04  0.1609683E+01
  0.1380952E+01  0.1370834E+05 -0.1516146E+01  0.1275620E+05 -0.2588992E+01  0.7082862E+04  0.1614188E+01
  0.1411905E+01  0.1405173E+05 -0.1510145E+01  0.1312192E+05 -0.2575258E+01  0.7258542E+04  0.1618559E+01
  0.1442857E+01  0.1451107E+05 -0.1503362E+01  0.1355497E+05 -0.2562323E+01  0.7431692E+04  0.1623712E+01
  0.1473810E+01  0.1496870E+05 -0.1496104E+01  0.1398369E+05 -0.2549578E+01  0.7597142E+04  0.1629204E+01
  0.1504762E+01  0.1541783E+05 -0.1488339E+01  0.1440688E+05 -0.2536951E+01  0.7756902E+04  0.1635035E+01
  0.1535714E+01  0.1585717E+05 -0.1480066E+01  0.1482339E+05 -0.2524422E+01  0.7902418E+04  0.1641228E+01
  0.1566667E+01  0.1628477E+05 -0.1471271E+01  0.1523372E+05 -0.2512076E+01  0.8038313E+04  0.1647762E+01
  0.1597619E+01  0.1670457E+05 -0.1461978E+01  0.1563799E+05 -0.2499995E+01  0.8170462E+04  0.1654594E+01
  0.1628572E+01  0.1710393E+05 -0.1452147E+01  0.1603497E+05 -0.2488104E+01  0.8285592E+04  0.1661762E+01
  0.1659524E+01  0.1748567E+05 -0.1441800E+01  0.1642636E+05 -0.2476631E+01  0.8388310E+04  0.1669226E+01
  0.1690476E+01  0.1784629E+05 -0.1430942E+01  0.1681127E+05 -0.2465536E+01  0.8478101E+04  0.1676954E+01
  0.1721429E+01  0.1818181E+05 -0.1419557E+01  0.1718919E+05 -0.2454785E+01  0.8560669E+04  0.1684895E+01
  0.1752381E+01  0.1848150E+05 -0.1407598E+01  0.1756022E+05 -0.2444360E+01  0.8629509E+04  0.1693063E+01
  0.1783333E+01  0.1874334E+05 -0.1395110E+01  0.1792158E+05 -0.2434062E+01  0.8673162E+04  0.1701460E+01
  0.1814286E+01  0.1897948E+05 -0.1382201E+01  0.1827616E+05 -0.2424162E+01  0.8704345E+04  0.1709993E+01
  0.1845238E+01  0.1918807E+05 -0.1368903E+01  0.1862229E+05 -0.2414578E+01  0.8724398E+04  0.1718599E+01
  0.1876190E+01  0.1935885E+05 -0.1355217E+01  0.1895779E+05 -0.2405056E+01  0.8722585E+04  0.1727301E+01
  0.1907143E+01  0.1949493E+05 -0.1341204E+01  0.1928341E+05 -0.2395812E+01  0.8702499E+04  0.1736027E+01
  0.1938095E+01  0.1959794E+05 -0.1326929E+01  0.1959895E+05 -0.2386854E+01  0.8668808E+04  0.1744678E+01
  0.1969048E+01  0.1966290E+05 -0.1312408E+01  0.1990295E+05 -0.2378108E+01  0.8623418E+04  0.1753162E+01
  0.2000000E+01  0.1967996E+05 -0.1297551E+01  0.2019620E+05 -0.2369491E+01  0.8566339E+04  0.1761473E+01
