VARIABLES="w (rad/s)"
"abs(F   1   1)" "angle(F   1   1)"
"abs(F   1   2)" "angle(F   1   2)"
"abs(F   1   3)" "angle(F   1   3)"
Zone t="Diffraction force - beta =   0.000 deg",I=    64,F=POINT
  0.5000000E-01  0.4156810E+04 -0.1570826E+01  0.1359970E+06 -0.9428618E-05  0.1962125E+05  0.1570812E+01
  0.8095238E-01  0.6784384E+04 -0.1570794E+01  0.1353914E+06 -0.2530170E-04  0.3196655E+05  0.1570794E+01
  0.1119048E+00  0.9461040E+04 -0.1570790E+01  0.1345014E+06 -0.5005420E-04  0.4451200E+05  0.1570801E+01
  0.1428571E+00  0.1220861E+05 -0.1570783E+01  0.1333293E+06 -0.8543933E-04  0.5735873E+05  0.1570804E+01
  0.1738095E+00  0.1505728E+05 -0.1570786E+01  0.1318780E+06 -0.1338869E-03  0.7062251E+05  0.1570810E+01
  0.2047619E+00  0.1802196E+05 -0.1570771E+01  0.1301507E+06 -0.1993370E-03  0.8439784E+05  0.1570819E+01
  0.2357143E+00  0.2115182E+05 -0.1570763E+01  0.1281542E+06 -0.2870849E-03  0.9885156E+05  0.1570829E+01
  0.2666667E+00  0.2448825E+05 -0.1570746E+01  0.1258941E+06 -0.4030651E-03  0.1141526E+06  0.1570846E+01
  0.2976190E+00  0.2805238E+05 -0.1570717E+01  0.1233814E+06 -0.5591762E-03  0.1304324E+06  0.1570871E+01
  0.3285715E+00  0.3191727E+05 -0.1570689E+01  0.1206274E+06 -0.7644483E-03  0.1479287E+06  0.1570905E+01
  0.3595238E+00  0.3610663E+05 -0.1570631E+01  0.1176514E+06 -0.1036836E-02  0.1668219E+06  0.1570960E+01
  0.3904762E+00  0.4067969E+05 -0.1570556E+01  0.1144690E+06 -0.1394424E-02  0.1872791E+06  0.1571036E+01
  0.4214286E+00  0.4568204E+05 -0.1570444E+01  0.1111130E+06 -0.1844238E-02  0.2094419E+06  0.1571154E+01
  0.4523810E+00  0.5110092E+05 -0.1570278E+01  0.1075960E+06 -0.2426761E-02  0.2333012E+06  0.1571317E+01
  0.4833333E+00  0.5697804E+05 -0.1570051E+01  0.1039664E+06 -0.3106479E-02  0.2589204E+06  0.1571542E+01
  0.5142857E+00  0.6320445E+05 -0.1569742E+01  0.1002300E+06 -0.3936262E-02  0.2858203E+06  0.1571852E+01
  0.5452381E+00  0.6980495E+05 -0.1569338E+01  0.9641788E+05 -0.4888895E-02  0.3139019E+06  0.1572255E+01
  0.5761905E+00  0.7665240E+05 -0.1568818E+01  0.9255264E+05 -0.5962497E-02  0.3428188E+06  0.1572775E+01
  0.6071429E+00  0.8373751E+05 -0.1568158E+01  0.8863880E+05 -0.7208882E-02  0.3723677E+06  0.1573436E+01
  0.6380953E+00  0.9106015E+05 -0.1567346E+01  0.8471417E+05 -0.8559747E-02  0.4023008E+06  0.1574246E+01
  0.6690477E+00  0.9844886E+05 -0.1566355E+01  0.8077992E+05 -0.1007132E-01  0.4320823E+06  0.1575238E+01
  0.7000000E+00  0.1059499E+06 -0.1565153E+01  0.7684620E+05 -0.1177549E-01  0.4618054E+06  0.1576438E+01
  0.7309524E+00  0.1135998E+06 -0.1563728E+01  0.7295043E+05 -0.1361637E-01  0.4913846E+06  0.1577864E+01
  0.7619048E+00  0.1212120E+06 -0.1562045E+01  0.6909473E+05 -0.1564675E-01  0.5204097E+06  0.1579547E+01
  0.7928572E+00  0.1288492E+06 -0.1560077E+01  0.6528614E+05 -0.1789712E-01  0.5488464E+06  0.1581514E+01
  0.8238096E+00  0.1364636E+06 -0.1557800E+01  0.6154269E+05 -0.2036376E-01  0.5763117E+06  0.1583792E+01
  0.8547620E+00  0.1441269E+06 -0.1555184E+01  0.5789555E+05 -0.2299898E-01  0.6031832E+06  0.1586406E+01
  0.8857143E+00  0.1516172E+06 -0.1552203E+01  0.5433520E+05 -0.2589813E-01  0.6287384E+06  0.1589386E+01
  0.9166667E+00  0.1590737E+06 -0.1548826E+01  0.5086605E+05 -0.2909253E-01  0.6534548E+06  0.1592762E+01
  0.9476191E+00  0.1663822E+06 -0.1545033E+01  0.4750480E+05 -0.3258775E-01  0.6766829E+06  0.1596553E+01
  0.9785714E+00  0.1736758E+06 -0.1540797E+01  0.4428201E+05 -0.3620993E-01  0.6989546E+06  0.1600787E+01
  0.1009524E+01  0.1806971E+06 -0.1536100E+01  0.4118082E+05 -0.4017798E-01  0.7194690E+06  0.1605482E+01
  0.1040476E+01  0.1874960E+06 -0.1530920E+01  0.3820311E+05 -0.4452629E-01  0.7382165E+06  0.1610658E+01
  0.1071429E+01  0.1941313E+06 -0.1525232E+01  0.3534989E+05 -0.4933255E-01  0.7555144E+06  0.1616340E+01
  0.1102381E+01  0.2005641E+06 -0.1519022E+01  0.3264136E+05 -0.5434732E-01  0.7710562E+06  0.1622543E+01
  0.1133333E+01  0.2068517E+06 -0.1512264E+01  0.3007688E+05 -0.5958452E-01  0.7852613E+06  0.1629291E+01
  0.1164286E+01  0.2127222E+06 -0.1504953E+01  0.2765234E+05 -0.6523157E-01  0.7973348E+06  0.1636595E+01
  0.1195238E+01  0.2182191E+06 -0.1497092E+01  0.2536198E+05 -0.7138185E-01  0.8072279E+06  0.1644443E+01
  0.1226190E+01  0.2234925E+06 -0.1488650E+01  0.2320192E+05 -0.7813438E-01  0.8157528E+06  0.1652870E+01
  0.1257143E+01  0.2282216E+06 -0.1479750E+01  0.2117499E+05 -0.8559370E-01  0.8213701E+06  0.1661745E+01
  0.1288095E+01  0.2329505E+06 -0.1470235E+01  0.1928964E+05 -0.9259296E-01  0.8258990E+06  0.1671233E+01
  0.1319048E+01  0.2371709E+06 -0.1460205E+01  0.1753487E+05 -0.1001709E+00  0.8283569E+06  0.1681238E+01
  0.1350000E+01  0.2408458E+06 -0.1449691E+01  0.1590440E+05 -0.1082594E+00  0.8283081E+06  0.1691715E+01
  0.1380952E+01  0.2440620E+06 -0.1438682E+01  0.1439180E+05 -0.1168749E+00  0.8261399E+06  0.1702684E+01
  0.1411905E+01  0.2466284E+06 -0.1427087E+01  0.1299180E+05 -0.1262972E+00  0.8224079E+06  0.1714243E+01
  0.1442857E+01  0.2488708E+06 -0.1415223E+01  0.1169872E+05 -0.1365714E+00  0.8160631E+06  0.1726028E+01
  0.1473810E+01  0.2507975E+06 -0.1402911E+01  0.1051288E+05 -0.1464231E+00  0.8084223E+06  0.1738274E+01
  0.1504762E+01  0.2523459E+06 -0.1390226E+01  0.9421513E+04 -0.1571473E+00  0.7994382E+06  0.1750869E+01
  0.1535714E+01  0.2532086E+06 -0.1377249E+01  0.8436071E+04 -0.1672345E+00  0.7885234E+06  0.1763843E+01
  0.1566667E+01  0.2534150E+06 -0.1364399E+01  0.7532577E+04 -0.1785138E+00  0.7748664E+06  0.1776507E+01
  0.1597619E+01  0.2531753E+06 -0.1351399E+01  0.6712713E+04 -0.1897974E+00  0.7599644E+06  0.1789402E+01
  0.1628572E+01  0.2525572E+06 -0.1338246E+01  0.5965832E+04 -0.2024476E+00  0.7442850E+06  0.1802488E+01
  0.1659524E+01  0.2512800E+06 -0.1325447E+01  0.5288210E+04 -0.2161310E+00  0.7262289E+06  0.1815058E+01
  0.1690476E+01  0.2496621E+06 -0.1312679E+01  0.4676985E+04 -0.2294753E+00  0.7075098E+06  0.1827663E+01
  0.1721429E+01  0.2476970E+06 -0.1300101E+01  0.4120623E+04 -0.2448010E+00  0.6881236E+06  0.1839988E+01
  0.1752381E+01  0.2452142E+06 -0.1287791E+01  0.3628249E+04 -0.2581664E+00  0.6680187E+06  0.1852216E+01
  0.1783333E+01  0.2422223E+06 -0.1276043E+01  0.3189953E+04 -0.2699613E+00  0.6468698E+06  0.1863900E+01
  0.1814286E+01  0.2387007E+06 -0.1265331E+01  0.2794548E+04 -0.2849441E+00  0.6242158E+06  0.1874101E+01
  0.1845238E+01  0.2349261E+06 -0.1255071E+01  0.2443053E+04 -0.2977882E+00  0.6016736E+06  0.1884119E+01
  0.1876190E+01  0.2309147E+06 -0.1245297E+01  0.2130076E+04 -0.3137909E+00  0.5794286E+06  0.1893848E+01
  0.1907143E+01  0.2265215E+06 -0.1236739E+01  0.1849549E+04 -0.3333619E+00  0.5563449E+06  0.1901930E+01
  0.1938095E+01  0.2219302E+06 -0.1229017E+01  0.1601776E+04 -0.3510135E+00  0.5333776E+06  0.1909204E+01
  0.1969048E+01  0.2172074E+06 -0.1222081E+01  0.1380527E+04 -0.3732805E+00  0.5108838E+06  0.1915663E+01
  0.2000000E+01  0.2124350E+06 -0.1215899E+01  0.1186913E+04 -0.4033322E+00  0.4891678E+06  0.1921604E+01
