VARIABLES="w (rad/s)"
"abs(F   1   1)" "angle(F   1   1)"
"abs(F   1   2)" "angle(F   1   2)"
"abs(F   1   3)" "angle(F   1   3)"
Zone t="Diffraction force - beta =   0.000 deg",I=    64,F=POINT
  0.5000000E-01  0.1501651E+04 -0.1570839E+01  0.2187791E+06 -0.1497118E-04  0.1781732E+04  0.1570821E+01
  0.8095238E-01  0.2453361E+04 -0.1570805E+01  0.2184594E+06 -0.4028838E-04  0.2913131E+04  0.1570759E+01
  0.1119048E+00  0.3423675E+04 -0.1570794E+01  0.2179893E+06 -0.8003964E-04  0.4062923E+04  0.1570781E+01
  0.1428571E+00  0.4429445E+04 -0.1570794E+01  0.2173686E+06 -0.1373256E-03  0.5245702E+04  0.1570805E+01
  0.1738095E+00  0.5472653E+04 -0.1570797E+01  0.2165963E+06 -0.2168282E-03  0.6471532E+04  0.1570794E+01
  0.2047619E+00  0.6576407E+04 -0.1570781E+01  0.2156722E+06 -0.3252994E-03  0.7756342E+04  0.1570787E+01
  0.2357143E+00  0.7740095E+04 -0.1570785E+01  0.2145940E+06 -0.4727877E-03  0.9113403E+04  0.1570811E+01
  0.2666667E+00  0.8998279E+04 -0.1570780E+01  0.2133607E+06 -0.6715583E-03  0.1055706E+05  0.1570817E+01
  0.2976190E+00  0.1035626E+05 -0.1570764E+01  0.2119739E+06 -0.9423375E-03  0.1211248E+05  0.1570821E+01
  0.3285715E+00  0.1183396E+05 -0.1570756E+01  0.2104287E+06 -0.1306520E-02  0.1380281E+05  0.1570843E+01
  0.3595238E+00  0.1345866E+05 -0.1570733E+01  0.2087301E+06 -0.1797914E-02  0.1563615E+05  0.1570857E+01
  0.3904762E+00  0.1526535E+05 -0.1570701E+01  0.2068788E+06 -0.2454749E-02  0.1764493E+05  0.1570894E+01
  0.4214286E+00  0.1724734E+05 -0.1570658E+01  0.2048862E+06 -0.3302573E-02  0.1984834E+05  0.1570933E+01
  0.4523810E+00  0.1941747E+05 -0.1570589E+01  0.2027469E+06 -0.4407252E-02  0.2224095E+05  0.1571002E+01
  0.4833333E+00  0.2179312E+05 -0.1570496E+01  0.2004855E+06 -0.5744786E-02  0.2482706E+05  0.1571093E+01
  0.5142857E+00  0.2437171E+05 -0.1570369E+01  0.1981071E+06 -0.7391457E-02  0.2760110E+05  0.1571222E+01
  0.5452381E+00  0.2712687E+05 -0.1570196E+01  0.1956095E+06 -0.9327632E-02  0.3054325E+05  0.1571398E+01
  0.5761905E+00  0.3001115E+05 -0.1569973E+01  0.1930062E+06 -0.1156425E-01  0.3360459E+05  0.1571622E+01
  0.6071429E+00  0.3307186E+05 -0.1569679E+01  0.1903096E+06 -0.1416640E-01  0.3676659E+05  0.1571913E+01
  0.6380953E+00  0.3627848E+05 -0.1569316E+01  0.1875187E+06 -0.1708392E-01  0.4004415E+05  0.1572276E+01
  0.6690477E+00  0.3959661E+05 -0.1568861E+01  0.1846435E+06 -0.2037926E-01  0.4339330E+05  0.1572732E+01
  0.7000000E+00  0.4300268E+05 -0.1568302E+01  0.1816892E+06 -0.2409494E-01  0.4677455E+05  0.1573291E+01
  0.7309524E+00  0.4651561E+05 -0.1567623E+01  0.1786545E+06 -0.2821330E-01  0.5021570E+05  0.1573969E+01
  0.7619048E+00  0.5012699E+05 -0.1566809E+01  0.1755661E+06 -0.3277895E-01  0.5365585E+05  0.1574784E+01
  0.7928572E+00  0.5385042E+05 -0.1565837E+01  0.1724311E+06 -0.3781683E-01  0.5712142E+05  0.1575755E+01
  0.8238096E+00  0.5767331E+05 -0.1564691E+01  0.1692492E+06 -0.4333905E-01  0.6060429E+05  0.1576901E+01
  0.8547620E+00  0.6152608E+05 -0.1563351E+01  0.1660255E+06 -0.4936118E-01  0.6406131E+05  0.1578242E+01
  0.8857143E+00  0.6542343E+05 -0.1561793E+01  0.1627643E+06 -0.5590053E-01  0.6749930E+05  0.1579800E+01
  0.9166667E+00  0.6937651E+05 -0.1560001E+01  0.1594784E+06 -0.6297850E-01  0.7086512E+05  0.1581591E+01
  0.9476191E+00  0.7342560E+05 -0.1557955E+01  0.1561832E+06 -0.7060777E-01  0.7419120E+05  0.1583638E+01
  0.9785714E+00  0.7751104E+05 -0.1555633E+01  0.1528888E+06 -0.7880130E-01  0.7746733E+05  0.1585962E+01
  0.1009524E+01  0.8160962E+05 -0.1553013E+01  0.1496025E+06 -0.8757140E-01  0.8064143E+05  0.1588582E+01
  0.1040476E+01  0.8574088E+05 -0.1550080E+01  0.1463185E+06 -0.9691600E-01  0.8375201E+05  0.1591517E+01
  0.1071429E+01  0.8986873E+05 -0.1546817E+01  0.1430375E+06 -0.1068457E+00  0.8672030E+05  0.1594781E+01
  0.1102381E+01  0.9398251E+05 -0.1543209E+01  0.1397666E+06 -0.1173692E+00  0.8961167E+05  0.1598387E+01
  0.1133333E+01  0.9802794E+05 -0.1539243E+01  0.1365200E+06 -0.1285108E+00  0.9233411E+05  0.1602348E+01
  0.1164286E+01  0.1020441E+06 -0.1534921E+01  0.1333000E+06 -0.1402820E+00  0.9487022E+05  0.1606667E+01
  0.1195238E+01  0.1060533E+06 -0.1530244E+01  0.1301161E+06 -0.1526780E+00  0.9728783E+05  0.1611348E+01
  0.1226190E+01  0.1100008E+06 -0.1525211E+01  0.1269729E+06 -0.1657081E+00  0.9947935E+05  0.1616388E+01
  0.1257143E+01  0.1138586E+06 -0.1519818E+01  0.1238746E+06 -0.1795074E+00  0.1015031E+06  0.1621790E+01
  0.1288095E+01  0.1176690E+06 -0.1514101E+01  0.1208197E+06 -0.1936447E+00  0.1033827E+06  0.1627517E+01
  0.1319048E+01  0.1212849E+06 -0.1508051E+01  0.1178152E+06 -0.2085619E+00  0.1049738E+06  0.1633572E+01
  0.1350000E+01  0.1247592E+06 -0.1501698E+01  0.1148447E+06 -0.2240985E+00  0.1063539E+06  0.1639921E+01
  0.1380952E+01  0.1280736E+06 -0.1495078E+01  0.1119124E+06 -0.2402472E+00  0.1075191E+06  0.1646524E+01
  0.1411905E+01  0.1307038E+06 -0.1489030E+01  0.1091847E+06 -0.2557376E+00  0.1082237E+06  0.1652538E+01
  0.1442857E+01  0.1336184E+06 -0.1482132E+01  0.1063552E+06 -0.2731070E+00  0.1088186E+06  0.1659399E+01
  0.1473810E+01  0.1363314E+06 -0.1475140E+01  0.1035816E+06 -0.2911349E+00  0.1091872E+06  0.1666361E+01
  0.1504762E+01  0.1387953E+06 -0.1468120E+01  0.1008745E+06 -0.3098496E+00  0.1092673E+06  0.1673362E+01
  0.1535714E+01  0.1409966E+06 -0.1461147E+01  0.9823631E+05 -0.3292017E+00  0.1090308E+06  0.1680309E+01
  0.1566667E+01  0.1429664E+06 -0.1454278E+01  0.9564712E+05 -0.3492028E+00  0.1086030E+06  0.1687167E+01
  0.1597619E+01  0.1446620E+06 -0.1447612E+01  0.9311968E+05 -0.3698322E+00  0.1079080E+06  0.1693800E+01
  0.1628572E+01  0.1460564E+06 -0.1441254E+01  0.9065199E+05 -0.3910890E+00  0.1069021E+06  0.1700101E+01
  0.1659524E+01  0.1471893E+06 -0.1435311E+01  0.8822834E+05 -0.4129564E+00  0.1056639E+06  0.1705988E+01
  0.1690476E+01  0.1480497E+06 -0.1429864E+01  0.8585616E+05 -0.4354553E+00  0.1042174E+06  0.1711379E+01
  0.1721429E+01  0.1485966E+06 -0.1424974E+01  0.8355138E+05 -0.4586909E+00  0.1025419E+06  0.1716252E+01
  0.1752381E+01  0.1488422E+06 -0.1420785E+01  0.8131516E+05 -0.4825337E+00  0.1006027E+06  0.1720366E+01
  0.1783333E+01  0.1488102E+06 -0.1417344E+01  0.7913408E+05 -0.5070265E+00  0.9847860E+05  0.1723737E+01
  0.1814286E+01  0.1485320E+06 -0.1414727E+01  0.7699858E+05 -0.5321816E+00  0.9623323E+05  0.1726321E+01
  0.1845238E+01  0.1479906E+06 -0.1413050E+01  0.7492009E+05 -0.5579594E+00  0.9381680E+05  0.1727931E+01
  0.1876190E+01  0.1471844E+06 -0.1412406E+01  0.7290709E+05 -0.5843665E+00  0.9122774E+05  0.1728468E+01
  0.1907143E+01  0.1461727E+06 -0.1412845E+01  0.7093215E+05 -0.6113877E+00  0.8855064E+05  0.1727952E+01
  0.1938095E+01  0.1449593E+06 -0.1414415E+01  0.6901027E+05 -0.6390491E+00  0.8579999E+05  0.1726275E+01
  0.1969048E+01  0.1435441E+06 -0.1417123E+01  0.6714849E+05 -0.6674553E+00  0.8299909E+05  0.1723522E+01
  0.2000000E+01  0.1419432E+06 -0.1421053E+01  0.6534564E+05 -0.6965369E+00  0.8013741E+05  0.1719565E+01
