VARIABLES="w (rad/s)"
"abs(F   1   1)" "angle(F   1   1)"
"abs(F   1   2)" "angle(F   1   2)"
"abs(F   1   3)" "angle(F   1   3)"
Zone t="Diffraction force - beta =   0.000 deg",I=    64,F=POINT
  0.5000000E-01  0.1041388E+04 -0.1570794E+01  0.3421167E+03 -0.3099571E+01  0.7864161E+03  0.1570796E+01
  0.8095238E-01  0.1699762E+04 -0.1570791E+01  0.8900347E+03 -0.3098266E+01  0.1282042E+04  0.1570796E+01
  0.1119048E+00  0.2381561E+04 -0.1570785E+01  0.1690420E+04 -0.3096487E+01  0.1806174E+04  0.1570796E+01
  0.1428571E+00  0.3077298E+04 -0.1570776E+01  0.2745207E+04 -0.3094236E+01  0.2343402E+04  0.1570796E+01
  0.1738095E+00  0.3819602E+04 -0.1570763E+01  0.4057775E+04 -0.3091408E+01  0.2920815E+04  0.1570795E+01
  0.2047619E+00  0.4589480E+04 -0.1570744E+01  0.5629826E+04 -0.3087833E+01  0.3533400E+04  0.1570794E+01
  0.2357143E+00  0.5420507E+04 -0.1570717E+01  0.7458418E+04 -0.3083258E+01  0.4202668E+04  0.1570794E+01
  0.2666667E+00  0.6327786E+04 -0.1570677E+01  0.9567203E+04 -0.3077827E+01  0.4944984E+04  0.1570793E+01
  0.2976190E+00  0.7286311E+04 -0.1570618E+01  0.1191882E+05 -0.3070784E+01  0.5732858E+04  0.1570792E+01
  0.3285715E+00  0.8346094E+04 -0.1570529E+01  0.1456731E+05 -0.3062569E+01  0.6640552E+04  0.1570792E+01
  0.3595238E+00  0.9576989E+04 -0.1570399E+01  0.1743785E+05 -0.3052339E+01  0.7674783E+04  0.1570794E+01
  0.3904762E+00  0.1087783E+05 -0.1570201E+01  0.2059949E+05 -0.3040439E+01  0.8805947E+04  0.1570798E+01
  0.4214286E+00  0.1230466E+05 -0.1569911E+01  0.2394359E+05 -0.3026967E+01  0.1004682E+05  0.1570804E+01
  0.4523810E+00  0.1397089E+05 -0.1569490E+01  0.2751052E+05 -0.3011364E+01  0.1155899E+05  0.1570822E+01
  0.4833333E+00  0.1579154E+05 -0.1568907E+01  0.3125268E+05 -0.2995811E+01  0.1320410E+05  0.1570853E+01
  0.5142857E+00  0.1773403E+05 -0.1568094E+01  0.3506752E+05 -0.2978556E+01  0.1498944E+05  0.1570902E+01
  0.5452381E+00  0.1975113E+05 -0.1567001E+01  0.3908852E+05 -0.2961920E+01  0.1693790E+05  0.1570981E+01
  0.5761905E+00  0.2209441E+05 -0.1565609E+01  0.4307464E+05 -0.2945031E+01  0.1912814E+05  0.1571104E+01
  0.6071429E+00  0.2457074E+05 -0.1563815E+01  0.4714206E+05 -0.2927778E+01  0.2153085E+05  0.1571290E+01
  0.6380953E+00  0.2707528E+05 -0.1561556E+01  0.5137507E+05 -0.2912375E+01  0.2406113E+05  0.1571551E+01
  0.6690477E+00  0.2967108E+05 -0.1558747E+01  0.5544407E+05 -0.2896095E+01  0.2661318E+05  0.1571894E+01
  0.7000000E+00  0.3243469E+05 -0.1555321E+01  0.5956080E+05 -0.2880055E+01  0.2949964E+05  0.1572368E+01
  0.7309524E+00  0.3544123E+05 -0.1551253E+01  0.6379003E+05 -0.2865532E+01  0.3272308E+05  0.1573013E+01
  0.7619048E+00  0.3856168E+05 -0.1546396E+01  0.6778077E+05 -0.2850242E+01  0.3587071E+05  0.1573824E+01
  0.7928572E+00  0.4174737E+05 -0.1540627E+01  0.7173391E+05 -0.2835363E+01  0.3934158E+05  0.1574901E+01
  0.8238096E+00  0.4488159E+05 -0.1533782E+01  0.7567504E+05 -0.2821332E+01  0.4285975E+05  0.1576236E+01
  0.8547620E+00  0.4805666E+05 -0.1525818E+01  0.7956374E+05 -0.2808086E+01  0.4660412E+05  0.1577885E+01
  0.8857143E+00  0.5151809E+05 -0.1516884E+01  0.8311073E+05 -0.2793964E+01  0.5043241E+05  0.1579773E+01
  0.9166667E+00  0.5517131E+05 -0.1506836E+01  0.8662166E+05 -0.2780853E+01  0.5476926E+05  0.1582159E+01
  0.9476191E+00  0.5876938E+05 -0.1495383E+01  0.8999155E+05 -0.2768452E+01  0.5910956E+05  0.1585009E+01
  0.9785714E+00  0.6233179E+05 -0.1482435E+01  0.9329050E+05 -0.2757278E+01  0.6373969E+05  0.1588482E+01
  0.1009524E+01  0.6580874E+05 -0.1467923E+01  0.9612591E+05 -0.2744868E+01  0.6797768E+05  0.1592396E+01
  0.1040476E+01  0.6926734E+05 -0.1451856E+01  0.9882696E+05 -0.2733165E+01  0.7268367E+05  0.1597030E+01
  0.1071429E+01  0.7249807E+05 -0.1434052E+01  0.1013596E+06 -0.2722239E+01  0.7735684E+05  0.1602211E+01
  0.1102381E+01  0.7563959E+05 -0.1414838E+01  0.1037311E+06 -0.2712328E+01  0.8214139E+05  0.1607796E+01
  0.1133333E+01  0.7882369E+05 -0.1394611E+01  0.1059213E+06 -0.2703383E+01  0.8729380E+05  0.1613781E+01
  0.1164286E+01  0.8173967E+05 -0.1372735E+01  0.1075943E+06 -0.2693191E+01  0.9186617E+05  0.1620518E+01
  0.1195238E+01  0.8445245E+05 -0.1349435E+01  0.1090692E+06 -0.2683706E+01  0.9673303E+05  0.1627948E+01
  0.1226190E+01  0.8669125E+05 -0.1324431E+01  0.1103475E+06 -0.2675069E+01  0.1014717E+06  0.1636042E+01
  0.1257143E+01  0.8839334E+05 -0.1297749E+01  0.1114284E+06 -0.2667149E+01  0.1059126E+06  0.1644429E+01
  0.1288095E+01  0.8989454E+05 -0.1271034E+01  0.1122929E+06 -0.2660784E+01  0.1106199E+06  0.1652615E+01
  0.1319048E+01  0.9085083E+05 -0.1243185E+01  0.1128361E+06 -0.2654187E+01  0.1148991E+06  0.1661090E+01
  0.1350000E+01  0.9125361E+05 -0.1214553E+01  0.1129251E+06 -0.2646940E+01  0.1183654E+06  0.1669442E+01
  0.1380952E+01  0.9118689E+05 -0.1185567E+01  0.1128225E+06 -0.2640573E+01  0.1220015E+06  0.1677876E+01
  0.1411905E+01  0.9024343E+05 -0.1155173E+01  0.1124914E+06 -0.2634899E+01  0.1250857E+06  0.1686064E+01
  0.1442857E+01  0.8880678E+05 -0.1125909E+01  0.1119572E+06 -0.2630442E+01  0.1278203E+06  0.1692934E+01
  0.1473810E+01  0.8674346E+05 -0.1096758E+01  0.1112284E+06 -0.2626985E+01  0.1303298E+06  0.1699388E+01
  0.1504762E+01  0.8401508E+05 -0.1067640E+01  0.1103347E+06 -0.2624728E+01  0.1325143E+06  0.1705292E+01
  0.1535714E+01  0.8057952E+05 -0.1039585E+01  0.1089342E+06 -0.2621487E+01  0.1334065E+06  0.1708824E+01
  0.1566667E+01  0.7658023E+05 -0.1013219E+01  0.1072840E+06 -0.2619108E+01  0.1338140E+06  0.1710413E+01
  0.1597619E+01  0.7211949E+05 -0.9891370E+00  0.1055044E+06 -0.2617770E+01  0.1342769E+06  0.1710788E+01
  0.1628572E+01  0.6693382E+05 -0.9660578E+00  0.1035663E+06 -0.2617483E+01  0.1340584E+06  0.1709435E+01
  0.1659524E+01  0.6118595E+05 -0.9451588E+00  0.1014921E+06 -0.2618525E+01  0.1333057E+06  0.1705663E+01
  0.1690476E+01  0.5497123E+05 -0.9275242E+00  0.9933449E+05 -0.2620905E+01  0.1322424E+06  0.1699446E+01
  0.1721429E+01  0.4835256E+05 -0.9141909E+00  0.9709116E+05 -0.2624602E+01  0.1309723E+06  0.1691037E+01
  0.1752381E+01  0.4130791E+05 -0.9071404E+00  0.9467131E+05 -0.2629192E+01  0.1290289E+06  0.1679260E+01
  0.1783333E+01  0.3387594E+05 -0.9116315E+00  0.9200237E+05 -0.2634179E+01  0.1260984E+06  0.1662005E+01
  0.1814286E+01  0.2624911E+05 -0.9358460E+00  0.8934311E+05 -0.2640529E+01  0.1230684E+06  0.1641318E+01
  0.1845238E+01  0.1855148E+05 -0.1004099E+01  0.8670488E+05 -0.2647140E+01  0.1201082E+06  0.1618005E+01
  0.1876190E+01  0.1089706E+05 -0.1204919E+01  0.8406159E+05 -0.2654033E+01  0.1167781E+06  0.1590280E+01
  0.1907143E+01  0.5452008E+04 -0.2056104E+01  0.8141641E+05 -0.2661636E+01  0.1132702E+06  0.1557400E+01
  0.1938095E+01  0.9316578E+04  0.3099673E+01  0.7880512E+05 -0.2669731E+01  0.1097061E+06  0.1519143E+01
  0.1969048E+01  0.1720002E+05  0.2821934E+01  0.7617415E+05 -0.2677159E+01  0.1062979E+06  0.1476662E+01
  0.2000000E+01  0.2572640E+05  0.2731373E+01  0.7348715E+05 -0.2683765E+01  0.1029895E+06  0.1428686E+01
