VARIABLES="w (rad/s)"
"abs(F   1   1)" "angle(F   1   1)"
"abs(F   1   2)" "angle(F   1   2)"
"abs(F   1   3)" "angle(F   1   3)"
Zone t="Diffraction force - beta =   0.000 deg",I=    64,F=POINT
  0.5000000E-01  0.2864002E+04 -0.1570787E+01  0.5764463E+06 -0.4170004E-04  0.5974502E+04 -0.1570801E+01
  0.8095238E-01  0.4670308E+04 -0.1570795E+01  0.5752661E+06 -0.1121601E-03  0.9728109E+04 -0.1570785E+01
  0.1119048E+00  0.6514319E+04 -0.1570785E+01  0.5735334E+06 -0.2226714E-03  0.1357359E+05 -0.1570792E+01
  0.1428571E+00  0.8417150E+04 -0.1570790E+01  0.5712480E+06 -0.3816424E-03  0.1754889E+05 -0.1570790E+01
  0.1738095E+00  0.1039789E+05 -0.1570785E+01  0.5684028E+06 -0.6018621E-03  0.2170359E+05 -0.1570785E+01
  0.2047619E+00  0.1248012E+05 -0.1570776E+01  0.5649901E+06 -0.9015833E-03  0.2607869E+05 -0.1570781E+01
  0.2357143E+00  0.1468676E+05 -0.1570772E+01  0.5609980E+06 -0.1308003E-02  0.3072784E+05 -0.1570774E+01
  0.2666667E+00  0.1705459E+05 -0.1570758E+01  0.5564222E+06 -0.1854052E-02  0.3574838E+05 -0.1570760E+01
  0.2976190E+00  0.1961221E+05 -0.1570739E+01  0.5512526E+06 -0.2595328E-02  0.4117979E+05 -0.1570738E+01
  0.3285715E+00  0.2239584E+05 -0.1570710E+01  0.5454721E+06 -0.3588368E-02  0.4710754E+05 -0.1570712E+01
  0.3595238E+00  0.2545226E+05 -0.1570672E+01  0.5391078E+06 -0.4922625E-02  0.5366922E+05 -0.1570673E+01
  0.3904762E+00  0.2881489E+05 -0.1570612E+01  0.5321448E+06 -0.6698478E-02  0.6090306E+05 -0.1570611E+01
  0.4214286E+00  0.3251384E+05 -0.1570524E+01  0.5246493E+06 -0.8976656E-02  0.6888088E+05 -0.1570524E+01
  0.4523810E+00  0.3656108E+05 -0.1570397E+01  0.5166125E+06 -0.1193137E-01  0.7766284E+05 -0.1570397E+01
  0.4833333E+00  0.4097204E+05 -0.1570222E+01  0.5081520E+06 -0.1548121E-01  0.8731338E+05 -0.1570222E+01
  0.5142857E+00  0.4571886E+05 -0.1569983E+01  0.4992789E+06 -0.1982669E-01  0.9772077E+05 -0.1569983E+01
  0.5452381E+00  0.5076649E+05 -0.1569670E+01  0.4899959E+06 -0.2489801E-01  0.1088394E+06 -0.1569670E+01
  0.5761905E+00  0.5607430E+05 -0.1569269E+01  0.4803982E+06 -0.3070975E-01  0.1206003E+06 -0.1569268E+01
  0.6071429E+00  0.6162259E+05 -0.1568760E+01  0.4705515E+06 -0.3742900E-01  0.1330116E+06 -0.1568759E+01
  0.6380953E+00  0.6737877E+05 -0.1568141E+01  0.4603621E+06 -0.4488417E-01  0.1459692E+06 -0.1568139E+01
  0.6690477E+00  0.7329275E+05 -0.1567389E+01  0.4499232E+06 -0.5323695E-01  0.1593557E+06 -0.1567387E+01
  0.7000000E+00  0.7932895E+05 -0.1566488E+01  0.4393068E+06 -0.6258482E-01  0.1731047E+06 -0.1566485E+01
  0.7309524E+00  0.8548194E+05 -0.1565436E+01  0.4284888E+06 -0.7284996E-01  0.1872705E+06 -0.1565433E+01
  0.7619048E+00  0.9172255E+05 -0.1564219E+01  0.4175460E+06 -0.8413070E-01  0.2017743E+06 -0.1564213E+01
  0.7928572E+00  0.9801864E+05 -0.1562829E+01  0.4065101E+06 -0.9647027E-01  0.2165305E+06 -0.1562822E+01
  0.8238096E+00  0.1043395E+06 -0.1561269E+01  0.3953537E+06 -0.1098874E+00  0.2314713E+06 -0.1561257E+01
  0.8547620E+00  0.1106375E+06 -0.1559540E+01  0.3841030E+06 -0.1243961E+00  0.2464868E+06 -0.1559525E+01
  0.8857143E+00  0.1168866E+06 -0.1557657E+01  0.3728255E+06 -0.1400325E+00  0.2615270E+06 -0.1557637E+01
  0.9166667E+00  0.1230451E+06 -0.1555642E+01  0.3615676E+06 -0.1568419E+00  0.2765411E+06 -0.1555617E+01
  0.9476191E+00  0.1290928E+06 -0.1553528E+01  0.3503436E+06 -0.1748431E+00  0.2914631E+06 -0.1553496E+01
  0.9785714E+00  0.1349850E+06 -0.1551356E+01  0.3391558E+06 -0.1940418E+00  0.3061937E+06 -0.1551316E+01
  0.1009524E+01  0.1406734E+06 -0.1549179E+01  0.3279888E+06 -0.2144591E+00  0.3206012E+06 -0.1549128E+01
  0.1040476E+01  0.1461110E+06 -0.1547060E+01  0.3168430E+06 -0.2361263E+00  0.3345646E+06 -0.1546994E+01
  0.1071429E+01  0.1512584E+06 -0.1545078E+01  0.3057388E+06 -0.2590680E+00  0.3479697E+06 -0.1544994E+01
  0.1102381E+01  0.1560683E+06 -0.1543326E+01  0.2946927E+06 -0.2833464E+00  0.3607268E+06 -0.1543222E+01
  0.1133333E+01  0.1605113E+06 -0.1541913E+01  0.2837316E+06 -0.3090113E+00  0.3727494E+06 -0.1541787E+01
  0.1164286E+01  0.1645435E+06 -0.1540957E+01  0.2728551E+06 -0.3361507E+00  0.3839320E+06 -0.1540808E+01
  0.1195238E+01  0.1681446E+06 -0.1540588E+01  0.2620596E+06 -0.3648221E+00  0.3941872E+06 -0.1540417E+01
  0.1226190E+01  0.1712859E+06 -0.1540946E+01  0.2513281E+06 -0.3951181E+00  0.4034598E+06 -0.1540756E+01
  0.1257143E+01  0.1739516E+06 -0.1542147E+01  0.2406857E+06 -0.4274673E+00  0.4116775E+06 -0.1541941E+01
  0.1288095E+01  0.1761088E+06 -0.1544428E+01  0.2300916E+06 -0.4611559E+00  0.4187413E+06 -0.1544213E+01
  0.1319048E+01  0.1777648E+06 -0.1547850E+01  0.2195936E+06 -0.4972959E+00  0.4246422E+06 -0.1547638E+01
  0.1350000E+01  0.1789161E+06 -0.1552599E+01  0.2091964E+06 -0.5358413E+00  0.4293586E+06 -0.1552410E+01
  0.1380952E+01  0.1795744E+06 -0.1558820E+01  0.1988836E+06 -0.5770371E+00  0.4328797E+06 -0.1558679E+01
  0.1411905E+01  0.1802315E+06 -0.1565398E+01  0.1887518E+06 -0.6162456E+00  0.4367214E+06 -0.1565323E+01
  0.1442857E+01  0.1799932E+06 -0.1574723E+01  0.1786012E+06 -0.6638433E+00  0.4380593E+06 -0.1574769E+01
  0.1473810E+01  0.1793090E+06 -0.1585884E+01  0.1685962E+06 -0.7158578E+00  0.4382448E+06 -0.1586111E+01
  0.1504762E+01  0.1782111E+06 -0.1599006E+01  0.1587734E+06 -0.7730558E+00  0.4373348E+06 -0.1599481E+01
  0.1535714E+01  0.1767288E+06 -0.1614208E+01  0.1491950E+06 -0.8364081E+00  0.4354267E+06 -0.1615014E+01
  0.1566667E+01  0.1749060E+06 -0.1631590E+01  0.1399615E+06 -0.9071379E+00  0.4325922E+06 -0.1632836E+01
  0.1597619E+01  0.1727716E+06 -0.1651210E+01  0.1312191E+06 -0.9863768E+00  0.4288742E+06 -0.1653035E+01
  0.1628572E+01  0.1703651E+06 -0.1673145E+01  0.1231120E+06 -0.1075554E+01  0.4243585E+06 -0.1675706E+01
  0.1659524E+01  0.1677149E+06 -0.1697465E+01  0.1158693E+06 -0.1175937E+01  0.4191209E+06 -0.1700930E+01
  0.1690476E+01  0.1648712E+06 -0.1724196E+01  0.1097151E+06 -0.1287803E+01  0.4132470E+06 -0.1728823E+01
  0.1721429E+01  0.1618645E+06 -0.1753402E+01  0.1048935E+06 -0.1410428E+01  0.4068694E+06 -0.1759440E+01
  0.1752381E+01  0.1587390E+06 -0.1785129E+01  0.1016118E+06 -0.1541913E+01  0.4000860E+06 -0.1792889E+01
  0.1783333E+01  0.1555124E+06 -0.1819403E+01  0.1000207E+06 -0.1678172E+01  0.3929840E+06 -0.1829204E+01
  0.1814286E+01  0.1522388E+06 -0.1856228E+01  0.1002207E+06 -0.1813521E+01  0.3856661E+06 -0.1868462E+01
  0.1845238E+01  0.1489378E+06 -0.1895551E+01  0.1020152E+06 -0.1942675E+01  0.3781845E+06 -0.1910669E+01
  0.1876190E+01  0.1456395E+06 -0.1937392E+01  0.1051540E+06 -0.2061992E+01  0.3706490E+06 -0.1955898E+01
  0.1907143E+01  0.1423563E+06 -0.1981782E+01  0.1092838E+06 -0.2169808E+01  0.3631445E+06 -0.2004111E+01
  0.1938095E+01  0.1391150E+06 -0.2028585E+01  0.1140410E+06 -0.2265101E+01  0.3557102E+06 -0.2055313E+01
  0.1969048E+01  0.1359483E+06 -0.2077714E+01  0.1190464E+06 -0.2348170E+01  0.3484602E+06 -0.2109464E+01
  0.2000000E+01  0.1328517E+06 -0.2129190E+01  0.1240355E+06 -0.2421750E+01  0.3414514E+06 -0.2166486E+01
