VARIABLES="w (rad/s)"
"A   1   1" "B   1   1"
"A   1   2" "B   1   2"
"A   1   3" "B   1   3"
Zone t="Motion of body    1 in DoF   1",I=    64,F=POINT
  0.5000000E-01  0.1576741E+06  0.2353805E-01 -0.5645752E-02  0.2452798E-04 -0.3881166E+06 -0.5581305E-01
  0.8095238E-01  0.1591360E+06  0.1038550E+00  0.9141809E-02  0.1221716E-03 -0.3917273E+06 -0.2465625E+00
  0.1119048E+00  0.1595285E+06  0.2915351E+00 -0.1090841E-02  0.4822412E-04 -0.3923546E+06 -0.6917999E+00
  0.1428571E+00  0.1599909E+06  0.6555327E+00 -0.1014709E-02  0.4865229E-04 -0.3932322E+06 -0.1554479E+01
  0.1738095E+00  0.1603319E+06  0.1303836E+01  0.5618579E-02  0.2764715E-03 -0.3937939E+06 -0.3089468E+01
  0.2047619E+00  0.1606782E+06  0.2402988E+01  0.9389478E-02  0.3053173E-03 -0.3945320E+06 -0.5691606E+01
  0.2357143E+00  0.1610415E+06  0.4227036E+01 -0.6473425E-03  0.1448356E-03 -0.3953397E+06 -0.1000718E+02
  0.2666667E+00  0.1615383E+06  0.7202857E+01  0.2632141E-02  0.5072728E-03 -0.3963794E+06 -0.1703928E+02
  0.2976190E+00  0.1620715E+06  0.1206376E+02 -0.1773926E-01 -0.3646314E-03 -0.3973495E+06 -0.2851159E+02
  0.3285715E+00  0.1627827E+06  0.1993356E+02  0.7337486E-02  0.7176101E-03 -0.3986392E+06 -0.4705528E+02
  0.3595238E+00  0.1632573E+06  0.3265973E+02  0.6536016E-02  0.5960763E-03 -0.3999833E+06 -0.7705637E+02
  0.3904762E+00  0.1641020E+06  0.5315152E+02 -0.7581012E-02  0.1071095E-03 -0.4014414E+06 -0.1252184E+03
  0.4214286E+00  0.1650097E+06  0.8536971E+02  0.1093460E-01  0.1798749E-02 -0.4031660E+06 -0.2008322E+03
  0.4523810E+00  0.1659200E+06  0.1359098E+03 -0.9376926E-02  0.6935596E-03 -0.4049750E+06 -0.3193008E+03
  0.4833333E+00  0.1669586E+06  0.2109748E+03 -0.4609207E-02 -0.2448559E-03 -0.4075242E+06 -0.4951548E+03
  0.5142857E+00  0.1681849E+06  0.3223175E+03 -0.1424154E-01 -0.5195141E-03 -0.4099035E+06 -0.7551451E+03
  0.5452381E+00  0.1697722E+06  0.4810341E+03  0.6268764E-02  0.2854824E-02 -0.4130303E+06 -0.1124820E+04
  0.5761905E+00  0.1710229E+06  0.7001805E+03  0.7097228E-02  0.3784180E-02 -0.4156972E+06 -0.1634547E+04
  0.6071429E+00  0.1724512E+06  0.1000670E+04 -0.3317440E-02  0.1433372E-02 -0.4188889E+06 -0.2332409E+04
  0.6380953E+00  0.1744564E+06  0.1400228E+04 -0.1721738E-02  0.3043175E-02 -0.4230733E+06 -0.3256761E+04
  0.6690477E+00  0.1762802E+06  0.1924516E+04 -0.1185950E-02  0.3023148E-02 -0.4266612E+06 -0.4465495E+04
  0.7000000E+00  0.1782344E+06  0.2605833E+04  0.1307896E-02  0.5220413E-02 -0.4304562E+06 -0.6031021E+04
  0.7309524E+00  0.1805334E+06  0.3475858E+04 -0.6763570E-02  0.1792908E-02 -0.4354624E+06 -0.8027359E+04
  0.7619048E+00  0.1825634E+06  0.4570350E+04  0.2186966E-01  0.1208496E-01 -0.4398478E+06 -0.1053147E+05
  0.7928572E+00  0.1849438E+06  0.5939360E+04 -0.5388689E-03  0.3044128E-02 -0.4447642E+06 -0.1364885E+05
  0.8238096E+00  0.1876521E+06  0.7634912E+04 -0.4741691E-02  0.3761292E-02 -0.4498128E+06 -0.1748468E+05
  0.8547620E+00  0.1903783E+06  0.9707938E+04  0.6997791E-02  0.1309204E-01 -0.4554411E+06 -0.2216807E+05
  0.8857143E+00  0.1928257E+06  0.1221055E+05 -0.5099389E-02  0.7904053E-02 -0.4601762E+06 -0.2779123E+05
  0.9166667E+00  0.1953944E+06  0.1521558E+05 -0.1398260E-02  0.4348755E-02 -0.4654103E+06 -0.3452394E+05
  0.9476191E+00  0.1979613E+06  0.1878306E+05  0.9017254E-03  0.6988525E-02 -0.4704301E+06 -0.4247484E+05
  0.9785714E+00  0.2006364E+06  0.2297987E+05 -0.2245381E-02  0.4821777E-02 -0.4757752E+06 -0.5178546E+05
  0.1009524E+01  0.2029468E+06  0.2784594E+05 -0.1438933E-01 -0.1815796E-02 -0.4796755E+06 -0.6248038E+05
  0.1040476E+01  0.2052506E+06  0.3347780E+05 -0.5748758E-02  0.9155273E-04 -0.4839158E+06 -0.7482170E+05
  0.1071429E+01  0.2070776E+06  0.3988577E+05 -0.4101563E-02  0.3723145E-02 -0.4865351E+06 -0.8872968E+05
  0.1102381E+01  0.2088172E+06  0.4715626E+05 -0.2214666E-02  0.9582520E-02 -0.4890624E+06 -0.1044191E+06
  0.1133333E+01  0.2099652E+06  0.5527803E+05  0.2046473E-02  0.1455688E-01 -0.4906761E+06 -0.1218907E+06
  0.1164286E+01  0.2102882E+06  0.6419497E+05 -0.4613209E-02  0.7598877E-02 -0.4900976E+06 -0.1408709E+06
  0.1195238E+01  0.2100904E+06  0.7394611E+05 -0.4902266E-02  0.4150391E-02 -0.4889484E+06 -0.1615834E+06
  0.1226190E+01  0.2091691E+06  0.8435685E+05 -0.3882547E-02  0.9216309E-02 -0.4855812E+06 -0.1833521E+06
  0.1257143E+01  0.2074642E+06  0.9535701E+05 -0.5728981E-02  0.4211426E-02 -0.4802711E+06 -0.2060441E+06
  0.1288095E+01  0.2055033E+06  0.1069887E+06 -0.2274434E-02  0.3295898E-02 -0.4747114E+06 -0.2298924E+06
  0.1319048E+01  0.2022868E+06  0.1188513E+06 -0.6107922E-02  0.4333496E-02 -0.4665157E+06 -0.2539308E+06
  0.1350000E+01  0.1980040E+06  0.1307495E+06 -0.5154080E-02  0.6835938E-02 -0.4558920E+06 -0.2775949E+06
  0.1380952E+01  0.1931186E+06  0.1426997E+06 -0.7602034E-02  0.4516602E-02 -0.4446289E+06 -0.3012632E+06
  0.1411905E+01  0.1869488E+06  0.1537423E+06  0.1296868E-02  0.2746582E-02 -0.4306969E+06 -0.3226093E+06
  0.1442857E+01  0.1807372E+06  0.1647040E+06 -0.4060953E-02  0.1477051E-01 -0.4161135E+06 -0.3430507E+06
  0.1473810E+01  0.1742434E+06  0.1751637E+06 -0.5632194E-02 -0.1892090E-02 -0.4014153E+06 -0.3622625E+06
  0.1504762E+01  0.1670815E+06  0.1846762E+06 -0.6652059E-02  0.7202148E-02 -0.3857351E+06 -0.3793471E+06
  0.1535714E+01  0.1594882E+06  0.1930680E+06 -0.4292333E-02  0.3417969E-02 -0.3690780E+06 -0.3935507E+06
  0.1566667E+01  0.1517135E+06  0.2003320E+06 -0.9934445E-02  0.3112793E-02 -0.3522793E+06 -0.4050929E+06
  0.1597619E+01  0.1440830E+06  0.2066095E+06 -0.6112612E-03 -0.3723145E-02 -0.3363578E+06 -0.4146943E+06
  0.1628572E+01  0.1364082E+06  0.2115250E+06 -0.3747772E-03  0.6530762E-02 -0.3201989E+06 -0.4209122E+06
  0.1659524E+01  0.1289573E+06  0.2152728E+06 -0.5332914E-02  0.2624512E-02 -0.3045767E+06 -0.4244161E+06
  0.1690476E+01  0.1219032E+06  0.2181205E+06 -0.1769160E-02 -0.4455566E-02 -0.2902467E+06 -0.4262406E+06
  0.1721429E+01  0.1151780E+06  0.2199791E+06 -0.2659208E-02  0.4882812E-03 -0.2770159E+06 -0.4263282E+06
  0.1752381E+01  0.1087408E+06  0.2206962E+06 -0.9055760E-03  0.1770020E-02 -0.2644126E+06 -0.4238785E+06
  0.1783333E+01  0.1025881E+06  0.2202522E+06 -0.2669575E-02 -0.1892090E-02 -0.2523487E+06 -0.4186050E+06
  0.1814286E+01  0.9691994E+05  0.2191585E+06 -0.3801481E-02  0.4882812E-03 -0.2416261E+06 -0.4124218E+06
  0.1845238E+01  0.9176230E+05  0.2175693E+06 -0.4862336E-02  0.3662109E-03 -0.2322933E+06 -0.4057861E+06
  0.1876190E+01  0.8697308E+05  0.2151074E+06 -0.8132858E-03 -0.4455566E-02 -0.2235460E+06 -0.3968579E+06
  0.1907143E+01  0.8262750E+05  0.2120670E+06  0.2560276E-03  0.2441406E-02 -0.2156775E+06 -0.3865909E+06
  0.1938095E+01  0.7877038E+05  0.2087774E+06 -0.2676849E-02  0.3662109E-03 -0.2090052E+06 -0.3762088E+06
  0.1969048E+01  0.7540403E+05  0.2053875E+06 -0.4680592E-02 -0.2136230E-03 -0.2035130E+06 -0.3661659E+06
  0.2000000E+01  0.7226209E+05  0.2014883E+06  0.9460449E-03  0.2685547E-02 -0.1985767E+06 -0.3554410E+06
Zone t="Motion of body    1 in DoF   2",I=    64,F=POINT
  0.5000000E-01 -0.1007080E-01 -0.1811981E-04  0.9720993E+05  0.1787313E+03  0.1892090E-01 -0.2479553E-04
  0.8095238E-01 -0.3392837E-02 -0.4100800E-04  0.9607253E+05  0.2955428E+03  0.2261891E-01 -0.1621246E-03
  0.1119048E+00 -0.2590748E-02 -0.4959106E-04  0.9565274E+05  0.4214514E+03  0.1527178E-01  0.1220703E-03
  0.1428571E+00 -0.6942749E-02 -0.6675720E-04  0.9524744E+05  0.5608595E+03  0.5126953E-02  0.1907349E-03
  0.1738095E+00  0.2809289E-02  0.1525879E-03  0.9497566E+05  0.7183940E+03  0.2949754E-01 -0.6103516E-04
  0.2047619E+00 -0.2906267E-02 -0.3051758E-04  0.9497198E+05  0.9012523E+03  0.1788472E-01  0.1449585E-03
  0.2357143E+00 -0.7832845E-02  0.5340576E-04  0.9490285E+05  0.1117996E+04  0.2951882E-01  0.1907349E-03
  0.2666667E+00 -0.3490448E-02  0.1296997E-03  0.9492439E+05  0.1374376E+04  0.1739502E-01 -0.1220703E-03
  0.2976190E+00 -0.1845703E-02 -0.1907349E-03  0.9498081E+05  0.1688835E+04 -0.9843750E-02  0.2441406E-03
  0.3285715E+00  0.1671832E-02 -0.2288818E-03  0.9502265E+05  0.2065251E+04 -0.7430366E-02 -0.8697510E-03
  0.3595238E+00 -0.1086507E-01  0.4501343E-03  0.9498823E+05  0.2523784E+04  0.4821373E-01 -0.1525879E-03
  0.3904762E+00 -0.4532977E-02 -0.1037598E-02  0.9501384E+05  0.3072099E+04 -0.1875714E-02 -0.1525879E-03
  0.4214286E+00  0.7241459E-03 -0.3662109E-03  0.9468216E+05  0.3697967E+04  0.3475900E-02  0.2014160E-02
  0.4523810E+00 -0.2563476E-02 -0.6103516E-04  0.9459380E+05  0.4434104E+04  0.1457134E-01  0.4272461E-03
  0.4833333E+00  0.1325936E-02  0.6103516E-04  0.9384059E+05  0.5193139E+04  0.1919450E-01 -0.2807617E-02
  0.5142857E+00 -0.7892185E-02 -0.3051758E-03  0.9334255E+05  0.6021525E+04  0.2468533E-01 -0.1037598E-02
  0.5452381E+00 -0.5373226E-02 -0.2044678E-02  0.9244541E+05  0.6853614E+04  0.2597059E-01  0.4272461E-03
  0.5761905E+00  0.9533589E-03  0.1831055E-02  0.9145795E+05  0.7663857E+04  0.2881263E-01  0.5493164E-03
  0.6071429E+00  0.3920611E-02 -0.2014160E-02  0.9073846E+05  0.8479891E+04  0.1367187E-01 -0.5493164E-03
  0.6380953E+00  0.3347824E-02  0.1770020E-02  0.8945945E+05  0.9226126E+04  0.1453912E-01  0.2258301E-02
  0.6690477E+00  0.0000000E+00 -0.1037598E-02  0.8836484E+05  0.9930573E+04  0.3503114E-01 -0.3784180E-02
  0.7000000E+00 -0.1307896E-02  0.2258301E-02  0.8755722E+05  0.1058901E+05  0.8370535E-02  0.4821777E-02
  0.7309524E+00  0.8350086E-04 -0.2929688E-02  0.8619556E+05  0.1117308E+05 -0.1803618E-01  0.4760742E-02
  0.7619048E+00 -0.1201630E-02 -0.2746582E-02  0.8502324E+05  0.1168476E+05  0.1473999E-01 -0.2807617E-02
  0.7928572E+00 -0.1809060E-02 -0.1342773E-02  0.8414698E+05  0.1212569E+05  0.1847550E-01 -0.1586914E-02
  0.8238096E+00 -0.3408090E-02 -0.2380371E-02  0.8310811E+05  0.1247525E+05  0.1600321E-01 -0.3295898E-02
  0.8547620E+00 -0.5962403E-02 -0.2685547E-02  0.8194312E+05  0.1274914E+05  0.4455736E-01 -0.4516602E-02
  0.8857143E+00 -0.3342167E-02 -0.3723145E-02  0.8094247E+05  0.1293539E+05  0.1488470E-01  0.5493164E-02
  0.9166667E+00 -0.2363725E-02 -0.7324219E-03  0.8028845E+05  0.1303799E+05  0.2290483E-01 -0.6103516E-03
  0.9476191E+00 -0.5345943E-02 -0.5371094E-02  0.7949153E+05  0.1303115E+05  0.3349266E-01  0.9521484E-02
  0.9785714E+00 -0.2526054E-02  0.2380371E-02  0.7853133E+05  0.1295236E+05  0.6486656E-02 -0.5615234E-02
  0.1009524E+01  0.8464310E-03  0.1647949E-02  0.7774055E+05  0.1279022E+05  0.9673497E-03 -0.6958008E-02
  0.1040476E+01 -0.2053128E-02  0.3356934E-02  0.7722487E+05  0.1259626E+05  0.1454788E-01 -0.1184082E-01
  0.1071429E+01  0.1210531E-02 -0.3906250E-02  0.7695966E+05  0.1233616E+05  0.1412760E-01  0.1330566E-01
  0.1102381E+01 -0.2117775E-02  0.3540039E-02  0.7628548E+05  0.1192876E+05  0.2569013E-01 -0.5493164E-02
  0.1133333E+01 -0.7075142E-02 -0.8544922E-03  0.7573232E+05  0.1149897E+05  0.3188189E-01  0.2685547E-02
  0.1164286E+01 -0.1179514E-03  0.8300781E-02  0.7530460E+05  0.1101063E+05  0.8387653E-02 -0.2111816E-01
  0.1195238E+01 -0.2808590E-02  0.2685547E-02  0.7511002E+05  0.1056487E+05  0.2328576E-01 -0.5493164E-02
  0.1226190E+01 -0.2488812E-03 -0.8544922E-03  0.7512095E+05  0.1012695E+05  0.1114988E-01 -0.4943848E-02
  0.1257143E+01 -0.6797097E-03  0.1831055E-02  0.7503229E+05  0.9577315E+04  0.2718839E-01  0.1464844E-02
  0.1288095E+01 -0.3281345E-02 -0.1220703E-02  0.7472082E+05  0.8909521E+04  0.2729321E-01 -0.8056641E-02
  0.1319048E+01  0.1746773E-02  0.6103516E-03  0.7457265E+05  0.8287615E+04  0.9994782E-02 -0.6042480E-02
  0.1350000E+01 -0.1785843E-02  0.6835938E-02  0.7451528E+05  0.7672497E+04  0.4340278E-02 -0.2374268E-01
  0.1380952E+01 -0.2718169E-02 -0.2441406E-02  0.7462466E+05  0.7200584E+04  0.1697198E-01  0.1892090E-02
  0.1411905E+01 -0.3328629E-02 -0.2075195E-02  0.7484347E+05  0.6804963E+04  0.2144156E-01  0.1159668E-02
  0.1442857E+01 -0.5118493E-02 -0.5249023E-02  0.7508568E+05  0.6373082E+04  0.2639619E-01  0.2258301E-02
  0.1473810E+01 -0.7247308E-03  0.3784180E-02  0.7501702E+05  0.5601782E+04  0.1987833E-01 -0.2502441E-02
  0.1504762E+01 -0.2352558E-02 -0.1281738E-02  0.7509691E+05  0.5029229E+04  0.1882046E-01  0.1730347E-01
  0.1535714E+01 -0.4848746E-02 -0.4394531E-02  0.7521618E+05  0.4464199E+04  0.1462573E-01  0.4547119E-02
  0.1566667E+01 -0.6428171E-03  0.1586914E-02  0.7537933E+05  0.4007622E+04  0.1807679E-01 -0.1791382E-01
  0.1597619E+01 -0.1069707E-02 -0.9155273E-03  0.7560598E+05  0.3722164E+04  0.2628423E-01  0.6469727E-02
  0.1628572E+01 -0.3560384E-02 -0.1098633E-02  0.7587786E+05  0.3519000E+04  0.1019394E-01 -0.8544922E-03
  0.1659524E+01 -0.3604314E-02 -0.5065918E-02  0.7617679E+05  0.3375171E+04  0.2530376E-01  0.6713867E-02
  0.1690476E+01 -0.2455160E-02  0.2441406E-03  0.7630295E+05  0.2754532E+04  0.1733054E-01  0.4882812E-03
  0.1721429E+01 -0.3616523E-02  0.8544922E-03  0.7645350E+05  0.2307609E+04  0.2155731E-01 -0.8209229E-02
  0.1752381E+01 -0.3065027E-02  0.2624512E-02  0.7663484E+05  0.1977974E+04  0.2953571E-01  0.3295898E-02
  0.1783333E+01 -0.4380841E-02  0.2441406E-03  0.7682768E+05  0.1666373E+04  0.2792786E-01  0.2792358E-02
  0.1814286E+01 -0.3902406E-02 -0.2258301E-02  0.7700697E+05  0.1473264E+04  0.2798967E-01  0.4287720E-02
  0.1845238E+01 -0.1356162E-02  0.2685547E-02  0.7719148E+05  0.1389054E+04  0.1746472E-01 -0.8285522E-02
  0.1876190E+01 -0.9108800E-03  0.2136230E-02  0.7737824E+05  0.1340240E+04  0.1769710E-01 -0.7415771E-02
  0.1907143E+01 -0.5568601E-02 -0.1251221E-02  0.7756259E+05  0.1318544E+04  0.2509071E-01 -0.4898071E-02
  0.1938095E+01 -0.2267449E-02  0.3051758E-03  0.7774350E+05  0.1072662E+04  0.1713183E-01  0.3280640E-03
  0.1969048E+01 -0.2014824E-02 -0.1281738E-02  0.7788278E+05  0.7755225E+03  0.5455525E-02  0.1068115E-02
  0.2000000E+01 -0.2349854E-02 -0.2105713E-02  0.7802109E+05  0.6851596E+03  0.2490234E-01  0.1449585E-03
Zone t="Motion of body    1 in DoF   3",I=    64,F=POINT
  0.5000000E-01 -0.3896257E+06 -0.5615703E-01  0.2849579E-01  0.4433503E-05  0.1214957E+07  0.1333385E+00
  0.8095238E-01 -0.3935978E+06 -0.2482454E+00 -0.3534205E-03 -0.1194405E-03  0.1222726E+07  0.5896026E+00
  0.1119048E+00 -0.3942088E+06 -0.6962860E+00  0.2491890E-01 -0.7140264E-04  0.1223690E+07  0.1651994E+01
  0.1428571E+00 -0.3951189E+06 -0.1564804E+01 -0.3078842E-01 -0.4130993E-03  0.1225171E+07  0.3710808E+01
  0.1738095E+00 -0.3957030E+06 -0.3110503E+01 -0.1582420E-01 -0.3354363E-03  0.1225930E+07  0.7370851E+01
  0.2047619E+00 -0.3963925E+06 -0.5729870E+01 -0.1903977E-01 -0.6991327E-03  0.1227341E+07  0.1357292E+02
  0.2357143E+00 -0.3972513E+06 -0.1007276E+02 -0.7768110E-02 -0.3458932E-03  0.1229636E+07  0.2384834E+02
  0.2666667E+00 -0.3982868E+06 -0.1715076E+02 -0.3725052E-01 -0.1151681E-02  0.1231622E+07  0.4057402E+02
  0.2976190E+00 -0.3992640E+06 -0.2870192E+02 -0.2460938E-01 -0.7201135E-03  0.1233746E+07  0.6783377E+02
  0.3285715E+00 -0.4005541E+06 -0.4737748E+02  0.7639345E-02  0.3213286E-03  0.1235873E+07  0.1118368E+03
  0.3595238E+00 -0.4019312E+06 -0.7754125E+02 -0.4679193E-01 -0.2286375E-02  0.1239621E+07  0.1829461E+03
  0.3904762E+00 -0.4033355E+06 -0.1260459E+03 -0.7764676E-01 -0.4851222E-02  0.1241717E+07  0.2969497E+03
  0.4214286E+00 -0.4051189E+06 -0.2021862E+03  0.1585879E-01 -0.5199909E-03  0.1245163E+07  0.4756378E+03
  0.4523810E+00 -0.4068289E+06 -0.3214745E+03  0.4253347E-01  0.2289295E-02  0.1249205E+07  0.7552519E+03
  0.4833333E+00 -0.4094896E+06 -0.4982441E+03 -0.2080457E-01 -0.1737118E-02  0.1254754E+07  0.1169376E+04
  0.5142857E+00 -0.4118479E+06 -0.7599894E+03  0.2875010E-01  0.5273819E-02  0.1260112E+07  0.1780548E+04
  0.5452381E+00 -0.4150295E+06 -0.1132295E+04 -0.1022032E+00 -0.2036381E-01  0.1266032E+07  0.2647695E+04
  0.5761905E+00 -0.4177319E+06 -0.1645063E+04 -0.3895530E-01 -0.1179504E-01  0.1271888E+07  0.3840367E+04
  0.6071429E+00 -0.4208103E+06 -0.2346667E+04 -0.1435044E-01 -0.5809784E-02  0.1279243E+07  0.5469875E+04
  0.6380953E+00 -0.4251295E+06 -0.3276502E+04  0.1445542E-01 -0.1342773E-02  0.1287713E+07  0.7620726E+04
  0.6690477E+00 -0.4287478E+06 -0.4493223E+04 -0.7058683E-02 -0.5321503E-02  0.1295115E+07  0.1042574E+05
  0.7000000E+00 -0.4324398E+06 -0.6069804E+04  0.4664829E-02 -0.5676270E-02  0.1302889E+07  0.1404831E+05
  0.7309524E+00 -0.4375756E+06 -0.8076065E+04  0.1283826E-02 -0.4531860E-02  0.1313535E+07  0.1865140E+05
  0.7619048E+00 -0.4419712E+06 -0.1059100E+05 -0.7743501E-01 -0.3566742E-01  0.1322723E+07  0.2440487E+05
  0.7928572E+00 -0.4468668E+06 -0.1372400E+05 -0.8236996E-02 -0.5401611E-02  0.1333610E+07  0.3153803E+05
  0.8238096E+00 -0.4519022E+06 -0.1758912E+05  0.1110408E-01 -0.9353638E-02  0.1342704E+07  0.4028007E+05
  0.8547620E+00 -0.4576603E+06 -0.2229561E+05  0.7593585E-02 -0.6301880E-02  0.1354346E+07  0.5091172E+05
  0.8857143E+00 -0.4624019E+06 -0.2795117E+05  0.1936336E-01 -0.1190186E-02  0.1363664E+07  0.6361683E+05
  0.9166667E+00 -0.4676058E+06 -0.3471272E+05 -0.4363580E-02 -0.8209229E-02  0.1374985E+07  0.7876467E+05
  0.9476191E+00 -0.4725538E+06 -0.4270004E+05  0.9150097E-02  0.1239014E-01  0.1384333E+07  0.9655935E+05
  0.9785714E+00 -0.4780081E+06 -0.5203904E+05  0.3524780E-01  0.1217651E-01  0.1394802E+07  0.1172689E+06
  0.1009524E+01 -0.4819141E+06 -0.6279593E+05  0.2061286E-01 -0.3051758E-02  0.1400790E+07  0.1408942E+06
  0.1040476E+01 -0.4862081E+06 -0.7518827E+05 -0.2132686E-01 -0.2471924E-01  0.1409476E+07  0.1680460E+06
  0.1071429E+01 -0.4887332E+06 -0.8918847E+05 -0.2794902E-02 -0.2325439E-01  0.1412538E+07  0.1984128E+06
  0.1102381E+01 -0.4912877E+06 -0.1049646E+06  0.3045858E-01  0.1458740E-01  0.1414972E+07  0.2324095E+06
  0.1133333E+01 -0.4929618E+06 -0.1224816E+06 -0.9197768E-02 -0.4516602E-02  0.1416911E+07  0.2700763E+06
  0.1164286E+01 -0.4923263E+06 -0.1415349E+06  0.2922245E-01  0.3155518E-01  0.1412726E+07  0.3105769E+06
  0.1195238E+01 -0.4911656E+06 -0.1622496E+06  0.7768304E-02 -0.5371094E-02  0.1409363E+07  0.3545604E+06
  0.1226190E+01 -0.4876881E+06 -0.1840811E+06 -0.5438055E-02 -0.2819824E-01  0.1399513E+07  0.4001301E+06
  0.1257143E+01 -0.4822072E+06 -0.2068534E+06  0.2865705E-01  0.2355957E-01  0.1384490E+07  0.4469437E+06
  0.1288095E+01 -0.4767710E+06 -0.2307826E+06 -0.1336230E-01  0.7568359E-02  0.1369713E+07  0.4958366E+06
  0.1319048E+01 -0.4685637E+06 -0.2548430E+06  0.2961417E-02 -0.2685547E-01  0.1349462E+07  0.5444384E+06
  0.1350000E+01 -0.4578492E+06 -0.2785775E+06  0.1537182E-02 -0.4882812E-02  0.1323666E+07  0.5913632E+06
  0.1380952E+01 -0.4465821E+06 -0.3022072E+06  0.9104761E-02  0.1745605E-01  0.1298948E+07  0.6380526E+06
  0.1411905E+01 -0.4326548E+06 -0.3236149E+06 -0.3631231E-02 -0.2209473E-01  0.1268016E+07  0.6791434E+06
  0.1442857E+01 -0.4178850E+06 -0.3441524E+06 -0.9644764E-02 -0.3430176E-01  0.1234292E+07  0.7168059E+06
  0.1473810E+01 -0.4032292E+06 -0.3633917E+06  0.2037529E-01  0.2941895E-01  0.1200810E+07  0.7512251E+06
  0.1504762E+01 -0.3876045E+06 -0.3804519E+06  0.1216840E-01 -0.2246094E-01  0.1167397E+07  0.7813419E+06
  0.1535714E+01 -0.3708680E+06 -0.3946128E+06 -0.1526163E-01  0.6225586E-02  0.1131043E+07  0.8041195E+06
  0.1566667E+01 -0.3540149E+06 -0.4061734E+06  0.4402323E-01 -0.1257324E-01  0.1095346E+07  0.8210020E+06
  0.1597619E+01 -0.3381528E+06 -0.4157667E+06  0.1214882E-01  0.5371094E-02  0.1063728E+07  0.8346271E+06
  0.1628572E+01 -0.3218805E+06 -0.4219515E+06  0.7195723E-02 -0.8056641E-02  0.1030410E+07  0.8398347E+06
  0.1659524E+01 -0.3060388E+06 -0.4253888E+06  0.2692202E-01  0.1025391E-01  0.9978616E+06  0.8386814E+06
  0.1690476E+01 -0.2917321E+06 -0.4271659E+06  0.1155370E-02  0.3540039E-02  0.9686199E+06  0.8340822E+06
  0.1721429E+01 -0.2786624E+06 -0.4272273E+06 -0.5672977E-02 -0.3417969E-02  0.9432435E+06  0.8273181E+06
  0.1752381E+01 -0.2661514E+06 -0.4247228E+06 -0.1044895E-01 -0.1940918E-01  0.9190696E+06  0.8150972E+06
  0.1783333E+01 -0.2539871E+06 -0.4193629E+06 -0.3696335E-02  0.6103516E-03  0.8955009E+06  0.7958169E+06
  0.1814286E+01 -0.2432874E+06 -0.4132332E+06  0.4171537E-02 -0.1379395E-01  0.8760965E+06  0.7765508E+06
  0.1845238E+01 -0.2340525E+06 -0.4066868E+06  0.9658518E-02  0.3662109E-03  0.8609611E+06  0.7587284E+06
  0.1876190E+01 -0.2252416E+06 -0.3976982E+06 -0.5595406E-02 -0.2563477E-02  0.8457899E+06  0.7341405E+06
  0.1907143E+01 -0.2172127E+06 -0.3872359E+06 -0.2816304E-01 -0.1165771E-01  0.8318678E+06  0.7058061E+06
  0.1938095E+01 -0.2104927E+06 -0.3767582E+06  0.5164744E-02 -0.3173828E-02  0.8207312E+06  0.6779316E+06
  0.1969048E+01 -0.2051685E+06 -0.3667200E+06  0.8555255E-02  0.2380371E-02  0.8121551E+06  0.6513567E+06
  0.2000000E+01 -0.2003538E+06 -0.3561283E+06 -0.1623535E-01 -0.2990723E-02  0.8055069E+06  0.6265208E+06
