VARIABLES="w (rad/s)"
"abs(F   1   1)" "angle(F   1   1)"
"abs(F   1   2)" "angle(F   1   2)"
"abs(F   1   3)" "angle(F   1   3)"
Zone t="Diffraction force - beta =   0.000 deg",I=    64,F=POINT
  0.5000000E-01  0.1167611E+04 -0.1570836E+01  0.2552593E+06 -0.1735826E-04  0.2536935E+03  0.1570843E+01
  0.8095238E-01  0.1906596E+04 -0.1570795E+01  0.2549191E+06 -0.4671693E-04  0.4171702E+03  0.1570786E+01
  0.1119048E+00  0.2662110E+04 -0.1570799E+01  0.2544188E+06 -0.9283108E-04  0.5817020E+03  0.1570847E+01
  0.1428571E+00  0.3443554E+04 -0.1570792E+01  0.2537585E+06 -0.1592983E-03  0.7498678E+03  0.1570768E+01
  0.1738095E+00  0.4256893E+04 -0.1570792E+01  0.2529356E+06 -0.2516096E-03  0.9204287E+03  0.1570802E+01
  0.2047619E+00  0.5115710E+04 -0.1570798E+01  0.2519499E+06 -0.3776010E-03  0.1098478E+04  0.1570814E+01
  0.2357143E+00  0.6025372E+04 -0.1570785E+01  0.2507968E+06 -0.5489845E-03  0.1285502E+04  0.1570822E+01
  0.2666667E+00  0.7006092E+04 -0.1570781E+01  0.2494765E+06 -0.7801949E-03  0.1478361E+04  0.1570794E+01
  0.2976190E+00  0.8068999E+04 -0.1570775E+01  0.2479878E+06 -0.1095202E-02  0.1686492E+04  0.1570826E+01
  0.3285715E+00  0.9227062E+04 -0.1570760E+01  0.2463222E+06 -0.1519313E-02  0.1908249E+04  0.1570820E+01
  0.3595238E+00  0.1050512E+05 -0.1570751E+01  0.2444871E+06 -0.2091720E-02  0.2139435E+04  0.1570840E+01
  0.3904762E+00  0.1191536E+05 -0.1570722E+01  0.2424842E+06 -0.2857768E-02  0.2393844E+04  0.1570862E+01
  0.4214286E+00  0.1347144E+05 -0.1570691E+01  0.2403189E+06 -0.3846671E-02  0.2670594E+04  0.1570905E+01
  0.4523810E+00  0.1518480E+05 -0.1570638E+01  0.2379841E+06 -0.5135693E-02  0.2953874E+04  0.1570952E+01
  0.4833333E+00  0.1706317E+05 -0.1570566E+01  0.2355157E+06 -0.6697881E-02  0.3251396E+04  0.1571030E+01
  0.5142857E+00  0.1909783E+05 -0.1570465E+01  0.2329156E+06 -0.8621211E-02  0.3564224E+04  0.1571129E+01
  0.5452381E+00  0.2126869E+05 -0.1570329E+01  0.2301737E+06 -0.1088441E-01  0.3889676E+04  0.1571258E+01
  0.5761905E+00  0.2355825E+05 -0.1570155E+01  0.2273114E+06 -0.1350067E-01  0.4216740E+04  0.1571441E+01
  0.6071429E+00  0.2598767E+05 -0.1569926E+01  0.2243476E+06 -0.1654503E-01  0.4527458E+04  0.1571665E+01
  0.6380953E+00  0.2853733E+05 -0.1569643E+01  0.2212726E+06 -0.1995879E-01  0.4832767E+04  0.1571954E+01
  0.6690477E+00  0.3117071E+05 -0.1569287E+01  0.2180964E+06 -0.2381608E-01  0.5138180E+04  0.1572305E+01
  0.7000000E+00  0.3388602E+05 -0.1568850E+01  0.2148253E+06 -0.2816533E-01  0.5430058E+04  0.1572742E+01
  0.7309524E+00  0.3669707E+05 -0.1568320E+01  0.2114627E+06 -0.3298629E-01  0.5687635E+04  0.1573273E+01
  0.7619048E+00  0.3959205E+05 -0.1567683E+01  0.2080403E+06 -0.3833071E-01  0.5915753E+04  0.1573908E+01
  0.7928572E+00  0.4257893E+05 -0.1566925E+01  0.2045641E+06 -0.4422633E-01  0.6120439E+04  0.1574670E+01
  0.8238096E+00  0.4563120E+05 -0.1566031E+01  0.2010281E+06 -0.5068682E-01  0.6290208E+04  0.1575565E+01
  0.8547620E+00  0.4873175E+05 -0.1564986E+01  0.1974347E+06 -0.5772765E-01  0.6450067E+04  0.1576612E+01
  0.8857143E+00  0.5186869E+05 -0.1563774E+01  0.1937990E+06 -0.6537172E-01  0.6562424E+04  0.1577825E+01
  0.9166667E+00  0.5506974E+05 -0.1562381E+01  0.1901361E+06 -0.7363939E-01  0.6628133E+04  0.1579214E+01
  0.9476191E+00  0.5832881E+05 -0.1560794E+01  0.1864644E+06 -0.8254728E-01  0.6623070E+04  0.1580809E+01
  0.9785714E+00  0.6163507E+05 -0.1559000E+01  0.1827957E+06 -0.9210623E-01  0.6582780E+04  0.1582614E+01
  0.1009524E+01  0.6495835E+05 -0.1556983E+01  0.1791304E+06 -0.1023248E+00  0.6498114E+04  0.1584644E+01
  0.1040476E+01  0.6830017E+05 -0.1554731E+01  0.1754592E+06 -0.1132005E+00  0.6371166E+04  0.1586907E+01
  0.1071429E+01  0.7163409E+05 -0.1552234E+01  0.1717898E+06 -0.1247457E+00  0.6192195E+04  0.1589394E+01
  0.1102381E+01  0.7496191E+05 -0.1549489E+01  0.1681239E+06 -0.1369704E+00  0.5949930E+04  0.1592127E+01
  0.1133333E+01  0.7827566E+05 -0.1546495E+01  0.1644864E+06 -0.1498929E+00  0.5649258E+04  0.1595126E+01
  0.1164286E+01  0.8156002E+05 -0.1543255E+01  0.1608845E+06 -0.1635293E+00  0.5274158E+04  0.1598407E+01
  0.1195238E+01  0.8482315E+05 -0.1539773E+01  0.1573231E+06 -0.1778747E+00  0.4834925E+04  0.1601989E+01
  0.1226190E+01  0.8804606E+05 -0.1536059E+01  0.1538083E+06 -0.1929318E+00  0.4331439E+04  0.1605861E+01
  0.1257143E+01  0.9118613E+05 -0.1532106E+01  0.1503379E+06 -0.2088800E+00  0.3767553E+04  0.1610017E+01
  0.1288095E+01  0.9428800E+05 -0.1527994E+01  0.1469125E+06 -0.2251342E+00  0.3133904E+04  0.1614359E+01
  0.1319048E+01  0.9726415E+05 -0.1523677E+01  0.1435278E+06 -0.2422728E+00  0.2473842E+04  0.1618879E+01
  0.1350000E+01  0.1001054E+06 -0.1519208E+01  0.1401902E+06 -0.2601041E+00  0.1744186E+04  0.1623293E+01
  0.1380952E+01  0.1028269E+06 -0.1514637E+01  0.1368842E+06 -0.2786033E+00  0.9672759E+03  0.1627493E+01
  0.1411905E+01  0.1049983E+06 -0.1510914E+01  0.1340009E+06 -0.2950945E+00  0.2636774E+03  0.1628386E+01
  0.1442857E+01  0.1074185E+06 -0.1506362E+01  0.1308185E+06 -0.3148684E+00  0.6430082E+03 -0.1504068E+01
  0.1473810E+01  0.1096867E+06 -0.1501886E+01  0.1276929E+06 -0.3353381E+00  0.1602593E+04 -0.1500604E+01
  0.1504762E+01  0.1117834E+06 -0.1497539E+01  0.1246343E+06 -0.3565137E+00  0.2594645E+04 -0.1496526E+01
  0.1535714E+01  0.1136848E+06 -0.1493375E+01  0.1216426E+06 -0.3784071E+00  0.3613967E+04 -0.1492468E+01
  0.1566667E+01  0.1153775E+06 -0.1489478E+01  0.1187226E+06 -0.4009894E+00  0.4681763E+04 -0.1488439E+01
  0.1597619E+01  0.1168773E+06 -0.1485935E+01  0.1158523E+06 -0.4242297E+00  0.5757753E+04 -0.1484893E+01
  0.1628572E+01  0.1181646E+06 -0.1482832E+01  0.1130379E+06 -0.4481308E+00  0.6864174E+04 -0.1481740E+01
  0.1659524E+01  0.1192277E+06 -0.1480247E+01  0.1102869E+06 -0.4727353E+00  0.7996259E+04 -0.1479150E+01
  0.1690476E+01  0.1200808E+06 -0.1478276E+01  0.1075878E+06 -0.4980077E+00  0.9135393E+04 -0.1477223E+01
  0.1721429E+01  0.1207150E+06 -0.1476998E+01  0.1049524E+06 -0.5239524E+00  0.1027655E+05 -0.1475905E+01
  0.1752381E+01  0.1211306E+06 -0.1476465E+01  0.1023802E+06 -0.5506045E+00  0.1140165E+05 -0.1475417E+01
  0.1783333E+01  0.1213270E+06 -0.1476773E+01  0.9987300E+05 -0.5779305E+00  0.1252324E+05 -0.1475706E+01
  0.1814286E+01  0.1213117E+06 -0.1477989E+01  0.9743282E+05 -0.6059534E+00  0.1363025E+05 -0.1476875E+01
  0.1845238E+01  0.1211094E+06 -0.1480192E+01  0.9504003E+05 -0.6346337E+00  0.1470415E+05 -0.1479167E+01
  0.1876190E+01  0.1207180E+06 -0.1483451E+01  0.9270707E+05 -0.6639820E+00  0.1575925E+05 -0.1482416E+01
  0.1907143E+01  0.1201388E+06 -0.1487803E+01  0.9044340E+05 -0.6940165E+00  0.1678873E+05 -0.1486734E+01
  0.1938095E+01  0.1194016E+06 -0.1493308E+01  0.8822398E+05 -0.7247013E+00  0.1777651E+05 -0.1492289E+01
  0.1969048E+01  0.1185093E+06 -0.1500024E+01  0.8606487E+05 -0.7560343E+00  0.1873474E+05 -0.1498961E+01
  0.2000000E+01  0.1174817E+06 -0.1507976E+01  0.8395980E+05 -0.7880374E+00  0.1965118E+05 -0.1506896E+01
