VARIABLES="w (rad/s)"
"abs(F   1   1)" "angle(F   1   1)"
"abs(F   1   2)" "angle(F   1   2)"
"abs(F   1   3)" "angle(F   1   3)"
Zone t="Diffraction force - beta =   0.000 deg",I=    64,F=POINT
  0.5000000E-01  0.6684811E+03 -0.1570794E+01  0.1972074E+03 -0.3102681E+01  0.7070980E+03  0.1570796E+01
  0.8095238E-01  0.1092627E+04 -0.1570791E+01  0.5128352E+03 -0.3101455E+01  0.1156441E+04  0.1570797E+01
  0.1119048E+00  0.1534075E+04 -0.1570785E+01  0.9732906E+03 -0.3099779E+01  0.1627590E+04  0.1570797E+01
  0.1428571E+00  0.1983522E+04 -0.1570777E+01  0.1581610E+04 -0.3097714E+01  0.2115681E+04  0.1570797E+01
  0.1738095E+00  0.2459274E+04 -0.1570764E+01  0.2334961E+04 -0.3095035E+01  0.2635104E+04  0.1570798E+01
  0.2047619E+00  0.2952194E+04 -0.1570746E+01  0.3236318E+04 -0.3091662E+01  0.3181749E+04  0.1570799E+01
  0.2357143E+00  0.3487383E+04 -0.1570720E+01  0.4294276E+04 -0.3087496E+01  0.3783887E+04  0.1570801E+01
  0.2666667E+00  0.4055998E+04 -0.1570682E+01  0.5490437E+04 -0.3082255E+01  0.4431959E+04  0.1570804E+01
  0.2976190E+00  0.4667157E+04 -0.1570625E+01  0.6853365E+04 -0.3075824E+01  0.5142760E+04  0.1570808E+01
  0.3285715E+00  0.5366146E+04 -0.1570541E+01  0.8347212E+04 -0.3067911E+01  0.5962743E+04  0.1570816E+01
  0.3595238E+00  0.6113476E+04 -0.1570415E+01  0.1001299E+05 -0.3058542E+01  0.6857960E+04  0.1570828E+01
  0.3904762E+00  0.6928490E+04 -0.1570226E+01  0.1178376E+05 -0.3047075E+01  0.7846957E+04  0.1570847E+01
  0.4214286E+00  0.7861129E+04 -0.1569953E+01  0.1370670E+05 -0.3034533E+01  0.9007644E+04  0.1570877E+01
  0.4523810E+00  0.8900255E+04 -0.1569555E+01  0.1571048E+05 -0.3019598E+01  0.1028800E+05  0.1570924E+01
  0.4833333E+00  0.1000710E+05 -0.1569001E+01  0.1781090E+05 -0.3004676E+01  0.1170511E+05  0.1570994E+01
  0.5142857E+00  0.1116920E+05 -0.1568227E+01  0.1999188E+05 -0.2988507E+01  0.1321967E+05  0.1571095E+01
  0.5452381E+00  0.1252984E+05 -0.1567224E+01  0.2218816E+05 -0.2971985E+01  0.1501709E+05  0.1571242E+01
  0.5761905E+00  0.1392425E+05 -0.1565915E+01  0.2448645E+05 -0.2956367E+01  0.1689824E+05  0.1571444E+01
  0.6071429E+00  0.1538794E+05 -0.1564230E+01  0.2671655E+05 -0.2939411E+01  0.1884928E+05  0.1571718E+01
  0.6380953E+00  0.1687896E+05 -0.1562123E+01  0.2899845E+05 -0.2923750E+01  0.2097515E+05  0.1572081E+01
  0.6690477E+00  0.1847867E+05 -0.1559554E+01  0.3135286E+05 -0.2908885E+01  0.2329341E+05  0.1572544E+01
  0.7000000E+00  0.2018743E+05 -0.1556448E+01  0.3354691E+05 -0.2892622E+01  0.2568638E+05  0.1573140E+01
  0.7309524E+00  0.2194156E+05 -0.1552726E+01  0.3576572E+05 -0.2877345E+01  0.2829681E+05  0.1573908E+01
  0.7619048E+00  0.2367475E+05 -0.1548251E+01  0.3800403E+05 -0.2862929E+01  0.3094647E+05  0.1574869E+01
  0.7928572E+00  0.2540623E+05 -0.1542942E+01  0.4013355E+05 -0.2848275E+01  0.3363514E+05  0.1576051E+01
  0.8238096E+00  0.2723578E+05 -0.1536849E+01  0.4213494E+05 -0.2833237E+01  0.3654090E+05  0.1577450E+01
  0.8547620E+00  0.2913871E+05 -0.1529965E+01  0.4410670E+05 -0.2819024E+01  0.3961887E+05  0.1579069E+01
  0.8857143E+00  0.3102624E+05 -0.1522056E+01  0.4605062E+05 -0.2805848E+01  0.4281362E+05  0.1581042E+01
  0.9166667E+00  0.3289638E+05 -0.1513064E+01  0.4780349E+05 -0.2792267E+01  0.4596426E+05  0.1583388E+01
  0.9476191E+00  0.3478496E+05 -0.1502988E+01  0.4938479E+05 -0.2778421E+01  0.4927122E+05  0.1586155E+01
  0.9785714E+00  0.3654482E+05 -0.1491570E+01  0.5088514E+05 -0.2765352E+01  0.5259694E+05  0.1589357E+01
  0.1009524E+01  0.3817792E+05 -0.1478740E+01  0.5230859E+05 -0.2753326E+01  0.5589885E+05  0.1593028E+01
  0.1040476E+01  0.3978294E+05 -0.1464967E+01  0.5362002E+05 -0.2742078E+01  0.5932379E+05  0.1596834E+01
  0.1071429E+01  0.4138407E+05 -0.1450421E+01  0.5458243E+05 -0.2729306E+01  0.6257244E+05  0.1600880E+01
  0.1102381E+01  0.4289615E+05 -0.1434689E+01  0.5545670E+05 -0.2717421E+01  0.6608321E+05  0.1605513E+01
  0.1133333E+01  0.4414850E+05 -0.1417411E+01  0.5619457E+05 -0.2706278E+01  0.6939292E+05  0.1610734E+01
  0.1164286E+01  0.4516975E+05 -0.1398705E+01  0.5682896E+05 -0.2696334E+01  0.7256559E+05  0.1616362E+01
  0.1195238E+01  0.4598987E+05 -0.1379095E+01  0.5736334E+05 -0.2687717E+01  0.7577430E+05  0.1622129E+01
  0.1226190E+01  0.4661448E+05 -0.1359336E+01  0.5747104E+05 -0.2677190E+01  0.7846821E+05  0.1627409E+01
  0.1257143E+01  0.4698409E+05 -0.1338509E+01  0.5745395E+05 -0.2667283E+01  0.8115927E+05  0.1633218E+01
  0.1288095E+01  0.4707461E+05 -0.1317041E+01  0.5730735E+05 -0.2658559E+01  0.8374102E+05  0.1639212E+01
  0.1319048E+01  0.4675801E+05 -0.1294389E+01  0.5702621E+05 -0.2650668E+01  0.8589509E+05  0.1645190E+01
  0.1350000E+01  0.4613031E+05 -0.1272165E+01  0.5664314E+05 -0.2644189E+01  0.8789607E+05  0.1650209E+01
  0.1380952E+01  0.4515321E+05 -0.1249766E+01  0.5614855E+05 -0.2639199E+01  0.8969467E+05  0.1655141E+01
  0.1411905E+01  0.4367073E+05 -0.1226442E+01  0.5522890E+05 -0.2632231E+01  0.9053613E+05  0.1659034E+01
  0.1442857E+01  0.4196651E+05 -0.1204422E+01  0.5418406E+05 -0.2626713E+01  0.9121503E+05  0.1662222E+01
  0.1473810E+01  0.3994787E+05 -0.1184069E+01  0.5305881E+05 -0.2622499E+01  0.9179308E+05  0.1664233E+01
  0.1504762E+01  0.3749042E+05 -0.1164736E+01  0.5182304E+05 -0.2619867E+01  0.9180617E+05  0.1664638E+01
  0.1535714E+01  0.3464456E+05 -0.1146410E+01  0.5050076E+05 -0.2618961E+01  0.9137348E+05  0.1663855E+01
  0.1566667E+01  0.3147956E+05 -0.1130268E+01  0.4913634E+05 -0.2619973E+01  0.9072911E+05  0.1661623E+01
  0.1597619E+01  0.2801445E+05 -0.1118193E+01  0.4768495E+05 -0.2623078E+01  0.8971599E+05  0.1656958E+01
  0.1628572E+01  0.2423335E+05 -0.1112077E+01  0.4592643E+05 -0.2626514E+01  0.8779616E+05  0.1648444E+01
  0.1659524E+01  0.2021405E+05 -0.1114233E+01  0.4414266E+05 -0.2632078E+01  0.8558753E+05  0.1637436E+01
  0.1690476E+01  0.1604562E+05 -0.1132572E+01  0.4237727E+05 -0.2639874E+01  0.8333781E+05  0.1624136E+01
  0.1721429E+01  0.1166526E+05 -0.1182803E+01  0.4062078E+05 -0.2650255E+01  0.8068623E+05  0.1607072E+01
  0.1752381E+01  0.7215432E+04 -0.1324644E+01  0.3890039E+05 -0.2663162E+01  0.7769962E+05  0.1585983E+01
  0.1783333E+01  0.3373244E+04 -0.1908208E+01  0.3724467E+05 -0.2678653E+01  0.7454346E+05  0.1560833E+01
  0.1814286E+01  0.4215839E+04  0.2997980E+01  0.3568835E+05 -0.2696112E+01  0.7131713E+05  0.1531605E+01
  0.1845238E+01  0.8595854E+04  0.2606635E+01  0.3417758E+05 -0.2715162E+01  0.6786188E+05  0.1496363E+01
  0.1876190E+01  0.1351070E+05  0.2495885E+01  0.3258342E+05 -0.2736430E+01  0.6387939E+05  0.1449460E+01
  0.1907143E+01  0.1856026E+05  0.2449342E+01  0.3109815E+05 -0.2758530E+01  0.5984211E+05  0.1393286E+01
  0.1938095E+01  0.2361677E+05  0.2426056E+01  0.2970806E+05 -0.2779154E+01  0.5597077E+05  0.1329500E+01
  0.1969048E+01  0.2866579E+05  0.2413114E+01  0.2837125E+05 -0.2798447E+01  0.5221446E+05  0.1253964E+01
  0.2000000E+01  0.3371785E+05  0.2405150E+01  0.2709240E+05 -0.2816514E+01  0.4863957E+05  0.1163180E+01
