VARIABLES="w (rad/s)"
"abs(F   1   1)" "angle(F   1   1)"
"abs(F   1   2)" "angle(F   1   2)"
"abs(F   1   3)" "angle(F   1   3)"
Zone t="Diffraction force - beta =   0.000 deg",I=    64,F=POINT
  0.5000000E-01  0.1548100E+04 -0.1570794E+01  0.4259420E+03 -0.3079550E+01  0.3340915E+02 -0.1570793E+01
  0.8095238E-01  0.2527267E+04 -0.1570789E+01  0.1099782E+04 -0.3077126E+01  0.5411581E+02 -0.1570788E+01
  0.1119048E+00  0.3524634E+04 -0.1570781E+01  0.2084455E+04 -0.3074324E+01  0.7486805E+02 -0.1570778E+01
  0.1428571E+00  0.4552877E+04 -0.1570770E+01  0.3381117E+04 -0.3070862E+01  0.9806741E+02 -0.1570764E+01
  0.1738095E+00  0.5636321E+04 -0.1570753E+01  0.4996599E+04 -0.3066588E+01  0.1212233E+03 -0.1570742E+01
  0.2047619E+00  0.6771670E+04 -0.1570728E+01  0.6938363E+04 -0.3061279E+01  0.1477532E+03 -0.1570711E+01
  0.2357143E+00  0.7962604E+04 -0.1570692E+01  0.9213172E+04 -0.3054604E+01  0.1738626E+03 -0.1570665E+01
  0.2666667E+00  0.9271425E+04 -0.1570639E+01  0.1183445E+05 -0.3046574E+01  0.2048836E+03 -0.1570598E+01
  0.2976190E+00  0.1067039E+05 -0.1570562E+01  0.1480407E+05 -0.3036455E+01  0.2389401E+03 -0.1570501E+01
  0.3285715E+00  0.1218665E+05 -0.1570446E+01  0.1814365E+05 -0.3024492E+01  0.2756700E+03 -0.1570355E+01
  0.3595238E+00  0.1389136E+05 -0.1570273E+01  0.2182642E+05 -0.3009901E+01  0.3201334E+03 -0.1570140E+01
  0.3904762E+00  0.1577517E+05 -0.1570015E+01  0.2588429E+05 -0.2992799E+01  0.3719902E+03 -0.1569826E+01
  0.4214286E+00  0.1778813E+05 -0.1569636E+01  0.3022047E+05 -0.2973577E+01  0.4186741E+03 -0.1569340E+01
  0.4523810E+00  0.2005973E+05 -0.1569083E+01  0.3489216E+05 -0.2951484E+01  0.4832263E+03 -0.1568665E+01
  0.4833333E+00  0.2259275E+05 -0.1568323E+01  0.3976303E+05 -0.2929147E+01  0.5552012E+03 -0.1567735E+01
  0.5142857E+00  0.2528099E+05 -0.1567264E+01  0.4483002E+05 -0.2904869E+01  0.6352299E+03 -0.1566456E+01
  0.5452381E+00  0.2808869E+05 -0.1565849E+01  0.5008915E+05 -0.2880891E+01  0.7084915E+03 -0.1564676E+01
  0.5761905E+00  0.3114518E+05 -0.1564026E+01  0.5545338E+05 -0.2857283E+01  0.8019485E+03 -0.1562463E+01
  0.6071429E+00  0.3444505E+05 -0.1561695E+01  0.6091530E+05 -0.2833010E+01  0.9160317E+03 -0.1559745E+01
  0.6380953E+00  0.3786930E+05 -0.1558798E+01  0.6649612E+05 -0.2810423E+01  0.1028035E+04 -0.1556290E+01
  0.6690477E+00  0.4127863E+05 -0.1555181E+01  0.7211001E+05 -0.2787981E+01  0.1129798E+04 -0.1551817E+01
  0.7000000E+00  0.4484741E+05 -0.1550770E+01  0.7775988E+05 -0.2765528E+01  0.1257793E+04 -0.1546618E+01
  0.7309524E+00  0.4864086E+05 -0.1545530E+01  0.8344987E+05 -0.2744127E+01  0.1395208E+04 -0.1540451E+01
  0.7619048E+00  0.5256587E+05 -0.1539315E+01  0.8909812E+05 -0.2723009E+01  0.1546112E+04 -0.1533227E+01
  0.7928572E+00  0.5656326E+05 -0.1531992E+01  0.9469059E+05 -0.2702188E+01  0.1717540E+04 -0.1524981E+01
  0.8238096E+00  0.6053799E+05 -0.1523408E+01  0.1002334E+06 -0.2681962E+01  0.1872896E+04 -0.1514883E+01
  0.8547620E+00  0.6443796E+05 -0.1513426E+01  0.1057091E+06 -0.2662420E+01  0.2019182E+04 -0.1502866E+01
  0.8857143E+00  0.6843395E+05 -0.1502089E+01  0.1110681E+06 -0.2643332E+01  0.2195294E+04 -0.1489806E+01
  0.9166667E+00  0.7252673E+05 -0.1489361E+01  0.1163059E+06 -0.2624846E+01  0.2400615E+04 -0.1475756E+01
  0.9476191E+00  0.7663050E+05 -0.1475137E+01  0.1213728E+06 -0.2606798E+01  0.2607549E+04 -0.1459865E+01
  0.9785714E+00  0.8063295E+05 -0.1459273E+01  0.1262533E+06 -0.2589236E+01  0.2813892E+04 -0.1442052E+01
  0.1009524E+01  0.8444868E+05 -0.1441652E+01  0.1309383E+06 -0.2572171E+01  0.3019706E+04 -0.1422179E+01
  0.1040476E+01  0.8793925E+05 -0.1422099E+01  0.1354246E+06 -0.2555715E+01  0.3215412E+04 -0.1399813E+01
  0.1071429E+01  0.9114915E+05 -0.1400697E+01  0.1397156E+06 -0.2540036E+01  0.3415830E+04 -0.1375707E+01
  0.1102381E+01  0.9412679E+05 -0.1377740E+01  0.1437954E+06 -0.2525029E+01  0.3609178E+04 -0.1349817E+01
  0.1133333E+01  0.9677646E+05 -0.1353232E+01  0.1476169E+06 -0.2510404E+01  0.3792099E+04 -0.1322238E+01
  0.1164286E+01  0.9903668E+05 -0.1327220E+01  0.1511882E+06 -0.2496325E+01  0.3975226E+04 -0.1293073E+01
  0.1195238E+01  0.1007703E+06 -0.1299591E+01  0.1544881E+06 -0.2482692E+01  0.4154783E+04 -0.1262582E+01
  0.1226190E+01  0.1019673E+06 -0.1270514E+01  0.1575335E+06 -0.2469792E+01  0.4325254E+04 -0.1231009E+01
  0.1257143E+01  0.1025516E+06 -0.1239953E+01  0.1603412E+06 -0.2457303E+01  0.4463781E+04 -0.1197566E+01
  0.1288095E+01  0.1025223E+06 -0.1208997E+01  0.1627902E+06 -0.2445617E+01  0.4567820E+04 -0.1163135E+01
  0.1319048E+01  0.1017797E+06 -0.1176854E+01  0.1649818E+06 -0.2434206E+01  0.4629186E+04 -0.1126492E+01
  0.1350000E+01  0.1003192E+06 -0.1143951E+01  0.1668759E+06 -0.2423230E+01  0.4672359E+04 -0.1089287E+01
  0.1380952E+01  0.9811589E+05 -0.1110363E+01  0.1684765E+06 -0.2412961E+01  0.4690817E+04 -0.1052294E+01
  0.1411905E+01  0.9462853E+05 -0.1076602E+01  0.1696275E+06 -0.2402735E+01  0.4604234E+04 -0.1011375E+01
  0.1442857E+01  0.9099630E+05 -0.1042571E+01  0.1706382E+06 -0.2393518E+01  0.4547455E+04 -0.9743308E+00
  0.1473810E+01  0.8665580E+05 -0.1008409E+01  0.1713423E+06 -0.2384792E+01  0.4435412E+04 -0.9358637E+00
  0.1504762E+01  0.8160418E+05 -0.9739212E+00  0.1717507E+06 -0.2376513E+01  0.4266244E+04 -0.8949028E+00
  0.1535714E+01  0.7591462E+05 -0.9394068E+00  0.1718609E+06 -0.2368768E+01  0.4059608E+04 -0.8546283E+00
  0.1566667E+01  0.6961814E+05 -0.9046850E+00  0.1716650E+06 -0.2361281E+01  0.3819103E+04 -0.8155288E+00
  0.1597619E+01  0.6277114E+05 -0.8694623E+00  0.1711825E+06 -0.2354407E+01  0.3533312E+04 -0.7761666E+00
  0.1628572E+01  0.5542198E+05 -0.8332131E+00  0.1704097E+06 -0.2348083E+01  0.3203674E+04 -0.7348748E+00
  0.1659524E+01  0.4765637E+05 -0.7953039E+00  0.1693380E+06 -0.2342400E+01  0.2826936E+04 -0.6903021E+00
  0.1690476E+01  0.3952401E+05 -0.7537952E+00  0.1679687E+06 -0.2337260E+01  0.2396966E+04 -0.6375746E+00
  0.1721429E+01  0.3107713E+05 -0.7042718E+00  0.1663205E+06 -0.2332590E+01  0.1916951E+04 -0.5701899E+00
  0.1752381E+01  0.2239680E+05 -0.6362312E+00  0.1644016E+06 -0.2328429E+01  0.1400890E+04 -0.4708974E+00
  0.1783333E+01  0.1361604E+05 -0.5115107E+00  0.1622070E+06 -0.2324742E+01  0.8697651E+03 -0.2796448E+00
  0.1814286E+01  0.5327406E+04 -0.4145164E-01  0.1597510E+06 -0.2321423E+01  0.4059395E+03  0.3638811E+00
  0.1845238E+01  0.6196714E+04  0.1827532E+01  0.1570358E+06 -0.2318828E+01  0.5363571E+03  0.1803011E+01
  0.1876190E+01  0.1481542E+05  0.2202786E+01  0.1540640E+06 -0.2316949E+01  0.1111501E+04  0.2214578E+01
  0.1907143E+01  0.2390780E+05  0.2312020E+01  0.1508390E+06 -0.2315849E+01  0.1775115E+04  0.2355015E+01
  0.1938095E+01  0.3303996E+05  0.2370107E+01  0.1473606E+06 -0.2315468E+01  0.2480628E+04  0.2431289E+01
  0.1969048E+01  0.4211042E+05  0.2409504E+01  0.1436375E+06 -0.2315931E+01  0.3219770E+04  0.2482186E+01
  0.2000000E+01  0.5105528E+05  0.2440144E+01  0.1396960E+06 -0.2317131E+01  0.3988998E+04  0.2520591E+01
