VARIABLES="w (rad/s)"
"abs(F   1   1)" "angle(F   1   1)"
"abs(F   1   2)" "angle(F   1   2)"
"abs(F   1   3)" "angle(F   1   3)"
Zone t="Diffraction force - beta =   0.000 deg",I=    64,F=POINT
  0.5000000E-01  0.1679260E+04 -0.1570828E+01  0.2784997E+06 -0.1901093E-04  0.1247928E+04  0.1570855E+01
  0.8095238E-01  0.2743118E+04 -0.1570774E+01  0.2780828E+06 -0.5115793E-04  0.2040987E+04  0.1570798E+01
  0.1119048E+00  0.3828836E+04 -0.1570790E+01  0.2774698E+06 -0.1016301E-03  0.2846507E+04  0.1570801E+01
  0.1428571E+00  0.4950113E+04 -0.1570794E+01  0.2766605E+06 -0.1743476E-03  0.3672978E+04  0.1570806E+01
  0.1738095E+00  0.6120394E+04 -0.1570794E+01  0.2756538E+06 -0.2752648E-03  0.4528557E+04  0.1570805E+01
  0.2047619E+00  0.7351079E+04 -0.1570787E+01  0.2744469E+06 -0.4129068E-03  0.5421857E+04  0.1570810E+01
  0.2357143E+00  0.8654392E+04 -0.1570785E+01  0.2730381E+06 -0.6000124E-03  0.6364717E+04  0.1570809E+01
  0.2666667E+00  0.1005937E+05 -0.1570773E+01  0.2714270E+06 -0.8521415E-03  0.7367026E+04  0.1570821E+01
  0.2976190E+00  0.1158235E+05 -0.1570765E+01  0.2696078E+06 -0.1195406E-02  0.8439676E+04  0.1570832E+01
  0.3285715E+00  0.1323197E+05 -0.1570750E+01  0.2675808E+06 -0.1656986E-02  0.9605084E+04  0.1570846E+01
  0.3595238E+00  0.1505777E+05 -0.1570728E+01  0.2653529E+06 -0.2279453E-02  0.1086781E+05  0.1570868E+01
  0.3904762E+00  0.1707563E+05 -0.1570691E+01  0.2629171E+06 -0.3111140E-02  0.1224193E+05  0.1570901E+01
  0.4214286E+00  0.1929280E+05 -0.1570643E+01  0.2602890E+06 -0.4183655E-02  0.1374932E+05  0.1570950E+01
  0.4523810E+00  0.2172783E+05 -0.1570568E+01  0.2574738E+06 -0.5580530E-02  0.1537468E+05  0.1571026E+01
  0.4833333E+00  0.2440690E+05 -0.1570465E+01  0.2544987E+06 -0.7270085E-02  0.1712367E+05  0.1571129E+01
  0.5142857E+00  0.2728402E+05 -0.1570321E+01  0.2513646E+06 -0.9347853E-02  0.1899796E+05  0.1571273E+01
  0.5452381E+00  0.3034905E+05 -0.1570131E+01  0.2480712E+06 -0.1178892E-01  0.2096516E+05  0.1571463E+01
  0.5761905E+00  0.3361098E+05 -0.1569881E+01  0.2446490E+06 -0.1460610E-01  0.2300707E+05  0.1571714E+01
  0.6071429E+00  0.3705227E+05 -0.1569558E+01  0.2411155E+06 -0.1787956E-01  0.2511302E+05  0.1572035E+01
  0.6380953E+00  0.4064016E+05 -0.1569156E+01  0.2374473E+06 -0.2154291E-01  0.2725600E+05  0.1572436E+01
  0.6690477E+00  0.4433605E+05 -0.1568654E+01  0.2336659E+06 -0.2567498E-01  0.2945500E+05  0.1572938E+01
  0.7000000E+00  0.4815367E+05 -0.1568037E+01  0.2297918E+06 -0.3032947E-01  0.3165401E+05  0.1573556E+01
  0.7309524E+00  0.5210977E+05 -0.1567292E+01  0.2258270E+06 -0.3548181E-01  0.3382705E+05  0.1574300E+01
  0.7619048E+00  0.5619493E+05 -0.1566399E+01  0.2217970E+06 -0.4118039E-01  0.3602732E+05  0.1575195E+01
  0.7928572E+00  0.6035367E+05 -0.1565335E+01  0.2177101E+06 -0.4745659E-01  0.3819680E+05  0.1576259E+01
  0.8238096E+00  0.6458956E+05 -0.1564082E+01  0.2135570E+06 -0.5432263E-01  0.4035504E+05  0.1577511E+01
  0.8547620E+00  0.6889217E+05 -0.1562622E+01  0.2093472E+06 -0.6179773E-01  0.4246079E+05  0.1578972E+01
  0.8857143E+00  0.7326552E+05 -0.1560934E+01  0.2051089E+06 -0.6990623E-01  0.4452048E+05  0.1580659E+01
  0.9166667E+00  0.7770391E+05 -0.1558999E+01  0.2008617E+06 -0.7866833E-01  0.4648733E+05  0.1582596E+01
  0.9476191E+00  0.8221552E+05 -0.1556798E+01  0.1966167E+06 -0.8809309E-01  0.4839990E+05  0.1584799E+01
  0.9785714E+00  0.8677066E+05 -0.1554311E+01  0.1923715E+06 -0.9818519E-01  0.5022070E+05  0.1587289E+01
  0.1009524E+01  0.9133855E+05 -0.1551522E+01  0.1881277E+06 -0.1089502E+00  0.5198038E+05  0.1590078E+01
  0.1040476E+01  0.9586155E+05 -0.1548414E+01  0.1838948E+06 -0.1204086E+00  0.5362321E+05  0.1593185E+01
  0.1071429E+01  0.1003748E+06 -0.1544980E+01  0.1796729E+06 -0.1325641E+00  0.5516620E+05  0.1596616E+01
  0.1102381E+01  0.1048600E+06 -0.1541219E+01  0.1754817E+06 -0.1454419E+00  0.5653549E+05  0.1600375E+01
  0.1133333E+01  0.1093334E+06 -0.1537136E+01  0.1713340E+06 -0.1590434E+00  0.5775712E+05  0.1604464E+01
  0.1164286E+01  0.1137633E+06 -0.1532728E+01  0.1672369E+06 -0.1733725E+00  0.5886209E+05  0.1608884E+01
  0.1195238E+01  0.1180895E+06 -0.1528001E+01  0.1632079E+06 -0.1884421E+00  0.5979726E+05  0.1613630E+01
  0.1226190E+01  0.1223207E+06 -0.1522968E+01  0.1592281E+06 -0.2042278E+00  0.6058590E+05  0.1618679E+01
  0.1257143E+01  0.1263974E+06 -0.1517631E+01  0.1552998E+06 -0.2209005E+00  0.6120584E+05  0.1624026E+01
  0.1288095E+01  0.1303626E+06 -0.1512089E+01  0.1514206E+06 -0.2379279E+00  0.6162834E+05  0.1629561E+01
  0.1319048E+01  0.1341145E+06 -0.1506311E+01  0.1475957E+06 -0.2558537E+00  0.6187502E+05  0.1635303E+01
  0.1350000E+01  0.1376529E+06 -0.1500370E+01  0.1438311E+06 -0.2745216E+00  0.6195460E+05  0.1641205E+01
  0.1380952E+01  0.1409549E+06 -0.1494337E+01  0.1401338E+06 -0.2939219E+00  0.6178631E+05  0.1647188E+01
  0.1411905E+01  0.1435075E+06 -0.1489270E+01  0.1368016E+06 -0.3118961E+00  0.6143965E+05  0.1652229E+01
  0.1442857E+01  0.1463544E+06 -0.1483342E+01  0.1332601E+06 -0.3326505E+00  0.6091407E+05  0.1658140E+01
  0.1473810E+01  0.1489038E+06 -0.1477535E+01  0.1298042E+06 -0.3541484E+00  0.6015654E+05  0.1663918E+01
  0.1504762E+01  0.1511838E+06 -0.1471941E+01  0.1264173E+06 -0.3763556E+00  0.5923657E+05  0.1669471E+01
  0.1535714E+01  0.1531670E+06 -0.1466656E+01  0.1231077E+06 -0.3992611E+00  0.5815721E+05  0.1674688E+01
  0.1566667E+01  0.1548225E+06 -0.1461758E+01  0.1198701E+06 -0.4229063E+00  0.5692049E+05  0.1679546E+01
  0.1597619E+01  0.1561335E+06 -0.1457377E+01  0.1167163E+06 -0.4472480E+00  0.5545680E+05  0.1683823E+01
  0.1628572E+01  0.1571442E+06 -0.1453604E+01  0.1136280E+06 -0.4723534E+00  0.5387145E+05  0.1687549E+01
  0.1659524E+01  0.1578521E+06 -0.1450543E+01  0.1106102E+06 -0.4981710E+00  0.5216694E+05  0.1690571E+01
  0.1690476E+01  0.1582146E+06 -0.1448285E+01  0.1076774E+06 -0.5246896E+00  0.5029213E+05  0.1692720E+01
  0.1721429E+01  0.1582849E+06 -0.1446931E+01  0.1048026E+06 -0.5519096E+00  0.4832550E+05  0.1693985E+01
  0.1752381E+01  0.1580552E+06 -0.1446576E+01  0.1020074E+06 -0.5798315E+00  0.4626596E+05  0.1694204E+01
  0.1783333E+01  0.1575426E+06 -0.1447271E+01  0.9928477E+05 -0.6085078E+00  0.4415752E+05  0.1693407E+01
  0.1814286E+01  0.1567540E+06 -0.1449097E+01  0.9663675E+05 -0.6379368E+00  0.4199148E+05  0.1691545E+01
  0.1845238E+01  0.1556938E+06 -0.1452148E+01  0.9407960E+05 -0.6680351E+00  0.3973959E+05  0.1688247E+01
  0.1876190E+01  0.1544160E+06 -0.1456449E+01  0.9158441E+05 -0.6989014E+00  0.3748870E+05  0.1683815E+01
  0.1907143E+01  0.1529403E+06 -0.1462059E+01  0.8915126E+05 -0.7305032E+00  0.3523853E+05  0.1678109E+01
  0.1938095E+01  0.1512638E+06 -0.1469041E+01  0.8679057E+05 -0.7627628E+00  0.3296721E+05  0.1670929E+01
  0.1969048E+01  0.1494165E+06 -0.1477418E+01  0.8448953E+05 -0.7956644E+00  0.3070208E+05  0.1662332E+01
  0.2000000E+01  0.1474268E+06 -0.1487209E+01  0.8223336E+05 -0.8292225E+00  0.2846603E+05  0.1652356E+01
