VARIABLES="w (rad/s)"
"A   1   1" "B   1   1"
"A   1   2" "B   1   2"
"A   1   3" "B   1   3"
Zone t="Motion of body    1 in DoF   1",I=    64,F=POINT
  0.5000000E-01  0.3432947E+05  0.2668023E-02 -0.1525879E-03  0.5158628E-05 -0.4815018E+05 -0.2011500E-02
  0.8095238E-01  0.3457282E+05  0.1168413E-01  0.8482091E-03  0.3313893E-05 -0.4841721E+05 -0.8764477E-02
  0.1119048E+00  0.3462871E+05  0.3278887E-01  0.1687395E-02  0.1365651E-04 -0.4850568E+05 -0.2461868E-01
  0.1428571E+00  0.3469782E+05  0.7383773E-01  0.1762390E-02  0.2462952E-04 -0.4860091E+05 -0.5559815E-01
  0.1738095E+00  0.3479307E+05  0.1470436E+00 -0.7242699E-03 -0.2146163E-04 -0.4868126E+05 -0.1110804E+00
  0.2047619E+00  0.3482707E+05  0.2713448E+00  0.5030077E-03  0.8976087E-05 -0.4873554E+05 -0.2058061E+00
  0.2357143E+00  0.3490757E+05  0.4778389E+00 -0.5826083E-03 -0.1564808E-04 -0.4879634E+05 -0.3634599E+00
  0.2666667E+00  0.3498366E+05  0.8150353E+00  0.3032684E-02  0.7635634E-04 -0.4888210E+05 -0.6219922E+00
  0.2976190E+00  0.3504571E+05  0.1366602E+01  0.2666016E-02  0.8789822E-04 -0.4894196E+05 -0.1047246E+01
  0.3285715E+00  0.3507869E+05  0.2260088E+01  0.3181126E-02  0.1468919E-03 -0.4897887E+05 -0.1740661E+01
  0.3595238E+00  0.3528873E+05  0.3713599E+01 -0.1485458E-02 -0.1621470E-03 -0.4917340E+05 -0.2874744E+01
  0.3904762E+00  0.3537823E+05  0.6051885E+01 -0.8597024E-03 -0.1699477E-04 -0.4926051E+05 -0.4710500E+01
  0.4214286E+00  0.3546573E+05  0.9731046E+01  0.8689750E-03  0.7395446E-04 -0.4932645E+05 -0.7618648E+01
  0.4523810E+00  0.3561305E+05  0.1551375E+02 -0.1096223E-02  0.1227856E-04 -0.4948785E+05 -0.1221877E+02
  0.4833333E+00  0.3583389E+05  0.2413459E+02 -0.1199657E-02 -0.2000630E-03 -0.4967838E+05 -0.1913499E+02
  0.5142857E+00  0.3600550E+05  0.3691347E+02 -0.2017551E-02 -0.3201962E-03 -0.4983111E+05 -0.2945993E+02
  0.5452381E+00  0.3608025E+05  0.5506933E+02 -0.1119422E-03  0.3999472E-04 -0.4994213E+05 -0.4427797E+02
  0.5761905E+00  0.3637254E+05  0.8030810E+02  0.1509485E-02 -0.1356602E-03 -0.5023304E+05 -0.6503262E+02
  0.6071429E+00  0.3664012E+05  0.1149314E+03  0.2513212E-02  0.6142855E-03 -0.5046834E+05 -0.9373779E+02
  0.6380953E+00  0.3687846E+05  0.1608070E+03  0.2773911E-02  0.6477833E-03 -0.5070219E+05 -0.1321933E+03
  0.6690477E+00  0.3712625E+05  0.2211311E+03 -0.4698186E-02 -0.1242876E-02 -0.5095301E+05 -0.1832677E+03
  0.7000000E+00  0.3730320E+05  0.2992589E+03 -0.3705706E-03 -0.4968643E-03 -0.5111919E+05 -0.2499437E+03
  0.7309524E+00  0.3767896E+05  0.3988134E+03  0.1649142E-02  0.7429123E-03 -0.5152880E+05 -0.3356710E+03
  0.7619048E+00  0.3809461E+05  0.5246801E+03 -0.2022743E-02 -0.4444122E-03 -0.5190574E+05 -0.4450289E+03
  0.7928572E+00  0.3843405E+05  0.6815388E+03 -0.4041517E-03 -0.6246567E-03 -0.5223902E+05 -0.5829579E+03
  0.8238096E+00  0.3875281E+05  0.8751129E+03 -0.2037445E-02 -0.9508133E-03 -0.5259266E+05 -0.7553276E+03
  0.8547620E+00  0.3905116E+05  0.1111369E+04  0.3088311E-02  0.1117706E-02 -0.5288231E+05 -0.9677828E+03
  0.8857143E+00  0.3943332E+05  0.1396691E+04  0.2653060E-02  0.1417160E-02 -0.5329312E+05 -0.1225830E+04
  0.9166667E+00  0.3987611E+05  0.1736195E+04  0.6325461E-03 -0.9536743E-05 -0.5373184E+05 -0.1533905E+04
  0.9476191E+00  0.4030675E+05  0.2139696E+04  0.3220448E-04  0.5264282E-03 -0.5419631E+05 -0.1905573E+04
  0.9785714E+00  0.4071690E+05  0.2614887E+04 -0.1122691E-02 -0.3089905E-02 -0.5462757E+05 -0.2349409E+04
  0.1009524E+01  0.4114056E+05  0.3170390E+04 -0.5441342E-03  0.7820129E-03 -0.5504099E+05 -0.2871930E+04
  0.1040476E+01  0.4151222E+05  0.3813864E+04  0.3812951E-03 -0.1205444E-02 -0.5548954E+05 -0.3487010E+04
  0.1071429E+01  0.4181082E+05  0.4551935E+04 -0.5696615E-03 -0.1060486E-02 -0.5579626E+05 -0.4196992E+04
  0.1102381E+01  0.4209618E+05  0.5392658E+04  0.2076250E-02  0.2754211E-02 -0.5621043E+05 -0.5018823E+04
  0.1133333E+01  0.4241820E+05  0.6322803E+04  0.9963092E-03  0.2258301E-02 -0.5653970E+05 -0.5914967E+04
  0.1164286E+01  0.4274046E+05  0.7366712E+04  0.1546473E-02  0.7476807E-03 -0.5688212E+05 -0.6937048E+04
  0.1195238E+01  0.4298844E+05  0.8525831E+04  0.2042611E-03  0.4043579E-03 -0.5720095E+05 -0.8085923E+04
  0.1226190E+01  0.4312975E+05  0.9800931E+04  0.1991050E-03 -0.2052307E-02 -0.5737148E+05 -0.9365539E+04
  0.1257143E+01  0.4316854E+05  0.1119548E+05  0.1359419E-02 -0.2288818E-02 -0.5749417E+05 -0.1078522E+05
  0.1288095E+01  0.4320342E+05  0.1268411E+05 -0.1089833E-02  0.4730225E-03 -0.5761473E+05 -0.1230276E+05
  0.1319048E+01  0.4315886E+05  0.1425067E+05 -0.1017987E-02 -0.1815796E-02 -0.5758979E+05 -0.1389419E+05
  0.1350000E+01  0.4306272E+05  0.1591807E+05  0.6781684E-04  0.1083374E-02 -0.5753059E+05 -0.1560612E+05
  0.1380952E+01  0.4283639E+05  0.1766812E+05  0.5082755E-03  0.1632690E-02 -0.5739057E+05 -0.1743384E+05
  0.1411905E+01  0.4241361E+05  0.1948194E+05  0.1945303E-03  0.1098633E-02 -0.5702685E+05 -0.1935040E+05
  0.1442857E+01  0.4198025E+05  0.2132458E+05  0.2115080E-04 -0.5493164E-03 -0.5664171E+05 -0.2129356E+05
  0.1473810E+01  0.4149134E+05  0.2317768E+05 -0.4141319E-03 -0.1495361E-02 -0.5623887E+05 -0.2326627E+05
  0.1504762E+01  0.4087565E+05  0.2503615E+05  0.1419647E-02 -0.8544922E-03 -0.5562028E+05 -0.2526823E+05
  0.1535714E+01  0.4019336E+05  0.2688851E+05 -0.2980786E-03  0.2105713E-02 -0.5490880E+05 -0.2726015E+05
  0.1566667E+01  0.3945982E+05  0.2870943E+05  0.5454205E-03 -0.6103516E-04 -0.5417478E+05 -0.2922843E+05
  0.1597619E+01  0.3864294E+05  0.3043046E+05 -0.3820382E-04  0.3051758E-03 -0.5337431E+05 -0.3109887E+05
  0.1628572E+01  0.3774332E+05  0.3206938E+05  0.3560384E-03  0.1831055E-03 -0.5242019E+05 -0.3288073E+05
  0.1659524E+01  0.3678673E+05  0.3362517E+05 -0.5149020E-03  0.4577637E-02 -0.5141607E+05 -0.3460726E+05
  0.1690476E+01  0.3580572E+05  0.3508426E+05  0.3610530E-03  0.1342773E-02 -0.5044474E+05 -0.3628546E+05
  0.1721429E+01  0.3481707E+05  0.3638619E+05  0.2304647E-03  0.1373291E-02 -0.4941514E+05 -0.3775282E+05
  0.1752381E+01  0.3381260E+05  0.3755092E+05  0.1741492E-03  0.1831055E-03 -0.4831667E+05 -0.3906835E+05
  0.1783333E+01  0.3281711E+05  0.3859346E+05 -0.2909152E-03  0.2441406E-02 -0.4722870E+05 -0.4021909E+05
  0.1814286E+01  0.3185023E+05  0.3951249E+05  0.5887249E-04  0.5493164E-03 -0.4621340E+05 -0.4126057E+05
  0.1845238E+01  0.3089095E+05  0.4027493E+05  0.1075006E-03  0.4272461E-03 -0.4520482E+05 -0.4215004E+05
  0.1876190E+01  0.2993172E+05  0.4087626E+05 -0.5855658E-03 -0.2380371E-02 -0.4413802E+05 -0.4282860E+05
  0.1907143E+01  0.2899042E+05  0.4133524E+05 -0.3600389E-03  0.1129150E-02 -0.4307803E+05 -0.4334439E+05
  0.1938095E+01  0.2811617E+05  0.4169108E+05 -0.5747352E-03  0.8544922E-03 -0.4215970E+05 -0.4383146E+05
  0.1969048E+01  0.2729928E+05  0.4192412E+05  0.1394878E-03 -0.5187988E-03 -0.4129704E+05 -0.4418892E+05
  0.2000000E+01  0.2649423E+05  0.4199066E+05  0.4577637E-03 -0.1037598E-02 -0.4036764E+05 -0.4429302E+05
Zone t="Motion of body    1 in DoF   2",I=    64,F=POINT
  0.5000000E-01  0.9155273E-03  0.5245209E-05  0.4619652E+05  0.7550724E+02  0.8544922E-02 -0.4196167E-04
  0.8095238E-01 -0.2356136E-04 -0.8821487E-05  0.4586642E+05  0.1251004E+03  0.3958309E-02 -0.3719330E-04
  0.1119048E+00 -0.1227196E-02  0.1382828E-04  0.4565277E+05  0.1789301E+03  0.8726729E-02 -0.4577637E-04
  0.1428571E+00  0.8811950E-03 -0.1144409E-04  0.4555257E+05  0.2390417E+03 -0.1068115E-02 -0.5531311E-04
  0.1738095E+00  0.3314083E-02  0.1239777E-04  0.4554162E+05  0.3077693E+03  0.7023223E-03  0.1907349E-04
  0.2047619E+00 -0.2235590E-03  0.2098083E-04  0.4552993E+05  0.3883687E+03  0.3576944E-02  0.1525879E-04
  0.2357143E+00 -0.3884055E-03  0.1621246E-04  0.4555195E+05  0.4850865E+03  0.9839606E-02 -0.3051758E-04
  0.2666667E+00  0.1716614E-03  0.6675720E-04  0.4566850E+05  0.6013257E+03 -0.2288818E-02 -0.2212524E-03
  0.2976190E+00 -0.1614990E-02 -0.3242493E-04  0.4570163E+05  0.7455950E+03 -0.1640625E-02  0.3051758E-04
  0.3285715E+00 -0.6037172E-03 -0.4005432E-04  0.4585078E+05  0.9214515E+03 -0.3715183E-03  0.2288818E-04
  0.3595238E+00  0.9761582E-03 -0.1335144E-04  0.4589040E+05  0.1138892E+04 -0.1358133E-02  0.1678467E-03
  0.3904762E+00  0.1563095E-03  0.2288818E-04  0.4598270E+05  0.1404107E+04 -0.9378572E-03  0.2288818E-04
  0.4214286E+00 -0.1375877E-02  0.6484985E-04  0.4598493E+05  0.1713862E+04  0.2896583E-03 -0.3967285E-03
  0.4523810E+00  0.1214278E-02 -0.9536743E-04  0.4591469E+05  0.2084729E+04  0.6206311E-02 -0.6103516E-04
  0.4833333E+00 -0.1641635E-02 -0.0000000E+00  0.4587232E+05  0.2480644E+04  0.2273033E-02 -0.2746582E-03
  0.5142857E+00  0.1898872E-02  0.1831055E-03  0.4556620E+05  0.2924659E+04 -0.2373590E-03  0.2136230E-03
  0.5452381E+00 -0.5876966E-03  0.1449585E-03  0.4537930E+05  0.3387087E+04  0.6044880E-02 -0.0000000E+00
  0.5761905E+00  0.8474302E-03  0.7629395E-05  0.4500685E+05  0.3859030E+04 -0.3177863E-02  0.8544922E-03
  0.6071429E+00  0.7539636E-04  0.1602173E-03  0.4457231E+05  0.4354592E+04  0.4825367E-02  0.6408691E-03
  0.6380953E+00  0.1554347E-02 -0.4119873E-03  0.4429278E+05  0.4832935E+04 -0.1147825E-02  0.4577637E-03
  0.6690477E+00  0.8438490E-03  0.2441406E-03  0.4374642E+05  0.5315527E+04  0.1459631E-02 -0.3662109E-03
  0.7000000E+00 -0.1024519E-02 -0.9155273E-04  0.4321695E+05  0.5799045E+04  0.3487723E-03 -0.1403809E-02
  0.7309524E+00 -0.1022886E-02  0.3662109E-03  0.4282110E+05  0.6261034E+04 -0.6012062E-02 -0.8544922E-03
  0.7619048E+00  0.2403259E-03 -0.7324219E-03  0.4226363E+05  0.6710045E+04  0.7690429E-02 -0.2197266E-02
  0.7928572E+00 -0.1674343E-02 -0.3967285E-03  0.4167154E+05  0.7143016E+04  0.1231700E-02  0.3173828E-02
  0.8238096E+00 -0.3704446E-03  0.6103516E-03  0.4115453E+05  0.7551708E+04  0.4148979E-02 -0.6713867E-03
  0.8547620E+00  0.5533967E-03 -0.1831055E-03  0.4074504E+05  0.7923955E+04 -0.9996844E-02 -0.2258301E-02
  0.8857143E+00 -0.1205937E-02  0.5798340E-03  0.4007858E+05  0.8274320E+04 -0.3307712E-02  0.3112793E-02
  0.9166667E+00 -0.4161488E-03  0.1129150E-02  0.3950096E+05  0.8588072E+04  0.2929688E-02  0.9155273E-03
  0.9476191E+00  0.1433099E-02  0.9155273E-04  0.3898760E+05  0.8866443E+04  0.6440896E-02  0.1098633E-02
  0.9785714E+00  0.6393099E-03  0.6408691E-03  0.3856766E+05  0.9099563E+04 -0.2494868E-03 -0.2807617E-02
  0.1009524E+01 -0.2720671E-03  0.6103516E-03  0.3801213E+05  0.9290771E+04  0.1692862E-02 -0.1281738E-02
  0.1040476E+01  0.1393194E-02 -0.2075195E-02  0.3745990E+05  0.9446936E+04  0.4692863E-03  0.2441406E-03
  0.1071429E+01  0.2335612E-02  0.8239746E-03  0.3695696E+05  0.9555645E+04 -0.5013021E-02  0.1770020E-02
  0.1102381E+01 -0.1813258E-02  0.1525879E-02  0.3656101E+05  0.9631026E+04 -0.1328800E-02 -0.1525879E-02
  0.1133333E+01 -0.6731819E-03  0.6103516E-04  0.3625152E+05  0.9658865E+04  0.1938764E-02  0.1953125E-02
  0.1164286E+01 -0.8846353E-03  0.1159668E-02  0.3579379E+05  0.9634456E+04 -0.3564752E-02 -0.1342773E-02
  0.1195238E+01 -0.9319411E-03  0.3173828E-02  0.3536020E+05  0.9580000E+04  0.4493744E-02 -0.5004883E-02
  0.1226190E+01  0.5039845E-03 -0.6713867E-03  0.3497967E+05  0.9481346E+04  0.7964199E-03 -0.1647949E-02
  0.1257143E+01 -0.1687136E-02 -0.8239746E-03  0.3468271E+05  0.9366143E+04  0.5437677E-02  0.3417969E-02
  0.1288095E+01 -0.8055287E-03  0.4272461E-03  0.3447698E+05  0.9222459E+04 -0.3790723E-02 -0.3112793E-02
  0.1319048E+01  0.1085588E-02  0.2441406E-03  0.3433212E+05  0.9046476E+04  0.1110531E-01  0.1464844E-02
  0.1350000E+01 -0.5368833E-03  0.2868652E-02  0.3398545E+05  0.8789787E+04  0.5606192E-02 -0.6408691E-02
  0.1380952E+01 -0.1665707E-02 -0.4272461E-02  0.3374040E+05  0.8537106E+04 -0.8839574E-03  0.5493164E-03
  0.1411905E+01  0.1015880E-02  0.7934570E-03  0.3352999E+05  0.8253739E+04  0.2247905E-02  0.4516602E-02
  0.1442857E+01 -0.3066866E-03 -0.1617432E-02  0.3338800E+05  0.7979407E+04  0.1522857E-02 -0.1647949E-02
  0.1473810E+01 -0.7661440E-03  0.1037598E-02  0.3332054E+05  0.7719932E+04  0.6626110E-03 -0.1037598E-02
  0.1504762E+01 -0.3549117E-03 -0.2532959E-02  0.3331644E+05  0.7455446E+04 -0.1784699E-02  0.5859375E-02
  0.1535714E+01  0.5464775E-03  0.4882812E-03  0.3325956E+05  0.7124823E+04  0.3497456E-02 -0.2136230E-02
  0.1566667E+01  0.3506275E-03 -0.0000000E+00  0.3311416E+05  0.6727214E+04  0.6233377E-03  0.3540039E-02
  0.1597619E+01  0.8882389E-03  0.2624512E-02  0.3304321E+05  0.6368251E+04  0.3820382E-02 -0.3967285E-02
  0.1628572E+01  0.8432489E-04  0.2227783E-02  0.3300078E+05  0.5998302E+04  0.2998218E-02 -0.4882812E-03
  0.1659524E+01 -0.2666457E-03 -0.1068115E-02  0.3299637E+05  0.5662671E+04  0.5884594E-03 -0.5798340E-03
  0.1690476E+01  0.5596321E-03  0.2746582E-03  0.3303981E+05  0.5380943E+04  0.4332636E-02  0.1281738E-02
  0.1721429E+01  0.3545611E-04  0.2136230E-03  0.3312103E+05  0.5126102E+04  0.3120138E-02 -0.4028320E-02
  0.1752381E+01  0.1306119E-03  0.4882812E-03  0.3323985E+05  0.4904831E+04 -0.4179582E-03 -0.2258301E-02
  0.1783333E+01  0.5133798E-03  0.1068115E-02  0.3324811E+05  0.4488065E+04  0.6845064E-03 -0.1525879E-03
  0.1814286E+01  0.6560078E-03 -0.6713867E-03  0.3325723E+05  0.4088135E+04 -0.5382628E-03 -0.2075195E-02
  0.1845238E+01  0.1091545E-02  0.3784180E-02  0.3330584E+05  0.3751196E+04  0.2646169E-02 -0.7171631E-02
  0.1876190E+01  0.9434114E-03 -0.2197266E-02  0.3337052E+05  0.3420622E+04  0.5205029E-03  0.4821777E-02
  0.1907143E+01  0.8000863E-04 -0.9765625E-03  0.3344674E+05  0.3125224E+04  0.1152124E-02 -0.4882812E-03
  0.1938095E+01  0.4094004E-03  0.7934570E-03  0.3353953E+05  0.2908978E+04  0.0000000E+00 -0.3662109E-03
  0.1969048E+01 -0.3409703E-03 -0.1480103E-02  0.3364484E+05  0.2728821E+04 -0.1115903E-02  0.2182007E-02
  0.2000000E+01  0.2441406E-03  0.7171631E-03  0.3376352E+05  0.2578172E+04  0.3906250E-02  0.1678467E-03
Zone t="Motion of body    1 in DoF   3",I=    64,F=POINT
  0.5000000E-01 -0.4822380E+05 -0.1988459E-02  0.5722046E-02  0.4470166E-06  0.1949191E+06  0.1547935E-02
  0.8095238E-01 -0.4849313E+05 -0.8763388E-02  0.1357135E-01  0.3012792E-04  0.1954479E+06  0.6671513E-02
  0.1119048E+00 -0.4857872E+05 -0.2455959E-01 -0.1677168E-01 -0.9267629E-04  0.1954834E+06  0.1840844E-01
  0.1428571E+00 -0.4867499E+05 -0.5546580E-01 -0.8651733E-02 -0.1063357E-03  0.1956648E+06  0.4161126E-01
  0.1738095E+00 -0.4874087E+05 -0.1107597E+00 -0.2458128E-02 -0.7984065E-04  0.1957842E+06  0.8369173E-01
  0.2047619E+00 -0.4881445E+05 -0.2051989E+00  0.7451967E-04 -0.6728363E-04  0.1959174E+06  0.1561978E+00
  0.2357143E+00 -0.4887900E+05 -0.3623704E+00  0.5372943E-02  0.9114342E-04  0.1958680E+06  0.2756861E+00
  0.2666667E+00 -0.4894978E+05 -0.6199896E+00 -0.1430511E-01 -0.3579548E-03  0.1961214E+06  0.4727611E+00
  0.2976190E+00 -0.4902155E+05 -0.1043628E+01 -0.1343262E-01 -0.9615906E-04  0.1959919E+06  0.8004186E+00
  0.3285715E+00 -0.4904417E+05 -0.1735008E+01 -0.7709004E-02 -0.3562495E-03  0.1962226E+06  0.1338471E+01
  0.3595238E+00 -0.4926502E+05 -0.2865035E+01  0.7639499E-02  0.3615655E-03  0.1962273E+06  0.2219475E+01
  0.3904762E+00 -0.4935758E+05 -0.4694035E+01 -0.6408691E-02 -0.1633242E-03  0.1964325E+06  0.3655418E+01
  0.4214286E+00 -0.4939847E+05 -0.7593148E+01 -0.1231048E-01 -0.6331503E-03  0.1964002E+06  0.5945859E+01
  0.4523810E+00 -0.4957895E+05 -0.1217322E+02  0.1956337E-02 -0.5792081E-04  0.1964820E+06  0.9583651E+01
  0.4833333E+00 -0.4972954E+05 -0.1906575E+02  0.7703057E-02  0.6455183E-04  0.1968894E+06  0.1511316E+02
  0.5142857E+00 -0.4991718E+05 -0.2935122E+02  0.1068115E-02 -0.5341172E-03  0.1967123E+06  0.2342729E+02
  0.5452381E+00 -0.5000644E+05 -0.4410091E+02  0.5709053E-02  0.9648204E-03  0.1972092E+06  0.3547279E+02
  0.5761905E+00 -0.5031344E+05 -0.6474435E+02 -0.4554937E-02  0.1147985E-03  0.1972726E+06  0.5241042E+02
  0.6071429E+00 -0.5056137E+05 -0.9333324E+02 -0.1407399E-01 -0.3532171E-02  0.1973363E+06  0.7611630E+02
  0.6380953E+00 -0.5075320E+05 -0.1316135E+03 -0.1549564E-01 -0.3971577E-02  0.1980215E+06  0.1082071E+03
  0.6690477E+00 -0.5102870E+05 -0.1824207E+03  0.2736808E-02  0.3337860E-03  0.1979708E+06  0.1512692E+03
  0.7000000E+00 -0.5118529E+05 -0.2488125E+03 -0.2092634E-02 -0.1034737E-03  0.1979804E+06  0.2079370E+03
  0.7309524E+00 -0.5158625E+05 -0.3338767E+03 -0.1686717E-01 -0.5789757E-02  0.1987901E+06  0.2808701E+03
  0.7619048E+00 -0.5196849E+05 -0.4426881E+03  0.4966735E-02  0.2026558E-03  0.1988681E+06  0.3752213E+03
  0.7928572E+00 -0.5231625E+05 -0.5798329E+03 -0.1016153E-01 -0.2110481E-02  0.1990884E+06  0.4959646E+03
  0.8238096E+00 -0.5267334E+05 -0.7509988E+03 -0.3185823E-02 -0.7486343E-03  0.1996629E+06  0.6487653E+03
  0.8547620E+00 -0.5288632E+05 -0.9627449E+03 -0.1463824E-01 -0.7634163E-02  0.2002804E+06  0.8397300E+03
  0.8857143E+00 -0.5333516E+05 -0.1218836E+04 -0.6339781E-02 -0.2414703E-02  0.2003317E+06  0.1069975E+04
  0.9166667E+00 -0.5378679E+05 -0.1524347E+04 -0.5992542E-02 -0.5544662E-02  0.2005890E+06  0.1344790E+04
  0.9476191E+00 -0.5426788E+05 -0.1892553E+04  0.1977355E-01  0.4415512E-02  0.2012075E+06  0.1683063E+04
  0.9785714E+00 -0.5465446E+05 -0.2333233E+04  0.1247434E-02  0.1743317E-02  0.2019757E+06  0.2096783E+04
  0.1009524E+01 -0.5506137E+05 -0.2853453E+04 -0.1571943E-02 -0.1991272E-02  0.2021262E+06  0.2585195E+04
  0.1040476E+01 -0.5553599E+05 -0.3462906E+04  0.1173216E-03 -0.1617432E-02  0.2025909E+06  0.3169989E+04
  0.1071429E+01 -0.5581703E+05 -0.4170406E+04 -0.8544922E-02 -0.5317688E-02  0.2027149E+06  0.3851551E+04
  0.1102381E+01 -0.5624071E+05 -0.4984029E+04 -0.5093733E-02 -0.2586365E-02  0.2035803E+06  0.4651201E+04
  0.1133333E+01 -0.5652621E+05 -0.5874570E+04  0.3231273E-03 -0.3761292E-02  0.2041161E+06  0.5497526E+04
  0.1164286E+01 -0.5686922E+05 -0.6889304E+04 -0.6919814E-02 -0.1335144E-02  0.2041915E+06  0.6482352E+04
  0.1195238E+01 -0.5722788E+05 -0.8026883E+04 -0.2349002E-02  0.1792908E-02  0.2044627E+06  0.7602467E+04
  0.1226190E+01 -0.5738029E+05 -0.9299222E+04 -0.1194630E-02 -0.2136230E-03  0.2045130E+06  0.8882050E+04
  0.1257143E+01 -0.5750729E+05 -0.1070670E+05 -0.1553622E-02 -0.3585815E-02  0.2048406E+06  0.1032351E+05
  0.1288095E+01 -0.5762009E+05 -0.1221175E+05 -0.3980259E-02 -0.2349854E-02  0.2053336E+06  0.1186303E+05
  0.1319048E+01 -0.5754386E+05 -0.1379419E+05  0.1138295E-01  0.4333496E-02  0.2055360E+06  0.1346870E+05
  0.1350000E+01 -0.5750830E+05 -0.1549068E+05  0.4249855E-02  0.6271362E-02  0.2050416E+06  0.1516447E+05
  0.1380952E+01 -0.5740257E+05 -0.1729871E+05 -0.5480536E-02 -0.3936768E-02  0.2049844E+06  0.1704692E+05
  0.1411905E+01 -0.5700811E+05 -0.1919745E+05  0.5706221E-02 -0.8544922E-03  0.2045172E+06  0.1905091E+05
  0.1442857E+01 -0.5662943E+05 -0.2112086E+05  0.4145556E-02 -0.2868652E-02  0.2042129E+06  0.2107190E+05
  0.1473810E+01 -0.5625731E+05 -0.2306637E+05 -0.2650444E-02 -0.7629395E-04  0.2042392E+06  0.2317057E+05
  0.1504762E+01 -0.5558969E+05 -0.2504840E+05 -0.6408691E-02 -0.3051758E-03  0.2038394E+06  0.2536355E+05
  0.1535714E+01 -0.5485046E+05 -0.2703634E+05 -0.2066679E-02  0.7324219E-03  0.2030677E+06  0.2748099E+05
  0.1566667E+01 -0.5415709E+05 -0.2898088E+05  0.3817944E-02 -0.1312256E-02  0.2019486E+06  0.2945469E+05
  0.1597619E+01 -0.5340103E+05 -0.3083006E+05  0.4660866E-02 -0.1708984E-02  0.2011935E+06  0.3144668E+05
  0.1628572E+01 -0.5244027E+05 -0.3259272E+05  0.1499109E-03  0.1678467E-02  0.2000303E+06  0.3330848E+05
  0.1659524E+01 -0.5144106E+05 -0.3429698E+05  0.2206723E-03 -0.5035400E-02  0.1989562E+06  0.3519349E+05
  0.1690476E+01 -0.5050551E+05 -0.3595493E+05 -0.7943166E-03 -0.8544922E-03  0.1983291E+06  0.3724123E+05
  0.1721429E+01 -0.4946773E+05 -0.3740163E+05  0.3120138E-02 -0.1220703E-03  0.1975222E+06  0.3900196E+05
  0.1752381E+01 -0.4832009E+05 -0.3869560E+05  0.0000000E+00 -0.1525879E-03  0.1965647E+06  0.4063282E+05
  0.1783333E+01 -0.4723796E+05 -0.3984271E+05 -0.1232112E-02 -0.1708984E-02  0.1950778E+06  0.4164872E+05
  0.1814286E+01 -0.4627410E+05 -0.4087007E+05  0.6728285E-03 -0.3662109E-03  0.1937655E+06  0.4255671E+05
  0.1845238E+01 -0.4530856E+05 -0.4176120E+05  0.5027722E-02  0.2319336E-02  0.1927298E+06  0.4359440E+05
  0.1876190E+01 -0.4423950E+05 -0.4241659E+05  0.1951886E-02  0.3295898E-02  0.1914120E+06  0.4422076E+05
  0.1907143E+01 -0.4317237E+05 -0.4290664E+05  0.2816304E-02  0.2258301E-02  0.1901081E+06  0.4464567E+05
  0.1938095E+01 -0.4229920E+05 -0.4341999E+05 -0.1259694E-02 -0.3845215E-02  0.1894170E+06  0.4560371E+05
  0.1969048E+01 -0.4147146E+05 -0.4380369E+05  0.1611860E-02  0.3356934E-03  0.1888177E+06  0.4653392E+05
  0.2000000E+01 -0.4050708E+05 -0.4386601E+05  0.4882812E-02  0.6103516E-04  0.1878951E+06  0.4694634E+05
