VARIABLES="w (rad/s)"
"abs(F   1   1)" "angle(F   1   1)"
"abs(F   1   2)" "angle(F   1   2)"
"abs(F   1   3)" "angle(F   1   3)"
Zone t="Diffraction force - beta =   0.000 deg",I=    64,F=POINT
  0.5000000E-01  0.4085677E+03 -0.1570796E+01  0.1104012E+03 -0.3101027E+01  0.5669207E+01 -0.1570794E+01
  0.8095238E-01  0.6661392E+03 -0.1570794E+01  0.2875359E+03 -0.3099739E+01  0.9202737E+01 -0.1570792E+01
  0.1119048E+00  0.9305316E+03 -0.1570792E+01  0.5471868E+03 -0.3097992E+01  0.1266854E+02 -0.1570789E+01
  0.1428571E+00  0.1202553E+04 -0.1570789E+01  0.8899404E+03 -0.3095729E+01  0.1654144E+02 -0.1570784E+01
  0.1738095E+00  0.1490661E+04 -0.1570785E+01  0.1317353E+04 -0.3092843E+01  0.2045515E+02 -0.1570777E+01
  0.2047619E+00  0.1790436E+04 -0.1570778E+01  0.1831309E+04 -0.3089205E+01  0.2483035E+02 -0.1570769E+01
  0.2357143E+00  0.2109249E+04 -0.1570768E+01  0.2434315E+04 -0.3084599E+01  0.2925211E+02 -0.1570756E+01
  0.2666667E+00  0.2457969E+04 -0.1570754E+01  0.3128084E+04 -0.3078950E+01  0.3430993E+02 -0.1570736E+01
  0.2976190E+00  0.2832178E+04 -0.1570733E+01  0.3915940E+04 -0.3071834E+01  0.3998547E+02 -0.1570711E+01
  0.3285715E+00  0.3236781E+04 -0.1570702E+01  0.4800418E+04 -0.3063261E+01  0.4567147E+02 -0.1570669E+01
  0.3595238E+00  0.3694946E+04 -0.1570655E+01  0.5780764E+04 -0.3052797E+01  0.5267556E+02 -0.1570609E+01
  0.3904762E+00  0.4196701E+04 -0.1570584E+01  0.6859724E+04 -0.3040315E+01  0.6049095E+02 -0.1570520E+01
  0.4214286E+00  0.4743325E+04 -0.1570479E+01  0.8026897E+04 -0.3026248E+01  0.6907147E+02 -0.1570386E+01
  0.4523810E+00  0.5358033E+04 -0.1570326E+01  0.9287507E+04 -0.3009906E+01  0.7884009E+02 -0.1570194E+01
  0.4833333E+00  0.6041187E+04 -0.1570112E+01  0.1062011E+05 -0.2993120E+01  0.9150012E+02 -0.1569939E+01
  0.5142857E+00  0.6769486E+04 -0.1569813E+01  0.1202704E+05 -0.2974858E+01  0.1028720E+03 -0.1569561E+01
  0.5452381E+00  0.7528957E+04 -0.1569410E+01  0.1350190E+05 -0.2956435E+01  0.1145328E+03 -0.1569048E+01
  0.5761905E+00  0.8370575E+04 -0.1568887E+01  0.1503856E+05 -0.2938142E+01  0.1301587E+03 -0.1568413E+01
  0.6071429E+00  0.9272255E+04 -0.1568208E+01  0.1662568E+05 -0.2919165E+01  0.1465486E+03 -0.1567588E+01
  0.6380953E+00  0.1020037E+05 -0.1567353E+01  0.1827004E+05 -0.2901005E+01  0.1643442E+03 -0.1566557E+01
  0.6690477E+00  0.1114324E+05 -0.1566275E+01  0.1996506E+05 -0.2882879E+01  0.1801422E+03 -0.1565205E+01
  0.7000000E+00  0.1213699E+05 -0.1564944E+01  0.2169837E+05 -0.2864479E+01  0.1979226E+03 -0.1563555E+01
  0.7309524E+00  0.1319128E+05 -0.1563335E+01  0.2347105E+05 -0.2846469E+01  0.2198601E+03 -0.1561639E+01
  0.7619048E+00  0.1430158E+05 -0.1561401E+01  0.2527751E+05 -0.2828600E+01  0.2445902E+03 -0.1559386E+01
  0.7928572E+00  0.1543746E+05 -0.1559082E+01  0.2710464E+05 -0.2810734E+01  0.2686011E+03 -0.1556631E+01
  0.8238096E+00  0.1656697E+05 -0.1556310E+01  0.2894898E+05 -0.2792973E+01  0.2900899E+03 -0.1553208E+01
  0.8547620E+00  0.1770974E+05 -0.1553041E+01  0.3081401E+05 -0.2775515E+01  0.3144333E+03 -0.1549261E+01
  0.8857143E+00  0.1892236E+05 -0.1549262E+01  0.3269188E+05 -0.2758349E+01  0.3425181E+03 -0.1544819E+01
  0.9166667E+00  0.2018569E+05 -0.1544917E+01  0.3456809E+05 -0.2741359E+01  0.3722740E+03 -0.1539720E+01
  0.9476191E+00  0.2147949E+05 -0.1539937E+01  0.3643045E+05 -0.2724468E+01  0.4041115E+03 -0.1533926E+01
  0.9785714E+00  0.2279076E+05 -0.1534251E+01  0.3828160E+05 -0.2707844E+01  0.4395663E+03 -0.1527491E+01
  0.1009524E+01  0.2411116E+05 -0.1527797E+01  0.4012140E+05 -0.2691600E+01  0.4754091E+03 -0.1520136E+01
  0.1040476E+01  0.2540896E+05 -0.1520475E+01  0.4194215E+05 -0.2675691E+01  0.5061998E+03 -0.1511336E+01
  0.1071429E+01  0.2669815E+05 -0.1512251E+01  0.4373899E+05 -0.2660127E+01  0.5379761E+03 -0.1501492E+01
  0.1102381E+01  0.2801489E+05 -0.1503160E+01  0.4550425E+05 -0.2644824E+01  0.5751613E+03 -0.1491010E+01
  0.1133333E+01  0.2935602E+05 -0.1493176E+01  0.4723341E+05 -0.2629826E+01  0.6172072E+03 -0.1479901E+01
  0.1164286E+01  0.3071558E+05 -0.1482268E+01  0.4892720E+05 -0.2615258E+01  0.6622941E+03 -0.1467890E+01
  0.1195238E+01  0.3206040E+05 -0.1470351E+01  0.5057376E+05 -0.2600975E+01  0.7061522E+03 -0.1454565E+01
  0.1226190E+01  0.3336775E+05 -0.1457349E+01  0.5217252E+05 -0.2587047E+01  0.7490674E+03 -0.1439875E+01
  0.1257143E+01  0.3459608E+05 -0.1443093E+01  0.5373414E+05 -0.2573117E+01  0.7908547E+03 -0.1423648E+01
  0.1288095E+01  0.3579383E+05 -0.1427836E+01  0.5520857E+05 -0.2560126E+01  0.8344192E+03 -0.1406396E+01
  0.1319048E+01  0.3688689E+05 -0.1411244E+01  0.5664889E+05 -0.2547323E+01  0.8756458E+03 -0.1387416E+01
  0.1350000E+01  0.3791180E+05 -0.1393553E+01  0.5803535E+05 -0.2535028E+01  0.9183157E+03 -0.1367678E+01
  0.1380952E+01  0.3887985E+05 -0.1374918E+01  0.5936259E+05 -0.2523179E+01  0.9593344E+03 -0.1346705E+01
  0.1411905E+01  0.3952083E+05 -0.1355364E+01  0.6058015E+05 -0.2511331E+01  0.9774741E+03 -0.1322030E+01
  0.1442857E+01  0.4029060E+05 -0.1334780E+01  0.6177094E+05 -0.2499995E+01  0.1015503E+04 -0.1298686E+01
  0.1473810E+01  0.4092128E+05 -0.1313126E+01  0.6288874E+05 -0.2488858E+01  0.1053768E+04 -0.1274461E+01
  0.1504762E+01  0.4141717E+05 -0.1290509E+01  0.6393922E+05 -0.2478163E+01  0.1090649E+04 -0.1249494E+01
  0.1535714E+01  0.4176675E+05 -0.1266981E+01  0.6492043E+05 -0.2467907E+01  0.1126255E+04 -0.1223975E+01
  0.1566667E+01  0.4196005E+05 -0.1242733E+01  0.6583002E+05 -0.2458050E+01  0.1155990E+04 -0.1197416E+01
  0.1597619E+01  0.4198496E+05 -0.1217858E+01  0.6666377E+05 -0.2448489E+01  0.1179264E+04 -0.1169576E+01
  0.1628572E+01  0.4182339E+05 -0.1192339E+01  0.6742145E+05 -0.2439226E+01  0.1193877E+04 -0.1140244E+01
  0.1659524E+01  0.4148424E+05 -0.1166358E+01  0.6810220E+05 -0.2430320E+01  0.1205359E+04 -0.1110393E+01
  0.1690476E+01  0.4094700E+05 -0.1139825E+01  0.6870180E+05 -0.2421571E+01  0.1213953E+04 -0.1080393E+01
  0.1721429E+01  0.4021434E+05 -0.1112849E+01  0.6922657E+05 -0.2413253E+01  0.1217780E+04 -0.1050458E+01
  0.1752381E+01  0.3929531E+05 -0.1085743E+01  0.6967513E+05 -0.2405311E+01  0.1217198E+04 -0.1021255E+01
  0.1783333E+01  0.3818564E+05 -0.1058533E+01  0.7004520E+05 -0.2397758E+01  0.1209517E+04 -0.9918389E+00
  0.1814286E+01  0.3688825E+05 -0.1031251E+01  0.7033462E+05 -0.2390555E+01  0.1191748E+04 -0.9615536E+00
  0.1845238E+01  0.3540135E+05 -0.1003823E+01  0.7054350E+05 -0.2383656E+01  0.1165843E+04 -0.9304663E+00
  0.1876190E+01  0.3372866E+05 -0.9761959E+00  0.7067515E+05 -0.2377047E+01  0.1129517E+04 -0.8975534E+00
  0.1907143E+01  0.3188584E+05 -0.9485358E+00  0.7072741E+05 -0.2370766E+01  0.1087355E+04 -0.8653293E+00
  0.1938095E+01  0.2988337E+05 -0.9208559E+00  0.7069909E+05 -0.2364674E+01  0.1039044E+04 -0.8335351E+00
  0.1969048E+01  0.2772560E+05 -0.8929003E+00  0.7059273E+05 -0.2358899E+01  0.9840859E+03 -0.8023799E+00
  0.2000000E+01  0.2542699E+05 -0.8645332E+00  0.7041192E+05 -0.2353497E+01  0.9215003E+03 -0.7705988E+00
