VARIABLES="w (rad/s)"
"abs(F   1   1)" "angle(F   1   1)"
"abs(F   1   2)" "angle(F   1   2)"
"abs(F   1   3)" "angle(F   1   3)"
Zone t="Diffraction force - beta =   0.000 deg",I=    64,F=POINT
  0.5000000E-01  0.2420634E+04 -0.1570784E+01  0.4143625E+06 -0.2836133E-04  0.5412716E+02 -0.1570459E+01
  0.8095238E-01  0.3949285E+04 -0.1570784E+01  0.4135917E+06 -0.7628900E-04  0.8818605E+02 -0.1570586E+01
  0.1119048E+00  0.5515116E+04 -0.1570796E+01  0.4124602E+06 -0.1514720E-03  0.1234684E+03 -0.1570638E+01
  0.1428571E+00  0.7137845E+04 -0.1570788E+01  0.4109671E+06 -0.2596735E-03  0.1599092E+03 -0.1570684E+01
  0.1738095E+00  0.8819127E+04 -0.1570785E+01  0.4091098E+06 -0.4095914E-03  0.1986215E+03 -0.1570702E+01
  0.2047619E+00  0.1060166E+05 -0.1570788E+01  0.4068838E+06 -0.6137618E-03  0.2393516E+03 -0.1570706E+01
  0.2357143E+00  0.1249691E+05 -0.1570780E+01  0.4042879E+06 -0.8907655E-03  0.2841898E+03 -0.1570712E+01
  0.2666667E+00  0.1452128E+05 -0.1570763E+01  0.4013154E+06 -0.1263107E-02  0.3317863E+03 -0.1570709E+01
  0.2976190E+00  0.1673165E+05 -0.1570753E+01  0.3979650E+06 -0.1769076E-02  0.3847401E+03 -0.1570705E+01
  0.3285715E+00  0.1915321E+05 -0.1570728E+01  0.3942354E+06 -0.2447409E-02  0.4442846E+03 -0.1570688E+01
  0.3595238E+00  0.2179550E+05 -0.1570695E+01  0.3901326E+06 -0.3359697E-02  0.5100051E+03 -0.1570661E+01
  0.3904762E+00  0.2472957E+05 -0.1570646E+01  0.3856529E+06 -0.4574862E-02  0.5831713E+03 -0.1570611E+01
  0.4214286E+00  0.2799791E+05 -0.1570574E+01  0.3808480E+06 -0.6136734E-02  0.6697268E+03 -0.1570545E+01
  0.4523810E+00  0.3157188E+05 -0.1570464E+01  0.3757027E+06 -0.8164749E-02  0.7611688E+03 -0.1570441E+01
  0.4833333E+00  0.3544351E+05 -0.1570314E+01  0.3702776E+06 -0.1060423E-01  0.8617598E+03 -0.1570294E+01
  0.5142857E+00  0.3969913E+05 -0.1570106E+01  0.3645860E+06 -0.1359541E-01  0.9787555E+03 -0.1570089E+01
  0.5452381E+00  0.4426897E+05 -0.1569827E+01  0.3586569E+06 -0.1709325E-01  0.1105801E+04 -0.1569812E+01
  0.5761905E+00  0.4907756E+05 -0.1569464E+01  0.3525136E+06 -0.2110622E-01  0.1241405E+04 -0.1569451E+01
  0.6071429E+00  0.5410718E+05 -0.1568994E+01  0.3461785E+06 -0.2575204E-01  0.1381121E+04 -0.1568981E+01
  0.6380953E+00  0.5942099E+05 -0.1568407E+01  0.3396448E+06 -0.3091647E-01  0.1538592E+04 -0.1568396E+01
  0.6690477E+00  0.6499454E+05 -0.1567675E+01  0.3329627E+06 -0.3671502E-01  0.1712264E+04 -0.1567667E+01
  0.7000000E+00  0.7076269E+05 -0.1566775E+01  0.3261642E+06 -0.4321339E-01  0.1892442E+04 -0.1566765E+01
  0.7309524E+00  0.7664233E+05 -0.1565683E+01  0.3192326E+06 -0.5035588E-01  0.2073891E+04 -0.1565675E+01
  0.7619048E+00  0.8266870E+05 -0.1564372E+01  0.3122002E+06 -0.5821250E-01  0.2270121E+04 -0.1564366E+01
  0.7928572E+00  0.8893191E+05 -0.1562819E+01  0.3051010E+06 -0.6681933E-01  0.2482848E+04 -0.1562815E+01
  0.8238096E+00  0.9537948E+05 -0.1560991E+01  0.2979599E+06 -0.7619178E-01  0.2705392E+04 -0.1560990E+01
  0.8547620E+00  0.1019513E+06 -0.1558860E+01  0.2907961E+06 -0.8634029E-01  0.2944224E+04 -0.1558860E+01
  0.8857143E+00  0.1086370E+06 -0.1556396E+01  0.2836113E+06 -0.9727474E-01  0.3197540E+04 -0.1556396E+01
  0.9166667E+00  0.1153537E+06 -0.1553570E+01  0.2764226E+06 -0.1090081E+00  0.3446344E+04 -0.1553562E+01
  0.9476191E+00  0.1220909E+06 -0.1550357E+01  0.2692637E+06 -0.1215595E+00  0.3701321E+04 -0.1550349E+01
  0.9785714E+00  0.1289283E+06 -0.1546748E+01  0.2621508E+06 -0.1349450E+00  0.3977767E+04 -0.1546751E+01
  0.1009524E+01  0.1358489E+06 -0.1542729E+01  0.2550908E+06 -0.1491687E+00  0.4274226E+04 -0.1542754E+01
  0.1040476E+01  0.1428112E+06 -0.1538286E+01  0.2480929E+06 -0.1642250E+00  0.4581709E+04 -0.1538313E+01
  0.1071429E+01  0.1497368E+06 -0.1533404E+01  0.2411825E+06 -0.1801214E+00  0.4894703E+04 -0.1533439E+01
  0.1102381E+01  0.1565767E+06 -0.1528079E+01  0.2343575E+06 -0.1968560E+00  0.5213902E+04 -0.1528114E+01
  0.1133333E+01  0.1632348E+06 -0.1522313E+01  0.2276490E+06 -0.2144394E+00  0.5536383E+04 -0.1522319E+01
  0.1164286E+01  0.1696977E+06 -0.1516125E+01  0.2210170E+06 -0.2328622E+00  0.5862380E+04 -0.1516073E+01
  0.1195238E+01  0.1759639E+06 -0.1509568E+01  0.2144785E+06 -0.2521231E+00  0.6196917E+04 -0.1509509E+01
  0.1226190E+01  0.1820400E+06 -0.1502726E+01  0.2080515E+06 -0.2722533E+00  0.6532305E+04 -0.1502677E+01
  0.1257143E+01  0.1878074E+06 -0.1495599E+01  0.2017585E+06 -0.2934285E+00  0.6862265E+04 -0.1495631E+01
  0.1288095E+01  0.1933398E+06 -0.1488404E+01  0.1956025E+06 -0.3151024E+00  0.7204503E+04 -0.1488420E+01
  0.1319048E+01  0.1984358E+06 -0.1481058E+01  0.1895862E+06 -0.3378108E+00  0.7545059E+04 -0.1481025E+01
  0.1350000E+01  0.2031225E+06 -0.1473712E+01  0.1836891E+06 -0.3613569E+00  0.7884061E+04 -0.1473622E+01
  0.1380952E+01  0.2073638E+06 -0.1466504E+01  0.1779012E+06 -0.3857009E+00  0.8217355E+04 -0.1466446E+01
  0.1411905E+01  0.2107325E+06 -0.1460089E+01  0.1723308E+06 -0.4105579E+00  0.8488080E+04 -0.1460038E+01
  0.1442857E+01  0.2139532E+06 -0.1453630E+01  0.1668348E+06 -0.4366143E+00  0.8782068E+04 -0.1453668E+01
  0.1473810E+01  0.2166531E+06 -0.1447724E+01  0.1614749E+06 -0.4635064E+00  0.9067010E+04 -0.1447754E+01
  0.1504762E+01  0.2187817E+06 -0.1442491E+01  0.1562716E+06 -0.4912500E+00  0.9344758E+04 -0.1442407E+01
  0.1535714E+01  0.2203558E+06 -0.1438090E+01  0.1511896E+06 -0.5198447E+00  0.9610114E+04 -0.1438002E+01
  0.1566667E+01  0.2213928E+06 -0.1434707E+01  0.1462339E+06 -0.5492839E+00  0.9862623E+04 -0.1434587E+01
  0.1597619E+01  0.2218898E+06 -0.1432459E+01  0.1414061E+06 -0.5795499E+00  0.1009221E+05 -0.1432370E+01
  0.1628572E+01  0.2218634E+06 -0.1431464E+01  0.1367125E+06 -0.6106403E+00  0.1029729E+05 -0.1431424E+01
  0.1659524E+01  0.2213139E+06 -0.1431824E+01  0.1321555E+06 -0.6425987E+00  0.1047477E+05 -0.1431769E+01
  0.1690476E+01  0.2202923E+06 -0.1433667E+01  0.1277255E+06 -0.6754127E+00  0.1063728E+05 -0.1433647E+01
  0.1721429E+01  0.2188361E+06 -0.1437094E+01  0.1234411E+06 -0.7090594E+00  0.1078556E+05 -0.1437078E+01
  0.1752381E+01  0.2169715E+06 -0.1442170E+01  0.1192780E+06 -0.7435599E+00  0.1091830E+05 -0.1442203E+01
  0.1783333E+01  0.2147374E+06 -0.1448961E+01  0.1152346E+06 -0.7789599E+00  0.1103286E+05 -0.1448941E+01
  0.1814286E+01  0.2121859E+06 -0.1457524E+01  0.1113002E+06 -0.8151919E+00  0.1113046E+05 -0.1457385E+01
  0.1845238E+01  0.2093580E+06 -0.1467885E+01  0.1074707E+06 -0.8522524E+00  0.1120796E+05 -0.1467601E+01
  0.1876190E+01  0.2062877E+06 -0.1480066E+01  0.1037564E+06 -0.8901256E+00  0.1126633E+05 -0.1479794E+01
  0.1907143E+01  0.2030013E+06 -0.1494079E+01  0.1001611E+06 -0.9289119E+00  0.1130416E+05 -0.1494052E+01
  0.1938095E+01  0.1995403E+06 -0.1509935E+01  0.9667573E+05 -0.9686114E+00  0.1132998E+05 -0.1510167E+01
  0.1969048E+01  0.1959431E+06 -0.1527623E+01  0.9329862E+05 -0.1009177E+01  0.1134619E+05 -0.1528029E+01
  0.2000000E+01  0.1922348E+06 -0.1547130E+01  0.9004831E+05 -0.1050584E+01  0.1135746E+05 -0.1547498E+01
