VARIABLES="w (rad/s)"
"abs(F   1   1)" "angle(F   1   1)"
"abs(F   1   2)" "angle(F   1   2)"
"abs(F   1   3)" "angle(F   1   3)"
Zone t="Diffraction force - beta =   0.000 deg",I=    64,F=POINT
  0.5000000E-01  0.1708469E+04 -0.1570793E+01  0.4709537E+03 -0.3077570E+01  0.3815538E+02 -0.1570791E+01
  0.8095238E-01  0.2788989E+04 -0.1570788E+01  0.1215230E+04 -0.3075036E+01  0.6175771E+02 -0.1570785E+01
  0.1119048E+00  0.3893526E+04 -0.1570780E+01  0.2302514E+04 -0.3072137E+01  0.8560249E+02 -0.1570773E+01
  0.1428571E+00  0.5023805E+04 -0.1570767E+01  0.3733950E+04 -0.3068565E+01  0.1115505E+03 -0.1570757E+01
  0.1738095E+00  0.6222580E+04 -0.1570748E+01  0.5516257E+04 -0.3064156E+01  0.1386201E+03 -0.1570732E+01
  0.2047619E+00  0.7471208E+04 -0.1570721E+01  0.7659599E+04 -0.3058708E+01  0.1687747E+03 -0.1570697E+01
  0.2357143E+00  0.8790209E+04 -0.1570681E+01  0.1016956E+05 -0.3051853E+01  0.1987139E+03 -0.1570646E+01
  0.2666667E+00  0.1023549E+05 -0.1570624E+01  0.1306102E+05 -0.3043615E+01  0.2344316E+03 -0.1570573E+01
  0.2976190E+00  0.1176891E+05 -0.1570537E+01  0.1633792E+05 -0.3033251E+01  0.2737823E+03 -0.1570466E+01
  0.3285715E+00  0.1344946E+05 -0.1570410E+01  0.2002093E+05 -0.3021001E+01  0.3150056E+03 -0.1570302E+01
  0.3595238E+00  0.1533499E+05 -0.1570220E+01  0.2408089E+05 -0.3006066E+01  0.3680903E+03 -0.1570069E+01
  0.3904762E+00  0.1739308E+05 -0.1569936E+01  0.2855471E+05 -0.2988594E+01  0.4227236E+03 -0.1569715E+01
  0.4214286E+00  0.1961075E+05 -0.1569519E+01  0.3333058E+05 -0.2968961E+01  0.4786341E+03 -0.1569185E+01
  0.4523810E+00  0.2213991E+05 -0.1568913E+01  0.3847252E+05 -0.2946408E+01  0.5543322E+03 -0.1568450E+01
  0.4833333E+00  0.2491838E+05 -0.1568078E+01  0.4382086E+05 -0.2923607E+01  0.6377702E+03 -0.1567435E+01
  0.5142857E+00  0.2785364E+05 -0.1566914E+01  0.4939198E+05 -0.2898916E+01  0.7241350E+03 -0.1566008E+01
  0.5452381E+00  0.3096123E+05 -0.1565365E+01  0.5515846E+05 -0.2874510E+01  0.8105454E+03 -0.1564070E+01
  0.5761905E+00  0.3435142E+05 -0.1563372E+01  0.6102741E+05 -0.2850493E+01  0.9225763E+03 -0.1561684E+01
  0.6071429E+00  0.3799027E+05 -0.1560825E+01  0.6699674E+05 -0.2825835E+01  0.1052769E+04 -0.1558713E+01
  0.6380953E+00  0.4171263E+05 -0.1557651E+01  0.7308686E+05 -0.2802942E+01  0.1172580E+04 -0.1554857E+01
  0.6690477E+00  0.4542984E+05 -0.1553695E+01  0.7920593E+05 -0.2780230E+01  0.1294912E+04 -0.1550035E+01
  0.7000000E+00  0.4940589E+05 -0.1548906E+01  0.8535260E+05 -0.2757522E+01  0.1443609E+04 -0.1544408E+01
  0.7309524E+00  0.5359547E+05 -0.1543216E+01  0.9152216E+05 -0.2735868E+01  0.1602269E+04 -0.1537714E+01
  0.7619048E+00  0.5788639E+05 -0.1536459E+01  0.9763479E+05 -0.2714531E+01  0.1782202E+04 -0.1529984E+01
  0.7928572E+00  0.6223809E+05 -0.1528502E+01  0.1036873E+06 -0.2693609E+01  0.1974447E+04 -0.1520971E+01
  0.8238096E+00  0.6650962E+05 -0.1519163E+01  0.1096693E+06 -0.2673271E+01  0.2136799E+04 -0.1509724E+01
  0.8547620E+00  0.7078585E+05 -0.1508396E+01  0.1155651E+06 -0.2653628E+01  0.2311316E+04 -0.1496909E+01
  0.8857143E+00  0.7516391E+05 -0.1496207E+01  0.1213174E+06 -0.2634438E+01  0.2527358E+04 -0.1483253E+01
  0.9166667E+00  0.7963875E+05 -0.1482553E+01  0.1269287E+06 -0.2615939E+01  0.2765064E+04 -0.1468212E+01
  0.9476191E+00  0.8405185E+05 -0.1467276E+01  0.1323326E+06 -0.2597825E+01  0.2996768E+04 -0.1451094E+01
  0.9785714E+00  0.8831373E+05 -0.1450247E+01  0.1375273E+06 -0.2580271E+01  0.3227141E+04 -0.1431902E+01
  0.1009524E+01  0.9226476E+05 -0.1431281E+01  0.1424922E+06 -0.2563173E+01  0.3451339E+04 -0.1410325E+01
  0.1040476E+01  0.9588815E+05 -0.1410351E+01  0.1472515E+06 -0.2546893E+01  0.3671071E+04 -0.1386411E+01
  0.1071429E+01  0.9922583E+05 -0.1387662E+01  0.1517818E+06 -0.2531345E+01  0.3891510E+04 -0.1360869E+01
  0.1102381E+01  0.1022660E+06 -0.1363408E+01  0.1560572E+06 -0.2516367E+01  0.4104985E+04 -0.1333671E+01
  0.1133333E+01  0.1049100E+06 -0.1337593E+01  0.1600414E+06 -0.2501825E+01  0.4309047E+04 -0.1304633E+01
  0.1164286E+01  0.1070109E+06 -0.1310113E+01  0.1637349E+06 -0.2487732E+01  0.4512894E+04 -0.1274086E+01
  0.1195238E+01  0.1085316E+06 -0.1281079E+01  0.1671414E+06 -0.2474304E+01  0.4708686E+04 -0.1242357E+01
  0.1226190E+01  0.1094165E+06 -0.1250687E+01  0.1702594E+06 -0.2461646E+01  0.4885313E+04 -0.1209693E+01
  0.1257143E+01  0.1096001E+06 -0.1218958E+01  0.1730995E+06 -0.2449281E+01  0.5011597E+04 -0.1174310E+01
  0.1288095E+01  0.1090419E+06 -0.1186839E+01  0.1755462E+06 -0.2437712E+01  0.5091901E+04 -0.1137879E+01
  0.1319048E+01  0.1077023E+06 -0.1153637E+01  0.1777002E+06 -0.2426430E+01  0.5145586E+04 -0.1100071E+01
  0.1350000E+01  0.1055226E+06 -0.1119598E+01  0.1795297E+06 -0.2415647E+01  0.5175018E+04 -0.1062205E+01
  0.1380952E+01  0.1025604E+06 -0.1085271E+01  0.1810384E+06 -0.2405659E+01  0.5173622E+04 -0.1025426E+01
  0.1411905E+01  0.9820762E+05 -0.1050803E+01  0.1820418E+06 -0.2395687E+01  0.5041786E+04 -0.9834144E+00
  0.1442857E+01  0.9367494E+05 -0.1016122E+01  0.1828843E+06 -0.2386708E+01  0.4928801E+04 -0.9446251E+00
  0.1473810E+01  0.8835148E+05 -0.9811198E+00  0.1833964E+06 -0.2378196E+01  0.4752034E+04 -0.9033555E+00
  0.1504762E+01  0.8230509E+05 -0.9460157E+00  0.1835809E+06 -0.2370211E+01  0.4529436E+04 -0.8623840E+00
  0.1535714E+01  0.7558681E+05 -0.9107901E+00  0.1834287E+06 -0.2362541E+01  0.4266135E+04 -0.8223219E+00
  0.1566667E+01  0.6824730E+05 -0.8750931E+00  0.1829563E+06 -0.2355467E+01  0.3953934E+04 -0.7824730E+00
  0.1597619E+01  0.6034284E+05 -0.8384272E+00  0.1821655E+06 -0.2348932E+01  0.3591247E+04 -0.7407552E+00
  0.1628572E+01  0.5196675E+05 -0.8001974E+00  0.1810459E+06 -0.2343073E+01  0.3175571E+04 -0.6961469E+00
  0.1659524E+01  0.4317930E+05 -0.7585859E+00  0.1795958E+06 -0.2337792E+01  0.2699707E+04 -0.6435834E+00
  0.1690476E+01  0.3403718E+05 -0.7093498E+00  0.1778350E+06 -0.2333003E+01  0.2167300E+04 -0.5774695E+00
  0.1721429E+01  0.2462810E+05 -0.6425000E+00  0.1757761E+06 -0.2328719E+01  0.1590348E+04 -0.4801653E+00
  0.1752381E+01  0.1509288E+05 -0.5223096E+00  0.1734128E+06 -0.2324957E+01  0.9940938E+03 -0.2960143E+00
  0.1783333E+01  0.6010232E+04 -0.8667427E-01  0.1707597E+06 -0.2321548E+01  0.4633336E+03  0.3109334E+00
  0.1814286E+01  0.6412368E+04  0.1805238E+01  0.1678204E+06 -0.2318887E+01  0.5788226E+03  0.1782453E+01
  0.1845238E+01  0.1574123E+05  0.2201335E+01  0.1645979E+06 -0.2316961E+01  0.1221017E+04  0.2212713E+01
  0.1876190E+01  0.2561471E+05  0.2312603E+01  0.1610960E+06 -0.2315843E+01  0.1965684E+04  0.2355761E+01
  0.1907143E+01  0.3553111E+05  0.2371237E+01  0.1573141E+06 -0.2315471E+01  0.2758192E+04  0.2432743E+01
  0.1938095E+01  0.4537736E+05  0.2410913E+01  0.1532637E+06 -0.2315959E+01  0.3589093E+04  0.2483953E+01
  0.1969048E+01  0.5508328E+05  0.2441726E+01  0.1489716E+06 -0.2317222E+01  0.4453664E+04  0.2522505E+01
  0.2000000E+01  0.6460376E+05  0.2467083E+01  0.1444482E+06 -0.2319250E+01  0.5341435E+04  0.2553923E+01
