VARIABLES="w (rad/s)"
"A   1   1" "B   1   1"
"A   1   2" "B   1   2"
"A   1   3" "B   1   3"
Zone t="Motion of body    1 in DoF   1",I=    64,F=POINT
  0.5000000E-01  0.1565795E+05  0.4193933E-03 -0.1029968E-02  0.4429936E-05  0.1827971E+05  0.5877817E-03
  0.8095238E-01  0.1568249E+05  0.1793312E-02  0.2544627E-02  0.1149829E-04  0.1826854E+05  0.2553579E-02
  0.1119048E+00  0.1571279E+05  0.5070877E-02 -0.2352126E-02  0.5487222E-05  0.1828342E+05  0.7181828E-02
  0.1428571E+00  0.1573164E+05  0.1140288E-01 -0.2136230E-02  0.5894632E-05  0.1827779E+05  0.1615940E-01
  0.1738095E+00  0.1574918E+05  0.2271699E-01  0.6847643E-02  0.6262929E-04  0.1832626E+05  0.3222474E-01
  0.2047619E+00  0.1576228E+05  0.4194262E-01  0.3670094E-02  0.7268786E-04  0.1833033E+05  0.5949305E-01
  0.2357143E+00  0.1577460E+05  0.7390434E-01  0.4855069E-03  0.4778383E-05  0.1835331E+05  0.1049266E+00
  0.2666667E+00  0.1579653E+05  0.1262456E+00 -0.2746582E-02 -0.2022367E-05  0.1840241E+05  0.1794312E+00
  0.2976190E+00  0.1581927E+05  0.2119460E+00  0.6177979E-02  0.1526685E-03  0.1842458E+05  0.3014579E+00
  0.3285715E+00  0.1583570E+05  0.3510497E+00 -0.3854502E-02 -0.7239357E-04  0.1845092E+05  0.4998268E+00
  0.3595238E+00  0.1587315E+05  0.5772725E+00  0.3586320E-02  0.6699655E-04  0.1853861E+05  0.8231486E+00
  0.3904762E+00  0.1589767E+05  0.9425112E+00  0.1797560E-02  0.3402866E-04  0.1856756E+05  0.1345353E+01
  0.4214286E+00  0.1592666E+05  0.1518123E+01  0.1303463E-02  0.1677051E-03  0.1859838E+05  0.2169324E+01
  0.4523810E+00  0.1597003E+05  0.2424468E+01  0.3440455E-02  0.2547577E-03  0.1869174E+05  0.3470336E+01
  0.4833333E+00  0.1601082E+05  0.3776830E+01 -0.5366884E-02 -0.1972988E-03  0.1877027E+05  0.5415474E+01
  0.5142857E+00  0.1605245E+05  0.5786033E+01  0.5340577E-03  0.1719594E-04  0.1882036E+05  0.8307883E+01
  0.5452381E+00  0.1609105E+05  0.8654120E+01  0.6744518E-02  0.4221648E-03  0.1887018E+05  0.1244490E+02
  0.5761905E+00  0.1614485E+05  0.1264357E+02 -0.4449008E-02 -0.4322529E-03  0.1898260E+05  0.1822054E+02
  0.6071429E+00  0.1621071E+05  0.1813238E+02  0.2613741E-02  0.1890361E-03  0.1910671E+05  0.2618498E+02
  0.6380953E+00  0.1627389E+05  0.2542967E+02  0.2821737E-02  0.1007855E-02  0.1920269E+05  0.3679318E+02
  0.6690477E+00  0.1634130E+05  0.3505659E+02  0.4333279E-03  0.3238916E-03  0.1930660E+05  0.5082402E+02
  0.7000000E+00  0.1640253E+05  0.4759357E+02 -0.3553118E-02 -0.5031824E-03  0.1940301E+05  0.6914188E+02
  0.7309524E+00  0.1646669E+05  0.6360720E+02  0.4175043E-04 -0.3551245E-03  0.1951587E+05  0.9261568E+02
  0.7619048E+00  0.1654999E+05  0.8390334E+02 -0.4606246E-03  0.5180836E-03  0.1966441E+05  0.1224658E+03
  0.7928572E+00  0.1664248E+05  0.1093432E+03  0.4464914E-02  0.1039743E-02  0.1981881E+05  0.1599865E+03
  0.8238096E+00  0.1673046E+05  0.1408758E+03 -0.1333600E-02  0.4155636E-03  0.1994915E+05  0.2066015E+03
  0.8547620E+00  0.1681960E+05  0.1795560E+03  0.3320380E-02  0.1107693E-02  0.2008742E+05  0.2639695E+03
  0.8857143E+00  0.1690903E+05  0.2265591E+03 -0.3342167E-02 -0.1869202E-03  0.2023692E+05  0.3339290E+03
  0.9166667E+00  0.1700847E+05  0.2831784E+03 -0.2430309E-02 -0.3814697E-05  0.2041192E+05  0.4185184E+03
  0.9476191E+00  0.1711552E+05  0.3508146E+03  0.1094952E-02 -0.2622604E-03  0.2059627E+05  0.5199075E+03
  0.9785714E+00  0.1722455E+05  0.4309784E+03 -0.6860886E-03  0.5903244E-03  0.2077984E+05  0.6404958E+03
  0.1009524E+01  0.1734016E+05  0.5253107E+03  0.1632403E-02  0.2550125E-02  0.2097107E+05  0.7829279E+03
  0.1040476E+01  0.1745686E+05  0.6354866E+03 -0.3167683E-02 -0.2937317E-03  0.2116298E+05  0.9499100E+03
  0.1071429E+01  0.1756944E+05  0.7631310E+03  0.1167806E-02  0.2130508E-02  0.2134821E+05  0.1144063E+04
  0.1102381E+01  0.1767654E+05  0.9099029E+03  0.1107333E-03  0.1449585E-03  0.2152798E+05  0.1368123E+04
  0.1133333E+01  0.1778454E+05  0.1077435E+04 -0.1884909E-03 -0.2479553E-04  0.2171614E+05  0.1624888E+04
  0.1164286E+01  0.1789430E+05  0.1267362E+04 -0.6290740E-02 -0.4322052E-02  0.2191562E+05  0.1917233E+04
  0.1195238E+01  0.1800641E+05  0.1481258E+04 -0.2553263E-04  0.7667542E-03  0.2212400E+05  0.2247950E+04
  0.1226190E+01  0.1811195E+05  0.1720584E+04 -0.6147366E-02 -0.4951477E-02  0.2231594E+05  0.2619549E+04
  0.1257143E+01  0.1820537E+05  0.1988541E+04 -0.2888766E-02  0.5073547E-03  0.2247983E+05  0.3037308E+04
  0.1288095E+01  0.1830124E+05  0.2281269E+04 -0.3316883E-03 -0.7629395E-05  0.2265697E+05  0.3496377E+04
  0.1319048E+01  0.1838201E+05  0.2604556E+04 -0.2174790E-02 -0.1243591E-02  0.2280389E+05  0.4005547E+04
  0.1350000E+01  0.1844982E+05  0.2956975E+04  0.2848307E-02 -0.4959106E-03  0.2293661E+05  0.4563341E+04
  0.1380952E+01  0.1850534E+05  0.3338382E+04 -0.8397596E-03  0.2235413E-02  0.2305325E+05  0.5169905E+04
  0.1411905E+01  0.1824275E+05  0.3652510E+04  0.3890605E-03  0.2853394E-02  0.2259865E+05  0.5674565E+04
  0.1442857E+01  0.1827018E+05  0.4082419E+04 -0.1395953E-02 -0.2487183E-02  0.2267207E+05  0.6365065E+04
  0.1473810E+01  0.1828052E+05  0.4539312E+04 -0.2360552E-02  0.8850098E-03  0.2272494E+05  0.7103257E+04
  0.1504762E+01  0.1827554E+05  0.5021770E+04  0.3001539E-02 -0.3204346E-03  0.2275061E+05  0.7887165E+04
  0.1535714E+01  0.1825412E+05  0.5527524E+04 -0.2066679E-02  0.7476807E-03  0.2274950E+05  0.8713744E+04
  0.1566667E+01  0.1821567E+05  0.6054433E+04  0.9739652E-03  0.4501343E-02  0.2272571E+05  0.9580040E+04
  0.1597619E+01  0.1816297E+05  0.6599083E+04  0.6494650E-03  0.3967285E-02  0.2267951E+05  0.1048085E+05
  0.1628572E+01  0.1809120E+05  0.7158829E+04 -0.1461631E-02 -0.5142212E-02  0.2260321E+05  0.1141264E+05
  0.1659524E+01  0.1800270E+05  0.7730535E+04  0.9562466E-03 -0.2288818E-02  0.2249781E+05  0.1237040E+05
  0.1690476E+01  0.1789612E+05  0.8311102E+04 -0.2816214E-02  0.1449585E-02  0.2236434E+05  0.1334979E+05
  0.1721429E+01  0.1777107E+05  0.8896958E+04 -0.1311876E-02  0.7476807E-02  0.2220135E+05  0.1434524E+05
  0.1752381E+01  0.1763037E+05  0.9483829E+04 -0.5259307E-02 -0.1495361E-02  0.2200745E+05  0.1534915E+05
  0.1783333E+01  0.1747239E+05  0.1006873E+05 -0.1711266E-03 -0.3692627E-02  0.2178621E+05  0.1635788E+05
  0.1814286E+01  0.1729865E+05  0.1064872E+05  0.1042884E-02  0.3906250E-02  0.2153910E+05  0.1736622E+05
  0.1845238E+01  0.1711350E+05  0.1121919E+05  0.6615424E-04 -0.3356934E-03  0.2126909E+05  0.1836570E+05
  0.1876190E+01  0.1691457E+05  0.1177801E+05 -0.1366320E-02  0.4425049E-02  0.2097592E+05  0.1935497E+05
  0.1907143E+01  0.1670471E+05  0.1232308E+05 -0.1920207E-02 -0.1220703E-03  0.2065985E+05  0.2032948E+05
  0.1938095E+01  0.1648715E+05  0.1285227E+05  0.1448648E-02 -0.1831055E-03  0.2032543E+05  0.2128421E+05
  0.1969048E+01  0.1625945E+05  0.1336268E+05  0.9919136E-03  0.9216309E-02  0.1997970E+05  0.2221638E+05
  0.2000000E+01  0.1602863E+05  0.1385159E+05 -0.1159668E-02 -0.6713867E-03  0.1962212E+05  0.2311860E+05
Zone t="Motion of body    1 in DoF   2",I=    64,F=POINT
  0.5000000E-01  0.1373291E-02 -0.6675720E-05  0.6488497E+05  0.1302774E+03 -0.6103516E-03  0.2622604E-05
  0.8095238E-01 -0.1036700E-02  0.1335144E-04  0.6436894E+05  0.2163075E+03  0.1696418E-02 -0.9536743E-06
  0.1119048E+00  0.1159019E-02  0.8583069E-05  0.6418277E+05  0.3104046E+03  0.4090654E-02  0.1144409E-04
  0.1428571E+00  0.5340576E-04 -0.1239777E-04  0.6406482E+05  0.4162151E+03  0.6088256E-02  0.9536743E-06
  0.1738095E+00 -0.1799701E-02  0.1573563E-04  0.6411527E+05  0.5387621E+03 -0.1755806E-02  0.7629395E-05
  0.2047619E+00 -0.1266834E-02  0.1955032E-04  0.6422982E+05  0.6838473E+03  0.2235590E-02  0.1525879E-04
  0.2357143E+00  0.5243475E-02 -0.9155273E-04  0.6449375E+05  0.8600036E+03  0.3754587E-02 -0.2479553E-04
  0.2666667E+00 -0.6351470E-02 -0.1268387E-03  0.6477175E+05  0.1075166E+04 -0.9155273E-03 -0.9727478E-04
  0.2976190E+00  0.3640137E-02 -0.9441376E-04  0.6511251E+05  0.1344705E+04  0.1845703E-02  0.3814697E-04
  0.3285715E+00  0.3668743E-02 -0.2326965E-03  0.6556316E+05  0.1679180E+04  0.1671832E-02 -0.2174377E-03
  0.3595238E+00 -0.3140683E-02 -0.5722046E-04  0.6596910E+05  0.2097911E+04  0.1697666E-02 -0.1220703E-03
  0.3904762E+00  0.5470834E-03 -0.8773804E-04  0.6635149E+05  0.2618900E+04  0.7815477E-03 -0.1831055E-03
  0.4214286E+00 -0.1520706E-02  0.1907349E-04  0.6667706E+05  0.3238121E+04  0.3186242E-02 -0.3585815E-03
  0.4523810E+00 -0.1619038E-02 -0.1640320E-03  0.6698834E+05  0.3989719E+04 -0.1214278E-02 -0.5111694E-03
  0.4833333E+00 -0.1389076E-02 -0.1525879E-03  0.6705655E+05  0.4821984E+04 -0.6440261E-02 -0.1831055E-03
  0.5142857E+00 -0.4925198E-02 -0.7781982E-03  0.6700503E+05  0.5770658E+04  0.7120768E-03 -0.8850098E-03
  0.5452381E+00 -0.1119422E-02 -0.5264282E-03  0.6691466E+05  0.6793564E+04  0.2462729E-02 -0.9918213E-03
  0.5761905E+00  0.2595255E-02  0.9155273E-04  0.6671431E+05  0.7877809E+04  0.1483003E-02  0.3509521E-03
  0.6071429E+00 -0.2462948E-02 -0.4196167E-03  0.6633888E+05  0.9046399E+04  0.2010570E-02 -0.3051758E-04
  0.6380953E+00  0.2439129E-02 -0.5645752E-03  0.6591321E+05  0.1024494E+05 -0.3826084E-03 -0.5493164E-03
  0.6690477E+00 -0.1915765E-02 -0.2365112E-03  0.6545366E+05  0.1149554E+05  0.2736808E-02  0.4577637E-03
  0.7000000E+00 -0.6234305E-02  0.3662109E-03  0.6491330E+05  0.1280368E+05 -0.3313337E-02 -0.4577637E-03
  0.7309524E+00 -0.2087521E-02 -0.5798340E-03  0.6431779E+05  0.1414102E+05 -0.1503015E-02  0.1831055E-03
  0.7619048E+00  0.6008148E-03  0.1602173E-02  0.6363185E+05  0.1551565E+05  0.1922607E-02  0.1495361E-02
  0.7928572E+00 -0.1693588E-02  0.3356934E-03  0.6288668E+05  0.1692198E+05  0.1539625E-02  0.1220703E-03
  0.8238096E+00 -0.3815579E-02 -0.1220703E-02  0.6210805E+05  0.1834956E+05 -0.2963557E-02 -0.1770020E-02
  0.8547620E+00  0.1892260E-02 -0.0000000E+00  0.6131527E+05  0.1978943E+05  0.1428121E-02 -0.2258301E-02
  0.8857143E+00 -0.5306121E-02 -0.1525879E-03  0.6048565E+05  0.2123701E+05 -0.1653856E-02 -0.2563477E-02
  0.9166667E+00 -0.1864347E-02 -0.1388550E-02  0.5961323E+05  0.2268810E+05 -0.8123225E-02 -0.6103516E-03
  0.9476191E+00 -0.2576358E-02  0.7934570E-03  0.5868147E+05  0.2414047E+05 -0.1159361E-02 -0.7324219E-03
  0.9785714E+00 -0.1247434E-02 -0.4272461E-03  0.5771333E+05  0.2558522E+05 -0.1247434E-02  0.2441406E-03
  0.1009524E+01 -0.2055618E-02  0.7019043E-03  0.5673596E+05  0.2701236E+05  0.3143887E-02 -0.1220703E-03
  0.1040476E+01  0.1055894E-02 -0.2166748E-02  0.5576025E+05  0.2841405E+05  0.3519648E-02  0.4272461E-03
  0.1071429E+01 -0.1595052E-02 -0.1098633E-02  0.5477971E+05  0.2978782E+05 -0.1936849E-02 -0.2441406E-02
  0.1102381E+01  0.4429333E-03  0.4180908E-02  0.5379193E+05  0.3113261E+05 -0.1107333E-03 -0.7934570E-03
  0.1133333E+01 -0.2585018E-02 -0.1800537E-02  0.5279504E+05  0.3244577E+05  0.2369600E-02 -0.1220703E-02
  0.1164286E+01 -0.3092947E-02  0.2258301E-02  0.5179479E+05  0.3372607E+05 -0.1048457E-03 -0.5859375E-02
  0.1195238E+01 -0.1531958E-02 -0.8544922E-03  0.5079104E+05  0.3497038E+05 -0.3574569E-02  0.5493164E-02
  0.1226190E+01 -0.1294182E-02  0.6103516E-04  0.4978780E+05  0.3617614E+05 -0.1592840E-02 -0.1220703E-03
  0.1257143E+01 -0.1068115E-02  0.1770020E-02  0.4880847E+05  0.3737307E+05 -0.3495650E-02  0.2075195E-02
  0.1288095E+01 -0.3553803E-02 -0.2502441E-02  0.4781669E+05  0.3844960E+05  0.2843042E-02  0.1586914E-02
  0.1319048E+01  0.4627214E-03 -0.2075195E-02  0.4685950E+05  0.3950842E+05 -0.4627214E-03 -0.1342773E-02
  0.1350000E+01 -0.4475911E-02 -0.6713867E-03  0.4592332E+05  0.4051288E+05 -0.1627604E-02  0.2563477E-02
  0.1380952E+01  0.2077300E-02 -0.1068115E-02  0.4501092E+05  0.4145817E+05  0.4950162E-02 -0.3051758E-02
  0.1411905E+01 -0.1513013E-02 -0.4272461E-03  0.4360710E+05  0.4222757E+05 -0.2853110E-02 -0.3295898E-02
  0.1442857E+01 -0.2538096E-03 -0.6408691E-02  0.4273466E+05  0.4310902E+05 -0.1099841E-02 -0.4638672E-02
  0.1473810E+01  0.7454374E-03 -0.2807617E-02  0.4187913E+05  0.4394678E+05  0.5218062E-02  0.9765625E-03
  0.1504762E+01 -0.2352558E-02 -0.9765625E-03  0.4104409E+05  0.4473777E+05  0.7301040E-03  0.4394531E-02
  0.1535714E+01  0.1351290E-02  0.7324219E-03  0.4022833E+05  0.4548318E+05  0.9538517E-03 -0.1464844E-02
  0.1566667E+01 -0.1947930E-03 -0.1464844E-02  0.3943408E+05  0.4618255E+05  0.2415434E-02 -0.3417969E-02
  0.1597619E+01 -0.1642764E-02 -0.1403809E-02  0.3866470E+05  0.4682870E+05  0.3591159E-02  0.2685547E-02
  0.1628572E+01 -0.2810829E-02 -0.9155273E-03  0.3791685E+05  0.4743105E+05  0.2848307E-02  0.3784180E-02
  0.1659524E+01  0.1103361E-02 -0.5065918E-02  0.3719123E+05  0.4798955E+05  0.2427395E-02 -0.2075195E-02
  0.1690476E+01  0.2527371E-02 -0.3662109E-03  0.3648819E+05  0.4850389E+05  0.8665273E-03 -0.1342773E-02
  0.1721429E+01  0.1453700E-02 -0.8544922E-03  0.3580754E+05  0.4897759E+05  0.6027538E-02  0.1586914E-02
  0.1752381E+01 -0.4179582E-03 -0.5676270E-02  0.3514816E+05  0.4941170E+05  0.3552644E-02 -0.7080078E-02
  0.1783333E+01 -0.2464223E-02 -0.0000000E+00  0.3451082E+05  0.4980568E+05  0.5476052E-03  0.1220703E-02
  0.1814286E+01  0.3027728E-03 -0.3479004E-02  0.3389467E+05  0.5016475E+05  0.1547506E-02  0.7202148E-02
  0.1845238E+01 -0.4961567E-03 -0.1464844E-02  0.3330026E+05  0.5048251E+05 -0.5953881E-03  0.8544922E-03
  0.1876190E+01  0.0000000E+00 -0.2990723E-02  0.3272662E+05  0.5076919E+05  0.3903772E-02 -0.8056641E-02
  0.1907143E+01  0.5120553E-03  0.6103516E-03  0.3217411E+05  0.5102909E+05  0.4480483E-03  0.5615234E-02
  0.1938095E+01 -0.8817856E-03  0.1831055E-03  0.3164337E+05  0.5125360E+05  0.1889540E-03 -0.0000000E+00
  0.1969048E+01  0.4432614E-02  0.1831055E-02  0.3113065E+05  0.5145296E+05  0.2479784E-03  0.8789062E-02
  0.2000000E+01 -0.3112793E-02 -0.4211426E-02  0.3063814E+05  0.5161107E+05  0.1220703E-03 -0.2685547E-02
Zone t="Motion of body    1 in DoF   3",I=    64,F=POINT
  0.5000000E-01  0.1767905E+05  0.5616255E-03 -0.1487732E-02 -0.6151741E-05  0.3591077E+05  0.7905667E-03
  0.8095238E-01  0.1767361E+05  0.2445454E-02 -0.2167646E-02  0.6372167E-05  0.3591858E+05  0.3484224E-02
  0.1119048E+00  0.1770434E+05  0.6876704E-02 -0.6885934E-02 -0.1856382E-04  0.3603181E+05  0.9765276E-02
  0.1428571E+00  0.1768213E+05  0.1547782E-01 -0.9613037E-03  0.2318673E-05  0.3589790E+05  0.2193674E-01
  0.1738095E+00  0.1774619E+05  0.3084992E-01  0.8779029E-03  0.1739408E-04  0.3609281E+05  0.4372179E-01
  0.2047619E+00  0.1773477E+05  0.5699087E-01  0.5216377E-03  0.4195806E-04  0.3599490E+05  0.8080669E-01
  0.2357143E+00  0.1776590E+05  0.1005054E+00 -0.4142992E-02 -0.2875412E-04  0.3608202E+05  0.1426754E+00
  0.2666667E+00  0.1781569E+05  0.1718540E+00 -0.3433227E-02 -0.3829226E-04  0.3619197E+05  0.2442408E+00
  0.2976190E+00  0.1782308E+05  0.2887938E+00 -0.9228516E-03 -0.6649923E-04  0.3613271E+05  0.4107467E+00
  0.3285715E+00  0.1785346E+05  0.4788732E+00  0.1950471E-02  0.8311309E-04  0.3619857E+05  0.6818452E+00
  0.3595238E+00  0.1795003E+05  0.7883068E+00  0.5390091E-02  0.1703314E-03  0.3643649E+05  0.1124037E+01
  0.3904762E+00  0.1796101E+05  0.1288704E+01  0.6838542E-02  0.2171770E-03  0.3637971E+05  0.1839291E+01
  0.4214286E+00  0.1798229E+05  0.2078473E+01  0.2353474E-02  0.2794601E-03  0.3636389E+05  0.2969732E+01
  0.4523810E+00  0.1809142E+05  0.3323808E+01 -0.8095189E-03 -0.2259463E-03  0.3664340E+05  0.4757541E+01
  0.4833333E+00  0.1816471E+05  0.5185893E+01 -0.3977808E-02  0.6332994E-04  0.3677404E+05  0.7435737E+01
  0.5142857E+00  0.1819336E+05  0.7957983E+01  0.1008776E-01  0.8300543E-03  0.3672784E+05  0.1142603E+02
  0.5452381E+00  0.1823804E+05  0.1192341E+02  0.1158602E-01  0.1166373E-02  0.3677587E+05  0.1714577E+02
  0.5761905E+00  0.1836581E+05  0.1744980E+02  0.1006323E-02  0.4019737E-03  0.3708960E+05  0.2514623E+02
  0.6071429E+00  0.1848997E+05  0.2507024E+02  0.8695713E-02  0.1568139E-02  0.3733525E+05  0.3620435E+02
  0.6380953E+00  0.1856906E+05  0.3523265E+02  0.1052173E-02  0.5312562E-03  0.3741537E+05  0.5097690E+02
  0.6690477E+00  0.1866752E+05  0.4867458E+02  0.8894624E-02  0.1894236E-02  0.3756095E+05  0.7056773E+02
  0.7000000E+00  0.1876445E+05  0.6622089E+02  0.9024483E-02  0.2119303E-02  0.3773137E+05  0.9620344E+02
  0.7309524E+00  0.1887758E+05  0.8869012E+02  0.1085511E-02  0.6089211E-03  0.3795327E+05  0.1291345E+03
  0.7619048E+00  0.1902185E+05  0.1172519E+03  0.1001358E-01  0.1627445E-02  0.3821665E+05  0.1711371E+03
  0.7928572E+00  0.1916460E+05  0.1531757E+03  0.1331776E-01  0.3209114E-02  0.3843836E+05  0.2241207E+03
  0.8238096E+00  0.1928008E+05  0.1978715E+03  0.4815780E-02  0.9932518E-03  0.3857652E+05  0.2902007E+03
  0.8547620E+00  0.1941110E+05  0.2528565E+03  0.4998422E-02  0.1841068E-02  0.3877859E+05  0.3717440E+03
  0.8857143E+00  0.1956008E+05  0.3198446E+03 -0.2067320E-03 -0.2255440E-02  0.3905042E+05  0.4714195E+03
  0.9166667E+00  0.1973457E+05  0.4007728E+03  0.4527699E-02  0.2634048E-02  0.3938159E+05  0.5922824E+03
  0.9476191E+00  0.1991228E+05  0.4978061E+03  0.3220448E-02  0.1800537E-02  0.3969600E+05  0.7376964E+03
  0.9785714E+00  0.2008183E+05  0.6132888E+03  0.8108320E-03  0.1277924E-02  0.3996695E+05  0.9113950E+03
  0.1009524E+01  0.2025826E+05  0.7497983E+03  0.4473992E-02  0.1832962E-02  0.4023777E+05  0.1117542E+04
  0.1040476E+01  0.2044001E+05  0.9098709E+03  0.4516881E-02  0.1293182E-02  0.4052914E+05  0.1360183E+04
  0.1071429E+01  0.2061659E+05  0.1095982E+04  0.6266276E-02  0.4455566E-02  0.4081469E+05  0.1643199E+04
  0.1102381E+01  0.2078969E+05  0.1310616E+04  0.4650800E-02  0.4665375E-02  0.4111495E+05  0.1970641E+04
  0.1133333E+01  0.2097264E+05  0.1556395E+04 -0.1831055E-02  0.9307861E-03  0.4145048E+05  0.2346996E+04
  0.1164286E+01  0.2116735E+05  0.1836026E+04  0.1520262E-02  0.2632141E-03  0.4181789E+05  0.2777043E+04
  0.1195238E+01  0.2136967E+05  0.2152257E+04 -0.3472438E-02 -0.3173828E-02  0.4220093E+05  0.3265672E+04
  0.1226190E+01  0.2154973E+05  0.2508128E+04 -0.1891497E-02 -0.4844666E-02  0.4251345E+05  0.3818096E+04
  0.1257143E+01  0.2170089E+05  0.2909247E+04  0.2233332E-02  0.3784180E-02  0.4276162E+05  0.4443592E+04
  0.1288095E+01  0.2186288E+05  0.3349386E+04  0.4359332E-02 -0.1174927E-02  0.4303508E+05  0.5134292E+04
  0.1319048E+01  0.2200097E+05  0.3838248E+04 -0.4719758E-02 -0.4547119E-02  0.4327511E+05  0.5904591E+04
  0.1350000E+01  0.2212798E+05  0.4373060E+04  0.3209997E-02  0.2555847E-02  0.4351929E+05  0.6750979E+04
  0.1380952E+01  0.2224247E+05  0.4953971E+04 -0.2607675E-02  0.6744385E-02  0.4376123E+05  0.7674188E+04
  0.1411905E+01  0.2114882E+05  0.5218041E+04 -0.4322895E-03  0.1770020E-02  0.4181264E+05  0.8108835E+04
  0.1442857E+01  0.2121726E+05  0.5853433E+04  0.7614287E-03 -0.3662109E-02  0.4197636E+05  0.9128170E+04
  0.1473810E+01  0.2126504E+05  0.6532427E+04  0.4058492E-02  0.4577637E-02  0.4211068E+05  0.1022423E+05
  0.1504762E+01  0.2128740E+05  0.7254275E+04 -0.1460208E-02 -0.1571655E-02  0.4219933E+05  0.1139584E+05
  0.1535714E+01  0.2128471E+05  0.8016091E+04 -0.3338481E-02 -0.5783081E-02  0.4224005E+05  0.1263891E+05
  0.1566667E+01  0.2125976E+05  0.8813399E+04  0.3272523E-02  0.2349854E-02  0.4225510E+05  0.1394705E+05
  0.1597619E+01  0.2121736E+05  0.9642355E+04  0.3896790E-02  0.8392334E-02  0.4224986E+05  0.1531475E+05
  0.1628572E+01  0.2114576E+05  0.1049983E+05  0.1649020E-02  0.6591797E-02  0.4219242E+05  0.1673821E+05
  0.1659524E+01  0.2104762E+05  0.1138190E+05  0.2942297E-03  0.3662109E-03  0.4209284E+05  0.1821196E+05
  0.1690476E+01  0.2092310E+05  0.1228321E+05  0.3754951E-02  0.9368896E-02  0.4195420E+05  0.1972786E+05
  0.1721429E+01  0.2077023E+05  0.1319845E+05  0.2481928E-02  0.1425171E-01  0.4177109E+05  0.2127784E+05
  0.1752381E+01  0.2059101E+05  0.1412319E+05 -0.2438089E-02  0.2044678E-02  0.4153802E+05  0.2285323E+05
  0.1783333E+01  0.2038649E+05  0.1505173E+05  0.3833236E-02  0.1119995E-01  0.4126591E+05  0.2444763E+05
  0.1814286E+01  0.2015754E+05  0.1597872E+05  0.5382628E-03 -0.7324219E-02  0.4095537E+05  0.2605180E+05
  0.1845238E+01  0.1991004E+05  0.1689844E+05  0.3969254E-02  0.2441406E-03  0.4061418E+05  0.2765633E+05
  0.1876190E+01  0.1963877E+05  0.1780820E+05  0.7807543E-03  0.1171875E-01  0.4022490E+05  0.2925710E+05
  0.1907143E+01  0.1934430E+05  0.1870627E+05 -0.6400691E-04  0.7019043E-02  0.3978462E+05  0.3085104E+05
  0.1938095E+01  0.1903263E+05  0.1958666E+05  0.1259694E-03  0.4394531E-02  0.3931425E+05  0.3242733E+05
  0.1969048E+01  0.1870788E+05  0.2044197E+05  0.2479784E-02 -0.2685547E-02  0.3882331E+05  0.3397475E+05
  0.2000000E+01  0.1837462E+05  0.2127056E+05  0.2624512E-02  0.3295898E-02  0.3831676E+05  0.3548832E+05
