VARIABLES="w (rad/s)"
"A   1   1" "B   1   1"
"A   1   2" "B   1   2"
"A   1   3" "B   1   3"
Zone t="Motion of body    1 in DoF   1",I=    64,F=POINT
  0.5000000E-01  0.3310940E+06  0.3991342E-01  0.2048492E-01  0.1083560E-03 -0.9312281E+06 -0.1018387E+00
  0.8095238E-01  0.3331821E+06  0.1746311E+00 -0.8953319E-02 -0.6185661E-04 -0.9351549E+06 -0.4438955E+00
  0.1119048E+00  0.3335951E+06  0.4899771E+00 -0.2890729E-01 -0.1335772E-03 -0.9361794E+06 -0.1244128E+01
  0.1428571E+00  0.3343582E+06  0.1102897E+01  0.3866577E-01  0.3248577E-03 -0.9371694E+06 -0.2797946E+01
  0.1738095E+00  0.3348415E+06  0.2192379E+01  0.1676795E-01  0.1579612E-03 -0.9381419E+06 -0.5552355E+01
  0.2047619E+00  0.3354334E+06  0.4039031E+01 -0.1196041E-01 -0.1501003E-03 -0.9390881E+06 -0.1021228E+02
  0.2357143E+00  0.3360574E+06  0.7101820E+01  0.1281738E-01  0.5166084E-03 -0.9402461E+06 -0.1792672E+02
  0.2666667E+00  0.3368066E+06  0.1208970E+02  0.3444672E-01  0.3665853E-03 -0.9417737E+06 -0.3045140E+02
  0.2976190E+00  0.3377320E+06  0.2023767E+02 -0.2512207E-02  0.7119998E-03 -0.9434768E+06 -0.5086359E+02
  0.3285715E+00  0.3387512E+06  0.3341291E+02  0.1434989E-01  0.1244232E-02 -0.9452782E+06 -0.8374825E+02
  0.3595238E+00  0.3397375E+06  0.5472585E+02  0.1744352E-01  0.1523942E-02 -0.9473771E+06 -0.1368119E+03
  0.3904762E+00  0.3410682E+06  0.8897835E+02  0.1422417E-01  0.7587671E-04 -0.9496081E+06 -0.2216680E+03
  0.4214286E+00  0.3426619E+06  0.1428622E+03 -0.9124237E-02 -0.1185805E-02 -0.9527353E+06 -0.3546744E+03
  0.4523810E+00  0.3440471E+06  0.2272440E+03 -0.1430150E-01 -0.5921721E-03 -0.9556864E+06 -0.5623696E+03
  0.4833333E+00  0.3461216E+06  0.3528085E+03 -0.3769447E-01 -0.3653347E-02 -0.9595801E+06 -0.8694291E+03
  0.5142857E+00  0.3482462E+06  0.5389224E+03 -0.9138320E-02 -0.5301356E-02 -0.9635654E+06 -0.1322410E+04
  0.5452381E+00  0.3504689E+06  0.8035339E+03 -0.1701522E-01 -0.7677078E-04 -0.9678467E+06 -0.1962927E+04
  0.5761905E+00  0.3526198E+06  0.1169248E+04 -0.3654543E-02 -0.2470732E-02 -0.9723428E+06 -0.2843968E+04
  0.6071429E+00  0.3553234E+06  0.1671970E+04 -0.4272460E-02 -0.9365082E-03 -0.9777239E+06 -0.4047363E+04
  0.6380953E+00  0.3586255E+06  0.2340366E+04 -0.4419127E-01 -0.1420403E-01 -0.9836280E+06 -0.5632723E+04
  0.6690477E+00  0.3616675E+06  0.3217711E+04 -0.4561346E-03  0.4014969E-02 -0.9896015E+06 -0.7703016E+04
  0.7000000E+00  0.3649199E+06  0.4358884E+04 -0.6234305E-02  0.1545906E-02 -0.9962424E+06 -0.1037981E+05
  0.7309524E+00  0.3685632E+06  0.5816030E+04 -0.4592547E-02 -0.4863739E-02 -0.1003070E+07 -0.1376558E+05
  0.7619048E+00  0.3724311E+06  0.7659565E+04  0.2243042E-01  0.1339340E-01 -0.1010488E+07 -0.1801752E+05
  0.7928572E+00  0.3766325E+06  0.9970857E+04 -0.1616607E-01  0.1909256E-02 -0.1018247E+07 -0.2329889E+05
  0.8238096E+00  0.3809404E+06  0.1283338E+05  0.2489387E-01 -0.2674103E-02 -0.1025931E+07 -0.2977706E+05
  0.8547620E+00  0.3855036E+06  0.1634583E+05  0.6712167E-02  0.2517700E-02 -0.1034209E+07 -0.3765775E+05
  0.8857143E+00  0.3897139E+06  0.2059593E+05 -0.1674529E-01 -0.2716064E-02 -0.1041927E+07 -0.4711793E+05
  0.9166667E+00  0.3941922E+06  0.2571428E+05  0.3795277E-02 -0.1533508E-02 -0.1049916E+07 -0.5839382E+05
  0.9476191E+00  0.3985531E+06  0.3180094E+05  0.3928946E-02 -0.1332855E-01 -0.1057176E+07 -0.7164912E+05
  0.9785714E+00  0.4031902E+06  0.3900551E+05  0.2370124E-02  0.1068115E-03 -0.1064239E+07 -0.8712457E+05
  0.1009524E+01  0.4074533E+06  0.4742763E+05 -0.3210392E-01 -0.1632690E-01 -0.1070709E+07 -0.1050390E+06
  0.1040476E+01  0.4110823E+06  0.5714740E+05  0.1448921E-01  0.8834839E-02 -0.1075616E+07 -0.1254590E+06
  0.1071429E+01  0.4144285E+06  0.6830875E+05  0.9513346E-02 -0.4486084E-02 -0.1079915E+07 -0.1486405E+06
  0.1102381E+01  0.4168530E+06  0.8089471E+05  0.2591160E-01 -0.3173828E-02 -0.1081926E+07 -0.1744074E+06
  0.1133333E+01  0.4186392E+06  0.9497593E+05  0.3123564E-02  0.8239746E-02 -0.1082222E+07 -0.2027960E+06
  0.1164286E+01  0.4193106E+06  0.1105027E+06  0.1824315E-01  0.1202393E-01 -0.1080411E+07 -0.2336926E+06
  0.1195238E+01  0.4185772E+06  0.1273079E+06  0.6229963E-02  0.4608154E-02 -0.1075329E+07 -0.2665176E+06
  0.1226190E+01  0.4170752E+06  0.1454818E+06  0.1453466E-01  0.9521484E-02 -0.1068573E+07 -0.3014064E+06
  0.1257143E+01  0.4134231E+06  0.1643952E+06 -0.1883767E-01 -0.3222656E-01 -0.1057416E+07 -0.3369403E+06
  0.1288095E+01  0.4092511E+06  0.1844227E+06 -0.1269892E-01 -0.1879883E-01 -0.1044820E+07 -0.3736719E+06
  0.1319048E+01  0.4033031E+06  0.2047511E+06  0.5367568E-02  0.3601074E-02 -0.1029237E+07 -0.4101779E+06
  0.1350000E+01  0.3956182E+06  0.2250393E+06  0.1600477E-01 -0.9155273E-03 -0.1010734E+07 -0.4457285E+06
  0.1380952E+01  0.3863635E+06  0.2448319E+06 -0.2236412E-01 -0.1873779E-01 -0.9894104E+06 -0.4792633E+06
  0.1411905E+01  0.3748253E+06  0.2614560E+06  0.8732247E-02  0.1348877E-01 -0.9656080E+06 -0.5066596E+06
  0.1442857E+01  0.3633759E+06  0.2789985E+06 -0.1345191E-01  0.1947021E-01 -0.9407645E+06 -0.5339276E+06
  0.1473810E+01  0.3513293E+06  0.2951482E+06  0.6626111E-02 -0.6713867E-02 -0.9153453E+06 -0.5576963E+06
  0.1504762E+01  0.3389102E+06  0.3096140E+06 -0.1784699E-02  0.5004883E-02 -0.8895631E+06 -0.5773086E+06
  0.1535714E+01  0.3261311E+06  0.3223188E+06 -0.1279751E-01  0.1794434E-01 -0.8640987E+06 -0.5932844E+06
  0.1566667E+01  0.3130472E+06  0.3327140E+06  0.4830868E-02 -0.9887695E-02 -0.8383682E+06 -0.6039847E+06
  0.1597619E+01  0.3001423E+06  0.3412150E+06  0.4890089E-02 -0.5126953E-02 -0.8137394E+06 -0.6108856E+06
  0.1628572E+01  0.2877670E+06  0.3480504E+06 -0.1079359E-01  0.5615234E-02 -0.7908460E+06 -0.6146126E+06
  0.1659524E+01  0.2756488E+06  0.3525922E+06 -0.3273306E-02 -0.5493164E-02 -0.7688120E+06 -0.6136208E+06
  0.1690476E+01  0.2642034E+06  0.3554464E+06 -0.1877476E-02 -0.1281738E-01 -0.7486427E+06 -0.6096090E+06
  0.1721429E+01  0.2534691E+06  0.3565827E+06 -0.1808261E-02 -0.4150391E-02 -0.7300622E+06 -0.6022244E+06
  0.1752381E+01  0.2435410E+06  0.3565166E+06  0.1950471E-02 -0.1342773E-02 -0.7135680E+06 -0.5931084E+06
  0.1783333E+01  0.2342588E+06  0.3551211E+06 -0.8864358E-02 -0.1855469E-01 -0.6988401E+06 -0.5822162E+06
  0.1814286E+01  0.2255348E+06  0.3519410E+06  0.1698892E-01 -0.3051758E-02 -0.6850428E+06 -0.5673897E+06
  0.1845238E+01  0.2176862E+06  0.3481184E+06  0.1686933E-02 -0.5981445E-02 -0.6733254E+06 -0.5523428E+06
  0.1876190E+01  0.2107075E+06  0.3438396E+06 -0.7173180E-02 -0.4272461E-02 -0.6634832E+06 -0.5370732E+06
  0.1907143E+01  0.2043517E+06  0.3387141E+06  0.1003308E-01  0.1013184E-01 -0.6548498E+06 -0.5204007E+06
  0.1938095E+01  0.1986089E+06  0.3328335E+06  0.3385427E-02  0.1953125E-02 -0.6474103E+06 -0.5026243E+06
  0.1969048E+01  0.1935613E+06  0.3266236E+06  0.2960242E-02 -0.1403809E-01 -0.6413252E+06 -0.4848911E+06
  0.2000000E+01  0.1891540E+06  0.3200451E+06 -0.7720947E-02  0.4882812E-03 -0.6363374E+06 -0.4666116E+06
Zone t="Motion of body    1 in DoF   2",I=    64,F=POINT
  0.5000000E-01  0.1907349E-02 -0.2384186E-04  0.6488068E+05  0.2124215E+03 -0.3196716E-01 -0.1429319E-03
  0.8095238E-01  0.1536201E-01  0.4005432E-04  0.6388856E+05  0.3520867E+03 -0.5584043E-02 -0.3600121E-04
  0.1119048E+00  0.1629444E-01  0.3528595E-04  0.6336548E+05  0.5039143E+03  0.1738528E-01 -0.2944469E-03
  0.1428571E+00  0.4058838E-02 -0.1621246E-04  0.6307890E+05  0.6736118E+03 -0.6811905E-01 -0.1349449E-03
  0.1738095E+00  0.2352780E-01  0.1335144E-03  0.6299958E+05  0.8681450E+03 -0.5227912E-01  0.1788139E-03
  0.2047619E+00  0.1505297E-01 -0.9346008E-04  0.6305014E+05  0.1096625E+04  0.1482941E-01  0.1178741E-02
  0.2357143E+00 -0.1191110E-01 -0.1182556E-03  0.6322686E+05  0.1371394E+04 -0.3029563E-01 -0.1630783E-03
  0.2666667E+00  0.2403259E-01  0.1945496E-03  0.6348701E+05  0.1702597E+04  0.3436089E-01 -0.1511574E-02
  0.2976190E+00 -0.1343262E-01 -0.4386902E-03  0.6379868E+05  0.2114186E+04  0.6301025E-01  0.7858276E-03
  0.3285715E+00 -0.2229110E-02 -0.6561279E-03  0.6418427E+05  0.2617448E+04  0.4927262E-01 -0.2269745E-02
  0.3595238E+00  0.1315692E-01  0.1907349E-03  0.6451777E+05  0.3240890E+04 -0.1778306E-01  0.9918213E-04
  0.3904762E+00 -0.1875714E-01 -0.9307861E-03  0.6484091E+05  0.4003940E+04 -0.4958920E-01 -0.1081467E-02
  0.4214286E+00 -0.2259335E-01  0.1266479E-02  0.6495231E+05  0.4897909E+04  0.2958136E-01 -0.4156113E-02
  0.4523810E+00  0.6745990E-03 -0.3814697E-03  0.6498493E+05  0.5968492E+04  0.1585308E-01  0.4467010E-02
  0.4833333E+00 -0.2525593E-02 -0.1678467E-03  0.6476559E+05  0.7124018E+04  0.5524734E-02 -0.7019043E-03
  0.5142857E+00  0.5577935E-02 -0.2136230E-03  0.6430640E+05  0.8420230E+04 -0.3946093E-01  0.1968384E-02
  0.5452381E+00 -0.1343307E-02  0.1312256E-02  0.6370370E+05  0.9782159E+04  0.1625961E-01  0.1427460E-01
  0.5761905E+00  0.1684267E-01  0.9460449E-03  0.6292742E+05  0.1118475E+05 -0.1009766E+00 -0.1670074E-01
  0.6071429E+00 -0.4825367E-02  0.3662109E-02  0.6198111E+05  0.1266041E+05 -0.6144803E-01  0.4447937E-02
  0.6380953E+00 -0.4782605E-03  0.9765625E-03  0.6098570E+05  0.1412302E+05 -0.1377390E-01  0.2441406E-03
  0.6690477E+00  0.1167705E-01 -0.8850098E-03  0.5986845E+05  0.1560250E+05 -0.1952256E-01  0.4249573E-02
  0.7000000E+00 -0.3487723E-03 -0.3570557E-02  0.5865582E+05  0.1710359E+05 -0.9024483E-02 -0.5592346E-02
  0.7309524E+00  0.1920520E-01 -0.6866455E-02  0.5743324E+05  0.1858045E+05  0.3830602E-01 -0.1174927E-01
  0.7619048E+00 -0.1618194E-01 -0.3601074E-02  0.5614181E+05  0.2003998E+05 -0.2038765E-01  0.9536743E-02
  0.7928572E+00 -0.8467940E-03  0.6500244E-02  0.5478345E+05  0.2147685E+05 -0.6735861E-02 -0.3065491E-01
  0.8238096E+00  0.5704846E-02 -0.4882812E-02  0.5340242E+05  0.2287651E+05  0.2548659E-01 -0.1489258E-01
  0.8547620E+00 -0.1028247E-01 -0.2319336E-02  0.5202227E+05  0.2422562E+05  0.4191534E-01 -0.1899719E-01
  0.8857143E+00 -0.1199045E-01 -0.2502441E-02  0.5062975E+05  0.2552203E+05 -0.1932944E-01 -0.3295898E-02
  0.9166667E+00 -0.1598011E-02  0.4516602E-02  0.4924837E+05  0.2675314E+05 -0.2913041E-01 -0.2224731E-01
  0.9476191E+00 -0.1661751E-01 -0.3173828E-02  0.4785997E+05  0.2791987E+05  0.7954506E-02  0.2406311E-01
  0.9785714E+00  0.5176851E-02 -0.1055908E-01  0.4647941E+05  0.2901165E+05 -0.2388836E-01  0.1556396E-01
  0.1009524E+01 -0.7799257E-02  0.4943848E-02  0.4512293E+05  0.3002499E+05  0.3869399E-02  0.7141113E-02
  0.1040476E+01  0.8153850E-02  0.5615234E-02  0.4379014E+05  0.3095796E+05 -0.1786221E-01 -0.3509521E-02
  0.1071429E+01  0.2449544E-02  0.3417969E-02  0.4250225E+05  0.3180468E+05 -0.9755453E-02 -0.3393555E-01
  0.1102381E+01  0.1683147E-01  0.5493164E-03  0.4126252E+05  0.3257222E+05  0.1082418E-01 -0.1696777E-01
  0.1133333E+01  0.4469928E-02 -0.1306152E-01  0.4006421E+05  0.3325328E+05 -0.2261891E-01 -0.4077148E-01
  0.1164286E+01 -0.1520262E-02  0.9704590E-02  0.3892761E+05  0.3385501E+05 -0.5556820E-01 -0.1925659E-01
  0.1195238E+01 -0.8681096E-03  0.9033203E-02  0.3782389E+05  0.3438282E+05  0.5885272E-02  0.2380371E-01
  0.1226190E+01  0.4828296E-02 -0.3723145E-02  0.3677542E+05  0.3482368E+05 -0.2211310E-01 -0.1876831E-01
  0.1257143E+01  0.2864491E-02 -0.7934570E-02  0.3577138E+05  0.3521907E+05 -0.6797097E-03  0.3295898E-02
  0.1288095E+01 -0.1611057E-02  0.1428223E-01  0.3483923E+05  0.3550612E+05  0.2897534E-01  0.6134033E-02
  0.1319048E+01  0.5228751E-02 -0.3662109E-03  0.3395570E+05  0.3573645E+05  0.8976795E-02  0.1324463E-01
  0.1350000E+01 -0.1180013E-01 -0.3540039E-02  0.3313313E+05  0.3591512E+05  0.2320466E-01 -0.3857422E-01
  0.1380952E+01 -0.8176606E-02  0.4638672E-02  0.3236233E+05  0.3603258E+05  0.1241960E-01  0.7995605E-02
  0.1411905E+01 -0.5576534E-02  0.9277344E-02  0.3166042E+05  0.3623146E+05 -0.2701809E-02  0.3723145E-02
  0.1442857E+01 -0.1247897E-01 -0.1220703E-03  0.3099062E+05  0.3627166E+05 -0.5890497E-02  0.3073120E-01
  0.1473810E+01  0.9152315E-02  0.3295898E-02  0.3038379E+05  0.3627152E+05 -0.9835633E-02  0.6988525E-02
  0.1504762E+01 -0.8193390E-02  0.1733398E-01  0.2981834E+05  0.3623409E+05  0.2576659E-01  0.1681519E-01
  0.1535714E+01  0.1476483E-01  0.4394531E-02  0.2929698E+05  0.3618174E+05 -0.4322140E-02  0.7415771E-02
  0.1566667E+01  0.2629706E-02  0.6713867E-02  0.2879557E+05  0.3611211E+05 -0.1975201E-01 -0.9124756E-02
  0.1597619E+01  0.2148965E-01  0.7324219E-02  0.2834012E+05  0.3602909E+05 -0.8318882E-02 -0.7293701E-02
  0.1628572E+01  0.4665977E-02 -0.4882812E-03  0.2792537E+05  0.3592118E+05 -0.2106248E-01 -0.4397583E-01
  0.1659524E+01  0.6325939E-02 -0.3662109E-03  0.2752831E+05  0.3582012E+05 -0.8992396E-02 -0.1531982E-01
  0.1690476E+01  0.5235269E-02  0.1647949E-01  0.2716626E+05  0.3571854E+05 -0.5068282E-02  0.1098633E-01
  0.1721429E+01 -0.1150551E-01 -0.5493164E-02  0.2682045E+05  0.3560851E+05  0.4074793E-01 -0.2362061E-01
  0.1752381E+01 -0.8115354E-02 -0.2441406E-02  0.2649744E+05  0.3549949E+05  0.1319180E-02  0.1126099E-01
  0.1783333E+01 -0.9651541E-02  0.1647949E-01  0.2617913E+05  0.3542224E+05  0.1886243E-01 -0.1739502E-02
  0.1814286E+01 -0.1345657E-02 -0.1098633E-02  0.2584101E+05  0.3531233E+05 -0.1452469E-01  0.2624512E-02
  0.1845238E+01  0.4051947E-02 -0.4272461E-02  0.2552164E+05  0.3520902E+05  0.1188709E-01 -0.4821777E-02
  0.1876190E+01  0.5782462E-02 -0.3662109E-03  0.2520946E+05  0.3508784E+05  0.9352786E-04 -0.1104736E-01
  0.1907143E+01 -0.3352362E-02 -0.2197266E-02  0.2488682E+05  0.3494919E+05  0.2605881E-01  0.4638672E-02
  0.1938095E+01 -0.5920560E-02  0.1147461E-01  0.2456696E+05  0.3477286E+05 -0.2558359E-01  0.6622314E-02
  0.1969048E+01 -0.3781670E-02 -0.9643555E-02  0.2425246E+05  0.3455921E+05 -0.1536304E-01  0.1074219E-01
  0.2000000E+01  0.8785248E-02 -0.5126953E-02  0.2394032E+05  0.3427107E+05  0.2485847E-01  0.1278687E-01
Zone t="Motion of body    1 in DoF   3",I=    64,F=POINT
  0.5000000E-01 -0.9279034E+06 -0.1008126E+00 -0.1856995E+00 -0.6097688E-03  0.3476776E+07  0.2587762E+00
  0.8095238E-01 -0.9329523E+06 -0.4371237E+00 -0.1508399E+00 -0.1091185E-02  0.3483918E+07  0.1112211E+01
  0.1119048E+00 -0.9340854E+06 -0.1221852E+01 -0.6892752E-01 -0.6482056E-03  0.3485954E+07  0.3099332E+01
  0.1428571E+00 -0.9352284E+06 -0.2751052E+01 -0.1018982E+00 -0.1355310E-02  0.3487706E+07  0.6980672E+01
  0.1738095E+00 -0.9361956E+06 -0.5464046E+01  0.1562667E-01  0.7973304E-03  0.3489540E+07  0.1384160E+02
  0.2047619E+00 -0.9371576E+06 -0.1004924E+02  0.2846651E-01  0.3025550E-03  0.3491318E+07  0.2541083E+02
  0.2357143E+00 -0.9382615E+06 -0.1763731E+02 -0.1560096E-01 -0.7158592E-03  0.3493695E+07  0.4453041E+02
  0.2666667E+00 -0.9397581E+06 -0.2995670E+02 -0.1062584E+00 -0.2581351E-02  0.3496474E+07  0.7546706E+02
  0.2976190E+00 -0.9414490E+06 -0.5003658E+02 -0.1666260E-01 -0.1336895E-02  0.3499816E+07  0.1257635E+03
  0.3285715E+00 -0.9431956E+06 -0.8239008E+02 -0.1385763E+00 -0.7082686E-02  0.3503409E+07  0.2065003E+03
  0.3595238E+00 -0.9451637E+06 -0.1345501E+03 -0.1321633E+00 -0.7117689E-02  0.3507615E+07  0.3363468E+03
  0.3904762E+00 -0.9474588E+06 -0.2180865E+03 -0.1402878E+00 -0.9608746E-02  0.3512042E+07  0.5433183E+03
  0.4214286E+00 -0.9505195E+06 -0.3489198E+03 -0.1067391E+00 -0.6897151E-02  0.3517949E+07  0.8661912E+03
  0.4523810E+00 -0.9532614E+06 -0.5530403E+03  0.9471370E-01  0.4651666E-02  0.3523980E+07  0.1368685E+04
  0.4833333E+00 -0.9572310E+06 -0.8552329E+03 -0.2778152E-02  0.4085779E-02  0.3531631E+07  0.2107512E+04
  0.5142857E+00 -0.9611994E+06 -0.1300993E+04  0.1507823E+00  0.2098083E-01  0.3539379E+07  0.3192273E+04
  0.5452381E+00 -0.9653613E+06 -0.1931153E+04  0.6106448E-01  0.5838394E-02  0.3547830E+07  0.4717649E+04
  0.5761905E+00 -0.9696334E+06 -0.2796777E+04  0.2471848E+00  0.4305077E-01  0.3556747E+07  0.6802607E+04
  0.6071429E+00 -0.9749067E+06 -0.3979797E+04  0.7700482E-01  0.2504349E-02  0.3567544E+07  0.9634555E+04
  0.6380953E+00 -0.9809648E+06 -0.5541664E+04  0.9450428E-01  0.3860474E-01  0.3578733E+07  0.1333758E+05
  0.6690477E+00 -0.9867488E+06 -0.7576894E+04 -0.9122692E-02  0.1859665E-02  0.3590407E+07  0.1813846E+05
  0.7000000E+00 -0.9931248E+06 -0.1020495E+05  0.1656668E-01  0.1720428E-01  0.3603456E+07  0.2430147E+05
  0.7309524E+00 -0.9998771E+06 -0.1353439E+05  0.2705428E-01 -0.6908417E-02  0.3616254E+07  0.3203326E+05
  0.7619048E+00 -0.1007153E+07 -0.1771280E+05 -0.4766464E-01 -0.1807785E-01  0.3630410E+07  0.4166557E+05
  0.7928572E+00 -0.1014862E+07 -0.2290654E+05 -0.9468696E-02 -0.2311707E-02  0.3644832E+07  0.5352479E+05
  0.8238096E+00 -0.1022457E+07 -0.2928106E+05  0.1067621E+00  0.5168152E-01  0.3658933E+07  0.6793932E+05
  0.8547620E+00 -0.1030637E+07 -0.3702620E+05  0.1299590E+00  0.5159760E-01  0.3673302E+07  0.8529956E+05
  0.8857143E+00 -0.1038010E+07 -0.4630739E+05  0.2377418E-01  0.1873779E-01  0.3686865E+07  0.1059375E+06
  0.9166667E+00 -0.1045796E+07 -0.5737110E+05  0.1997514E-01  0.7690430E-02  0.3700349E+07  0.1302775E+06
  0.9476191E+00 -0.1052918E+07 -0.7039523E+05  0.2099732E-01 -0.5508423E-02  0.3712273E+07  0.1585990E+06
  0.9785714E+00 -0.1060069E+07 -0.8563448E+05  0.2120638E-01  0.1068115E-03  0.3722426E+07  0.1912692E+06
  0.1009524E+01 -0.1066480E+07 -0.1032397E+06 -0.7932267E-01 -0.5740356E-01  0.3731418E+07  0.2286349E+06
  0.1040476E+01 -0.1071240E+07 -0.1232997E+06 -0.8916440E-02 -0.1281738E-02  0.3736769E+07  0.2706737E+06
  0.1071429E+01 -0.1075380E+07 -0.1460304E+06  0.4557292E-03 -0.1998901E-01  0.3740251E+07  0.3177404E+06
  0.1102381E+01 -0.1077263E+07 -0.1713230E+06  0.3399513E-01 -0.3295898E-02  0.3739113E+07  0.3693449E+06
  0.1133333E+01 -0.1077548E+07 -0.1991877E+06 -0.2918917E-01 -0.2868652E-02  0.3733258E+07  0.4252831E+06
  0.1164286E+01 -0.1075703E+07 -0.2294636E+06  0.8073116E-02 -0.1049805E-01  0.3723607E+07  0.4852134E+06
  0.1195238E+01 -0.1070702E+07 -0.2617035E+06  0.6413798E-01  0.7360840E-01  0.3707526E+07  0.5478265E+06
  0.1226190E+01 -0.1064102E+07 -0.2959288E+06 -0.1373824E-01  0.1660156E-01  0.3687453E+07  0.6130142E+06
  0.1257143E+01 -0.1053177E+07 -0.3308295E+06  0.2349854E-01  0.3466797E-01  0.3659422E+07  0.6779320E+06
  0.1288095E+01 -0.1040948E+07 -0.3670337E+06 -0.8718664E-02  0.5285645E-01  0.3628193E+07  0.7435346E+06
  0.1319048E+01 -0.1025628E+07 -0.4028025E+06 -0.3007689E-01 -0.4943848E-01  0.3591179E+07  0.8067044E+06
  0.1350000E+01 -0.1007366E+07 -0.4375538E+06 -0.5922671E-01 -0.3039551E-01  0.3549946E+07  0.8663840E+06
  0.1380952E+01 -0.9863492E+06 -0.4703871E+06  0.4552381E-01  0.3356934E-01  0.3504306E+07  0.9205759E+06
  0.1411905E+01 -0.9643432E+06 -0.4986278E+06 -0.6397884E-02 -0.3454590E-01  0.3457688E+07  0.9659295E+06
  0.1442857E+01 -0.9399369E+06 -0.5255399E+06  0.1979715E-01  0.4882812E-03  0.3406974E+07  0.1005286E+07
  0.1473810E+01 -0.9150048E+06 -0.5490522E+06 -0.4141319E-03 -0.3649902E-01  0.3356580E+07  0.1036965E+07
  0.1504762E+01 -0.8897210E+06 -0.5684876E+06  0.2685161E-01  0.3222656E-01  0.3305736E+07  0.1059370E+07
  0.1535714E+01 -0.8646921E+06 -0.5841569E+06  0.2472066E-01 -0.5297852E-01  0.3257526E+07  0.1074480E+07
  0.1566667E+01 -0.8394202E+06 -0.5948289E+06  0.9427983E-02 -0.2758789E-01  0.3209668E+07  0.1078879E+07
  0.1597619E+01 -0.8152251E+06 -0.6017384E+06 -0.6101150E-01 -0.3222656E-01  0.3165378E+07  0.1076276E+07
  0.1628572E+01 -0.7927237E+06 -0.6052350E+06 -0.2585963E-02 -0.1806641E-01  0.3124892E+07  0.1067325E+07
  0.1659524E+01 -0.7710725E+06 -0.6043911E+06 -0.4990872E-01 -0.3417969E-01  0.3087269E+07  0.1050194E+07
  0.1690476E+01 -0.7512590E+06 -0.6006531E+06  0.2884814E-01  0.5102539E-01  0.3054288E+07  0.1028332E+07
  0.1721429E+01 -0.7330050E+06 -0.5935626E+06  0.5903442E-02  0.1953125E-02  0.3024160E+07  0.1000294E+07
  0.1752381E+01 -0.7167843E+06 -0.5844998E+06  0.4061160E-01  0.6762695E-01  0.2998229E+07  0.9694404E+06
  0.1783333E+01 -0.7022910E+06 -0.5737645E+06 -0.3362210E-01  0.2441406E-02  0.2977246E+07  0.9377825E+06
  0.1814286E+01 -0.6886894E+06 -0.5595251E+06  0.2855316E-02  0.1000977E-01  0.2957347E+07  0.8985043E+06
  0.1845238E+01 -0.6771604E+06 -0.5449098E+06  0.1266854E-01 -0.5859375E-02  0.2942104E+07  0.8607856E+06
  0.1876190E+01 -0.6675392E+06 -0.5297912E+06 -0.3682558E-01  0.2050781E-01  0.2930068E+07  0.8226349E+06
  0.1907143E+01 -0.6590672E+06 -0.5134827E+06 -0.1616174E-01  0.1953125E-02  0.2920398E+07  0.7835796E+06
  0.1938095E+01 -0.6517186E+06 -0.4963334E+06 -0.7196000E-02 -0.3149414E-01  0.2913130E+07  0.7437272E+06
  0.1969048E+01 -0.6457007E+06 -0.4790457E+06 -0.9454176E-03 -0.3588867E-01  0.2908228E+07  0.7053644E+06
  0.2000000E+01 -0.6407939E+06 -0.4610238E+06  0.1287842E-01 -0.1330566E-01  0.2904427E+07  0.6648282E+06
