VARIABLES="w (rad/s)"
"abs(F   1   1)" "angle(F   1   1)"
"abs(F   1   2)" "angle(F   1   2)"
"abs(F   1   3)" "angle(F   1   3)"
Zone t="Diffraction force - beta =   0.000 deg",I=    64,F=POINT
  0.5000000E-01  0.1572202E+04 -0.1570795E+01  0.2952009E+03 -0.3101351E+01  0.1774598E+04  0.1570798E+01
  0.8095238E-01  0.2571768E+04 -0.1570791E+01  0.7653147E+03 -0.3099955E+01  0.2890443E+04  0.1570800E+01
  0.1119048E+00  0.3598226E+04 -0.1570787E+01  0.1454529E+04 -0.3098277E+01  0.4041717E+04  0.1570804E+01
  0.1428571E+00  0.4666387E+04 -0.1570779E+01  0.2361700E+04 -0.3096106E+01  0.5246860E+04  0.1570809E+01
  0.1738095E+00  0.5783825E+04 -0.1570768E+01  0.3489735E+04 -0.3093375E+01  0.6500330E+04  0.1570818E+01
  0.2047619E+00  0.6947043E+04 -0.1570752E+01  0.4846750E+04 -0.3089995E+01  0.7822550E+04  0.1570830E+01
  0.2357143E+00  0.8232807E+04 -0.1570729E+01  0.6415489E+04 -0.3085555E+01  0.9261177E+04  0.1570848E+01
  0.2666667E+00  0.9575467E+04 -0.1570695E+01  0.8225405E+04 -0.3080309E+01  0.1078100E+05  0.1570874E+01
  0.2976190E+00  0.1105193E+05 -0.1570644E+01  0.1024969E+05 -0.3073556E+01  0.1246881E+05  0.1570913E+01
  0.3285715E+00  0.1270948E+05 -0.1570569E+01  0.1252291E+05 -0.3065636E+01  0.1433182E+05  0.1570971E+01
  0.3595238E+00  0.1453841E+05 -0.1570456E+01  0.1498786E+05 -0.3055781E+01  0.1640582E+05  0.1571059E+01
  0.3904762E+00  0.1651103E+05 -0.1570285E+01  0.1771923E+05 -0.3044426E+01  0.1866817E+05  0.1571190E+01
  0.4214286E+00  0.1881633E+05 -0.1570037E+01  0.2056673E+05 -0.3031304E+01  0.2127689E+05  0.1571383E+01
  0.4523810E+00  0.2132139E+05 -0.1569671E+01  0.2366131E+05 -0.3016465E+01  0.2413211E+05  0.1571668E+01
  0.4833333E+00  0.2408031E+05 -0.1569161E+01  0.2682867E+05 -0.3001203E+01  0.2724763E+05  0.1572065E+01
  0.5142857E+00  0.2707036E+05 -0.1568449E+01  0.3013601E+05 -0.2984757E+01  0.3070333E+05  0.1572618E+01
  0.5452381E+00  0.3039936E+05 -0.1567500E+01  0.3357752E+05 -0.2968640E+01  0.3448830E+05  0.1573360E+01
  0.5761905E+00  0.3399832E+05 -0.1566264E+01  0.3700341E+05 -0.2952336E+01  0.3859537E+05  0.1574329E+01
  0.6071429E+00  0.3774421E+05 -0.1564652E+01  0.4055993E+05 -0.2936052E+01  0.4288478E+05  0.1575593E+01
  0.6380953E+00  0.4169459E+05 -0.1562630E+01  0.4413159E+05 -0.2920717E+01  0.4738439E+05  0.1577185E+01
  0.6690477E+00  0.4602047E+05 -0.1560124E+01  0.4768458E+05 -0.2905252E+01  0.5239332E+05  0.1579161E+01
  0.7000000E+00  0.5057990E+05 -0.1557027E+01  0.5130762E+05 -0.2890218E+01  0.5759200E+05  0.1581617E+01
  0.7309524E+00  0.5532486E+05 -0.1553264E+01  0.5490978E+05 -0.2875805E+01  0.6297466E+05  0.1584613E+01
  0.7619048E+00  0.6039430E+05 -0.1548747E+01  0.5840005E+05 -0.2861118E+01  0.6877703E+05  0.1588220E+01
  0.7928572E+00  0.6551567E+05 -0.1543318E+01  0.6190344E+05 -0.2847130E+01  0.7467241E+05  0.1592561E+01
  0.8238096E+00  0.7093009E+05 -0.1536911E+01  0.6545368E+05 -0.2834243E+01  0.8099627E+05  0.1597690E+01
  0.8547620E+00  0.7679995E+05 -0.1529468E+01  0.6871783E+05 -0.2820423E+01  0.8749939E+05  0.1603726E+01
  0.8857143E+00  0.8299888E+05 -0.1520836E+01  0.7192963E+05 -0.2807165E+01  0.9463927E+05  0.1610723E+01
  0.9166667E+00  0.8923609E+05 -0.1510808E+01  0.7512173E+05 -0.2794944E+01  0.1017197E+06  0.1618889E+01
  0.9476191E+00  0.9569482E+05 -0.1499319E+01  0.7827439E+05 -0.2783705E+01  0.1091746E+06  0.1628260E+01
  0.9785714E+00  0.1023338E+06 -0.1486253E+01  0.8110867E+05 -0.2771670E+01  0.1166147E+06  0.1639000E+01
  0.1009524E+01  0.1093063E+06 -0.1471570E+01  0.8380149E+05 -0.2759933E+01  0.1246373E+06  0.1651078E+01
  0.1040476E+01  0.1163468E+06 -0.1455061E+01  0.8639508E+05 -0.2748947E+01  0.1327699E+06  0.1664678E+01
  0.1071429E+01  0.1237311E+06 -0.1436778E+01  0.8889438E+05 -0.2738925E+01  0.1410860E+06  0.1679843E+01
  0.1102381E+01  0.1312161E+06 -0.1416484E+01  0.9130984E+05 -0.2729975E+01  0.1496734E+06  0.1696711E+01
  0.1133333E+01  0.1387027E+06 -0.1394123E+01  0.9329062E+05 -0.2719599E+01  0.1578920E+06  0.1715466E+01
  0.1164286E+01  0.1463270E+06 -0.1369744E+01  0.9517409E+05 -0.2709880E+01  0.1665846E+06  0.1735880E+01
  0.1195238E+01  0.1536625E+06 -0.1343117E+01  0.9691450E+05 -0.2700804E+01  0.1750166E+06  0.1758194E+01
  0.1226190E+01  0.1606418E+06 -0.1314224E+01  0.9853355E+05 -0.2692624E+01  0.1829660E+06  0.1782440E+01
  0.1257143E+01  0.1671244E+06 -0.1283029E+01  0.1000660E+06 -0.2685171E+01  0.1906178E+06  0.1808469E+01
  0.1288095E+01  0.1736356E+06 -0.1250308E+01  0.1012636E+06 -0.2677735E+01  0.1980662E+06  0.1835908E+01
  0.1319048E+01  0.1796197E+06 -0.1215756E+01  0.1021620E+06 -0.2669462E+01  0.2046512E+06  0.1864912E+01
  0.1350000E+01  0.1854487E+06 -0.1179889E+01  0.1029462E+06 -0.2661720E+01  0.2114035E+06  0.1894871E+01
  0.1380952E+01  0.1903128E+06 -0.1142242E+01  0.1035779E+06 -0.2654657E+01  0.2170523E+06  0.1926252E+01
  0.1411905E+01  0.1938372E+06 -0.1102524E+01  0.1040639E+06 -0.2648168E+01  0.2212961E+06  0.1959062E+01
  0.1442857E+01  0.1968697E+06 -0.1062245E+01  0.1044464E+06 -0.2642367E+01  0.2250377E+06  0.1992184E+01
  0.1473810E+01  0.1989109E+06 -0.1021199E+01  0.1046398E+06 -0.2636873E+01  0.2276630E+06  0.2025697E+01
  0.1504762E+01  0.1999041E+06 -0.9799367E+00  0.1044308E+06 -0.2629889E+01  0.2286571E+06  0.2059193E+01
  0.1535714E+01  0.2000716E+06 -0.9388719E+00  0.1040784E+06 -0.2623309E+01  0.2289083E+06  0.2092056E+01
  0.1566667E+01  0.1993381E+06 -0.8980680E+00  0.1035988E+06 -0.2616925E+01  0.2285281E+06  0.2124073E+01
  0.1597619E+01  0.1972793E+06 -0.8573111E+00  0.1029810E+06 -0.2610854E+01  0.2265835E+06  0.2155480E+01
  0.1628572E+01  0.1940899E+06 -0.8170208E+00  0.1022179E+06 -0.2605071E+01  0.2232801E+06  0.2185817E+01
  0.1659524E+01  0.1900086E+06 -0.7775638E+00  0.1013367E+06 -0.2599587E+01  0.2192537E+06  0.2214619E+01
  0.1690476E+01  0.1850187E+06 -0.7390771E+00  0.1003230E+06 -0.2594649E+01  0.2142829E+06  0.2241596E+01
  0.1721429E+01  0.1792186E+06 -0.7022792E+00  0.9892690E+05 -0.2588298E+01  0.2079644E+06  0.2266238E+01
  0.1752381E+01  0.1727217E+06 -0.6670305E+00  0.9732155E+05 -0.2581610E+01  0.2007536E+06  0.2288595E+01
  0.1783333E+01  0.1656937E+06 -0.6330240E+00  0.9561050E+05 -0.2574985E+01  0.1934859E+06  0.2308703E+01
  0.1814286E+01  0.1580371E+06 -0.6003990E+00  0.9374921E+05 -0.2568484E+01  0.1856280E+06  0.2326212E+01
  0.1845238E+01  0.1496962E+06 -0.5688428E+00  0.9173598E+05 -0.2562295E+01  0.1768864E+06  0.2340972E+01
  0.1876190E+01  0.1408720E+06 -0.5385863E+00  0.8955782E+05 -0.2556593E+01  0.1675596E+06  0.2352617E+01
  0.1907143E+01  0.1317385E+06 -0.5097262E+00  0.8725097E+05 -0.2551619E+01  0.1581109E+06  0.2360929E+01
  0.1938095E+01  0.1222788E+06 -0.4820467E+00  0.8482758E+05 -0.2547576E+01  0.1484747E+06  0.2365643E+01
  0.1969048E+01  0.1125468E+06 -0.4557708E+00  0.8222197E+05 -0.2543771E+01  0.1384853E+06  0.2365916E+01
  0.2000000E+01  0.1026340E+06 -0.4307207E+00  0.7940031E+05 -0.2539857E+01  0.1280953E+06  0.2361064E+01
