VARIABLES="w (rad/s)"
"abs(F   1   1)" "angle(F   1   1)"
"abs(F   1   2)" "angle(F   1   2)"
"abs(F   1   3)" "angle(F   1   3)"
Zone t="Diffraction force - beta =   0.000 deg",I=    64,F=POINT
  0.5000000E-01  0.8775846E+03 -0.1570795E+01  0.6462861E+02 -0.3095201E+01  0.1607742E+04  0.1570797E+01
  0.8095238E-01  0.1437126E+04 -0.1570794E+01  0.1678690E+03 -0.3093619E+01  0.2628642E+04  0.1570798E+01
  0.1119048E+00  0.2006998E+04 -0.1570791E+01  0.3191510E+03 -0.3091605E+01  0.3662868E+04  0.1570800E+01
  0.1428571E+00  0.2591268E+04 -0.1570787E+01  0.5192502E+03 -0.3089067E+01  0.4727312E+04  0.1570803E+01
  0.1738095E+00  0.3202145E+04 -0.1570781E+01  0.7682479E+03 -0.3085796E+01  0.5827019E+04  0.1570808E+01
  0.2047619E+00  0.3838242E+04 -0.1570773E+01  0.1068772E+04 -0.3081748E+01  0.6979818E+04  0.1570814E+01
  0.2357143E+00  0.4515254E+04 -0.1570761E+01  0.1420515E+04 -0.3076565E+01  0.8190750E+04  0.1570823E+01
  0.2666667E+00  0.5239865E+04 -0.1570743E+01  0.1826265E+04 -0.3070275E+01  0.9480727E+04  0.1570837E+01
  0.2976190E+00  0.6013922E+04 -0.1570716E+01  0.2288358E+04 -0.3062373E+01  0.1086886E+05  0.1570856E+01
  0.3285715E+00  0.6862440E+04 -0.1570676E+01  0.2807229E+04 -0.3052873E+01  0.1236038E+05  0.1570886E+01
  0.3595238E+00  0.7794055E+04 -0.1570617E+01  0.3382032E+04 -0.3041252E+01  0.1398639E+05  0.1570930E+01
  0.3904762E+00  0.8803788E+04 -0.1570529E+01  0.4018987E+04 -0.3027561E+01  0.1576752E+05  0.1570996E+01
  0.4214286E+00  0.9916371E+04 -0.1570399E+01  0.4707909E+04 -0.3012120E+01  0.1770534E+05  0.1571091E+01
  0.4523810E+00  0.1114852E+05 -0.1570209E+01  0.5451388E+04 -0.2994162E+01  0.1979941E+05  0.1571232E+01
  0.4833333E+00  0.1248086E+05 -0.1569947E+01  0.6239964E+04 -0.2975891E+01  0.2206697E+05  0.1571425E+01
  0.5142857E+00  0.1389404E+05 -0.1569582E+01  0.7076659E+04 -0.2956126E+01  0.2449318E+05  0.1571693E+01
  0.5452381E+00  0.1540719E+05 -0.1569096E+01  0.7954461E+04 -0.2936306E+01  0.2702791E+05  0.1572049E+01
  0.5761905E+00  0.1700995E+05 -0.1568467E+01  0.8861792E+04 -0.2916538E+01  0.2967157E+05  0.1572509E+01
  0.6071429E+00  0.1868299E+05 -0.1567656E+01  0.9804465E+04 -0.2896242E+01  0.3240420E+05  0.1573101E+01
  0.6380953E+00  0.2039650E+05 -0.1566644E+01  0.1079119E+05 -0.2877182E+01  0.3521302E+05  0.1573835E+01
  0.6690477E+00  0.2214853E+05 -0.1565388E+01  0.1180414E+05 -0.2858142E+01  0.3805650E+05  0.1574740E+01
  0.7000000E+00  0.2396557E+05 -0.1563851E+01  0.1283550E+05 -0.2838777E+01  0.4090861E+05  0.1575848E+01
  0.7309524E+00  0.2583496E+05 -0.1562004E+01  0.1389348E+05 -0.2820004E+01  0.4377466E+05  0.1577175E+01
  0.7619048E+00  0.2772000E+05 -0.1559794E+01  0.1497083E+05 -0.2801474E+01  0.4665502E+05  0.1578753E+01
  0.7928572E+00  0.2961465E+05 -0.1557174E+01  0.1606972E+05 -0.2783299E+01  0.4953811E+05  0.1580611E+01
  0.8238096E+00  0.3150730E+05 -0.1554097E+01  0.1718455E+05 -0.2765481E+01  0.5238124E+05  0.1582779E+01
  0.8547620E+00  0.3342375E+05 -0.1550534E+01  0.1830765E+05 -0.2747983E+01  0.5516257E+05  0.1585279E+01
  0.8857143E+00  0.3534559E+05 -0.1546434E+01  0.1942663E+05 -0.2730598E+01  0.5787405E+05  0.1588142E+01
  0.9166667E+00  0.3727770E+05 -0.1541760E+01  0.2054773E+05 -0.2713622E+01  0.6052436E+05  0.1591388E+01
  0.9476191E+00  0.3918329E+05 -0.1536459E+01  0.2166532E+05 -0.2697062E+01  0.6308873E+05  0.1595039E+01
  0.9785714E+00  0.4105052E+05 -0.1530488E+01  0.2278371E+05 -0.2681165E+01  0.6556478E+05  0.1599112E+01
  0.1009524E+01  0.4284736E+05 -0.1523795E+01  0.2389414E+05 -0.2665787E+01  0.6793893E+05  0.1603618E+01
  0.1040476E+01  0.4459484E+05 -0.1516376E+01  0.2499505E+05 -0.2650978E+01  0.7017598E+05  0.1608561E+01
  0.1071429E+01  0.4628364E+05 -0.1508219E+01  0.2607515E+05 -0.2636531E+01  0.7223277E+05  0.1613946E+01
  0.1102381E+01  0.4791821E+05 -0.1499323E+01  0.2713208E+05 -0.2622549E+01  0.7412374E+05  0.1619760E+01
  0.1133333E+01  0.4946948E+05 -0.1489670E+01  0.2816174E+05 -0.2608980E+01  0.7583506E+05  0.1625988E+01
  0.1164286E+01  0.5090208E+05 -0.1479230E+01  0.2916456E+05 -0.2595964E+01  0.7736469E+05  0.1632608E+01
  0.1195238E+01  0.5221734E+05 -0.1468027E+01  0.3014261E+05 -0.2583707E+01  0.7871418E+05  0.1639573E+01
  0.1226190E+01  0.5337803E+05 -0.1456054E+01  0.3109661E+05 -0.2572296E+01  0.7984233E+05  0.1646840E+01
  0.1257143E+01  0.5434536E+05 -0.1443263E+01  0.3202100E+05 -0.2561347E+01  0.8074043E+05  0.1654374E+01
  0.1288095E+01  0.5518151E+05 -0.1429940E+01  0.3291818E+05 -0.2551931E+01  0.8140495E+05  0.1662006E+01
  0.1319048E+01  0.5581533E+05 -0.1415954E+01  0.3377556E+05 -0.2542741E+01  0.8183511E+05  0.1669742E+01
  0.1350000E+01  0.5622789E+05 -0.1401418E+01  0.3458438E+05 -0.2533957E+01  0.8195610E+05  0.1677466E+01
  0.1380952E+01  0.5646346E+05 -0.1386508E+01  0.3535466E+05 -0.2526084E+01  0.8186109E+05  0.1685049E+01
  0.1411905E+01  0.5631656E+05 -0.1371673E+01  0.3607963E+05 -0.2518359E+01  0.8149935E+05  0.1691945E+01
  0.1442857E+01  0.5608936E+05 -0.1356193E+01  0.3676243E+05 -0.2511853E+01  0.8089213E+05  0.1698875E+01
  0.1473810E+01  0.5562541E+05 -0.1340613E+01  0.3740677E+05 -0.2506341E+01  0.8005655E+05  0.1705273E+01
  0.1504762E+01  0.5491302E+05 -0.1325083E+01  0.3800953E+05 -0.2501701E+01  0.7898338E+05  0.1710978E+01
  0.1535714E+01  0.5395448E+05 -0.1309752E+01  0.3857024E+05 -0.2497849E+01  0.7771684E+05  0.1715868E+01
  0.1566667E+01  0.5272745E+05 -0.1294758E+01  0.3908205E+05 -0.2494625E+01  0.7622098E+05  0.1719756E+01
  0.1597619E+01  0.5127216E+05 -0.1280421E+01  0.3955688E+05 -0.2492465E+01  0.7456354E+05  0.1722469E+01
  0.1628572E+01  0.4957108E+05 -0.1266891E+01  0.3999245E+05 -0.2491279E+01  0.7274016E+05  0.1723859E+01
  0.1659524E+01  0.4762831E+05 -0.1254413E+01  0.4038193E+05 -0.2490911E+01  0.7076712E+05  0.1723753E+01
  0.1690476E+01  0.4547146E+05 -0.1243376E+01  0.4073871E+05 -0.2491695E+01  0.6869223E+05  0.1722005E+01
  0.1721429E+01  0.4309749E+05 -0.1234140E+01  0.4106191E+05 -0.2493530E+01  0.6650859E+05  0.1718427E+01
  0.1752381E+01  0.4053592E+05 -0.1227106E+01  0.4135355E+05 -0.2496222E+01  0.6429128E+05  0.1713009E+01
  0.1783333E+01  0.3778283E+05 -0.1222859E+01  0.4161551E+05 -0.2499499E+01  0.6201709E+05  0.1705545E+01
  0.1814286E+01  0.3487400E+05 -0.1222195E+01  0.4185944E+05 -0.2503636E+01  0.5974231E+05  0.1696049E+01
  0.1845238E+01  0.3183241E+05 -0.1226330E+01  0.4208870E+05 -0.2508799E+01  0.5747291E+05  0.1684346E+01
  0.1876190E+01  0.2867438E+05 -0.1236743E+01  0.4230839E+05 -0.2514791E+01  0.5523727E+05  0.1670544E+01
  0.1907143E+01  0.2542328E+05 -0.1255771E+01  0.4250477E+05 -0.2521172E+01  0.5304707E+05  0.1654616E+01
  0.1938095E+01  0.2212503E+05 -0.1287333E+01  0.4270387E+05 -0.2528326E+01  0.5093016E+05  0.1636675E+01
  0.1969048E+01  0.1881583E+05 -0.1337771E+01  0.4290091E+05 -0.2535871E+01  0.4889508E+05  0.1616893E+01
  0.2000000E+01  0.1556396E+05 -0.1418559E+01  0.4309696E+05 -0.2543638E+01  0.4693811E+05  0.1595250E+01
