VARIABLES="w (rad/s)"
"A   1   1" "B   1   1"
"A   1   2" "B   1   2"
"A   1   3" "B   1   3"
Zone t="Motion of body    1 in DoF   1",I=    64,F=POINT
  0.5000000E-01  0.5370027E+05  0.3719823E-02  0.1026154E-01  0.2068807E-04 -0.5100580E+05 -0.1902548E-02
  0.8095238E-01  0.5390753E+05  0.1620867E-01 -0.1178068E-03 -0.7748429E-05 -0.5098337E+05 -0.8049948E-02
  0.1119048E+00  0.5416973E+05  0.4558923E-01  0.3630456E-02  0.9647221E-05 -0.5124003E+05 -0.2266167E-01
  0.1428571E+00  0.5445855E+05  0.1028560E+00 -0.1068115E-03  0.1907174E-04 -0.5149512E+05 -0.5134004E-01
  0.1738095E+00  0.5436842E+05  0.2049293E+00 -0.2414233E-02 -0.2550776E-04 -0.5139195E+05 -0.1025504E+00
  0.2047619E+00  0.5459373E+05  0.3790379E+00  0.3725983E-02  0.8408772E-04 -0.5159443E+05 -0.1907396E+00
  0.2357143E+00  0.5472239E+05  0.6686354E+00 -0.6797097E-03 -0.2226140E-04 -0.5166056E+05 -0.3375210E+00
  0.2666667E+00  0.5474536E+05  0.1142179E+01  0.3576278E-02  0.4007760E-04 -0.5170038E+05 -0.5785196E+00
  0.2976190E+00  0.5502739E+05  0.1921576E+01 -0.1794434E-02 -0.3068894E-04 -0.5190521E+05 -0.9780022E+00
  0.3285715E+00  0.5519269E+05  0.3187832E+01  0.6780209E-02  0.1254156E-03 -0.5204411E+05 -0.1631353E+01
  0.3595238E+00  0.5534218E+05  0.5247724E+01 -0.1018600E-02  0.1638010E-04 -0.5207386E+05 -0.2697550E+01
  0.3904762E+00  0.5557475E+05  0.8582498E+01 -0.4845595E-02 -0.3066435E-03 -0.5229139E+05 -0.4442165E+01
  0.4214286E+00  0.5595697E+05  0.1386767E+02 -0.3367278E-02 -0.4484057E-03 -0.5249711E+05 -0.7220290E+01
  0.4523810E+00  0.5622405E+05  0.2219607E+02  0.7825349E-02  0.7230043E-03 -0.5275669E+05 -0.1164564E+02
  0.4833333E+00  0.5632002E+05  0.3461695E+02  0.6692820E-02  0.6777048E-03 -0.5283582E+05 -0.1829176E+02
  0.5142857E+00  0.5689240E+05  0.5326653E+02 -0.6260342E-02 -0.1121938E-02 -0.5324815E+05 -0.2836972E+02
  0.5452381E+00  0.5731053E+05  0.7995529E+02 -0.3134382E-02 -0.7644892E-03 -0.5355555E+05 -0.4293389E+02
  0.5761905E+00  0.5764251E+05  0.1171429E+03  0.4422526E-02  0.3976822E-03 -0.5368439E+05 -0.6333479E+02
  0.6071429E+00  0.5798346E+05  0.1684733E+03  0.2362419E-02  0.6150007E-03 -0.5402424E+05 -0.9194644E+02
  0.6380953E+00  0.5849375E+05  0.2371817E+03  0.4806519E-02  0.1083612E-02 -0.5441895E+05 -0.1306055E+03
  0.6690477E+00  0.5915581E+05  0.3285548E+03  0.7070086E-02  0.1425505E-02 -0.5477409E+05 -0.1823076E+03
  0.7000000E+00  0.5978613E+05  0.4483098E+03 -0.8501325E-02 -0.2512455E-02 -0.5531954E+05 -0.2513781E+03
  0.7309524E+00  0.6027209E+05  0.6017306E+03  0.3465286E-02  0.1222610E-02 -0.5567526E+05 -0.3406026E+03
  0.7619048E+00  0.6077157E+05  0.7969849E+03  0.2463341E-02  0.3461838E-03 -0.5595730E+05 -0.4549041E+03
  0.7928572E+00  0.6156234E+05  0.1044374E+04 -0.2309438E-02 -0.1151085E-02 -0.5659882E+05 -0.6020950E+03
  0.8238096E+00  0.6240171E+05  0.1353390E+04  0.7038447E-03  0.4100800E-04 -0.5718733E+05 -0.7875266E+03
  0.8547620E+00  0.6321597E+05  0.1735335E+04 -0.2927647E-02 -0.9670258E-03 -0.5785241E+05 -0.1020896E+04
  0.8857143E+00  0.6403496E+05  0.2203412E+04  0.3790086E-03 -0.3019333E-02 -0.5832152E+05 -0.1307340E+04
  0.9166667E+00  0.6490166E+05  0.2772814E+04 -0.2796520E-02 -0.2151489E-02 -0.5906514E+05 -0.1663851E+04
  0.9476191E+00  0.6564798E+05  0.3455247E+04  0.3478084E-02  0.2792358E-02 -0.5962604E+05 -0.2093908E+04
  0.9785714E+00  0.6643170E+05  0.4269351E+04  0.1340991E-02  0.1258850E-03 -0.6028344E+05 -0.2614527E+04
  0.1009524E+01  0.6744616E+05  0.5235570E+04 -0.4534452E-03 -0.2250671E-03 -0.6099164E+05 -0.3232272E+04
  0.1040476E+01  0.6853540E+05  0.6376073E+04  0.3109022E-02  0.2490997E-02 -0.6180563E+05 -0.3973637E+04
  0.1071429E+01  0.6954795E+05  0.7707552E+04  0.2164714E-02  0.3021240E-02 -0.6267885E+05 -0.4855446E+04
  0.1102381E+01  0.7043900E+05  0.9247808E+04  0.1384167E-02  0.8926392E-03 -0.6339621E+05 -0.5886346E+04
  0.1133333E+01  0.7126157E+05  0.1101921E+05 -0.4308364E-03 -0.2136230E-03 -0.6415786E+05 -0.7094219E+04
  0.1164286E+01  0.7200764E+05  0.1303561E+05 -0.7863425E-03 -0.1098633E-02 -0.6475155E+05 -0.8472630E+04
  0.1195238E+01  0.7269879E+05  0.1531479E+05  0.3932026E-02  0.5706787E-02 -0.6531718E+05 -0.1004572E+05
  0.1226190E+01  0.7331570E+05  0.1786756E+05 -0.2687917E-02 -0.3997803E-02 -0.6600257E+05 -0.1184449E+05
  0.1257143E+01  0.7377723E+05  0.2067975E+05  0.1335144E-02 -0.1525879E-04 -0.6646002E+05 -0.1381980E+05
  0.1288095E+01  0.7426472E+05  0.2378184E+05 -0.2227050E-02 -0.5325317E-02 -0.6696377E+05 -0.1603266E+05
  0.1319048E+01  0.7449857E+05  0.2716659E+05  0.3493547E-02  0.8148193E-02 -0.6737367E+05 -0.1850599E+05
  0.1350000E+01  0.7453527E+05  0.3081002E+05  0.2328378E-02  0.3250122E-02 -0.6744477E+05 -0.2114137E+05
  0.1380952E+01  0.7442055E+05  0.3471757E+05  0.1215442E-02  0.4180908E-02 -0.6750812E+05 -0.2402972E+05
  0.1411905E+01  0.7394594E+05  0.3881704E+05  0.1794001E-02  0.4638672E-02 -0.6747377E+05 -0.2714275E+05
  0.1442857E+01  0.7334533E+05  0.4308481E+05  0.5076191E-03 -0.3387451E-02 -0.6722648E+05 -0.3037503E+05
  0.1473810E+01  0.7252675E+05  0.4746673E+05  0.2070660E-03  0.5828857E-02 -0.6677551E+05 -0.3371296E+05
  0.1504762E+01  0.7147320E+05  0.5195655E+05 -0.1034314E-02 -0.6408691E-02 -0.6623952E+05 -0.3725198E+05
  0.1535714E+01  0.7018327E+05  0.5647474E+05  0.6557730E-03 -0.4028320E-02 -0.6545084E+05 -0.4082797E+05
  0.1566667E+01  0.6867786E+05  0.6094572E+05  0.1441468E-02  0.3143311E-02 -0.6434495E+05 -0.4431048E+05
  0.1597619E+01  0.6702226E+05  0.6537056E+05  0.9932994E-03  0.8544922E-03 -0.6324341E+05 -0.4788195E+05
  0.1628572E+01  0.6524542E+05  0.6966757E+05  0.2698396E-02  0.3570557E-02 -0.6213181E+05 -0.5143846E+05
  0.1659524E+01  0.6323948E+05  0.7373310E+05  0.9194679E-03 -0.4821777E-02 -0.6074673E+05 -0.5482231E+05
  0.1690476E+01  0.6107552E+05  0.7755672E+05  0.2581529E-02  0.4516602E-02 -0.5917356E+05 -0.5805632E+05
  0.1721429E+01  0.5882143E+05  0.8114845E+05 -0.4077452E-03 -0.3295898E-02 -0.5758617E+05 -0.6123525E+05
  0.1752381E+01  0.5650025E+05  0.8445373E+05  0.2124621E-02 -0.2593994E-02 -0.5592879E+05 -0.6424767E+05
  0.1783333E+01  0.5418481E+05  0.8741888E+05 -0.4962672E-03  0.1983643E-02 -0.5414989E+05 -0.6683077E+05
  0.1814286E+01  0.5187936E+05  0.9006704E+05  0.1597968E-02  0.4058838E-02 -0.5229607E+05 -0.6909355E+05
  0.1845238E+01  0.4961662E+05  0.9246555E+05  0.1405778E-02 -0.4730225E-02 -0.5058570E+05 -0.7138009E+05
  0.1876190E+01  0.4739337E+05  0.9458116E+05 -0.3985100E-03  0.4394531E-02 -0.4893071E+05 -0.7353014E+05
  0.1907143E+01  0.4516768E+05  0.9633025E+05  0.1256136E-02  0.4791260E-02 -0.4719902E+05 -0.7531386E+05
  0.1938095E+01  0.4301265E+05  0.9778595E+05  0.1259694E-02 -0.2258301E-02 -0.4547739E+05 -0.7683323E+05
  0.1969048E+01  0.4090897E+05  0.9895738E+05  0.9996629E-03 -0.7324219E-03 -0.4376631E+05 -0.7817755E+05
  0.2000000E+01  0.3888457E+05  0.9987899E+05  0.1022339E-02  0.6103516E-03 -0.4212178E+05 -0.7940741E+05
Zone t="Motion of body    1 in DoF   2",I=    64,F=POINT
  0.5000000E-01 -0.3128052E-02 -0.2384186E-06  0.8244253E+05  0.1456326E+03 -0.1068115E-01 -0.1239777E-04
  0.8095238E-01 -0.4005432E-02  0.2384186E-05  0.8215559E+05  0.2413606E+03 -0.2638873E-02 -0.4196167E-04
  0.1119048E+00  0.1704439E-03  0.1192093E-04  0.8175584E+05  0.3454074E+03  0.4908785E-02 -0.2193451E-04
  0.1428571E+00 -0.2136230E-02  0.9536743E-05  0.8156480E+05  0.4616833E+03  0.2990722E-02  0.3433228E-04
  0.1738095E+00 -0.4389515E-03 -0.1811981E-04  0.8155253E+05  0.5949335E+03  0.9832513E-02  0.1335144E-04
  0.2047619E+00  0.1788472E-02  0.6580353E-04  0.8153512E+05  0.7513999E+03 -0.1192315E-02  0.5340576E-04
  0.2357143E+00 -0.4434296E-02 -0.1125336E-03  0.8161230E+05  0.9394944E+03  0.5178740E-03  0.1411438E-03
  0.2666667E+00 -0.5722046E-04 -0.1125336E-03  0.8183293E+05  0.1166157E+04 -0.2746582E-02 -0.6866455E-04
  0.2976190E+00 -0.9741211E-03  0.5722046E-04  0.8195527E+05  0.1447753E+04  0.1004883E-01 -0.2212524E-03
  0.3285715E+00  0.1068115E-02 -0.8964539E-04  0.8224414E+05  0.1792019E+04 -0.3157906E-02  0.5111694E-03
  0.3595238E+00 -0.1952316E-02 -0.3814697E-04  0.8238036E+05  0.2218275E+04  0.1392087E-01  0.1754761E-03
  0.3904762E+00  0.2110179E-02 -0.6484985E-04  0.8258420E+05  0.2739939E+04  0.9378572E-03 -0.2517700E-03
  0.4214286E+00 -0.1593121E-02  0.1068115E-03  0.8263655E+05  0.3350492E+04 -0.5213850E-02 -0.1831055E-03
  0.4523810E+00  0.3811485E-02  0.8392334E-04  0.8254952E+05  0.4082489E+04 -0.3777755E-02 -0.8239746E-03
  0.4833333E+00  0.0000000E+00  0.2365112E-03  0.8248380E+05  0.4868337E+04  0.2273033E-02  0.9002686E-03
  0.5142857E+00 -0.1246135E-02  0.6790161E-03  0.8197027E+05  0.5751936E+04  0.8782282E-02 -0.1525879E-03
  0.5452381E+00  0.2574671E-02 -0.4882812E-03  0.8159560E+05  0.6676484E+04 -0.8955377E-03  0.6103516E-03
  0.5761905E+00  0.1588932E-02  0.3967285E-03  0.8094568E+05  0.7626351E+04  0.4237151E-02 -0.1434326E-02
  0.6071429E+00  0.2010570E-02  0.5187988E-03  0.8016164E+05  0.8628126E+04  0.2010570E-02 -0.1831055E-03
  0.6380953E+00 -0.4017388E-02  0.1235962E-02  0.7957952E+05  0.9603712E+04  0.6121735E-02 -0.2532959E-02
  0.6690477E+00 -0.2782421E-02  0.4882812E-03  0.7861435E+05  0.1059462E+05  0.8940239E-02  0.3662109E-03
  0.7000000E+00  0.5362374E-02 -0.3662109E-03  0.7764495E+05  0.1159841E+05 -0.8719307E-03 -0.6103516E-03
  0.7309524E+00 -0.4049791E-02  0.6408691E-03  0.7683419E+05  0.1256473E+05 -0.5010052E-03 -0.3295898E-02
  0.7619048E+00 -0.1041412E-02  0.1007080E-02  0.7582234E+05  0.1351533E+05  0.8331298E-02 -0.3662109E-03
  0.7928572E+00  0.9237753E-03 -0.5187988E-03  0.7471288E+05  0.1444781E+05  0.9237753E-03  0.3662109E-03
  0.8238096E+00  0.9631559E-03 -0.2075195E-02  0.7368498E+05  0.1533740E+05  0.8890670E-03 -0.1464844E-02
  0.8547620E+00  0.1570933E-02  0.3051758E-04  0.7282648E+05  0.1616778E+05  0.1156778E-01  0.2075195E-02
  0.8857143E+00 -0.1137026E-02  0.7324219E-03  0.7160730E+05  0.1696667E+05 -0.1378213E-03  0.3356934E-02
  0.9166667E+00  0.8655895E-03  0.9460449E-03  0.7051039E+05  0.1770702E+05 -0.9588068E-02 -0.2746582E-02
  0.9476191E+00  0.1932269E-02 -0.6103516E-04  0.6946627E+05  0.1837515E+05  0.2576358E-02 -0.1892090E-02
  0.9785714E+00 -0.1216248E-02  0.1983643E-02  0.6856538E+05  0.1896198E+05 -0.6611399E-02 -0.3845215E-02
  0.1009524E+01 -0.3174116E-02 -0.3051758E-03  0.6751866E+05  0.1948690E+05  0.5804098E-02  0.1281738E-02
  0.1040476E+01 -0.3490317E-02  0.3173828E-02  0.6640799E+05  0.1994743E+05  0.5162150E-02 -0.4577637E-02
  0.1071429E+01 -0.4044597E-02  0.7629395E-03  0.6541891E+05  0.2033257E+05  0.7291667E-02  0.3662109E-03
  0.1102381E+01  0.1661000E-03 -0.3479004E-02  0.6452614E+05  0.2062648E+05 -0.4429333E-03  0.4028320E-02
  0.1133333E+01  0.1279046E-02 -0.1831055E-02  0.6378295E+05  0.2083177E+05  0.6677964E-02  0.4211426E-02
  0.1164286E+01 -0.1100879E-02 -0.6713867E-03  0.6288945E+05  0.2096369E+05  0.1467839E-02 -0.3967285E-02
  0.1195238E+01  0.1634089E-02  0.6103516E-04  0.6196161E+05  0.2102436E+05  0.4289483E-02 -0.3967285E-02
  0.1226190E+01 -0.1991050E-03  0.6103516E-04  0.6116824E+05  0.2102353E+05  0.5375835E-02  0.3051758E-02
  0.1257143E+01 -0.3034418E-03  0.2502441E-02  0.6047120E+05  0.2095328E+05  0.4466664E-02  0.3356934E-02
  0.1288095E+01  0.1421521E-02  0.3234863E-02  0.5989920E+05  0.2078085E+05 -0.1895362E-03 -0.3479004E-02
  0.1319048E+01  0.1087395E-02 -0.1037598E-02  0.5946862E+05  0.2055081E+05  0.1110531E-01  0.2014160E-02
  0.1350000E+01 -0.1684118E-02  0.4699707E-02  0.5876995E+05  0.2024569E+05  0.1265914E-02 -0.7873535E-02
  0.1380952E+01 -0.7624133E-03 -0.4272461E-02  0.5816054E+05  0.1988702E+05 -0.1414332E-02 -0.9155273E-03
  0.1411905E+01 -0.1699438E-02 -0.2136230E-02  0.5766696E+05  0.1950992E+05  0.5187474E-03  0.1831055E-03
  0.1442857E+01  0.2194395E-02  0.1159668E-02  0.5726049E+05  0.1907194E+05  0.6429842E-02 -0.3723145E-02
  0.1473810E+01  0.2667592E-02 -0.4272461E-03  0.5696144E+05  0.1859459E+05  0.2816097E-02 -0.9399414E-02
  0.1504762E+01 -0.1848076E-02 -0.1342773E-02  0.5678134E+05  0.1810092E+05  0.3244907E-02 -0.1037598E-02
  0.1535714E+01 -0.2732388E-04  0.2258301E-02  0.5657361E+05  0.1754520E+05  0.2861555E-02 -0.1849365E-01
  0.1566667E+01  0.7791722E-03  0.5981445E-02  0.5621625E+05  0.1688304E+05 -0.4675033E-03 -0.9521484E-02
  0.1597619E+01 -0.4202421E-03  0.7934570E-03  0.5595847E+05  0.1624361E+05  0.0000000E+00 -0.2502441E-02
  0.1628572E+01 -0.1222711E-02 -0.4028320E-02  0.5578467E+05  0.1563778E+05 -0.1499109E-02  0.1031494E-01
  0.1659524E+01 -0.2657262E-02 -0.1525879E-02  0.5567190E+05  0.1500532E+05  0.2942297E-02 -0.4760742E-02
  0.1690476E+01 -0.1615712E-02 -0.1647949E-02  0.5562968E+05  0.1435787E+05  0.4765900E-02 -0.9643555E-02
  0.1721429E+01 -0.2393287E-02  0.2624512E-02  0.5567271E+05  0.1377867E+05  0.7091222E-03  0.6958008E-02
  0.1752381E+01 -0.1018773E-02  0.4150391E-02  0.5578044E+05  0.1321969E+05  0.6408692E-02 -0.4394531E-02
  0.1783333E+01  0.8641894E-03  0.6103516E-02  0.5575075E+05  0.1251208E+05  0.5202249E-02  0.3173828E-02
  0.1814286E+01  0.1682071E-04 -0.2441406E-02  0.5569792E+05  0.1172744E+05 -0.3095011E-02  0.4821777E-02
  0.1845238E+01 -0.4300025E-03 -0.2502441E-02  0.5571561E+05  0.1104221E+05  0.2646169E-02  0.2136230E-02
  0.1876190E+01 -0.9759429E-03 -0.3112793E-02  0.5576808E+05  0.1042838E+05 -0.3643520E-02 -0.5371094E-02
  0.1907143E+01 -0.1920207E-02 -0.8300781E-02  0.5585772E+05  0.9827254E+04 -0.1536166E-02  0.6988525E-02
  0.1938095E+01  0.3464158E-03  0.1403809E-02  0.5598166E+05  0.9255394E+04  0.5416683E-02  0.2716064E-02
  0.1969048E+01 -0.7129379E-03  0.3662109E-03  0.5613757E+05  0.8742411E+04  0.5827492E-02  0.5218506E-02
  0.2000000E+01 -0.9002686E-03  0.9155273E-04  0.5631659E+05  0.8289544E+04  0.3295898E-02 -0.4882812E-03
Zone t="Motion of body    1 in DoF   3",I=    64,F=POINT
  0.5000000E-01 -0.5084728E+05 -0.1842138E-02 -0.2403259E-01 -0.6802932E-04  0.1564872E+06  0.9457179E-03
  0.8095238E-01 -0.5070377E+05 -0.7825378E-02  0.3864064E-02  0.6684947E-04  0.1566308E+06  0.3857467E-02
  0.1119048E+00 -0.5101279E+05 -0.2206656E-01  0.7567710E-02  0.3350779E-04  0.1570703E+06  0.1101286E-01
  0.1428571E+00 -0.5129033E+05 -0.4994004E-01  0.1345825E-01  0.1181123E-03  0.1572694E+06  0.2484230E-01
  0.1738095E+00 -0.5111381E+05 -0.9991779E-01  0.1869933E-01  0.2178422E-03  0.1573350E+06  0.4988835E-01
  0.2047619E+00 -0.5136538E+05 -0.1855507E+00  0.2757228E-02  0.9161234E-04  0.1574152E+06  0.9380988E-01
  0.2357143E+00 -0.5143539E+05 -0.3282755E+00  0.1598936E-01  0.2410035E-03  0.1573704E+06  0.1659553E+00
  0.2666667E+00 -0.5142668E+05 -0.5630831E+00 -0.1470566E-01 -0.1949128E-03  0.1576257E+06  0.2853106E+00
  0.2976190E+00 -0.5168958E+05 -0.9512136E+00 -0.5639648E-03  0.8099899E-04  0.1575525E+06  0.4833715E+00
  0.3285715E+00 -0.5179682E+05 -0.1586668E+01 -0.1174927E-01 -0.2088286E-03  0.1578604E+06  0.8117768E+00
  0.3595238E+00 -0.5182852E+05 -0.2626361E+01 -0.1010112E-01 -0.5933922E-03  0.1576130E+06  0.1350909E+01
  0.3904762E+00 -0.5206186E+05 -0.4322405E+01  0.2579107E-02  0.2330542E-04  0.1578744E+06  0.2239138E+01
  0.4214286E+00 -0.5226968E+05 -0.7032166E+01  0.8979408E-02  0.6254762E-03  0.1579002E+06  0.3663300E+01
  0.4523810E+00 -0.5255624E+05 -0.1133187E+02 -0.9039627E-02 -0.5723387E-03  0.1581472E+06  0.5947186E+01
  0.4833333E+00 -0.5251741E+05 -0.1780865E+02 -0.7387358E-02 -0.3569871E-03  0.1585646E+06  0.9411020E+01
  0.5142857E+00 -0.5305299E+05 -0.2760436E+02  0.2480401E-01  0.2590775E-02  0.1584845E+06  0.1469833E+02
  0.5452381E+00 -0.5331384E+05 -0.4178116E+02 -0.7668042E-02 -0.1215577E-02  0.1589626E+06  0.2243348E+02
  0.5761905E+00 -0.5342625E+05 -0.6173641E+02 -0.1461817E-01 -0.2667248E-02  0.1586969E+06  0.3338689E+02
  0.6071429E+00 -0.5377828E+05 -0.8952569E+02 -0.5227481E-02 -0.2545118E-03  0.1590322E+06  0.4888703E+02
  0.6380953E+00 -0.5409902E+05 -0.1271502E+03 -0.1339130E-01 -0.2636790E-02  0.1597521E+06  0.6999075E+02
  0.6690477E+00 -0.5451799E+05 -0.1777385E+03 -0.1569103E-01 -0.3274560E-02  0.1594490E+06  0.9859550E+02
  0.7000000E+00 -0.5509891E+05 -0.2447800E+03  0.4185268E-02 -0.1096725E-04  0.1599640E+06  0.1373061E+03
  0.7309524E+00 -0.5535154E+05 -0.3318245E+03 -0.1690892E-01 -0.5368233E-02  0.1605182E+06  0.1879228E+03
  0.7619048E+00 -0.5559402E+05 -0.4437133E+03  0.1025391E-01  0.2537251E-02  0.1604490E+06  0.2533802E+03
  0.7928572E+00 -0.5630484E+05 -0.5865919E+03  0.1416455E-01  0.3975391E-02  0.1608349E+06  0.3380111E+03
  0.8238096E+00 -0.5689377E+05 -0.7675175E+03  0.3556268E-02  0.7066727E-03  0.1612484E+06  0.4463327E+03
  0.8547620E+00 -0.5747696E+05 -0.9949014E+03  0.2199306E-01  0.1102829E-01  0.1623297E+06  0.5852485E+03
  0.8857143E+00 -0.5797599E+05 -0.1276211E+04  0.1102571E-02  0.1423836E-02  0.1620137E+06  0.7575365E+03
  0.9166667E+00 -0.5873665E+05 -0.1622392E+04  0.1331676E-03 -0.1565933E-02  0.1626473E+06  0.9743698E+03
  0.9476191E+00 -0.5924054E+05 -0.2042276E+04  0.7084985E-02  0.6578445E-02  0.1630389E+06  0.1238808E+04
  0.9785714E+00 -0.5980079E+05 -0.2549473E+04 -0.6860886E-02 -0.1825333E-02  0.1639537E+06  0.1562319E+04
  0.1009524E+01 -0.6053330E+05 -0.3154144E+04  0.7315582E-02  0.7247925E-03  0.1642676E+06  0.1944374E+04
  0.1040476E+01 -0.6140936E+05 -0.3878007E+04  0.9561709E-02  0.7743835E-02  0.1645891E+06  0.2413758E+04
  0.1071429E+01 -0.6230530E+05 -0.4735239E+04 -0.4500326E-02 -0.6912231E-02  0.1653543E+06  0.2980814E+04
  0.1102381E+01 -0.6297469E+05 -0.5744121E+04 -0.1101797E-01 -0.4898071E-02  0.1659679E+06  0.3658019E+04
  0.1133333E+01 -0.6364113E+05 -0.6924277E+04  0.9747674E-02  0.6454468E-02  0.1670580E+06  0.4465948E+04
  0.1164286E+01 -0.6420307E+05 -0.8277425E+04 -0.6238317E-02 -0.5821228E-02  0.1673153E+06  0.5389264E+04
  0.1195238E+01 -0.6477442E+05 -0.9819765E+04 -0.7353399E-02 -0.5592346E-02  0.1673962E+06  0.6449827E+04
  0.1226190E+01 -0.6545684E+05 -0.1156298E+05  0.1194630E-01  0.9078979E-02  0.1680908E+06  0.7674481E+04
  0.1257143E+01 -0.6591483E+05 -0.1349412E+05  0.7331154E-02  0.1406860E-01  0.1684670E+06  0.9014765E+04
  0.1288095E+01 -0.6639256E+05 -0.1566442E+05 -0.4501484E-02 -0.2487183E-02  0.1691268E+06  0.1055467E+05
  0.1319048E+01 -0.6673619E+05 -0.1808766E+05  0.9578332E-02  0.5935669E-02  0.1700967E+06  0.1233624E+05
  0.1350000E+01 -0.6684384E+05 -0.2068822E+05 -0.8002387E-02 -0.1121521E-01  0.1696674E+06  0.1419008E+05
  0.1380952E+01 -0.6693466E+05 -0.2352284E+05 -0.3403236E-02 -0.4669189E-02  0.1695516E+06  0.1627284E+05
  0.1411905E+01 -0.6689280E+05 -0.2654716E+05 -0.1257962E-01 -0.1075745E-01  0.1698159E+06  0.1856692E+05
  0.1442857E+01 -0.6665148E+05 -0.2970660E+05  0.1362111E-01  0.8285522E-02  0.1697777E+06  0.2093849E+05
  0.1473810E+01 -0.6619613E+05 -0.3299023E+05  0.4224145E-02  0.1724243E-02  0.1696335E+06  0.2341181E+05
  0.1504762E+01 -0.6562433E+05 -0.3645354E+05  0.3001539E-02  0.7293701E-02  0.1698340E+06  0.2617536E+05
  0.1535714E+01 -0.6482826E+05 -0.3997232E+05  0.4928234E-02  0.1492310E-01  0.1695301E+06  0.2895452E+05
  0.1566667E+01 -0.6376961E+05 -0.4342305E+05 -0.5532123E-02 -0.1138306E-01  0.1681779E+06  0.3153328E+05
  0.1597619E+01 -0.6271977E+05 -0.4692329E+05  0.5424943E-02  0.2716064E-02  0.1673293E+06  0.3431418E+05
  0.1628572E+01 -0.6168819E+05 -0.5037084E+05 -0.5546703E-02 -0.1895142E-01  0.1668035E+06  0.3714739E+05
  0.1659524E+01 -0.6033628E+05 -0.5367765E+05 -0.5001905E-02 -0.3265381E-02  0.1658921E+06  0.3985876E+05
  0.1690476E+01 -0.5875722E+05 -0.5685558E+05  0.1588633E-02 -0.3875732E-02  0.1647634E+06  0.4252159E+05
  0.1721429E+01 -0.5716624E+05 -0.5996021E+05 -0.7091222E-04 -0.1181030E-01  0.1640119E+06  0.4533132E+05
  0.1752381E+01 -0.5549807E+05 -0.6292487E+05  0.1393194E-02  0.3936768E-02  0.1633344E+06  0.4814066E+05
  0.1783333E+01 -0.5375472E+05 -0.6548340E+05  0.7187318E-02 -0.2746582E-03  0.1617665E+06  0.5020672E+05
  0.1814286E+01 -0.5195027E+05 -0.6774199E+05 -0.1143808E-02 -0.1174927E-01  0.1597217E+06  0.5178166E+05
  0.1845238E+01 -0.5031374E+05 -0.6997023E+05 -0.5292339E-03  0.2838135E-02  0.1584138E+06  0.5382127E+05
  0.1876190E+01 -0.4875974E+05 -0.7203267E+05 -0.7482229E-02 -0.6835938E-02  0.1573446E+06  0.5588970E+05
  0.1907143E+01 -0.4707195E+05 -0.7376635E+05 -0.1651378E-01 -0.1034546E-01  0.1560658E+06  0.5758002E+05
  0.1938095E+01 -0.4537171E+05 -0.7525963E+05  0.1070740E-02 -0.8605957E-02  0.1547356E+06  0.5903425E+05
  0.1969048E+01 -0.4365762E+05 -0.7657217E+05 -0.1735849E-02 -0.1220703E-02  0.1535179E+06  0.6055609E+05
  0.2000000E+01 -0.4201366E+05 -0.7778112E+05  0.4455566E-02  0.7934570E-03  0.1525600E+06  0.6229226E+05
