VARIABLES="w (rad/s)"
"abs(F   1   1)" "angle(F   1   1)"
"abs(F   1   2)" "angle(F   1   2)"
"abs(F   1   3)" "angle(F   1   3)"
Zone t="Diffraction force - beta =   0.000 deg",I=    64,F=POINT
  0.5000000E-01  0.1524425E+04 -0.1570795E+01  0.4611036E+02 -0.3116658E+01  0.5768360E+04  0.1570798E+01
  0.8095238E-01  0.2498217E+04 -0.1570792E+01  0.1201244E+03 -0.3115990E+01  0.9432541E+04  0.1570800E+01
  0.1119048E+00  0.3487781E+04 -0.1570788E+01  0.2281807E+03 -0.3115056E+01  0.1314705E+05  0.1570804E+01
  0.1428571E+00  0.4509112E+04 -0.1570782E+01  0.3704050E+03 -0.3113865E+01  0.1697307E+05  0.1570811E+01
  0.1738095E+00  0.5569043E+04 -0.1570774E+01  0.5458994E+03 -0.3112338E+01  0.2093321E+05  0.1570820E+01
  0.2047619E+00  0.6676405E+04 -0.1570761E+01  0.7545145E+03 -0.3110381E+01  0.2506889E+05  0.1570833E+01
  0.2357143E+00  0.7851730E+04 -0.1570742E+01  0.9967430E+03 -0.3107945E+01  0.2943237E+05  0.1570851E+01
  0.2666667E+00  0.9103818E+04 -0.1570716E+01  0.1268445E+04 -0.3104936E+01  0.3406716E+05  0.1570879E+01
  0.2976190E+00  0.1046184E+05 -0.1570676E+01  0.1572834E+04 -0.3101179E+01  0.3905852E+05  0.1570919E+01
  0.3285715E+00  0.1192614E+05 -0.1570618E+01  0.1902478E+04 -0.3096645E+01  0.4442709E+05  0.1570979E+01
  0.3595238E+00  0.1354473E+05 -0.1570531E+01  0.2261949E+04 -0.3091218E+01  0.5032045E+05  0.1571067E+01
  0.3904762E+00  0.1529811E+05 -0.1570403E+01  0.2637283E+04 -0.3084662E+01  0.5670927E+05  0.1571198E+01
  0.4214286E+00  0.1725359E+05 -0.1570217E+01  0.3034081E+04 -0.3077537E+01  0.6372131E+05  0.1571388E+01
  0.4523810E+00  0.1936528E+05 -0.1569946E+01  0.3438530E+04 -0.3069004E+01  0.7130601E+05  0.1571665E+01
  0.4833333E+00  0.2167781E+05 -0.1569574E+01  0.3850137E+04 -0.3060683E+01  0.7953966E+05  0.1572043E+01
  0.5142857E+00  0.2415992E+05 -0.1569063E+01  0.4264367E+04 -0.3051597E+01  0.8831979E+05  0.1572564E+01
  0.5452381E+00  0.2679755E+05 -0.1568390E+01  0.4669255E+04 -0.3042495E+01  0.9756944E+05  0.1573251E+01
  0.5761905E+00  0.2961163E+05 -0.1567528E+01  0.5077316E+04 -0.3033911E+01  0.1073130E+06  0.1574130E+01
  0.6071429E+00  0.3250564E+05 -0.1566424E+01  0.5461880E+04 -0.3024708E+01  0.1173226E+06  0.1575254E+01
  0.6380953E+00  0.3552873E+05 -0.1565066E+01  0.5837813E+04 -0.3016283E+01  0.1276544E+06  0.1576636E+01
  0.6690477E+00  0.3868961E+05 -0.1563406E+01  0.6210749E+04 -0.3008191E+01  0.1382508E+06  0.1578327E+01
  0.7000000E+00  0.4187322E+05 -0.1561384E+01  0.6544944E+04 -0.2999652E+01  0.1488430E+06  0.1580385E+01
  0.7309524E+00  0.4515645E+05 -0.1558978E+01  0.6864458E+04 -0.2991558E+01  0.1596458E+06  0.1582831E+01
  0.7619048E+00  0.4857951E+05 -0.1556144E+01  0.7172743E+04 -0.2983766E+01  0.1706939E+06  0.1585714E+01
  0.7928572E+00  0.5197507E+05 -0.1552810E+01  0.7448944E+04 -0.2975959E+01  0.1815980E+06  0.1589098E+01
  0.8238096E+00  0.5546083E+05 -0.1548946E+01  0.7689247E+04 -0.2968083E+01  0.1925873E+06  0.1593019E+01
  0.8547620E+00  0.5896787E+05 -0.1544501E+01  0.7909988E+04 -0.2960417E+01  0.2033156E+06  0.1597537E+01
  0.8857143E+00  0.6259672E+05 -0.1539444E+01  0.8113697E+04 -0.2952947E+01  0.2142408E+06  0.1602673E+01
  0.9166667E+00  0.6614793E+05 -0.1533687E+01  0.8276390E+04 -0.2945606E+01  0.2247751E+06  0.1608509E+01
  0.9476191E+00  0.6975670E+05 -0.1527214E+01  0.8398796E+04 -0.2938155E+01  0.2353519E+06  0.1615062E+01
  0.9785714E+00  0.7334743E+05 -0.1519969E+01  0.8497016E+04 -0.2930730E+01  0.2455761E+06  0.1622394E+01
  0.1009524E+01  0.7704664E+05 -0.1511968E+01  0.8575254E+04 -0.2923390E+01  0.2557414E+06  0.1630503E+01
  0.1040476E+01  0.8064892E+05 -0.1503098E+01  0.8629704E+04 -0.2916041E+01  0.2654781E+06  0.1639470E+01
  0.1071429E+01  0.8414896E+05 -0.1493332E+01  0.8625610E+04 -0.2909058E+01  0.2744822E+06  0.1649353E+01
  0.1102381E+01  0.8769421E+05 -0.1482669E+01  0.8597147E+04 -0.2901919E+01  0.2835287E+06  0.1660116E+01
  0.1133333E+01  0.9112395E+05 -0.1471052E+01  0.8545467E+04 -0.2894668E+01  0.2917386E+06  0.1671861E+01
  0.1164286E+01  0.9461993E+05 -0.1458535E+01  0.8477821E+04 -0.2887402E+01  0.2998345E+06  0.1684513E+01
  0.1195238E+01  0.9794401E+05 -0.1444960E+01  0.8391213E+04 -0.2879826E+01  0.3073766E+06  0.1698183E+01
  0.1226190E+01  0.1010477E+06 -0.1430356E+01  0.8255723E+04 -0.2873314E+01  0.3138482E+06  0.1712883E+01
  0.1257143E+01  0.1040026E+06 -0.1414747E+01  0.8094871E+04 -0.2866370E+01  0.3198310E+06  0.1728544E+01
  0.1288095E+01  0.1069928E+06 -0.1398219E+01  0.7918899E+04 -0.2859650E+01  0.3252474E+06  0.1745198E+01
  0.1319048E+01  0.1097633E+06 -0.1380723E+01  0.7725580E+04 -0.2852606E+01  0.3296824E+06  0.1762833E+01
  0.1350000E+01  0.1124819E+06 -0.1362328E+01  0.7526092E+04 -0.2845427E+01  0.3336816E+06  0.1781355E+01
  0.1380952E+01  0.1148801E+06 -0.1342800E+01  0.7312369E+04 -0.2837950E+01  0.3367424E+06  0.1800967E+01
  0.1411905E+01  0.1166516E+06 -0.1322027E+01  0.7070296E+04 -0.2832093E+01  0.3380881E+06  0.1821628E+01
  0.1442857E+01  0.1185239E+06 -0.1300519E+01  0.6813726E+04 -0.2826139E+01  0.3391921E+06  0.1843184E+01
  0.1473810E+01  0.1202063E+06 -0.1278123E+01  0.6549413E+04 -0.2820024E+01  0.3396329E+06  0.1865571E+01
  0.1504762E+01  0.1215216E+06 -0.1254900E+01  0.6278391E+04 -0.2813828E+01  0.3386054E+06  0.1888818E+01
  0.1535714E+01  0.1226772E+06 -0.1230922E+01  0.6007079E+04 -0.2807611E+01  0.3370813E+06  0.1912779E+01
  0.1566667E+01  0.1236109E+06 -0.1206251E+01  0.5738478E+04 -0.2800990E+01  0.3349992E+06  0.1937332E+01
  0.1597619E+01  0.1240721E+06 -0.1180907E+01  0.5464457E+04 -0.2794450E+01  0.3315181E+06  0.1962600E+01
  0.1628572E+01  0.1240941E+06 -0.1155184E+01  0.5190707E+04 -0.2789643E+01  0.3264840E+06  0.1988170E+01
  0.1659524E+01  0.1238847E+06 -0.1128885E+01  0.4912231E+04 -0.2785092E+01  0.3210036E+06  0.2014385E+01
  0.1690476E+01  0.1234711E+06 -0.1102079E+01  0.4630852E+04 -0.2780673E+01  0.3152785E+06  0.2041020E+01
  0.1721429E+01  0.1225636E+06 -0.1075148E+01  0.4357909E+04 -0.2776300E+01  0.3078555E+06  0.2067738E+01
  0.1752381E+01  0.1214553E+06 -0.1047993E+01  0.4090296E+04 -0.2772263E+01  0.3000588E+06  0.2094712E+01
  0.1783333E+01  0.1201312E+06 -0.1020761E+01  0.3837459E+04 -0.2767675E+01  0.2919006E+06  0.2121582E+01
  0.1814286E+01  0.1185121E+06 -0.9933662E+00  0.3589460E+04 -0.2763196E+01  0.2834005E+06  0.2148597E+01
  0.1845238E+01  0.1164961E+06 -0.9661353E+00  0.3348387E+04 -0.2759269E+01  0.2739571E+06  0.2175519E+01
  0.1876190E+01  0.1141085E+06 -0.9394143E+00  0.3124840E+04 -0.2755764E+01  0.2634898E+06  0.2201641E+01
  0.1907143E+01  0.1115309E+06 -0.9127949E+00  0.2907865E+04 -0.2752866E+01  0.2529510E+06  0.2227845E+01
  0.1938095E+01  0.1088008E+06 -0.8861641E+00  0.2684916E+04 -0.2752275E+01  0.2426472E+06  0.2254098E+01
  0.1969048E+01  0.1058571E+06 -0.8600573E+00  0.2477653E+04 -0.2750943E+01  0.2319821E+06  0.2279650E+01
  0.2000000E+01  0.1026519E+06 -0.8346479E+00  0.2281426E+04 -0.2751152E+01  0.2206601E+06  0.2304234E+01
