VARIABLES="w (rad/s)"
"abs(F   1   1)" "angle(F   1   1)"
"abs(F   1   2)" "angle(F   1   2)"
"abs(F   1   3)" "angle(F   1   3)"
Zone t="Diffraction force - beta =   0.000 deg",I=    64,F=POINT
  0.5000000E-01  0.6754994E+04 -0.1570796E+01  0.7597090E+06 -0.5044001E-04  0.8614989E+03  0.1570739E+01
  0.8095238E-01  0.1102654E+05 -0.1570793E+01  0.7574240E+06 -0.1355315E-03  0.1433981E+04  0.1570808E+01
  0.1119048E+00  0.1541396E+05 -0.1570791E+01  0.7540760E+06 -0.2686524E-03  0.2073487E+04  0.1570813E+01
  0.1428571E+00  0.1993835E+05 -0.1570781E+01  0.7496632E+06 -0.4596021E-03  0.2747264E+04  0.1570825E+01
  0.1738095E+00  0.2463927E+05 -0.1570775E+01  0.7441784E+06 -0.7228447E-03  0.3496057E+04  0.1570807E+01
  0.2047619E+00  0.2963525E+05 -0.1570760E+01  0.7376421E+06 -0.1079829E-02  0.4358434E+04  0.1570834E+01
  0.2357143E+00  0.3492363E+05 -0.1570742E+01  0.7300246E+06 -0.1561421E-02  0.5312250E+04  0.1570848E+01
  0.2666667E+00  0.4057240E+05 -0.1570714E+01  0.7213412E+06 -0.2203977E-02  0.6407634E+04  0.1570880E+01
  0.2976190E+00  0.4679590E+05 -0.1570673E+01  0.7116009E+06 -0.3072302E-02  0.7744976E+04  0.1570912E+01
  0.3285715E+00  0.5357941E+05 -0.1570612E+01  0.7008069E+06 -0.4226205E-02  0.9316910E+04  0.1570984E+01
  0.3595238E+00  0.6097957E+05 -0.1570521E+01  0.6890102E+06 -0.5767425E-02  0.1104479E+05  0.1571066E+01
  0.3904762E+00  0.6919200E+05 -0.1570384E+01  0.6762491E+06 -0.7802223E-02  0.1320467E+05  0.1571209E+01
  0.4214286E+00  0.7837917E+05 -0.1570185E+01  0.6626084E+06 -0.1038899E-01  0.1580343E+05  0.1571407E+01
  0.4523810E+00  0.8844138E+05 -0.1569892E+01  0.6482539E+06 -0.1373202E-01  0.1874805E+05  0.1571699E+01
  0.4833333E+00  0.9927143E+05 -0.1569487E+01  0.6331130E+06 -0.1768760E-01  0.2209200E+05  0.1572109E+01
  0.5142857E+00  0.1112676E+06 -0.1568923E+01  0.6176307E+06 -0.2250953E-01  0.2606565E+05  0.1572674E+01
  0.5452381E+00  0.1241323E+06 -0.1568173E+01  0.6015418E+06 -0.2807470E-01  0.3066612E+05  0.1573427E+01
  0.5761905E+00  0.1376354E+06 -0.1567197E+01  0.5850356E+06 -0.3437280E-01  0.3567277E+05  0.1574417E+01
  0.6071429E+00  0.1518116E+06 -0.1565938E+01  0.5684147E+06 -0.4162895E-01  0.4123761E+05  0.1575690E+01
  0.6380953E+00  0.1666467E+06 -0.1564374E+01  0.5512528E+06 -0.4953418E-01  0.4755062E+05  0.1577257E+01
  0.6690477E+00  0.1823624E+06 -0.1562438E+01  0.5340139E+06 -0.5831487E-01  0.5461359E+05  0.1579205E+01
  0.7000000E+00  0.1985847E+06 -0.1560063E+01  0.5168121E+06 -0.6808965E-01  0.6239664E+05  0.1581614E+01
  0.7309524E+00  0.2150118E+06 -0.1557202E+01  0.4992786E+06 -0.7865930E-01  0.7060796E+05  0.1584534E+01
  0.7619048E+00  0.2317218E+06 -0.1553790E+01  0.4816656E+06 -0.9014139E-01  0.7949888E+05  0.1588024E+01
  0.7928572E+00  0.2489072E+06 -0.1549781E+01  0.4644586E+06 -0.1026113E+00  0.8881612E+05  0.1592079E+01
  0.8238096E+00  0.2668298E+06 -0.1545148E+01  0.4471944E+06 -0.1160433E+00  0.9966075E+05  0.1596684E+01
  0.8547620E+00  0.2847182E+06 -0.1539790E+01  0.4298356E+06 -0.1303777E+00  0.1109598E+06  0.1602139E+01
  0.8857143E+00  0.3025949E+06 -0.1533663E+01  0.4128365E+06 -0.1456576E+00  0.1226114E+06  0.1608466E+01
  0.9166667E+00  0.3204410E+06 -0.1526734E+01  0.3961760E+06 -0.1619386E+00  0.1346576E+06  0.1615672E+01
  0.9476191E+00  0.3378710E+06 -0.1518994E+01  0.3797060E+06 -0.1791927E+00  0.1473692E+06  0.1623762E+01
  0.9785714E+00  0.3547590E+06 -0.1510465E+01  0.3633506E+06 -0.1973667E+00  0.1602878E+06  0.1632640E+01
  0.1009524E+01  0.3713924E+06 -0.1501277E+01  0.3472048E+06 -0.2164556E+00  0.1740321E+06  0.1641954E+01
  0.1040476E+01  0.3876065E+06 -0.1491497E+01  0.3319283E+06 -0.2363564E+00  0.1870458E+06  0.1651833E+01
  0.1071429E+01  0.4029624E+06 -0.1481069E+01  0.3168427E+06 -0.2572822E+00  0.2011096E+06  0.1662730E+01
  0.1102381E+01  0.4168469E+06 -0.1470158E+01  0.3019852E+06 -0.2790880E+00  0.2145388E+06  0.1674238E+01
  0.1133333E+01  0.4293455E+06 -0.1458949E+01  0.2873435E+06 -0.3018936E+00  0.2279050E+06  0.1686213E+01
  0.1164286E+01  0.4404640E+06 -0.1447785E+01  0.2729759E+06 -0.3255472E+00  0.2410762E+06  0.1697865E+01
  0.1195238E+01  0.4500260E+06 -0.1437001E+01  0.2596021E+06 -0.3495643E+00  0.2521734E+06  0.1708897E+01
  0.1226190E+01  0.4579333E+06 -0.1426569E+01  0.2464614E+06 -0.3745988E+00  0.2635852E+06  0.1720217E+01
  0.1257143E+01  0.4635406E+06 -0.1416843E+01  0.2336565E+06 -0.4006454E+00  0.2735653E+06  0.1730854E+01
  0.1288095E+01  0.4672537E+06 -0.1408312E+01  0.2210798E+06 -0.4270552E+00  0.2824066E+06  0.1740392E+01
  0.1319048E+01  0.4690135E+06 -0.1401248E+01  0.2087111E+06 -0.4548113E+00  0.2905914E+06  0.1748263E+01
  0.1350000E+01  0.4686854E+06 -0.1395847E+01  0.1968137E+06 -0.4829453E+00  0.2969395E+06  0.1754727E+01
  0.1380952E+01  0.4663681E+06 -0.1392617E+01  0.1856550E+06 -0.5106735E+00  0.3003298E+06  0.1758503E+01
  0.1411905E+01  0.4621709E+06 -0.1391497E+01  0.1747721E+06 -0.5392661E+00  0.3033417E+06  0.1760629E+01
  0.1442857E+01  0.4565072E+06 -0.1393146E+01  0.1641061E+06 -0.5690691E+00  0.3051450E+06  0.1759804E+01
  0.1473810E+01  0.4490831E+06 -0.1397593E+01  0.1536735E+06 -0.5999739E+00  0.3050580E+06  0.1756209E+01
  0.1504762E+01  0.4402502E+06 -0.1404995E+01  0.1434444E+06 -0.6322964E+00  0.3038588E+06  0.1749909E+01
  0.1535714E+01  0.4302416E+06 -0.1415536E+01  0.1334022E+06 -0.6664831E+00  0.3018037E+06  0.1740497E+01
  0.1566667E+01  0.4192111E+06 -0.1429728E+01  0.1238917E+06 -0.7008130E+00  0.2973628E+06  0.1725942E+01
  0.1597619E+01  0.4072569E+06 -0.1447733E+01  0.1148458E+06 -0.7362130E+00  0.2907788E+06  0.1706185E+01
  0.1628572E+01  0.3947888E+06 -0.1469303E+01  0.1060835E+06 -0.7750441E+00  0.2843121E+06  0.1683549E+01
  0.1659524E+01  0.3817829E+06 -0.1494910E+01  0.9762020E+05 -0.8176211E+00  0.2770084E+06  0.1656021E+01
  0.1690476E+01  0.3682670E+06 -0.1524862E+01  0.8958537E+05 -0.8647199E+00  0.2686732E+06  0.1622985E+01
  0.1721429E+01  0.3544496E+06 -0.1559341E+01  0.8209307E+05 -0.9168655E+00  0.2597022E+06  0.1584242E+01
  0.1752381E+01  0.3406807E+06 -0.1598390E+01  0.7512046E+05 -0.9744258E+00  0.2508572E+06  0.1540335E+01
  0.1783333E+01  0.3269996E+06 -0.1642531E+01  0.6866490E+05 -0.1036899E+01  0.2419179E+06  0.1489842E+01
  0.1814286E+01  0.3136618E+06 -0.1692851E+01  0.6288595E+05 -0.1100413E+01  0.2317452E+06  0.1425938E+01
  0.1845238E+01  0.3008555E+06 -0.1749250E+01  0.5764462E+05 -0.1167536E+01  0.2219154E+06  0.1351145E+01
  0.1876190E+01  0.2889179E+06 -0.1811426E+01  0.5290959E+05 -0.1239385E+01  0.2134929E+06  0.1269593E+01
  0.1907143E+01  0.2780168E+06 -0.1879862E+01  0.4864271E+05 -0.1313571E+01  0.2064090E+06  0.1178532E+01
  0.1938095E+01  0.2684081E+06 -0.1954327E+01  0.4475472E+05 -0.1389712E+01  0.2011234E+06  0.1078418E+01
  0.1969048E+01  0.2603298E+06 -0.2034074E+01  0.4116758E+05 -0.1466796E+01  0.1980748E+06  0.9721178E+00
  0.2000000E+01  0.2540034E+06 -0.2117527E+01  0.3784049E+05 -0.1544605E+01  0.1974924E+06  0.8651330E+00
