VARIABLES="w (rad/s)"
"A   1   1" "B   1   1"
"A   1   2" "B   1   2"
"A   1   3" "B   1   3"
Zone t="Motion of body    1 in DoF   1",I=    64,F=POINT
  0.5000000E-01  0.2573131E+05  0.9652195E-03  0.3337860E-03  0.4727066E-05 -0.2860111E+05 -0.7766680E-03
  0.8095238E-01  0.2580439E+05  0.4169405E-02 -0.9895773E-03 -0.1505694E-05 -0.2856758E+05 -0.3303086E-02
  0.1119048E+00  0.2593787E+05  0.1174715E-01 -0.2411781E-02 -0.1005092E-04 -0.2868580E+05 -0.9292660E-02
  0.1428571E+00  0.2591859E+05  0.2641734E-01 -0.1922607E-02 -0.1260175E-04 -0.2869368E+05 -0.2091231E-01
  0.1738095E+00  0.2605371E+05  0.5279058E-01 -0.3665245E-02 -0.3148516E-04 -0.2880693E+05 -0.4188934E-01
  0.2047619E+00  0.2602470E+05  0.9744164E-01 -0.3036676E-02 -0.2856192E-04 -0.2879094E+05 -0.7744253E-01
  0.2357143E+00  0.2610268E+05  0.1718907E+00 -0.5033088E-02 -0.8514524E-04 -0.2885211E+05 -0.1367567E+00
  0.2666667E+00  0.2614182E+05  0.2935683E+00 -0.1974106E-02 -0.2497947E-04 -0.2889000E+05 -0.2337147E+00
  0.2976190E+00  0.2619186E+05  0.4932824E+00  0.5767822E-03 -0.8698553E-05 -0.2891846E+05 -0.3931515E+00
  0.3285715E+00  0.2623918E+05  0.8177052E+00 -0.1973691E-03  0.2530590E-04 -0.2897441E+05 -0.6528310E+00
  0.3595238E+00  0.2634112E+05  0.1346318E+01  0.3183124E-04  0.4134327E-04 -0.2906491E+05 -0.1076811E+01
  0.3904762E+00  0.2637167E+05  0.2198707E+01 -0.2637723E-03  0.1784600E-04 -0.2909409E+05 -0.1761895E+01
  0.4214286E+00  0.2645218E+05  0.3546406E+01 -0.1937090E-02 -0.1150817E-03 -0.2915913E+05 -0.2847223E+01
  0.4523810E+00  0.2658844E+05  0.5674561E+01 -0.1973202E-02 -0.7889420E-04 -0.2927144E+05 -0.4564864E+01
  0.4833333E+00  0.2671332E+05  0.8856420E+01 -0.3946238E-03  0.6242096E-04 -0.2935707E+05 -0.7138194E+01
  0.5142857E+00  0.2676988E+05  0.1358314E+02 -0.5192227E-03 -0.5507469E-04 -0.2941177E+05 -0.1097326E+02
  0.5452381E+00  0.2685919E+05  0.2034733E+02 -0.7835955E-03  0.1579523E-05 -0.2951166E+05 -0.1648235E+02
  0.5761905E+00  0.2706946E+05  0.2981347E+02 -0.1257904E-02 -0.3522635E-04 -0.2968079E+05 -0.2420649E+02
  0.6071429E+00  0.2721118E+05  0.4284807E+02 -0.1520493E-02 -0.8660555E-04 -0.2979909E+05 -0.3487730E+02
  0.6380953E+00  0.2732739E+05  0.6020784E+02 -0.3108693E-03  0.2604127E-03 -0.2989930E+05 -0.4914168E+02
  0.6690477E+00  0.2745541E+05  0.8316259E+02 -0.1277177E-02 -0.1612902E-03 -0.3003455E+05 -0.6808854E+02
  0.7000000E+00  0.2765174E+05  0.1132303E+03  0.2179827E-03  0.3534555E-03 -0.3018633E+05 -0.9292110E+02
  0.7309524E+00  0.2787654E+05  0.1518689E+03 -0.3246096E-02 -0.3004074E-03 -0.3037880E+05 -0.1249883E+03
  0.7619048E+00  0.2812136E+05  0.2010946E+03 -0.1782417E-02 -0.1027584E-03 -0.3058839E+05 -0.1659879E+03
  0.7928572E+00  0.2830378E+05  0.2628839E+03 -0.1924532E-04 -0.1742840E-03 -0.3073697E+05 -0.2176076E+03
  0.8238096E+00  0.2848689E+05  0.3398065E+03 -0.1037245E-02 -0.3271103E-03 -0.3094144E+05 -0.2823563E+03
  0.8547620E+00  0.2868918E+05  0.4345634E+03 -0.6069512E-03 -0.7867813E-04 -0.3110248E+05 -0.3620886E+03
  0.8857143E+00  0.2902046E+05  0.5509723E+03 -0.2584150E-02 -0.6985664E-03 -0.3138481E+05 -0.4602555E+03
  0.9166667E+00  0.2930917E+05  0.6919577E+03  0.3995028E-03  0.1221657E-02 -0.3161606E+05 -0.5795638E+03
  0.9476191E+00  0.2960936E+05  0.8618055E+03 -0.1111054E-02  0.2107620E-03 -0.3191154E+05 -0.7244888E+03
  0.9785714E+00  0.2988565E+05  0.1064430E+04 -0.1995894E-02 -0.1364708E-02 -0.3213872E+05 -0.8975961E+03
  0.1009524E+01  0.3019272E+05  0.1305125E+04 -0.1602173E-02 -0.8773804E-04 -0.3241180E+05 -0.1104106E+04
  0.1040476E+01  0.3046302E+05  0.1587784E+04 -0.1979802E-02 -0.2689362E-03 -0.3267431E+05 -0.1347989E+04
  0.1071429E+01  0.3073062E+05  0.1917218E+04 -0.4414876E-03 -0.2098083E-04 -0.3290997E+05 -0.1632300E+04
  0.1102381E+01  0.3108606E+05  0.2299558E+04 -0.1398008E-02 -0.1068115E-03 -0.3323499E+05 -0.1962658E+04
  0.1133333E+01  0.3143551E+05  0.2741166E+04 -0.2894682E-02 -0.1407623E-02 -0.3352073E+05 -0.2345479E+04
  0.1164286E+01  0.3180710E+05  0.3248972E+04 -0.1743059E-02 -0.1136780E-02 -0.3384234E+05 -0.2787247E+04
  0.1195238E+01  0.3213321E+05  0.3827118E+04 -0.1595790E-02  0.7019043E-03 -0.3415016E+05 -0.3293986E+04
  0.1226190E+01  0.3241447E+05  0.4480786E+04 -0.2103046E-02 -0.2281189E-02 -0.3438550E+05 -0.3867266E+04
  0.1257143E+01  0.3265911E+05  0.5216604E+04  0.1335144E-02  0.2731323E-02 -0.3464742E+05 -0.4519061E+04
  0.1288095E+01  0.3292254E+05  0.6041542E+04 -0.4501484E-03  0.3242493E-03 -0.3489911E+05 -0.5251316E+04
  0.1319048E+01  0.3313597E+05  0.6954903E+04 -0.5899697E-03  0.1434326E-02 -0.3508730E+05 -0.6061831E+04
  0.1350000E+01  0.3335005E+05  0.7960616E+04 -0.3051758E-03  0.1869202E-02 -0.3529581E+05 -0.6955748E+04
  0.1380952E+01  0.3354338E+05  0.9050726E+04 -0.2961257E-02 -0.4035950E-02 -0.3546261E+05 -0.7919493E+04
  0.1411905E+01  0.3361683E+05  0.1022666E+05 -0.1188796E-02  0.4272461E-03 -0.3552132E+05 -0.8964823E+04
  0.1442857E+01  0.3370589E+05  0.1150908E+05 -0.1734365E-02 -0.2044678E-02 -0.3562740E+05 -0.1011610E+05
  0.1473810E+01  0.3373381E+05  0.1288349E+05 -0.1035330E-02  0.1060486E-02 -0.3567102E+05 -0.1135321E+05
  0.1504762E+01  0.3368990E+05  0.1434286E+05 -0.1338524E-02 -0.2456665E-02 -0.3562431E+05 -0.1266832E+05
  0.1535714E+01  0.3359896E+05  0.1588321E+05 -0.6756450E-03  0.7476807E-03 -0.3553695E+05 -0.1405513E+05
  0.1566667E+01  0.3345132E+05  0.1748758E+05 -0.1110320E-02 -0.1174927E-02 -0.3541879E+05 -0.1550285E+05
  0.1597619E+01  0.3323757E+05  0.1912889E+05 -0.2865287E-03  0.6408691E-03 -0.3522327E+05 -0.1697532E+05
  0.1628572E+01  0.3292373E+05  0.2081008E+05 -0.1367937E-02 -0.1373291E-03 -0.3491390E+05 -0.1848526E+05
  0.1659524E+01  0.3255155E+05  0.2253222E+05 -0.1526317E-02 -0.1007080E-02 -0.3459232E+05 -0.2005363E+05
  0.1690476E+01  0.3211518E+05  0.2427044E+05 -0.1110238E-02 -0.1571655E-02 -0.3421884E+05 -0.2164259E+05
  0.1721429E+01  0.3158672E+05  0.2599374E+05 -0.1010499E-02 -0.2487183E-02 -0.3371990E+05 -0.2320585E+05
  0.1752381E+01  0.3101775E+05  0.2769750E+05 -0.1480268E-02 -0.3341675E-02 -0.3317925E+05 -0.2474506E+05
  0.1783333E+01  0.3043281E+05  0.2936158E+05 -0.1137992E-02  0.3494263E-02 -0.3262678E+05 -0.2622800E+05
  0.1814286E+01  0.2977637E+05  0.3097982E+05 -0.9840117E-03 -0.1800537E-02 -0.3203980E+05 -0.2770048E+05
  0.1845238E+01  0.2906457E+05  0.3252846E+05 -0.8848129E-03 -0.1327515E-02 -0.3138814E+05 -0.2910662E+05
  0.1876190E+01  0.2828644E+05  0.3397932E+05 -0.4310414E-03  0.1022339E-02 -0.3064761E+05 -0.3040269E+05
  0.1907143E+01  0.2749406E+05  0.3535331E+05 -0.1048113E-02 -0.2960205E-02 -0.2992290E+05 -0.3164940E+05
  0.1938095E+01  0.2670350E+05  0.3663046E+05 -0.1007755E-02 -0.1846313E-02 -0.2921965E+05 -0.3282162E+05
  0.1969048E+01  0.2588941E+05  0.3778532E+05 -0.9764149E-03  0.1617432E-02 -0.2846580E+05 -0.3385885E+05
  0.2000000E+01  0.2506687E+05  0.3882882E+05 -0.4806519E-03 -0.3570557E-02 -0.2768549E+05 -0.3478379E+05
Zone t="Motion of body    1 in DoF   2",I=    64,F=POINT
  0.5000000E-01  0.1964569E-02  0.2026558E-05  0.2915275E+05  0.3839049E+02 -0.2365112E-02 -0.2622604E-05
  0.8095238E-01  0.6597182E-03 -0.2622604E-05  0.2910194E+05  0.6366090E+02 -0.1884909E-03 -0.1907349E-05
  0.1119048E+00  0.1704439E-03  0.1549721E-05  0.2899822E+05  0.9117371E+02  0.4090654E-03 -0.9059906E-05
  0.1428571E+00 -0.7610320E-03 -0.1573563E-04  0.2895618E+05  0.1220099E+03  0.3524780E-02  0.9536743E-05
  0.1738095E+00 -0.1558278E-02 -0.9536743E-06  0.2896390E+05  0.1574485E+03  0.2370338E-02  0.7629395E-05
  0.2047619E+00  0.2049291E-03  0.1907349E-05  0.2898355E+05  0.1991865E+03  0.0000000E+00  0.3242493E-04
  0.2357143E+00  0.1585989E-02  0.2479553E-04  0.2899571E+05  0.2495480E+03  0.9062795E-03  0.1049042E-04
  0.2666667E+00  0.1001358E-02 -0.2956390E-04  0.2909750E+05  0.3104768E+03 -0.2746582E-02 -0.4196167E-04
  0.2976190E+00  0.2050781E-03  0.9536743E-05  0.2910978E+05  0.3864872E+03 -0.2460937E-02  0.3051758E-04
  0.3285715E+00  0.5572775E-03  0.4768372E-05  0.2923416E+05  0.4798552E+03 -0.3529424E-02 -0.3814697E-05
  0.3595238E+00  0.1039821E-02  0.2670288E-04  0.2925524E+05  0.5960574E+03 -0.1867433E-02  0.1335144E-04
  0.3904762E+00  0.4689286E-03  0.8964539E-04  0.2934905E+05  0.7389306E+03  0.2891726E-02 -0.2212524E-03
  0.4214286E+00 -0.3620729E-03 -0.1907349E-05  0.2936457E+05  0.9075490E+03  0.6517313E-03 -0.1373291E-03
  0.4523810E+00  0.1669633E-02  0.9346008E-04  0.2936776E+05  0.1110728E+04  0.6745990E-03 -0.8392334E-04
  0.4833333E+00 -0.3156991E-03 -0.3623962E-04  0.2936714E+05  0.1331194E+04 -0.1389076E-02  0.1602173E-03
  0.5142857E+00 -0.1527998E-02  0.1525879E-03  0.2924133E+05  0.1580653E+04  0.2017551E-02 -0.1068115E-03
  0.5452381E+00 -0.2070931E-02 -0.2021790E-03  0.2920844E+05  0.1844567E+04  0.1791075E-02  0.3051758E-04
  0.5761905E+00 -0.6090904E-03 -0.8392334E-04  0.2901434E+05  0.2119302E+04  0.5296438E-03  0.2059937E-03
  0.6071429E+00  0.5529067E-03  0.3700256E-03  0.2882307E+05  0.2411256E+04  0.1407399E-02 -0.3814697E-03
  0.6380953E+00 -0.4304345E-03  0.3204346E-03  0.2871875E+05  0.2700390E+04  0.1530434E-02 -0.2746582E-03
  0.6690477E+00 -0.9122692E-04  0.6103516E-04  0.2843276E+05  0.2998344E+04  0.3284169E-02  0.3051758E-04
  0.7000000E+00  0.1177107E-02  0.1754761E-03  0.2818386E+05  0.3302863E+04  0.1220703E-02 -0.3356934E-03
  0.7309524E+00  0.4175043E-03  0.3128052E-03  0.2801779E+05  0.3601924E+04 -0.1169012E-02 -0.3814697E-03
  0.7619048E+00  0.9813308E-03  0.2517700E-03  0.2770302E+05  0.3902600E+04 -0.8010864E-04 -0.1525879E-04
  0.7928572E+00  0.7120767E-03  0.9231567E-03  0.2739454E+05  0.4199887E+04 -0.1308682E-02 -0.9765625E-03
  0.8238096E+00  0.1944834E-02  0.6866455E-03  0.2713884E+05  0.4490102E+04  0.2148578E-02  0.1068115E-03
  0.8547620E+00 -0.1374566E-02  0.7934570E-03  0.2690125E+05  0.4767871E+04  0.9996844E-03  0.1525879E-03
  0.8857143E+00  0.9819769E-03  0.8544922E-03  0.2653895E+05  0.5040740E+04  0.1722766E-02  0.6103516E-04
  0.9166667E+00  0.1248446E-02  0.4425049E-03  0.2621513E+05  0.5298128E+04 -0.1398260E-02 -0.8850098E-03
  0.9476191E+00 -0.4025560E-03 -0.6103516E-04  0.2593460E+05  0.5539955E+04  0.9661344E-03  0.1098633E-02
  0.9785714E+00  0.9355754E-03 -0.1678467E-03  0.2570463E+05  0.5758551E+04 -0.1185062E-02  0.4882812E-03
  0.1009524E+01 -0.4685600E-03 -0.7934570E-03  0.2533388E+05  0.5965157E+04  0.9068904E-03  0.1770020E-02
  0.1040476E+01 -0.1466520E-03  0.2441406E-03  0.2499834E+05  0.6151346E+04  0.4282237E-02 -0.2136230E-02
  0.1071429E+01 -0.9969076E-04 -0.3509521E-03  0.2469258E+05  0.6314668E+04 -0.1025391E-02  0.1617432E-02
  0.1102381E+01 -0.7059249E-03 -0.1831055E-03  0.2444047E+05  0.6456073E+04  0.1051967E-02  0.5798340E-03
  0.1133333E+01 -0.2827364E-03  0.1678467E-03  0.2422136E+05  0.6568315E+04  0.2800437E-02 -0.1708984E-02
  0.1164286E+01 -0.3079841E-03 -0.1022339E-02  0.2388219E+05  0.6662978E+04  0.6290739E-03  0.2532959E-02
  0.1195238E+01  0.3510737E-03  0.1174927E-02  0.2358680E+05  0.6735156E+04 -0.1736219E-02  0.4272461E-03
  0.1226190E+01  0.2488812E-04 -0.2349854E-02  0.2331522E+05  0.6779838E+04 -0.2986575E-03  0.2136230E-02
  0.1257143E+01 -0.6615032E-03 -0.1861572E-02  0.2309758E+05  0.6808749E+04  0.4855069E-03  0.1556396E-02
  0.1288095E+01  0.9358348E-03  0.6103516E-03  0.2292490E+05  0.6805546E+04 -0.9476808E-03  0.1098633E-02
  0.1319048E+01 -0.4453693E-03 -0.2136230E-03  0.2272958E+05  0.6775765E+04 -0.4627214E-03 -0.5493164E-03
  0.1350000E+01  0.1073767E-03 -0.4882812E-03  0.2247395E+05  0.6727066E+04 -0.6329571E-03  0.1617432E-02
  0.1380952E+01 -0.1906033E-03  0.4882812E-03  0.2226235E+05  0.6661114E+04  0.1767915E-02  0.5798340E-03
  0.1411905E+01 -0.3539370E-03 -0.5798340E-03  0.2207126E+05  0.6573076E+04  0.3458316E-03 -0.7019043E-03
  0.1442857E+01  0.2643850E-03 -0.3967285E-03  0.2193071E+05  0.6478761E+04  0.2199683E-02 -0.6713867E-03
  0.1473810E+01  0.1397695E-03 -0.3051758E-04  0.2183101E+05  0.6369190E+04  0.4969583E-03 -0.1098633E-02
  0.1504762E+01  0.1467180E-02  0.2136230E-03  0.2177249E+05  0.6242599E+04  0.6489814E-03 -0.8239746E-03
  0.1535714E+01 -0.4269355E-04  0.2136230E-03  0.2161235E+05  0.6072870E+04  0.7948764E-03 -0.1068115E-02
  0.1566667E+01 -0.8278705E-04 -0.1312256E-02  0.2147026E+05  0.5898484E+04  0.1947930E-02  0.1556396E-02
  0.1597619E+01 -0.2148965E-04  0.3967285E-03  0.2136007E+05  0.5717558E+04  0.6876688E-03  0.2746582E-03
  0.1628572E+01  0.8526183E-03 -0.1220703E-02  0.2126992E+05  0.5521921E+04  0.5996436E-03  0.3051758E-03
  0.1659524E+01  0.3310085E-03 -0.1068115E-02  0.2121774E+05  0.5342342E+04  0.1250476E-02  0.2685547E-02
  0.1690476E+01  0.5348098E-03  0.8239746E-03  0.2119978E+05  0.5168928E+04  0.2021897E-02 -0.1251221E-02
  0.1721429E+01  0.2016566E-03 -0.2563477E-02  0.2121234E+05  0.4994880E+04  0.2411015E-02  0.2258301E-02
  0.1752381E+01  0.9621745E-03  0.6103516E-03  0.2121100E+05  0.4795762E+04  0.1114555E-02 -0.1098633E-02
  0.1783333E+01  0.3850349E-03  0.1739502E-02  0.2113925E+05  0.4538478E+04  0.1026760E-02  0.3051758E-04
  0.1814286E+01  0.6686234E-03  0.6103516E-04  0.2110424E+05  0.4310785E+04  0.3364143E-02 -0.2624512E-02
  0.1845238E+01  0.3597137E-03 -0.1373291E-02  0.2108579E+05  0.4083193E+04  0.1984627E-02  0.1434326E-02
  0.1876190E+01  0.2480522E-03 -0.2258301E-02  0.2108138E+05  0.3852944E+04 -0.6506286E-04  0.3250122E-02
  0.1907143E+01  0.5960643E-03  0.3692627E-02  0.2109698E+05  0.3657234E+04  0.3840415E-03 -0.3280640E-02
  0.1938095E+01  0.7282604E-03 -0.8850098E-03  0.2113300E+05  0.3488950E+04  0.2519387E-03  0.1708984E-02
  0.1969048E+01  0.1704851E-03  0.7476807E-03  0.2118630E+05  0.3335661E+04  0.1797843E-02  0.7934570E-03
  0.2000000E+01 -0.1678467E-03 -0.1602173E-02  0.2125540E+05  0.3198124E+04  0.1708984E-02  0.1571655E-02
Zone t="Motion of body    1 in DoF   3",I=    64,F=POINT
  0.5000000E-01 -0.2860568E+05 -0.7788670E-03  0.2861023E-02 -0.3225631E-05  0.6524270E+05  0.6525581E-03
  0.8095238E-01 -0.2854348E+05 -0.3289436E-02  0.2874486E-02 -0.3173922E-05  0.6505111E+05  0.2634049E-02
  0.1119048E+00 -0.2866984E+05 -0.9234510E-02  0.1261285E-02 -0.1396082E-05  0.6517517E+05  0.7324304E-02
  0.1428571E+00 -0.2867490E+05 -0.2078660E-01  0.8571625E-02  0.4340670E-04  0.6523245E+05  0.1642341E-01
  0.1738095E+00 -0.2878945E+05 -0.4163315E-01  0.1975281E-03 -0.1802837E-04  0.6532656E+05  0.3297958E-01
  0.2047619E+00 -0.2877137E+05 -0.7697283E-01  0.1602173E-01  0.1532605E-03  0.6536904E+05  0.6122597E-01
  0.2357143E+00 -0.2883993E+05 -0.1358604E+00  0.1430627E-01  0.1582800E-03  0.6535940E+05  0.1081493E+00
  0.2666667E+00 -0.2886201E+05 -0.2323319E+00  0.3032684E-02  0.5056150E-04  0.6545619E+05  0.1850063E+00
  0.2976190E+00 -0.2890447E+05 -0.3908465E+00 -0.1563721E-02 -0.5803071E-04  0.6541274E+05  0.3114350E+00
  0.3285715E+00 -0.2895021E+05 -0.6488344E+00  0.6640890E-02  0.6662682E-04  0.6553329E+05  0.5180681E+00
  0.3595238E+00 -0.2905516E+05 -0.1070175E+01 -0.2164525E-02 -0.4026107E-04  0.6554176E+05  0.8561493E+00
  0.3904762E+00 -0.2907680E+05 -0.1750737E+01  0.2286027E-02 -0.2283789E-04  0.6563180E+05  0.1403264E+01
  0.4214286E+00 -0.2914521E+05 -0.2829779E+01  0.4308667E-02  0.7294491E-04  0.6564762E+05  0.2272849E+01
  0.4523810E+00 -0.2926756E+05 -0.4536947E+01 -0.1888877E-02 -0.1142137E-03  0.6574121E+05  0.3650176E+01
  0.4833333E+00 -0.2933552E+05 -0.7097103E+01  0.5808863E-02  0.6489754E-03  0.6580275E+05  0.5720225E+01
  0.5142857E+00 -0.2939792E+05 -0.1090857E+02  0.5607605E-02  0.3073066E-03  0.6579781E+05  0.8812460E+01
  0.5452381E+00 -0.2948391E+05 -0.1637983E+02 -0.2294815E-02 -0.6088763E-03  0.6602304E+05  0.1326756E+02
  0.5761905E+00 -0.2967412E+05 -0.2405861E+02  0.3839918E-02  0.3669858E-03  0.6607802E+05  0.1953231E+02
  0.6071429E+00 -0.2979310E+05 -0.3466744E+02  0.7036994E-02  0.6252527E-03  0.6616648E+05  0.2821912E+02
  0.6380953E+00 -0.2986105E+05 -0.4884874E+02  0.2678259E-02  0.7027388E-04  0.6635255E+05  0.3987297E+02
  0.6690477E+00 -0.3001743E+05 -0.6764535E+02  0.3740304E-02 -0.2233386E-03  0.6640783E+05  0.5538694E+02
  0.7000000E+00 -0.3017650E+05 -0.9234174E+02  0.4948207E-02  0.1388788E-03  0.6649900E+05  0.7576955E+02
  0.7309524E+00 -0.3034815E+05 -0.1242214E+03  0.1302613E-01  0.1615167E-02  0.6676323E+05  0.1022277E+03
  0.7619048E+00 -0.3057220E+05 -0.1649654E+03  0.3745079E-02  0.7350445E-03  0.6686018E+05  0.1361659E+03
  0.7928572E+00 -0.3071905E+05 -0.2163057E+03 -0.6543408E-03  0.2496243E-03  0.6693414E+05  0.1790690E+03
  0.8238096E+00 -0.3091912E+05 -0.2804513E+03  0.7001402E-02  0.8020401E-03  0.6724391E+05  0.2330846E+03
  0.8547620E+00 -0.3105142E+05 -0.3597607E+03  0.4427174E-02  0.1184464E-02  0.6740380E+05  0.2997915E+03
  0.8857143E+00 -0.3136452E+05 -0.4572588E+03  0.3790086E-02 -0.2198219E-03  0.6756015E+05  0.3818838E+03
  0.9166667E+00 -0.3159638E+05 -0.5759768E+03  0.4677512E-02  0.4386902E-03  0.6769270E+05  0.4823270E+03
  0.9476191E+00 -0.3189593E+05 -0.7196209E+03  0.6730736E-02  0.2367973E-02  0.6806520E+05  0.6049632E+03
  0.9785714E+00 -0.3208865E+05 -0.8919755E+03  0.4989735E-02  0.2664566E-02  0.6831498E+05  0.7523450E+03
  0.1009524E+01 -0.3237351E+05 -0.1097103E+04  0.7255123E-02  0.2758980E-02  0.6845619E+05  0.9283134E+03
  0.1040476E+01 -0.3263837E+05 -0.1338883E+04  0.4663533E-02  0.1448631E-02  0.6869447E+05  0.1137036E+04
  0.1071429E+01 -0.3286901E+05 -0.1621197E+04  0.5497233E-02  0.1775742E-02  0.6888292E+05  0.1380470E+04
  0.1102381E+01 -0.3320014E+05 -0.1948694E+04  0.5813499E-02  0.7629395E-04  0.6925613E+05  0.1662652E+04
  0.1133333E+01 -0.3346177E+05 -0.2329906E+04  0.7701200E-02 -0.1316071E-03  0.6953649E+05  0.1993250E+04
  0.1164286E+01 -0.3380169E+05 -0.2768808E+04  0.3538541E-02 -0.1710892E-02  0.6970699E+05  0.2374328E+04
  0.1195238E+01 -0.3411802E+05 -0.3271272E+04  0.9447075E-03 -0.1342773E-02  0.6999339E+05  0.2815174E+04
  0.1226190E+01 -0.3434378E+05 -0.3841923E+04  0.4828296E-02 -0.3509521E-03  0.7014084E+05  0.3315979E+04
  0.1257143E+01 -0.3460483E+05 -0.4487022E+04 -0.1213767E-03 -0.3189087E-02  0.7049082E+05  0.3888751E+04
  0.1288095E+01 -0.3483311E+05 -0.5214233E+04 -0.5449165E-03 -0.2613068E-02  0.7079095E+05  0.4536113E+04
  0.1319048E+01 -0.3500140E+05 -0.6021056E+04  0.4627214E-03 -0.3524780E-02  0.7095765E+05  0.5252305E+04
  0.1350000E+01 -0.3522640E+05 -0.6906227E+04  0.1424154E-02 -0.2120972E-02  0.7107530E+05  0.6036037E+04
  0.1380952E+01 -0.3540970E+05 -0.7862886E+04  0.7800925E-02  0.4447937E-02  0.7120206E+05  0.6877717E+04
  0.1411905E+01 -0.3546004E+05 -0.8902245E+04  0.8429645E-02  0.7171631E-03  0.7119191E+05  0.7799696E+04
  0.1442857E+01 -0.3556882E+05 -0.1004184E+05  0.5097342E-02  0.5805969E-02  0.7136313E+05  0.8825457E+04
  0.1473810E+01 -0.3560685E+05 -0.1126836E+05  0.3892840E-02 -0.3471375E-02  0.7148749E+05  0.9933135E+04
  0.1504762E+01 -0.3553352E+05 -0.1257726E+05  0.6834585E-02  0.1319885E-02  0.7149088E+05  0.1111845E+05
  0.1535714E+01 -0.3544736E+05 -0.1395507E+05  0.3298737E-02 -0.1983643E-02  0.7132680E+05  0.1235210E+05
  0.1566667E+01 -0.3534688E+05 -0.1538781E+05  0.2902416E-02  0.4577637E-04  0.7119405E+05  0.1363890E+05
  0.1597619E+01 -0.3516486E+05 -0.1684795E+05  0.3247325E-02 -0.2288818E-02  0.7099936E+05  0.1494251E+05
  0.1628572E+01 -0.3485039E+05 -0.1835050E+05  0.4609760E-02  0.3051758E-03  0.7065512E+05  0.1628757E+05
  0.1659524E+01 -0.3453380E+05 -0.1990161E+05  0.5277746E-02 -0.5798340E-03  0.7042534E+05  0.1770917E+05
  0.1690476E+01 -0.3416699E+05 -0.2147357E+05  0.4711742E-02 -0.3051758E-03  0.7019716E+05  0.1916092E+05
  0.1721429E+01 -0.3364963E+05 -0.2302791E+05  0.5282960E-02  0.6256104E-03  0.6977245E+05  0.2058320E+05
  0.1752381E+01 -0.3309643E+05 -0.2456306E+05  0.4841349E-02 -0.9765625E-03  0.6927362E+05  0.2197173E+05
  0.1783333E+01 -0.3256339E+05 -0.2603709E+05  0.2703800E-02  0.2426147E-02  0.6863876E+05  0.2323943E+05
  0.1814286E+01 -0.3199713E+05 -0.2749260E+05  0.5853608E-02  0.3112793E-02  0.6812180E+05  0.2456358E+05
  0.1845238E+01 -0.3135600E+05 -0.2888200E+05  0.2778478E-02 -0.2441406E-03  0.6751480E+05  0.2582500E+05
  0.1876190E+01 -0.3060843E+05 -0.3016982E+05  0.2667577E-02  0.1373291E-03  0.6676829E+05  0.2696014E+05
  0.1907143E+01 -0.2989237E+05 -0.3140138E+05  0.3296356E-02  0.7476807E-03  0.6613370E+05  0.2808852E+05
  0.1938095E+01 -0.2920680E+05 -0.3255865E+05  0.4282958E-02  0.3524780E-02  0.6560723E+05  0.2919444E+05
  0.1969048E+01 -0.2845112E+05 -0.3358462E+05  0.1983827E-02  0.1022339E-02  0.6497302E+05  0.3015185E+05
  0.2000000E+01 -0.2765196E+05 -0.3449947E+05  0.3082275E-02  0.5081177E-02  0.6428121E+05  0.3100224E+05
