VARIABLES="w (rad/s)"
"abs(F   1   1)" "angle(F   1   1)"
"abs(F   1   2)" "angle(F   1   2)"
"abs(F   1   3)" "angle(F   1   3)"
Zone t="Diffraction force - beta =   0.000 deg",I=    64,F=POINT
  0.5000000E-01  0.4677873E+03 -0.1570796E+01  0.3270582E+02 -0.3109320E+01  0.4589996E+03  0.1570797E+01
  0.8095238E-01  0.7646583E+03 -0.1570796E+01  0.8530451E+02 -0.3108317E+01  0.7504364E+03  0.1570797E+01
  0.1119048E+00  0.1070233E+04 -0.1570795E+01  0.1626884E+03 -0.3106965E+01  0.1050645E+04  0.1570798E+01
  0.1428571E+00  0.1387516E+04 -0.1570794E+01  0.2649020E+03 -0.3105153E+01  0.1359771E+04  0.1570799E+01
  0.1738095E+00  0.1715669E+04 -0.1570792E+01  0.3926192E+03 -0.3102831E+01  0.1680726E+04  0.1570800E+01
  0.2047619E+00  0.2063787E+04 -0.1570789E+01  0.5461479E+03 -0.3099871E+01  0.2018066E+04  0.1570802E+01
  0.2357143E+00  0.2431543E+04 -0.1570785E+01  0.7264357E+03 -0.3096107E+01  0.2377404E+04  0.1570805E+01
  0.2666667E+00  0.2828098E+04 -0.1570779E+01  0.9342056E+03 -0.3091477E+01  0.2761638E+04  0.1570810E+01
  0.2976190E+00  0.3260566E+04 -0.1570771E+01  0.1169970E+04 -0.3085608E+01  0.3177769E+04  0.1570817E+01
  0.3285715E+00  0.3730617E+04 -0.1570758E+01  0.1435543E+04 -0.3078526E+01  0.3632520E+04  0.1570828E+01
  0.3595238E+00  0.4247148E+04 -0.1570739E+01  0.1730287E+04 -0.3069845E+01  0.4132209E+04  0.1570844E+01
  0.3904762E+00  0.4822604E+04 -0.1570710E+01  0.2055216E+04 -0.3059433E+01  0.4680384E+04  0.1570868E+01
  0.4214286E+00  0.5460347E+04 -0.1570668E+01  0.2409001E+04 -0.3047665E+01  0.5288359E+04  0.1570903E+01
  0.4523810E+00  0.6155860E+04 -0.1570605E+01  0.2793315E+04 -0.3033975E+01  0.5957334E+04  0.1570954E+01
  0.4833333E+00  0.6922100E+04 -0.1570517E+01  0.3202598E+04 -0.3019809E+01  0.6684802E+04  0.1571026E+01
  0.5142857E+00  0.7760934E+04 -0.1570394E+01  0.3637584E+04 -0.3004339E+01  0.7470585E+04  0.1571128E+01
  0.5452381E+00  0.8659436E+04 -0.1570229E+01  0.4099759E+04 -0.2988718E+01  0.8313111E+04  0.1571264E+01
  0.5761905E+00  0.9602263E+04 -0.1570012E+01  0.4585635E+04 -0.2973092E+01  0.9205434E+04  0.1571442E+01
  0.6071429E+00  0.1060662E+05 -0.1569728E+01  0.5093148E+04 -0.2956851E+01  0.1014050E+05  0.1571674E+01
  0.6380953E+00  0.1167186E+05 -0.1569372E+01  0.5624736E+04 -0.2941150E+01  0.1111834E+05  0.1571967E+01
  0.6690477E+00  0.1277287E+05 -0.1568923E+01  0.6177124E+04 -0.2925307E+01  0.1213295E+05  0.1572335E+01
  0.7000000E+00  0.1391603E+05 -0.1568365E+01  0.6751519E+04 -0.2909267E+01  0.1318154E+05  0.1572793E+01
  0.7309524E+00  0.1510096E+05 -0.1567682E+01  0.7348959E+04 -0.2893534E+01  0.1426556E+05  0.1573351E+01
  0.7619048E+00  0.1632402E+05 -0.1566853E+01  0.7962520E+04 -0.2877673E+01  0.1537181E+05  0.1574028E+01
  0.7928572E+00  0.1760307E+05 -0.1565856E+01  0.8591541E+04 -0.2861703E+01  0.1650931E+05  0.1574843E+01
  0.8238096E+00  0.1892181E+05 -0.1564667E+01  0.9238515E+04 -0.2845826E+01  0.1767133E+05  0.1575815E+01
  0.8547620E+00  0.2027585E+05 -0.1563260E+01  0.9902550E+04 -0.2830122E+01  0.1886679E+05  0.1576962E+01
  0.8857143E+00  0.2164745E+05 -0.1561603E+01  0.1058065E+05 -0.2814529E+01  0.2007132E+05  0.1578310E+01
  0.9166667E+00  0.2305821E+05 -0.1559673E+01  0.1127196E+05 -0.2799093E+01  0.2130439E+05  0.1579878E+01
  0.9476191E+00  0.2450821E+05 -0.1557439E+01  0.1197278E+05 -0.2783746E+01  0.2254610E+05  0.1581694E+01
  0.9785714E+00  0.2600672E+05 -0.1554872E+01  0.1268038E+05 -0.2768475E+01  0.2380827E+05  0.1583779E+01
  0.1009524E+01  0.2752481E+05 -0.1551932E+01  0.1339446E+05 -0.2753333E+01  0.2507313E+05  0.1586164E+01
  0.1040476E+01  0.2908681E+05 -0.1548591E+01  0.1411687E+05 -0.2738488E+01  0.2636655E+05  0.1588872E+01
  0.1071429E+01  0.3065596E+05 -0.1544802E+01  0.1484580E+05 -0.2723926E+01  0.2765569E+05  0.1591935E+01
  0.1102381E+01  0.3225528E+05 -0.1540542E+01  0.1558178E+05 -0.2709744E+01  0.2895050E+05  0.1595377E+01
  0.1133333E+01  0.3387654E+05 -0.1535769E+01  0.1632109E+05 -0.2695862E+01  0.3026281E+05  0.1599222E+01
  0.1164286E+01  0.3549299E+05 -0.1530440E+01  0.1705884E+05 -0.2682114E+01  0.3154983E+05  0.1603505E+01
  0.1195238E+01  0.3715000E+05 -0.1524544E+01  0.1779695E+05 -0.2668671E+01  0.3284517E+05  0.1608241E+01
  0.1226190E+01  0.3881840E+05 -0.1518036E+01  0.1853161E+05 -0.2655429E+01  0.3411798E+05  0.1613464E+01
  0.1257143E+01  0.4046728E+05 -0.1510885E+01  0.1926766E+05 -0.2642126E+01  0.3536151E+05  0.1619184E+01
  0.1288095E+01  0.4220855E+05 -0.1503080E+01  0.1999680E+05 -0.2630045E+01  0.3663181E+05  0.1625441E+01
  0.1319048E+01  0.4389438E+05 -0.1494550E+01  0.2072442E+05 -0.2617882E+01  0.3787214E+05  0.1632238E+01
  0.1350000E+01  0.4554519E+05 -0.1485267E+01  0.2144599E+05 -0.2606038E+01  0.3906384E+05  0.1639608E+01
  0.1380952E+01  0.4720405E+05 -0.1475248E+01  0.2216600E+05 -0.2594801E+01  0.4024656E+05  0.1647539E+01
  0.1411905E+01  0.4858482E+05 -0.1464847E+01  0.2286066E+05 -0.2583723E+01  0.4131007E+05  0.1655602E+01
  0.1442857E+01  0.5016250E+05 -0.1453322E+01  0.2356767E+05 -0.2573213E+01  0.4239511E+05  0.1664632E+01
  0.1473810E+01  0.5170711E+05 -0.1441051E+01  0.2426616E+05 -0.2563014E+01  0.4341902E+05  0.1674210E+01
  0.1504762E+01  0.5321120E+05 -0.1428010E+01  0.2495447E+05 -0.2553103E+01  0.4439900E+05  0.1684338E+01
  0.1535714E+01  0.5464645E+05 -0.1414195E+01  0.2562987E+05 -0.2543397E+01  0.4529804E+05  0.1695007E+01
  0.1566667E+01  0.5601891E+05 -0.1399634E+01  0.2629472E+05 -0.2534063E+01  0.4612555E+05  0.1706190E+01
  0.1597619E+01  0.5733595E+05 -0.1384377E+01  0.2695250E+05 -0.2525216E+01  0.4689951E+05  0.1717826E+01
  0.1628572E+01  0.5854738E+05 -0.1368396E+01  0.2759876E+05 -0.2516720E+01  0.4757668E+05  0.1729905E+01
  0.1659524E+01  0.5966236E+05 -0.1351750E+01  0.2823778E+05 -0.2508774E+01  0.4817324E+05  0.1742363E+01
  0.1690476E+01  0.6065824E+05 -0.1334489E+01  0.2886669E+05 -0.2501272E+01  0.4866804E+05  0.1755133E+01
  0.1721429E+01  0.6154536E+05 -0.1316699E+01  0.2948416E+05 -0.2494194E+01  0.4907704E+05  0.1768126E+01
  0.1752381E+01  0.6229406E+05 -0.1298366E+01  0.3009384E+05 -0.2487609E+01  0.4939550E+05  0.1781313E+01
  0.1783333E+01  0.6286696E+05 -0.1279582E+01  0.3068910E+05 -0.2481207E+01  0.4956435E+05  0.1794575E+01
  0.1814286E+01  0.6331196E+05 -0.1260492E+01  0.3127635E+05 -0.2475284E+01  0.4964899E+05  0.1807817E+01
  0.1845238E+01  0.6361934E+05 -0.1241238E+01  0.3185530E+05 -0.2469701E+01  0.4963237E+05  0.1820891E+01
  0.1876190E+01  0.6375453E+05 -0.1221851E+01  0.3242230E+05 -0.2464380E+01  0.4948125E+05  0.1833731E+01
  0.1907143E+01  0.6372761E+05 -0.1202424E+01  0.3297966E+05 -0.2459388E+01  0.4921600E+05  0.1846235E+01
  0.1938095E+01  0.6354991E+05 -0.1183100E+01  0.3352750E+05 -0.2454774E+01  0.4884943E+05  0.1858280E+01
  0.1969048E+01  0.6321687E+05 -0.1164014E+01  0.3406368E+05 -0.2450530E+01  0.4837346E+05  0.1869711E+01
  0.2000000E+01  0.6272184E+05 -0.1145100E+01  0.3459051E+05 -0.2446518E+01  0.4782006E+05  0.1880526E+01
