VARIABLES="w (rad/s)"
"abs(F   1   1)" "angle(F   1   1)"
"abs(F   1   2)" "angle(F   1   2)"
"abs(F   1   3)" "angle(F   1   3)"
Zone t="Diffraction force - beta =   0.000 deg",I=    64,F=POINT
  0.5000000E-01  0.7815985E+03 -0.1570814E+01  0.1223320E+06 -0.8626627E-05  0.6339258E+03  0.1570829E+01
  0.8095238E-01  0.1276051E+04 -0.1570790E+01  0.1221992E+06 -0.2322480E-04  0.1035354E+04  0.1570817E+01
  0.1119048E+00  0.1784042E+04 -0.1570787E+01  0.1220038E+06 -0.4616549E-04  0.1448035E+04  0.1570774E+01
  0.1428571E+00  0.2310671E+04 -0.1570796E+01  0.1217457E+06 -0.7927130E-04  0.1873194E+04  0.1570797E+01
  0.1738095E+00  0.2857452E+04 -0.1570791E+01  0.1214243E+06 -0.1253009E-03  0.2314950E+04  0.1570808E+01
  0.2047619E+00  0.3436160E+04 -0.1570790E+01  0.1210396E+06 -0.1882005E-03  0.2779237E+04  0.1570795E+01
  0.2357143E+00  0.4049566E+04 -0.1570788E+01  0.1205905E+06 -0.2739083E-03  0.3273259E+04  0.1570803E+01
  0.2666667E+00  0.4710407E+04 -0.1570784E+01  0.1200767E+06 -0.3897427E-03  0.3801745E+04  0.1570806E+01
  0.2976190E+00  0.5429893E+04 -0.1570780E+01  0.1194979E+06 -0.5478489E-03  0.4373785E+04  0.1570810E+01
  0.3285715E+00  0.6214256E+04 -0.1570775E+01  0.1188525E+06 -0.7612389E-03  0.4998408E+04  0.1570828E+01
  0.3595238E+00  0.7077244E+04 -0.1570760E+01  0.1181422E+06 -0.1049897E-02  0.5684351E+04  0.1570832E+01
  0.3904762E+00  0.8036031E+04 -0.1570745E+01  0.1173663E+06 -0.1437094E-02  0.6437469E+04  0.1570851E+01
  0.4214286E+00  0.9098024E+04 -0.1570718E+01  0.1165271E+06 -0.1938935E-02  0.7270943E+04  0.1570870E+01
  0.4523810E+00  0.1026136E+05 -0.1570681E+01  0.1156242E+06 -0.2594865E-02  0.8187035E+04  0.1570911E+01
  0.4833333E+00  0.1153985E+05 -0.1570627E+01  0.1146640E+06 -0.3393042E-02  0.9183265E+04  0.1570963E+01
  0.5142857E+00  0.1293435E+05 -0.1570555E+01  0.1136471E+06 -0.4379425E-02  0.1025846E+05  0.1571037E+01
  0.5452381E+00  0.1442958E+05 -0.1570455E+01  0.1125733E+06 -0.5545862E-02  0.1140928E+05  0.1571137E+01
  0.5761905E+00  0.1600723E+05 -0.1570326E+01  0.1114467E+06 -0.6900495E-02  0.1262670E+05  0.1571268E+01
  0.6071429E+00  0.1768151E+05 -0.1570156E+01  0.1102712E+06 -0.8484396E-02  0.1390155E+05  0.1571436E+01
  0.6380953E+00  0.1944924E+05 -0.1569942E+01  0.1090446E+06 -0.1027033E-01  0.1523203E+05  0.1571652E+01
  0.6690477E+00  0.2128315E+05 -0.1569671E+01  0.1077721E+06 -0.1230065E-01  0.1661046E+05  0.1571922E+01
  0.7000000E+00  0.2318797E+05 -0.1569338E+01  0.1064540E+06 -0.1460287E-01  0.1803268E+05  0.1572258E+01
  0.7309524E+00  0.2516190E+05 -0.1568927E+01  0.1050904E+06 -0.1717019E-01  0.1949889E+05  0.1572666E+01
  0.7619048E+00  0.2720008E+05 -0.1568429E+01  0.1036894E+06 -0.2003380E-01  0.2099472E+05  0.1573163E+01
  0.7928572E+00  0.2931927E+05 -0.1567831E+01  0.1022540E+06 -0.2321296E-01  0.2252812E+05  0.1573763E+01
  0.8238096E+00  0.3150208E+05 -0.1567114E+01  0.1007828E+06 -0.2672179E-01  0.2409126E+05  0.1574477E+01
  0.8547620E+00  0.3374302E+05 -0.1566268E+01  0.9927791E+05 -0.3057269E-01  0.2569200E+05  0.1575324E+01
  0.8857143E+00  0.3602329E+05 -0.1565272E+01  0.9774396E+05 -0.3478339E-01  0.2730489E+05  0.1576319E+01
  0.9166667E+00  0.3836342E+05 -0.1564111E+01  0.9618326E+05 -0.3936838E-01  0.2894834E+05  0.1577481E+01
  0.9476191E+00  0.4076230E+05 -0.1562765E+01  0.9460125E+05 -0.4434343E-01  0.3060136E+05  0.1578825E+01
  0.9785714E+00  0.4322810E+05 -0.1561216E+01  0.9300223E+05 -0.4972095E-01  0.3227474E+05  0.1580373E+01
  0.1009524E+01  0.4573068E+05 -0.1559442E+01  0.9138779E+05 -0.5551571E-01  0.3394962E+05  0.1582146E+01
  0.1040476E+01  0.4829313E+05 -0.1557423E+01  0.8975692E+05 -0.6173594E-01  0.3565077E+05  0.1584164E+01
  0.1071429E+01  0.5087749E+05 -0.1555135E+01  0.8811259E+05 -0.6839631E-01  0.3734430E+05  0.1586451E+01
  0.1102381E+01  0.5350545E+05 -0.1552559E+01  0.8645537E+05 -0.7550669E-01  0.3903910E+05  0.1589024E+01
  0.1133333E+01  0.5616743E+05 -0.1549673E+01  0.8479022E+05 -0.8308044E-01  0.4074595E+05  0.1591908E+01
  0.1164286E+01  0.5883530E+05 -0.1546456E+01  0.8312414E+05 -0.9113775E-01  0.4242100E+05  0.1595122E+01
  0.1195238E+01  0.6155305E+05 -0.1542887E+01  0.8145544E+05 -0.9968353E-01  0.4409681E+05  0.1598683E+01
  0.1226190E+01  0.6428988E+05 -0.1538949E+01  0.7978941E+05 -0.1087330E+00  0.4574150E+05  0.1602617E+01
  0.1257143E+01  0.6701338E+05 -0.1534631E+01  0.7812668E+05 -0.1183974E+00  0.4734730E+05  0.1606929E+01
  0.1288095E+01  0.6983384E+05 -0.1529888E+01  0.7646080E+05 -0.1283786E+00  0.4896925E+05  0.1611665E+01
  0.1319048E+01  0.7260162E+05 -0.1524727E+01  0.7480236E+05 -0.1390018E+00  0.5054957E+05  0.1616816E+01
  0.1350000E+01  0.7533534E+05 -0.1519128E+01  0.7315228E+05 -0.1501732E+00  0.5206862E+05  0.1622403E+01
  0.1380952E+01  0.7807619E+05 -0.1513085E+01  0.7150356E+05 -0.1618899E+00  0.5356514E+05  0.1628432E+01
  0.1411905E+01  0.8053707E+05 -0.1506957E+01  0.6988129E+05 -0.1740565E+00  0.5492829E+05  0.1634543E+01
  0.1442857E+01  0.8318912E+05 -0.1500064E+01  0.6825187E+05 -0.1869530E+00  0.5629718E+05  0.1641415E+01
  0.1473810E+01  0.8580105E+05 -0.1492746E+01  0.6663579E+05 -0.2004760E+00  0.5758864E+05  0.1648705E+01
  0.1504762E+01  0.8836317E+05 -0.1484999E+01  0.6503556E+05 -0.2146410E+00  0.5881895E+05  0.1656423E+01
  0.1535714E+01  0.9084485E+05 -0.1476841E+01  0.6345549E+05 -0.2294673E+00  0.5995035E+05  0.1664546E+01
  0.1566667E+01  0.9324987E+05 -0.1468294E+01  0.6189164E+05 -0.2449650E+00  0.6099147E+05  0.1673055E+01
  0.1597619E+01  0.9558336E+05 -0.1459388E+01  0.6034020E+05 -0.2611742E+00  0.6195961E+05  0.1681916E+01
  0.1628572E+01  0.9779268E+05 -0.1450155E+01  0.5880738E+05 -0.2781135E+00  0.6281099E+05  0.1691096E+01
  0.1659524E+01  0.9988481E+05 -0.1440634E+01  0.5728697E+05 -0.2958172E+00  0.6356126E+05  0.1700554E+01
  0.1690476E+01  0.1018351E+06 -0.1430890E+01  0.5578341E+05 -0.3143186E+00  0.6418893E+05  0.1710221E+01
  0.1721429E+01  0.1036519E+06 -0.1420979E+01  0.5429878E+05 -0.3336455E+00  0.6470968E+05  0.1720039E+01
  0.1752381E+01  0.1053036E+06 -0.1410942E+01  0.5282995E+05 -0.3538798E+00  0.6511862E+05  0.1729978E+01
  0.1783333E+01  0.1067516E+06 -0.1400895E+01  0.5138928E+05 -0.3750600E+00  0.6535679E+05  0.1739895E+01
  0.1814286E+01  0.1080428E+06 -0.1390896E+01  0.4996693E+05 -0.3972529E+00  0.6548970E+05  0.1749762E+01
  0.1845238E+01  0.1091672E+06 -0.1381061E+01  0.4856799E+05 -0.4205593E+00  0.6550080E+05  0.1759450E+01
  0.1876190E+01  0.1100899E+06 -0.1371476E+01  0.4719763E+05 -0.4449997E+00  0.6535729E+05  0.1768868E+01
  0.1907143E+01  0.1108211E+06 -0.1362213E+01  0.4585452E+05 -0.4706599E+00  0.6508012E+05  0.1777948E+01
  0.1938095E+01  0.1113727E+06 -0.1353366E+01  0.4453882E+05 -0.4975988E+00  0.6468282E+05  0.1786601E+01
  0.1969048E+01  0.1117419E+06 -0.1345045E+01  0.4325310E+05 -0.5258469E+00  0.6415838E+05  0.1794693E+01
  0.2000000E+01  0.1119216E+06 -0.1337256E+01  0.4200272E+05 -0.5555656E+00  0.6353922E+05  0.1802253E+01
