VARIABLES="w (rad/s)"
"abs(F   1   1)" "angle(F   1   1)"
"abs(F   1   2)" "angle(F   1   2)"
"abs(F   1   3)" "angle(F   1   3)"
Zone t="Diffraction force - beta =   0.000 deg",I=    64,F=POINT
  0.5000000E-01  0.3617392E+04 -0.1570794E+01  0.2386951E+03 -0.3080413E+01  0.7062667E+04  0.1570798E+01
  0.8095238E-01  0.5922358E+04 -0.1570791E+01  0.6169379E+03 -0.3078054E+01  0.1155022E+05  0.1570801E+01
  0.1119048E+00  0.8272079E+04 -0.1570785E+01  0.1170325E+04 -0.3075304E+01  0.1610529E+05  0.1570806E+01
  0.1428571E+00  0.1068747E+05 -0.1570776E+01  0.1900599E+04 -0.3071912E+01  0.2079986E+05  0.1570814E+01
  0.1738095E+00  0.1321592E+05 -0.1570763E+01  0.2810461E+04 -0.3067659E+01  0.2566522E+05  0.1570825E+01
  0.2047619E+00  0.1585816E+05 -0.1570744E+01  0.3907605E+04 -0.3062414E+01  0.3076747E+05  0.1570841E+01
  0.2357143E+00  0.1866272E+05 -0.1570716E+01  0.5194710E+04 -0.3055784E+01  0.3615660E+05  0.1570864E+01
  0.2666667E+00  0.2169102E+05 -0.1570676E+01  0.6681683E+04 -0.3047802E+01  0.4189614E+05  0.1570898E+01
  0.2976190E+00  0.2493676E+05 -0.1570616E+01  0.8374717E+04 -0.3037782E+01  0.4810448E+05  0.1570948E+01
  0.3285715E+00  0.2848192E+05 -0.1570527E+01  0.1028111E+05 -0.3025857E+01  0.5482141E+05  0.1571023E+01
  0.3595238E+00  0.3241617E+05 -0.1570394E+01  0.1239675E+05 -0.3011356E+01  0.6215445E+05  0.1571135E+01
  0.3904762E+00  0.3671416E+05 -0.1570196E+01  0.1474014E+05 -0.2994344E+01  0.7019675E+05  0.1571302E+01
  0.4214286E+00  0.4144452E+05 -0.1569905E+01  0.1726451E+05 -0.2975250E+01  0.7903810E+05  0.1571545E+01
  0.4523810E+00  0.4669819E+05 -0.1569480E+01  0.1999512E+05 -0.2953233E+01  0.8867326E+05  0.1571902E+01
  0.4833333E+00  0.5242127E+05 -0.1568891E+01  0.2286725E+05 -0.2930926E+01  0.9911302E+05  0.1572396E+01
  0.5142857E+00  0.5858191E+05 -0.1568073E+01  0.2589781E+05 -0.2906880E+01  0.1103282E+06  0.1573081E+01
  0.5452381E+00  0.6513960E+05 -0.1566984E+01  0.2906148E+05 -0.2882995E+01  0.1222468E+06  0.1573991E+01
  0.5761905E+00  0.7216892E+05 -0.1565572E+01  0.3232231E+05 -0.2859455E+01  0.1347433E+06  0.1575171E+01
  0.6071429E+00  0.7962187E+05 -0.1563752E+01  0.3568347E+05 -0.2835371E+01  0.1477878E+06  0.1576693E+01
  0.6380953E+00  0.8731573E+05 -0.1561482E+01  0.3916515E+05 -0.2812932E+01  0.1612749E+06  0.1578586E+01
  0.6690477E+00  0.9528694E+05 -0.1558666E+01  0.4272304E+05 -0.2790790E+01  0.1751781E+06  0.1580930E+01
  0.7000000E+00  0.1036173E+06 -0.1555215E+01  0.4633689E+05 -0.2768523E+01  0.1893476E+06  0.1583804E+01
  0.7309524E+00  0.1122171E+06 -0.1551062E+01  0.5001613E+05 -0.2747146E+01  0.2037398E+06  0.1587259E+01
  0.7619048E+00  0.1211349E+06 -0.1546099E+01  0.5374271E+05 -0.2726304E+01  0.2184296E+06  0.1591385E+01
  0.7928572E+00  0.1302433E+06 -0.1540219E+01  0.5750983E+05 -0.2705964E+01  0.2332077E+06  0.1596266E+01
  0.8238096E+00  0.1395240E+06 -0.1533319E+01  0.6130680E+05 -0.2686229E+01  0.2482365E+06  0.1601979E+01
  0.8547620E+00  0.1488489E+06 -0.1525294E+01  0.6511622E+05 -0.2667063E+01  0.2631158E+06  0.1608604E+01
  0.8857143E+00  0.1584341E+06 -0.1516079E+01  0.6892062E+05 -0.2648420E+01  0.2779090E+06  0.1616212E+01
  0.9166667E+00  0.1681958E+06 -0.1505581E+01  0.7272107E+05 -0.2630453E+01  0.2925533E+06  0.1624873E+01
  0.9476191E+00  0.1780495E+06 -0.1493697E+01  0.7648945E+05 -0.2613047E+01  0.3071425E+06  0.1634653E+01
  0.9785714E+00  0.1877279E+06 -0.1480317E+01  0.8022076E+05 -0.2596249E+01  0.3210878E+06  0.1645626E+01
  0.1009524E+01  0.1974078E+06 -0.1465411E+01  0.8392956E+05 -0.2580335E+01  0.3349160E+06  0.1657805E+01
  0.1040476E+01  0.2067779E+06 -0.1448897E+01  0.8760098E+05 -0.2565173E+01  0.3479643E+06  0.1671227E+01
  0.1071429E+01  0.2159278E+06 -0.1430814E+01  0.9122698E+05 -0.2550734E+01  0.3602891E+06  0.1685860E+01
  0.1102381E+01  0.2247164E+06 -0.1411149E+01  0.9478802E+05 -0.2536838E+01  0.3717225E+06  0.1701690E+01
  0.1133333E+01  0.2329957E+06 -0.1389928E+01  0.9827974E+05 -0.2523446E+01  0.3819278E+06  0.1718669E+01
  0.1164286E+01  0.2408538E+06 -0.1367260E+01  0.1017049E+06 -0.2510833E+01  0.3912161E+06  0.1736683E+01
  0.1195238E+01  0.2478693E+06 -0.1343115E+01  0.1050615E+06 -0.2498980E+01  0.3989458E+06  0.1755677E+01
  0.1226190E+01  0.2540956E+06 -0.1317736E+01  0.1083609E+06 -0.2488080E+01  0.4052000E+06  0.1775412E+01
  0.1257143E+01  0.2592637E+06 -0.1291036E+01  0.1116121E+06 -0.2477640E+01  0.4100814E+06  0.1795847E+01
  0.1288095E+01  0.2634187E+06 -0.1263606E+01  0.1147491E+06 -0.2468312E+01  0.4131223E+06  0.1816496E+01
  0.1319048E+01  0.2663508E+06 -0.1235345E+01  0.1178530E+06 -0.2459531E+01  0.4145111E+06  0.1837313E+01
  0.1350000E+01  0.2680362E+06 -0.1206707E+01  0.1208919E+06 -0.2451343E+01  0.4139712E+06  0.1857882E+01
  0.1380952E+01  0.2684195E+06 -0.1177945E+01  0.1238678E+06 -0.2443875E+01  0.4114345E+06  0.1877944E+01
  0.1411905E+01  0.2662155E+06 -0.1151100E+01  0.1266508E+06 -0.2436591E+01  0.4063372E+06  0.1895311E+01
  0.1442857E+01  0.2641596E+06 -0.1123055E+01  0.1295084E+06 -0.2430036E+01  0.4005843E+06  0.1913320E+01
  0.1473810E+01  0.2607408E+06 -0.1095583E+01  0.1322989E+06 -0.2423819E+01  0.3931602E+06  0.1929953E+01
  0.1504762E+01  0.2560229E+06 -0.1068942E+01  0.1350224E+06 -0.2417958E+01  0.3841625E+06  0.1944909E+01
  0.1535714E+01  0.2502930E+06 -0.1043535E+01  0.1377336E+06 -0.2412746E+01  0.3742187E+06  0.1957882E+01
  0.1566667E+01  0.2433888E+06 -0.1019565E+01  0.1404036E+06 -0.2407741E+01  0.3629784E+06  0.1968545E+01
  0.1597619E+01  0.2355185E+06 -0.9972815E+00  0.1430578E+06 -0.2402943E+01  0.3509162E+06  0.1976695E+01
  0.1628572E+01  0.2267435E+06 -0.9770067E+00  0.1456756E+06 -0.2398171E+01  0.3380322E+06  0.1981988E+01
  0.1659524E+01  0.2172615E+06 -0.9588316E+00  0.1482660E+06 -0.2393278E+01  0.3248347E+06  0.1984402E+01
  0.1690476E+01  0.2070795E+06 -0.9428052E+00  0.1508148E+06 -0.2387975E+01  0.3113946E+06  0.1983880E+01
  0.1721429E+01  0.1961761E+06 -0.9293009E+00  0.1532668E+06 -0.2381944E+01  0.2973946E+06  0.1979831E+01
  0.1752381E+01  0.1849366E+06 -0.9186103E+00  0.1556793E+06 -0.2375588E+01  0.2837305E+06  0.1972616E+01
  0.1783333E+01  0.1733817E+06 -0.9111668E+00  0.1580109E+06 -0.2368603E+01  0.2702642E+06  0.1961837E+01
  0.1814286E+01  0.1614194E+06 -0.9071389E+00  0.1601878E+06 -0.2360566E+01  0.2568382E+06  0.1947316E+01
  0.1845238E+01  0.1493314E+06 -0.9071651E+00  0.1622217E+06 -0.2351891E+01  0.2439641E+06  0.1929282E+01
  0.1876190E+01  0.1370990E+06 -0.9120565E+00  0.1640408E+06 -0.2342251E+01  0.2314200E+06  0.1907243E+01
  0.1907143E+01  0.1248827E+06 -0.9226305E+00  0.1656348E+06 -0.2331642E+01  0.2195042E+06  0.1881503E+01
  0.1938095E+01  0.1127207E+06 -0.9397289E+00  0.1668788E+06 -0.2319855E+01  0.2083262E+06  0.1852659E+01
  0.1969048E+01  0.1006157E+06 -0.9658796E+00  0.1677192E+06 -0.2307337E+01  0.1975968E+06  0.1819567E+01
  0.2000000E+01  0.8875817E+05 -0.1003478E+01  0.1681273E+06 -0.2294107E+01  0.1875938E+06  0.1783172E+01
