VARIABLES="w (rad/s)"
"A   1   1" "B   1   1"
"A   1   2" "B   1   2"
"A   1   3" "B   1   3"
Zone t="Motion of body    1 in DoF   1",I=    64,F=POINT
  0.5000000E-01  0.3027975E+05  0.7917064E-03 -0.4577637E-03 -0.3619307E-05 -0.4588223E+05 -0.1107310E-02
  0.8095238E-01  0.3049900E+05  0.3317934E-02  0.1743541E-02 -0.9402174E-07 -0.4627853E+05 -0.4649671E-02
  0.1119048E+00  0.3060098E+05  0.9401409E-02  0.4465631E-02  0.7952294E-05 -0.4637671E+05 -0.1309691E-01
  0.1428571E+00  0.3065191E+05  0.2099493E-01  0.4032135E-02  0.1241030E-04 -0.4641634E+05 -0.2898475E-01
  0.1738095E+00  0.3069329E+05  0.4184750E-01  0.4191986E-02  0.1762839E-04 -0.4644820E+05 -0.5772436E-01
  0.2047619E+00  0.3072413E+05  0.7736797E-01  0.3576944E-02  0.3093120E-04 -0.4646952E+05 -0.1066996E+00
  0.2357143E+00  0.3076106E+05  0.1361786E+00  0.6101203E-02  0.4502013E-04 -0.4650179E+05 -0.1875412E+00
  0.2666667E+00  0.3080377E+05  0.2322478E+00 -0.2188683E-02 -0.9034714E-04 -0.4652682E+05 -0.3190567E+00
  0.2976190E+00  0.3081581E+05  0.3891641E+00  0.4434815E-02  0.5772966E-04 -0.4653420E+05 -0.5332996E+00
  0.3285715E+00  0.3088112E+05  0.6436911E+00  0.1346754E-02 -0.6358139E-05 -0.4659458E+05 -0.8794873E+00
  0.3595238E+00  0.3091510E+05  0.1056321E+01  0.5941833E-03 -0.1679175E-04 -0.4662277E+05 -0.1439304E+01
  0.3904762E+00  0.3096134E+05  0.1720835E+01  0.2618185E-02  0.8896645E-04 -0.4664126E+05 -0.2336124E+01
  0.4214286E+00  0.3103266E+05  0.2767213E+01  0.5050917E-02  0.8604303E-04 -0.4668792E+05 -0.3741197E+01
  0.4523810E+00  0.3112939E+05  0.4411984E+01  0.5531712E-02  0.2522469E-03 -0.4674145E+05 -0.5939033E+01
  0.4833333E+00  0.3116409E+05  0.6854569E+01  0.4277722E-02  0.2006404E-03 -0.4679724E+05 -0.9192412E+01
  0.5142857E+00  0.3122035E+05  0.1047781E+02  0.4183452E-02  0.1281202E-03 -0.4684835E+05 -0.1399180E+02
  0.5452381E+00  0.3136956E+05  0.1565405E+02  0.6996388E-03 -0.2407283E-03 -0.4695838E+05 -0.2079243E+02
  0.5761905E+00  0.3145863E+05  0.2281571E+02  0.3733989E-02  0.2960116E-03 -0.4703457E+05 -0.3015077E+02
  0.6071429E+00  0.3154458E+05  0.3264086E+02  0.2161362E-02 -0.4380941E-05 -0.4710957E+05 -0.4291119E+02
  0.6380953E+00  0.3164235E+05  0.4567053E+02  0.2510868E-02 -0.7054210E-04 -0.4722089E+05 -0.5972738E+02
  0.6690477E+00  0.3176797E+05  0.6282652E+02  0.4036791E-02  0.2014637E-03 -0.4732000E+05 -0.8166778E+02
  0.7000000E+00  0.3192211E+05  0.8516594E+02  0.2179827E-02  0.2214909E-03 -0.4742515E+05 -0.1099786E+03
  0.7309524E+00  0.3209096E+05  0.1136846E+03  0.2567651E-02  0.2872944E-04 -0.4758377E+05 -0.1458663E+03
  0.7619048E+00  0.3219744E+05  0.1496252E+03  0.5006790E-03 -0.8170605E-03 -0.4768710E+05 -0.1907549E+03
  0.7928572E+00  0.3231946E+05  0.1945776E+03 -0.1886041E-02 -0.1463532E-02 -0.4781022E+05 -0.2464252E+03
  0.8238096E+00  0.3252028E+05  0.2504285E+03 -0.1037245E-02 -0.6332397E-03 -0.4796157E+05 -0.3147365E+03
  0.8547620E+00  0.3271214E+05  0.3188658E+03  0.7747554E-02  0.1795530E-02 -0.4811996E+05 -0.3976966E+03
  0.8857143E+00  0.3290263E+05  0.4020481E+03  0.3755631E-02  0.3826618E-03 -0.4827883E+05 -0.4975326E+03
  0.9166667E+00  0.3310080E+05  0.5023317E+03  0.3245960E-02  0.1374722E-02 -0.4843510E+05 -0.6165574E+03
  0.9476191E+00  0.3332029E+05  0.6223656E+03  0.1094952E-02 -0.1964569E-03 -0.4860939E+05 -0.7574079E+03
  0.9785714E+00  0.3350844E+05  0.7645029E+03  0.9979471E-03 -0.3056526E-03 -0.4879586E+05 -0.9228601E+03
  0.1009524E+01  0.3368882E+05  0.9317217E+03  0.4141466E-02  0.3719330E-04 -0.4892819E+05 -0.1114749E+04
  0.1040476E+01  0.3392187E+05  0.1128005E+04  0.3167683E-02 -0.1478195E-03 -0.4911277E+05 -0.1337277E+04
  0.1071429E+01  0.3416959E+05  0.1356464E+04  0.3959147E-02  0.4692078E-03 -0.4926806E+05 -0.1592253E+04
  0.1102381E+01  0.3444648E+05  0.1621043E+04  0.3460416E-02  0.1064301E-02 -0.4946497E+05 -0.1883987E+04
  0.1133333E+01  0.3468918E+05  0.1924389E+04  0.7270364E-03 -0.1440048E-02 -0.4964401E+05 -0.2214557E+04
  0.1164286E+01  0.3490606E+05  0.2270110E+04 -0.8125539E-03 -0.2166748E-02 -0.4977390E+05 -0.2585435E+04
  0.1195238E+01  0.3513779E+05  0.2663124E+04 -0.3063916E-03 -0.1235962E-02 -0.4994723E+05 -0.3002166E+04
  0.1226190E+01  0.3532994E+05  0.3105126E+04  0.5724268E-03 -0.8869171E-03 -0.5004751E+05 -0.3462569E+04
  0.1257143E+01  0.3552303E+05  0.3600251E+04  0.5996010E-02  0.3879547E-02 -0.5014205E+05 -0.3970292E+04
  0.1288095E+01  0.3577096E+05  0.4155880E+04  0.3008886E-02  0.3776550E-03 -0.5027463E+05 -0.4530609E+04
  0.1319048E+01  0.3596676E+05  0.4769555E+04  0.4604078E-02  0.4577637E-04 -0.5034014E+05 -0.5138730E+04
  0.1350000E+01  0.3615333E+05  0.5446853E+04 -0.1537182E-02 -0.3810883E-02 -0.5038695E+05 -0.5798350E+04
  0.1380952E+01  0.3634207E+05  0.6191507E+04  0.2961257E-02 -0.2136230E-03 -0.5045441E+05 -0.6513121E+04
  0.1411905E+01  0.3626443E+05  0.6932837E+04  0.2031761E-02 -0.2296448E-02 -0.5033875E+05 -0.7215141E+04
  0.1442857E+01  0.3639398E+05  0.7801770E+04  0.2115080E-04 -0.2853394E-02 -0.5030845E+05 -0.8015228E+04
  0.1473810E+01  0.3650002E+05  0.8738219E+04  0.2464085E-02  0.3967285E-03 -0.5026907E+05 -0.8861591E+04
  0.1504762E+01  0.3653790E+05  0.9737932E+04  0.2697329E-02 -0.1449585E-02 -0.5017538E+05 -0.9747252E+04
  0.1535714E+01  0.3651020E+05  0.1079623E+05  0.4073741E-02  0.4158020E-02 -0.4999741E+05 -0.1065810E+05
  0.1566667E+01  0.3646069E+05  0.1191596E+05  0.8376101E-03 -0.1663208E-02 -0.4981221E+05 -0.1160248E+05
  0.1597619E+01  0.3638896E+05  0.1309188E+05  0.1623663E-02 -0.3509521E-02 -0.4960264E+05 -0.1256963E+05
  0.1628572E+01  0.3625587E+05  0.1431145E+05  0.3429212E-02  0.2456665E-02 -0.4930492E+05 -0.1353852E+05
  0.1659524E+01  0.3610533E+05  0.1557702E+05  0.4413446E-03 -0.3936768E-02 -0.4899601E+05 -0.1451749E+05
  0.1690476E+01  0.3592912E+05  0.1688054E+05  0.1227580E-02 -0.2105713E-02 -0.4867587E+05 -0.1549858E+05
  0.1721429E+01  0.3568014E+05  0.1820944E+05  0.1772805E-03 -0.5050659E-02 -0.4832043E+05 -0.1647377E+05
  0.1752381E+01  0.3537461E+05  0.1955041E+05  0.2438089E-03 -0.2593994E-02 -0.4790846E+05 -0.1741662E+05
  0.1783333E+01  0.3500932E+05  0.2089323E+05  0.2738026E-03 -0.1815796E-02 -0.4744405E+05 -0.1831865E+05
  0.1814286E+01  0.3461985E+05  0.2223863E+05  0.1984844E-02 -0.4882812E-02 -0.4698785E+05 -0.1919535E+05
  0.1845238E+01  0.3420028E+05  0.2356992E+05 -0.1323085E-03 -0.4272461E-02 -0.4651227E+05 -0.2002168E+05
  0.1876190E+01  0.3371987E+05  0.2486208E+05  0.3090486E-02 -0.7629395E-03 -0.4596637E+05 -0.2076269E+05
  0.1907143E+01  0.3322610E+05  0.2612582E+05  0.2176235E-02 -0.6103516E-03 -0.4543162E+05 -0.2145185E+05
  0.1938095E+01  0.3271083E+05  0.2734498E+05  0.2519387E-02 -0.1037598E-02 -0.4489388E+05 -0.2206790E+05
  0.1969048E+01  0.3217419E+05  0.2851974E+05  0.4463611E-02 -0.1770020E-02 -0.4437561E+05 -0.2262925E+05
  0.2000000E+01  0.3159691E+05  0.2962888E+05 -0.9765625E-03 -0.5371094E-02 -0.4384130E+05 -0.2311096E+05
Zone t="Motion of body    1 in DoF   2",I=    64,F=POINT
  0.5000000E-01 -0.1144409E-03  0.1788139E-05  0.1367738E+05  0.3049014E+02 -0.4510880E-02  0.4261732E-05
  0.8095238E-01  0.0000000E+00 -0.9179115E-05  0.1357082E+05  0.5061589E+02  0.4947886E-03  0.1394749E-04
  0.1119048E+00 -0.2931635E-02  0.1192093E-04  0.1350394E+05  0.7261103E+02 -0.1516951E-02 -0.4553795E-04
  0.1428571E+00  0.3150940E-02  0.2527237E-04  0.1348423E+05  0.9735919E+02 -0.3070831E-02  0.9059906E-05
  0.1738095E+00  0.2765394E-02 -0.2431870E-04  0.1348897E+05  0.1259754E+03  0.3895694E-02  0.5197525E-04
  0.2047619E+00  0.2310110E-02  0.5674362E-04  0.1352653E+05  0.1598578E+03  0.6147873E-03 -0.4518032E-04
  0.2357143E+00 -0.2265699E-03 -0.1287460E-04  0.1357017E+05  0.2009916E+03  0.1974395E-02 -0.5841255E-04
  0.2666667E+00 -0.2374649E-02  0.2098083E-04  0.1364674E+05  0.2511528E+03  0.1931190E-02 -0.6651878E-04
  0.2976190E+00 -0.1025391E-03  0.3719330E-04  0.1372790E+05  0.3140683E+03  0.6280518E-02  0.7677078E-04
  0.3285715E+00  0.7894764E-03  0.2765656E-04  0.1381722E+05  0.3920634E+03  0.3993822E-02  0.2651215E-03
  0.3595238E+00  0.8912749E-03  0.8392334E-04  0.1391097E+05  0.4897804E+03 -0.2684435E-02 -0.1239777E-04
  0.3904762E+00  0.4611131E-02  0.4386902E-04  0.1401570E+05  0.6111491E+03  0.2637723E-03  0.2403259E-03
  0.4214286E+00 -0.3258656E-03 -0.4768372E-04  0.1408217E+05  0.7558344E+03  0.5250057E-03  0.8583069E-05
  0.4523810E+00  0.2394827E-02 -0.2384186E-03  0.1413794E+05  0.9315234E+03 -0.4553543E-02  0.3910065E-04
  0.4833333E+00  0.2809722E-02  0.1602173E-03  0.1416481E+05  0.1125864E+04  0.6471831E-03  0.7200241E-03
  0.5142857E+00 -0.8307563E-03 -0.2746582E-03  0.1416124E+05  0.1347821E+04  0.2002716E-02  0.1125336E-03
  0.5452381E+00 -0.1903018E-02  0.4348755E-03  0.1412835E+05  0.1587376E+04 -0.5317255E-03  0.2079010E-03
  0.5761905E+00  0.1641896E-02 -0.9918213E-04  0.1406196E+05  0.1841304E+04 -0.2780630E-02  0.3223419E-03
  0.6071429E+00 -0.2563476E-02  0.3051758E-03  0.1397861E+05  0.2114900E+04 -0.3644158E-03  0.1615524E-02
  0.6380953E+00  0.4160867E-02 -0.1083374E-02  0.1388728E+05  0.2395932E+04 -0.1243477E-02 -0.3929138E-03
  0.6690477E+00 -0.3785917E-02  0.3814697E-04  0.1376643E+05  0.2689789E+04 -0.9122692E-03 -0.9403229E-03
  0.7000000E+00  0.4272460E-02 -0.1373291E-03  0.1362105E+05  0.2997389E+04 -0.1754761E-02 -0.6866455E-03
  0.7309524E+00  0.2087521E-03  0.2441406E-03  0.1347207E+05  0.3311724E+04  0.3517474E-02 -0.3013611E-03
  0.7619048E+00  0.2283096E-02  0.6103516E-04  0.1330844E+05  0.3634425E+04 -0.6588935E-02  0.9956360E-03
  0.7928572E+00  0.1886041E-02  0.1525879E-04  0.1313166E+05  0.3964497E+04 -0.1818683E-02 -0.1422882E-02
  0.8238096E+00 -0.9261114E-03 -0.1571655E-02  0.1294180E+05  0.4299838E+04 -0.3371046E-02  0.1171112E-02
  0.8547620E+00 -0.2570617E-02  0.1037598E-02  0.1273644E+05  0.4638496E+04 -0.3534598E-02  0.1632690E-02
  0.8857143E+00  0.1688311E-02  0.2044678E-02  0.1251952E+05  0.4978679E+04  0.6718789E-03  0.1041412E-02
  0.9166667E+00  0.2763228E-02 -0.9307861E-03  0.1229524E+05  0.5318393E+04  0.7007945E-02  0.1640320E-02
  0.9476191E+00  0.2093291E-02  0.9613037E-03  0.1206629E+05  0.5655683E+04  0.3816231E-02  0.2593994E-03
  0.9785714E+00  0.2806726E-02  0.1098633E-02  0.1183162E+05  0.5989332E+04  0.1185062E-02  0.1564026E-02
  0.1009524E+01  0.9371200E-03  0.3051758E-04  0.1158690E+05  0.6318787E+04 -0.2327685E-02 -0.5874634E-03
  0.1040476E+01  0.2111788E-02  0.1525879E-03  0.1133830E+05  0.6641373E+04 -0.2918374E-02 -0.1426697E-02
  0.1071429E+01 -0.1993815E-03 -0.1220703E-03  0.1108349E+05  0.6956385E+04 -0.3702800E-03  0.5035400E-03
  0.1102381E+01  0.2768333E-02  0.9155273E-03  0.1082709E+05  0.7261304E+04 -0.4498541E-02 -0.3479004E-02
  0.1133333E+01  0.3635182E-02 -0.8544922E-03  0.1056848E+05  0.7556004E+04 -0.4173728E-03 -0.1548767E-02
  0.1164286E+01 -0.1336782E-02  0.8544922E-03  0.1030989E+05  0.7839265E+04  0.2581824E-02  0.1068115E-03
  0.1195238E+01  0.2808590E-02  0.1281738E-02  0.1005703E+05  0.8108468E+04  0.5617180E-03  0.8850098E-03
  0.1226190E+01 -0.5475387E-03 -0.1922607E-02  0.9803926E+04  0.8365553E+04  0.1319070E-02 -0.1510620E-02
  0.1257143E+01 -0.1043840E-02 -0.2746582E-03  0.9554552E+04  0.8614394E+04  0.1128804E-02  0.3944397E-02
  0.1288095E+01  0.1374137E-02  0.1373291E-02  0.9308973E+04  0.8836471E+04 -0.7036530E-02 -0.7629395E-04
  0.1319048E+01  0.5784017E-03 -0.2319336E-02  0.9062851E+04  0.9051810E+04  0.3123369E-03  0.2593994E-02
  0.1350000E+01  0.1966688E-02 -0.2929688E-02  0.8821461E+04  0.9251911E+04  0.1130281E-02 -0.9765625E-03
  0.1380952E+01 -0.7513638E-03  0.1312256E-02  0.8587956E+04  0.9434268E+04  0.1425381E-02  0.4730225E-03
  0.1411905E+01  0.9726513E-03 -0.9155273E-04  0.8332878E+04  0.9593230E+04 -0.2766652E-02  0.1144409E-02
  0.1442857E+01  0.4230159E-03 -0.1220703E-03  0.8110981E+04  0.9745591E+04 -0.2326588E-03  0.1068115E-02
  0.1473810E+01  0.2381258E-02 -0.2075195E-02  0.7896962E+04  0.9880340E+04 -0.5042056E-02  0.5035400E-03
  0.1504762E+01 -0.5678587E-03 -0.1098633E-02  0.7690735E+04  0.1000176E+05 -0.2666908E-02 -0.7019043E-03
  0.1535714E+01  0.2941043E-02  0.5493164E-03  0.7487413E+04  0.1010873E+05 -0.5266056E-03 -0.1876831E-02
  0.1566667E+01 -0.3895861E-04  0.2197266E-02  0.7295865E+04  0.1020074E+05  0.4032216E-02  0.3341675E-02
  0.1597619E+01  0.1318032E-02  0.1190186E-02  0.7111464E+04  0.1027754E+05 -0.2616962E-02 -0.6408691E-03
  0.1628572E+01  0.2436052E-02 -0.1831055E-02  0.6931096E+04  0.1034312E+05  0.1405415E-02  0.2914429E-02
  0.1659524E+01 -0.8091318E-03 -0.6103516E-04  0.6760328E+04  0.1039406E+05  0.2068803E-02 -0.1922607E-02
  0.1690476E+01  0.9026325E-04 -0.1281738E-02  0.6596865E+04  0.1042955E+05  0.6905139E-03  0.5187988E-02
  0.1721429E+01 -0.1453700E-02 -0.5737305E-02  0.6441137E+04  0.1045547E+05 -0.1555637E-02  0.3204346E-02
  0.1752381E+01  0.3134686E-03 -0.3601074E-02  0.6290861E+04  0.1046966E+05  0.1423670E-02  0.5035400E-03
  0.1783333E+01  0.2173308E-02  0.4272461E-03  0.6146861E+04  0.1047296E+05 -0.8385204E-03  0.1632690E-02
  0.1814286E+01  0.1665251E-02  0.9155273E-03  0.6014207E+04  0.1046424E+05 -0.1547506E-02  0.5493164E-03
  0.1845238E+01  0.9096207E-03 -0.2807617E-02  0.5888359E+04  0.1044305E+05 -0.2852901E-02  0.2136230E-02
  0.1876190E+01  0.9759429E-03 -0.4089355E-02  0.5766508E+04  0.1041446E+05  0.3728915E-02  0.3997803E-02
  0.1907143E+01  0.9921071E-03 -0.1159668E-02  0.5654011E+04  0.1037622E+05  0.3680397E-03 -0.1983643E-03
  0.1938095E+01  0.9447702E-03 -0.9765625E-03  0.5547576E+04  0.1032691E+05  0.5353698E-03  0.1861572E-02
  0.1969048E+01  0.0000000E+00  0.1281738E-02  0.5449234E+04  0.1026925E+05  0.2018699E-02 -0.3189087E-02
  0.2000000E+01 -0.1724243E-02 -0.2502441E-02  0.5356734E+04  0.1020935E+05  0.5298615E-02  0.1510620E-02
Zone t="Motion of body    1 in DoF   3",I=    64,F=POINT
  0.5000000E-01 -0.4578096E+05 -0.1108939E-02  0.5378723E-02  0.1487278E-04  0.1227354E+06  0.1585263E-02
  0.8095238E-01 -0.4619758E+05 -0.4617893E-02  0.4830080E-03  0.1742958E-04  0.1232475E+06  0.6584651E-02
  0.1119048E+00 -0.4630937E+05 -0.1304189E-01 -0.1363551E-02  0.1427990E-04  0.1232954E+06  0.1812695E-01
  0.1428571E+00 -0.4635115E+05 -0.2883815E-01  0.1158237E-01  0.6349337E-04  0.1233249E+06  0.3970583E-01
  0.1738095E+00 -0.4638591E+05 -0.5745619E-01 -0.5569197E-02 -0.3035722E-04  0.1233397E+06  0.7909320E-01
  0.2047619E+00 -0.4640683E+05 -0.1061548E+00  0.3949543E-02  0.7930421E-04  0.1233624E+06  0.1462769E+00
  0.2357143E+00 -0.4644088E+05 -0.1866117E+00  0.1035748E-02  0.2561766E-04  0.1233840E+06  0.2569017E+00
  0.2666667E+00 -0.4646530E+05 -0.3174835E+00  0.5457401E-02  0.7110531E-04  0.1234138E+06  0.4361306E+00
  0.2976190E+00 -0.4646872E+05 -0.5305315E+00 -0.6344605E-03  0.6777281E-04  0.1234270E+06  0.7270338E+00
  0.3285715E+00 -0.4653328E+05 -0.8749810E+00  0.9752355E-03  0.9738235E-04  0.1234597E+06  0.1195731E+01
  0.3595238E+00 -0.4655886E+05 -0.1431921E+01 -0.2710961E-02  0.2198946E-04  0.1234933E+06  0.1951435E+01
  0.3904762E+00 -0.4657538E+05 -0.2324559E+01 -0.1001358E-01 -0.4638191E-03  0.1235167E+06  0.3155699E+01
  0.4214286E+00 -0.4662132E+05 -0.3723220E+01 -0.4163838E-03  0.1353957E-03  0.1235621E+06  0.5032890E+01
  0.4523810E+00 -0.4667713E+05 -0.5913453E+01 -0.1119834E-01 -0.6067492E-03  0.1236028E+06  0.7960364E+01
  0.4833333E+00 -0.4672986E+05 -0.9147671E+01 -0.1886302E-02  0.2257973E-03  0.1236532E+06  0.1226804E+02
  0.5142857E+00 -0.4677627E+05 -0.1392152E+02 -0.5192227E-03  0.1024529E-03  0.1237241E+06  0.1858980E+02
  0.5452381E+00 -0.4689224E+05 -0.2069880E+02  0.1560195E-02  0.4180521E-03  0.1238087E+06  0.2749271E+02
  0.5761905E+00 -0.4696773E+05 -0.3001373E+02  0.2244366E-02  0.4883409E-03  0.1238829E+06  0.3966249E+02
  0.6071429E+00 -0.4704027E+05 -0.4270948E+02 -0.9072696E-02 -0.8597970E-03  0.1239578E+06  0.5615554E+02
  0.6380953E+00 -0.4714923E+05 -0.5942167E+02 -0.6223365E-02 -0.5006790E-03  0.1240628E+06  0.7771429E+02
  0.6690477E+00 -0.4724743E+05 -0.8126021E+02  0.3706094E-02  0.6709099E-03  0.1241657E+06  0.1056300E+03
  0.7000000E+00 -0.4735485E+05 -0.1094772E+03  0.4054478E-02  0.9214282E-03  0.1242576E+06  0.1413767E+03
  0.7309524E+00 -0.4751540E+05 -0.1451858E+03  0.1670017E-02  0.1356602E-03  0.1243979E+06  0.1862819E+03
  0.7619048E+00 -0.4761380E+05 -0.1897826E+03  0.2623558E-02  0.1892209E-02  0.1244981E+06  0.2419529E+03
  0.7928572E+00 -0.4773155E+05 -0.2450572E+03  0.2944533E-02  0.2012253E-02  0.1246225E+06  0.3103599E+03
  0.8238096E+00 -0.4788529E+05 -0.3131064E+03 -0.1861484E-02  0.3261566E-03  0.1247465E+06  0.3935079E+03
  0.8547620E+00 -0.4804425E+05 -0.3956543E+03 -0.1124645E-02 -0.1112938E-02  0.1248856E+06  0.4934496E+03
  0.8857143E+00 -0.4820236E+05 -0.4949464E+03 -0.2093161E-02  0.2646446E-03  0.1250304E+06  0.6124584E+03
  0.9166667E+00 -0.4835766E+05 -0.6133530E+03 -0.8406205E-03  0.7829666E-03  0.1251644E+06  0.7527794E+03
  0.9476191E+00 -0.4853207E+05 -0.7534656E+03  0.4983643E-02  0.4199028E-02  0.1252973E+06  0.9169260E+03
  0.9785714E+00 -0.4871271E+05 -0.9173708E+03  0.7539178E-02  0.5377769E-02  0.1254598E+06  0.1107407E+04
  0.1009524E+01 -0.4884085E+05 -0.1108001E+04  0.8010865E-03  0.3112793E-02  0.1255689E+06  0.1325675E+04
  0.1040476E+01 -0.4902361E+05 -0.1329035E+04  0.7222610E-02  0.5365372E-02  0.1257193E+06  0.1575532E+04
  0.1071429E+01 -0.4918130E+05 -0.1583125E+04  0.1851400E-02  0.2994537E-02  0.1258292E+06  0.1858099E+04
  0.1102381E+01 -0.4938036E+05 -0.1873315E+04  0.1314958E-02  0.2552032E-02  0.1259411E+06  0.2176772E+04
  0.1133333E+01 -0.4955693E+05 -0.2201373E+04  0.1319436E-02  0.2601624E-02  0.1260640E+06  0.2532781E+04
  0.1164286E+01 -0.4968504E+05 -0.2569906E+04  0.1572685E-03  0.3625870E-02  0.1261354E+06  0.2926338E+04
  0.1195238E+01 -0.4985252E+05 -0.2982258E+04  0.3357542E-02  0.4194260E-02  0.1262429E+06  0.3361458E+04
  0.1226190E+01 -0.4994954E+05 -0.3438862E+04  0.1194630E-02  0.5882263E-02  0.1262759E+06  0.3834588E+04
  0.1257143E+01 -0.5004194E+05 -0.3942170E+04 -0.8617748E-03  0.3368378E-02  0.1262887E+06  0.4347303E+04
  0.1288095E+01 -0.5017286E+05 -0.4498556E+04  0.1042449E-02  0.3456116E-02  0.1263238E+06  0.4903606E+04
  0.1319048E+01 -0.5023831E+05 -0.5102635E+04  0.2903577E-02  0.5573273E-02  0.1262959E+06  0.5496052E+04
  0.1350000E+01 -0.5028621E+05 -0.5758065E+04  0.5798340E-02  0.1041794E-01  0.1262480E+06  0.6126942E+04
  0.1380952E+01 -0.5035035E+05 -0.6464953E+04  0.3535830E-02  0.5729675E-02  0.1262064E+06  0.6796442E+04
  0.1411905E+01 -0.5037577E+05 -0.7206584E+04  0.2885532E-02  0.6980896E-02  0.1261069E+06  0.7494868E+04
  0.1442857E+01 -0.5034746E+05 -0.8006782E+04  0.1469980E-02  0.3280640E-02  0.1259692E+06  0.8220434E+04
  0.1473810E+01 -0.5030595E+05 -0.8849271E+04  0.2381258E-03  0.5950928E-02  0.1258001E+06  0.8968034E+04
  0.1504762E+01 -0.5020886E+05 -0.9729293E+04 -0.3143504E-02 -0.4585266E-02  0.1256165E+06  0.9733957E+04
  0.1535714E+01 -0.5003082E+05 -0.1063649E+05 -0.3030466E-02 -0.4089355E-02  0.1253318E+06  0.1049712E+05
  0.1566667E+01 -0.4984457E+05 -0.1157635E+05 -0.1538865E-02  0.1564026E-02  0.1250699E+06  0.1127005E+05
  0.1597619E+01 -0.4963298E+05 -0.1253764E+05  0.2855736E-02  0.8941650E-02  0.1247692E+06  0.1203362E+05
  0.1628572E+01 -0.4933969E+05 -0.1350843E+05 -0.2454791E-02 -0.1785278E-02  0.1243947E+06  0.1277290E+05
  0.1659524E+01 -0.4903402E+05 -0.1448841E+05  0.4238747E-02  0.7064819E-02  0.1240118E+06  0.1349375E+05
  0.1690476E+01 -0.4871360E+05 -0.1546279E+05 -0.1715002E-03  0.2044678E-02  0.1235910E+06  0.1418056E+05
  0.1721429E+01 -0.4835694E+05 -0.1642624E+05 -0.4875215E-03  0.1647949E-02  0.1231834E+06  0.1483996E+05
  0.1752381E+01 -0.4794643E+05 -0.1736053E+05 -0.1184215E-02  0.5172729E-02  0.1227280E+06  0.1544118E+05
  0.1783333E+01 -0.4748725E+05 -0.1825964E+05 -0.6331684E-03  0.1968384E-02  0.1222437E+06  0.1598214E+05
  0.1814286E+01 -0.4703375E+05 -0.1912915E+05  0.2035306E-02  0.9460449E-02  0.1217974E+06  0.1648101E+05
  0.1845238E+01 -0.4655988E+05 -0.1994640E+05  0.3464828E-02  0.1025391E-01  0.1213268E+06  0.1690206E+05
  0.1876190E+01 -0.4602167E+05 -0.2069469E+05 -0.2927829E-03  0.3112793E-02  0.1208177E+06  0.1723394E+05
  0.1907143E+01 -0.4549166E+05 -0.2138808E+05 -0.4000432E-03 -0.6103516E-04  0.1203392E+06  0.1750674E+05
  0.1938095E+01 -0.4495628E+05 -0.2199977E+05 -0.3542888E-03  0.5462646E-02  0.1198426E+06  0.1768574E+05
  0.1969048E+01 -0.4443750E+05 -0.2254571E+05 -0.9686656E-03  0.5249023E-02  0.1193863E+06  0.1780297E+05
  0.2000000E+01 -0.4390529E+05 -0.2301936E+05  0.2571106E-02  0.6072998E-02  0.1189691E+06  0.1787188E+05
