VARIABLES="w (rad/s)"
"abs(F   1   1)" "angle(F   1   1)"
"abs(F   1   2)" "angle(F   1   2)"
"abs(F   1   3)" "angle(F   1   3)"
Zone t="Diffraction force - beta =   0.000 deg",I=    64,F=POINT
  0.5000000E-01  0.3586382E+04 -0.1570794E+01  0.1812915E+03 -0.3080494E+01  0.8555819E+04  0.1570798E+01
  0.8095238E-01  0.5874488E+04 -0.1570791E+01  0.4687257E+03 -0.3078165E+01  0.1398311E+05  0.1570801E+01
  0.1119048E+00  0.8194686E+04 -0.1570785E+01  0.8888301E+03 -0.3075399E+01  0.1948953E+05  0.1570806E+01
  0.1428571E+00  0.1058994E+05 -0.1570776E+01  0.1443694E+04 -0.3072029E+01  0.2516329E+05  0.1570814E+01
  0.1738095E+00  0.1309021E+05 -0.1570763E+01  0.2134677E+04 -0.3067794E+01  0.3103998E+05  0.1570825E+01
  0.2047619E+00  0.1569973E+05 -0.1570745E+01  0.2967670E+04 -0.3062560E+01  0.3719612E+05  0.1570841E+01
  0.2357143E+00  0.1848261E+05 -0.1570718E+01  0.3946096E+04 -0.3055978E+01  0.4368664E+05  0.1570864E+01
  0.2666667E+00  0.2145178E+05 -0.1570678E+01  0.5073320E+04 -0.3047990E+01  0.5061040E+05  0.1570898E+01
  0.2976190E+00  0.2465622E+05 -0.1570619E+01  0.6359132E+04 -0.3038011E+01  0.5806453E+05  0.1570949E+01
  0.3285715E+00  0.2815022E+05 -0.1570533E+01  0.7806939E+04 -0.3026139E+01  0.6611912E+05  0.1571023E+01
  0.3595238E+00  0.3201571E+05 -0.1570403E+01  0.9412169E+04 -0.3011672E+01  0.7493453E+05  0.1571135E+01
  0.3904762E+00  0.3621950E+05 -0.1570209E+01  0.1118912E+05 -0.2994694E+01  0.8454913E+05  0.1571302E+01
  0.4214286E+00  0.4087566E+05 -0.1569926E+01  0.1310751E+05 -0.2975689E+01  0.9511502E+05  0.1571544E+01
  0.4523810E+00  0.4599092E+05 -0.1569512E+01  0.1517645E+05 -0.2953680E+01  0.1066030E+06  0.1571900E+01
  0.4833333E+00  0.5158498E+05 -0.1568939E+01  0.1735698E+05 -0.2931434E+01  0.1190348E+06  0.1572391E+01
  0.5142857E+00  0.5758349E+05 -0.1568145E+01  0.1965562E+05 -0.2907407E+01  0.1323756E+06  0.1573072E+01
  0.5452381E+00  0.6397973E+05 -0.1567089E+01  0.2205849E+05 -0.2883582E+01  0.1465158E+06  0.1573975E+01
  0.5761905E+00  0.7084008E+05 -0.1565723E+01  0.2453652E+05 -0.2860124E+01  0.1613332E+06  0.1575144E+01
  0.6071429E+00  0.7800384E+05 -0.1563962E+01  0.2708214E+05 -0.2835990E+01  0.1767326E+06  0.1576651E+01
  0.6380953E+00  0.8546488E+05 -0.1561771E+01  0.2972646E+05 -0.2813560E+01  0.1926126E+06  0.1578522E+01
  0.6690477E+00  0.9320142E+05 -0.1559060E+01  0.3243371E+05 -0.2791487E+01  0.2089656E+06  0.1580835E+01
  0.7000000E+00  0.1011393E+06 -0.1555735E+01  0.3517224E+05 -0.2769130E+01  0.2254980E+06  0.1583669E+01
  0.7309524E+00  0.1094279E+06 -0.1551745E+01  0.3796304E+05 -0.2747708E+01  0.2423319E+06  0.1587071E+01
  0.7619048E+00  0.1179979E+06 -0.1546987E+01  0.4079518E+05 -0.2726866E+01  0.2594516E+06  0.1591127E+01
  0.7928572E+00  0.1266260E+06 -0.1541345E+01  0.4364719E+05 -0.2706351E+01  0.2765753E+06  0.1595924E+01
  0.8238096E+00  0.1354578E+06 -0.1534742E+01  0.4652677E+05 -0.2686504E+01  0.2939387E+06  0.1601530E+01
  0.8547620E+00  0.1443226E+06 -0.1527078E+01  0.4942347E+05 -0.2667324E+01  0.3110091E+06  0.1608024E+01
  0.8857143E+00  0.1534563E+06 -0.1518293E+01  0.5231349E+05 -0.2648665E+01  0.3280627E+06  0.1615470E+01
  0.9166667E+00  0.1625965E+06 -0.1508265E+01  0.5517864E+05 -0.2630413E+01  0.3447719E+06  0.1623955E+01
  0.9476191E+00  0.1718583E+06 -0.1496930E+01  0.5802245E+05 -0.2612792E+01  0.3614044E+06  0.1633532E+01
  0.9785714E+00  0.1809700E+06 -0.1484186E+01  0.6084859E+05 -0.2595902E+01  0.3773401E+06  0.1644270E+01
  0.1009524E+01  0.1900570E+06 -0.1470014E+01  0.6365965E+05 -0.2579933E+01  0.3928118E+06  0.1656186E+01
  0.1040476E+01  0.1988731E+06 -0.1454314E+01  0.6643305E+05 -0.2564639E+01  0.4076715E+06  0.1669323E+01
  0.1071429E+01  0.2072902E+06 -0.1437066E+01  0.6915763E+05 -0.2549901E+01  0.4213386E+06  0.1683689E+01
  0.1102381E+01  0.2155392E+06 -0.1418356E+01  0.7183716E+05 -0.2535880E+01  0.4341927E+06  0.1699226E+01
  0.1133333E+01  0.2233137E+06 -0.1398157E+01  0.7445741E+05 -0.2522441E+01  0.4455563E+06  0.1715926E+01
  0.1164286E+01  0.2306690E+06 -0.1376560E+01  0.7702267E+05 -0.2509813E+01  0.4556805E+06  0.1733696E+01
  0.1195238E+01  0.2373630E+06 -0.1353513E+01  0.7953206E+05 -0.2497923E+01  0.4645916E+06  0.1752502E+01
  0.1226190E+01  0.2430613E+06 -0.1329131E+01  0.8197338E+05 -0.2486622E+01  0.4712505E+06  0.1772190E+01
  0.1257143E+01  0.2479150E+06 -0.1303497E+01  0.8438690E+05 -0.2476098E+01  0.4764554E+06  0.1792642E+01
  0.1288095E+01  0.2519446E+06 -0.1277079E+01  0.8672119E+05 -0.2466964E+01  0.4797197E+06  0.1813472E+01
  0.1319048E+01  0.2547863E+06 -0.1249800E+01  0.8901832E+05 -0.2458340E+01  0.4808527E+06  0.1834615E+01
  0.1350000E+01  0.2565800E+06 -0.1222098E+01  0.9126526E+05 -0.2450525E+01  0.4799494E+06  0.1855690E+01
  0.1380952E+01  0.2572226E+06 -0.1194042E+01  0.9345905E+05 -0.2443291E+01  0.4771744E+06  0.1876583E+01
  0.1411905E+01  0.2551891E+06 -0.1167483E+01  0.9553037E+05 -0.2435678E+01  0.4707412E+06  0.1895173E+01
  0.1442857E+01  0.2534785E+06 -0.1139725E+01  0.9760630E+05 -0.2429449E+01  0.4639101E+06  0.1914610E+01
  0.1473810E+01  0.2505974E+06 -0.1112430E+01  0.9962999E+05 -0.2423804E+01  0.4551966E+06  0.1932935E+01
  0.1504762E+01  0.2464732E+06 -0.1085782E+01  0.1016092E+06 -0.2418755E+01  0.4445902E+06  0.1949899E+01
  0.1535714E+01  0.2413159E+06 -0.1060176E+01  0.1035738E+06 -0.2414496E+01  0.4325546E+06  0.1965140E+01
  0.1566667E+01  0.2352069E+06 -0.1035778E+01  0.1055244E+06 -0.2410734E+01  0.4194095E+06  0.1978451E+01
  0.1597619E+01  0.2281129E+06 -0.1012685E+01  0.1074506E+06 -0.2407061E+01  0.4052107E+06  0.1989710E+01
  0.1628572E+01  0.2199908E+06 -0.9912456E+00  0.1093321E+06 -0.2403311E+01  0.3895757E+06  0.1998346E+01
  0.1659524E+01  0.2112822E+06 -0.9715756E+00  0.1112289E+06 -0.2399873E+01  0.3737586E+06  0.2004566E+01
  0.1690476E+01  0.2020059E+06 -0.9540203E+00  0.1131164E+06 -0.2396444E+01  0.3575979E+06  0.2007916E+01
  0.1721429E+01  0.1919535E+06 -0.9386492E+00  0.1149647E+06 -0.2392495E+01  0.3406647E+06  0.2008054E+01
  0.1752381E+01  0.1815598E+06 -0.9257819E+00  0.1168362E+06 -0.2388532E+01  0.3239336E+06  0.2005118E+01
  0.1783333E+01  0.1708058E+06 -0.9158591E+00  0.1186958E+06 -0.2384169E+01  0.3071891E+06  0.1998527E+01
  0.1814286E+01  0.1598125E+06 -0.9087980E+00  0.1205140E+06 -0.2378905E+01  0.2909011E+06  0.1988678E+01
  0.1845238E+01  0.1485840E+06 -0.9050433E+00  0.1222660E+06 -0.2372493E+01  0.2749908E+06  0.1975295E+01
  0.1876190E+01  0.1370842E+06 -0.9052994E+00  0.1238873E+06 -0.2364749E+01  0.2591441E+06  0.1957404E+01
  0.1907143E+01  0.1256325E+06 -0.9099668E+00  0.1254246E+06 -0.2355854E+01  0.2441865E+06  0.1936075E+01
  0.1938095E+01  0.1142604E+06 -0.9201199E+00  0.1268292E+06 -0.2345756E+01  0.2300149E+06  0.1910801E+01
  0.1969048E+01  0.1028995E+06 -0.9371921E+00  0.1279809E+06 -0.2334302E+01  0.2164096E+06  0.1881002E+01
  0.2000000E+01  0.9168195E+05 -0.9629788E+00  0.1288683E+06 -0.2321691E+01  0.2035759E+06  0.1846892E+01
