VARIABLES="w (rad/s)"
"abs(F   1   1)" "angle(F   1   1)"
"abs(F   1   2)" "angle(F   1   2)"
"abs(F   1   3)" "angle(F   1   3)"
Zone t="Diffraction force - beta =   0.000 deg",I=    64,F=POINT
  0.5000000E-01  0.1005976E+05 -0.1570794E+01  0.3517464E+06 -0.2355930E-04  0.4469457E+05  0.1570802E+01
  0.8095238E-01  0.1641086E+05 -0.1570783E+01  0.3500880E+06 -0.6320445E-04  0.7281359E+05  0.1570798E+01
  0.1119048E+00  0.2287704E+05 -0.1570788E+01  0.3476526E+06 -0.1249979E-03  0.1014057E+06  0.1570808E+01
  0.1428571E+00  0.2952678E+05 -0.1570777E+01  0.3444471E+06 -0.2132707E-03  0.1307294E+06  0.1570818E+01
  0.1738095E+00  0.3642832E+05 -0.1570761E+01  0.3404785E+06 -0.3340209E-03  0.1610699E+06  0.1570828E+01
  0.2047619E+00  0.4363707E+05 -0.1570744E+01  0.3357522E+06 -0.4969949E-03  0.1926426E+06  0.1570848E+01
  0.2357143E+00  0.5124658E+05 -0.1570713E+01  0.3302972E+06 -0.7152570E-03  0.2257851E+06  0.1570874E+01
  0.2666667E+00  0.5935040E+05 -0.1570678E+01  0.3241132E+06 -0.1003289E-02  0.2609802E+06  0.1570916E+01
  0.2976190E+00  0.6806428E+05 -0.1570614E+01  0.3172466E+06 -0.1390605E-02  0.2985419E+06  0.1570976E+01
  0.3285715E+00  0.7750138E+05 -0.1570528E+01  0.3097087E+06 -0.1898978E-02  0.3389894E+06  0.1571064E+01
  0.3595238E+00  0.8777401E+05 -0.1570399E+01  0.3015820E+06 -0.2572733E-02  0.3828689E+06  0.1571195E+01
  0.3904762E+00  0.9903708E+05 -0.1570206E+01  0.2928677E+06 -0.3455836E-02  0.4305863E+06  0.1571386E+01
  0.4214286E+00  0.1113436E+06 -0.1569930E+01  0.2837298E+06 -0.4564578E-02  0.4823017E+06  0.1571663E+01
  0.4523810E+00  0.1247860E+06 -0.1569526E+01  0.2741421E+06 -0.5999679E-02  0.5383784E+06  0.1572066E+01
  0.4833333E+00  0.1392477E+06 -0.1568975E+01  0.2642798E+06 -0.7669186E-02  0.5985224E+06  0.1572618E+01
  0.5142857E+00  0.1547944E+06 -0.1568214E+01  0.2541621E+06 -0.9706531E-02  0.6622359E+06  0.1573377E+01
  0.5452381E+00  0.1712511E+06 -0.1567218E+01  0.2438363E+06 -0.1204154E-01  0.7290378E+06  0.1574376E+01
  0.5761905E+00  0.1884490E+06 -0.1565937E+01  0.2334461E+06 -0.1466654E-01  0.7983492E+06  0.1575656E+01
  0.6071429E+00  0.2063937E+06 -0.1564303E+01  0.2229373E+06 -0.1771141E-01  0.8697998E+06  0.1577289E+01
  0.6380953E+00  0.2247527E+06 -0.1562294E+01  0.2124112E+06 -0.2100652E-01  0.9418462E+06  0.1579297E+01
  0.6690477E+00  0.2436382E+06 -0.1559836E+01  0.2019393E+06 -0.2467944E-01  0.1014785E+07  0.1581755E+01
  0.7000000E+00  0.2629590E+06 -0.1556854E+01  0.1914824E+06 -0.2880879E-01  0.1088092E+07  0.1584738E+01
  0.7309524E+00  0.2823724E+06 -0.1553308E+01  0.1811335E+06 -0.3328329E-01  0.1160855E+07  0.1588284E+01
  0.7619048E+00  0.3020749E+06 -0.1549117E+01  0.1709874E+06 -0.3817545E-01  0.1233768E+07  0.1592474E+01
  0.7928572E+00  0.3218447E+06 -0.1544224E+01  0.1609875E+06 -0.4357594E-01  0.1304760E+07  0.1597367E+01
  0.8238096E+00  0.3418016E+06 -0.1538560E+01  0.1511262E+06 -0.4954327E-01  0.1374813E+07  0.1603029E+01
  0.8547620E+00  0.3614036E+06 -0.1532071E+01  0.1416479E+06 -0.5582983E-01  0.1441825E+07  0.1609517E+01
  0.8857143E+00  0.3809854E+06 -0.1524683E+01  0.1324392E+06 -0.6269268E-01  0.1507378E+07  0.1616904E+01
  0.9166667E+00  0.4002747E+06 -0.1516354E+01  0.1234745E+06 -0.7021537E-01  0.1569754E+07  0.1625231E+01
  0.9476191E+00  0.4192478E+06 -0.1507039E+01  0.1147830E+06 -0.7851515E-01  0.1629584E+07  0.1634543E+01
  0.9785714E+00  0.4373703E+06 -0.1496735E+01  0.1065408E+06 -0.8708918E-01  0.1684242E+07  0.1644841E+01
  0.1009524E+01  0.4551082E+06 -0.1485431E+01  0.9867832E+05 -0.9627029E-01  0.1735432E+07  0.1656140E+01
  0.1040476E+01  0.4718399E+06 -0.1473137E+01  0.9115291E+05 -0.1062588E+00  0.1780296E+07  0.1668425E+01
  0.1071429E+01  0.4878588E+06 -0.1459846E+01  0.8395858E+05 -0.1171918E+00  0.1820626E+07  0.1681704E+01
  0.1102381E+01  0.5026309E+06 -0.1445566E+01  0.7710470E+05 -0.1292531E+00  0.1855346E+07  0.1695978E+01
  0.1133333E+01  0.5157009E+06 -0.1430437E+01  0.7074901E+05 -0.1409468E+00  0.1881602E+07  0.1711082E+01
  0.1164286E+01  0.5276984E+06 -0.1414414E+01  0.6476820E+05 -0.1535451E+00  0.1903323E+07  0.1727099E+01
  0.1195238E+01  0.5377851E+06 -0.1397748E+01  0.5914104E+05 -0.1671831E+00  0.1916334E+07  0.1743743E+01
  0.1226190E+01  0.5463547E+06 -0.1380573E+01  0.5385516E+05 -0.1819600E+00  0.1922568E+07  0.1760893E+01
  0.1257143E+01  0.5530103E+06 -0.1363111E+01  0.4891477E+05 -0.1981828E+00  0.1921047E+07  0.1778313E+01
  0.1288095E+01  0.5577875E+06 -0.1345568E+01  0.4433109E+05 -0.2145274E+00  0.1911364E+07  0.1795800E+01
  0.1319048E+01  0.5603172E+06 -0.1328067E+01  0.4011183E+05 -0.2310252E+00  0.1893352E+07  0.1813249E+01
  0.1350000E+01  0.5612135E+06 -0.1310646E+01  0.3622859E+05 -0.2482338E+00  0.1870382E+07  0.1830663E+01
  0.1380952E+01  0.5596635E+06 -0.1293901E+01  0.3263631E+05 -0.2666123E+00  0.1837703E+07  0.1847311E+01
  0.1411905E+01  0.5557037E+06 -0.1278241E+01  0.2933084E+05 -0.2860735E+00  0.1798720E+07  0.1862898E+01
  0.1442857E+01  0.5509775E+06 -0.1263163E+01  0.2628367E+05 -0.3075660E+00  0.1756159E+07  0.1877881E+01
  0.1473810E+01  0.5442269E+06 -0.1249273E+01  0.2351031E+05 -0.3297961E+00  0.1707574E+07  0.1891717E+01
  0.1504762E+01  0.5356479E+06 -0.1237008E+01  0.2096387E+05 -0.3520839E+00  0.1652920E+07  0.1903731E+01
  0.1535714E+01  0.5259471E+06 -0.1225939E+01  0.1867744E+05 -0.3738286E+00  0.1596617E+07  0.1914775E+01
  0.1566667E+01  0.5151049E+06 -0.1216491E+01  0.1660423E+05 -0.3969021E+00  0.1537939E+07  0.1924184E+01
  0.1597619E+01  0.5030554E+06 -0.1209185E+01  0.1472444E+05 -0.4207520E+00  0.1475600E+07  0.1931221E+01
  0.1628572E+01  0.4904478E+06 -0.1203666E+01  0.1301912E+05 -0.4463900E+00  0.1413139E+07  0.1936535E+01
  0.1659524E+01  0.4773368E+06 -0.1199969E+01  0.1147964E+05 -0.4752380E+00  0.1350960E+07  0.1940075E+01
  0.1690476E+01  0.4634442E+06 -0.1198368E+01  0.1010629E+05 -0.5030354E+00  0.1288170E+07  0.1941645E+01
  0.1721429E+01  0.4490929E+06 -0.1199124E+01  0.8859841E+04 -0.5341679E+00  0.1225029E+07  0.1940475E+01
  0.1752381E+01  0.4346007E+06 -0.1201940E+01  0.7743825E+04 -0.5677751E+00  0.1163082E+07  0.1937343E+01
  0.1783333E+01  0.4201905E+06 -0.1206481E+01  0.6764706E+04 -0.5946804E+00  0.1103643E+07  0.1932932E+01
  0.1814286E+01  0.4058201E+06 -0.1213212E+01  0.5891077E+04 -0.6261315E+00  0.1045547E+07  0.1926153E+01
  0.1845238E+01  0.3915035E+06 -0.1222257E+01  0.5106464E+04 -0.6602362E+00  0.9886486E+06  0.1916632E+01
  0.1876190E+01  0.3775194E+06 -0.1233058E+01  0.4414053E+04 -0.6990821E+00  0.9344094E+06  0.1905545E+01
  0.1907143E+01  0.3639178E+06 -0.1245555E+01  0.3811498E+04 -0.7446167E+00  0.8829133E+06  0.1892962E+01
  0.1938095E+01  0.3504380E+06 -0.1260049E+01  0.3277915E+04 -0.7852134E+00  0.8332946E+06  0.1878629E+01
  0.1969048E+01  0.3372929E+06 -0.1276506E+01  0.2810804E+04 -0.8336796E+00  0.7857958E+06  0.1862119E+01
  0.2000000E+01  0.3244771E+06 -0.1295097E+01  0.2411117E+04 -0.8993184E+00  0.7402962E+06  0.1842957E+01
