VARIABLES="w (rad/s)"
"abs(F   1   1)" "angle(F   1   1)"
"abs(F   1   2)" "angle(F   1   2)"
"abs(F   1   3)" "angle(F   1   3)"
Zone t="Diffraction force - beta =   0.000 deg",I=    64,F=POINT
  0.5000000E-01  0.1325729E+04 -0.1570793E+01  0.3086891E+03 -0.3097574E+01  0.2005727E+04  0.1570798E+01
  0.8095238E-01  0.2174462E+04 -0.1570788E+01  0.7989178E+03 -0.3096014E+01  0.3289859E+04  0.1570800E+01
  0.1119048E+00  0.3047388E+04 -0.1570779E+01  0.1518146E+04 -0.3094240E+01  0.4611545E+04  0.1570804E+01
  0.1428571E+00  0.3947029E+04 -0.1570766E+01  0.2460789E+04 -0.3091868E+01  0.5985338E+04  0.1570811E+01
  0.1738095E+00  0.4881114E+04 -0.1570746E+01  0.3628286E+04 -0.3088897E+01  0.7416279E+04  0.1570820E+01
  0.2047619E+00  0.5871373E+04 -0.1570718E+01  0.5029763E+04 -0.3085250E+01  0.8950470E+04  0.1570833E+01
  0.2357143E+00  0.6929010E+04 -0.1570677E+01  0.6659658E+04 -0.3080618E+01  0.1059757E+05  0.1570852E+01
  0.2666667E+00  0.8044836E+04 -0.1570617E+01  0.8513776E+04 -0.3074973E+01  0.1235832E+05  0.1570880E+01
  0.2976190E+00  0.9284075E+04 -0.1570529E+01  0.1060790E+05 -0.3067933E+01  0.1432551E+05  0.1570922E+01
  0.3285715E+00  0.1065825E+05 -0.1570399E+01  0.1291125E+05 -0.3059433E+01  0.1650300E+05  0.1570983E+01
  0.3595238E+00  0.1212863E+05 -0.1570203E+01  0.1543910E+05 -0.3049174E+01  0.1888604E+05  0.1571077E+01
  0.3904762E+00  0.1376380E+05 -0.1569912E+01  0.1816846E+05 -0.3037042E+01  0.2155026E+05  0.1571216E+01
  0.4214286E+00  0.1562997E+05 -0.1569492E+01  0.2104392E+05 -0.3023411E+01  0.2459437E+05  0.1571419E+01
  0.4523810E+00  0.1766647E+05 -0.1568876E+01  0.2411356E+05 -0.3007775E+01  0.2793010E+05  0.1571717E+01
  0.4833333E+00  0.1983006E+05 -0.1568022E+01  0.2720672E+05 -0.2991741E+01  0.3154598E+05  0.1572133E+01
  0.5142857E+00  0.2224191E+05 -0.1566851E+01  0.3048360E+05 -0.2974966E+01  0.3564824E+05  0.1572707E+01
  0.5452381E+00  0.2491473E+05 -0.1565316E+01  0.3367462E+05 -0.2957500E+01  0.4011632E+05  0.1573470E+01
  0.5761905E+00  0.2766924E+05 -0.1563321E+01  0.3693393E+05 -0.2940808E+01  0.4481918E+05  0.1574467E+01
  0.6071429E+00  0.3052329E+05 -0.1560752E+01  0.4023861E+05 -0.2923924E+01  0.4975833E+05  0.1575759E+01
  0.6380953E+00  0.3355205E+05 -0.1557595E+01  0.4340643E+05 -0.2907506E+01  0.5505398E+05  0.1577356E+01
  0.6690477E+00  0.3682275E+05 -0.1553765E+01  0.4660811E+05 -0.2891791E+01  0.6079736E+05  0.1579318E+01
  0.7000000E+00  0.4017580E+05 -0.1549093E+01  0.4977390E+05 -0.2876341E+01  0.6666892E+05  0.1581741E+01
  0.7309524E+00  0.4361981E+05 -0.1543520E+01  0.5271231E+05 -0.2860612E+01  0.7279503E+05  0.1584660E+01
  0.7619048E+00  0.4701993E+05 -0.1536849E+01  0.5561551E+05 -0.2845685E+01  0.7900098E+05  0.1588174E+01
  0.7928572E+00  0.5047032E+05 -0.1529031E+01  0.5851070E+05 -0.2831921E+01  0.8548681E+05  0.1592297E+01
  0.8238096E+00  0.5426224E+05 -0.1520283E+01  0.6105755E+05 -0.2817189E+01  0.9233457E+05  0.1596953E+01
  0.8547620E+00  0.5799291E+05 -0.1510189E+01  0.6344853E+05 -0.2802911E+01  0.9922386E+05  0.1602394E+01
  0.8857143E+00  0.6168563E+05 -0.1498667E+01  0.6572855E+05 -0.2789473E+01  0.1062889E+06  0.1608669E+01
  0.9166667E+00  0.6528556E+05 -0.1485600E+01  0.6797036E+05 -0.2777703E+01  0.1133325E+06  0.1615823E+01
  0.9476191E+00  0.6883105E+05 -0.1470971E+01  0.6974232E+05 -0.2764561E+01  0.1202678E+06  0.1623921E+01
  0.9785714E+00  0.7213913E+05 -0.1454589E+01  0.7130495E+05 -0.2751770E+01  0.1271158E+06  0.1632957E+01
  0.1009524E+01  0.7529523E+05 -0.1436849E+01  0.7268743E+05 -0.2739827E+01  0.1337342E+06  0.1642606E+01
  0.1040476E+01  0.7840138E+05 -0.1418000E+01  0.7394376E+05 -0.2729129E+01  0.1405582E+06  0.1652814E+01
  0.1071429E+01  0.8117820E+05 -0.1397440E+01  0.7497571E+05 -0.2719378E+01  0.1468375E+06  0.1664021E+01
  0.1102381E+01  0.8365871E+05 -0.1375353E+01  0.7549023E+05 -0.2708143E+01  0.1526985E+06  0.1676120E+01
  0.1133333E+01  0.8560462E+05 -0.1351497E+01  0.7581635E+05 -0.2697747E+01  0.1579388E+06  0.1689011E+01
  0.1164286E+01  0.8708029E+05 -0.1326610E+01  0.7596012E+05 -0.2688311E+01  0.1625305E+06  0.1702031E+01
  0.1195238E+01  0.8815804E+05 -0.1301167E+01  0.7595415E+05 -0.2680037E+01  0.1669302E+06  0.1714960E+01
  0.1226190E+01  0.8858180E+05 -0.1274374E+01  0.7580284E+05 -0.2673398E+01  0.1703285E+06  0.1728324E+01
  0.1257143E+01  0.8838625E+05 -0.1246582E+01  0.7507252E+05 -0.2665168E+01  0.1725416E+06  0.1741695E+01
  0.1288095E+01  0.8759509E+05 -0.1218516E+01  0.7413488E+05 -0.2657943E+01  0.1741473E+06  0.1754665E+01
  0.1319048E+01  0.8602970E+05 -0.1190633E+01  0.7298683E+05 -0.2651762E+01  0.1744535E+06  0.1766102E+01
  0.1350000E+01  0.8376853E+05 -0.1162446E+01  0.7171088E+05 -0.2646641E+01  0.1739687E+06  0.1776990E+01
  0.1380952E+01  0.8081694E+05 -0.1134276E+01  0.7033036E+05 -0.2643211E+01  0.1726922E+06  0.1786699E+01
  0.1411905E+01  0.7694514E+05 -0.1105521E+01  0.6882223E+05 -0.2641414E+01  0.1700330E+06  0.1794700E+01
  0.1442857E+01  0.7260016E+05 -0.1079355E+01  0.6690196E+05 -0.2640156E+01  0.1662372E+06  0.1799359E+01
  0.1473810E+01  0.6763666E+05 -0.1054297E+01  0.6476159E+05 -0.2639390E+01  0.1615578E+06  0.1801605E+01
  0.1504762E+01  0.6198664E+05 -0.1030226E+01  0.6256571E+05 -0.2640496E+01  0.1559180E+06  0.1800826E+01
  0.1535714E+01  0.5569831E+05 -0.1008034E+01  0.6028695E+05 -0.2643854E+01  0.1492017E+06  0.1795675E+01
  0.1566667E+01  0.4900366E+05 -0.9893255E+00  0.5800011E+05 -0.2649009E+01  0.1422165E+06  0.1786107E+01
  0.1597619E+01  0.4182861E+05 -0.9739105E+00  0.5573039E+05 -0.2656366E+01  0.1345933E+06  0.1771466E+01
  0.1628572E+01  0.3420209E+05 -0.9636667E+00  0.5350512E+05 -0.2666327E+01  0.1263094E+06  0.1749963E+01
  0.1659524E+01  0.2630006E+05 -0.9645842E+00  0.5114350E+05 -0.2679107E+01  0.1174154E+06  0.1719138E+01
  0.1690476E+01  0.1816990E+05 -0.9895309E+00  0.4870769E+05 -0.2693337E+01  0.1081169E+06  0.1677417E+01
  0.1721429E+01  0.9903175E+04 -0.1090644E+01  0.4641061E+05 -0.2709225E+01  0.9890317E+05  0.1624235E+01
  0.1752381E+01  0.2720928E+04 -0.2025078E+01  0.4424647E+05 -0.2727113E+01  0.8974105E+05  0.1554249E+01
  0.1783333E+01  0.8173956E+04  0.2660046E+01  0.4219554E+05 -0.2745379E+01  0.8101152E+05  0.1464266E+01
  0.1814286E+01  0.1669404E+05  0.2510382E+01  0.4023989E+05 -0.2762598E+01  0.7320516E+05  0.1352351E+01
  0.1845238E+01  0.2540436E+05  0.2469769E+01  0.3839526E+05 -0.2779199E+01  0.6650944E+05  0.1211837E+01
  0.1876190E+01  0.3418873E+05  0.2454226E+01  0.3663161E+05 -0.2794177E+01  0.6140333E+05  0.1040394E+01
  0.1907143E+01  0.4297401E+05  0.2448045E+01  0.3484456E+05 -0.2807811E+01  0.5840195E+05  0.8389931E+00
  0.1938095E+01  0.5177066E+05  0.2446649E+01  0.3300567E+05 -0.2820417E+01  0.5807754E+05  0.6144124E+00
  0.1969048E+01  0.6046596E+05  0.2447452E+01  0.3117983E+05 -0.2829645E+01  0.6057884E+05  0.4007726E+00
  0.2000000E+01  0.6907696E+05  0.2449101E+01  0.2933339E+05 -0.2836838E+01  0.6556846E+05  0.2125135E+00
