VARIABLES="w (rad/s)"
"A   1   1" "B   1   1"
"A   1   2" "B   1   2"
"A   1   3" "B   1   3"
Zone t="Motion of body    1 in DoF   1",I=    64,F=POINT
  0.5000000E-01  0.1283588E+06  0.1203528E-01 -0.3509521E-01 -0.1125356E-03 -0.6368454E+02  0.4537291E-02
  0.8095238E-01  0.1288938E+06  0.5297914E-01  0.1663432E-01  0.4025517E-04 -0.7141349E+03  0.1967466E-01
  0.1119048E+00  0.1291196E+06  0.1486595E+00 -0.3381607E-01 -0.2225448E-03 -0.6280215E+03  0.5575527E-01
  0.1428571E+00  0.1292789E+06  0.3346704E+00 -0.2926636E-01 -0.8962303E-04 -0.4859597E+03  0.1260099E+00
  0.1738095E+00  0.1294529E+06  0.6659817E+00  0.5881949E-02 -0.7945485E-04 -0.4277341E+03  0.2515279E+00
  0.2047619E+00  0.1296273E+06  0.1228023E+01  0.9687557E-03 -0.1148777E-03 -0.2616158E+03  0.4650051E+00
  0.2357143E+00  0.1298842E+06  0.2162322E+01 -0.2589370E-02 -0.2882741E-03 -0.5170144E+02  0.8234849E+00
  0.2666667E+00  0.1300742E+06  0.3687143E+01 -0.1585007E-01 -0.3298409E-03 -0.1194511E+02  0.1410605E+01
  0.2976190E+00  0.1303928E+06  0.6180455E+01 -0.8715820E-03 -0.3632531E-04  0.3086297E+03  0.2383604E+01
  0.3285715E+00  0.1307316E+06  0.1022086E+02  0.1718272E-01  0.4151762E-03  0.5803219E+03  0.3973142E+01
  0.3595238E+00  0.1311175E+06  0.1677342E+02 -0.2351268E-01 -0.1186468E-02  0.7245919E+03  0.6565553E+01
  0.3904762E+00  0.1314529E+06  0.2732204E+02 -0.1309092E-01  0.1405329E-03  0.9719915E+03  0.1078946E+02
  0.4214286E+00  0.1320104E+06  0.4392357E+02 -0.1325187E-01 -0.7542968E-03  0.1509051E+04  0.1754160E+02
  0.4523810E+00  0.1325915E+06  0.7000253E+02 -0.3399979E-01 -0.2540052E-02  0.1953449E+04  0.2824977E+02
  0.4833333E+00  0.1331552E+06  0.1087792E+03 -0.1824741E-01 -0.9647012E-03  0.2319864E+04  0.4436883E+02
  0.5142857E+00  0.1337314E+06  0.1662299E+03 -0.5459256E-02 -0.1035810E-02  0.2649248E+04  0.6849992E+02
  0.5452381E+00  0.1344772E+06  0.2480466E+03 -0.3033634E-01 -0.3332257E-02  0.3230347E+04  0.1034861E+03
  0.5761905E+00  0.1353480E+06  0.3615042E+03 -0.7626872E-02 -0.1959562E-02  0.3867454E+04  0.1527554E+03
  0.6071429E+00  0.1361374E+06  0.5169280E+03 -0.1306870E-02  0.1041651E-02  0.4292748E+04  0.2209172E+03
  0.6380953E+00  0.1370044E+06  0.7227618E+03 -0.2276520E-01 -0.5714893E-02  0.4837752E+04  0.3127957E+03
  0.6690477E+00  0.1379981E+06  0.9931590E+03  0.4150825E-02  0.2536774E-02  0.5509963E+04  0.4355737E+03
  0.7000000E+00  0.1390645E+06  0.1343993E+04  0.2136230E-01  0.4292488E-02  0.6336936E+04  0.5979720E+03
  0.7309524E+00  0.1402485E+06  0.1790474E+04  0.2580176E-01  0.6316185E-02  0.7159271E+04  0.8079907E+03
  0.7619048E+00  0.1414477E+06  0.2353026E+04  0.4005432E-03  0.6326675E-02  0.7917583E+04  0.1076680E+04
  0.7928572E+00  0.1426272E+06  0.3053181E+04  0.1408757E-01  0.7247925E-02  0.8712695E+04  0.1417210E+04
  0.8238096E+00  0.1439085E+06  0.3915087E+04  0.2756108E-01  0.7078171E-02  0.9541937E+04  0.1843183E+04
  0.8547620E+00  0.1452214E+06  0.4963139E+04  0.2642023E-01  0.1013947E-01  0.1059517E+05  0.2373516E+04
  0.8857143E+00  0.1466345E+06  0.6225854E+04 -0.1447124E-02 -0.8872986E-02  0.1171868E+05  0.3025012E+04
  0.9166667E+00  0.1479880E+06  0.7730736E+04 -0.3968395E-01 -0.1382446E-01  0.1276882E+05  0.3815291E+04
  0.9476191E+00  0.1493326E+06  0.9507387E+04  0.1082070E-01  0.5218506E-02  0.1373544E+05  0.4763917E+04
  0.9785714E+00  0.1505869E+06  0.1158109E+05 -0.3230854E-01 -0.1702881E-01  0.1479214E+05  0.5897227E+04
  0.1009524E+01  0.1517797E+06  0.1397728E+05  0.4099144E-01  0.1686859E-01  0.1580764E+05  0.7231369E+04
  0.1040476E+01  0.1528946E+06  0.1671689E+05 -0.1038296E-01 -0.1435852E-01  0.1676889E+05  0.8785166E+04
  0.1071429E+01  0.1538248E+06  0.1981406E+05  0.6260580E-01  0.2427673E-01  0.1780032E+05  0.1058714E+05
  0.1102381E+01  0.1546805E+06  0.2328293E+05 -0.5259833E-02 -0.3204346E-03  0.1875541E+05  0.1264640E+05
  0.1133333E+01  0.1552911E+06  0.2712539E+05  0.9478400E-02 -0.5279541E-02  0.1967117E+05  0.1498481E+05
  0.1164286E+01  0.1556722E+06  0.3133289E+05  0.4770478E-02 -0.2294922E-01  0.2040208E+05  0.1760061E+05
  0.1195238E+01  0.1557971E+06  0.3589608E+05 -0.2558370E-01 -0.1971436E-01  0.2087520E+05  0.2048850E+05
  0.1226190E+01  0.1555573E+06  0.4076967E+05 -0.2847201E-01  0.5798340E-02  0.2128399E+05  0.2366720E+05
  0.1257143E+01  0.1550436E+06  0.4596929E+05  0.1883767E-01 -0.9155273E-04  0.2143711E+05  0.2712366E+05
  0.1288095E+01  0.1542203E+06  0.5130200E+05  0.5686085E-03  0.1248169E-01  0.2146540E+05  0.3077603E+05
  0.1319048E+01  0.1530512E+06  0.5684130E+05 -0.1017987E-02  0.8850098E-03  0.2129365E+05  0.3466849E+05
  0.1350000E+01  0.1515794E+06  0.6246910E+05 -0.1763238E-01  0.5981445E-02  0.2094049E+05  0.3874274E+05
  0.1380952E+01  0.1498229E+06  0.6814177E+05 -0.9635136E-02 -0.4516602E-02  0.2032073E+05  0.4295607E+05
  0.1411905E+01  0.1470917E+06  0.7329805E+05  0.4149979E-02 -0.2990723E-02  0.1886641E+05  0.4697136E+05
  0.1442857E+01  0.1448169E+06  0.7883201E+05 -0.4145556E-02 -0.1330566E-01  0.1789910E+05  0.5136552E+05
  0.1473810E+01  0.1423329E+06  0.8420816E+05 -0.1101591E-01 -0.1037598E-02  0.1672543E+05  0.5577183E+05
  0.1504762E+01  0.1396092E+06  0.8935620E+05  0.4299502E-02  0.3369141E-01  0.1542751E+05  0.6017445E+05
  0.1535714E+01  0.1367391E+06  0.9423152E+05  0.3179506E-03  0.5615234E-02  0.1396748E+05  0.6451613E+05
  0.1566667E+01  0.1337867E+06  0.9879131E+05 -0.8570894E-03  0.1232910E-01  0.1235616E+05  0.6874132E+05
  0.1597619E+01  0.1307511E+06  0.1030399E+06  0.9932994E-02 -0.5895996E-01  0.1054628E+05  0.7283291E+05
  0.1628572E+01  0.1276175E+06  0.1069131E+06 -0.3897683E-02 -0.3112793E-02  0.8726535E+04  0.7681168E+05
  0.1659524E+01  0.1245058E+06  0.1104250E+06 -0.1949272E-01 -0.5554199E-02  0.6782313E+04  0.8059227E+05
  0.1690476E+01  0.1214422E+06  0.1135702E+06 -0.2635687E-02 -0.1135254E-01  0.4744959E+04  0.8415420E+05
  0.1721429E+01  0.1183678E+06  0.1163231E+06  0.3545611E-02 -0.8178711E-02  0.2739192E+04  0.8755516E+05
  0.1752381E+01  0.1153844E+06  0.1187193E+06 -0.3169516E-02 -0.3173828E-01  0.6735449E+03  0.9070464E+05
  0.1783333E+01  0.1124744E+06  0.1207272E+06 -0.3319856E-02 -0.1110840E-01 -0.1345827E+04  0.9368188E+05
  0.1814286E+01  0.1096975E+06  0.1224194E+06  0.1009243E-02  0.5737305E-02 -0.3405251E+04  0.9640966E+05
  0.1845238E+01  0.1070192E+06  0.1238243E+06  0.7177734E-02 -0.1452637E-01 -0.5478431E+04  0.9891021E+05
  0.1876190E+01  0.1044022E+06  0.1248890E+06  0.4001366E-02 -0.6835938E-02 -0.7441357E+04  0.1012857E+06
  0.1907143E+01  0.1019345E+06  0.1257036E+06  0.6592711E-02  0.1916504E-01 -0.9407164E+04  0.1034024E+06
  0.1938095E+01  0.9961935E+05  0.1262919E+06  0.5290713E-02  0.1196289E-01 -0.1136861E+05  0.1052846E+06
  0.1969048E+01  0.9741249E+05  0.1265974E+06 -0.1273989E-01 -0.1220703E-01 -0.1323606E+05  0.1070060E+06
  0.2000000E+01  0.9529736E+05  0.1266649E+06  0.7965088E-02 -0.1892090E-01 -0.1503531E+05  0.1085496E+06
Zone t="Motion of body    1 in DoF   2",I=    64,F=POINT
  0.5000000E-01  0.1174927E-01  0.6198883E-05  0.2049349E+06  0.6009291E+03 -0.3051758E-03  0.8487701E-04
  0.8095238E-01  0.2959307E-01  0.2193451E-04  0.2021695E+06  0.9962133E+03 -0.3543629E-01 -0.3051758E-04
  0.1119048E+00 -0.6135981E-02 -0.7438660E-04  0.2006550E+06  0.1426275E+04  0.5999626E-02 -0.9536743E-05
  0.1428571E+00  0.6195068E-02  0.1144409E-04  0.1999150E+06  0.1906949E+04 -0.3204345E-02  0.6103516E-04
  0.1738095E+00  0.3178009E-01  0.3433228E-04  0.1996621E+06  0.2459010E+04  0.8603448E-02  0.1144409E-04
  0.2047619E+00 -0.1371162E-01  0.1316071E-03  0.1999293E+06  0.3107177E+04 -0.1222123E-01  0.1754761E-03
  0.2357143E+00 -0.7509173E-02  0.1754761E-03  0.2003987E+06  0.3887190E+04 -0.5178740E-03  0.1068115E-03
  0.2666667E+00 -0.2414703E-01 -0.9193420E-03  0.2011950E+06  0.4828945E+04 -0.5722045E-02  0.4501343E-03
  0.2976190E+00  0.1507324E-01  0.6523132E-03  0.2022023E+06  0.5997913E+04  0.3896484E-02  0.4882812E-03
  0.3285715E+00 -0.8823560E-02 -0.6103516E-04  0.2032589E+06  0.7429742E+04  0.2229110E-02 -0.4577637E-04
  0.3595238E+00 -0.1247785E-01  0.5683899E-03  0.2042517E+06  0.9201071E+04  0.5772066E-02 -0.9918213E-03
  0.3904762E+00  0.7737322E-02 -0.1037598E-02  0.2053006E+06  0.1137166E+05 -0.3126191E-03 -0.6256104E-03
  0.4214286E+00 -0.1680018E-01 -0.4043579E-03  0.2056820E+06  0.1391293E+05 -0.1419326E-01 -0.2288818E-03
  0.4523810E+00  0.5396792E-02  0.1655579E-02  0.2058065E+06  0.1695232E+05 -0.5396793E-03  0.3662109E-03
  0.4833333E+00 -0.3333782E-01 -0.6103516E-03  0.2052670E+06  0.2023448E+05 -0.2247777E-01  0.4577637E-03
  0.5142857E+00  0.1459758E-01 -0.1953125E-02  0.2041183E+06  0.2391271E+05  0.1044379E-01  0.1220703E-03
  0.5452381E+00 -0.1041063E-01  0.1693726E-02  0.2024834E+06  0.2778320E+05 -0.5597110E-02  0.7934570E-03
  0.5761905E+00  0.5190510E-02 -0.2746582E-03  0.2003833E+06  0.3177298E+05 -0.2118576E-03  0.1220703E-03
  0.6071429E+00 -0.4021139E-03 -0.8239746E-03  0.1978330E+06  0.3597193E+05  0.5227481E-02  0.2197266E-02
  0.6380953E+00  0.1645216E-01 -0.4974365E-02  0.1951917E+06  0.4013177E+05  0.4399997E-02  0.8544922E-03
  0.6690477E+00 -0.7480607E-02 -0.3692627E-02  0.1922014E+06  0.4435568E+05 -0.9852507E-02 -0.1281738E-02
  0.7000000E+00  0.1708984E-01 -0.2075195E-02  0.1889106E+06  0.4865616E+05  0.2232143E-01  0.4394531E-02
  0.7309524E+00  0.2179372E-01 -0.1007080E-02  0.1855834E+06  0.5289214E+05  0.1503015E-02 -0.1098633E-02
  0.7619048E+00  0.1241684E-01 -0.4180908E-02  0.1821274E+06  0.5709069E+05 -0.1057434E-01 -0.8544922E-03
  0.7928572E+00 -0.2163174E-01 -0.6011963E-02  0.1785315E+06  0.6124513E+05 -0.8929827E-02 -0.2441406E-02
  0.8238096E+00  0.2444934E-02  0.5523682E-02  0.1748440E+06  0.6532612E+05  0.1066880E-01 -0.8544922E-03
  0.8547620E+00 -0.1735166E-01 -0.4882812E-02  0.1711425E+06  0.6929862E+05 -0.8568724E-02 -0.2197266E-02
  0.8857143E+00  0.6615423E-02  0.3479004E-02  0.1674162E+06  0.7314031E+05 -0.4961567E-02  0.6103516E-03
  0.9166667E+00 -0.1817738E-01  0.7751465E-02  0.1636912E+06  0.7683705E+05  0.8256392E-02  0.3662109E-03
  0.9476191E+00  0.1185125E-01  0.8789062E-02  0.1599630E+06  0.8037408E+05 -0.3864537E-02  0.4394531E-02
  0.9785714E+00  0.6798515E-02 -0.7385254E-02  0.1562834E+06  0.8373184E+05 -0.4740249E-02  0.6103516E-03
  0.1009524E+01  0.2484880E-01 -0.1525879E-02  0.1526495E+06  0.8691449E+05 -0.9673497E-02  0.4028320E-02
  0.1040476E+01  0.9385726E-03 -0.3723145E-02  0.1490999E+06  0.8991323E+05  0.3754291E-02 -0.5249023E-02
  0.1071429E+01 -0.9969076E-02  0.1269531E-01  0.1455927E+06  0.9273559E+05  0.1344401E-01  0.1098633E-02
  0.1102381E+01  0.4540066E-02 -0.6713867E-02  0.1422156E+06  0.9534273E+05 -0.1240213E-01 -0.2441406E-03
  0.1133333E+01 -0.1007080E-01 -0.2990723E-02  0.1389303E+06  0.9775634E+05 -0.1658720E-01 -0.4882812E-03
  0.1164286E+01 -0.4062770E-01  0.6103516E-02  0.1357746E+06  0.9995956E+05  0.1048457E-02  0.1464844E-02
  0.1195238E+01  0.6434224E-02 -0.7751465E-02  0.1327428E+06  0.1019689E+06 -0.1368549E-01 -0.3417969E-02
  0.1226190E+01 -0.8810395E-02  0.3906250E-02  0.1298268E+06  0.1037845E+06 -0.1991050E-03  0.8056641E-02
  0.1257143E+01  0.5583330E-02  0.1623535E-01  0.1270738E+06  0.1054676E+06  0.3107244E-02 -0.2441406E-02
  0.1288095E+01  0.5022708E-02 -0.7690430E-02  0.1244015E+06  0.1068672E+06 -0.3790723E-03  0.6347656E-02
  0.1319048E+01  0.5737745E-02 -0.1104736E-01  0.1218916E+06  0.1081649E+06 -0.9254427E-03 -0.1953125E-02
  0.1350000E+01  0.8816189E-02  0.9765625E-02  0.1195029E+06  0.1093098E+06 -0.7233796E-02 -0.2441406E-02
  0.1380952E+01 -0.1776754E-01  0.3967285E-02  0.1172801E+06  0.1102890E+06  0.7160055E-02 -0.4882812E-02
  0.1411905E+01  0.0000000E+00 -0.1098633E-01  0.1150500E+06  0.1111269E+06 -0.1296868E-02 -0.4638672E-02
  0.1442857E+01  0.9306350E-03 -0.5615234E-02  0.1130996E+06  0.1118952E+06 -0.1438254E-01 -0.4394531E-02
  0.1473810E+01 -0.2360552E-02  0.9277344E-02  0.1112729E+06  0.1125662E+06  0.9359381E-02  0.3417969E-02
  0.1504762E+01  0.3528836E-02  0.5249023E-02  0.1095614E+06  0.1131612E+06  0.1135717E-02  0.4882812E-03
  0.1535714E+01 -0.2225654E-02 -0.3051758E-02  0.1079781E+06  0.1136861E+06  0.0000000E+00  0.2441406E-03
  0.1566667E+01 -0.7129426E-02 -0.1721191E-01  0.1064973E+06  0.1141468E+06  0.5687957E-02 -0.1464844E-02
  0.1597619E+01  0.5424943E-02 -0.1586914E-02  0.1051312E+06  0.1146002E+06 -0.8099210E-02 -0.5615234E-02
  0.1628572E+01  0.1158062E-01  0.1098633E-02  0.1038329E+06  0.1150556E+06 -0.2923263E-02  0.2685547E-02
  0.1659524E+01 -0.5149020E-03  0.3784180E-02  0.1026252E+06  0.1155106E+06 -0.1221053E-01 -0.2441406E-03
  0.1690476E+01 -0.2126602E-01  0.8544922E-03  0.1014729E+06  0.1159641E+06  0.6932218E-02 -0.3906250E-02
  0.1721429E+01  0.1244509E-01 -0.1647949E-01  0.1003736E+06  0.1164591E+06 -0.1205508E-02 -0.5615234E-02
  0.1752381E+01  0.1748458E-01  0.2807617E-02  0.9933446E+05  0.1169853E+06  0.9055760E-02 -0.4394531E-02
  0.1783333E+01 -0.1519604E-01  0.3662109E-03  0.9831047E+05  0.1175209E+06  0.2669575E-02  0.4882812E-03
  0.1814286E+01  0.4036971E-03 -0.2197266E-02  0.9730331E+05  0.1180618E+06  0.2758597E-02  0.9765625E-03
  0.1845238E+01  0.1187469E-01 -0.6103516E-03  0.9629941E+05  0.1186656E+06 -0.6350806E-02  0.9765625E-02
  0.1876190E+01 -0.3285674E-02 -0.4150391E-02  0.9525877E+05  0.1192506E+06  0.7221977E-02 -0.3662109E-02
  0.1907143E+01  0.4672504E-02  0.1928711E-01  0.9420891E+05  0.1197968E+06 -0.5056546E-02  0.4150391E-02
  0.1938095E+01  0.5558398E-02 -0.5249023E-02  0.9314606E+05  0.1202889E+06 -0.3401173E-02  0.1440430E-01
  0.1969048E+01  0.7640834E-02  0.3662109E-03  0.9205909E+05  0.1206547E+06 -0.6943395E-02 -0.7324219E-03
  0.2000000E+01  0.6805420E-02  0.6103516E-02  0.9096587E+05  0.1209258E+06 -0.4394531E-02  0.8789062E-02
Zone t="Motion of body    1 in DoF   3",I=    64,F=POINT
  0.5000000E-01  0.4946045E+03  0.4752236E-02 -0.3074646E-01 -0.9952601E-04  0.2222284E+06  0.1907206E-02
  0.8095238E-01 -0.5711567E+02  0.2072522E-01  0.1979155E-02 -0.1070018E-04  0.2229955E+06  0.7956358E-02
  0.1119048E+00  0.2627543E+02  0.5842414E-01  0.1663533E-01  0.8538272E-04  0.2230608E+06  0.2178459E-01
  0.1428571E+00  0.2540078E+03  0.1320540E+00 -0.2510071E-01 -0.2389151E-03  0.2237259E+06  0.4927573E-01
  0.1738095E+00  0.2480820E+03  0.2639619E+00 -0.3265799E-01 -0.4397730E-03  0.2232957E+06  0.9873704E-01
  0.2047619E+00  0.4813440E+03  0.4885889E+00  0.1848088E-01  0.1644180E-03  0.2238830E+06  0.1854781E+00
  0.2357143E+00  0.6751844E+03  0.8643963E+00  0.5178740E-02  0.5798135E-04  0.2239685E+06  0.3297496E+00
  0.2666667E+00  0.6700780E+03  0.1483111E+01 -0.3564835E-01 -0.6208196E-03  0.2235467E+06  0.5674477E+00
  0.2976190E+00  0.1062700E+04  0.2501046E+01  0.3060791E-01  0.1138652E-02  0.2243274E+06  0.9654735E+00
  0.3285715E+00  0.1320529E+04  0.4166686E+01  0.4588251E-01  0.1784062E-02  0.2244341E+06  0.1620039E+01
  0.3595238E+00  0.1400639E+04  0.6890366E+01  0.3234055E-01  0.1555067E-02  0.2240228E+06  0.2696887E+01
  0.3904762E+00  0.1687329E+04  0.1131988E+02  0.2461875E-01  0.1693048E-02  0.2243518E+06  0.4469569E+01
  0.4214286E+00  0.2274135E+04  0.1835467E+02  0.8327677E-02  0.6096214E-03  0.2251994E+06  0.7325484E+01
  0.4523810E+00  0.2683923E+04  0.2952506E+02  0.3818231E-01  0.4898056E-02  0.2254000E+06  0.1191131E+02
  0.4833333E+00  0.3029476E+04  0.4635893E+02 -0.7665174E-01 -0.8427978E-02  0.2254332E+06  0.1890267E+02
  0.5142857E+00  0.3403489E+04  0.7155434E+02  0.1050313E+00  0.1334393E-01  0.2257523E+06  0.2947615E+02
  0.5452381E+00  0.4023962E+04  0.1079072E+03 -0.3526179E-01 -0.6202579E-02  0.2264928E+06  0.4501405E+02
  0.5761905E+00  0.4634006E+04  0.1591057E+03 -0.3193752E-01 -0.5537629E-02  0.2268578E+06  0.6722473E+02
  0.6071429E+00  0.5033907E+04  0.2302446E+03 -0.3015854E-03 -0.1847744E-04  0.2267669E+06  0.9849343E+02
  0.6380953E+00  0.5639841E+04  0.3258522E+03  0.3041737E-01  0.9215593E-02  0.2273728E+06  0.1410057E+03
  0.6690477E+00  0.6362064E+04  0.4533364E+03 -0.3247678E-01 -0.7770777E-02  0.2280450E+06  0.1987682E+03
  0.7000000E+00  0.7197659E+04  0.6212500E+03 -0.3295898E-01 -0.8170128E-02  0.2287756E+06  0.2764207E+03
  0.7309524E+00  0.7999736E+04  0.8389459E+03  0.3532086E-01  0.9764194E-02  0.2292264E+06  0.3785995E+03
  0.7619048E+00  0.8755056E+04  0.1118382E+04 -0.6713104E-01 -0.2429104E-01  0.2294689E+06  0.5118722E+03
  0.7928572E+00  0.9596674E+04  0.1471450E+04 -0.4326347E-01 -0.1753330E-01  0.2301010E+06  0.6829317E+03
  0.8238096E+00  0.1047351E+05  0.1913481E+04 -0.1704045E-02 -0.6151199E-02  0.2308157E+06  0.9006311E+03
  0.8547620E+00  0.1157436E+05  0.2459187E+04 -0.3384646E-01 -0.1110077E-01  0.2319856E+06  0.1175532E+04
  0.8857143E+00  0.1270805E+05  0.3130547E+04 -0.2225814E-01 -0.1282883E-01  0.2328546E+06  0.1520235E+04
  0.9166667E+00  0.1374738E+05  0.3946948E+04  0.5493164E-01  0.3645134E-01  0.2334960E+06  0.1947607E+04
  0.9476191E+00  0.1472554E+05  0.4931736E+04  0.4804908E-01  0.3865051E-01  0.2340262E+06  0.2471824E+04
  0.9785714E+00  0.1580992E+05  0.6100250E+04 -0.6112426E-02 -0.7995605E-02  0.2349129E+06  0.3106947E+04
  0.1009524E+01  0.1687967E+05  0.7476245E+04 -0.2279318E-01 -0.1143646E-01  0.2358193E+06  0.3867415E+04
  0.1040476E+01  0.1788403E+05  0.9079383E+04 -0.1267073E-01 -0.1133728E-01  0.2367902E+06  0.4769990E+04
  0.1071429E+01  0.1893240E+05  0.1092485E+05 -0.2495117E-01 -0.1384735E-01  0.2378506E+06  0.5834232E+04
  0.1102381E+01  0.1991549E+05  0.1304320E+05 -0.1611170E-01 -0.1682281E-01  0.2388519E+06  0.7081773E+04
  0.1133333E+01  0.2082247E+05  0.1543696E+05  0.4846910E-02  0.1167297E-01  0.2398408E+06  0.8527256E+04
  0.1164286E+01  0.2156291E+05  0.1813524E+05 -0.4403518E-02  0.1321411E-01  0.2404522E+06  0.1018866E+05
  0.1195238E+01  0.2206943E+05  0.2113420E+05  0.8068313E-02 -0.2197266E-02  0.2409633E+06  0.1207643E+05
  0.1226190E+01  0.2247409E+05  0.2440351E+05 -0.2488812E-02 -0.2398682E-01  0.2414944E+06  0.1418241E+05
  0.1257143E+01  0.2265345E+05  0.2797382E+05  0.7962313E-02  0.6942749E-02  0.2420372E+06  0.1652508E+05
  0.1288095E+01  0.2269150E+05  0.3171405E+05 -0.8813431E-02 -0.1815796E-01  0.2425424E+06  0.1904108E+05
  0.1319048E+01  0.2251317E+05  0.3569209E+05  0.3701771E-03 -0.2398682E-01  0.2430418E+06  0.2178698E+05
  0.1350000E+01  0.2217302E+05  0.3987220E+05  0.2350984E-02  0.1638794E-01  0.2433000E+06  0.2474291E+05
  0.1380952E+01  0.2154906E+05  0.4420729E+05  0.1909348E-01  0.3970337E-01  0.2434261E+06  0.2789064E+05
  0.1411905E+01  0.1745404E+05  0.4626602E+05 -0.1158536E-01 -0.1147461E-01  0.2398599E+06  0.2967113E+05
  0.1442857E+01  0.1650329E+05  0.5060805E+05 -0.6937461E-02  0.7812500E-02  0.2396845E+06  0.3296814E+05
  0.1473810E+01  0.1537063E+05  0.5499666E+05  0.1275526E-01  0.3826904E-01  0.2393216E+06  0.3642705E+05
  0.1504762E+01  0.1407425E+05  0.5930666E+05 -0.4299502E-02 -0.3973389E-01  0.2389853E+06  0.3992023E+05
  0.1535714E+01  0.1264162E+05  0.6357038E+05  0.5166696E-02 -0.7202148E-02  0.2384865E+06  0.4347809E+05
  0.1566667E+01  0.1108895E+05  0.6776881E+05  0.5454205E-02  0.2337646E-01  0.2378003E+06  0.4707832E+05
  0.1597619E+01  0.9317445E+04  0.7184167E+05 -0.8481249E-02 -0.2929688E-02  0.2370201E+06  0.5070423E+05
  0.1628572E+01  0.7502426E+04  0.7575252E+05  0.6895902E-02 -0.3295898E-02  0.2360612E+06  0.5432419E+05
  0.1659524E+01  0.5581040E+04  0.7950069E+05  0.4928348E-02 -0.3918457E-01  0.2350448E+06  0.5788121E+05
  0.1690476E+01  0.3615879E+04  0.8309236E+05 -0.3466109E-02 -0.1171875E-01  0.2339634E+06  0.6143695E+05
  0.1721429E+01  0.1634682E+04  0.8642527E+05 -0.5672977E-02 -0.6713867E-02  0.2328537E+06  0.6489398E+05
  0.1752381E+01 -0.3864212E+03  0.8952625E+05  0.9752357E-02  0.5065918E-01  0.2317938E+06  0.6824802E+05
  0.1783333E+01 -0.2364884E+04  0.9250386E+05 -0.5339150E-02 -0.3051758E-02  0.2304858E+06  0.7155532E+05
  0.1814286E+01 -0.4362100E+04  0.9529938E+05 -0.8679488E-02 -0.1531982E-01  0.2291306E+06  0.7475747E+05
  0.1845238E+01 -0.6403591E+04  0.9783439E+05  0.2249244E-02  0.3204346E-01  0.2278502E+06  0.7791705E+05
  0.1876190E+01 -0.8354497E+04  0.1001757E+06  0.1496446E-02  0.2380371E-02  0.2264653E+06  0.8090251E+05
  0.1907143E+01 -0.1029658E+05  0.1023009E+06  0.4288463E-02 -0.1318359E-01  0.2251138E+06  0.8379798E+05
  0.1938095E+01 -0.1220876E+05  0.1042568E+06 -0.1058143E-01 -0.5187988E-02  0.2237712E+06  0.8659729E+05
  0.1969048E+01 -0.1403081E+05  0.1060401E+06  0.1363881E-02  0.3723145E-02  0.2223538E+06  0.8919566E+05
  0.2000000E+01 -0.1581783E+05  0.1075330E+06  0.4211426E-02  0.2514648E-01  0.2210463E+06  0.9166316E+05
