VARIABLES="w (rad/s)"
"A   1   1" "B   1   1"
"A   1   2" "B   1   2"
"A   1   3" "B   1   3"
Zone t="Motion of body    1 in DoF   1",I=    64,F=POINT
  0.5000000E-01  0.9309000E+05  0.1217419E-01 -0.2670288E-02  0.3605718E-04  0.1962474E+04  0.3282733E-03
  0.8095238E-01  0.9335247E+05  0.5354878E-01 -0.4005432E-03 -0.3689682E-05  0.1956519E+04  0.1431847E-02
  0.1119048E+00  0.9334324E+05  0.1502042E+00  0.4056565E-02  0.1045295E-03  0.1937856E+04  0.4034923E-02
  0.1428571E+00  0.9349484E+05  0.3381914E+00 -0.4138947E-02 -0.3589090E-04  0.1967711E+04  0.9129298E-02
  0.1738095E+00  0.9375057E+05  0.6733741E+00 -0.1999424E-01 -0.1609217E-03  0.1959847E+04  0.1822532E-01
  0.2047619E+00  0.9399701E+05  0.1242287E+01 -0.4303511E-02 -0.1412886E-04  0.1986852E+04  0.3387133E-01
  0.2357143E+00  0.9403997E+05  0.2186226E+01  0.1577897E-01  0.4414706E-03  0.1984031E+04  0.5988180E-01
  0.2666667E+00  0.9445605E+05  0.3732087E+01  0.1287460E-02  0.2223877E-03  0.2006247E+04  0.1030792E+00
  0.2976190E+00  0.9477295E+05  0.6259020E+01  0.4614258E-02 -0.3804453E-04  0.2030285E+04  0.1743279E+00
  0.3285715E+00  0.9496958E+05  0.1034947E+02 -0.1274772E-01 -0.1064446E-03  0.2046841E+04  0.2909004E+00
  0.3595238E+00  0.9546806E+05  0.1699821E+02 -0.1037699E-01 -0.3415234E-03  0.2078376E+04  0.4828952E+00
  0.3904762E+00  0.9606418E+05  0.2772762E+02 -0.1457586E-01 -0.5067214E-03  0.2133748E+04  0.7985889E+00
  0.4214286E+00  0.9634417E+05  0.4456442E+02 -0.4055217E-02  0.2619252E-03  0.2122368E+04  0.1292661E+01
  0.4523810E+00  0.9684184E+05  0.7104928E+02  0.1308722E-01  0.1890540E-02  0.2166372E+04  0.2088800E+01
  0.4833333E+00  0.9768789E+05  0.1105885E+03  0.1046542E-01  0.1942396E-02  0.2216121E+04  0.3296788E+01
  0.5142857E+00  0.9841593E+05  0.1692226E+03  0.1415253E-01  0.3033966E-02  0.2269292E+04  0.5120350E+01
  0.5452381E+00  0.9891171E+05  0.2525422E+03 -0.1614766E-01 -0.7502437E-03  0.2279065E+04  0.7725448E+01
  0.5761905E+00  0.9966309E+05  0.3682273E+03 -0.3442685E-02 -0.4468560E-03  0.2317294E+04  0.1141974E+02
  0.6071429E+00  0.1007473E+06  0.5274493E+03 -0.6308162E-02 -0.1486421E-02  0.2402695E+04  0.1666136E+02
  0.6380953E+00  0.1018761E+06  0.7388027E+03  0.7891299E-02  0.3756642E-02  0.2472893E+04  0.2373436E+02
  0.6690477E+00  0.1027312E+06  0.1016046E+04 -0.9487599E-02  0.6124973E-03  0.2498375E+04  0.3307466E+02
  0.7000000E+00  0.1036161E+06  0.1375935E+04  0.1092093E-01  0.4626036E-02  0.2554141E+04  0.4554534E+02
  0.7309524E+00  0.1048632E+06  0.1835297E+04  0.1594866E-01  0.5118847E-02  0.2629525E+04  0.6180597E+02
  0.7619048E+00  0.1062784E+06  0.2415921E+04 -0.1728344E-01 -0.5535603E-02  0.2712586E+04  0.8281839E+02
  0.7928572E+00  0.1076936E+06  0.3140729E+04 -0.1391436E-01 -0.3754616E-02  0.2817788E+04  0.1099027E+03
  0.8238096E+00  0.1090733E+06  0.4034813E+04  0.2889468E-02  0.3047943E-02  0.2904186E+04  0.1438964E+03
  0.8547620E+00  0.1102715E+06  0.5123075E+04  0.1192481E-01  0.1003551E-01  0.2955744E+04  0.1856583E+03
  0.8857143E+00  0.1115675E+06  0.6436489E+04 -0.1109462E-01  0.1267433E-02  0.3035416E+04  0.2375084E+03
  0.9166667E+00  0.1130184E+06  0.8005930E+04 -0.1702881E-01 -0.6990433E-02  0.3146573E+04  0.3014764E+03
  0.9476191E+00  0.1145889E+06  0.9864015E+04 -0.3896742E-02  0.9492874E-02  0.3269591E+04  0.3795368E+03
  0.9785714E+00  0.1161113E+06  0.1204104E+05  0.2588425E-02  0.2845764E-02  0.3384879E+04  0.4728494E+03
  0.1009524E+01  0.1175179E+06  0.1456742E+05 -0.6257543E-02 -0.2651215E-03  0.3492710E+04  0.5837944E+03
  0.1040476E+01  0.1186369E+06  0.1746533E+05 -0.4692863E-03  0.2967834E-02  0.3588259E+04  0.7147858E+03
  0.1071429E+01  0.1195562E+06  0.2075888E+05 -0.1338704E-02  0.3662109E-03  0.3675579E+04  0.8679304E+03
  0.1102381E+01  0.1203300E+06  0.2445618E+05 -0.8803300E-02  0.3318787E-03  0.3759512E+04  0.1043762E+04
  0.1133333E+01  0.1209603E+06  0.2855878E+05  0.6570255E-02  0.5348206E-02  0.3844362E+04  0.1243424E+04
  0.1164286E+01  0.1213950E+06  0.3306405E+05  0.3407484E-03  0.1037598E-02  0.3921034E+04  0.1468983E+04
  0.1195238E+01  0.1215029E+06  0.3795706E+05  0.3140514E-02  0.4875183E-02  0.3994742E+04  0.1724453E+04
  0.1226190E+01  0.1213038E+06  0.4321477E+05 -0.6570464E-02 -0.4737854E-02  0.4061487E+04  0.2009032E+04
  0.1257143E+01  0.1207282E+06  0.4882165E+05 -0.1577897E-01 -0.3768921E-02  0.4111688E+04  0.2321205E+04
  0.1288095E+01  0.1198875E+06  0.5461624E+05  0.1006911E-01  0.1518250E-01  0.4143066E+04  0.2653920E+04
  0.1319048E+01  0.1186117E+06  0.6062174E+05 -0.1968879E-01 -0.9269714E-02  0.4138293E+04  0.3005408E+04
  0.1350000E+01  0.1170056E+06  0.6674495E+05  0.3820349E-02  0.5889893E-02  0.4120663E+04  0.3380387E+04
  0.1380952E+01  0.1150106E+06  0.7291146E+05  0.4463985E-02  0.1648712E-01  0.4092298E+04  0.3778575E+04
  0.1411905E+01  0.1122658E+06  0.7866257E+05 -0.1296868E-03  0.8071899E-02  0.3985104E+04  0.4159649E+04
  0.1442857E+01  0.1096950E+06  0.8463313E+05 -0.6704803E-02  0.7354736E-02  0.3927863E+04  0.4580522E+04
  0.1473810E+01  0.1068778E+06  0.9039918E+05  0.5155942E-02  0.5096436E-02  0.3841877E+04  0.5000974E+04
  0.1504762E+01  0.1038137E+06  0.9589514E+05 -0.1255373E-01 -0.1495361E-01  0.3734518E+04  0.5423106E+04
  0.1535714E+01  0.1005700E+06  0.1010691E+06 -0.6478243E-02  0.9338379E-02  0.3609251E+04  0.5842156E+04
  0.1566667E+01  0.9719584E+05  0.1058710E+06 -0.7519011E-02  0.1968384E-02  0.3476518E+04  0.6258415E+04
  0.1597619E+01  0.9372454E+05  0.1102615E+06 -0.5501350E-02  0.1312256E-02  0.3335330E+04  0.6668007E+04
  0.1628572E+01  0.9021668E+05  0.1142190E+06 -0.1107467E-01 -0.1063538E-01  0.3178400E+04  0.7066417E+04
  0.1659524E+01  0.8672277E+05  0.1177258E+06 -0.3824987E-02  0.5630493E-02  0.3017656E+04  0.7454301E+04
  0.1690476E+01  0.8328325E+05  0.1207827E+06 -0.7672376E-02 -0.9277344E-02  0.2842875E+04  0.7823855E+04
  0.1721429E+01  0.7991048E+05  0.1233918E+06 -0.2038726E-02 -0.9002686E-03  0.2664760E+04  0.8170124E+04
  0.1752381E+01  0.7660569E+05  0.1255771E+06 -0.1114555E-02 -0.6393433E-02  0.2477597E+04  0.8489397E+04
  0.1783333E+01  0.7342741E+05  0.1273592E+06 -0.7563796E-02  0.4394531E-02  0.2295427E+04  0.8794415E+04
  0.1814286E+01  0.7034599E+05  0.1287575E+06 -0.3010908E-02  0.4333496E-02  0.2110300E+04  0.9089771E+04
  0.1845238E+01  0.6740295E+05  0.1297921E+06 -0.1175892E-01 -0.1231384E-01  0.1930394E+04  0.9369509E+04
  0.1876190E+01  0.6461877E+05  0.1304926E+06 -0.7872606E-02 -0.6103516E-02  0.1753625E+04  0.9634810E+04
  0.1907143E+01  0.6199884E+05  0.1308840E+06 -0.1196929E-01 -0.5767822E-02  0.1583645E+04  0.9888062E+04
  0.1938095E+01  0.5953341E+05  0.1309944E+06 -0.1141597E-01  0.1052856E-02  0.1413087E+04  0.1012186E+05
  0.1969048E+01  0.5721798E+05  0.1308398E+06 -0.3983153E-02 -0.1155090E-01  0.1242746E+04  0.1033111E+05
  0.2000000E+01  0.5504182E+05  0.1304553E+06 -0.5935669E-02 -0.8941650E-02  0.1080208E+04  0.1052286E+05
Zone t="Motion of body    1 in DoF   2",I=    64,F=POINT
  0.5000000E-01 -0.1525879E-03 -0.1823902E-04  0.1615371E+06  0.4898078E+03 -0.2727509E-01 -0.9381771E-04
  0.8095238E-01  0.4523782E-02  0.2300739E-04  0.1591866E+06  0.8116539E+03 -0.3072402E-01 -0.1609325E-03
  0.1119048E+00  0.1315827E-01 -0.1310110E-03  0.1579133E+06  0.1161272E+04 -0.2396441E-01 -0.1981258E-03
  0.1428571E+00 -0.4673004E-02  0.1850128E-03  0.1571914E+06  0.1551569E+04 -0.2344513E-01 -0.3328323E-03
  0.1738095E+00 -0.1200532E-01  0.4768372E-06  0.1569443E+06  0.1998580E+04 -0.2282548E-01 -0.3390312E-03
  0.2047619E+00  0.4154471E-02  0.1432896E-03  0.1570142E+06  0.2522635E+04 -0.2835473E-01 -0.5221367E-03
  0.2357143E+00 -0.1715458E-02  0.5345345E-03  0.1573096E+06  0.3151832E+04 -0.2285119E-01 -0.6484985E-03
  0.2666667E+00 -0.1479149E-01  0.1187325E-03  0.1578466E+06  0.3909063E+04 -0.2408981E-01 -0.7867813E-03
  0.2976190E+00  0.2922363E-02  0.5016327E-03  0.1584507E+06  0.4847749E+04 -0.2348145E-01 -0.1002312E-02
  0.3285715E+00 -0.2600628E-02 -0.1425743E-03  0.1592218E+06  0.5993180E+04 -0.2303413E-01 -0.1203537E-02
  0.3595238E+00 -0.3395333E-03  0.8506775E-03  0.1598336E+06  0.7407841E+04 -0.2919986E-01 -0.1436234E-02
  0.3904762E+00  0.7854554E-02  0.1365662E-02  0.1604689E+06  0.9134843E+04 -0.2371997E-01 -0.1712799E-02
  0.4214286E+00  0.6589727E-02 -0.8077621E-03  0.1605541E+06  0.1115052E+05 -0.2672098E-01 -0.2437592E-02
  0.4523810E+00  0.7504914E-02  0.1249313E-02  0.1604685E+06  0.1355644E+05 -0.2816451E-01 -0.2719879E-02
  0.4833333E+00  0.9581467E-02  0.1165390E-02  0.1597787E+06  0.1613796E+05 -0.2613988E-01 -0.3120422E-02
  0.5142857E+00 -0.2260844E-01 -0.5474091E-03  0.1585625E+06  0.1902250E+05 -0.2842373E-01 -0.4287720E-02
  0.5452381E+00  0.2314405E-01  0.2916336E-02  0.1570363E+06  0.2203650E+05 -0.2843332E-01 -0.3780365E-02
  0.5761905E+00  0.2732962E-01 -0.1169205E-02  0.1550832E+06  0.2512214E+05 -0.2240393E-01 -0.5599976E-02
  0.6071429E+00 -0.5956313E-02 -0.4776001E-02  0.1527646E+06  0.2835612E+05 -0.3061092E-01 -0.6118774E-02
  0.6380953E+00 -0.9565211E-03  0.1861572E-02  0.1503624E+06  0.3152481E+05 -0.2400868E-01 -0.6294250E-02
  0.6690477E+00  0.5838523E-02 -0.1152039E-02  0.1476712E+06  0.3471443E+05 -0.2194007E-01 -0.8163452E-02
  0.7000000E+00  0.1754761E-01 -0.2494812E-02  0.1447866E+06  0.3793127E+05 -0.2615792E-01 -0.8277893E-02
  0.7309524E+00  0.1129349E-01  0.5222321E-02  0.1418921E+06  0.4106176E+05 -0.2338024E-01 -0.9963989E-02
  0.7619048E+00 -0.1003361E-01 -0.5142212E-02  0.1388497E+06  0.4413352E+05 -0.2231026E-01 -0.9841919E-02
  0.7928572E+00 -0.2501891E-02 -0.4467010E-02  0.1356828E+06  0.4713321E+05 -0.2128532E-01 -0.1061249E-01
  0.8238096E+00  0.7612636E-02 -0.5493164E-03  0.1325072E+06  0.5002388E+05 -0.1874449E-01 -0.1103973E-01
  0.8547620E+00 -0.3963035E-02  0.5443573E-02  0.1293227E+06  0.5278292E+05 -0.2334977E-01 -0.1182556E-01
  0.8857143E+00 -0.1047442E-01 -0.1457214E-02  0.1261175E+06  0.5540136E+05 -0.1901934E-01 -0.1446533E-01
  0.9166667E+00 -0.7873535E-02 -0.6866455E-03  0.1229460E+06  0.5786237E+05 -0.1990856E-01 -0.1380920E-01
  0.9476191E+00 -0.3381470E-02 -0.7080078E-02  0.1198030E+06  0.6015319E+05 -0.1629547E-01 -0.1370239E-01
  0.9785714E+00 -0.3898231E-02 -0.3211975E-02  0.1166874E+06  0.6226495E+05 -0.1930404E-01 -0.1562500E-01
  0.1009524E+01  0.1612753E-01 -0.1045227E-01  0.1136204E+06  0.6418809E+05 -0.1587058E-01 -0.1667786E-01
  0.1040476E+01 -0.1280272E-01 -0.1907349E-03  0.1106134E+06  0.6592246E+05 -0.1841949E-01 -0.1614380E-01
  0.1071429E+01 -0.1331584E-01  0.3456116E-02  0.1077203E+06  0.6745298E+05 -0.1538086E-01 -0.1672363E-01
  0.1102381E+01 -0.3903350E-02 -0.5645752E-02  0.1049476E+06  0.6877331E+05 -0.1600097E-01 -0.1759338E-01
  0.1133333E+01  0.4092946E-02  0.9277344E-02  0.1022631E+06  0.6990095E+05 -0.1481000E-01 -0.1856995E-01
  0.1164286E+01 -0.1372168E-01  0.4516602E-02  0.9969701E+05  0.7083285E+05 -0.1604139E-01 -0.1791382E-01
  0.1195238E+01  0.7340632E-02  0.4806519E-02  0.9721484E+05  0.7158532E+05 -0.1348123E-01 -0.1785278E-01
  0.1226190E+01 -0.3982100E-02 -0.4753113E-02  0.9488127E+05  0.7214225E+05 -0.1179697E-01 -0.2128601E-01
  0.1257143E+01 -0.3774816E-02 -0.3189087E-02  0.9268684E+05  0.7254256E+05 -0.1194347E-01 -0.2122498E-01
  0.1288095E+01  0.1344522E-01  0.1189423E-01  0.9058748E+05  0.7269677E+05 -0.1314907E-01 -0.2066040E-01
  0.1319048E+01 -0.1192664E-01 -0.1426697E-02  0.8862038E+05  0.7272214E+05 -0.1193821E-01 -0.2015686E-01
  0.1350000E+01 -0.1447889E-01  0.4829407E-02  0.8676720E+05  0.7258698E+05 -0.1030816E-01 -0.2076721E-01
  0.1380952E+01 -0.6441840E-02 -0.8857727E-02  0.8502709E+05  0.7228926E+05 -0.1074008E-01 -0.2165222E-01
  0.1411905E+01  0.5014558E-02 -0.5020142E-02  0.8342198E+05  0.7198034E+05 -0.9402296E-02 -0.2308655E-01
  0.1442857E+01  0.3934048E-02  0.1048660E-01  0.8195422E+05  0.7141415E+05 -0.8354565E-02 -0.2313232E-01
  0.1473810E+01 -0.1573701E-02 -0.2357483E-02  0.8059634E+05  0.7072123E+05 -0.1101591E-01 -0.2308655E-01
  0.1504762E+01 -0.9247985E-02  0.4917145E-02  0.7934449E+05  0.6991006E+05 -0.8842371E-02 -0.2203369E-01
  0.1535714E+01 -0.1985204E-01 -0.5908966E-02  0.7820075E+05  0.6899249E+05 -0.8067995E-02 -0.2194214E-01
  0.1566667E+01 -0.3623151E-02  0.4058838E-02  0.7714523E+05  0.6798280E+05 -0.7363177E-02 -0.2155304E-01
  0.1597619E+01 -0.2731573E-02  0.1224136E-01  0.7618937E+05  0.6687853E+05 -0.7449746E-02 -0.2257538E-01
  0.1628572E+01 -0.3588492E-02  0.4158020E-02  0.7534904E+05  0.6571054E+05 -0.8694832E-02 -0.2200317E-01
  0.1659524E+01  0.4247942E-02 -0.9620667E-02  0.7460813E+05  0.6446351E+05 -0.6068488E-02 -0.2325439E-01
  0.1690476E+01 -0.8141746E-02 -0.9288788E-02  0.7394770E+05  0.6314747E+05 -0.5163058E-02 -0.2252197E-01
  0.1721429E+01 -0.1030000E-01 -0.6690979E-02  0.7335808E+05  0.6177257E+05 -0.5814802E-02 -0.2111816E-01
  0.1752381E+01 -0.2890877E-02  0.3528595E-02  0.7285490E+05  0.6035326E+05 -0.4249241E-02 -0.2246094E-01
  0.1783333E+01 -0.7769148E-02 -0.9609222E-02  0.7241741E+05  0.5889268E+05 -0.6639712E-02 -0.2283478E-01
  0.1814286E+01 -0.1041202E-01  0.6027222E-03  0.7203014E+05  0.5741251E+05 -0.4104254E-02 -0.2046967E-01
  0.1845238E+01 -0.1207315E-02 -0.7354736E-02  0.7171711E+05  0.5588836E+05 -0.6383884E-02 -0.2225494E-01
  0.1876190E+01 -0.4001366E-02 -0.6107330E-02  0.7146740E+05  0.5436335E+05 -0.4684526E-02 -0.2011871E-01
  0.1907143E+01 -0.3824413E-02  0.3921509E-02  0.7127546E+05  0.5280867E+05 -0.5248567E-02 -0.2151489E-01
  0.1938095E+01  0.2724088E-02  0.9960175E-02  0.7112996E+05  0.5121813E+05 -0.4314451E-02 -0.1892853E-01
  0.1969048E+01 -0.1425876E-02  0.5359650E-02  0.7101752E+05  0.4962027E+05 -0.2758760E-02 -0.1980591E-01
  0.2000000E+01 -0.4943848E-02 -0.3625870E-02  0.7094445E+05  0.4799869E+05 -0.4180908E-02 -0.2089691E-01
Zone t="Motion of body    1 in DoF   3",I=    64,F=POINT
  0.5000000E-01  0.2008445E+04  0.3390663E-03 -0.3143787E-01 -0.1197153E-03  0.4369100E+04  0.8114833E-05
  0.8095238E-01  0.2001490E+04  0.1486437E-02 -0.2816172E-01 -0.1847534E-03  0.4364797E+04  0.3918821E-04
  0.1119048E+00  0.1975971E+04  0.4184941E-02 -0.3655596E-01 -0.3249609E-03  0.4308465E+04  0.1204690E-03
  0.1428571E+00  0.2013899E+04  0.9443130E-02 -0.3428984E-01 -0.4260037E-03  0.4354814E+04  0.2432579E-03
  0.1738095E+00  0.1999111E+04  0.1890825E-01 -0.3500089E-01 -0.5293358E-03  0.4328458E+04  0.5393274E-03
  0.2047619E+00  0.2028269E+04  0.3507841E-01 -0.3576012E-01 -0.7086492E-03  0.4324774E+04  0.9667733E-03
  0.2357143E+00  0.2026267E+04  0.6209787E-01 -0.2723289E-01 -0.6920602E-03  0.4336403E+04  0.1725831E-02
  0.2666667E+00  0.2045995E+04  0.1068023E+00 -0.1988053E-01 -0.6597791E-03  0.4321215E+04  0.2941520E-02
  0.2976190E+00  0.2073066E+04  0.1805149E+00 -0.3634369E-01 -0.1387227E-02  0.4336241E+04  0.4958627E-02
  0.3285715E+00  0.2090594E+04  0.3012619E+00 -0.3340762E-01 -0.1611475E-02  0.4331618E+04  0.8414125E-02
  0.3595238E+00  0.2123307E+04  0.4996027E+00 -0.3834074E-01 -0.2220998E-02  0.4344527E+04  0.1416510E-01
  0.3904762E+00  0.2181716E+04  0.8238443E+00 -0.3578023E-01 -0.2482701E-02  0.4339257E+04  0.2367116E-01
  0.4214286E+00  0.2168254E+04  0.1339403E+01 -0.4256620E-01 -0.3603731E-02  0.4348255E+04  0.3871085E-01
  0.4523810E+00  0.2213221E+04  0.2159458E+01 -0.3258735E-01 -0.3590831E-02  0.4337243E+04  0.6349564E-01
  0.4833333E+00  0.2264363E+04  0.3404836E+01 -0.3306948E-01 -0.4297906E-02  0.4353956E+04  0.1014115E+00
  0.5142857E+00  0.2319475E+04  0.5276849E+01 -0.3387928E-01 -0.5155797E-02  0.4356554E+04  0.1595027E+00
  0.5452381E+00  0.2327143E+04  0.7988286E+01 -0.3235480E-01 -0.5546395E-02  0.4343970E+04  0.2445721E+00
  0.5761905E+00  0.2367108E+04  0.1181920E+02 -0.2951440E-01 -0.6119404E-02  0.4361372E+04  0.3668157E+00
  0.6071429E+00  0.2453467E+04  0.1716437E+02 -0.3997264E-01 -0.9385671E-02  0.4356713E+04  0.5426431E+00
  0.6380953E+00  0.2526555E+04  0.2443270E+02 -0.3401628E-01 -0.9241413E-02  0.4365958E+04  0.7847823E+00
  0.6690477E+00  0.2551550E+04  0.3417359E+02 -0.2777860E-01 -0.8379407E-02  0.4374982E+04  0.1113197E+01
  0.7000000E+00  0.2607765E+04  0.4704285E+02 -0.2667018E-01 -0.9495676E-02  0.4365911E+04  0.1557278E+01
  0.7309524E+00  0.2684875E+04  0.6381688E+02 -0.2993506E-01 -0.1166543E-01  0.4368309E+04  0.2147621E+01
  0.7619048E+00  0.2769568E+04  0.8547379E+02 -0.3393602E-01 -0.1419821E-01  0.4389122E+04  0.2930459E+01
  0.7928572E+00  0.2876964E+04  0.1130627E+03 -0.2564439E-01 -0.1226452E-01  0.4398311E+04  0.3958592E+01
  0.8238096E+00  0.2962664E+04  0.1479835E+03 -0.1949928E-01 -0.1105779E-01  0.4388018E+04  0.5275677E+01
  0.8547620E+00  0.3018909E+04  0.1918490E+03 -0.2825447E-01 -0.1512694E-01  0.4398423E+04  0.6950417E+01
  0.8857143E+00  0.3100856E+04  0.2456341E+03 -0.2628942E-01 -0.1598501E-01  0.4413793E+04  0.9052057E+01
  0.9166667E+00  0.3213481E+04  0.3110913E+03 -0.2413247E-01 -0.1656032E-01  0.4417127E+04  0.1171276E+02
  0.9476191E+00  0.3333318E+04  0.3905431E+03 -0.2203189E-01 -0.1558870E-01  0.4410093E+04  0.1497565E+02
  0.9785714E+00  0.3453450E+04  0.4864946E+03 -0.1855558E-01 -0.1401627E-01  0.4427270E+04  0.1911363E+02
  0.1009524E+01  0.3565907E+04  0.6008809E+03 -0.2232840E-01 -0.1918268E-01  0.4453110E+04  0.2412236E+02
  0.1040476E+01  0.3661378E+04  0.7357924E+03 -0.2004733E-01 -0.1818061E-01  0.4460670E+04  0.3020235E+02
  0.1071429E+01  0.3749157E+04  0.8943326E+03 -0.2095286E-01 -0.2207541E-01  0.4452390E+04  0.3742286E+02
  0.1102381E+01  0.3832626E+04  0.1076266E+04 -0.2706046E-01 -0.2933025E-01  0.4450078E+04  0.4595484E+02
  0.1133333E+01  0.3926942E+04  0.1284360E+04 -0.1937417E-01 -0.2329493E-01  0.4466305E+04  0.5567142E+02
  0.1164286E+01  0.4007147E+04  0.1518848E+04 -0.2290222E-01 -0.2862310E-01  0.4490312E+04  0.6758382E+02
  0.1195238E+01  0.4078356E+04  0.1781656E+04 -0.1705580E-01 -0.2293086E-01  0.4500703E+04  0.8109627E+02
  0.1226190E+01  0.4144106E+04  0.2073560E+04 -0.1593462E-01 -0.2853847E-01  0.4502939E+04  0.9664258E+02
  0.1257143E+01  0.4194868E+04  0.2394301E+04 -0.1754501E-01 -0.2375698E-01  0.4499475E+04  0.1133512E+03
  0.1288095E+01  0.4226947E+04  0.2737492E+04 -0.1670880E-01 -0.2374077E-01  0.4505386E+04  0.1318202E+03
  0.1319048E+01  0.4228188E+04  0.3108403E+04 -0.1613162E-01 -0.2799606E-01  0.4523999E+04  0.1539450E+03
  0.1350000E+01  0.4207625E+04  0.3499701E+04 -0.1416242E-01 -0.2467346E-01  0.4538835E+04  0.1782832E+03
  0.1380952E+01  0.4171432E+04  0.3907522E+04 -0.1511567E-01 -0.3003359E-01  0.4546707E+04  0.2042282E+03
  0.1411905E+01  0.3898252E+04  0.4173812E+04 -0.1545435E-01 -0.2921391E-01  0.4511757E+04  0.2217170E+03
  0.1442857E+01  0.3836074E+04  0.4590279E+04 -0.1185502E-01 -0.1917219E-01  0.4497833E+04  0.2457561E+03
  0.1473810E+01  0.3748575E+04  0.5014211E+04 -0.1259479E-01 -0.2235651E-01  0.4492146E+04  0.2732413E+03
  0.1504762E+01  0.3645334E+04  0.5447402E+04 -0.1200109E-01 -0.2212811E-01  0.4498785E+04  0.3049436E+03
  0.1535714E+01  0.3519993E+04  0.5875055E+04 -0.1049734E-01 -0.2364826E-01  0.4520452E+04  0.3410460E+03
  0.1566667E+01  0.3385668E+04  0.6294096E+04 -0.1090841E-01 -0.2006435E-01  0.4529172E+04  0.3771454E+03
  0.1597619E+01  0.3243186E+04  0.6697250E+04 -0.1086421E-01 -0.2952576E-01  0.4535023E+04  0.4113927E+03
  0.1628572E+01  0.3084335E+04  0.7092636E+04 -0.1316874E-01 -0.1752090E-01  0.4520980E+04  0.4420864E+03
  0.1659524E+01  0.2918755E+04  0.7473847E+04 -0.1133244E-01 -0.3354263E-01  0.4497355E+04  0.4667047E+03
  0.1690476E+01  0.2734849E+04  0.7840600E+04 -0.7762640E-02 -0.3157902E-01  0.4477075E+04  0.4942467E+03
  0.1721429E+01  0.2555196E+04  0.8194767E+04 -0.8008649E-02 -0.2706909E-01  0.4470944E+04  0.5279706E+03
  0.1752381E+01  0.2368261E+04  0.8539230E+04 -0.7192363E-02 -0.2329922E-01  0.4478258E+04  0.5704299E+03
  0.1783333E+01  0.2179966E+04  0.8847624E+04 -0.8808742E-02 -0.2764797E-01  0.4493825E+04  0.6210953E+03
  0.1814286E+01  0.1988798E+04  0.9140535E+04 -0.9095801E-02 -0.2498913E-01  0.4490585E+04  0.6621859E+03
  0.1845238E+01  0.1805703E+04  0.9406219E+04 -0.7314178E-02 -0.2086163E-01  0.4489209E+04  0.7005980E+03
  0.1876190E+01  0.1626851E+04  0.9661823E+04 -0.5859724E-02 -0.2676296E-01  0.4471262E+04  0.7247579E+03
  0.1907143E+01  0.1456448E+04  0.9902848E+04 -0.6096658E-02 -0.1969242E-01  0.4443142E+04  0.7333351E+03
  0.1938095E+01  0.1281258E+04  0.1012327E+05 -0.7125142E-02 -0.1862431E-01  0.4420573E+04  0.7433389E+03
  0.1969048E+01  0.1108162E+04  0.1033840E+05 -0.4095518E-02 -0.2920628E-01  0.4411802E+04  0.7679207E+03
  0.2000000E+01  0.9456458E+03  0.1054441E+05 -0.6843567E-02 -0.2078438E-01  0.4409602E+04  0.8096092E+03
