VARIABLES="w (rad/s)"
"A   1   1" "B   1   1"
"A   1   2" "B   1   2"
"A   1   3" "B   1   3"
Zone t="Motion of body    1 in DoF   1",I=    64,F=POINT
  0.5000000E-01  0.5628484E+05  0.5024116E-02 -0.7820129E-02 -0.8764349E-05  0.7877227E+05  0.1069780E-01
  0.8095238E-01  0.5648808E+05  0.2211952E-01 -0.6903480E-02 -0.2210267E-04  0.7860760E+05  0.4697775E-01
  0.1119048E+00  0.5651531E+05  0.6205077E-01  0.4090654E-02  0.2500741E-04  0.7856120E+05  0.1318534E+00
  0.1428571E+00  0.5657212E+05  0.1394394E+00 -0.9185791E-02 -0.6510469E-04  0.7862720E+05  0.2967245E+00
  0.1738095E+00  0.5662816E+05  0.2773149E+00 -0.1101768E-01 -0.8342462E-04  0.7883832E+05  0.5907351E+00
  0.2047619E+00  0.5669976E+05  0.5107392E+00 -0.2272850E-02 -0.1624646E-04  0.7899088E+05  0.1089327E+01
  0.2357143E+00  0.5675185E+05  0.8976834E+00  0.3657485E-02 -0.4299264E-04  0.7909160E+05  0.1917015E+01
  0.2666667E+00  0.5687222E+05  0.1528993E+01  0.7724761E-02  0.1475867E-03  0.7951580E+05  0.3272097E+01
  0.2976190E+00  0.5697382E+05  0.2558605E+01  0.8997803E-02  0.1700930E-03  0.7971570E+05  0.5485198E+01
  0.3285715E+00  0.5706184E+05  0.4221804E+01 -0.4643979E-04 -0.1695007E-04  0.7989772E+05  0.9069007E+01
  0.3595238E+00  0.5721035E+05  0.6912705E+01  0.2499814E-01  0.2603903E-03  0.8038766E+05  0.1488791E+02
  0.3904762E+00  0.5737119E+05  0.1123734E+02  0.1211399E-02  0.4231930E-04  0.8081492E+05  0.2426443E+02
  0.4214286E+00  0.5752496E+05  0.1800737E+02  0.5069021E-03 -0.1100004E-03  0.8112921E+05  0.3898306E+02
  0.4523810E+00  0.5769123E+05  0.2860342E+02 -0.1096223E-01 -0.4540086E-03  0.8155617E+05  0.6209528E+02
  0.4833333E+00  0.5793894E+05  0.4430622E+02 -0.1578495E-02 -0.7975698E-03  0.8234260E+05  0.9653253E+02
  0.5142857E+00  0.5817674E+05  0.6747337E+02  0.3471375E-02 -0.5251765E-03  0.8290148E+05  0.1474679E+03
  0.5452381E+00  0.5840838E+05  0.1002609E+03 -0.1119422E-02 -0.9894371E-04  0.8343155E+05  0.2198420E+03
  0.5761905E+00  0.5866099E+05  0.1454234E+03 -0.8659678E-02 -0.1191854E-02  0.8410562E+05  0.3200366E+03
  0.6071429E+00  0.5896858E+05  0.2069680E+03 -0.1940200E-01 -0.3656387E-02  0.8495970E+05  0.4572196E+03
  0.6380953E+00  0.5930508E+05  0.2879148E+03  0.4639127E-02 -0.1226902E-02  0.8582343E+05  0.6385670E+03
  0.6690477E+00  0.5963941E+05  0.3934231E+03 -0.9305146E-02 -0.9140968E-03  0.8661674E+05  0.8760068E+03
  0.7000000E+00  0.5997312E+05  0.5291627E+03  0.1351493E-01  0.1816750E-03  0.8743088E+05  0.1182974E+04
  0.7309524E+00  0.6035089E+05  0.7001734E+03 -0.4175043E-04 -0.1764297E-03  0.8842382E+05  0.1571988E+04
  0.7619048E+00  0.6076364E+05  0.9135361E+03 -0.3204345E-02  0.5578995E-03  0.8957227E+05  0.2060422E+04
  0.7928572E+00  0.6119330E+05  0.1176608E+04 -0.4272460E-02 -0.2416611E-02  0.9069925E+05  0.2666007E+04
  0.8238096E+00  0.6161448E+05  0.1496943E+04 -0.9483381E-02  0.8831024E-03  0.9175928E+05  0.3407639E+04
  0.8547620E+00  0.6202734E+05  0.1882145E+04 -0.1474534E-01 -0.3562927E-02  0.9282866E+05  0.4304872E+04
  0.8857143E+00  0.6244280E+05  0.2340167E+04 -0.1033660E-02 -0.1792908E-02  0.9393345E+05  0.5378087E+04
  0.9166667E+00  0.6286071E+05  0.2878699E+04 -0.6125710E-02 -0.1937866E-02  0.9507805E+05  0.6647974E+04
  0.9476191E+00  0.6326666E+05  0.3505167E+04  0.4250991E-02  0.3261566E-02  0.9625194E+05  0.8135759E+04
  0.9785714E+00  0.6366410E+05  0.4226663E+04 -0.3804673E-02 -0.2864838E-02  0.9741972E+05  0.9861794E+04
  0.1009524E+01  0.6403211E+05  0.5049414E+04  0.2720671E-02  0.7308960E-02  0.9848721E+05  0.1184469E+05
  0.1040476E+01  0.6434543E+05  0.5978032E+04 -0.3519647E-03  0.4821777E-02  0.9940204E+05  0.1409960E+05
  0.1071429E+01  0.6460062E+05  0.7015021E+04 -0.2278646E-03  0.1983643E-02  0.1001778E+06  0.1663629E+05
  0.1102381E+01  0.6479868E+05  0.8160333E+04  0.1118407E-01  0.1747131E-02  0.1008303E+06  0.1945878E+05
  0.1133333E+01  0.6492377E+05  0.9412062E+04  0.1777200E-02 -0.5798340E-03  0.1013406E+06  0.2256870E+05
  0.1164286E+01  0.6498351E+05  0.1076592E+05  0.8440075E-02  0.2410889E-02  0.1017077E+06  0.2596096E+05
  0.1195238E+01  0.6495868E+05  0.1221534E+05 -0.1067264E-01 -0.8850098E-03  0.1018903E+06  0.2962582E+05
  0.1226190E+01  0.6485836E+05  0.1375106E+05 -0.5823821E-02 -0.6103516E-02  0.1018755E+06  0.3354248E+05
  0.1257143E+01  0.6467425E+05  0.1537818E+05 -0.4855069E-04  0.4928589E-02  0.1016544E+06  0.3772856E+05
  0.1288095E+01  0.6440429E+05  0.1703144E+05  0.7581447E-03 -0.4348755E-02  0.1012392E+06  0.4202927E+05
  0.1319048E+01  0.6404725E+05  0.1874755E+05 -0.9994782E-02 -0.4089355E-02  0.1006015E+06  0.4653402E+05
  0.1350000E+01  0.6361164E+05  0.2049137E+05  0.1220703E-02  0.1617432E-02  0.9974358E+05  0.5115796E+05
  0.1380952E+01  0.6308931E+05  0.2224604E+05 -0.3801017E-02 -0.4608154E-02  0.9867486E+05  0.5586251E+05
  0.1411905E+01  0.6231012E+05  0.2394638E+05  0.1340097E-02 -0.9368896E-02  0.9677959E+05  0.6051656E+05
  0.1442857E+01  0.6164538E+05  0.2569073E+05 -0.9433256E-02 -0.3051758E-03  0.9530993E+05  0.6530611E+05
  0.1473810E+01  0.6092619E+05  0.2739904E+05 -0.4928170E-02 -0.7568359E-02  0.9367691E+05  0.7005651E+05
  0.1504762E+01  0.6014993E+05  0.2906132E+05 -0.7382163E-02  0.2227783E-02  0.9187459E+05  0.7473641E+05
  0.1535714E+01  0.5932679E+05  0.3066355E+05  0.7471838E-02  0.5889893E-02  0.8993842E+05  0.7931301E+05
  0.1566667E+01  0.5846800E+05  0.3219760E+05  0.5142536E-02  0.1025391E-01  0.8786687E+05  0.8375624E+05
  0.1597619E+01  0.5758027E+05  0.3365074E+05 -0.1833784E-02  0.2685547E-02  0.8571156E+05  0.8804255E+05
  0.1628572E+01  0.5668094E+05  0.3502191E+05  0.8619877E-03  0.9948730E-02  0.8346420E+05  0.9214444E+05
  0.1659524E+01  0.5575679E+05  0.3630601E+05  0.3824987E-02  0.2441406E-03  0.8116077E+05  0.9605802E+05
  0.1690476E+01  0.5483998E+05  0.3749450E+05 -0.4946426E-02 -0.1159668E-02  0.7882139E+05  0.9974804E+05
  0.1721429E+01  0.5392091E+05  0.3858737E+05 -0.2694664E-02  0.5615234E-02  0.7646264E+05  0.1032133E+06
  0.1752381E+01  0.5300690E+05  0.3959132E+05 -0.1288704E-02  0.3051758E-02  0.7408734E+05  0.1064634E+06
  0.1783333E+01  0.5211285E+05  0.4049930E+05 -0.6057882E-02 -0.1586914E-02  0.7172317E+05  0.1094654E+06
  0.1814286E+01  0.5123346E+05  0.4131805E+05  0.6391871E-02 -0.4943848E-02  0.6937383E+05  0.1122526E+06
  0.1845238E+01  0.5037553E+05  0.4204293E+05 -0.2315398E-02  0.1525879E-02  0.6707054E+05  0.1148098E+06
  0.1876190E+01  0.4954888E+05  0.4269389E+05 -0.6538817E-02  0.5493164E-02  0.6478135E+05  0.1171430E+06
  0.1907143E+01  0.4873129E+05  0.4326202E+05  0.1046513E-01  0.8117676E-02  0.6255123E+05  0.1192793E+06
  0.1938095E+01  0.4795303E+05  0.4375834E+05 -0.1952525E-02  0.1220703E-02  0.6035961E+05  0.1211894E+06
  0.1969048E+01  0.4720029E+05  0.4417175E+05 -0.4711589E-02 -0.8361816E-02  0.5824130E+05  0.1228975E+06
  0.2000000E+01  0.4647762E+05  0.4452462E+05 -0.9460449E-03 -0.5004883E-02  0.5616576E+05  0.1243902E+06
Zone t="Motion of body    1 in DoF   2",I=    64,F=POINT
  0.5000000E-01 -0.5378723E-02 -0.1943111E-04  0.1427436E+06  0.3733051E+03 -0.1068115E-01  0.3051758E-04
  0.8095238E-01 -0.1107384E-01  0.5245209E-04  0.1410060E+06  0.6189725E+03 -0.2638873E-02 -0.5149841E-04
  0.1119048E+00  0.5454205E-02 -0.6198883E-04  0.1401407E+06  0.8863968E+03 -0.1772617E-01  0.2479553E-04
  0.1428571E+00  0.8918762E-02 -0.8583069E-05  0.1396572E+06  0.1185627E+04 -0.3845215E-02 -0.3814697E-05
  0.1738095E+00 -0.1066652E-01 -0.1525879E-04  0.1395453E+06  0.1529566E+04  0.1053483E-02  0.4959106E-04
  0.2047619E+00 -0.1028371E-01  0.4577637E-04  0.1396679E+06  0.1933936E+04 -0.6557730E-02  0.3051758E-04
  0.2357143E+00 -0.7573908E-02  0.3337860E-04  0.1400291E+06  0.2421101E+04 -0.1035748E-01 -0.6866455E-04
  0.2666667E+00  0.1430511E-02  0.1182556E-03  0.1405495E+06  0.3010172E+04 -0.3662109E-02 -0.6866455E-04
  0.2976190E+00 -0.4614258E-03  0.3318787E-03  0.1411473E+06  0.3742532E+04  0.4101563E-03  0.1983643E-03
  0.3285715E+00  0.1221366E-01 -0.4005432E-03  0.1418894E+06  0.4640896E+04  0.5944293E-02  0.2441406E-03
  0.3595238E+00  0.8488332E-03  0.3433228E-04  0.1425475E+06  0.5754695E+04  0.1256273E-01 -0.9765625E-03
  0.3904762E+00 -0.5939762E-02 -0.1144409E-04  0.1431738E+06  0.7122185E+04  0.5939762E-02 -0.7019043E-03
  0.4214286E+00  0.6227654E-02  0.6103516E-03  0.1434646E+06  0.8726886E+04 -0.1651053E-01  0.3051758E-04
  0.4523810E+00 -0.4587274E-02 -0.9536743E-04  0.1436025E+06  0.1065055E+05  0.1349198E-02 -0.1525879E-02
  0.4833333E+00  0.2841292E-02 -0.2288818E-04  0.1432638E+06  0.1273484E+05 -0.1666891E-01  0.1892090E-02
  0.5142857E+00  0.7714166E-02 -0.1281738E-02  0.1425302E+06  0.1507638E+05 -0.7358128E-02  0.1892090E-02
  0.5452381E+00 -0.3358266E-02  0.1312256E-02  0.1415587E+06  0.1754548E+05  0.2238844E-03 -0.2075195E-02
  0.5761905E+00  0.1700157E-01  0.1907349E-03  0.1402712E+06  0.2010016E+05  0.2330433E-02 -0.1220703E-03
  0.6071429E+00 -0.1201315E-01 -0.8392334E-03  0.1386245E+06  0.2279919E+05 -0.7238050E-02  0.3173828E-02
  0.6380953E+00 -0.4304345E-02  0.2593994E-03  0.1368941E+06  0.2548361E+05  0.6886952E-02 -0.2319336E-02
  0.6690477E+00 -0.8347264E-02 -0.1220703E-03  0.1349916E+06  0.2821146E+05 -0.6933246E-02 -0.1770020E-02
  0.7000000E+00 -0.6931849E-02 -0.5645752E-03  0.1328994E+06  0.3099217E+05 -0.3313337E-01  0.3051758E-03
  0.7309524E+00 -0.8099583E-02  0.2716064E-02  0.1307562E+06  0.3374348E+05  0.1302613E-01 -0.2685547E-02
  0.7619048E+00 -0.5928039E-02  0.1129150E-02  0.1284727E+06  0.3648229E+05  0.1762390E-01  0.2685547E-02
  0.7928572E+00  0.1377965E-01  0.7934570E-03  0.1260636E+06  0.3919678E+05 -0.7082277E-02  0.7324219E-03
  0.8238096E+00  0.7149580E-02  0.5737305E-02  0.1236080E+06  0.4185845E+05 -0.3556268E-02  0.1220703E-02
  0.8547620E+00 -0.1246035E-01  0.3509521E-02  0.1211562E+06  0.4443982E+05  0.2570617E-02 -0.1220703E-03
  0.8857143E+00 -0.9302939E-03 -0.1464844E-02  0.1186768E+06  0.4693600E+05  0.1157699E-01 -0.1708984E-02
  0.9166667E+00  0.3595525E-02  0.2105713E-02  0.1161660E+06  0.4933820E+05 -0.1331676E-02  0.1220703E-03
  0.9476191E+00  0.2962812E-02  0.3173828E-02  0.1136159E+06  0.5163922E+05 -0.6183260E-02 -0.5371094E-02
  0.9785714E+00 -0.5270408E-02  0.3356934E-03  0.1110684E+06  0.5381730E+05 -0.1496921E-01  0.3540039E-02
  0.1009524E+01  0.7557420E-03 -0.5371094E-02  0.1085477E+06  0.5585855E+05  0.1257555E-01  0.3173828E-02
  0.1040476E+01  0.8799118E-04  0.4699707E-02  0.1060760E+06  0.5774938E+05 -0.2792254E-01  0.1464844E-02
  0.1071429E+01  0.2315674E-01  0.4760742E-02  0.1036465E+06  0.5948509E+05  0.1914063E-01  0.4882812E-02
  0.1102381E+01  0.5924233E-02 -0.5798340E-03  0.1012857E+06  0.6105956E+05  0.5979599E-02  0.2929688E-02
  0.1133333E+01 -0.6543328E-02 -0.4089355E-02  0.9899164E+05  0.6248460E+05 -0.6677964E-02  0.1953125E-02
  0.1164286E+01  0.4744266E-02  0.1495361E-02  0.9677980E+05  0.6374039E+05  0.6710122E-02  0.9765625E-02
  0.1195238E+01 -0.2885188E-02  0.5187988E-03  0.9462762E+05  0.6483914E+05  0.9396009E-02  0.2685547E-02
  0.1226190E+01 -0.1017924E-01 -0.3051758E-02  0.9254766E+05  0.6577567E+05 -0.6769569E-02  0.1953125E-02
  0.1257143E+01  0.1218622E-01  0.2746582E-03  0.9054902E+05  0.6661126E+05  0.7379705E-02 -0.1489258E-01
  0.1288095E+01  0.3506419E-02 -0.8239746E-03  0.8863041E+05  0.6716625E+05  0.3790723E-03 -0.6103516E-02
  0.1319048E+01  0.1050378E-01  0.6164551E-02  0.8680208E+05  0.6761666E+05  0.4997391E-02  0.9521484E-02
  0.1350000E+01  0.2124928E-02 -0.1129150E-02  0.8507135E+05  0.6789238E+05  0.5967882E-02  0.2685547E-02
  0.1380952E+01  0.3756819E-03 -0.3051758E-02  0.8343863E+05  0.6800005E+05  0.4419787E-02 -0.0000000E+00
  0.1411905E+01  0.3674460E-03  0.6927490E-02  0.8187462E+05  0.6783391E+05 -0.3804147E-02 -0.1025391E-01
  0.1442857E+01 -0.4335913E-02  0.2014160E-02  0.8046225E+05  0.6768160E+05 -0.7445080E-02  0.2441406E-02
  0.1473810E+01 -0.8986662E-02  0.8544922E-03  0.7918435E+05  0.6736377E+05 -0.5135235E-02 -0.9765625E-03
  0.1504762E+01 -0.4786238E-02  0.7324219E-03  0.7802277E+05  0.6691666E+05 -0.8923494E-02  0.4150391E-02
  0.1535714E+01  0.1172443E-02 -0.2136230E-02  0.7697323E+05  0.6633779E+05  0.1367187E-01  0.1562500E-01
  0.1566667E+01  0.2337517E-02  0.2136230E-02  0.7605160E+05  0.6564412E+05  0.1511594E-01  0.7568359E-02
  0.1597619E+01 -0.1929293E-02  0.3845215E-02  0.7525394E+05  0.6484692E+05  0.3056306E-02  0.1953125E-01
  0.1628572E+01 -0.3672817E-02  0.3845215E-02  0.7459111E+05  0.6399806E+05  0.1094350E-01  0.4394531E-02
  0.1659524E+01  0.3438810E-02 -0.5065918E-02  0.7403445E+05  0.6311646E+05  0.6914399E-02 -0.1196289E-01
  0.1690476E+01  0.4910321E-02  0.5126953E-02  0.7361847E+05  0.6217804E+05 -0.5776848E-03 -0.6347656E-02
  0.1721429E+01  0.1630981E-02 -0.3112793E-02  0.7332777E+05  0.6123993E+05  0.2836489E-03  0.7080078E-02
  0.1752381E+01  0.8359163E-02  0.7446289E-02  0.7314238E+05  0.6033689E+05  0.1434990E-01  0.1562500E-01
  0.1783333E+01  0.3319856E-02 -0.3112793E-02  0.7306532E+05  0.5948097E+05  0.2190421E-02  0.1489258E-01
  0.1814286E+01 -0.6795568E-02 -0.5615234E-02  0.7307871E+05  0.5876475E+05  0.4036971E-03 -0.2929688E-02
  0.1845238E+01 -0.1620779E-02  0.5493164E-03  0.7316398E+05  0.5815853E+05 -0.5027722E-02 -0.1269531E-01
  0.1876190E+01  0.7221977E-02 -0.7324219E-03  0.7330827E+05  0.5769657E+05  0.1340295E-01  0.9521484E-02
  0.1907143E+01  0.2336252E-02  0.3601074E-02  0.7346427E+05  0.5741490E+05  0.1420953E-01 -0.9277344E-02
  0.1938095E+01 -0.5101759E-02 -0.6225586E-02  0.7365148E+05  0.5728955E+05 -0.1083337E-01 -0.1074219E-01
  0.1969048E+01 -0.5982479E-02 -0.6713867E-03  0.7382715E+05  0.5735039E+05 -0.5951481E-02 -0.1171875E-01
  0.2000000E+01  0.5218506E-02 -0.2868652E-02  0.7396935E+05  0.5757874E+05 -0.5249023E-02 -0.5615234E-02
Zone t="Motion of body    1 in DoF   3",I=    64,F=POINT
  0.5000000E-01  0.7851402E+05  0.1060002E-01 -0.9460449E-02 -0.2208928E-04  0.3383318E+06  0.2274611E-01
  0.8095238E-01  0.7834767E+05  0.4661925E-01  0.1413682E-02 -0.5621114E-06  0.3376646E+06  0.9916428E-01
  0.1119048E+00  0.7833648E+05  0.1307820E+00  0.3681589E-01  0.1997834E-03  0.3376839E+06  0.2779620E+00
  0.1428571E+00  0.7836217E+05  0.2944961E+00  0.2777099E-02  0.2828171E-04  0.3372414E+06  0.6262214E+00
  0.1738095E+00  0.7862652E+05  0.5862159E+00  0.1843596E-02  0.5323719E-04  0.3385357E+06  0.1248489E+01
  0.2047619E+00  0.7873713E+05  0.1081009E+01  0.1445682E-01  0.2663052E-03  0.3384100E+06  0.2305882E+01
  0.2357143E+00  0.7884830E+05  0.1902755E+01 -0.2874201E-01 -0.3403630E-03  0.3386930E+06  0.4064325E+01
  0.2666667E+00  0.7930593E+05  0.3245901E+01 -0.2975464E-02 -0.3332794E-03  0.3405010E+06  0.6946485E+01
  0.2976190E+00  0.7945006E+05  0.5441240E+01 -0.6562500E-02 -0.5037412E-03  0.3402647E+06  0.1166340E+02
  0.3285715E+00  0.7962491E+05  0.8997346E+01  0.3222921E-01  0.1139365E-02  0.3405726E+06  0.1932581E+02
  0.3595238E+00  0.8015192E+05  0.1476256E+02  0.1663713E-01  0.3809631E-03  0.3425247E+06  0.3179222E+02
  0.3904762E+00  0.8054212E+05  0.2405816E+02  0.7502858E-02  0.5584955E-03  0.3433216E+06  0.5194682E+02
  0.4214286E+00  0.8081117E+05  0.3865301E+02 -0.1607604E-01 -0.8681417E-04  0.3434785E+06  0.8367166E+02
  0.4523810E+00  0.8126193E+05  0.6155600E+02 -0.5531712E-02  0.1680255E-03  0.3449013E+06  0.1336262E+03
  0.4833333E+00  0.8208108E+05  0.9562269E+02 -0.1868938E-01 -0.5292892E-04  0.3477446E+06  0.2083296E+03
  0.5142857E+00  0.8258126E+05  0.1460710E+03 -0.1281738E-01  0.5447865E-04  0.3484910E+06  0.3192473E+03
  0.5452381E+00  0.8308828E+05  0.2177564E+03  0.1757493E-01  0.2175570E-02  0.3495372E+06  0.4774736E+03
  0.5761905E+00  0.8379745E+05  0.3168766E+03 -0.7944658E-02 -0.1424789E-02  0.3517803E+06  0.6973210E+03
  0.6071429E+00  0.8465727E+05  0.4524729E+03 -0.8343864E-02 -0.2957344E-02  0.3543324E+06  0.9996201E+03
  0.6380953E+00  0.8548035E+05  0.6318172E+03  0.2180868E-01  0.6074905E-02  0.3562303E+06  0.1401342E+04
  0.6690477E+00  0.8623330E+05  0.8667763E+03  0.2828035E-02 -0.3475189E-02  0.3577571E+06  0.1930083E+04
  0.7000000E+00  0.8704511E+05  0.1170318E+04  0.1831055E-02  0.1781464E-02  0.3598570E+06  0.2616368E+04
  0.7309524E+00  0.8805994E+05  0.1554464E+04 -0.2271223E-01  0.1115799E-02  0.3628568E+06  0.3489708E+04
  0.7619048E+00  0.8921112E+05  0.2036232E+04  0.3204345E-03 -0.1497269E-02  0.3662394E+06  0.4592150E+04
  0.7928572E+00  0.9030599E+05  0.2634151E+04  0.0000000E+00 -0.5054474E-02  0.3690026E+06  0.5968590E+04
  0.8238096E+00  0.9131041E+05  0.3367069E+04 -0.6668002E-02 -0.2555847E-02  0.3712057E+06  0.7665642E+04
  0.8547620E+00  0.9235729E+05  0.4252928E+04  0.1428121E-02 -0.2109528E-02  0.3738556E+06  0.9728058E+04
  0.8857143E+00  0.9346806E+05  0.5311113E+04 -0.1447124E-01 -0.1403809E-02  0.3770263E+06  0.1220491E+05
  0.9166667E+00  0.9461998E+05  0.6562002E+04  0.1464844E-01  0.5561829E-02  0.3804139E+06  0.1515097E+05
  0.9476191E+00  0.9578517E+05  0.8025994E+04 -0.1133598E-01  0.1403809E-02  0.3838952E+06  0.1862432E+05
  0.9785714E+00  0.9693265E+05  0.9724693E+04  0.2282804E-01  0.1350403E-01  0.3872421E+06  0.2268688E+05
  0.1009524E+01  0.9796282E+05  0.1167881E+05 -0.1354290E-01 -0.1733398E-01  0.3900408E+06  0.2739936E+05
  0.1040476E+01  0.9884152E+05  0.1390248E+05 -0.5866079E-02 -0.1342773E-02  0.3923402E+06  0.3280312E+05
  0.1071429E+01  0.9959309E+05  0.1640203E+05 -0.1560872E-01 -0.5020142E-02  0.3944766E+06  0.3891728E+05
  0.1102381E+01  0.1002454E+06  0.1917972E+05  0.2380767E-01  0.9277344E-02  0.3965962E+06  0.4575799E+05
  0.1133333E+01  0.1007656E+06  0.2223519E+05  0.1184800E-02 -0.1040649E-01  0.3985694E+06  0.5334286E+05
  0.1164286E+01  0.1011454E+06  0.2556603E+05 -0.2830833E-02 -0.5798340E-02  0.4002455E+06  0.6168122E+05
  0.1195238E+01  0.1013397E+06  0.2916177E+05  0.2788164E-01  0.1721191E-01  0.4014509E+06  0.7076000E+05
  0.1226190E+01  0.1013360E+06  0.3300437E+05 -0.3982100E-03 -0.5798340E-02  0.4021388E+06  0.8053583E+05
  0.1257143E+01  0.1011102E+06  0.3711216E+05 -0.7573908E-02  0.4821777E-02  0.4022147E+06  0.9107202E+05
  0.1288095E+01  0.1007134E+06  0.4132641E+05  0.9666344E-02 -0.1342773E-01  0.4018741E+06  0.1019919E+06
  0.1319048E+01  0.1000851E+06  0.4573848E+05  0.9994782E-02  0.1074219E-01  0.4010078E+06  0.1135345E+06
  0.1350000E+01  0.9925007E+05  0.5026700E+05  0.1754196E-01 -0.3295898E-02  0.3996096E+06  0.1254907E+06
  0.1380952E+01  0.9821146E+05  0.5486777E+05  0.7425243E-02 -0.1770020E-02  0.3976968E+06  0.1377644E+06
  0.1411905E+01  0.9502648E+05  0.5845368E+05 -0.3285400E-01 -0.1007080E-01  0.3888911E+06  0.1477006E+06
  0.1442857E+01  0.9361282E+05  0.6305746E+05 -0.3214921E-02 -0.8117676E-02  0.3859680E+06  0.1602800E+06
  0.1473810E+01  0.9205823E+05  0.6762528E+05 -0.1590266E-01  0.1281738E-01  0.3826275E+06  0.1728892E+06
  0.1504762E+01  0.9034020E+05  0.7211727E+05 -0.3893888E-01  0.1220703E-02  0.3789010E+06  0.1854466E+06
  0.1535714E+01  0.8850039E+05  0.7650670E+05 -0.1637445E-01 -0.5615234E-02  0.3747953E+06  0.1978648E+06
  0.1566667E+01  0.8653048E+05  0.8076852E+05 -0.1558344E-02  0.2294922E-01  0.3703049E+06  0.2101003E+06
  0.1597619E+01  0.8448255E+05  0.8488108E+05 -0.1084989E-01  0.1330566E-01  0.3654915E+06  0.2220671E+06
  0.1628572E+01  0.8235430E+05  0.8882659E+05  0.1798931E-02 -0.7324219E-02  0.3604142E+06  0.2337124E+06
  0.1659524E+01  0.8016426E+05  0.9257516E+05  0.3972101E-02 -0.7202148E-02  0.3551587E+06  0.2449715E+06
  0.1690476E+01  0.7796207E+05  0.9612661E+05  0.1299791E-02 -0.1354980E-01  0.3497593E+06  0.2557848E+06
  0.1721429E+01  0.7574833E+05  0.9945846E+05  0.1389879E-01  0.3540039E-02  0.3443076E+06  0.2661016E+06
  0.1752381E+01  0.7351435E+05  0.1025807E+06 -0.4179582E-03  0.1062012E-01  0.3387499E+06  0.2759625E+06
  0.1783333E+01  0.7130427E+05  0.1054878E+06  0.6023657E-02 -0.3393555E-01  0.3331614E+06  0.2853086E+06
  0.1814286E+01  0.6910288E+05  0.1081879E+06  0.4036971E-03  0.5737305E-02  0.3275496E+06  0.2942016E+06
  0.1845238E+01  0.6695030E+05  0.1106866E+06  0.1323085E-02  0.1196289E-01  0.3219413E+06  0.3025893E+06
  0.1876190E+01  0.6482339E+05  0.1129987E+06  0.6246035E-02  0.5859375E-02  0.3163562E+06  0.3105122E+06
  0.1907143E+01  0.6273498E+05  0.1151053E+06  0.1024111E-02 -0.1184082E-01  0.3108425E+06  0.3179418E+06
  0.1938095E+01  0.6070123E+05  0.1170350E+06  0.1385663E-02 -0.4882812E-01  0.3054084E+06  0.3249083E+06
  0.1969048E+01  0.5874190E+05  0.1187916E+06  0.7315363E-02 -0.5859375E-02  0.3000683E+06  0.3313667E+06
  0.2000000E+01  0.5682371E+05  0.1203570E+06 -0.3662109E-03  0.1953125E-02  0.2948668E+06  0.3373663E+06
