VARIABLES="w (rad/s)"
"A   1   1" "B   1   1"
"A   1   2" "B   1   2"
"A   1   3" "B   1   3"
Zone t="Motion of body    1 in DoF   1",I=    64,F=POINT
  0.5000000E-01  0.1058005E+05  0.1677061E-03  0.3051758E-03 -0.9431018E-06  0.1085628E+03  0.2123815E-05
  0.8095238E-01  0.1059620E+05  0.6924509E-03  0.2070455E-02  0.2277574E-05  0.1082941E+03  0.9199898E-05
  0.1119048E+00  0.1063547E+05  0.1963630E-02 -0.1218674E-02 -0.5523862E-05  0.1086280E+03  0.2560364E-04
  0.1428571E+00  0.1064573E+05  0.4416593E-02  0.6575584E-03  0.4136950E-05  0.1077636E+03  0.5734193E-04
  0.1738095E+00  0.1066926E+05  0.8822602E-02  0.1190656E-02  0.7655606E-05  0.1089330E+03  0.1159245E-03
  0.2047619E+00  0.1066334E+05  0.1631862E-01 -0.4680766E-03 -0.1054911E-04  0.1079989E+03  0.2137801E-03
  0.2357143E+00  0.1070842E+05  0.2881857E-01  0.2002716E-03  0.7967559E-05  0.1091959E+03  0.3788324E-03
  0.2666667E+00  0.1070293E+05  0.4926402E-01  0.2045631E-02  0.2321594E-04  0.1097608E+03  0.6503534E-03
  0.2976190E+00  0.1071403E+05  0.8285878E-01  0.3620911E-03  0.5545167E-05  0.1092926E+03  0.1095296E-02
  0.3285715E+00  0.1075135E+05  0.1376361E+00  0.6385471E-04 -0.1247216E-05  0.1099701E+03  0.1829768E-02
  0.3595238E+00  0.1077447E+05  0.2267888E+00  0.6764140E-03  0.1600519E-04  0.1111849E+03  0.3029345E-02
  0.3904762E+00  0.1076871E+05  0.3708238E+00 -0.9232032E-03 -0.3205170E-04  0.1106037E+03  0.4971471E-02
  0.4214286E+00  0.1080731E+05  0.5994324E+00  0.2308215E-03  0.4048820E-04  0.1113747E+03  0.8079501E-02
  0.4523810E+00  0.1085728E+05  0.9608920E+00  0.9781686E-03  0.3535929E-04  0.1130066E+03  0.1304464E-01
  0.4833333E+00  0.1086758E+05  0.1501128E+01  0.3946238E-03  0.7745810E-04  0.1142233E+03  0.2054675E-01
  0.5142857E+00  0.1088771E+05  0.2307289E+01 -0.7083681E-03 -0.8486817E-04  0.1143943E+03  0.3173942E-01
  0.5452381E+00  0.1094115E+05  0.3466926E+01 -0.7223771E-03  0.2394523E-04  0.1163836E+03  0.4814060E-01
  0.5761905E+00  0.1100131E+05  0.5089402E+01 -0.7712939E-03 -0.2275035E-04  0.1194544E+03  0.7150249E-01
  0.6071429E+00  0.1102496E+05  0.7326692E+01 -0.1099530E-02 -0.5812570E-04  0.1185047E+03  0.1032879E+00
  0.6380953E+00  0.1103919E+05  0.1031419E+02 -0.8519016E-03 -0.1409017E-03  0.1187642E+03  0.1464560E+00
  0.6690477E+00  0.1109987E+05  0.1429454E+02  0.1576515E-02  0.1936667E-03  0.1212260E+03  0.2051642E+00
  0.7000000E+00  0.1117142E+05  0.1952436E+02  0.1247951E-02  0.3972091E-03  0.1232916E+03  0.2829232E+00
  0.7309524E+00  0.1123238E+05  0.2625462E+02  0.1265560E-02  0.1258776E-03  0.1256393E+03  0.3846515E+00
  0.7619048E+00  0.1127539E+05  0.3483163E+02 -0.3104210E-03  0.8847564E-04  0.1263336E+03  0.5145500E+00
  0.7928572E+00  0.1131325E+05  0.4565382E+02 -0.6038218E-03  0.4372746E-04  0.1263643E+03  0.6790593E+00
  0.8238096E+00  0.1137672E+05  0.5921736E+02 -0.4306418E-03 -0.6259978E-04  0.1281520E+03  0.8897037E+00
  0.8547620E+00  0.1145725E+05  0.7605002E+02  0.1758373E-02  0.3824979E-03  0.1310749E+03  0.1156845E+01
  0.8857143E+00  0.1154965E+05  0.9676817E+02  0.2898555E-02  0.8774251E-03  0.1344841E+03  0.1491351E+01
  0.9166667E+00  0.1163809E+05  0.1220204E+03  0.1506459E-02  0.2589226E-03  0.1371044E+03  0.1902224E+01
  0.9476191E+00  0.1171030E+05  0.1525079E+03  0.2230160E-02  0.2858937E-03  0.1381137E+03  0.2399001E+01
  0.9785714E+00  0.1176865E+05  0.1890405E+03  0.8654072E-03  0.3355443E-03  0.1392484E+03  0.3003762E+01
  0.1009524E+01  0.1184880E+05  0.2326876E+03  0.2293677E-02  0.8035302E-03  0.1420095E+03  0.3744166E+01
  0.1040476E+01  0.1194789E+05  0.2844971E+03  0.1228210E-02  0.3359914E-03  0.1449583E+03  0.4633136E+01
  0.1071429E+01  0.1205710E+05  0.3455960E+03  0.5447388E-03  0.3197193E-03  0.1478518E+03  0.5694967E+01
  0.1102381E+01  0.1216895E+05  0.4171937E+03 -0.2494960E-02 -0.1652539E-02  0.1514259E+03  0.6966047E+01
  0.1133333E+01  0.1228193E+05  0.5006223E+03 -0.1248752E-02 -0.8989573E-03  0.1554404E+03  0.8479199E+01
  0.1164286E+01  0.1239533E+05  0.5973127E+03  0.2424556E-03  0.5854368E-03  0.1595579E+03  0.1026505E+02
  0.1195238E+01  0.1249849E+05  0.7085755E+03  0.6798064E-03  0.6734133E-03  0.1618567E+03  0.1231885E+02
  0.1226190E+01  0.1259221E+05  0.8359506E+03  0.2426592E-02  0.2849221E-02  0.1637243E+03  0.1469340E+02
  0.1257143E+01  0.1268091E+05  0.9809440E+03  0.1699274E-03  0.5197525E-03  0.1659351E+03  0.1744303E+02
  0.1288095E+01  0.1280196E+05  0.1145961E+04  0.1531097E-02  0.5686283E-03  0.1703401E+03  0.2066788E+02
  0.1319048E+01  0.1292049E+05  0.1332084E+04  0.9543628E-04 -0.4494190E-03  0.1748460E+03  0.2437489E+02
  0.1350000E+01  0.1304622E+05  0.1541407E+04  0.8335820E-03  0.6546974E-03  0.1797791E+03  0.2863997E+02
  0.1380952E+01  0.1317147E+05  0.1775580E+04 -0.1069036E-02 -0.2899408E-02  0.1842209E+03  0.3346340E+02
  0.1411905E+01  0.1322803E+05  0.2025321E+04  0.6754523E-03 -0.0000000E+00  0.1844230E+03  0.3851944E+02
  0.1442857E+01  0.1333984E+05  0.2312528E+04 -0.1152718E-02 -0.1550674E-02  0.1887009E+03  0.4462172E+02
  0.1473810E+01  0.1343531E+05  0.2628918E+04 -0.4296618E-03  0.1728535E-02  0.1925146E+03  0.5147449E+02
  0.1504762E+01  0.1351749E+05  0.2975729E+04  0.1670620E-02  0.6246567E-03  0.1958772E+03  0.5912352E+02
  0.1535714E+01  0.1358913E+05  0.3354303E+04  0.1239510E-02  0.1239777E-03  0.1992519E+03  0.6765676E+02
  0.1566667E+01  0.1365237E+05  0.3764793E+04  0.2434913E-05 -0.1159668E-02  0.2027723E+03  0.7706697E+02
  0.1597619E+01  0.1371037E+05  0.4207449E+04  0.2722022E-03  0.2288818E-04  0.2060031E+03  0.8736817E+02
  0.1628572E+01  0.1375708E+05  0.4682098E+04 -0.1803616E-03  0.4606247E-03  0.2090636E+03  0.9855938E+02
  0.1659524E+01  0.1379396E+05  0.5188673E+04 -0.2436590E-03 -0.6008148E-03  0.2120668E+03  0.1107682E+03
  0.1690476E+01  0.1381510E+05  0.5726567E+04 -0.1128291E-04 -0.1136780E-02  0.2150447E+03  0.1241282E+03
  0.1721429E+01  0.1381723E+05  0.6294322E+04  0.1927926E-03 -0.3070831E-02  0.2178059E+03  0.1385992E+03
  0.1752381E+01  0.1380270E+05  0.6890857E+04  0.4985022E-03  0.1621246E-04  0.2203666E+03  0.1541944E+03
  0.1783333E+01  0.1376983E+05  0.7513941E+04  0.1668484E-03 -0.3039360E-02  0.2228679E+03  0.1709066E+03
  0.1814286E+01  0.1371823E+05  0.8159164E+04  0.8872926E-03  0.4291534E-03  0.2245443E+03  0.1884658E+03
  0.1845238E+01  0.1364799E+05  0.8823174E+04 -0.2708189E-03 -0.1610756E-02  0.2255601E+03  0.2069137E+03
  0.1876190E+01  0.1355416E+05  0.9501828E+04  0.1707900E-03 -0.2523422E-02  0.2256331E+03  0.2260063E+03
  0.1907143E+01  0.1344259E+05  0.1019214E+05 -0.2080225E-03 -0.2315521E-02  0.2252599E+03  0.2459135E+03
  0.1938095E+01  0.1331172E+05  0.1089038E+05  0.3523206E-03 -0.6542206E-03  0.2245778E+03  0.2667835E+03
  0.1969048E+01  0.1315737E+05  0.1159207E+05  0.6315700E-03 -0.7743835E-03  0.2236609E+03  0.2886073E+03
  0.2000000E+01  0.1298530E+05  0.1229287E+05 -0.5874634E-03 -0.1546860E-02  0.2222829E+03  0.3109755E+03
Zone t="Motion of body    1 in DoF   2",I=    64,F=POINT
  0.5000000E-01 -0.3657341E-02  0.2920628E-05  0.1799027E+05  0.2718023E+02 -0.7224083E-03 -0.1493841E-05
  0.8095238E-01 -0.2703667E-02  0.2257526E-05  0.1788340E+05  0.4514419E+02 -0.6567730E-03 -0.1780689E-05
  0.1119048E+00 -0.1410423E-02 -0.2257526E-05  0.1785206E+05  0.6481017E+02 -0.5752482E-03 -0.3241003E-05
  0.1428571E+00 -0.1094818E-02 -0.9015203E-06  0.1784135E+05  0.8698038E+02 -0.7643699E-03 -0.3762543E-05
  0.1738095E+00  0.1931386E-02  0.8940697E-07  0.1785140E+05  0.1126927E+03 -0.6035583E-03 -0.7122755E-05
  0.2047619E+00  0.1653405E-03 -0.2212822E-04  0.1788864E+05  0.1432040E+03 -0.6986219E-03 -0.5111098E-05
  0.2357143E+00 -0.1454498E-02  0.3919005E-05  0.1794283E+05  0.1803466E+03 -0.8435682E-03 -0.1239777E-04
  0.2666667E+00  0.2135038E-02  0.2729893E-04  0.1801336E+05  0.2258199E+03 -0.6473064E-03 -0.1069903E-04
  0.2976190E+00 -0.1848907E-02 -0.1454353E-04  0.1810190E+05  0.2829730E+03 -0.7850647E-03 -0.1519918E-04
  0.3285715E+00  0.1143580E-02  0.5811453E-05  0.1819769E+05  0.3541368E+03 -0.6936943E-03 -0.2288818E-04
  0.3595238E+00 -0.3191083E-02  0.3939867E-04  0.1829684E+05  0.4435472E+03 -0.7559921E-03 -0.2086163E-04
  0.3904762E+00  0.7962017E-03  0.1746416E-04  0.1840006E+05  0.5551064E+03 -0.6985082E-03 -0.2968311E-04
  0.4214286E+00 -0.4525912E-04 -0.6645918E-04  0.1848384E+05  0.6886506E+03 -0.6155240E-03 -0.3695488E-04
  0.4523810E+00  0.1104656E-02  0.8380413E-04  0.1855557E+05  0.8514415E+03 -0.7273021E-03 -0.4887581E-04
  0.4833333E+00  0.3433228E-03  0.1676083E-03  0.1859383E+05  0.1032719E+04 -0.9431510E-03 -0.5733967E-04
  0.5142857E+00 -0.2223386E-02 -0.1575947E-03  0.1861240E+05  0.1240661E+04 -0.5266402E-03 -0.5185604E-04
  0.5452381E+00  0.1616166E-02 -0.6592274E-04  0.1860157E+05  0.1466794E+04 -0.8500612E-03 -0.8201599E-04
  0.5761905E+00  0.7348809E-03 -0.3044605E-03  0.1856791E+05  0.1708245E+04 -0.9368076E-03 -0.1006126E-03
  0.6071429E+00 -0.3078685E-02 -0.1416206E-03  0.1850963E+05  0.1970352E+04 -0.6534351E-03 -0.1080036E-03
  0.6380953E+00 -0.1655977E-02 -0.6031990E-04  0.1844054E+05  0.2241586E+04 -0.7532603E-03 -0.1337528E-03
  0.6690477E+00 -0.2753913E-02 -0.1933575E-03  0.1835625E+05  0.2527555E+04 -0.6699477E-03 -0.1349449E-03
  0.7000000E+00  0.8147103E-03  0.3547668E-03  0.1824745E+05  0.2829418E+04 -0.6539481E-03 -0.1688004E-03
  0.7309524E+00  0.1132480E-02 -0.1440048E-03  0.1812618E+05  0.3140922E+04 -0.9159000E-03 -0.1859665E-03
  0.7619048E+00 -0.2515912E-02 -0.1649857E-03  0.1799526E+05  0.3463561E+04 -0.6884336E-03 -0.2098083E-03
  0.7928572E+00 -0.5220292E-03 -0.1349449E-03  0.1784887E+05  0.3796701E+04 -0.8347657E-03 -0.1802444E-03
  0.8238096E+00  0.9029586E-04  0.1759529E-03  0.1768707E+05  0.4138675E+04 -0.6112335E-03 -0.2226830E-03
  0.8547620E+00 -0.3382861E-02 -0.1167297E-02  0.1751320E+05  0.4487517E+04 -0.7073660E-03 -0.2503395E-03
  0.8857143E+00 -0.2375264E-02  0.4954338E-03  0.1733022E+05  0.4841490E+04 -0.4199243E-03 -0.3056526E-03
  0.9166667E+00 -0.4119873E-03  0.8583069E-04  0.1713515E+05  0.5199213E+04 -0.6096580E-03 -0.3004074E-03
  0.9476191E+00  0.1215719E-02  0.8039474E-03  0.1692649E+05  0.5559330E+04 -0.7809586E-03 -0.3390312E-03
  0.9785714E+00  0.1112945E-02  0.6775856E-03  0.1670883E+05  0.5920012E+04 -0.4970244E-03 -0.3395081E-03
  0.1009524E+01 -0.1664522E-02  0.1249313E-03  0.1648679E+05  0.6279411E+04 -0.4628919E-03 -0.3623962E-03
  0.1040476E+01 -0.1246542E-03 -0.8068085E-03  0.1625759E+05  0.6636376E+04 -0.4912841E-03 -0.4110336E-03
  0.1071429E+01 -0.1278178E-02 -0.2660751E-03  0.1602068E+05  0.6989496E+04 -0.5055746E-03 -0.4558563E-03
  0.1102381E+01 -0.1012172E-02 -0.4873276E-03  0.1577630E+05  0.7337549E+04 -0.6211447E-03 -0.4863739E-03
  0.1133333E+01 -0.1008090E-02 -0.5769730E-03  0.1552747E+05  0.7678739E+04 -0.6529864E-03 -0.5292892E-03
  0.1164286E+01 -0.2198482E-02 -0.1431465E-02  0.1527824E+05  0.8011327E+04 -0.6847732E-03 -0.5006790E-03
  0.1195238E+01  0.3766064E-03  0.1041412E-02  0.1502661E+05  0.8334526E+04 -0.5058653E-03 -0.6151199E-03
  0.1226190E+01 -0.9224160E-03  0.1877785E-02  0.1477352E+05  0.8647309E+04 -0.6502022E-03 -0.5464554E-03
  0.1257143E+01 -0.1286593E-02 -0.4692078E-03  0.1451878E+05  0.8956652E+04 -0.6994334E-03 -0.5931854E-03
  0.1288095E+01 -0.9980263E-03 -0.9012222E-03  0.1426314E+05  0.9239443E+04 -0.6115503E-03 -0.6704330E-03
  0.1319048E+01  0.1633985E-03 -0.8010864E-04  0.1401021E+05  0.9517036E+04 -0.4901955E-03 -0.6504059E-03
  0.1350000E+01 -0.1525879E-03  0.9956360E-03  0.1376035E+05  0.9780086E+04 -0.4577637E-03 -0.6742477E-03
  0.1380952E+01 -0.2955733E-03 -0.8039474E-03  0.1351335E+05  0.1002832E+05 -0.4171174E-03 -0.7162094E-03
  0.1411905E+01  0.6605923E-03 -0.2492905E-02  0.1326840E+05  0.1026899E+05 -0.5106419E-03 -0.7295609E-03
  0.1442857E+01 -0.8486757E-03 -0.1316071E-03  0.1302532E+05  0.1048876E+05 -0.3727828E-03 -0.7925034E-03
  0.1473810E+01  0.7635557E-03  0.1501083E-02  0.1278422E+05  0.1069418E+05 -0.4969583E-03 -0.8945465E-03
  0.1504762E+01 -0.3333635E-03 -0.6580353E-03  0.1254922E+05  0.1088339E+05 -0.4233590E-03 -0.8115768E-03
  0.1535714E+01 -0.3837763E-03  0.1295090E-02  0.1232045E+05  0.1105630E+05 -0.3502424E-03 -0.8335114E-03
  0.1566667E+01  0.3189736E-03 -0.1815796E-02  0.1209803E+05  0.1121209E+05 -0.5235063E-03 -0.6790161E-03
  0.1597619E+01 -0.1298930E-02 -0.6647110E-03  0.1188098E+05  0.1135282E+05 -0.3605486E-03 -0.7848740E-03
  0.1628572E+01 -0.1324603E-02  0.3833771E-03  0.1167007E+05  0.1147785E+05 -0.4169397E-03 -0.7867813E-03
  0.1659524E+01 -0.5011100E-03 -0.3671646E-03  0.1146453E+05  0.1158763E+05 -0.4390459E-03 -0.8468628E-03
  0.1690476E+01 -0.8732970E-03 -0.1304626E-02  0.1126379E+05  0.1168314E+05 -0.3587964E-03 -0.9393692E-03
  0.1721429E+01 -0.1070331E-02 -0.2845764E-02  0.1106970E+05  0.1176327E+05 -0.3368330E-03 -0.8277893E-03
  0.1752381E+01 -0.2917000E-03  0.1668930E-03  0.1088328E+05  0.1182851E+05 -0.3591828E-03 -0.8869171E-03
  0.1783333E+01 -0.1287728E-02 -0.1080513E-02  0.1070429E+05  0.1187804E+05 -0.2631072E-03 -0.9469986E-03
  0.1814286E+01 -0.8494460E-03  0.2479553E-04  0.1053266E+05  0.1191236E+05 -0.3237987E-03 -0.9918213E-03
  0.1845238E+01 -0.1525682E-02 -0.3772736E-02  0.1036708E+05  0.1193360E+05 -0.3038960E-03 -0.9908676E-03
  0.1876190E+01 -0.6058979E-03 -0.3745079E-02  0.1020875E+05  0.1194132E+05 -0.3334472E-03 -0.9937286E-03
  0.1907143E+01 -0.4880527E-03 -0.1610756E-02  0.1005674E+05  0.1193595E+05 -0.3220348E-03 -0.1077652E-02
  0.1938095E+01 -0.7873086E-03 -0.1148224E-02  0.9910707E+04  0.1191839E+05 -0.2224147E-03 -0.9460449E-03
  0.1969048E+01 -0.3487196E-04 -0.1470566E-02  0.9770152E+04  0.1188937E+05 -0.2712264E-03 -0.1095772E-02
  0.2000000E+01  0.2536774E-03 -0.2737045E-03  0.9637763E+04  0.1184777E+05 -0.2002716E-03 -0.9031296E-03
Zone t="Motion of body    1 in DoF   3",I=    64,F=POINT
  0.5000000E-01  0.1111231E+03  0.2040534E-05 -0.4708767E-03 -0.8403869E-06  0.1156495E+03  0.2879801E-07
  0.8095238E-01  0.1107496E+03  0.9640406E-05 -0.2256737E-03 -0.1037694E-05  0.1156251E+03  0.1733358E-06
  0.1119048E+00  0.1112207E+03  0.2648909E-04 -0.1177128E-03 -0.1028175E-05  0.1169449E+03  0.3187370E-06
  0.1428571E+00  0.1099744E+03  0.5956105E-04 -0.3921985E-03 -0.2380652E-05  0.1159006E+03  0.7472412E-06
  0.1738095E+00  0.1114144E+03  0.1197692E-03 -0.5504040E-03 -0.4473060E-05  0.1165016E+03  0.1572718E-05
  0.2047619E+00  0.1103206E+03  0.2215079E-03 -0.1245876E-03 -0.1940534E-05  0.1163774E+03  0.3422112E-05
  0.2357143E+00  0.1114452E+03  0.3917732E-03 -0.8840272E-03 -0.1051374E-04  0.1162309E+03  0.5020498E-05
  0.2666667E+00  0.1123621E+03  0.6721044E-03 -0.5096197E-03 -0.8565109E-05  0.1171416E+03  0.8129140E-05
  0.2976190E+00  0.1115965E+03  0.1135755E-02  0.3945351E-04 -0.1952181E-05  0.1164717E+03  0.1569013E-04
  0.3285715E+00  0.1122003E+03  0.1897955E-02 -0.8816303E-03 -0.2173405E-04  0.1164231E+03  0.2693625E-04
  0.3595238E+00  0.1135041E+03  0.3139894E-02 -0.1800455E-03 -0.8341870E-05  0.1162304E+03  0.4214818E-04
  0.3904762E+00  0.1129559E+03  0.5159428E-02 -0.4292406E-03 -0.1677036E-04  0.1166100E+03  0.7056806E-04
  0.4214286E+00  0.1134740E+03  0.8386048E-02 -0.6084522E-03 -0.3131641E-04  0.1159131E+03  0.1134743E-03
  0.4523810E+00  0.1152414E+03  0.1352039E-01  0.9618307E-04  0.1879049E-05  0.1164249E+03  0.1804901E-03
  0.4833333E+00  0.1167038E+03  0.2125736E-01 -0.4691091E-03 -0.3558611E-04  0.1165126E+03  0.2873159E-03
  0.5142857E+00  0.1168019E+03  0.3289197E-01 -0.5368392E-03 -0.5035121E-04  0.1165007E+03  0.4502001E-03
  0.5452381E+00  0.1188855E+03  0.4976913E-01 -0.2680491E-03 -0.2889476E-04  0.1168486E+03  0.6882339E-03
  0.5761905E+00  0.1221061E+03  0.7360677E-01  0.2418569E-03  0.2007977E-04  0.1166727E+03  0.1031996E-02
  0.6071429E+00  0.1210575E+03  0.1068311E+00 -0.2882340E-03 -0.4769492E-04  0.1168928E+03  0.1502359E-02
  0.6380953E+00  0.1213033E+03  0.1516421E+00 -0.5154378E-03 -0.7650990E-04  0.1169092E+03  0.2149735E-02
  0.6690477E+00  0.1237694E+03  0.2118904E+00 -0.8160533E-04 -0.3712793E-04  0.1165667E+03  0.3041596E-02
  0.7000000E+00  0.1259567E+03  0.2919467E+00 -0.3807885E-03 -0.8382736E-04  0.1170905E+03  0.4229640E-02
  0.7309524E+00  0.1284404E+03  0.3961676E+00 -0.8545791E-03 -0.2064361E-03  0.1173092E+03  0.5799570E-02
  0.7619048E+00  0.1290087E+03  0.5307210E+00 -0.9857117E-03 -0.2424848E-03  0.1167852E+03  0.7838010E-02
  0.7928572E+00  0.1290066E+03  0.7029138E+00 -0.6907264E-03 -0.1890572E-03  0.1168455E+03  0.1046742E-01
  0.8238096E+00  0.1308955E+03  0.9208414E+00 -0.1098021E-02 -0.3323909E-03  0.1172578E+03  0.1384906E-01
  0.8547620E+00  0.1338363E+03  0.1194326E+01 -0.4981686E-03 -0.1693356E-03  0.1172275E+03  0.1817632E-01
  0.8857143E+00  0.1372737E+03  0.1535280E+01 -0.5345960E-03 -0.1890757E-03  0.1171013E+03  0.2367446E-01
  0.9166667E+00  0.1400767E+03  0.1957999E+01 -0.3274571E-03 -0.1569712E-03  0.1173980E+03  0.3052323E-01
  0.9476191E+00  0.1410679E+03  0.2475998E+01 -0.5386702E-03 -0.2453928E-03  0.1176221E+03  0.3896049E-01
  0.9785714E+00  0.1422172E+03  0.3105541E+01 -0.8110757E-03 -0.4217741E-03  0.1176747E+03  0.4933849E-01
  0.1009524E+01  0.1449810E+03  0.3866330E+01 -0.2557714E-03 -0.1405710E-03  0.1173832E+03  0.6212311E-01
  0.1040476E+01  0.1479921E+03  0.4782596E+01 -0.1294662E-03 -0.1283623E-03  0.1173558E+03  0.7782906E-01
  0.1071429E+01  0.1509715E+03  0.5880819E+01 -0.3304482E-03 -0.2884660E-03  0.1177866E+03  0.9685998E-01
  0.1102381E+01  0.1546039E+03  0.7184483E+01 -0.5179811E-03 -0.3622640E-03  0.1180903E+03  0.1200668E+00
  0.1133333E+01  0.1587067E+03  0.8726579E+01 -0.5661039E-03 -0.3961679E-03  0.1182961E+03  0.1479040E+00
  0.1164286E+01  0.1628600E+03  0.1054393E+02 -0.2510562E-03 -0.2027508E-03  0.1181071E+03  0.1811473E+00
  0.1195238E+01  0.1651187E+03  0.1268173E+02  0.4021390E-03  0.1825299E-03  0.1179581E+03  0.2205466E+00
  0.1226190E+01  0.1672189E+03  0.1518291E+02  0.2372149E-03  0.1823492E-03  0.1182428E+03  0.2668572E+00
  0.1257143E+01  0.1695288E+03  0.1806286E+02 -0.2710115E-03 -0.3317259E-03  0.1185325E+03  0.3219875E+00
  0.1288095E+01  0.1740159E+03  0.2136096E+02 -0.4953113E-03 -0.4277527E-03  0.1188104E+03  0.3844852E+00
  0.1319048E+01  0.1785458E+03  0.2514675E+02 -0.5046555E-03 -0.6034449E-03  0.1187415E+03  0.4599337E+00
  0.1350000E+01  0.1833542E+03  0.2947491E+02 -0.5096860E-03 -0.5473271E-03  0.1185894E+03  0.5463283E+00
  0.1380952E+01  0.1878129E+03  0.3442117E+02 -0.7634492E-03 -0.9910688E-03  0.1187131E+03  0.6476997E+00
  0.1411905E+01  0.1797291E+03  0.3827604E+02 -0.3171249E-03 -0.3376007E-03  0.1183553E+03  0.7282586E+00
  0.1442857E+01  0.1840474E+03  0.4434634E+02 -0.3546063E-03 -0.4578456E-03  0.1188920E+03  0.8570731E+00
  0.1473810E+01  0.1878054E+03  0.5118484E+02 -0.3206287E-03 -0.4742816E-03  0.1190440E+03  0.1004125E+01
  0.1504762E+01  0.1910731E+03  0.5884504E+02 -0.4518786E-03 -0.6872788E-03  0.1191400E+03  0.1173360E+01
  0.1535714E+01  0.1944079E+03  0.6741631E+02 -0.3611099E-03 -0.8282959E-03  0.1189076E+03  0.1361805E+01
  0.1566667E+01  0.1978346E+03  0.7679755E+02 -0.2027065E-03 -0.1655966E-03  0.1188176E+03  0.1573166E+01
  0.1597619E+01  0.2011137E+03  0.8717738E+02 -0.5775344E-03 -0.1109228E-02  0.1189152E+03  0.1802142E+01
  0.1628572E+01  0.2045327E+03  0.9855349E+02 -0.4576382E-03 -0.1015618E-02  0.1192991E+03  0.2065601E+01
  0.1659524E+01  0.2076219E+03  0.1108693E+03 -0.1678029E-03 -0.2423674E-03  0.1197906E+03  0.2371693E+01
  0.1690476E+01  0.2105227E+03  0.1242777E+03  0.3187421E-04  0.5118698E-03  0.1199856E+03  0.2698337E+01
  0.1721429E+01  0.2131656E+03  0.1387189E+03 -0.5501237E-03 -0.1110286E-02  0.1202442E+03  0.3061012E+01
  0.1752381E+01  0.2156727E+03  0.1542793E+03 -0.4027201E-03 -0.9731948E-03  0.1202971E+03  0.3463961E+01
  0.1783333E+01  0.2181911E+03  0.1708797E+03 -0.2572247E-03 -0.1007915E-02  0.1202331E+03  0.3871428E+01
  0.1814286E+01  0.2197915E+03  0.1884024E+03  0.2628236E-05  0.3168285E-03  0.1201820E+03  0.4331988E+01
  0.1845238E+01  0.2209091E+03  0.2070309E+03 -0.1090511E-03 -0.5513430E-05  0.1202725E+03  0.4811098E+01
  0.1876190E+01  0.2213067E+03  0.2266592E+03 -0.2884623E-03 -0.9699762E-03  0.1205698E+03  0.5352478E+01
  0.1907143E+01  0.2210023E+03  0.2469757E+03 -0.2145232E-03 -0.6268919E-03  0.1210243E+03  0.5982478E+01
  0.1938095E+01  0.2202505E+03  0.2681911E+03 -0.2856454E-03 -0.6243587E-04  0.1212177E+03  0.6609945E+01
  0.1969048E+01  0.2191023E+03  0.2899781E+03 -0.2533061E-03 -0.1175851E-02  0.1213465E+03  0.7284027E+01
  0.2000000E+01  0.2175622E+03  0.3122299E+03 -0.2560616E-03 -0.6023049E-03  0.1214686E+03  0.7948580E+01
