VARIABLES="w (rad/s)"
"abs(F   1   1)" "angle(F   1   1)"
"abs(F   1   2)" "angle(F   1   2)"
"abs(F   1   3)" "angle(F   1   3)"
Zone t="Diffraction force - beta =   0.000 deg",I=    64,F=POINT
  0.5000000E-01  0.1243086E+04 -0.1570794E+01  0.4370798E+03 -0.3079201E+01  0.4080592E+03 -0.1570792E+01
  0.8095238E-01  0.2033195E+04 -0.1570791E+01  0.1129459E+04 -0.3076775E+01  0.6624229E+03 -0.1570786E+01
  0.1119048E+00  0.2834685E+04 -0.1570785E+01  0.2143531E+04 -0.3073981E+01  0.9215280E+03 -0.1570775E+01
  0.1428571E+00  0.3666577E+04 -0.1570777E+01  0.3478477E+04 -0.3070452E+01  0.1203960E+04 -0.1570759E+01
  0.1738095E+00  0.4521385E+04 -0.1570765E+01  0.5147656E+04 -0.3066139E+01  0.1485056E+04 -0.1570735E+01
  0.2047619E+00  0.5429501E+04 -0.1570747E+01  0.7153991E+04 -0.3060722E+01  0.1808079E+04 -0.1570702E+01
  0.2357143E+00  0.6377259E+04 -0.1570722E+01  0.9515317E+04 -0.3053970E+01  0.2120414E+04 -0.1570652E+01
  0.2666667E+00  0.7391742E+04 -0.1570684E+01  0.1224085E+05 -0.3045784E+01  0.2476791E+04 -0.1570580E+01
  0.2976190E+00  0.8504908E+04 -0.1570628E+01  0.1534035E+05 -0.3035500E+01  0.2903058E+04 -0.1570477E+01
  0.3285715E+00  0.9687509E+04 -0.1570545E+01  0.1883897E+05 -0.3023309E+01  0.3306672E+04 -0.1570315E+01
  0.3595238E+00  0.1098212E+05 -0.1570422E+01  0.2272334E+05 -0.3008508E+01  0.3777448E+04 -0.1570079E+01
  0.3904762E+00  0.1242233E+05 -0.1570237E+01  0.2700879E+05 -0.2991017E+01  0.4348999E+04 -0.1569735E+01
  0.4214286E+00  0.1400873E+05 -0.1569968E+01  0.3163032E+05 -0.2971461E+01  0.4973622E+04 -0.1569235E+01
  0.4523810E+00  0.1570542E+05 -0.1569573E+01  0.3665029E+05 -0.2949093E+01  0.5615727E+04 -0.1568488E+01
  0.4833333E+00  0.1756782E+05 -0.1569028E+01  0.4192140E+05 -0.2926349E+01  0.6402477E+04 -0.1567489E+01
  0.5142857E+00  0.1957625E+05 -0.1568275E+01  0.4742124E+05 -0.2901537E+01  0.7246809E+04 -0.1566108E+01
  0.5452381E+00  0.2169397E+05 -0.1567274E+01  0.5319212E+05 -0.2877105E+01  0.8114999E+04 -0.1564255E+01
  0.5761905E+00  0.2389238E+05 -0.1565977E+01  0.5917830E+05 -0.2853287E+01  0.9034604E+04 -0.1561852E+01
  0.6071429E+00  0.2618542E+05 -0.1564312E+01  0.6530081E+05 -0.2828686E+01  0.1006516E+05 -0.1558827E+01
  0.6380953E+00  0.2858583E+05 -0.1562256E+01  0.7159114E+05 -0.2805510E+01  0.1120883E+05 -0.1555160E+01
  0.6690477E+00  0.3103490E+05 -0.1559722E+01  0.7800626E+05 -0.2782654E+01  0.1233457E+05 -0.1550568E+01
  0.7000000E+00  0.3347689E+05 -0.1556615E+01  0.8454956E+05 -0.2759956E+01  0.1345189E+05 -0.1544890E+01
  0.7309524E+00  0.3594169E+05 -0.1552902E+01  0.9123323E+05 -0.2738411E+01  0.1465456E+05 -0.1538191E+01
  0.7619048E+00  0.3844393E+05 -0.1548512E+01  0.9795380E+05 -0.2717155E+01  0.1595900E+05 -0.1530407E+01
  0.7928572E+00  0.4094608E+05 -0.1543365E+01  0.1046595E+06 -0.2695938E+01  0.1729671E+05 -0.1521309E+01
  0.8238096E+00  0.4344099E+05 -0.1537403E+01  0.1113814E+06 -0.2675263E+01  0.1863562E+05 -0.1510712E+01
  0.8547620E+00  0.4586528E+05 -0.1530535E+01  0.1181493E+06 -0.2655550E+01  0.1995353E+05 -0.1498419E+01
  0.8857143E+00  0.4819123E+05 -0.1522697E+01  0.1249081E+06 -0.2636620E+01  0.2120551E+05 -0.1484185E+01
  0.9166667E+00  0.5039495E+05 -0.1513843E+01  0.1316164E+06 -0.2618253E+01  0.2244989E+05 -0.1468127E+01
  0.9476191E+00  0.5251439E+05 -0.1504010E+01  0.1382235E+06 -0.2600282E+01  0.2371529E+05 -0.1450394E+01
  0.9785714E+00  0.5449231E+05 -0.1493149E+01  0.1447096E+06 -0.2582713E+01  0.2496900E+05 -0.1430863E+01
  0.1009524E+01  0.5629865E+05 -0.1481266E+01  0.1510569E+06 -0.2565600E+01  0.2612760E+05 -0.1409179E+01
  0.1040476E+01  0.5787454E+05 -0.1468319E+01  0.1572690E+06 -0.2549180E+01  0.2710199E+05 -0.1384788E+01
  0.1071429E+01  0.5917457E+05 -0.1454304E+01  0.1633431E+06 -0.2533620E+01  0.2790109E+05 -0.1357592E+01
  0.1102381E+01  0.6017200E+05 -0.1439292E+01  0.1692714E+06 -0.2518973E+01  0.2849500E+05 -0.1327398E+01
  0.1133333E+01  0.6082973E+05 -0.1423368E+01  0.1750176E+06 -0.2505067E+01  0.2889816E+05 -0.1294349E+01
  0.1164286E+01  0.6111662E+05 -0.1406669E+01  0.1805649E+06 -0.2491756E+01  0.2905451E+05 -0.1258065E+01
  0.1195238E+01  0.6101436E+05 -0.1389333E+01  0.1858860E+06 -0.2478950E+01  0.2891570E+05 -0.1217920E+01
  0.1226190E+01  0.6047567E+05 -0.1371464E+01  0.1909670E+06 -0.2466605E+01  0.2849223E+05 -0.1173618E+01
  0.1257143E+01  0.5951449E+05 -0.1353162E+01  0.1958618E+06 -0.2454720E+01  0.2772027E+05 -0.1123435E+01
  0.1288095E+01  0.5806989E+05 -0.1335205E+01  0.2003549E+06 -0.2443718E+01  0.2660284E+05 -0.1067700E+01
  0.1319048E+01  0.5615396E+05 -0.1317325E+01  0.2046409E+06 -0.2433304E+01  0.2511788E+05 -0.1002891E+01
  0.1350000E+01  0.5374332E+05 -0.1300082E+01  0.2086413E+06 -0.2423451E+01  0.2326481E+05 -0.9261580E+00
  0.1380952E+01  0.5083622E+05 -0.1283832E+01  0.2123375E+06 -0.2414315E+01  0.2103785E+05 -0.8307208E+00
  0.1411905E+01  0.4730397E+05 -0.1269482E+01  0.2133067E+06 -0.2401114E+01  0.1839281E+05 -0.7031096E+00
  0.1442857E+01  0.4353095E+05 -0.1256528E+01  0.2163507E+06 -0.2392650E+01  0.1584718E+05 -0.5349730E+00
  0.1473810E+01  0.3928797E+05 -0.1246740E+01  0.2190642E+06 -0.2384675E+01  0.1341441E+05 -0.2915272E+00
  0.1504762E+01  0.3460734E+05 -0.1241849E+01  0.2214419E+06 -0.2377283E+01  0.1166334E+05  0.6523878E-01
  0.1535714E+01  0.2951747E+05 -0.1244891E+01  0.2234785E+06 -0.2370337E+01  0.1149781E+05  0.5207784E+00
  0.1566667E+01  0.2407076E+05 -0.1261902E+01  0.2251707E+06 -0.2363850E+01  0.1349486E+05  0.9517413E+00
  0.1597619E+01  0.1833275E+05 -0.1306696E+01  0.2265152E+06 -0.2357770E+01  0.1732790E+05  0.1266320E+01
  0.1628572E+01  0.1243435E+05 -0.1420262E+01  0.2274873E+06 -0.2352142E+01  0.2238563E+05  0.1478451E+01
  0.1659524E+01  0.6927526E+04 -0.1778995E+01  0.2280772E+06 -0.2347215E+01  0.2829052E+05  0.1626231E+01
  0.1690476E+01  0.5215437E+04 -0.2915032E+01  0.2282680E+06 -0.2342862E+01  0.3481478E+05  0.1734806E+01
  0.1721429E+01  0.1010187E+05  0.2681767E+01  0.2280705E+06 -0.2338982E+01  0.4186216E+05  0.1818748E+01
  0.1752381E+01  0.1674753E+05  0.2490088E+01  0.2274728E+06 -0.2335738E+01  0.4934098E+05  0.1886347E+01
  0.1783333E+01  0.2384362E+05  0.2417015E+01  0.2264990E+06 -0.2332893E+01  0.5712452E+05  0.1943230E+01
  0.1814286E+01  0.3113514E+05  0.2384241E+01  0.2251700E+06 -0.2330418E+01  0.6517441E+05  0.1992296E+01
  0.1845238E+01  0.3853035E+05  0.2368883E+01  0.2234562E+06 -0.2328368E+01  0.7346146E+05  0.2035369E+01
  0.1876190E+01  0.4597002E+05  0.2362277E+01  0.2213400E+06 -0.2326726E+01  0.8194973E+05  0.2073545E+01
  0.1907143E+01  0.5341592E+05  0.2360525E+01  0.2188178E+06 -0.2325743E+01  0.9058365E+05  0.2107780E+01
  0.1938095E+01  0.6083523E+05  0.2361587E+01  0.2158744E+06 -0.2325381E+01  0.9929702E+05  0.2138919E+01
  0.1969048E+01  0.6816812E+05  0.2364232E+01  0.2125310E+06 -0.2325501E+01  0.1081044E+06  0.2167095E+01
  0.2000000E+01  0.7538731E+05  0.2367922E+01  0.2087871E+06 -0.2326160E+01  0.1169040E+06  0.2193061E+01
