VARIABLES="w (rad/s)"
"A   1   1" "B   1   1"
"A   1   2" "B   1   2"
"A   1   3" "B   1   3"
Zone t="Motion of body    1 in DoF   1",I=    64,F=POINT
  0.5000000E-01  0.1696803E+06  0.2424025E-01 -0.2975464E-02 -0.1885729E-04 -0.5539323E+06 -0.7964216E-01
  0.8095238E-01  0.1709192E+06  0.1063062E+00  0.2403259E-02 -0.1112564E-04 -0.5572048E+06 -0.3482828E+00
  0.1119048E+00  0.1712898E+06  0.2980901E+00 -0.3340701E-02 -0.4853285E-04 -0.5579329E+06 -0.9755217E+00
  0.1428571E+00  0.1715434E+06  0.6691518E+00  0.1548767E-02 -0.6098766E-05 -0.5587844E+06 -0.2188812E+01
  0.1738095E+00  0.1719598E+06  0.1328830E+01  0.6057530E-02  0.5219225E-04 -0.5596350E+06 -0.4341063E+01
  0.2047619E+00  0.1721922E+06  0.2444689E+01 -0.1117795E-02 -0.1080148E-03 -0.5605546E+06 -0.7981137E+01
  0.2357143E+00  0.1725641E+06  0.4291285E+01 -0.7897579E-02 -0.3117509E-03 -0.5610619E+06 -0.1398734E+02
  0.2666667E+00  0.1729578E+06  0.7292778E+01 -0.5550384E-02 -0.2891421E-03 -0.5620566E+06 -0.2373370E+02
  0.2976190E+00  0.1733792E+06  0.1218004E+02 -0.2050781E-02  0.5086511E-04 -0.5633493E+06 -0.3958035E+02
  0.3285715E+00  0.1739607E+06  0.2005673E+02 -0.7430366E-03 -0.2551973E-03 -0.5646212E+06 -0.6503675E+02
  0.3595238E+00  0.1744849E+06  0.3276303E+02 -0.6960433E-02 -0.6064177E-03 -0.5659414E+06 -0.1060223E+03
  0.3904762E+00  0.1751862E+06  0.5311158E+02 -0.6291459E-02 -0.5406141E-03 -0.5681143E+06 -0.1715308E+03
  0.4214286E+00  0.1759039E+06  0.8493365E+02 -0.1231048E-01 -0.1336038E-02 -0.5699050E+06 -0.2736034E+03
  0.4523810E+00  0.1769230E+06  0.1347272E+03 -0.1666260E-01 -0.2036989E-02 -0.5722998E+06 -0.4327674E+03
  0.4833333E+00  0.1777168E+06  0.2081375E+03 -0.4924905E-02 -0.9442568E-03 -0.5744242E+06 -0.6666932E+03
  0.5142857E+00  0.1787847E+06  0.3164586E+03 -0.3975763E-02 -0.9162426E-03 -0.5774558E+06 -0.1010814E+04
  0.5452381E+00  0.1799949E+06  0.4696075E+03 -0.6380706E-02 -0.2411127E-02 -0.5804566E+06 -0.1494856E+04
  0.5761905E+00  0.1812225E+06  0.6801599E+03 -0.2330433E-02 -0.1034260E-02 -0.5836293E+06 -0.2157477E+04
  0.6071429E+00  0.1828195E+06  0.9677487E+03  0.0000000E+00 -0.8249283E-04 -0.5877568E+06 -0.3058222E+04
  0.6380953E+00  0.1841168E+06  0.1344771E+04 -0.6599995E-02 -0.2698898E-02 -0.5913696E+06 -0.4234360E+04
  0.6690477E+00  0.1857113E+06  0.1837102E+04 -0.4561346E-03 -0.1114845E-02 -0.5957157E+06 -0.5761842E+04
  0.7000000E+00  0.1876928E+06  0.2473747E+04 -0.1787458E-02 -0.3344536E-02 -0.6005708E+06 -0.7722558E+04
  0.7309524E+00  0.1893969E+06  0.3275743E+04 -0.9560849E-02 -0.4922867E-02 -0.6047614E+06 -0.1017861E+05
  0.7619048E+00  0.1913605E+06  0.4282116E+04 -0.4325866E-02 -0.1966476E-02 -0.6100282E+06 -0.1324511E+05
  0.7928572E+00  0.1933641E+06  0.5528178E+04 -0.9314734E-02 -0.4894257E-02 -0.6150583E+06 -0.1701387E+05
  0.8238096E+00  0.1956020E+06  0.7056712E+04 -0.6297558E-02 -0.6561279E-03 -0.6210809E+06 -0.2161246E+05
  0.8547620E+00  0.1975978E+06  0.8900643E+04  0.1642339E-02  0.1506805E-02 -0.6256328E+06 -0.2710370E+05
  0.8857143E+00  0.1998213E+06  0.1111929E+05 -0.3514444E-02 -0.2094269E-02 -0.6309439E+06 -0.3366369E+05
  0.9166667E+00  0.2020595E+06  0.1375721E+05  0.1198509E-02 -0.1716614E-02 -0.6359161E+06 -0.4138902E+05
  0.9476191E+00  0.2043544E+06  0.1686883E+05 -0.4573036E-02 -0.5966187E-02 -0.6413192E+06 -0.5043901E+05
  0.9785714E+00  0.2062578E+06  0.2048368E+05 -0.4615505E-02 -0.6317139E-02 -0.6452961E+06 -0.6084719E+05
  0.1009524E+01  0.2082775E+06  0.2468002E+05 -0.7738797E-02 -0.5523682E-02 -0.6501189E+06 -0.7286239E+05
  0.1040476E+01  0.2099272E+06  0.2945757E+05 -0.6159383E-02 -0.6256104E-02 -0.6531006E+06 -0.8635266E+05
  0.1071429E+01  0.2117075E+06  0.3489464E+05 -0.2221680E-02 -0.4104614E-02 -0.6560858E+06 -0.1015164E+06
  0.1102381E+01  0.2129991E+06  0.4098196E+05  0.1162700E-02 -0.4119873E-02 -0.6578181E+06 -0.1183224E+06
  0.1133333E+01  0.2137028E+06  0.4771368E+05  0.5924000E-03 -0.9155273E-03 -0.6574153E+06 -0.1366242E+06
  0.1164286E+01  0.2142785E+06  0.5517612E+05 -0.2044490E-02 -0.2136230E-02 -0.6571612E+06 -0.1567577E+06
  0.1195238E+01  0.2141340E+06  0.6324779E+05 -0.1991546E-02 -0.3387451E-02 -0.6543711E+06 -0.1781423E+06
  0.1226190E+01  0.2137032E+06  0.7198517E+05  0.1294182E-02 -0.3753662E-02 -0.6508091E+06 -0.2009722E+06
  0.1257143E+01  0.2125529E+06  0.8125523E+05 -0.6797097E-03 -0.6103516E-03 -0.6457962E+06 -0.2249419E+06
  0.1288095E+01  0.2107972E+06  0.9097535E+05  0.1800594E-02  0.1220703E-03 -0.6387281E+06 -0.2495293E+06
  0.1319048E+01  0.2082253E+06  0.1009370E+06 -0.1064259E-02  0.4669189E-02 -0.6294039E+06 -0.2741848E+06
  0.1350000E+01  0.2052686E+06  0.1112088E+06  0.3481264E-02 -0.5096436E-02 -0.6195080E+06 -0.2992521E+06
  0.1380952E+01  0.2013807E+06  0.1213731E+06  0.2961257E-02 -0.1403809E-02 -0.6065814E+06 -0.3231251E+06
  0.1411905E+01  0.1966467E+06  0.1312259E+06 -0.2550508E-02  0.1525879E-03 -0.5924067E+06 -0.3459081E+06
  0.1442857E+01  0.1919327E+06  0.1412010E+06 -0.4610874E-02 -0.9826660E-02 -0.5782423E+06 -0.3683375E+06
  0.1473810E+01  0.1864167E+06  0.1505844E+06 -0.4389798E-02 -0.5249023E-02 -0.5621899E+06 -0.3885488E+06
  0.1504762E+01  0.1803098E+06  0.1591842E+06 -0.1622453E-03  0.1037598E-02 -0.5445395E+06 -0.4058282E+06
  0.1535714E+01  0.1741282E+06  0.1672579E+06 -0.2782068E-02 -0.2227783E-02 -0.5274242E+06 -0.4215745E+06
  0.1566667E+01  0.1677558E+06  0.1745347E+06 -0.9739652E-03  0.1678467E-02 -0.5101694E+06 -0.4347466E+06
  0.1597619E+01  0.1610775E+06  0.1806848E+06 -0.3476548E-02 -0.9155273E-03 -0.4921819E+06 -0.4442887E+06
  0.1628572E+01  0.1545127E+06  0.1860356E+06  0.3073174E-02 -0.2441406E-03 -0.4750006E+06 -0.4515511E+06
  0.1659524E+01  0.1481232E+06  0.1905820E+06 -0.1838936E-02 -0.2380371E-02 -0.4588892E+06 -0.4567889E+06
  0.1690476E+01  0.1416568E+06  0.1938625E+06 -0.1588633E-02 -0.4791260E-02 -0.4429921E+06 -0.4586293E+06
  0.1721429E+01  0.1353334E+06  0.1959494E+06 -0.7445783E-03 -0.1373291E-02 -0.4275050E+06 -0.4568428E+06
  0.1752381E+01  0.1292833E+06  0.1971664E+06 -0.2925707E-02 -0.1861572E-02 -0.4131528E+06 -0.4530736E+06
  0.1783333E+01  0.1236607E+06  0.1977984E+06  0.4107038E-02 -0.1770020E-02 -0.4005193E+06 -0.4485470E+06
  0.1814286E+01  0.1183317E+06  0.1974532E+06 -0.2825880E-02  0.4272461E-03 -0.3887269E+06 -0.4412868E+06
  0.1845238E+01  0.1133323E+06  0.1962178E+06  0.1488470E-02 -0.9155273E-04 -0.3778548E+06 -0.4317466E+06
  0.1876190E+01  0.1088307E+06  0.1945218E+06  0.3578457E-03  0.1144409E-02 -0.3684615E+06 -0.4213607E+06
  0.1907143E+01  0.1048370E+06  0.1925422E+06 -0.2400259E-02  0.3204346E-03 -0.3605613E+06 -0.4107496E+06
  0.1938095E+01  0.1010423E+06  0.1898068E+06  0.1637602E-02  0.1525879E-03 -0.3534724E+06 -0.3988852E+06
  0.1969048E+01  0.9761589E+05  0.1865750E+06  0.1363881E-02  0.1495361E-02 -0.3472852E+06 -0.3857986E+06
  0.2000000E+01  0.9443842E+05  0.1825810E+06  0.2777100E-02 -0.4730225E-03 -0.3416901E+06 -0.3704778E+06
Zone t="Motion of body    1 in DoF   2",I=    64,F=POINT
  0.5000000E-01 -0.1373291E-02  0.3528595E-04  0.6396760E+05  0.1057543E+03  0.1495361E-01 -0.1783371E-03
  0.8095238E-01 -0.2261891E-02  0.7629395E-05  0.6330753E+05  0.1747130E+03 -0.1771815E-01 -0.2098083E-04
  0.1119048E+00 -0.1840794E-02  0.2574921E-04  0.6301259E+05  0.2488190E+03 -0.2018056E-01  0.4768372E-04
  0.1428571E+00  0.0000000E+00 -0.2574921E-04  0.6278650E+05  0.3305496E+03 -0.1409912E-01  0.1392365E-03
  0.1738095E+00 -0.6013635E-02  0.8392334E-04  0.6265439E+05  0.4224074E+03  0.4319282E-01  0.1640320E-03
  0.2047619E+00  0.1117795E-03 -0.1087189E-03  0.6267264E+05  0.5285662E+03 -0.2772132E-01 -0.3776550E-03
  0.2357143E+00  0.6149754E-02 -0.6103516E-04  0.6252682E+05  0.6536839E+03 -0.4142992E-02  0.4577637E-04
  0.2666667E+00 -0.5321502E-02  0.1144409E-03  0.6256396E+05  0.8005746E+03  0.4119873E-01 -0.1876831E-02
  0.2976190E+00 -0.3229981E-02 -0.1602173E-03  0.6250272E+05  0.9798978E+03  0.9433594E-02  0.4806519E-03
  0.3285715E+00 -0.2229110E-02  0.2403259E-03  0.6256525E+05  0.1192630E+04  0.7430366E-03  0.9918213E-04
  0.3595238E+00  0.7681941E-02 -0.1602173E-03  0.6244389E+05  0.1450302E+04 -0.1867433E-01  0.2578735E-02
  0.3904762E+00  0.4298512E-02 -0.5493164E-03  0.6251874E+05  0.1755603E+04 -0.2188334E-02  0.1068115E-02
  0.4214286E+00 -0.2896583E-03  0.7629395E-03  0.6220545E+05  0.2100119E+04  0.8979408E-02 -0.1647949E-02
  0.4523810E+00  0.5059493E-02  0.3356934E-03  0.6209284E+05  0.2503876E+04 -0.3534899E-01  0.1937866E-02
  0.4833333E+00  0.9470972E-03 -0.1068115E-03  0.6167037E+05  0.2910887E+04 -0.1212284E-01  0.3173828E-02
  0.5142857E+00 -0.1068115E-02  0.3509521E-03  0.6123609E+05  0.3351828E+04  0.8070204E-02 -0.2502441E-02
  0.5452381E+00  0.7388186E-02  0.8544922E-03  0.6082223E+05  0.3784492E+04 -0.2014960E-01 -0.3356934E-02
  0.5761905E+00  0.3919364E-02 -0.1281738E-02  0.6016739E+05  0.4197294E+04 -0.9745447E-02  0.7293701E-02
  0.6071429E+00  0.2312155E-02  0.9460449E-03  0.5966043E+05  0.4609107E+04 -0.1970358E-01  0.2410889E-02
  0.6380953E+00 -0.3826084E-03  0.2502441E-02  0.5904765E+05  0.4963890E+04 -0.2678259E-01 -0.6774902E-02
  0.6690477E+00 -0.2736808E-03 -0.1647949E-02  0.5835666E+05  0.5291804E+04  0.6203431E-02  0.5157471E-02
  0.7000000E+00  0.5493164E-02 -0.2593994E-02  0.5781373E+05  0.5592119E+04 -0.2092634E-02  0.1525879E-02
  0.7309524E+00  0.3006031E-02  0.1373291E-02  0.5721701E+05  0.5831816E+04  0.6680069E-03 -0.4760742E-02
  0.7619048E+00 -0.2363205E-02  0.9765625E-03  0.5653459E+05  0.6031290E+04 -0.4165649E-02  0.1281738E-01
  0.7928572E+00 -0.2809816E-02  0.6408691E-03  0.5598264E+05  0.6185858E+04 -0.3387176E-02  0.9460449E-03
  0.8238096E+00  0.5556669E-02 -0.7324219E-03  0.5563983E+05  0.6299200E+04 -0.1333600E-01  0.4943848E-02
  0.8547620E+00 -0.8568724E-03 -0.7934570E-03  0.5497317E+05  0.6337551E+04  0.2170743E-01  0.8666992E-02
  0.8857143E+00  0.4117412E-02  0.1831055E-03  0.5441341E+05  0.6339079E+04 -0.5237210E-02  0.4272461E-02
  0.9166667E+00  0.1364968E-02 -0.1159668E-02  0.5403839E+05  0.6300735E+04 -0.6924716E-02 -0.1025391E-01
  0.9476191E+00 -0.8051119E-04  0.2258301E-02  0.5383138E+05  0.6238181E+04 -0.2061087E-02 -0.6713867E-02
  0.9785714E+00 -0.2214195E-02  0.2929688E-02  0.5336574E+05  0.6076424E+04 -0.5239222E-02  0.1260376E-01
  0.1009524E+01  0.1602173E-02 -0.2441406E-03  0.5298001E+05  0.5896695E+04  0.1692862E-02 -0.2008057E-01
  0.1040476E+01  0.7185947E-03 -0.1220703E-03  0.5270354E+05  0.5690602E+04 -0.8681796E-02  0.3479004E-02
  0.1071429E+01  0.2228800E-02  0.1281738E-02  0.5256796E+05  0.5487978E+04  0.1595052E-02  0.7843018E-02
  0.1102381E+01  0.1125500E-02  0.3906250E-02  0.5259068E+05  0.5300988E+04  0.9523066E-02 -0.1040649E-01
  0.1133333E+01  0.2832413E-02 -0.2380371E-02  0.5227657E+05  0.4937299E+04 -0.1292509E-02  0.4699707E-02
  0.1164286E+01  0.3309191E-02  0.2319336E-02  0.5210728E+05  0.4621071E+04 -0.1132333E-01 -0.1092529E-01
  0.1195238E+01  0.1844733E-02  0.3173828E-02  0.5201790E+05  0.4308859E+04  0.8170443E-03 -0.1943970E-01
  0.1226190E+01  0.6408691E-03 -0.2624512E-02  0.5203404E+05  0.4040859E+04  0.9557039E-02  0.3967285E-02
  0.1257143E+01  0.4733692E-03  0.3356934E-02  0.5215654E+05  0.3840941E+04  0.2718839E-02 -0.4241943E-02
  0.1288095E+01 -0.9476808E-04 -0.1403809E-02  0.5218980E+05  0.3521855E+04  0.5686085E-02  0.2319336E-02
  0.1319048E+01  0.1226212E-02  0.2380371E-02  0.5213300E+05  0.3121635E+04 -0.1073514E-01 -0.3631592E-02
  0.1350000E+01 -0.1672815E-02 -0.6103516E-03  0.5213941E+05  0.2785465E+04  0.5425347E-02  0.8163452E-02
  0.1380952E+01  0.1856311E-02 -0.2319336E-02  0.5220546E+05  0.2494412E+04 -0.1767915E-02  0.7843018E-02
  0.1411905E+01 -0.1750772E-02  0.2258301E-02  0.5231608E+05  0.2281635E+04  0.1798324E-01  0.3234863E-02
  0.1442857E+01  0.1459405E-02  0.4821777E-02  0.5247811E+05  0.2160459E+04  0.1353651E-02 -0.1606750E-01
  0.1473810E+01  0.1573701E-02  0.7324219E-03  0.5266055E+05  0.2063276E+04  0.3313055E-02 -0.3356934E-03
  0.1504762E+01  0.1825260E-02 -0.5157471E-02  0.5269902E+05  0.1637957E+04 -0.3244907E-02  0.6286621E-02
  0.1535714E+01  0.6756450E-03 -0.7324219E-03  0.5278473E+05  0.1379133E+04  0.1589753E-02 -0.1861572E-02
  0.1566667E+01 -0.3175127E-02  0.3356934E-03  0.5287227E+05  0.1133727E+04  0.1589511E-01 -0.6530762E-02
  0.1597619E+01  0.9359937E-03 -0.7934570E-03  0.5299086E+05  0.9739875E+03 -0.4890089E-02 -0.1350403E-02
  0.1628572E+01  0.6371213E-03  0.7019043E-03  0.5311234E+05  0.8795970E+03 -0.1019394E-01 -0.6217957E-02
  0.1659524E+01 -0.1655042E-02 -0.3051758E-03  0.5323509E+05  0.8568051E+03  0.1176919E-01  0.1976013E-02
  0.1690476E+01  0.3068951E-03 -0.6713867E-03  0.5336914E+05  0.9241348E+03  0.2021897E-02 -0.7629395E-04
  0.1721429E+01 -0.3527883E-02 -0.1525879E-03  0.5347787E+05  0.6897244E+03  0.9644061E-02  0.4150391E-02
  0.1752381E+01 -0.2873462E-02  0.6408691E-03  0.5357362E+05  0.4901812E+03  0.5572775E-02 -0.2895355E-02
  0.1783333E+01 -0.1180774E-02  0.5493164E-03  0.5366217E+05  0.3696678E+03  0.2190421E-02 -0.2655029E-02
  0.1814286E+01  0.3364143E-04  0.3295898E-02  0.5374791E+05  0.2543658E+03  0.1345657E-02 -0.6237030E-02
  0.1845238E+01  0.1736549E-02  0.1083374E-02  0.5383647E+05  0.2227891E+03 -0.3175403E-02  0.3223419E-03
  0.1876190E+01 -0.2472389E-02 -0.4425049E-03  0.5391253E+05  0.2132359E+03  0.1665609E-01 -0.8335114E-03
  0.1907143E+01 -0.5440587E-03  0.1861572E-02  0.5397672E+05  0.2196553E+03  0.8960967E-02 -0.3862381E-02
  0.1938095E+01 -0.1259694E-03  0.1678467E-03  0.5403665E+05  0.2752200E+03  0.3779081E-02 -0.2651215E-03
  0.1969048E+01 -0.1224393E-02 -0.7629395E-04  0.5410581E+05  0.2734849E+03 -0.1091105E-01 -0.2956390E-03
  0.2000000E+01 -0.2746582E-03  0.1281738E-02  0.5419687E+05  0.1333241E+03  0.7080078E-02 -0.2357483E-02
Zone t="Motion of body    1 in DoF   3",I=    64,F=POINT
  0.5000000E-01 -0.5541685E+06 -0.7949111E-01 -0.4249573E-01 -0.8301216E-04  0.2208190E+07  0.2615090E+00
  0.8095238E-01 -0.5574797E+06 -0.3479945E+00 -0.2384410E-01 -0.7386575E-04  0.2215247E+07  0.1139792E+01
  0.1119048E+00 -0.5582268E+06 -0.9751909E+00  0.2420304E-01  0.3289636E-03  0.2216612E+07  0.3190960E+01
  0.1428571E+00 -0.5590538E+06 -0.2187297E+01  0.5981445E-02  0.8737668E-04  0.2219063E+07  0.7155603E+01
  0.1738095E+00 -0.5599569E+06 -0.4339811E+01  0.2976091E-01  0.7254519E-03  0.2221168E+07  0.1417854E+02
  0.2047619E+00 -0.5608100E+06 -0.7975838E+01  0.3122374E-01  0.8799694E-03  0.2223765E+07  0.2604064E+02
  0.2357143E+00 -0.5613684E+06 -0.1398390E+02 -0.5722508E-01 -0.1219310E-02  0.2224878E+07  0.4558277E+02
  0.2666667E+00 -0.5623264E+06 -0.2372747E+02  0.1945495E-02  0.4680753E-03  0.2227244E+07  0.7722034E+02
  0.2976190E+00 -0.5636417E+06 -0.3956227E+02  0.2378906E-01  0.8955300E-03  0.2231183E+07  0.1285614E+03
  0.3285715E+00 -0.5648795E+06 -0.6502052E+02  0.6919529E-01  0.4388541E-02  0.2233971E+07  0.2108337E+03
  0.3595238E+00 -0.5662567E+06 -0.1059967E+03  0.3446263E-01  0.4345417E-02  0.2237830E+07  0.3430054E+03
  0.3904762E+00 -0.5683889E+06 -0.1714441E+03  0.5767822E-01  0.3867149E-02  0.2243912E+07  0.5537021E+03
  0.4214286E+00 -0.5702091E+06 -0.2734714E+03  0.1027563E+00  0.8263946E-02  0.2248544E+07  0.8809464E+03
  0.4523810E+00 -0.5726270E+06 -0.4327040E+03  0.2806332E-01  0.4328728E-02  0.2254730E+07  0.1389961E+04
  0.4833333E+00 -0.5747374E+06 -0.6665065E+03  0.1079691E-01  0.3613472E-02  0.2260652E+07  0.2134910E+04
  0.5142857E+00 -0.5777649E+06 -0.1010373E+04  0.5577935E-02  0.1888752E-02  0.2268992E+07  0.3227234E+04
  0.5452381E+00 -0.5806983E+06 -0.1494459E+04  0.3134382E-01  0.5849838E-02  0.2276554E+07  0.4757145E+04
  0.5761905E+00 -0.5839647E+06 -0.2156941E+04 -0.1218181E-01  0.1094818E-02  0.2285362E+07  0.6841779E+04
  0.6071429E+00 -0.5881072E+06 -0.3057963E+04  0.1719037E-01  0.5285263E-02  0.2296368E+07  0.9663928E+04
  0.6380953E+00 -0.5916228E+06 -0.4232830E+04  0.1874781E-01  0.5170822E-02  0.2306080E+07  0.1332810E+05
  0.6690477E+00 -0.5960087E+06 -0.5758741E+04 -0.1240686E-01  0.3776550E-03  0.2318064E+07  0.1806144E+05
  0.7000000E+00 -0.6008955E+06 -0.7721020E+04  0.1979283E-01  0.1327896E-01  0.2330368E+07  0.2410375E+05
  0.7309524E+00 -0.6050112E+06 -0.1017729E+05  0.4016391E-01  0.2183533E-01  0.2340897E+07  0.3162326E+05
  0.7619048E+00 -0.6103527E+06 -0.1324041E+05 -0.3284454E-01 -0.1907349E-03  0.2355254E+07  0.4095384E+05
  0.7928572E+00 -0.6153607E+06 -0.1700832E+05  0.3687403E-01  0.1462555E-01  0.2368127E+07  0.5234587E+05
  0.8238096E+00 -0.6213323E+06 -0.2159874E+05  0.3133961E-01  0.1107025E-01  0.2383847E+07  0.6614981E+05
  0.8547620E+00 -0.6258458E+06 -0.2709050E+05 -0.4141550E-02  0.8590698E-02  0.2394066E+07  0.8249297E+05
  0.8857143E+00 -0.6312269E+06 -0.3364739E+05  0.5002914E-01  0.3616333E-01  0.2406991E+07  0.1018657E+06
  0.9166667E+00 -0.6362115E+06 -0.4137916E+05 -0.1065341E-02 -0.9017944E-02  0.2418231E+07  0.1244899E+06
  0.9476191E+00 -0.6415941E+06 -0.5042143E+05  0.2550595E-01  0.1153564E-01  0.2430752E+07  0.1507616E+06
  0.9785714E+00 -0.6454901E+06 -0.6082520E+05  0.1222485E-01  0.5798340E-03  0.2438235E+07  0.1806749E+06
  0.1009524E+01 -0.6503613E+06 -0.7280446E+05  0.6166855E-01  0.3417969E-01  0.2449268E+07  0.2149310E+06
  0.1040476E+01 -0.6533141E+06 -0.8628633E+05 -0.2264307E-01  0.2136230E-02  0.2453759E+07  0.2529403E+06
  0.1071429E+01 -0.6563094E+06 -0.1014509E+06 -0.8886719E-02  0.7537842E-02  0.2456888E+07  0.2951304E+06
  0.1102381E+01 -0.6580078E+06 -0.1182404E+06  0.3078386E-01  0.4077148E-01  0.2457544E+07  0.3413692E+06
  0.1133333E+01 -0.6575615E+06 -0.1365520E+06 -0.1658720E-01  0.2441406E-03  0.2450568E+07  0.3909671E+06
  0.1164286E+01 -0.6573901E+06 -0.1566457E+06  0.3145370E-02  0.1446533E-01  0.2445558E+07  0.4449934E+06
  0.1195238E+01 -0.6545877E+06 -0.1780279E+06  0.1011092E-01 -0.7751465E-02  0.2432518E+07  0.5014008E+06
  0.1226190E+01 -0.6510221E+06 -0.2008497E+06  0.1244406E-01  0.1214600E-01  0.2417061E+07  0.5607054E+06
  0.1257143E+01 -0.6459556E+06 -0.2247072E+06  0.4272461E-02  0.1135254E-01  0.2398545E+07  0.6220012E+06
  0.1288095E+01 -0.6388171E+06 -0.2492459E+06 -0.1829024E-01  0.7446289E-02  0.2373633E+07  0.6835138E+06
  0.1319048E+01 -0.6295112E+06 -0.2738675E+06  0.1388164E-01 -0.7934570E-02  0.2343105E+07  0.7437750E+06
  0.1350000E+01 -0.6197049E+06 -0.2988283E+06 -0.3264251E-01 -0.1788330E-01  0.2312226E+07  0.8038922E+06
  0.1380952E+01 -0.6067629E+06 -0.3227112E+06  0.2917060E-02  0.1562500E-01  0.2272764E+07  0.8589825E+06
  0.1411905E+01 -0.5925971E+06 -0.3453314E+06 -0.1266608E-01 -0.3906250E-02  0.2231392E+07  0.9101066E+06
  0.1442857E+01 -0.5784764E+06 -0.3676486E+06  0.3489881E-01  0.2282715E-01  0.2190470E+07  0.9587288E+06
  0.1473810E+01 -0.5623886E+06 -0.3877123E+06  0.3101848E-01  0.1086426E-01  0.2145587E+07  0.1000073E+07
  0.1504762E+01 -0.5446842E+06 -0.4049251E+06 -0.1030258E-01 -0.6103516E-03  0.2096099E+07  0.1031601E+07
  0.1535714E+01 -0.5277221E+06 -0.4206732E+06 -0.1716933E-01 -0.7324219E-02  0.2050959E+07  0.1059704E+07
  0.1566667E+01 -0.5105859E+06 -0.4337860E+06  0.1129800E-02  0.2197266E-02  0.2005741E+07  0.1079544E+07
  0.1597619E+01 -0.4925928E+06 -0.4433442E+06  0.1356236E-01  0.7812500E-02  0.1959685E+07  0.1089497E+07
  0.1628572E+01 -0.4754374E+06 -0.4505630E+06 -0.1000655E-01  0.1324463E-01  0.1916351E+07  0.1092827E+07
  0.1659524E+01 -0.4594054E+06 -0.4556872E+06  0.1084972E-01  0.8666992E-02  0.1876972E+07  0.1090940E+07
  0.1690476E+01 -0.4435426E+06 -0.4574137E+06  0.2021897E-02  0.4455566E-02  0.1839930E+07  0.1081097E+07
  0.1721429E+01 -0.4279932E+06 -0.4554880E+06 -0.6630292E-02  0.4821777E-02  0.1803158E+07  0.1059994E+07
  0.1752381E+01 -0.4136803E+06 -0.4517706E+06  0.1340949E-01  0.4333496E-02  0.1770621E+07  0.1035726E+07
  0.1783333E+01 -0.4012238E+06 -0.4473505E+06 -0.3698046E-01  0.2136230E-02  0.1744137E+07  0.1012084E+07
  0.1814286E+01 -0.3895228E+06 -0.4401001E+06 -0.7401114E-02 -0.6103516E-03  0.1719485E+07  0.9804589E+06
  0.1845238E+01 -0.3786448E+06 -0.4305832E+06  0.2943863E-02  0.9155273E-03  0.1697791E+07  0.9450182E+06
  0.1876190E+01 -0.3692858E+06 -0.4201781E+06 -0.5465280E-02 -0.1953125E-02  0.1679794E+07  0.9074578E+06
  0.1907143E+01 -0.3614814E+06 -0.4094867E+06  0.8384905E-02  0.3234863E-02  0.1665567E+07  0.8695576E+06
  0.1938095E+01 -0.3544680E+06 -0.3976857E+06 -0.1218754E-01  0.2319336E-02  0.1654742E+07  0.8322563E+06
  0.1969048E+01 -0.3483168E+06 -0.3844874E+06  0.4525606E-02 -0.1190186E-02  0.1645579E+07  0.7911295E+06
  0.2000000E+01 -0.3426512E+06 -0.3690494E+06 -0.1107788E-01 -0.2288818E-02  0.1637504E+07  0.7428005E+06
