VARIABLES="w (rad/s)"
"abs(F   1   1)" "angle(F   1   1)"
"abs(F   1   2)" "angle(F   1   2)"
"abs(F   1   3)" "angle(F   1   3)"
Zone t="Diffraction force - beta =   0.000 deg",I=    64,F=POINT
  0.5000000E-01  0.4491889E+03 -0.1570796E+01  0.1209002E+03 -0.3099902E+01  0.4604696E+01 -0.1570795E+01
  0.8095238E-01  0.7325685E+03 -0.1570794E+01  0.3148626E+03 -0.3098580E+01  0.7445038E+01 -0.1570791E+01
  0.1119048E+00  0.1024348E+04 -0.1570792E+01  0.5990453E+03 -0.3096780E+01  0.1017273E+02 -0.1570788E+01
  0.1428571E+00  0.1322359E+04 -0.1570789E+01  0.9741709E+03 -0.3094456E+01  0.1329330E+02 -0.1570783E+01
  0.1738095E+00  0.1640414E+04 -0.1570784E+01  0.1441883E+04 -0.3091496E+01  0.1654056E+02 -0.1570775E+01
  0.2047619E+00  0.1968316E+04 -0.1570776E+01  0.2004328E+04 -0.3087769E+01  0.2017529E+02 -0.1570765E+01
  0.2357143E+00  0.2320774E+04 -0.1570766E+01  0.2664238E+04 -0.3083054E+01  0.2368656E+02 -0.1570750E+01
  0.2666667E+00  0.2703813E+04 -0.1570750E+01  0.3423411E+04 -0.3077271E+01  0.2804955E+02 -0.1570730E+01
  0.2976190E+00  0.3113268E+04 -0.1570727E+01  0.4285711E+04 -0.3069994E+01  0.3272549E+02 -0.1570699E+01
  0.3285715E+00  0.3559765E+04 -0.1570693E+01  0.5253718E+04 -0.3061232E+01  0.3736635E+02 -0.1570650E+01
  0.3595238E+00  0.4064249E+04 -0.1570642E+01  0.6326320E+04 -0.3050538E+01  0.4334583E+02 -0.1570582E+01
  0.3904762E+00  0.4612596E+04 -0.1570565E+01  0.7506995E+04 -0.3037793E+01  0.5005460E+02 -0.1570485E+01
  0.4214286E+00  0.5213966E+04 -0.1570451E+01  0.8783980E+04 -0.3023443E+01  0.5741813E+02 -0.1570335E+01
  0.4523810E+00  0.5891497E+04 -0.1570283E+01  0.1016136E+05 -0.3006756E+01  0.6594324E+02 -0.1570115E+01
  0.4833333E+00  0.6643231E+04 -0.1570051E+01  0.1161858E+05 -0.2989665E+01  0.7743819E+02 -0.1569831E+01
  0.5142857E+00  0.7434834E+04 -0.1569726E+01  0.1315496E+05 -0.2971060E+01  0.8628297E+02 -0.1569395E+01
  0.5452381E+00  0.8273375E+04 -0.1569287E+01  0.1476474E+05 -0.2952310E+01  0.9730602E+02 -0.1568826E+01
  0.5761905E+00  0.9203499E+04 -0.1568719E+01  0.1643976E+05 -0.2933702E+01  0.1112733E+03 -0.1568120E+01
  0.6071429E+00  0.1018972E+05 -0.1567981E+01  0.1816641E+05 -0.2914380E+01  0.1264555E+03 -0.1567210E+01
  0.6380953E+00  0.1120321E+05 -0.1567051E+01  0.1995907E+05 -0.2895992E+01  0.1423079E+03 -0.1566061E+01
  0.6690477E+00  0.1223242E+05 -0.1565881E+01  0.2180320E+05 -0.2877623E+01  0.1556698E+03 -0.1564529E+01
  0.7000000E+00  0.1333065E+05 -0.1564440E+01  0.2368321E+05 -0.2858930E+01  0.1726263E+03 -0.1562715E+01
  0.7309524E+00  0.1449644E+05 -0.1562700E+01  0.2560851E+05 -0.2840726E+01  0.1939598E+03 -0.1560641E+01
  0.7619048E+00  0.1571438E+05 -0.1560606E+01  0.2756634E+05 -0.2822657E+01  0.2171651E+03 -0.1558180E+01
  0.7928572E+00  0.1694796E+05 -0.1558092E+01  0.2954471E+05 -0.2804615E+01  0.2385631E+03 -0.1555102E+01
  0.8238096E+00  0.1816779E+05 -0.1555085E+01  0.3153970E+05 -0.2786695E+01  0.2579797E+03 -0.1551284E+01
  0.8547620E+00  0.1943349E+05 -0.1551563E+01  0.3355799E+05 -0.2769147E+01  0.2829344E+03 -0.1547069E+01
  0.8857143E+00  0.2077299E+05 -0.1547498E+01  0.3558231E+05 -0.2751837E+01  0.3100933E+03 -0.1542251E+01
  0.9166667E+00  0.2215956E+05 -0.1542820E+01  0.3760293E+05 -0.2734736E+01  0.3383948E+03 -0.1536676E+01
  0.9476191E+00  0.2356806E+05 -0.1537452E+01  0.3960372E+05 -0.2717719E+01  0.3707970E+03 -0.1530508E+01
  0.9785714E+00  0.2500112E+05 -0.1531338E+01  0.4159566E+05 -0.2701087E+01  0.4071249E+03 -0.1523695E+01
  0.1009524E+01  0.2642318E+05 -0.1524381E+01  0.4357070E+05 -0.2684833E+01  0.4387778E+03 -0.1515448E+01
  0.1040476E+01  0.2781554E+05 -0.1516493E+01  0.4552188E+05 -0.2668923E+01  0.4674390E+03 -0.1505746E+01
  0.1071429E+01  0.2922718E+05 -0.1507704E+01  0.4744293E+05 -0.2653328E+01  0.5005446E+03 -0.1495290E+01
  0.1102381E+01  0.3066377E+05 -0.1498002E+01  0.4932707E+05 -0.2638027E+01  0.5406953E+03 -0.1484439E+01
  0.1133333E+01  0.3213445E+05 -0.1487380E+01  0.5117094E+05 -0.2623091E+01  0.5852765E+03 -0.1472856E+01
  0.1164286E+01  0.3359864E+05 -0.1475748E+01  0.5297089E+05 -0.2608551E+01  0.6287313E+03 -0.1459857E+01
  0.1195238E+01  0.3503516E+05 -0.1463038E+01  0.5471613E+05 -0.2594302E+01  0.6729667E+03 -0.1445685E+01
  0.1226190E+01  0.3642921E+05 -0.1449199E+01  0.5640961E+05 -0.2580478E+01  0.7178569E+03 -0.1430233E+01
  0.1257143E+01  0.3770388E+05 -0.1433972E+01  0.5805691E+05 -0.2566595E+01  0.7600278E+03 -0.1412889E+01
  0.1288095E+01  0.3895377E+05 -0.1417756E+01  0.5961396E+05 -0.2553797E+01  0.8040174E+03 -0.1394494E+01
  0.1319048E+01  0.4008557E+05 -0.1400178E+01  0.6113131E+05 -0.2541203E+01  0.8479681E+03 -0.1374831E+01
  0.1350000E+01  0.4115269E+05 -0.1381588E+01  0.6258539E+05 -0.2529037E+01  0.8899018E+03 -0.1353830E+01
  0.1380952E+01  0.4213774E+05 -0.1362002E+01  0.6396969E+05 -0.2517303E+01  0.9317101E+03 -0.1331993E+01
  0.1411905E+01  0.4276092E+05 -0.1341566E+01  0.6522114E+05 -0.2505630E+01  0.9510341E+03 -0.1306053E+01
  0.1442857E+01  0.4349558E+05 -0.1319941E+01  0.6645061E+05 -0.2494333E+01  0.9923398E+03 -0.1281957E+01
  0.1473810E+01  0.4407807E+05 -0.1297278E+01  0.6760467E+05 -0.2483440E+01  0.1033135E+04 -0.1257138E+01
  0.1504762E+01  0.4450538E+05 -0.1273665E+01  0.6868362E+05 -0.2472992E+01  0.1072847E+04 -0.1231661E+01
  0.1535714E+01  0.4476234E+05 -0.1249241E+01  0.6968578E+05 -0.2463007E+01  0.1109786E+04 -0.1205817E+01
  0.1566667E+01  0.4484399E+05 -0.1224193E+01  0.7060502E+05 -0.2453342E+01  0.1139338E+04 -0.1178392E+01
  0.1597619E+01  0.4471875E+05 -0.1198452E+01  0.7144116E+05 -0.2444001E+01  0.1159811E+04 -0.1149393E+01
  0.1628572E+01  0.4439632E+05 -0.1172187E+01  0.7219305E+05 -0.2434996E+01  0.1176341E+04 -0.1119728E+01
  0.1659524E+01  0.4386176E+05 -0.1145380E+01  0.7285798E+05 -0.2426195E+01  0.1189735E+04 -0.1089749E+01
  0.1690476E+01  0.4311009E+05 -0.1118069E+01  0.7343898E+05 -0.2417783E+01  0.1199381E+04 -0.1059963E+01
  0.1721429E+01  0.4215463E+05 -0.1090591E+01  0.7393602E+05 -0.2409770E+01  0.1204788E+04 -0.1031282E+01
  0.1752381E+01  0.4099213E+05 -0.1063024E+01  0.7434783E+05 -0.2402192E+01  0.1203643E+04 -0.1002488E+01
  0.1783333E+01  0.3962199E+05 -0.1035371E+01  0.7467255E+05 -0.2394984E+01  0.1191960E+04 -0.9730087E+00
  0.1814286E+01  0.3804607E+05 -0.1007613E+01  0.7490789E+05 -0.2388071E+01  0.1171614E+04 -0.9430099E+00
  0.1845238E+01  0.3626363E+05 -0.9796304E+00  0.7505789E+05 -0.2381460E+01  0.1140310E+04 -0.9111006E+00
  0.1876190E+01  0.3429291E+05 -0.9515994E+00  0.7512177E+05 -0.2375175E+01  0.1102697E+04 -0.8801093E+00
  0.1907143E+01  0.3214784E+05 -0.9235943E+00  0.7509806E+05 -0.2369156E+01  0.1058460E+04 -0.8499955E+00
  0.1938095E+01  0.2983048E+05 -0.8953063E+00  0.7498755E+05 -0.2363428E+01  0.1007783E+04 -0.8211640E+00
  0.1969048E+01  0.2735912E+05 -0.8666447E+00  0.7479378E+05 -0.2358118E+01  0.9487503E+03 -0.7924064E+00
  0.2000000E+01  0.2474397E+05 -0.8372852E+00  0.7451412E+05 -0.2353177E+01  0.8814142E+03 -0.7630607E+00
