VARIABLES="w (rad/s)"
"abs(F   1   1)" "angle(F   1   1)"
"abs(F   1   2)" "angle(F   1   2)"
"abs(F   1   3)" "angle(F   1   3)"
Zone t="Diffraction force - beta =   0.000 deg",I=    64,F=POINT
  0.5000000E-01  0.4550077E+04 -0.1570791E+01  0.4410739E+03 -0.3093185E+01  0.1395046E+05  0.1570802E+01
  0.8095238E-01  0.7443806E+04 -0.1570781E+01  0.1139576E+04 -0.3091500E+01  0.2280255E+05  0.1570811E+01
  0.1119048E+00  0.1039499E+05 -0.1570766E+01  0.2159647E+04 -0.3089591E+01  0.3183710E+05  0.1570826E+01
  0.1428571E+00  0.1344233E+05 -0.1570743E+01  0.3496827E+04 -0.3087177E+01  0.4115084E+05  0.1570848E+01
  0.1738095E+00  0.1663224E+05 -0.1570710E+01  0.5152894E+04 -0.3084243E+01  0.5087992E+05  0.1570880E+01
  0.2047619E+00  0.1996979E+05 -0.1570661E+01  0.7132324E+04 -0.3080596E+01  0.6103601E+05  0.1570927E+01
  0.2357143E+00  0.2354004E+05 -0.1570591E+01  0.9398798E+04 -0.3075792E+01  0.7190361E+05  0.1570995E+01
  0.2666667E+00  0.2738298E+05 -0.1570489E+01  0.1200460E+05 -0.3070338E+01  0.8350557E+05  0.1571093E+01
  0.2976190E+00  0.3154065E+05 -0.1570338E+01  0.1486443E+05 -0.3063120E+01  0.9610315E+05  0.1571239E+01
  0.3285715E+00  0.3607918E+05 -0.1570115E+01  0.1806624E+05 -0.3055013E+01  0.1098450E+06  0.1571454E+01
  0.3595238E+00  0.4115050E+05 -0.1569785E+01  0.2144226E+05 -0.3044701E+01  0.1250312E+06  0.1571774E+01
  0.3904762E+00  0.4667793E+05 -0.1569294E+01  0.2514788E+05 -0.3033172E+01  0.1416119E+06  0.1572249E+01
  0.4214286E+00  0.5288487E+05 -0.1568583E+01  0.2889196E+05 -0.3019928E+01  0.1603229E+06  0.1572935E+01
  0.4523810E+00  0.5969888E+05 -0.1567548E+01  0.3285408E+05 -0.3004795E+01  0.1806142E+06  0.1573937E+01
  0.4833333E+00  0.6729705E+05 -0.1566134E+01  0.3681387E+05 -0.2990010E+01  0.2029786E+06  0.1575308E+01
  0.5142857E+00  0.7539755E+05 -0.1564181E+01  0.4074561E+05 -0.2973677E+01  0.2269439E+06  0.1577198E+01
  0.5452381E+00  0.8412194E+05 -0.1561609E+01  0.4478912E+05 -0.2958525E+01  0.2528128E+06  0.1579685E+01
  0.5761905E+00  0.9367963E+05 -0.1558328E+01  0.4851366E+05 -0.2942935E+01  0.2807608E+06  0.1582863E+01
  0.6071429E+00  0.1036934E+06 -0.1554133E+01  0.5224947E+05 -0.2927365E+01  0.3098339E+06  0.1586930E+01
  0.6380953E+00  0.1142416E+06 -0.1548977E+01  0.5591925E+05 -0.2913859E+01  0.3400554E+06  0.1591937E+01
  0.6690477E+00  0.1252607E+06 -0.1542666E+01  0.5923882E+05 -0.2899693E+01  0.3720695E+06  0.1598046E+01
  0.7000000E+00  0.1367112E+06 -0.1535023E+01  0.6248458E+05 -0.2886009E+01  0.4051352E+06  0.1605442E+01
  0.7309524E+00  0.1487494E+06 -0.1525986E+01  0.6564626E+05 -0.2874054E+01  0.4387058E+06  0.1614235E+01
  0.7619048E+00  0.1614600E+06 -0.1515379E+01  0.6830123E+05 -0.2861077E+01  0.4743346E+06  0.1624542E+01
  0.7928572E+00  0.1741745E+06 -0.1502924E+01  0.7080285E+05 -0.2848888E+01  0.5094679E+06  0.1636658E+01
  0.8238096E+00  0.1872169E+06 -0.1488533E+01  0.7323987E+05 -0.2837991E+01  0.5455965E+06  0.1650635E+01
  0.8547620E+00  0.2006228E+06 -0.1472126E+01  0.7522355E+05 -0.2827011E+01  0.5824060E+06  0.1666569E+01
  0.8857143E+00  0.2142936E+06 -0.1453639E+01  0.7682712E+05 -0.2815773E+01  0.6195082E+06  0.1684519E+01
  0.9166667E+00  0.2278448E+06 -0.1432871E+01  0.7827379E+05 -0.2805599E+01  0.6550901E+06  0.1704760E+01
  0.9476191E+00  0.2414448E+06 -0.1409790E+01  0.7956805E+05 -0.2796322E+01  0.6905185E+06  0.1727247E+01
  0.9785714E+00  0.2548823E+06 -0.1384337E+01  0.8046998E+05 -0.2787402E+01  0.7244964E+06  0.1752107E+01
  0.1009524E+01  0.2680258E+06 -0.1356447E+01  0.8084616E+05 -0.2777727E+01  0.7579468E+06  0.1779262E+01
  0.1040476E+01  0.2800832E+06 -0.1325963E+01  0.8103244E+05 -0.2768845E+01  0.7875386E+06  0.1808964E+01
  0.1071429E+01  0.2913648E+06 -0.1293058E+01  0.8104510E+05 -0.2760412E+01  0.8154056E+06  0.1840892E+01
  0.1102381E+01  0.3015434E+06 -0.1258196E+01  0.8095073E+05 -0.2753100E+01  0.8386833E+06  0.1874802E+01
  0.1133333E+01  0.3108489E+06 -0.1221664E+01  0.8034186E+05 -0.2745721E+01  0.8585980E+06  0.1910383E+01
  0.1164286E+01  0.3187980E+06 -0.1183352E+01  0.7934873E+05 -0.2738101E+01  0.8749897E+06  0.1947607E+01
  0.1195238E+01  0.3246195E+06 -0.1143327E+01  0.7820640E+05 -0.2731129E+01  0.8845676E+06  0.1986535E+01
  0.1226190E+01  0.3285805E+06 -0.1101876E+01  0.7690052E+05 -0.2724399E+01  0.8892185E+06  0.2026755E+01
  0.1257143E+01  0.3304812E+06 -0.1059310E+01  0.7549205E+05 -0.2718018E+01  0.8883422E+06  0.2067904E+01
  0.1288095E+01  0.3305713E+06 -0.1017189E+01  0.7401075E+05 -0.2712956E+01  0.8810018E+06  0.2108785E+01
  0.1319048E+01  0.3290280E+06 -0.9749683E+00  0.7190942E+05 -0.2707561E+01  0.8698975E+06  0.2149526E+01
  0.1350000E+01  0.3250947E+06 -0.9325354E+00  0.6975371E+05 -0.2702376E+01  0.8529878E+06  0.2190343E+01
  0.1380952E+01  0.3188906E+06 -0.8905192E+00  0.6753838E+05 -0.2697869E+01  0.8293476E+06  0.2230742E+01
  0.1411905E+01  0.3103869E+06 -0.8481065E+00  0.6518986E+05 -0.2692937E+01  0.8010948E+06  0.2270912E+01
  0.1442857E+01  0.3009128E+06 -0.8080016E+00  0.6282137E+05 -0.2688853E+01  0.7701228E+06  0.2309041E+01
  0.1473810E+01  0.2896447E+06 -0.7692949E+00  0.6047629E+05 -0.2685373E+01  0.7339092E+06  0.2345761E+01
  0.1504762E+01  0.2772853E+06 -0.7320723E+00  0.5793575E+05 -0.2682893E+01  0.6957213E+06  0.2380737E+01
  0.1535714E+01  0.2640107E+06 -0.6963328E+00  0.5518992E+05 -0.2680607E+01  0.6565221E+06  0.2413856E+01
  0.1566667E+01  0.2494843E+06 -0.6620201E+00  0.5249466E+05 -0.2678615E+01  0.6145989E+06  0.2445375E+01
  0.1597619E+01  0.2339504E+06 -0.6293779E+00  0.4984557E+05 -0.2677020E+01  0.5700878E+06  0.2475062E+01
  0.1628572E+01  0.2179534E+06 -0.5981581E+00  0.4716973E+05 -0.2675798E+01  0.5256303E+06  0.2503031E+01
  0.1659524E+01  0.2016917E+06 -0.5684533E+00  0.4454169E+05 -0.2675060E+01  0.4818237E+06  0.2529104E+01
  0.1690476E+01  0.1849477E+06 -0.5406799E+00  0.4201167E+05 -0.2674775E+01  0.4368172E+06  0.2552660E+01
  0.1721429E+01  0.1681663E+06 -0.5145453E+00  0.3952949E+05 -0.2675294E+01  0.3927179E+06  0.2573972E+01
  0.1752381E+01  0.1515332E+06 -0.4898150E+00  0.3696382E+05 -0.2677245E+01  0.3502565E+06  0.2592852E+01
  0.1783333E+01  0.1348801E+06 -0.4658787E+00  0.3446493E+05 -0.2679400E+01  0.3088241E+06  0.2610085E+01
  0.1814286E+01  0.1183152E+06 -0.4430938E+00  0.3206418E+05 -0.2682142E+01  0.2683545E+06  0.2624684E+01
  0.1845238E+01  0.1018070E+06 -0.4211974E+00  0.2979514E+05 -0.2685215E+01  0.2284143E+06  0.2636139E+01
  0.1876190E+01  0.8570045E+05 -0.3996439E+00  0.2759914E+05 -0.2689163E+01  0.1905585E+06  0.2644393E+01
  0.1907143E+01  0.7002780E+05 -0.3776729E+00  0.2549082E+05 -0.2694127E+01  0.1548008E+06  0.2648596E+01
  0.1938095E+01  0.5472191E+05 -0.3550318E+00  0.2349890E+05 -0.2699872E+01  0.1205799E+06  0.2644655E+01
  0.1969048E+01  0.3986174E+05 -0.3294208E+00  0.2158984E+05 -0.2706911E+01  0.8821154E+05  0.2626691E+01
  0.2000000E+01  0.2554746E+05 -0.2936820E+00  0.1972671E+05 -0.2717151E+01  0.5805424E+05  0.2578144E+01
