VARIABLES="w (rad/s)"
"A   1   1" "B   1   1"
"A   1   2" "B   1   2"
"A   1   3" "B   1   3"
Zone t="Motion of body    1 in DoF   1",I=    64,F=POINT
  0.5000000E-01  0.8605176E+05  0.6682297E-02 -0.2265930E-01 -0.4114406E-04 -0.1320075E+06 -0.8969778E-02
  0.8095238E-01  0.8653088E+05  0.2929271E-01 -0.2356136E-02 -0.3764752E-04 -0.1327024E+06 -0.3895250E-01
  0.1119048E+00  0.8676395E+05  0.8221179E-01 -0.1731710E-01 -0.1190937E-03 -0.1328356E+06 -0.1086394E+00
  0.1428571E+00  0.8683209E+05  0.1847886E+00 -0.1885223E-01 -0.2393371E-03 -0.1328787E+06 -0.2439488E+00
  0.1738095E+00  0.8704205E+05  0.3675935E+00 -0.3652076E-01 -0.4217373E-03 -0.1330029E+06 -0.4840967E+00
  0.2047619E+00  0.8700927E+05  0.6767237E+00 -0.2556024E-01 -0.2252734E-03 -0.1330470E+06 -0.8897884E+00
  0.2357143E+00  0.8731223E+05  0.1190258E+01 -0.1456521E-01 -0.3965972E-03 -0.1330550E+06 -0.1557715E+01
  0.2666667E+00  0.8736203E+05  0.2025671E+01 -0.1293182E-01 -0.1621116E-03 -0.1332427E+06 -0.2643110E+01
  0.2976190E+00  0.8744920E+05  0.3389211E+01 -0.5383301E-02 -0.1952797E-03 -0.1333245E+06 -0.4406472E+01
  0.3285715E+00  0.8780867E+05  0.5597807E+01 -0.1281738E-01 -0.3746077E-03 -0.1333674E+06 -0.7233597E+01
  0.3595238E+00  0.8802532E+05  0.9166706E+01 -0.1629760E-01 -0.6504282E-03 -0.1335637E+06 -0.1178538E+02
  0.3904762E+00  0.8812812E+05  0.1488902E+02 -0.1977316E-01 -0.7647872E-03 -0.1336980E+06 -0.1904449E+02
  0.4214286E+00  0.8851502E+05  0.2388723E+02 -0.4127631E-02 -0.5028248E-03 -0.1338882E+06 -0.3034680E+02
  0.4523810E+00  0.8886875E+05  0.3797736E+02 -0.1686498E-02 -0.1646280E-03 -0.1341137E+06 -0.4792327E+02
  0.4833333E+00  0.8920073E+05  0.5885843E+02 -0.1117575E-01 -0.1127243E-02 -0.1343960E+06 -0.7374560E+02
  0.5142857E+00  0.8943599E+05  0.8966495E+02  0.1097785E-01  0.1108170E-02 -0.1346217E+06 -0.1115619E+03
  0.5452381E+00  0.8993950E+05  0.1334649E+03 -0.1897421E-01 -0.1778245E-02 -0.1348514E+06 -0.1646025E+03
  0.5761905E+00  0.9048773E+05  0.1939775E+03 -0.8527266E-02 -0.4560947E-03 -0.1352652E+06 -0.2371541E+03
  0.6071429E+00  0.9093705E+05  0.2765608E+03 -0.1130945E-01 -0.3224850E-02 -0.1356978E+06 -0.3352761E+03
  0.6380953E+00  0.9137355E+05  0.3854459E+03 -0.1358260E-01 -0.2297401E-02 -0.1360085E+06 -0.4629198E+03
  0.6690477E+00  0.9195459E+05  0.5280898E+03 -0.4013984E-02 -0.6585121E-03 -0.1364039E+06 -0.6278534E+03
  0.7000000E+00  0.9264905E+05  0.7128568E+03  0.8893694E-02  0.2154350E-02 -0.1369060E+06 -0.8386728E+03
  0.7309524E+00  0.9336091E+05  0.9472014E+03  0.4175043E-03  0.3122330E-02 -0.1373148E+06 -0.1101724E+04
  0.7619048E+00  0.9407366E+05  0.1241611E+04 -0.2723694E-02 -0.1080513E-02 -0.1379275E+06 -0.1428365E+04
  0.7928572E+00  0.9465485E+05  0.1606389E+04 -0.1385663E-02 -0.1005173E-02 -0.1383779E+06 -0.1826912E+04
  0.8238096E+00  0.9537717E+05  0.2054974E+04 -0.1037245E-01 -0.5588531E-03 -0.1388278E+06 -0.2308036E+04
  0.8547620E+00  0.9626700E+05  0.2601302E+04 -0.1670901E-01 -0.7928848E-02 -0.1392832E+06 -0.2882244E+04
  0.8857143E+00  0.9715317E+05  0.3259304E+04 -0.6133049E-02 -0.9002686E-03 -0.1398481E+06 -0.3563269E+04
  0.9166667E+00  0.9798902E+05  0.4043733E+04 -0.5060369E-02 -0.5760193E-03 -0.1403164E+06 -0.4359369E+04
  0.9476191E+00  0.9882111E+05  0.4971015E+04 -0.1249534E-01 -0.7896423E-02 -0.1407899E+06 -0.5282273E+04
  0.9785714E+00  0.9961175E+05  0.6056599E+04 -0.2120638E-02  0.1731873E-02 -0.1411942E+06 -0.6339779E+04
  0.1009524E+01  0.1003909E+06  0.7315993E+04 -0.1269646E-01 -0.2418518E-02 -0.1415948E+06 -0.7541487E+04
  0.1040476E+01  0.1011043E+06  0.8762876E+04 -0.1736359E-01 -0.6324768E-02 -0.1417773E+06 -0.8886984E+04
  0.1071429E+01  0.1018922E+06  0.1041691E+05 -0.1595052E-02 -0.8514404E-02 -0.1420155E+06 -0.1039064E+05
  0.1102381E+01  0.1025961E+06  0.1228668E+05 -0.2779406E-01 -0.2043152E-01 -0.1420768E+06 -0.1204428E+05
  0.1133333E+01  0.1032702E+06  0.1438501E+05  0.6031710E-02 -0.4730225E-03 -0.1420829E+06 -0.1385018E+05
  0.1164286E+01  0.1038261E+06  0.1671744E+05  0.1782376E-02 -0.6240845E-02 -0.1420564E+06 -0.1580709E+05
  0.1195238E+01  0.1041615E+06  0.1928181E+05 -0.9293879E-02 -0.1023865E-01 -0.1417837E+06 -0.1788822E+05
  0.1226190E+01  0.1043536E+06  0.2208156E+05  0.3683442E-02  0.7019043E-02 -0.1414449E+06 -0.2009249E+05
  0.1257143E+01  0.1043449E+06  0.2511036E+05 -0.2621737E-02  0.7476807E-02 -0.1408925E+06 -0.2239229E+05
  0.1288095E+01  0.1042655E+06  0.2832712E+05 -0.2843042E-03 -0.1556396E-02 -0.1401280E+06 -0.2472572E+05
  0.1319048E+01  0.1040257E+06  0.3174002E+05  0.5830289E-02  0.9887695E-02 -0.1392425E+06 -0.2710776E+05
  0.1350000E+01  0.1035985E+06  0.3532352E+05 -0.1030816E-01 -0.9368896E-02 -0.1383033E+06 -0.2952216E+05
  0.1380952E+01  0.1029259E+06  0.3903414E+05 -0.7690430E-02  0.6347656E-02 -0.1370964E+06 -0.3188329E+05
  0.1411905E+01  0.1014415E+06  0.4235752E+05  0.1106661E-01  0.4028320E-02 -0.1357442E+06 -0.3388700E+05
  0.1442857E+01  0.1004471E+06  0.4619917E+05 -0.9644764E-02 -0.2343750E-01 -0.1344212E+06 -0.3608919E+05
  0.1473810E+01  0.9922509E+05  0.5004315E+05 -0.8116985E-02  0.1501465E-01 -0.1328568E+06 -0.3811868E+05
  0.1504762E+01  0.9787600E+05  0.5386083E+05 -0.5516342E-02 -0.6103516E-03 -0.1312466E+06 -0.3998265E+05
  0.1535714E+01  0.9639574E+05  0.5761430E+05 -0.5007721E-02 -0.2319336E-02 -0.1296394E+06 -0.4166484E+05
  0.1566667E+01  0.9472778E+05  0.6126493E+05  0.2493351E-02  0.5920410E-02 -0.1279913E+06 -0.4314456E+05
  0.1597619E+01  0.9287952E+05  0.6474596E+05 -0.7640765E-04  0.6103516E-03 -0.1261650E+06 -0.4430405E+05
  0.1628572E+01  0.9097171E+05  0.6806905E+05 -0.4947060E-02  0.2807617E-02 -0.1244731E+06 -0.4527939E+05
  0.1659524E+01  0.8901832E+05  0.7119191E+05 -0.6031709E-02 -0.5737305E-02 -0.1228599E+06 -0.4601034E+05
  0.1690476E+01  0.8693366E+05  0.7404571E+05 -0.8593062E-02 -0.1452637E-01 -0.1211139E+06 -0.4638993E+05
  0.1721429E+01  0.8486272E+05  0.7666348E+05 -0.1028227E-01 -0.3906250E-02 -0.1195059E+06 -0.4654820E+05
  0.1752381E+01  0.8279184E+05  0.7901161E+05  0.6269373E-03  0.1708984E-02 -0.1179746E+06 -0.4642620E+05
  0.1783333E+01  0.8073004E+05  0.8111463E+05 -0.9856893E-02 -0.5126953E-02 -0.1165932E+06 -0.4612635E+05
  0.1814286E+01  0.7867299E+05  0.8294447E+05  0.8746771E-03 -0.2001953E-01 -0.1152836E+06 -0.4560153E+05
  0.1845238E+01  0.7660818E+05  0.8447180E+05  0.1918473E-02 -0.2307129E-01 -0.1139424E+06 -0.4474977E+05
  0.1876190E+01  0.7464194E+05  0.8577918E+05 -0.1171132E-02 -0.7568359E-02 -0.1128119E+06 -0.4382854E+05
  0.1907143E+01  0.7277202E+05  0.8686287E+05 -0.8960967E-03 -0.3540039E-02 -0.1118441E+06 -0.4277862E+05
  0.1938095E+01  0.7092871E+05  0.8766704E+05 -0.2330433E-02 -0.1538086E-01 -0.1108757E+06 -0.4148795E+05
  0.1969048E+01  0.6916727E+05  0.8825197E+05 -0.9919136E-03 -0.2319336E-02 -0.1100216E+06 -0.4009155E+05
  0.2000000E+01  0.6750901E+05  0.8862519E+05 -0.2075195E-02  0.3540039E-02 -0.1092824E+06 -0.3858452E+05
Zone t="Motion of body    1 in DoF   2",I=    64,F=POINT
  0.5000000E-01 -0.3509521E-02  0.3814697E-05  0.6239925E+05  0.1912496E+03  0.2883911E-01  0.3147125E-04
  0.8095238E-01 -0.4618028E-02 -0.2193451E-04  0.6154384E+05  0.3171676E+03  0.1357135E-01 -0.5054474E-04
  0.1119048E+00 -0.4090654E-03  0.1525879E-04  0.6106441E+05  0.4543171E+03 -0.1390822E-01 -0.3814697E-04
  0.1428571E+00 -0.7263183E-02 -0.1430511E-04  0.6086163E+05  0.6079196E+03  0.7476806E-02  0.6675720E-05
  0.1738095E+00 -0.7023223E-02 -0.1277924E-03  0.6080186E+05  0.7845684E+03  0.7286594E-02  0.1716614E-04
  0.2047619E+00 -0.2980787E-02 -0.8583069E-04  0.6091717E+05  0.9925751E+03 -0.4322141E-01 -0.2822876E-03
  0.2357143E+00 -0.1217004E-01 -0.6866455E-04  0.6109856E+05  0.1243529E+04 -0.9451201E-02 -0.1144409E-03
  0.2666667E+00 -0.3662109E-02 -0.3204346E-03  0.6139153E+05  0.1547242E+04  0.2746582E-02 -0.3509521E-03
  0.2976190E+00 -0.2973633E-02  0.1640320E-03  0.6175459E+05  0.1925730E+04  0.9741211E-02  0.2555847E-03
  0.3285715E+00 -0.1411770E-01  0.1525879E-03  0.6215421E+05  0.2390733E+04  0.8823560E-02 -0.1564026E-03
  0.3595238E+00  0.2886033E-02 -0.2441406E-03  0.6251816E+05  0.2968700E+04  0.6620899E-02 -0.0000000E+00
  0.3904762E+00 -0.5314524E-02  0.2441406E-03  0.6293703E+05  0.3679570E+04  0.7346548E-02 -0.1220703E-03
  0.4214286E+00  0.4344875E-03  0.1243591E-02  0.6312784E+05  0.4516971E+04 -0.1781399E-01 -0.2616882E-02
  0.4523810E+00  0.7690429E-02 -0.1068115E-02  0.6320654E+05  0.5523794E+04 -0.2698396E-03 -0.1495361E-02
  0.4833333E+00 -0.1174401E-01  0.8087158E-03  0.6311048E+05  0.6619515E+04  0.7576778E-02 -0.1510620E-02
  0.5142857E+00  0.1008776E-01 -0.2441406E-03  0.6282439E+05  0.7855077E+04 -0.2456665E-01 -0.0000000E+00
  0.5452381E+00  0.5597110E-02  0.3509521E-03  0.6235485E+05  0.9165318E+04  0.2910498E-02 -0.9307861E-03
  0.5761905E+00  0.3919364E-02  0.1190186E-02  0.6170107E+05  0.1052771E+05 -0.1101659E-01  0.1617432E-02
  0.6071429E+00 -0.1206342E-01  0.7019043E-03  0.6092723E+05  0.1197018E+05 -0.1387293E-01 -0.1739502E-02
  0.6380953E+00  0.1262608E-01 -0.2166748E-02  0.6012361E+05  0.1341760E+05 -0.1176521E-01 -0.3723145E-02
  0.6690477E+00 -0.8210422E-02  0.5493164E-03  0.5917818E+05  0.1489895E+05 -0.7298153E-02 -0.2410889E-02
  0.7000000E+00 -0.1918248E-02 -0.1190186E-02  0.5810577E+05  0.1641829E+05 -0.1613072E-01  0.3051758E-04
  0.7309524E+00  0.6179064E-02 -0.8300781E-02  0.5700087E+05  0.1793286E+05 -0.1135612E-01 -0.3723145E-02
  0.7619048E+00 -0.1089477E-01  0.3845215E-02  0.5586429E+05  0.1944538E+05 -0.7049560E-02  0.5859375E-02
  0.7928572E+00  0.1231700E-02  0.3601074E-02  0.5466014E+05  0.2095600E+05  0.4618876E-02 -0.4516602E-02
  0.8238096E+00 -0.4148979E-02  0.1464844E-02  0.5341448E+05  0.2245154E+05  0.2963557E-02 -0.2929688E-02
  0.8547620E+00 -0.5855294E-02  0.6591797E-02  0.5213690E+05  0.2391950E+05 -0.5426858E-02 -0.1342773E-02
  0.8857143E+00  0.6201959E-02 -0.2075195E-02  0.5081861E+05  0.2535321E+05 -0.3445533E-02 -0.4394531E-02
  0.9166667E+00  0.1598011E-02  0.1831055E-02  0.4948332E+05  0.2674326E+05 -0.2516868E-01 -0.1318359E-01
  0.9476191E+00  0.3735719E-02 -0.3662109E-03  0.4814552E+05  0.2807964E+05 -0.6440895E-03 -0.7080078E-02
  0.9785714E+00  0.6860886E-02  0.6103516E-04  0.4682046E+05  0.2935556E+05 -0.1621664E-01 -0.1049805E-01
  0.1009524E+01 -0.1209187E-01  0.4516602E-02  0.4550290E+05  0.3056912E+05  0.1233371E-01 -0.7446289E-02
  0.1040476E+01 -0.7273938E-02  0.5920410E-02  0.4417775E+05  0.3172424E+05  0.2170449E-01 -0.1550293E-01
  0.1071429E+01 -0.1150716E-01 -0.4882812E-03  0.4287267E+05  0.3280685E+05  0.9114583E-03 -0.1953125E-02
  0.1102381E+01  0.2768333E-02 -0.3417969E-02  0.4157855E+05  0.3382070E+05  0.6754733E-02  0.1831055E-02
  0.1133333E+01 -0.1227884E-01 -0.4638672E-02  0.4031130E+05  0.3475464E+05 -0.6139419E-02 -0.2197266E-02
  0.1164286E+01 -0.5871357E-02 -0.1953125E-02  0.3908638E+05  0.3560490E+05  0.5661666E-02  0.4272461E-02
  0.1195238E+01  0.8170443E-03  0.9765625E-03  0.3789114E+05  0.3637895E+05 -0.1664728E-01 -0.1037598E-01
  0.1226190E+01  0.4380309E-02  0.5737305E-02  0.3675108E+05  0.3706829E+05 -0.9557039E-02  0.4028320E-02
  0.1257143E+01  0.1194347E-01  0.4760742E-02  0.3565064E+05  0.3770320E+05 -0.1359419E-01 -0.1220703E-01
  0.1288095E+01  0.6254693E-02  0.3295898E-02  0.3458463E+05  0.3821969E+05 -0.1487859E-01  0.6835938E-02
  0.1319048E+01  0.1110531E-02  0.3295898E-02  0.3356030E+05  0.3868383E+05  0.7125909E-02 -0.1159668E-01
  0.1350000E+01 -0.8318866E-02  0.2685547E-02  0.3258315E+05  0.3907943E+05 -0.7957175E-02  0.2075195E-02
  0.1380952E+01  0.3624226E-02  0.9521484E-02  0.3163670E+05  0.3940586E+05  0.2121498E-02 -0.1513672E-01
  0.1411905E+01 -0.6916631E-02  0.2807617E-02  0.3062285E+05  0.3966070E+05  0.2766652E-02 -0.1611328E-01
  0.1442857E+01 -0.1040619E-01  0.7324219E-03  0.2977606E+05  0.3985366E+05  0.8206509E-02 -0.1782227E-01
  0.1473810E+01  0.1656528E-02  0.8544922E-02  0.2896996E+05  0.3998744E+05 -0.9525034E-03 -0.8789062E-02
  0.1504762E+01 -0.4705115E-02  0.1098633E-02  0.2821481E+05  0.4005529E+05 -0.5354097E-02 -0.5126953E-02
  0.1535714E+01 -0.8902616E-02 -0.7812500E-02  0.2750356E+05  0.4006112E+05  0.6319267E-02 -0.6103516E-02
  0.1566667E+01 -0.1246675E-02 -0.1586914E-02  0.2683659E+05  0.4002879E+05  0.1870013E-02  0.3540039E-02
  0.1597619E+01 -0.6494650E-03  0.3051758E-02  0.2619193E+05  0.3994783E+05  0.5348535E-03 -0.1220703E-01
  0.1628572E+01  0.6745991E-03 -0.4882812E-03  0.2560326E+05  0.3981974E+05 -0.1574064E-02 -0.5249023E-02
  0.1659524E+01 -0.5332914E-02 -0.7690430E-02  0.2505609E+05  0.3963813E+05  0.7135071E-02  0.3662109E-02
  0.1690476E+01 -0.5885164E-02 -0.4882812E-03  0.2453252E+05  0.3942970E+05  0.3971583E-02  0.8666992E-02
  0.1721429E+01 -0.2942857E-02 -0.2929688E-02  0.2405496E+05  0.3917579E+05 -0.2411015E-02 -0.9765625E-03
  0.1752381E+01  0.2507749E-02  0.5126953E-02  0.2361096E+05  0.3888000E+05  0.9020930E-02  0.3417969E-02
  0.1783333E+01 -0.6502811E-03 -0.7934570E-02  0.2320566E+05  0.3855952E+05  0.5373375E-02 -0.7690430E-02
  0.1814286E+01 -0.3599633E-02 -0.3906250E-02  0.2283069E+05  0.3821894E+05 -0.1984844E-02 -0.3173828E-02
  0.1845238E+01 -0.5358493E-02 -0.1074219E-01  0.2247139E+05  0.3785130E+05  0.9923135E-02  0.6958008E-02
  0.1876190E+01 -0.4164023E-02  0.1196289E-01  0.2215271E+05  0.3745855E+05 -0.1886823E-02 -0.3295898E-02
  0.1907143E+01 -0.1824197E-02 -0.2441406E-03  0.2186688E+05  0.3703209E+05 -0.1286539E-01 -0.3784180E-02
  0.1938095E+01 -0.5133252E-02  0.1342773E-02  0.2159581E+05  0.3659295E+05  0.1187261E-01  0.8789062E-02
  0.1969048E+01 -0.5207547E-02 -0.5371094E-02  0.2135109E+05  0.3613534E+05 -0.5796495E-02  0.1220703E-02
  0.2000000E+01 -0.6317139E-02 -0.3173828E-02  0.2113183E+05  0.3565445E+05  0.1708984E-02  0.4516602E-02
Zone t="Motion of body    1 in DoF   3",I=    64,F=POINT
  0.5000000E-01 -0.1318272E+06 -0.8926102E-02  0.1459122E-02 -0.1903668E-04  0.4466520E+06  0.1253879E-01
  0.8095238E-01 -0.1325871E+06 -0.3871403E-01 -0.1458448E-01 -0.9131935E-04  0.4472289E+06  0.5171498E-01
  0.1119048E+00 -0.1327374E+06 -0.1081316E+00  0.2417747E-01  0.1601054E-03  0.4473606E+06  0.1427138E+00
  0.1428571E+00 -0.1327760E+06 -0.2428081E+00  0.5315208E-01  0.4593011E-03  0.4474122E+06  0.3203262E+00
  0.1738095E+00 -0.1329187E+06 -0.4820264E+00 -0.4191986E-02 -0.1774030E-04  0.4474704E+06  0.6339585E+00
  0.2047619E+00 -0.1329432E+06 -0.8854669E+00 -0.1084261E-01 -0.1421534E-03  0.4475571E+06  0.1164355E+01
  0.2357143E+00 -0.1329535E+06 -0.1551862E+01  0.1059214E-01  0.1191292E-03  0.4476278E+06  0.2030998E+01
  0.2666667E+00 -0.1331499E+06 -0.2630713E+01  0.6937980E-02 -0.9071827E-04  0.4476528E+06  0.3433242E+01
  0.2976190E+00 -0.1332156E+06 -0.4384332E+01 -0.1679077E-02  0.2537668E-04  0.4477572E+06  0.5700848E+01
  0.3285715E+00 -0.1332536E+06 -0.7205671E+01  0.3962475E-01  0.1661830E-02  0.4479288E+06  0.9311348E+01
  0.3595238E+00 -0.1334621E+06 -0.1173632E+02  0.3602236E-01  0.1463331E-02  0.4479561E+06  0.1508630E+02
  0.3904762E+00 -0.1335684E+06 -0.1895243E+02  0.3299108E-01  0.1430765E-02  0.4481928E+06  0.2424178E+02
  0.4214286E+00 -0.1337662E+06 -0.3021915E+02  0.8110434E-02  0.4104972E-03  0.4483415E+06  0.3838797E+02
  0.4523810E+00 -0.1340004E+06 -0.4773161E+02 -0.7960268E-02 -0.1059055E-02  0.4484836E+06  0.6024565E+02
  0.4833333E+00 -0.1342879E+06 -0.7343097E+02  0.6313982E-03 -0.2536178E-03  0.4486405E+06  0.9200276E+02
  0.5142857E+00 -0.1344843E+06 -0.1110396E+03 -0.3223631E-01 -0.4393816E-02  0.4489956E+06  0.1381516E+03
  0.5452381E+00 -0.1347174E+06 -0.1639661E+03 -0.1199181E-01 -0.6153584E-03  0.4492401E+06  0.2022203E+03
  0.5761905E+00 -0.1351523E+06 -0.2362438E+03 -0.1120197E-01 -0.1276731E-02  0.4494542E+06  0.2888082E+03
  0.6071429E+00 -0.1355822E+06 -0.3337800E+03 -0.1450123E-01 -0.4658222E-02  0.4497821E+06  0.4047523E+03
  0.6380953E+00 -0.1358690E+06 -0.4607830E+03  0.1398912E-02 -0.3949165E-02  0.4501420E+06  0.5534192E+03
  0.6690477E+00 -0.1362589E+06 -0.6250351E+03 -0.3248819E-01 -0.9274960E-02  0.4505112E+06  0.7430828E+03
  0.7000000E+00 -0.1367714E+06 -0.8349473E+03 -0.2474104E-02 -0.4798889E-02  0.4508812E+06  0.9823168E+03
  0.7309524E+00 -0.1371871E+06 -0.1097339E+04 -0.2420481E-01 -0.5934715E-02  0.4512192E+06  0.1276243E+04
  0.7619048E+00 -0.1377991E+06 -0.1421597E+04 -0.2553463E-01 -0.6486893E-02  0.4516159E+06  0.1635425E+04
  0.7928572E+00 -0.1382257E+06 -0.1817035E+04 -0.1599286E-01 -0.7801056E-02  0.4519706E+06  0.2066657E+04
  0.8238096E+00 -0.1386586E+06 -0.2295649E+04 -0.1809622E-01 -0.1048851E-01  0.4523771E+06  0.2578372E+04
  0.8547620E+00 -0.1391249E+06 -0.2868668E+04 -0.7729703E-02 -0.4817963E-02  0.4526477E+06  0.3177940E+04
  0.8857143E+00 -0.1396951E+06 -0.3545756E+04 -0.1447124E-01 -0.1046753E-01  0.4529502E+06  0.3875299E+04
  0.9166667E+00 -0.1401661E+06 -0.4337498E+04 -0.3096147E-02 -0.5287170E-02  0.4531963E+06  0.4674709E+04
  0.9476191E+00 -0.1406341E+06 -0.5253562E+04  0.1774467E-01  0.7152557E-02  0.4533866E+06  0.5581724E+04
  0.9785714E+00 -0.1410257E+06 -0.6302664E+04  0.1521869E-01 -0.5874634E-03  0.4535448E+06  0.6598212E+04
  0.1009524E+01 -0.1414045E+06 -0.7492899E+04  0.2796245E-01  0.1882935E-01  0.4536777E+06  0.7724959E+04
  0.1040476E+01 -0.1415821E+06 -0.8831420E+04  0.3233676E-01  0.1570129E-01  0.4536329E+06  0.8955128E+04
  0.1071429E+01 -0.1418187E+06 -0.1032491E+05  0.1194865E-01 -0.1312256E-02  0.4535750E+06  0.1029258E+05
  0.1102381E+01 -0.1418887E+06 -0.1197084E+05  0.1126712E-01  0.3280640E-02  0.4533155E+06  0.1172352E+05
  0.1133333E+01 -0.1419013E+06 -0.1376674E+05 -0.1289816E-01 -0.1728821E-01  0.4529498E+06  0.1324080E+05
  0.1164286E+01 -0.1418679E+06 -0.1570125E+05  0.8335230E-02  0.1124573E-01  0.4525134E+06  0.1483178E+05
  0.1195238E+01 -0.1415943E+06 -0.1776007E+05 -0.3242645E-02 -0.5340576E-02  0.4518986E+06  0.1646758E+05
  0.1226190E+01 -0.1412424E+06 -0.1993006E+05  0.1617728E-02 -0.5493164E-03  0.4513000E+06  0.1813758E+05
  0.1257143E+01 -0.1406659E+06 -0.2218634E+05  0.1014709E-01 -0.5676270E-02  0.4505004E+06  0.1979388E+05
  0.1288095E+01 -0.1399185E+06 -0.2452077E+05  0.4264564E-02 -0.1678467E-01  0.4496493E+06  0.2141145E+05
  0.1319048E+01 -0.1390326E+06 -0.2687856E+05  0.1328010E-01  0.2435303E-01  0.4484949E+06  0.2294954E+05
  0.1350000E+01 -0.1380881E+06 -0.2924750E+05  0.1069245E-01  0.8361816E-02  0.4474129E+06  0.2442379E+05
  0.1380952E+01 -0.1368972E+06 -0.3157327E+05 -0.6165603E-02 -0.7263184E-02  0.4460441E+06  0.2575290E+05
  0.1411905E+01 -0.1364751E+06 -0.3417561E+05 -0.1428717E-01 -0.6408691E-02  0.4450112E+06  0.2730372E+05
  0.1442857E+01 -0.1351455E+06 -0.3637718E+05  0.6112580E-02 -0.1635742E-01  0.4436381E+06  0.2835986E+05
  0.1473810E+01 -0.1335993E+06 -0.3845700E+05  0.1565419E-01 -0.6591797E-02  0.4422606E+06  0.2921816E+05
  0.1504762E+01 -0.1319933E+06 -0.4036357E+05 -0.1014033E-04 -0.1159668E-02  0.4408767E+06  0.2986209E+05
  0.1535714E+01 -0.1303704E+06 -0.4204790E+05  0.3229185E-02  0.8728027E-02  0.4394203E+06  0.3024840E+05
  0.1566667E+01 -0.1287133E+06 -0.4353806E+05 -0.4889305E-02 -0.2270508E-01  0.4382154E+06  0.3049155E+05
  0.1597619E+01 -0.1268959E+06 -0.4475153E+05  0.5381964E-02  0.1470947E-01  0.4368091E+06  0.3040641E+05
  0.1628572E+01 -0.1251976E+06 -0.4575000E+05  0.2009743E-02 -0.9155273E-02  0.4356981E+06  0.3019378E+05
  0.1659524E+01 -0.1235634E+06 -0.4645770E+05  0.7148863E-03 -0.1263428E-01  0.4345751E+06  0.2970141E+05
  0.1690476E+01 -0.1218274E+06 -0.4690458E+05  0.9423202E-02  0.1708984E-02  0.4335095E+06  0.2901672E+05
  0.1721429E+01 -0.1202142E+06 -0.4710005E+05  0.7671815E-02  0.1623535E-01  0.4326208E+06  0.2820392E+05
  0.1752381E+01 -0.1186758E+06 -0.4697411E+05  0.3905297E-02  0.2062988E-01  0.4316615E+06  0.2711707E+05
  0.1783333E+01 -0.1172857E+06 -0.4664347E+05  0.9121048E-02 -0.8117676E-02  0.4309260E+06  0.2594316E+05
  0.1814286E+01 -0.1159751E+06 -0.4611545E+05 -0.1909151E-02  0.6164551E-02  0.4303873E+06  0.2474585E+05
  0.1845238E+01 -0.1146500E+06 -0.4533857E+05  0.1215584E-02 -0.2319336E-02  0.4297657E+06  0.2328416E+05
  0.1876190E+01 -0.1135224E+06 -0.4445195E+05 -0.2895297E-02 -0.1489258E-01  0.4294318E+06  0.2194546E+05
  0.1907143E+01 -0.1125479E+06 -0.4337544E+05 -0.6256675E-02 -0.1611328E-01  0.4291452E+06  0.2043185E+05
  0.1938095E+01 -0.1115793E+06 -0.4213379E+05  0.5448175E-02 -0.1098633E-01  0.4289244E+06  0.1890941E+05
  0.1969048E+01 -0.1107193E+06 -0.4079536E+05 -0.1191846E-01 -0.1953125E-01  0.4288422E+06  0.1744059E+05
  0.2000000E+01 -0.1099680E+06 -0.3931692E+05  0.1754761E-02 -0.1647949E-01  0.4287989E+06  0.1594434E+05
