VARIABLES="w (rad/s)"
"abs(F   1   1)" "angle(F   1   1)"
"abs(F   1   2)" "angle(F   1   2)"
"abs(F   1   3)" "angle(F   1   3)"
Zone t="Diffraction force - beta =   0.000 deg",I=    64,F=POINT
  0.5000000E-01  0.3415611E+04 -0.1570791E+01  0.7340427E+03 -0.3087455E+01  0.5294490E+04  0.1570799E+01
  0.8095238E-01  0.5589122E+04 -0.1570783E+01  0.1895516E+04 -0.3085459E+01  0.8664276E+04  0.1570805E+01
  0.1119048E+00  0.7839681E+04 -0.1570770E+01  0.3594133E+04 -0.3083218E+01  0.1215392E+05  0.1570814E+01
  0.1428571E+00  0.1014295E+05 -0.1570750E+01  0.5821141E+04 -0.3080352E+01  0.1574815E+05  0.1570827E+01
  0.1738095E+00  0.1258350E+05 -0.1570721E+01  0.8575336E+04 -0.3076773E+01  0.1953975E+05  0.1570846E+01
  0.2047619E+00  0.1509191E+05 -0.1570678E+01  0.1187811E+05 -0.3072407E+01  0.2348513E+05  0.1570874E+01
  0.2357143E+00  0.1785674E+05 -0.1570616E+01  0.1572526E+05 -0.3066933E+01  0.2784213E+05  0.1570915E+01
  0.2666667E+00  0.2081724E+05 -0.1570525E+01  0.2009393E+05 -0.3060270E+01  0.3249955E+05  0.1570975E+01
  0.2976190E+00  0.2397885E+05 -0.1570391E+01  0.2503546E+05 -0.3052032E+01  0.3756300E+05  0.1571063E+01
  0.3285715E+00  0.2760230E+05 -0.1570193E+01  0.3046196E+05 -0.3042118E+01  0.4327623E+05  0.1571195E+01
  0.3595238E+00  0.3150500E+05 -0.1569896E+01  0.3642251E+05 -0.3030249E+01  0.4954792E+05  0.1571392E+01
  0.3904762E+00  0.3577635E+05 -0.1569452E+01  0.4283864E+05 -0.3016255E+01  0.5639256E+05  0.1571688E+01
  0.4214286E+00  0.4072012E+05 -0.1568811E+01  0.4960074E+05 -0.3000726E+01  0.6436952E+05  0.1572118E+01
  0.4523810E+00  0.4617204E+05 -0.1567872E+01  0.5677364E+05 -0.2982893E+01  0.7312286E+05  0.1572750E+01
  0.4833333E+00  0.5213886E+05 -0.1566575E+01  0.6401193E+05 -0.2964954E+01  0.8287578E+05  0.1573624E+01
  0.5142857E+00  0.5847277E+05 -0.1564772E+01  0.7160841E+05 -0.2946238E+01  0.9335613E+05  0.1574841E+01
  0.5452381E+00  0.6578754E+05 -0.1562417E+01  0.7898526E+05 -0.2926911E+01  0.1050595E+06  0.1576452E+01
  0.5761905E+00  0.7345511E+05 -0.1559360E+01  0.8650233E+05 -0.2908792E+01  0.1176054E+06  0.1578548E+01
  0.6071429E+00  0.8147120E+05 -0.1555421E+01  0.9401252E+05 -0.2890363E+01  0.1308064E+06  0.1581259E+01
  0.6380953E+00  0.9000852E+05 -0.1550557E+01  0.1012785E+06 -0.2873081E+01  0.1449543E+06  0.1584625E+01
  0.6690477E+00  0.9907909E+05 -0.1544588E+01  0.1085586E+06 -0.2856734E+01  0.1599119E+06  0.1588782E+01
  0.7000000E+00  0.1087887E+06 -0.1537347E+01  0.1156553E+06 -0.2840505E+01  0.1758751E+06  0.1593871E+01
  0.7309524E+00  0.1190627E+06 -0.1528725E+01  0.1223201E+06 -0.2824583E+01  0.1927587E+06  0.1599988E+01
  0.7619048E+00  0.1293506E+06 -0.1518408E+01  0.1288657E+06 -0.2809755E+01  0.2099461E+06  0.1607325E+01
  0.7928572E+00  0.1398608E+06 -0.1506263E+01  0.1353436E+06 -0.2796369E+01  0.2278902E+06  0.1615978E+01
  0.8238096E+00  0.1507973E+06 -0.1492241E+01  0.1409922E+06 -0.2781775E+01  0.2457897E+06  0.1626084E+01
  0.8547620E+00  0.1626812E+06 -0.1476427E+01  0.1464262E+06 -0.2768175E+01  0.2657119E+06  0.1637532E+01
  0.8857143E+00  0.1744600E+06 -0.1458285E+01  0.1515494E+06 -0.2755627E+01  0.2854360E+06  0.1650783E+01
  0.9166667E+00  0.1862275E+06 -0.1437721E+01  0.1565842E+06 -0.2745076E+01  0.3057467E+06  0.1665825E+01
  0.9476191E+00  0.1978243E+06 -0.1414678E+01  0.1605274E+06 -0.2732765E+01  0.3248561E+06  0.1682873E+01
  0.9785714E+00  0.2094015E+06 -0.1389195E+01  0.1641476E+06 -0.2721328E+01  0.3451444E+06  0.1701676E+01
  0.1009524E+01  0.2200924E+06 -0.1360966E+01  0.1674127E+06 -0.2710987E+01  0.3640204E+06  0.1722475E+01
  0.1040476E+01  0.2302215E+06 -0.1330342E+01  0.1703738E+06 -0.2701996E+01  0.3822549E+06  0.1744973E+01
  0.1071429E+01  0.2400505E+06 -0.1297857E+01  0.1727710E+06 -0.2693435E+01  0.3996095E+06  0.1768791E+01
  0.1102381E+01  0.2489222E+06 -0.1263115E+01  0.1742765E+06 -0.2683935E+01  0.4149864E+06  0.1794439E+01
  0.1133333E+01  0.2567803E+06 -0.1226398E+01  0.1754314E+06 -0.2675178E+01  0.4302219E+06  0.1821276E+01
  0.1164286E+01  0.2626514E+06 -0.1187488E+01  0.1762099E+06 -0.2667551E+01  0.4421656E+06  0.1849427E+01
  0.1195238E+01  0.2667695E+06 -0.1147049E+01  0.1766479E+06 -0.2661078E+01  0.4516690E+06  0.1878254E+01
  0.1226190E+01  0.2693178E+06 -0.1105988E+01  0.1767282E+06 -0.2655853E+01  0.4590421E+06  0.1906796E+01
  0.1257143E+01  0.2697235E+06 -0.1064036E+01  0.1757452E+06 -0.2648722E+01  0.4616259E+06  0.1935525E+01
  0.1288095E+01  0.2686312E+06 -0.1022419E+01  0.1744006E+06 -0.2642710E+01  0.4629752E+06  0.1963391E+01
  0.1319048E+01  0.2651285E+06 -0.9803696E+00  0.1727056E+06 -0.2637082E+01  0.4610629E+06  0.1990310E+01
  0.1350000E+01  0.2592566E+06 -0.9385636E+00  0.1706939E+06 -0.2632583E+01  0.4550835E+06  0.2015618E+01
  0.1380952E+01  0.2515475E+06 -0.8978323E+00  0.1684096E+06 -0.2629229E+01  0.4467104E+06  0.2038523E+01
  0.1411905E+01  0.2414301E+06 -0.8564963E+00  0.1658762E+06 -0.2626598E+01  0.4354630E+06  0.2059652E+01
  0.1442857E+01  0.2298672E+06 -0.8179691E+00  0.1624163E+06 -0.2622999E+01  0.4200839E+06  0.2076919E+01
  0.1473810E+01  0.2168315E+06 -0.7811391E+00  0.1586579E+06 -0.2620081E+01  0.4026388E+06  0.2090431E+01
  0.1504762E+01  0.2027356E+06 -0.7466745E+00  0.1547054E+06 -0.2617706E+01  0.3848215E+06  0.2099590E+01
  0.1535714E+01  0.1869444E+06 -0.7133094E+00  0.1505350E+06 -0.2615926E+01  0.3641067E+06  0.2104185E+01
  0.1566667E+01  0.1698999E+06 -0.6816456E+00  0.1461817E+06 -0.2615178E+01  0.3414063E+06  0.2103040E+01
  0.1597619E+01  0.1520855E+06 -0.6519207E+00  0.1416953E+06 -0.2615168E+01  0.3183730E+06  0.2095615E+01
  0.1628572E+01  0.1335475E+06 -0.6240268E+00  0.1370691E+06 -0.2616113E+01  0.2947894E+06  0.2080519E+01
  0.1659524E+01  0.1142415E+06 -0.5993184E+00  0.1319056E+06 -0.2616321E+01  0.2692272E+06  0.2054199E+01
  0.1690476E+01  0.9444030E+05 -0.5781001E+00  0.1265813E+06 -0.2617255E+01  0.2434107E+06  0.2014864E+01
  0.1721429E+01  0.7457670E+05 -0.5619471E+00  0.1212715E+06 -0.2618902E+01  0.2194573E+06  0.1961869E+01
  0.1752381E+01  0.5439999E+05 -0.5531532E+00  0.1158925E+06 -0.2620794E+01  0.1964084E+06  0.1889427E+01
  0.1783333E+01  0.3398104E+05 -0.5630999E+00  0.1104481E+06 -0.2623156E+01  0.1748396E+06  0.1791283E+01
  0.1814286E+01  0.1360217E+05 -0.6736904E+00  0.1049888E+06 -0.2626416E+01  0.1560524E+06  0.1661471E+01
  0.1845238E+01  0.7719589E+04  0.3111090E+01  0.9949952E+05 -0.2630313E+01  0.1418363E+06  0.1500489E+01
  0.1876190E+01  0.2750103E+05  0.2842479E+01  0.9390752E+05 -0.2635063E+01  0.1330363E+06  0.1310164E+01
  0.1907143E+01  0.4749876E+05  0.2819857E+01  0.8827720E+05 -0.2640191E+01  0.1304829E+06  0.1096693E+01
  0.1938095E+01  0.6727140E+05  0.2823815E+01  0.8268541E+05 -0.2646273E+01  0.1347994E+06  0.8854963E+00
  0.1969048E+01  0.8649374E+05  0.2835774E+01  0.7720223E+05 -0.2654233E+01  0.1449032E+06  0.7059125E+00
  0.2000000E+01  0.1050385E+06  0.2851947E+01  0.7184880E+05 -0.2662757E+01  0.1590918E+06  0.5635147E+00
