VARIABLES="w (rad/s)"
"abs(F   1   1)" "angle(F   1   1)"
"abs(F   1   2)" "angle(F   1   2)"
"abs(F   1   3)" "angle(F   1   3)"
Zone t="Diffraction force - beta =   0.000 deg",I=    64,F=POINT
  0.5000000E-01  0.4432276E+04 -0.1570792E+01  0.4833120E+06 -0.3221025E-04  0.4175826E+04  0.1570836E+01
  0.8095238E-01  0.7231041E+04 -0.1570792E+01  0.4821301E+06 -0.8659498E-04  0.6798474E+04  0.1570824E+01
  0.1119048E+00  0.1010060E+05 -0.1570792E+01  0.4803931E+06 -0.1717803E-03  0.9496309E+04  0.1570819E+01
  0.1428571E+00  0.1307250E+05 -0.1570786E+01  0.4781046E+06 -0.2941868E-03  0.1230294E+05  0.1570818E+01
  0.1738095E+00  0.1618872E+05 -0.1570782E+01  0.4752613E+06 -0.4633410E-03  0.1524034E+05  0.1570821E+01
  0.2047619E+00  0.1944401E+05 -0.1570773E+01  0.4718551E+06 -0.6931975E-03  0.1832638E+05  0.1570823E+01
  0.2357143E+00  0.2297239E+05 -0.1570760E+01  0.4679041E+06 -0.1004240E-02  0.2165964E+05  0.1570836E+01
  0.2666667E+00  0.2672166E+05 -0.1570743E+01  0.4633840E+06 -0.1420648E-02  0.2521311E+05  0.1570855E+01
  0.2976190E+00  0.3080028E+05 -0.1570714E+01  0.4583185E+06 -0.1985124E-02  0.2911634E+05  0.1570884E+01
  0.3285715E+00  0.3532770E+05 -0.1570673E+01  0.4526872E+06 -0.2738432E-02  0.3341096E+05  0.1570923E+01
  0.3595238E+00  0.4032045E+05 -0.1570612E+01  0.4465457E+06 -0.3748616E-02  0.3819006E+05  0.1570984E+01
  0.3904762E+00  0.4577197E+05 -0.1570518E+01  0.4398401E+06 -0.5087296E-02  0.4342570E+05  0.1571076E+01
  0.4214286E+00  0.5192856E+05 -0.1570382E+01  0.4327336E+06 -0.6800687E-02  0.4934811E+05  0.1571213E+01
  0.4523810E+00  0.5871804E+05 -0.1570179E+01  0.4250935E+06 -0.9018748E-02  0.5588770E+05  0.1571415E+01
  0.4833333E+00  0.6616852E+05 -0.1569897E+01  0.4171761E+06 -0.1166775E-01  0.6305061E+05  0.1571698E+01
  0.5142857E+00  0.7419197E+05 -0.1569501E+01  0.4088646E+06 -0.1490464E-01  0.7086616E+05  0.1572094E+01
  0.5452381E+00  0.8294686E+05 -0.1568967E+01  0.4002379E+06 -0.1866649E-01  0.7932791E+05  0.1572627E+01
  0.5761905E+00  0.9238856E+05 -0.1568267E+01  0.3914102E+06 -0.2296017E-01  0.8855588E+05  0.1573327E+01
  0.6071429E+00  0.1022570E+06 -0.1567352E+01  0.3822570E+06 -0.2791115E-01  0.9819341E+05  0.1574242E+01
  0.6380953E+00  0.1126430E+06 -0.1566197E+01  0.3729813E+06 -0.3336299E-01  0.1083407E+06  0.1575397E+01
  0.6690477E+00  0.1236249E+06 -0.1564745E+01  0.3635315E+06 -0.3946691E-01  0.1192608E+06  0.1576850E+01
  0.7000000E+00  0.1351860E+06 -0.1562935E+01  0.3538556E+06 -0.4627324E-01  0.1306494E+06  0.1578661E+01
  0.7309524E+00  0.1472743E+06 -0.1560719E+01  0.3441574E+06 -0.5370053E-01  0.1424987E+06  0.1580877E+01
  0.7619048E+00  0.1598745E+06 -0.1558025E+01  0.3343992E+06 -0.6184983E-01  0.1550942E+06  0.1583574E+01
  0.7928572E+00  0.1727618E+06 -0.1554777E+01  0.3245314E+06 -0.7071732E-01  0.1679983E+06  0.1586825E+01
  0.8238096E+00  0.1860956E+06 -0.1550898E+01  0.3145549E+06 -0.8031724E-01  0.1814725E+06  0.1590707E+01
  0.8547620E+00  0.2001650E+06 -0.1546311E+01  0.3048127E+06 -0.9069947E-01  0.1954196E+06  0.1595296E+01
  0.8857143E+00  0.2148368E+06 -0.1540916E+01  0.2950359E+06 -0.1018742E+00  0.2103003E+06  0.1600694E+01
  0.9166667E+00  0.2297929E+06 -0.1534625E+01  0.2851974E+06 -0.1137969E+00  0.2253817E+06  0.1606995E+01
  0.9476191E+00  0.2450763E+06 -0.1527337E+01  0.2753486E+06 -0.1264993E+00  0.2409437E+06  0.1614294E+01
  0.9785714E+00  0.2606941E+06 -0.1518972E+01  0.2659176E+06 -0.1400201E+00  0.2566142E+06  0.1622674E+01
  0.1009524E+01  0.2767359E+06 -0.1509429E+01  0.2565151E+06 -0.1544195E+00  0.2732574E+06  0.1632237E+01
  0.1040476E+01  0.2928069E+06 -0.1498630E+01  0.2471828E+06 -0.1696468E+00  0.2897934E+06  0.1643055E+01
  0.1071429E+01  0.3092452E+06 -0.1486504E+01  0.2378854E+06 -0.1857565E+00  0.3066812E+06  0.1655193E+01
  0.1102381E+01  0.3258971E+06 -0.1472964E+01  0.2287660E+06 -0.2027093E+00  0.3237667E+06  0.1668746E+01
  0.1133333E+01  0.3425160E+06 -0.1457969E+01  0.2200827E+06 -0.2205179E+00  0.3406166E+06  0.1683780E+01
  0.1164286E+01  0.3591224E+06 -0.1441504E+01  0.2115011E+06 -0.2393423E+00  0.3579866E+06  0.1700302E+01
  0.1195238E+01  0.3749540E+06 -0.1423583E+01  0.2030436E+06 -0.2591206E+00  0.3744606E+06  0.1718279E+01
  0.1226190E+01  0.3900255E+06 -0.1404279E+01  0.1947021E+06 -0.2799199E+00  0.3902097E+06  0.1737663E+01
  0.1257143E+01  0.4040665E+06 -0.1383715E+01  0.1864688E+06 -0.3019496E+00  0.4052356E+06  0.1758325E+01
  0.1288095E+01  0.4176099E+06 -0.1362096E+01  0.1787812E+06 -0.3245097E+00  0.4192951E+06  0.1780029E+01
  0.1319048E+01  0.4298444E+06 -0.1339615E+01  0.1713621E+06 -0.3482597E+00  0.4320797E+06  0.1802589E+01
  0.1350000E+01  0.4410706E+06 -0.1316448E+01  0.1641210E+06 -0.3732921E+00  0.4441827E+06  0.1825846E+01
  0.1380952E+01  0.4505489E+06 -0.1292864E+01  0.1570575E+06 -0.3994507E+00  0.4542278E+06  0.1849497E+01
  0.1411905E+01  0.4575913E+06 -0.1269141E+01  0.1502097E+06 -0.4267955E+00  0.4619568E+06  0.1873389E+01
  0.1442857E+01  0.4632926E+06 -0.1245868E+01  0.1435276E+06 -0.4555106E+00  0.4684099E+06  0.1896876E+01
  0.1473810E+01  0.4669287E+06 -0.1223368E+01  0.1372920E+06 -0.4850272E+00  0.4723400E+06  0.1919550E+01
  0.1504762E+01  0.4686583E+06 -0.1202104E+01  0.1315118E+06 -0.5151673E+00  0.4739535E+06  0.1940920E+01
  0.1535714E+01  0.4688045E+06 -0.1182169E+01  0.1259566E+06 -0.5466776E+00  0.4746004E+06  0.1961097E+01
  0.1566667E+01  0.4671388E+06 -0.1164108E+01  0.1206659E+06 -0.5790832E+00  0.4733332E+06  0.1979362E+01
  0.1597619E+01  0.4636121E+06 -0.1148148E+01  0.1156315E+06 -0.6122679E+00  0.4699330E+06  0.1995575E+01
  0.1628572E+01  0.4584392E+06 -0.1134616E+01  0.1108414E+06 -0.6461909E+00  0.4647065E+06  0.2009345E+01
  0.1659524E+01  0.4519708E+06 -0.1123545E+01  0.1062713E+06 -0.6806199E+00  0.4583684E+06  0.2020870E+01
  0.1690476E+01  0.4444129E+06 -0.1115254E+01  0.1020114E+06 -0.7145950E+00  0.4507040E+06  0.2029494E+01
  0.1721429E+01  0.4359191E+06 -0.1110001E+01  0.9822557E+05 -0.7465379E+00  0.4414789E+06  0.2034813E+01
  0.1752381E+01  0.4268819E+06 -0.1107538E+01  0.9459427E+05 -0.7773942E+00  0.4318240E+06  0.2037357E+01
  0.1783333E+01  0.4174518E+06 -0.1107744E+01  0.9110910E+05 -0.8075077E+00  0.4222075E+06  0.2037596E+01
  0.1814286E+01  0.4072337E+06 -0.1111081E+01  0.8774073E+05 -0.8359813E+00  0.4115370E+06  0.2034687E+01
  0.1845238E+01  0.3966711E+06 -0.1117477E+01  0.8442129E+05 -0.8624416E+00  0.4003569E+06  0.2028660E+01
  0.1876190E+01  0.3859371E+06 -0.1126977E+01  0.8106555E+05 -0.8873773E+00  0.3888711E+06  0.2019459E+01
  0.1907143E+01  0.3752780E+06 -0.1139258E+01  0.7765898E+05 -0.9109933E+00  0.3776045E+06  0.2007562E+01
  0.1938095E+01  0.3646370E+06 -0.1153999E+01  0.7419723E+05 -0.9332835E+00  0.3664228E+06  0.1993312E+01
  0.1969048E+01  0.3541651E+06 -0.1171759E+01  0.7083184E+05 -0.9523441E+00  0.3549474E+06  0.1975365E+01
  0.2000000E+01  0.3439573E+06 -0.1192329E+01  0.6742084E+05 -0.9701769E+00  0.3435965E+06  0.1954363E+01
