VARIABLES="w (rad/s)"
"A   1   1" "B   1   1"
"A   1   2" "B   1   2"
"A   1   3" "B   1   3"
Zone t="Motion of body    1 in DoF   1",I=    64,F=POINT
  0.5000000E-01  0.5435901E+05  0.4197893E-02 -0.6752014E-02 -0.1878664E-04  0.9613004E+03  0.9524388E-04
  0.8095238E-01  0.5459719E+05  0.1843620E-01 -0.1203986E-01 -0.4446102E-04  0.9566931E+03  0.4133749E-03
  0.1119048E+00  0.5473684E+05  0.5185329E-01  0.4874696E-02  0.4764908E-05  0.9611011E+03  0.1170031E-02
  0.1428571E+00  0.5496651E+05  0.1168243E+00 -0.5140305E-02 -0.4374175E-04  0.9617095E+03  0.2634990E-02
  0.1738095E+00  0.5492198E+05  0.2325165E+00 -0.4993073E-02 -0.9305013E-04  0.9660667E+03  0.5267594E-02
  0.2047619E+00  0.5510444E+05  0.4293857E+00  0.5169802E-02  0.4634599E-04  0.9661020E+03  0.9764256E-02
  0.2357143E+00  0.5524979E+05  0.7567955E+00 -0.5550962E-02 -0.7631350E-04  0.9788795E+03  0.1731927E-01
  0.2666667E+00  0.5527047E+05  0.1291490E+01  0.3046989E-02  0.1747394E-04  0.9779347E+03  0.2969393E-01
  0.2976190E+00  0.5547698E+05  0.2168643E+01  0.8100586E-02  0.9686546E-04  0.9858893E+03  0.5018767E-01
  0.3285715E+00  0.5570749E+05  0.3593378E+01 -0.1839016E-01 -0.6088223E-03  0.9999465E+03  0.8389612E-01
  0.3595238E+00  0.5578340E+05  0.5902606E+01 -0.1061042E-04 -0.9935722E-04  0.1007438E+04  0.1389677E+00
  0.3904762E+00  0.5599709E+05  0.9634616E+01 -0.8069480E-02 -0.3015473E-03  0.1015269E+04  0.2287378E+00
  0.4214286E+00  0.5637054E+05  0.1553113E+02  0.2045712E-02  0.3072582E-03  0.1048093E+04  0.3741239E+00
  0.4523810E+00  0.5660997E+05  0.2479843E+02 -0.5059493E-02 -0.6511807E-03  0.1049930E+04  0.6017194E+00
  0.4833333E+00  0.5673438E+05  0.3859192E+02 -0.8523875E-02 -0.7198006E-03  0.1053205E+04  0.9452375E+00
  0.5142857E+00  0.5715605E+05  0.5916564E+02 -0.5666945E-02 -0.7549971E-03  0.1079853E+04  0.1468745E+01
  0.5452381E+00  0.5761347E+05  0.8857462E+02 -0.1151606E-01 -0.9691417E-03  0.1105537E+04  0.2228385E+01
  0.5761905E+00  0.5793621E+05  0.1293888E+03 -0.8527266E-02 -0.6498694E-03  0.1120854E+04  0.3295579E+01
  0.6071429E+00  0.5821061E+05  0.1854476E+03  0.2412684E-02 -0.4403591E-03  0.1122685E+04  0.4766897E+01
  0.6380953E+00  0.5867633E+05  0.2601600E+03 -0.1158586E-01 -0.2027512E-02  0.1149015E+04  0.6785642E+01
  0.6690477E+00  0.5928066E+05  0.3589628E+03  0.3888547E-02  0.1149774E-02  0.1188226E+04  0.9525323E+01
  0.7000000E+00  0.5987646E+05  0.4878160E+03 -0.1191275E-01 -0.1815557E-02  0.1217877E+04  0.1313755E+02
  0.7309524E+00  0.6032909E+05  0.6521237E+03  0.1085511E-02  0.1029015E-02  0.1228690E+04  0.1777469E+02
  0.7619048E+00  0.6079873E+05  0.8601943E+03 -0.9382724E-02 -0.4574537E-02  0.1252433E+04  0.2380441E+02
  0.7928572E+00  0.6145489E+05  0.1121550E+04  0.3031137E-02  0.5919933E-03  0.1287624E+04  0.3154041E+02
  0.8238096E+00  0.6220453E+05  0.1446061E+04 -0.3593312E-02 -0.1399755E-02  0.1322846E+04  0.4131232E+02
  0.8547620E+00  0.6295483E+05  0.1844362E+04  0.5176937E-03 -0.6952286E-03  0.1367817E+04  0.5366080E+02
  0.8857143E+00  0.6372298E+05  0.2329101E+04 -0.4427510E-02 -0.1276970E-02  0.1415474E+04  0.6906597E+02
  0.9166667E+00  0.6441114E+05  0.2912212E+04 -0.5143599E-02 -0.4765511E-02  0.1442294E+04  0.8768398E+02
  0.9476191E+00  0.6505865E+05  0.3607522E+04 -0.3558595E-02 -0.3572464E-02  0.1468100E+04  0.1102499E+03
  0.9785714E+00  0.6577922E+05  0.4430433E+04 -0.6330727E-02 -0.4369736E-02  0.1508828E+04  0.1377613E+03
  0.1009524E+01  0.6658854E+05  0.5396667E+04 -0.5169275E-02  0.6685257E-03  0.1562671E+04  0.1710688E+03
  0.1040476E+01  0.6743145E+05  0.6521828E+04  0.3519647E-03  0.3795624E-03  0.1615924E+04  0.2107543E+03
  0.1071429E+01  0.6824281E+05  0.7820674E+04 -0.9726970E-02 -0.1285553E-02  0.1667997E+04  0.2575016E+03
  0.1102381E+01  0.6899773E+05  0.9308362E+04  0.4969158E-02  0.2210617E-02  0.1716749E+04  0.3122525E+03
  0.1133333E+01  0.6960799E+05  0.1099546E+05 -0.7539637E-03  0.1840591E-02  0.1759781E+04  0.3759798E+03
  0.1164286E+01  0.7011796E+05  0.1289402E+05 -0.6946025E-03  0.1327515E-02  0.1798700E+04  0.4495692E+03
  0.1195238E+01  0.7054757E+05  0.1500945E+05 -0.7595959E-02  0.5512238E-03  0.1839223E+04  0.5335151E+03
  0.1226190E+01  0.7092130E+05  0.1734295E+05  0.5475387E-02 -0.6408691E-03  0.1877642E+04  0.6280003E+03
  0.1257143E+01  0.7115709E+05  0.1990198E+05  0.3981157E-02 -0.9765625E-03  0.1907718E+04  0.7333182E+03
  0.1288095E+01  0.7134641E+05  0.2265701E+05 -0.3992105E-02  0.4539490E-03  0.1946281E+04  0.8517898E+03
  0.1319048E+01  0.7133268E+05  0.2562351E+05 -0.1014517E-01 -0.1338577E-01  0.1977821E+04  0.9833637E+03
  0.1350000E+01  0.7116680E+05  0.2877964E+05 -0.3809046E-02 -0.7843018E-02  0.2006688E+04  0.1128218E+04
  0.1380952E+01  0.7083998E+05  0.3209687E+05 -0.5812020E-02 -0.3311157E-02  0.2028689E+04  0.1284178E+04
  0.1411905E+01  0.7003520E+05  0.3535650E+05 -0.3425894E-02 -0.1150131E-01  0.2003169E+04  0.1437664E+04
  0.1442857E+01  0.6934335E+05  0.3887592E+05 -0.2813056E-02  0.3509521E-03  0.2000761E+04  0.1610181E+04
  0.1473810E+01  0.6848953E+05  0.4245837E+05 -0.4969583E-02 -0.2487183E-02  0.1993394E+04  0.1793503E+04
  0.1504762E+01  0.6743559E+05  0.4606652E+05 -0.2758171E-02 -0.4928589E-02  0.1981743E+04  0.1987658E+04
  0.1535714E+01  0.6623071E+05  0.4965912E+05  0.2235590E-02  0.7820129E-02  0.1964307E+04  0.2188034E+04
  0.1566667E+01  0.6488760E+05  0.5319032E+05 -0.3759506E-02 -0.5485535E-02  0.1941826E+04  0.2394542E+04
  0.1597619E+01  0.6341499E+05  0.5662165E+05 -0.4794580E-02 -0.8758545E-02  0.1906983E+04  0.2601607E+04
  0.1628572E+01  0.6182677E+05  0.5992056E+05 -0.4750302E-02 -0.6187439E-02  0.1863883E+04  0.2809217E+04
  0.1659524E+01  0.6012308E+05  0.6305984E+05 -0.1986051E-02 -0.9277344E-02  0.1809518E+04  0.3015798E+04
  0.1690476E+01  0.5835326E+05  0.6601252E+05 -0.3682741E-02 -0.6004333E-02  0.1752521E+04  0.3221403E+04
  0.1721429E+01  0.5651464E+05  0.6875751E+05  0.2083046E-02 -0.1731873E-02  0.1691136E+04  0.3425656E+04
  0.1752381E+01  0.5464434E+05  0.7127695E+05 -0.5363796E-02 -0.1480103E-02  0.1626402E+04  0.3625930E+04
  0.1783333E+01  0.5275786E+05  0.7356162E+05  0.1309119E-02 -0.2670288E-02  0.1554547E+04  0.3820930E+04
  0.1814286E+01  0.5088148E+05  0.7560341E+05 -0.2127820E-02 -0.5607605E-02  0.1482123E+04  0.4011158E+04
  0.1845238E+01  0.4903230E+05  0.7740343E+05 -0.4051947E-03 -0.1378632E-01  0.1403550E+04  0.4193290E+04
  0.1876190E+01  0.4721748E+05  0.7896226E+05  0.4684526E-02 -0.1300812E-01  0.1323327E+04  0.4364685E+04
  0.1907143E+01  0.4543043E+05  0.8029135E+05 -0.4160449E-03 -0.1159668E-01  0.1239525E+04  0.4524005E+04
  0.1938095E+01  0.4370395E+05  0.8140188E+05  0.2102114E-02 -0.1000977E-01  0.1156519E+04  0.4675275E+04
  0.1969048E+01  0.4203219E+05  0.8230151E+05 -0.4494608E-03 -0.1014709E-01  0.1073352E+04  0.4821878E+04
  0.2000000E+01  0.4041118E+05  0.8300221E+05 -0.4730225E-03 -0.4333496E-02  0.9922618E+03  0.4963994E+04
Zone t="Motion of body    1 in DoF   2",I=    64,F=POINT
  0.5000000E-01  0.5893707E-02  0.1788139E-05  0.9410127E+05  0.2409983E+03 -0.5397797E-02 -0.2121925E-04
  0.8095238E-01  0.8894416E-02 -0.4315376E-04  0.9306685E+05  0.3996471E+03 -0.6479375E-02 -0.3063679E-04
  0.1119048E+00 -0.2130549E-02  0.4768372E-05  0.9247473E+05  0.5724155E+03 -0.6289381E-02 -0.4911423E-04
  0.1428571E+00 -0.1024055E-01  0.5233288E-04  0.9217211E+05  0.7658668E+03 -0.7343292E-02 -0.6401539E-04
  0.1738095E+00 -0.8976557E-02  0.9799004E-04  0.9208609E+05  0.9883220E+03 -0.6715957E-02 -0.7534027E-04
  0.2047619E+00 -0.2189015E-02 -0.1147985E-03  0.9220591E+05  0.1250133E+04 -0.6017463E-02 -0.9512901E-04
  0.2357143E+00  0.9337916E-02 -0.2720356E-03  0.9242540E+05  0.1565859E+04 -0.6813280E-02 -0.1301765E-03
  0.2666667E+00 -0.6651878E-02 -0.1294613E-03  0.9277762E+05  0.1947922E+04 -0.6093978E-02 -0.1282692E-03
  0.2976190E+00  0.6857300E-02  0.1931190E-03  0.9320512E+05  0.2423647E+04 -0.4973145E-02 -0.2098083E-03
  0.3285715E+00 -0.8591360E-02 -0.2229214E-03  0.9368093E+05  0.3007981E+04 -0.5990732E-02 -0.2555847E-03
  0.3595238E+00  0.3352891E-02  0.1955032E-03  0.9413223E+05  0.3733536E+04 -0.7130199E-02 -0.3280640E-03
  0.3904762E+00 -0.6994851E-02  0.1897812E-03  0.9460021E+05  0.4625750E+04 -0.7092545E-02 -0.3824234E-03
  0.4214286E+00  0.3331071E-02  0.6322861E-03  0.9479369E+05  0.5675570E+04 -0.6100929E-02 -0.4920959E-03
  0.4523810E+00  0.3221211E-02  0.4272461E-03  0.9490509E+05  0.6936741E+04 -0.6206311E-02 -0.4711151E-03
  0.4833333E+00  0.9470972E-03  0.1258850E-03  0.9471173E+05  0.8306508E+04 -0.4893336E-02 -0.7991791E-03
  0.5142857E+00 -0.7773506E-02 -0.3433228E-04  0.9429901E+05  0.9849343E+04 -0.7002089E-02 -0.8487701E-03
  0.5452381E+00 -0.5317255E-03 -0.1659393E-03  0.9365873E+05  0.1148300E+05 -0.4981428E-02 -0.9346008E-03
  0.5761905E+00 -0.2277469E-02 -0.5760193E-03  0.9281885E+05  0.1317740E+05 -0.5402368E-02 -0.1228333E-02
  0.6071429E+00 -0.1413682E-01 -0.2136230E-03  0.9179530E+05  0.1497202E+05 -0.4322725E-02 -0.8354187E-03
  0.6380953E+00 -0.2223911E-02  0.2424240E-02  0.9069339E+05  0.1676354E+05 -0.5739126E-02 -0.1354218E-02
  0.6690477E+00 -0.3911354E-02  0.5817413E-03  0.8945680E+05  0.1859278E+05 -0.6910439E-02 -0.2300262E-02
  0.7000000E+00 -0.1525879E-02  0.3231049E-02  0.8807536E+05  0.2046447E+05 -0.4316057E-02 -0.2086639E-02
  0.7309524E+00 -0.1193019E-01 -0.5378723E-03  0.8664308E+05  0.2232184E+05 -0.6867946E-02 -0.2223969E-02
  0.7619048E+00 -0.6919384E-02 -0.4446030E-02  0.8514983E+05  0.2417460E+05 -0.6048202E-02 -0.1937866E-02
  0.7928572E+00 -0.5879445E-02 -0.3261566E-02  0.8358765E+05  0.2601577E+05 -0.4156989E-02 -0.2761841E-02
  0.8238096E+00 -0.1824440E-02 -0.2990723E-02  0.8196466E+05  0.2783070E+05 -0.3741490E-02 -0.2227783E-02
  0.8547620E+00 -0.1112149E-01 -0.4219055E-02  0.8029330E+05  0.2960472E+05 -0.5480413E-02 -0.2708435E-02
  0.8857143E+00  0.5108003E-02 -0.5634308E-02  0.7860982E+05  0.3132337E+05 -0.4410282E-02 -0.3173828E-02
  0.9166667E+00 -0.8988813E-03  0.5455017E-03  0.7691529E+05  0.3297693E+05 -0.4427823E-02 -0.4173279E-02
  0.9476191E+00 -0.4186582E-03 -0.1287079E-01  0.7519523E+05  0.3456059E+05 -0.4057764E-02 -0.2929688E-02
  0.9785714E+00 -0.7125966E-02 -0.1464844E-02  0.7346512E+05  0.3606754E+05 -0.5847346E-02 -0.3570557E-02
  0.1009524E+01 -0.4413533E-02  0.1678467E-02  0.7175690E+05  0.3748822E+05 -0.3536872E-02 -0.3776550E-02
  0.1040476E+01 -0.8102521E-02  0.4398346E-02  0.7007253E+05  0.3881389E+05 -0.5162150E-02 -0.3509521E-02
  0.1071429E+01 -0.2898153E-02 -0.6523132E-03  0.6840193E+05  0.4004302E+05 -0.4243978E-02 -0.3868103E-02
  0.1102381E+01 -0.5086812E-02 -0.1304626E-02  0.6676004E+05  0.4116952E+05 -0.3723408E-02 -0.4379272E-02
  0.1133333E+01 -0.2793705E-02  0.1811981E-02  0.6513673E+05  0.4219655E+05 -0.4308364E-02 -0.3524780E-02
  0.1164286E+01  0.0000000E+00  0.2563477E-02  0.6357823E+05  0.4311271E+05 -0.3315744E-02 -0.4287720E-02
  0.1195238E+01 -0.1181523E-01 -0.4844666E-03  0.6207286E+05  0.4391505E+05 -0.3727765E-02 -0.4745483E-02
  0.1226190E+01 -0.7690430E-02  0.2716064E-02  0.6061978E+05  0.4461257E+05 -0.3745663E-02 -0.4829407E-02
  0.1257143E+01 -0.5486228E-02 -0.4684448E-02  0.5922427E+05  0.4523511E+05 -0.2925179E-02 -0.4257202E-02
  0.1288095E+01 -0.3500496E-02  0.2513885E-02  0.5785614E+05  0.4570188E+05 -0.3245807E-02 -0.4554749E-02
  0.1319048E+01 -0.2481343E-02 -0.7564545E-02  0.5655412E+05  0.4609562E+05 -0.2776328E-02 -0.5592346E-02
  0.1350000E+01 -0.3503870E-02 -0.3967285E-02  0.5531951E+05  0.4638626E+05 -0.2938730E-02 -0.5256653E-02
  0.1380952E+01 -0.1933657E-02 -0.3898621E-02  0.5415538E+05  0.4656436E+05 -0.2751318E-02 -0.5996704E-02
  0.1411905E+01 -0.1091531E-02 -0.1661301E-01  0.5304638E+05  0.4672055E+05 -0.3361051E-02 -0.6752014E-02
  0.1442857E+01 -0.1226746E-02 -0.2162933E-02  0.5199752E+05  0.4672819E+05 -0.2971687E-02 -0.5935669E-02
  0.1473810E+01  0.4244852E-03 -0.7247925E-04  0.5100321E+05  0.4665078E+05 -0.3530474E-02 -0.6179810E-02
  0.1504762E+01 -0.8720687E-03 -0.3787994E-02  0.5005844E+05  0.4649505E+05 -0.3488275E-02 -0.4562378E-02
  0.1535714E+01 -0.3268929E-02  0.4478455E-02  0.4918560E+05  0.4625914E+05 -0.2404501E-02 -0.6103516E-02
  0.1566667E+01 -0.5230193E-02 -0.3360748E-02  0.4837847E+05  0.4594841E+05 -0.2473872E-02 -0.7354736E-02
  0.1597619E+01 -0.4460297E-02 -0.1018906E-01  0.4763043E+05  0.4556411E+05 -0.2158516E-02 -0.6263733E-02
  0.1628572E+01  0.1414784E-02  0.3211975E-02  0.4693111E+05  0.4511626E+05 -0.2585963E-02 -0.5851746E-02
  0.1659524E+01  0.3852570E-02 -0.1934052E-02  0.4628990E+05  0.4460922E+05 -0.1710210E-02 -0.5668640E-02
  0.1690476E+01 -0.3700793E-03 -0.8956909E-02  0.4569800E+05  0.4404580E+05 -0.1678896E-02 -0.5798340E-02
  0.1721429E+01 -0.2171687E-02 -0.3726959E-02  0.4514296E+05  0.4343773E+05 -0.1595525E-02 -0.5317688E-02
  0.1752381E+01 -0.4702029E-03 -0.1188660E-01  0.4464518E+05  0.4277729E+05 -0.6791820E-03 -0.6370544E-02
  0.1783333E+01 -0.1882393E-03 -0.4550934E-02  0.4420127E+05  0.4208579E+05 -0.1865280E-02 -0.5748749E-02
  0.1814286E+01 -0.2094179E-02 -0.3887177E-02  0.4380646E+05  0.4135031E+05 -0.2136230E-02 -0.5950928E-02
  0.1845238E+01 -0.9096207E-03 -0.7419586E-02  0.4345106E+05  0.4057749E+05 -0.9261593E-03 -0.5363464E-02
  0.1876190E+01 -0.6107776E-02  0.3662109E-02  0.4312974E+05  0.3977370E+05 -0.1301257E-02 -0.5298615E-02
  0.1907143E+01 -0.1088117E-02 -0.1024246E-02  0.4285069E+05  0.3894386E+05 -0.6720725E-03 -0.6317139E-02
  0.1938095E+01  0.6629138E-02 -0.3744125E-02  0.4260564E+05  0.3809329E+05 -0.1495886E-02 -0.5767822E-02
  0.1969048E+01 -0.1030660E-02 -0.5092621E-02  0.4238862E+05  0.3722761E+05 -0.8524258E-03 -0.6343842E-02
  0.2000000E+01 -0.2738953E-02 -0.5495071E-02  0.4220216E+05  0.3634476E+05 -0.1159668E-02 -0.5401611E-02
Zone t="Motion of body    1 in DoF   3",I=    64,F=POINT
  0.5000000E-01  0.9821135E+03  0.9871420E-04 -0.7960796E-02 -0.2477170E-04  0.1757125E+04  0.3146234E-05
  0.8095238E-01  0.9766650E+03  0.4286050E-03 -0.5142268E-02 -0.3001937E-04  0.1766105E+04  0.8045090E-05
  0.1119048E+00  0.9828898E+03  0.1211683E-02 -0.4898132E-02 -0.4128657E-04  0.1779188E+04  0.3119979E-04
  0.1428571E+00  0.9806589E+03  0.2728887E-02 -0.4554510E-02 -0.5109320E-04  0.1778045E+04  0.6120255E-04
  0.1738095E+00  0.9877941E+03  0.5451094E-02 -0.1000535E-01 -0.1245054E-03  0.1789074E+04  0.1197441E-03
  0.2047619E+00  0.9854776E+03  0.1012104E-01 -0.8409078E-02 -0.1404401E-03  0.1782417E+04  0.2449887E-03
  0.2357143E+00  0.9990850E+03  0.1793477E-01 -0.8217204E-02 -0.1850731E-03  0.1780988E+04  0.4169107E-03
  0.2666667E+00  0.9988981E+03  0.3079989E-01 -0.1238108E-01 -0.3056083E-03  0.1786403E+04  0.7175871E-03
  0.2976190E+00  0.1005045E+04  0.5205002E-01 -0.1069290E-01 -0.3594477E-03  0.1778105E+04  0.1201661E-02
  0.3285715E+00  0.1020577E+04  0.8690484E-01 -0.4995180E-02 -0.1796868E-03  0.1784894E+04  0.1997591E-02
  0.3595238E+00  0.1028959E+04  0.1439185E+00 -0.3461648E-02 -0.1628983E-03  0.1782976E+04  0.3357878E-02
  0.3904762E+00  0.1037109E+04  0.2370738E+00 -0.1177939E-01 -0.6826992E-03  0.1787842E+04  0.5606571E-02
  0.4214286E+00  0.1071818E+04  0.3857221E+00 -0.9678662E-02 -0.7071129E-03  0.1788356E+04  0.9269825E-02
  0.4523810E+00  0.1072894E+04  0.6222240E+00 -0.1077883E-01 -0.9543337E-03  0.1790055E+04  0.1504613E-01
  0.4833333E+00  0.1075980E+04  0.9790850E+00 -0.5132083E-02 -0.5884669E-03  0.1790256E+04  0.2392875E-01
  0.5142857E+00  0.1102682E+04  0.1517005E+01 -0.1126899E-01 -0.1468247E-02  0.1786195E+04  0.3765506E-01
  0.5452381E+00  0.1129909E+04  0.2297519E+01 -0.7309476E-02 -0.1165703E-02  0.1795863E+04  0.5778991E-01
  0.5761905E+00  0.1145035E+04  0.3398598E+01 -0.2403259E-02 -0.4510377E-03  0.1790186E+04  0.8652936E-01
  0.6071429E+00  0.1146354E+04  0.4935495E+01 -0.5525925E-02 -0.1022013E-02  0.1791775E+04  0.1269129E+00
  0.6380953E+00  0.1173766E+04  0.7015406E+01 -0.2349455E-02 -0.5616732E-03  0.1797680E+04  0.1831446E+00
  0.6690477E+00  0.1213048E+04  0.9808258E+01 -0.9638694E-02 -0.2583629E-02  0.1793443E+04  0.2604492E+00
  0.7000000E+00  0.1244313E+04  0.1352517E+02 -0.5801064E-02 -0.1875199E-02  0.1799037E+04  0.3644251E+00
  0.7309524E+00  0.1254822E+04  0.1836340E+02 -0.5049192E-02 -0.1551449E-02  0.1801877E+04  0.5009060E+00
  0.7619048E+00  0.1278692E+04  0.2459572E+02 -0.1719832E-02 -0.1090735E-02  0.1798068E+04  0.6808085E+00
  0.7928572E+00  0.1314638E+04  0.3255697E+02 -0.3791328E-02 -0.1766995E-02  0.1797891E+04  0.9148734E+00
  0.8238096E+00  0.1350726E+04  0.4264902E+02 -0.6417952E-02 -0.3295146E-02  0.1806448E+04  0.1217681E+01
  0.8547620E+00  0.1396636E+04  0.5525774E+02 -0.8537483E-02 -0.4158795E-02  0.1811817E+04  0.1609119E+01
  0.8857143E+00  0.1444800E+04  0.7094205E+02 -0.4806519E-02 -0.2627298E-02  0.1809189E+04  0.2103287E+01
  0.9166667E+00  0.1471759E+04  0.9034147E+02 -0.5925959E-02 -0.3894866E-02  0.1807598E+04  0.2722546E+01
  0.9476191E+00  0.1499881E+04  0.1139930E+03 -0.9282941E-02 -0.7003635E-02  0.1815326E+04  0.3492328E+01
  0.9785714E+00  0.1541389E+04  0.1423980E+03 -0.7661973E-02 -0.5933464E-02  0.1819456E+04  0.4420474E+01
  0.1009524E+01  0.1595464E+04  0.1763662E+03 -0.2987070E-02 -0.2477258E-02  0.1818000E+04  0.5581680E+01
  0.1040476E+01  0.1647327E+04  0.2168657E+03 -0.5286804E-02 -0.4379570E-02  0.1817184E+04  0.6984816E+01
  0.1071429E+01  0.1702025E+04  0.2649618E+03 -0.1968893E-02 -0.2709448E-02  0.1824004E+04  0.8727891E+01
  0.1102381E+01  0.1752722E+04  0.3213704E+03 -0.6109365E-02 -0.6182969E-02  0.1833961E+04  0.1079839E+02
  0.1133333E+01  0.1795818E+04  0.3870316E+03 -0.5799462E-02 -0.5700052E-02  0.1836987E+04  0.1326866E+02
  0.1164286E+01  0.1834755E+04  0.4632732E+03 -0.7935506E-02 -0.9359241E-02  0.1833976E+04  0.1619438E+02
  0.1195238E+01  0.1875090E+04  0.5497178E+03 -0.4267142E-02 -0.4000306E-02  0.1832348E+04  0.1955698E+02
  0.1226190E+01  0.1916124E+04  0.6479146E+03 -0.3524780E-02 -0.4545093E-02  0.1836519E+04  0.2335724E+02
  0.1257143E+01  0.1950569E+04  0.7587276E+03 -0.4688176E-02 -0.7452726E-02  0.1845557E+04  0.2799165E+02
  0.1288095E+01  0.1988050E+04  0.8804227E+03 -0.4462984E-02 -0.4931927E-02  0.1850541E+04  0.3316036E+02
  0.1319048E+01  0.2018680E+04  0.1015469E+04 -0.5607605E-02 -0.9625912E-02  0.1855443E+04  0.3909565E+02
  0.1350000E+01  0.2047475E+04  0.1164069E+04 -0.4761307E-02 -0.9754181E-02  0.1853871E+04  0.4562540E+02
  0.1380952E+01  0.2068865E+04  0.1323642E+04 -0.7430767E-03 -0.1118660E-02  0.1853589E+04  0.5272629E+02
  0.1411905E+01  0.1962571E+04  0.1439133E+04 -0.1396835E-02 -0.1741648E-02  0.1843801E+04  0.5798615E+02
  0.1442857E+01  0.1963088E+04  0.1616472E+04 -0.2617411E-02 -0.6663322E-02  0.1851072E+04  0.6694282E+02
  0.1473810E+01  0.1955040E+04  0.1802921E+04 -0.3344115E-02 -0.9434462E-02  0.1856822E+04  0.7662898E+02
  0.1504762E+01  0.1940860E+04  0.1996956E+04 -0.2431145E-02 -0.8417606E-02  0.1859425E+04  0.8694217E+02
  0.1535714E+01  0.1922044E+04  0.2196123E+04 -0.3579428E-02 -0.8029699E-02  0.1859662E+04  0.9739919E+02
  0.1566667E+01  0.1897618E+04  0.2400340E+04 -0.9447463E-03 -0.6082058E-02  0.1854021E+04  0.1073493E+03
  0.1597619E+01  0.1860882E+04  0.2607323E+04 -0.1895865E-02 -0.6800175E-02  0.1850280E+04  0.1178627E+03
  0.1628572E+01  0.1818787E+04  0.2818078E+04 -0.2410286E-02 -0.4114628E-02  0.1850503E+04  0.1304503E+03
  0.1659524E+01  0.1766419E+04  0.3032279E+04 -0.1629757E-02 -0.5902767E-02  0.1856178E+04  0.1441518E+03
  0.1690476E+01  0.1708186E+04  0.3239678E+04 -0.1595403E-02 -0.4006863E-02  0.1864096E+04  0.1596100E+03
  0.1721429E+01  0.1646123E+04  0.3443763E+04 -0.1724053E-02 -0.4677296E-02  0.1866035E+04  0.1738109E+03
  0.1752381E+01  0.1580790E+04  0.3640628E+04 -0.6225835E-03 -0.3698826E-02  0.1867618E+04  0.1880069E+03
  0.1783333E+01  0.1508080E+04  0.3834855E+04 -0.1364735E-02 -0.6986141E-02  0.1860732E+04  0.2002042E+03
  0.1814286E+01  0.1433361E+04  0.4021553E+04 -0.3418810E-02 -0.6486893E-02  0.1852036E+04  0.2103781E+03
  0.1845238E+01  0.1350591E+04  0.4202036E+04 -0.1717943E-02 -0.8045197E-02  0.1844119E+04  0.2216294E+03
  0.1876190E+01  0.1269351E+04  0.4377029E+04 -0.1148766E-02 -0.9514332E-02  0.1840766E+04  0.2349116E+03
  0.1907143E+01  0.1186021E+04  0.4548505E+04 -0.2342253E-02 -0.1854897E-03  0.1843072E+04  0.2519024E+03
  0.1938095E+01  0.1100973E+04  0.4703575E+04 -0.2426879E-02 -0.1292229E-02  0.1849701E+04  0.2725533E+03
  0.1969048E+01  0.1014595E+04  0.4851774E+04 -0.9919136E-03 -0.4096031E-02  0.1850073E+04  0.2916685E+03
  0.2000000E+01  0.9315540E+03  0.4987443E+04 -0.4310608E-03 -0.3454685E-02  0.1849171E+04  0.3066202E+03
