VARIABLES="w (rad/s)"
"abs(F   1   1)" "angle(F   1   1)"
"abs(F   1   2)" "angle(F   1   2)"
"abs(F   1   3)" "angle(F   1   3)"
Zone t="Diffraction force - beta =   0.000 deg",I=    64,F=POINT
  0.5000000E-01  0.2527163E+04 -0.1570792E+01  0.7001423E+03 -0.3090397E+01  0.3180249E+04  0.1570799E+01
  0.8095238E-01  0.4129478E+04 -0.1570785E+01  0.1810932E+04 -0.3088575E+01  0.5194805E+04  0.1570803E+01
  0.1119048E+00  0.5790432E+04 -0.1570772E+01  0.3433429E+04 -0.3086418E+01  0.7294791E+04  0.1570810E+01
  0.1428571E+00  0.7484315E+04 -0.1570754E+01  0.5566633E+04 -0.3083729E+01  0.9451269E+04  0.1570821E+01
  0.1738095E+00  0.9275820E+04 -0.1570728E+01  0.8216522E+04 -0.3080409E+01  0.1172088E+05  0.1570836E+01
  0.2047619E+00  0.1114400E+05 -0.1570689E+01  0.1138797E+05 -0.3076253E+01  0.1414335E+05  0.1570858E+01
  0.2357143E+00  0.1318954E+05 -0.1570633E+01  0.1506305E+05 -0.3070923E+01  0.1678393E+05  0.1570890E+01
  0.2666667E+00  0.1535474E+05 -0.1570551E+01  0.1930095E+05 -0.3064715E+01  0.1961470E+05  0.1570938E+01
  0.2976190E+00  0.1771959E+05 -0.1570429E+01  0.2400049E+05 -0.3056598E+01  0.2271348E+05  0.1571009E+01
  0.3285715E+00  0.2036902E+05 -0.1570249E+01  0.2929531E+05 -0.3047315E+01  0.2623738E+05  0.1571114E+01
  0.3595238E+00  0.2330951E+05 -0.1569981E+01  0.3498020E+05 -0.3035670E+01  0.3010172E+05  0.1571272E+01
  0.3904762E+00  0.2642877E+05 -0.1569576E+01  0.4123672E+05 -0.3022346E+01  0.3434570E+05  0.1571508E+01
  0.4214286E+00  0.3009771E+05 -0.1568992E+01  0.4777091E+05 -0.3007282E+01  0.3924818E+05  0.1571853E+01
  0.4523810E+00  0.3418351E+05 -0.1568140E+01  0.5471556E+05 -0.2989951E+01  0.4480450E+05  0.1572358E+01
  0.4833333E+00  0.3856143E+05 -0.1566956E+01  0.6188973E+05 -0.2972902E+01  0.5074923E+05  0.1573064E+01
  0.5142857E+00  0.4332550E+05 -0.1565315E+01  0.6913635E+05 -0.2954046E+01  0.5740476E+05  0.1574042E+01
  0.5452381E+00  0.4865543E+05 -0.1563155E+01  0.7671893E+05 -0.2936281E+01  0.6487859E+05  0.1575340E+01
  0.5761905E+00  0.5445426E+05 -0.1560373E+01  0.8403709E+05 -0.2918142E+01  0.7276393E+05  0.1577035E+01
  0.6071429E+00  0.6048541E+05 -0.1556780E+01  0.9145719E+05 -0.2899881E+01  0.8122363E+05  0.1579230E+01
  0.6380953E+00  0.6663139E+05 -0.1552284E+01  0.9904913E+05 -0.2883990E+01  0.9014642E+05  0.1581972E+01
  0.6690477E+00  0.7355005E+05 -0.1546839E+01  0.1062268E+06 -0.2867255E+01  0.9983755E+05  0.1585346E+01
  0.7000000E+00  0.8084489E+05 -0.1540208E+01  0.1133786E+06 -0.2850955E+01  0.1102521E+06  0.1589486E+01
  0.7309524E+00  0.8842706E+05 -0.1532261E+01  0.1206498E+06 -0.2836769E+01  0.1213599E+06  0.1594478E+01
  0.7619048E+00  0.9624870E+05 -0.1522795E+01  0.1272604E+06 -0.2821512E+01  0.1322768E+06  0.1600518E+01
  0.7928572E+00  0.1041981E+06 -0.1511597E+01  0.1337361E+06 -0.2807048E+01  0.1441704E+06  0.1607651E+01
  0.8238096E+00  0.1124862E+06 -0.1498667E+01  0.1401127E+06 -0.2793819E+01  0.1564999E+06  0.1615895E+01
  0.8547620E+00  0.1212809E+06 -0.1483951E+01  0.1461888E+06 -0.2781331E+01  0.1695904E+06  0.1625396E+01
  0.8857143E+00  0.1304413E+06 -0.1467271E+01  0.1515702E+06 -0.2768075E+01  0.1828288E+06  0.1636330E+01
  0.9166667E+00  0.1396959E+06 -0.1448367E+01  0.1567937E+06 -0.2756135E+01  0.1968783E+06  0.1648776E+01
  0.9476191E+00  0.1487317E+06 -0.1426971E+01  0.1617044E+06 -0.2745221E+01  0.2106649E+06  0.1662930E+01
  0.9785714E+00  0.1575244E+06 -0.1402979E+01  0.1663081E+06 -0.2735428E+01  0.2247373E+06  0.1678786E+01
  0.1009524E+01  0.1659693E+06 -0.1376444E+01  0.1699996E+06 -0.2724426E+01  0.2376048E+06  0.1696453E+01
  0.1040476E+01  0.1746777E+06 -0.1348197E+01  0.1734338E+06 -0.2714316E+01  0.2516754E+06  0.1715010E+01
  0.1071429E+01  0.1828026E+06 -0.1317541E+01  0.1764826E+06 -0.2705178E+01  0.2650007E+06  0.1735260E+01
  0.1102381E+01  0.1902778E+06 -0.1284506E+01  0.1792397E+06 -0.2697299E+01  0.2778299E+06  0.1756976E+01
  0.1133333E+01  0.1969128E+06 -0.1249115E+01  0.1814942E+06 -0.2689983E+01  0.2898409E+06  0.1780146E+01
  0.1164286E+01  0.2024965E+06 -0.1211686E+01  0.1828508E+06 -0.2681682E+01  0.2995361E+06  0.1804614E+01
  0.1195238E+01  0.2074466E+06 -0.1173452E+01  0.1839152E+06 -0.2674121E+01  0.3094581E+06  0.1828879E+01
  0.1226190E+01  0.2108971E+06 -0.1133651E+01  0.1845898E+06 -0.2667471E+01  0.3175682E+06  0.1853705E+01
  0.1257143E+01  0.2127863E+06 -0.1092205E+01  0.1849053E+06 -0.2661603E+01  0.3237506E+06  0.1878969E+01
  0.1288095E+01  0.2133698E+06 -0.1050416E+01  0.1849023E+06 -0.2657243E+01  0.3288493E+06  0.1903594E+01
  0.1319048E+01  0.2123046E+06 -0.1008221E+01  0.1841464E+06 -0.2652134E+01  0.3309773E+06  0.1927324E+01
  0.1350000E+01  0.2097852E+06 -0.9666944E+00  0.1827706E+06 -0.2646875E+01  0.3306901E+06  0.1949264E+01
  0.1380952E+01  0.2060028E+06 -0.9258167E+00  0.1811186E+06 -0.2642293E+01  0.3299069E+06  0.1969635E+01
  0.1411905E+01  0.1998902E+06 -0.8838124E+00  0.1790884E+06 -0.2638348E+01  0.3260337E+06  0.1988359E+01
  0.1442857E+01  0.1927031E+06 -0.8436411E+00  0.1767938E+06 -0.2635376E+01  0.3204276E+06  0.2003900E+01
  0.1473810E+01  0.1843198E+06 -0.8048686E+00  0.1742440E+06 -0.2633158E+01  0.3139002E+06  0.2016195E+01
  0.1504762E+01  0.1746730E+06 -0.7672163E+00  0.1713419E+06 -0.2631680E+01  0.3057246E+06  0.2025255E+01
  0.1535714E+01  0.1637715E+06 -0.7315196E+00  0.1676921E+06 -0.2629256E+01  0.2945593E+06  0.2029601E+01
  0.1566667E+01  0.1521199E+06 -0.6981896E+00  0.1638102E+06 -0.2627501E+01  0.2828972E+06  0.2028974E+01
  0.1597619E+01  0.1398410E+06 -0.6672893E+00  0.1597357E+06 -0.2626067E+01  0.2713556E+06  0.2023744E+01
  0.1628572E+01  0.1265847E+06 -0.6374395E+00  0.1554448E+06 -0.2625350E+01  0.2584001E+06  0.2013088E+01
  0.1659524E+01  0.1126955E+06 -0.6094071E+00  0.1509692E+06 -0.2625426E+01  0.2447003E+06  0.1995820E+01
  0.1690476E+01  0.9850453E+05 -0.5838981E+00  0.1463341E+06 -0.2626100E+01  0.2313698E+06  0.1971880E+01
  0.1721429E+01  0.8398371E+05 -0.5603094E+00  0.1415376E+06 -0.2627515E+01  0.2181805E+06  0.1941013E+01
  0.1752381E+01  0.6915962E+05 -0.5406778E+00  0.1363951E+06 -0.2628854E+01  0.2043272E+06  0.1899578E+01
  0.1783333E+01  0.5418127E+05 -0.5267554E+00  0.1310296E+06 -0.2630477E+01  0.1904092E+06  0.1845933E+01
  0.1814286E+01  0.3934236E+05 -0.5219463E+00  0.1256551E+06 -0.2632829E+01  0.1780392E+06  0.1783487E+01
  0.1845238E+01  0.2464871E+05 -0.5403321E+00  0.1202502E+06 -0.2635400E+01  0.1670194E+06  0.1711048E+01
  0.1876190E+01  0.1012763E+05 -0.6670663E+00  0.1148013E+06 -0.2638818E+01  0.1571287E+06  0.1626109E+01
  0.1907143E+01  0.5312927E+04 -0.3063320E+01  0.1093091E+06 -0.2643044E+01  0.1488187E+06  0.1529384E+01
  0.1938095E+01  0.1908354E+05  0.2883979E+01  0.1037896E+06 -0.2647857E+01  0.1424703E+06  0.1424470E+01
  0.1969048E+01  0.3280743E+05  0.2845869E+01  0.9820848E+05 -0.2653641E+01  0.1382138E+06  0.1315244E+01
  0.2000000E+01  0.4615768E+05  0.2838804E+01  0.9248855E+05 -0.2660344E+01  0.1359096E+06  0.1203741E+01
