VARIABLES="w (rad/s)"
"A   1   1" "B   1   1"
"A   1   2" "B   1   2"
"A   1   3" "B   1   3"
Zone t="Motion of body    1 in DoF   1",I=    64,F=POINT
  0.5000000E-01  0.4532010E+05  0.4278843E-02 -0.5283356E-02 -0.3122896E-04  0.2639453E+05  0.9234658E-02
  0.8095238E-01  0.4541763E+05  0.1879665E-01 -0.1689350E-01 -0.9755249E-04  0.2597103E+05  0.4023257E-01
  0.1119048E+00  0.4533738E+05  0.5269172E-01 -0.9374416E-02 -0.7911725E-04  0.2573162E+05  0.1128147E+00
  0.1428571E+00  0.4527281E+05  0.1187681E+00 -0.8598328E-02 -0.1059379E-03  0.2574695E+05  0.2536635E+00
  0.1738095E+00  0.4560100E+05  0.2372532E+00 -0.1426592E-02 -0.5370425E-04  0.2568939E+05  0.5050533E+00
  0.2047619E+00  0.4557677E+05  0.4384899E+00  0.3129826E-02  0.3879936E-04  0.2604447E+05  0.9314809E+00
  0.2357143E+00  0.4586139E+05  0.7749975E+00  0.4563765E-02  0.5166046E-05  0.2586386E+05  0.1638093E+01
  0.2666667E+00  0.4605018E+05  0.1326632E+01 -0.1273155E-01 -0.4536584E-03  0.2622240E+05  0.2795038E+01
  0.2976190E+00  0.4599725E+05  0.2229692E+01  0.8023682E-02  0.2122894E-03  0.2651572E+05  0.4685676E+01
  0.3285715E+00  0.4625256E+05  0.3705936E+01 -0.2224466E-01 -0.1042746E-02  0.2655011E+05  0.7742013E+01
  0.3595238E+00  0.4667243E+05  0.6118077E+01 -0.7002874E-02 -0.4358292E-03  0.2678464E+05  0.1269885E+02
  0.3904762E+00  0.4681240E+05  0.1001596E+02 -0.8518869E-02 -0.7212013E-03  0.2736339E+05  0.2070226E+02
  0.4214286E+00  0.4690359E+05  0.1617370E+02 -0.2049333E-01 -0.1693934E-02  0.2750997E+05  0.3324446E+02
  0.4523810E+00  0.4736911E+05  0.2594983E+02 -0.1163683E-01 -0.1608580E-02  0.2788203E+05  0.5295429E+02
  0.4833333E+00  0.4788132E+05  0.4064191E+02 -0.1168087E-02  0.1559258E-03  0.2822640E+05  0.8222921E+02
  0.5142857E+00  0.4807898E+05  0.6247266E+02  0.3115336E-02  0.3448725E-03  0.2891845E+05  0.1257073E+03
  0.5452381E+00  0.4823367E+05  0.9374389E+02 -0.4393732E-02 -0.6251335E-03  0.2934434E+05  0.1874118E+03
  0.5761905E+00  0.4889865E+05  0.1377770E+03 -0.2330433E-02 -0.9636879E-03  0.2950950E+05  0.2724481E+03
  0.6071429E+00  0.4954578E+05  0.1987154E+03 -0.1729090E-01 -0.5201101E-02  0.3036788E+05  0.3895122E+03
  0.6380953E+00  0.4997616E+05  0.2799686E+03  0.3945650E-02  0.5755424E-03  0.3098252E+05  0.5439139E+03
  0.6690477E+00  0.5028696E+05  0.3873857E+03 -0.1459631E-01 -0.5873680E-02  0.3158146E+05  0.7461810E+03
  0.7000000E+00  0.5085504E+05  0.5285179E+03  0.5667550E-03 -0.9164810E-03  0.3224314E+05  0.1008213E+04
  0.7309524E+00  0.5169553E+05  0.7107628E+03  0.6179064E-02  0.1764297E-03  0.3283190E+05  0.1339371E+04
  0.7619048E+00  0.5254338E+05  0.9433848E+03 -0.1109505E-01 -0.6087303E-02  0.3349495E+05  0.1754937E+04
  0.7928572E+00  0.5321283E+05  0.1235405E+04 -0.7120768E-02 -0.2866745E-02  0.3456109E+05  0.2274292E+04
  0.8238096E+00  0.5379886E+05  0.1598286E+04  0.3000601E-02  0.4014969E-02  0.3557358E+05  0.2911711E+04
  0.8547620E+00  0.5445726E+05  0.2045770E+04 -0.6569355E-02 -0.4325867E-02  0.3621399E+05  0.3680188E+04
  0.8857143E+00  0.5535211E+05  0.2592551E+04  0.2928703E-02  0.1651764E-02  0.3673918E+05  0.4599929E+04
  0.9166667E+00  0.5636048E+05  0.3254413E+04  0.9088689E-02  0.6675720E-02  0.3769111E+05  0.5696804E+04
  0.9476191E+00  0.5735143E+05  0.4049206E+04  0.4089969E-02  0.2136230E-03  0.3860988E+05  0.6986285E+04
  0.9785714E+00  0.5830237E+05  0.4994441E+04 -0.1687154E-01 -0.1588440E-01  0.3938859E+05  0.8482831E+04
  0.1009524E+01  0.5911285E+05  0.6105401E+04  0.6257543E-02  0.4951477E-02  0.3994434E+05  0.1020279E+05
  0.1040476E+01  0.5980432E+05  0.7396574E+04  0.8799119E-02  0.1210022E-01  0.4074664E+05  0.1218490E+05
  0.1071429E+01  0.6049553E+05  0.8889335E+04 -0.1623535E-02 -0.6423950E-02  0.4135472E+05  0.1442795E+05
  0.1102381E+01  0.6118901E+05  0.1059429E+05  0.5702766E-02  0.2700806E-02  0.4164288E+05  0.1692977E+05
  0.1133333E+01  0.6207305E+05  0.1253009E+05 -0.7970474E-02 -0.1451111E-01  0.4154794E+05  0.1966952E+05
  0.1164286E+01  0.6277852E+05  0.1470867E+05 -0.4718055E-03 -0.3356934E-02  0.4133408E+05  0.2263952E+05
  0.1195238E+01  0.6335110E+05  0.1713229E+05 -0.1593236E-01 -0.3245544E-01  0.4121230E+05  0.2589131E+05
  0.1226190E+01  0.6378271E+05  0.1980377E+05 -0.2837246E-02 -0.5187988E-02  0.4098338E+05  0.2937304E+05
  0.1257143E+01  0.6395378E+05  0.2271155E+05  0.9224631E-03 -0.1342773E-02  0.4045791E+05  0.3307550E+05
  0.1288095E+01  0.6416399E+05  0.2582829E+05  0.3269499E-02  0.1693726E-01  0.3950390E+05  0.3688805E+05
  0.1319048E+01  0.6419434E+05  0.2917000E+05  0.1249348E-02  0.3417969E-02  0.3819322E+05  0.4075418E+05
  0.1350000E+01  0.6400977E+05  0.3271311E+05  0.4340278E-02  0.1400757E-01  0.3662095E+05  0.4465910E+05
  0.1380952E+01  0.6360212E+05  0.3639991E+05  0.1591123E-02  0.9735107E-02  0.3511893E+05  0.4865005E+05
  0.1411905E+01  0.6279670E+05  0.4026093E+05  0.8170270E-02  0.3085327E-01  0.3354296E+05  0.5275445E+05
  0.1442857E+01  0.6203411E+05  0.4414679E+05  0.5372302E-02  0.1892090E-02  0.3161078E+05  0.5669052E+05
  0.1473810E+01  0.6110485E+05  0.4811070E+05  0.2981750E-02  0.1184082E-01  0.2932707E+05  0.6031639E+05
  0.1504762E+01  0.6003616E+05  0.5212775E+05  0.7503848E-02  0.2655029E-01  0.2674101E+05  0.6359494E+05
  0.1535714E+01  0.5878090E+05  0.5612854E+05  0.3278865E-02  0.1458740E-01  0.2399452E+05  0.6658045E+05
  0.1566667E+01  0.5735420E+05  0.6004672E+05  0.6369733E-02 -0.2105713E-01  0.2123464E+05  0.6928664E+05
  0.1597619E+01  0.5578247E+05  0.6382268E+05  0.7029504E-02 -0.5401611E-01  0.1862360E+05  0.7184309E+05
  0.1628572E+01  0.5409743E+05  0.6749667E+05  0.8038973E-02 -0.1519775E-01  0.1600684E+05  0.7398362E+05
  0.1659524E+01  0.5230549E+05  0.7102701E+05  0.5516808E-04 -0.6103516E-02  0.1340307E+05  0.7577734E+05
  0.1690476E+01  0.5045661E+05  0.7442088E+05  0.4675637E-02 -0.1525879E-02  0.1065979E+05  0.7707774E+05
  0.1721429E+01  0.4858866E+05  0.7766270E+05  0.6860757E-02 -0.1281738E-01  0.7890575E+04  0.7783886E+05
  0.1752381E+01  0.4667775E+05  0.8074258E+05  0.6156175E-02  0.1776123E-01  0.5183104E+04  0.7802588E+05
  0.1783333E+01  0.4470298E+05  0.8362441E+05 -0.7272881E-03 -0.1062012E-01  0.2572204E+04  0.7775291E+05
  0.1814286E+01  0.4273026E+05  0.8627729E+05  0.2733366E-02  0.2313232E-01  0.1697860E+03  0.7739298E+05
  0.1845238E+01  0.4076165E+05  0.8869834E+05  0.2352610E-02 -0.4211426E-02 -0.2007303E+04  0.7684557E+05
  0.1876190E+01  0.3879191E+05  0.9092532E+05 -0.1106069E-02  0.1245117E-01 -0.4008889E+04  0.7595220E+05
  0.1907143E+01  0.3683728E+05  0.9295859E+05  0.5120553E-03  0.3747559E-01 -0.5896377E+04  0.7485185E+05
  0.1938095E+01  0.3488783E+05  0.9479720E+05  0.5519125E-02 -0.9643555E-02 -0.7719590E+04  0.7330478E+05
  0.1969048E+01  0.3296352E+05  0.9642009E+05  0.3097793E-02  0.4150391E-02 -0.9365120E+04  0.7123075E+05
  0.2000000E+01  0.3103979E+05  0.9785527E+05  0.5771637E-02 -0.1696777E-01 -0.1083033E+05  0.6873613E+05
Zone t="Motion of body    1 in DoF   2",I=    64,F=POINT
  0.5000000E-01 -0.1754761E-02 -0.1859665E-04  0.2897277E+06  0.7046436E+03  0.1220703E-01 -0.8583069E-04
  0.8095238E-01  0.4052555E-02 -0.2479553E-04  0.2860995E+06  0.1167811E+04  0.1884909E-01  0.1258850E-03
  0.1119048E+00 -0.1772617E-02 -0.2574921E-04  0.2844993E+06  0.1671275E+04  0.1690804E-01  0.8392334E-04
  0.1428571E+00  0.4272461E-03  0.7820129E-04  0.2834465E+06  0.2232721E+04  0.2136230E-01  0.7629395E-05
  0.1738095E+00 -0.2721499E-02 -0.1525879E-04  0.2831204E+06  0.2876633E+04  0.2739057E-01  0.2059937E-03
  0.2047619E+00 -0.2980787E-03  0.4196167E-04  0.2831526E+06  0.3631348E+04 -0.3278865E-01  0.3128052E-03
  0.2357143E+00 -0.3884055E-03  0.3433228E-04  0.2836320E+06  0.4537461E+04  0.2071496E-01  0.3814697E-03
  0.2666667E+00 -0.2975464E-02  0.1144409E-04  0.2843971E+06  0.5629251E+04  0.3295898E-01  0.3967285E-03
  0.2976190E+00  0.5434570E-02  0.2937317E-03  0.2853272E+06  0.6981020E+04 -0.8613281E-02  0.2899170E-03
  0.3285715E+00  0.3900942E-02  0.2288818E-03  0.2864078E+06  0.8632324E+04  0.3195057E-01 -0.2746582E-03
  0.3595238E+00  0.2716266E-02  0.1831055E-03  0.2873925E+06  0.1066954E+05  0.1493946E-01  0.1068115E-02
  0.3904762E+00  0.2344643E-02 -0.9155273E-04  0.2883176E+06  0.1316160E+05  0.3751429E-01  0.1098633E-02
  0.4214286E+00  0.2606925E-02 -0.1525879E-04  0.2885006E+06  0.1606242E+05 -0.2317267E-02  0.3662109E-03
  0.4523810E+00 -0.4047594E-02 -0.1373291E-03  0.2882718E+06  0.1952225E+05  0.1942845E-01  0.9155273E-03
  0.4833333E+00 -0.3788389E-03  0.3509521E-03  0.2873953E+06  0.2323804E+05 -0.5556304E-02 -0.1403809E-02
  0.5142857E+00  0.5933974E-02 -0.5035400E-03  0.2856275E+06  0.2738446E+05 -0.7595486E-02  0.2929688E-02
  0.5452381E+00 -0.2910498E-02 -0.2136230E-03  0.2833798E+06  0.3171773E+05  0.1208976E-01 -0.2075195E-02
  0.5761905E+00  0.3707507E-02 -0.1068115E-02  0.2806531E+06  0.3615582E+05  0.2033832E-01 -0.8544922E-03
  0.6071429E+00  0.3619025E-02  0.6103516E-04  0.2772467E+06  0.4080419E+05 -0.1729090E-01 -0.1220703E-03
  0.6380953E+00 -0.1626086E-02 -0.3356934E-03  0.2738315E+06  0.4535641E+05  0.1913042E-02 -0.0000000E+00
  0.6690477E+00 -0.1277177E-02 -0.2624512E-02  0.2700264E+06  0.4994152E+05  0.1751557E-01  0.3906250E-02
  0.7000000E+00  0.1656668E-02 -0.3662109E-03  0.2657892E+06  0.5457554E+05 -0.4882812E-02  0.1220703E-02
  0.7309524E+00  0.9769601E-02  0.2502441E-02  0.2616407E+06  0.5907455E+05 -0.2004021E-01  0.7568359E-02
  0.7619048E+00  0.8651732E-02  0.1281738E-02  0.2574098E+06  0.6348267E+05  0.2243042E-01  0.4638672E-02
  0.7928572E+00  0.2848307E-02 -0.1525879E-02  0.2528157E+06  0.6781248E+05  0.2278646E-01 -0.5859375E-02
  0.8238096E+00  0.3704446E-03  0.2502441E-02  0.2482085E+06  0.7199152E+05  0.4741691E-02 -0.1220703E-02
  0.8547620E+00 -0.3855926E-02  0.9765625E-03  0.2437046E+06  0.7598513E+05  0.2056494E-01  0.8544922E-02
  0.8857143E+00 -0.1102571E-02 -0.2990723E-02  0.2391184E+06  0.7978445E+05 -0.1102571E-02  0.2685547E-02
  0.9166667E+00  0.1864347E-02  0.3234863E-02  0.2345560E+06  0.8336085E+05  0.1970881E-01  0.3662109E-02
  0.9476191E+00  0.1288179E-03 -0.2075195E-02  0.2300049E+06  0.8670396E+05  0.1545815E-02  0.3662109E-02
  0.9785714E+00  0.4553134E-02 -0.3479004E-02  0.2255575E+06  0.8979962E+05  0.1496921E-01  0.2441406E-03
  0.1009524E+01 -0.2297455E-02 -0.3784180E-02  0.2212759E+06  0.9262030E+05 -0.1547759E-01  0.6591797E-02
  0.1040476E+01  0.2287771E-02 -0.4882812E-03  0.2168987E+06  0.9521886E+05 -0.1689431E-01  0.1464844E-01
  0.1071429E+01  0.3816732E-02  0.4028320E-02  0.2126414E+06  0.9753432E+05  0.1002604E-01  0.1049805E-01
  0.1102381E+01  0.4650800E-02 -0.2197266E-02  0.2085767E+06  0.9956369E+05  0.1284507E-01  0.2026367E-01
  0.1133333E+01  0.5223891E-02 -0.3051758E-02  0.2047031E+06  0.1013147E+06  0.3920611E-01  0.5126953E-02
  0.1164286E+01  0.2988101E-02 -0.1464844E-02  0.2010395E+06  0.1027729E+06  0.8387653E-02 -0.4394531E-02
  0.1195238E+01  0.1940480E-02 -0.2075195E-02  0.1973741E+06  0.1040023E+06  0.1307271E-01  0.7812500E-02
  0.1226190E+01  0.2115490E-02  0.3295898E-02  0.1938469E+06  0.1049554E+06 -0.1353914E-01  0.2197266E-01
  0.1257143E+01  0.7525357E-03 -0.1220703E-02  0.1906114E+06  0.1057316E+06  0.3107244E-02  0.1855469E-01
  0.1288095E+01  0.6444229E-02  0.2075195E-02  0.1874468E+06  0.1060475E+06  0.1857454E-01 -0.1708984E-02
  0.1319048E+01  0.2660648E-02  0.9155273E-02  0.1845729E+06  0.1062225E+06  0.9254428E-02  0.2124023E-01
  0.1350000E+01  0.1853660E-02  0.1220703E-03  0.1818783E+06  0.1061617E+06  0.5425347E-02  0.5615234E-02
  0.1380952E+01  0.8574387E-02  0.3051758E-02  0.1792017E+06  0.1058804E+06  0.2333648E-01  0.9765625E-02
  0.1411905E+01  0.2150640E-02  0.4882812E-03  0.1765203E+06  0.1051028E+06  0.1504367E-01  0.8300781E-02
  0.1442857E+01  0.1163294E-02 -0.1831055E-02  0.1741808E+06  0.1044109E+06 -0.7614287E-02  0.1904297E-01
  0.1473810E+01 -0.1428755E-02  0.1220703E-02  0.1720789E+06  0.1035171E+06 -0.1490875E-02 -0.3784180E-01
  0.1504762E+01  0.8837301E-02  0.1098633E-02  0.1701757E+06  0.1024733E+06  0.1606229E-01  0.1196289E-01
  0.1535714E+01 -0.2223170E-02  0.5249023E-02  0.1684458E+06  0.1012636E+06 -0.2543604E-02  0.1708984E-02
  0.1566667E+01  0.3110601E-02 -0.4638672E-02  0.1668397E+06  0.9987670E+05  0.5765874E-02  0.1538086E-01
  0.1597619E+01  0.5768777E-02  0.8911133E-02  0.1652810E+06  0.9835955E+05  0.2643705E-01 -0.1147461E-01
  0.1628572E+01 -0.2332988E-02  0.9643555E-02  0.1638546E+06  0.9667020E+05 -0.1169305E-01 -0.2392578E-01
  0.1659524E+01 -0.1829741E-02  0.6103516E-02  0.1625613E+06  0.9479821E+05 -0.1706532E-01 -0.2075195E-01
  0.1690476E+01  0.7221061E-04 -0.1342773E-02  0.1614620E+06  0.9292055E+05  0.8520851E-02  0.3588867E-01
  0.1721429E+01  0.4875215E-02  0.1208496E-01  0.1605222E+06  0.9096451E+05  0.1035318E-01  0.3466797E-01
  0.1752381E+01  0.2333600E-02  0.1599121E-01  0.1597105E+06  0.8890045E+05 -0.5572775E-03  0.2612305E-01
  0.1783333E+01  0.3268518E-02  0.5371094E-02  0.1590278E+06  0.8677845E+05  0.6845064E-02  0.4882812E-01
  0.1814286E+01  0.2674493E-02  0.8056641E-02  0.1583712E+06  0.8461932E+05  0.1345657E-03  0.1196289E-01
  0.1845238E+01  0.1008852E-02  0.2197266E-02  0.1577850E+06  0.8233542E+05 -0.4233871E-02 -0.4882812E-02
  0.1876190E+01 -0.2602514E-03 -0.1586914E-02  0.1573156E+06  0.7996812E+05 -0.1197157E-01 -0.1342773E-01
  0.1907143E+01 -0.3200345E-03 -0.1953125E-02  0.1569184E+06  0.7760075E+05 -0.1984214E-01 -0.1220703E-01
  0.1938095E+01  0.2047002E-02  0.1940918E-01  0.1566165E+06  0.7525241E+05  0.3653112E-02  0.3979492E-01
  0.1969048E+01  0.6509433E-03 -0.7324219E-02  0.1564270E+06  0.7285031E+05 -0.2269002E-01 -0.2954102E-01
  0.2000000E+01  0.3540039E-02  0.1843262E-01  0.1563258E+06  0.7049510E+05  0.2685547E-01  0.3417969E-02
Zone t="Motion of body    1 in DoF   3",I=    64,F=POINT
  0.5000000E-01  0.2530223E+05  0.9014982E-02  0.1525879E-01  0.1118450E-03  0.5182939E+06  0.1929668E-01
  0.8095238E-01  0.2494141E+05  0.3949261E-01  0.7313447E-01  0.4091816E-03  0.5198526E+06  0.8436558E-01
  0.1119048E+00  0.2516210E+05  0.1107285E+00  0.6545047E-01  0.4345196E-03  0.5227567E+06  0.2365700E+00
  0.1428571E+00  0.2533374E+05  0.2490507E+00  0.5746460E-01  0.6207603E-03  0.5235868E+06  0.5330632E+00
  0.1738095E+00  0.2512608E+05  0.4964738E+00  0.1755806E-03  0.1821909E-03  0.5242969E+06  0.1054591E+01
  0.2047619E+00  0.2547956E+05  0.9145148E+00 -0.1192315E-02  0.2035629E-03  0.5233217E+06  0.1942335E+01
  0.2357143E+00  0.2526146E+05  0.1611718E+01  0.2071496E-01  0.5616061E-03  0.5243219E+06  0.3404381E+01
  0.2666667E+00  0.2550684E+05  0.2750145E+01  0.3456116E-01  0.1272663E-02  0.5239143E+06  0.5788571E+01
  0.2976190E+00  0.2599282E+05  0.4603055E+01 -0.3793945E-01 -0.7194132E-03  0.5243331E+06  0.9667382E+01
  0.3285715E+00  0.2602694E+05  0.7614146E+01  0.5442743E-01  0.2214760E-02  0.5247429E+06  0.1590035E+02
  0.3595238E+00  0.2609138E+05  0.1250898E+02  0.4329050E-01  0.2362847E-02  0.5253392E+06  0.2595771E+02
  0.3904762E+00  0.2666107E+05  0.2036753E+02  0.3251238E-01  0.2643079E-02  0.5247540E+06  0.4210881E+02
  0.4214286E+00  0.2712196E+05  0.3268826E+02  0.1897262E-01  0.2846241E-02  0.5264751E+06  0.6721693E+02
  0.4523810E+00  0.2720367E+05  0.5213157E+02  0.3197600E-01  0.4961431E-02  0.5257292E+06  0.1063939E+03
  0.4833333E+00  0.2748574E+05  0.8107207E+02  0.1464844E-01  0.2958536E-02  0.5272195E+06  0.1640553E+03
  0.5142857E+00  0.2823058E+05  0.1237172E+03 -0.4581028E-01 -0.4581928E-02  0.5268535E+06  0.2489969E+03
  0.5452381E+00  0.2893092E+05  0.1841702E+03  0.3246324E-01  0.6201267E-02  0.5276232E+06  0.3682307E+03
  0.5761905E+00  0.2893779E+05  0.2685704E+03  0.2393990E-01  0.5100727E-02  0.5294037E+06  0.5309765E+03
  0.6071429E+00  0.2952700E+05  0.3841015E+03  0.2613741E-01  0.9740353E-02  0.5285938E+06  0.7530243E+03
  0.6380953E+00  0.3028675E+05  0.5361678E+03  0.2544346E-01  0.7818222E-02  0.5300308E+06  0.1041868E+04
  0.6690477E+00  0.3115725E+05  0.7346581E+03  0.2590845E-01  0.1253700E-01  0.5314201E+06  0.1415698E+04
  0.7000000E+00  0.3177290E+05  0.9928011E+03  0.2441406E-02  0.3282547E-02  0.5315254E+06  0.1893571E+04
  0.7309524E+00  0.3220932E+05  0.1322173E+04 -0.3790939E-01 -0.5962372E-02  0.5327195E+06  0.2490417E+04
  0.7619048E+00  0.3287643E+05  0.1735665E+04  0.2819824E-01  0.1580620E-01  0.5348072E+06  0.3228679E+04
  0.7928572E+00  0.3388769E+05  0.2247209E+04  0.6312464E-02  0.4795074E-02  0.5345499E+06  0.4139267E+04
  0.8238096E+00  0.3500514E+05  0.2871945E+04 -0.3822988E-01 -0.1221466E-01  0.5350016E+06  0.5237192E+04
  0.8547620E+00  0.3590751E+05  0.3629990E+04  0.1213903E-01  0.1238251E-01  0.5369182E+06  0.6535731E+04
  0.8857143E+00  0.3648810E+05  0.4548232E+04  0.5926317E-02  0.8804321E-02  0.5388109E+06  0.8060700E+04
  0.9166667E+00  0.3720797E+05  0.5642423E+04  0.1677912E-01  0.9254456E-02  0.5385179E+06  0.9865008E+04
  0.9476191E+00  0.3803292E+05  0.6924142E+04 -0.3091630E-02 -0.4386902E-02  0.5387699E+06  0.1193864E+05
  0.9785714E+00  0.3885310E+05  0.8414252E+04  0.1571767E-01  0.4364014E-02  0.5397502E+06  0.1430623E+05
  0.1009524E+01  0.3965133E+05  0.1011999E+05 -0.2418374E-03  0.5371094E-02  0.5416158E+06  0.1694761E+05
  0.1040476E+01  0.4055055E+05  0.1206422E+05 -0.3355397E-01 -0.8743286E-02  0.5410216E+06  0.1994384E+05
  0.1071429E+01  0.4125276E+05  0.1425883E+05  0.2734375E-01  0.1655579E-01  0.5403839E+06  0.2321806E+05
  0.1102381E+01  0.4166417E+05  0.1672465E+05 -0.3543466E-01 -0.2261353E-01  0.5402756E+06  0.2675431E+05
  0.1133333E+01  0.4158611E+05  0.1949914E+05  0.4760742E-01  0.4949951E-01  0.5406134E+06  0.3054003E+05
  0.1164286E+01  0.4150265E+05  0.2249332E+05  0.7339196E-02  0.8422852E-02  0.5409987E+06  0.3458568E+05
  0.1195238E+01  0.4137363E+05  0.2573686E+05  0.2185594E-01  0.1855469E-01  0.5393316E+06  0.3888029E+05
  0.1226190E+01  0.4110959E+05  0.2918790E+05 -0.2389260E-02  0.2593994E-01  0.5371364E+06  0.4337196E+05
  0.1257143E+01  0.4068589E+05  0.3285457E+05  0.1204057E-01  0.2334595E-01  0.5350988E+06  0.4792282E+05
  0.1288095E+01  0.3974344E+05  0.3665455E+05  0.4169796E-02 -0.1763916E-01  0.5333912E+06  0.5228010E+05
  0.1319048E+01  0.3855906E+05  0.4059797E+05  0.3590718E-01  0.7513428E-01  0.5319376E+06  0.5668825E+05
  0.1350000E+01  0.3714888E+05  0.4456664E+05 -0.2043547E-01 -0.1220703E-03  0.5303015E+06  0.6089453E+05
  0.1380952E+01  0.3567083E+05  0.4856462E+05  0.2775626E-01  0.9033203E-02  0.5268242E+06  0.6498473E+05
  0.1411905E+01  0.3394539E+05  0.5205266E+05 -0.3458316E-03 -0.3955078E-01  0.5225683E+06  0.6838664E+05
  0.1442857E+01  0.3197768E+05  0.5591525E+05 -0.1573619E-01 -0.2172852E-01  0.5186125E+06  0.7162801E+05
  0.1473810E+01  0.2976451E+05  0.5954884E+05 -0.7620027E-02 -0.3100586E-01  0.5153110E+06  0.7450606E+05
  0.1504762E+01  0.2731743E+05  0.6296555E+05 -0.4542870E-02  0.1696777E-01  0.5125009E+06  0.7697905E+05
  0.1535714E+01  0.2473305E+05  0.6608120E+05 -0.3020530E-02 -0.8239746E-02  0.5099509E+06  0.7876509E+05
  0.1566667E+01  0.2210632E+05  0.6890275E+05 -0.2337517E-02 -0.1647949E-02  0.5070888E+06  0.8005394E+05
  0.1597619E+01  0.1952472E+05  0.7151572E+05  0.3346655E-01  0.9075928E-01  0.5031356E+06  0.8082927E+05
  0.1628572E+01  0.1692655E+05  0.7371089E+05 -0.2473530E-01  0.2239990E-01  0.4992323E+06  0.8111419E+05
  0.1659524E+01  0.1434795E+05  0.7549078E+05  0.1471149E-02 -0.3820801E-01  0.4954947E+06  0.8072709E+05
  0.1690476E+01  0.1168579E+05  0.7687360E+05 -0.1530865E-01 -0.5310059E-02  0.4926581E+06  0.7977845E+05
  0.1721429E+01  0.9006978E+04  0.7785704E+05 -0.3403786E-02  0.7629395E-01  0.4905070E+06  0.7852019E+05
  0.1752381E+01  0.6393255E+04  0.7837527E+05 -0.4109922E-01 -0.1135254E-01  0.4889402E+06  0.7701210E+05
  0.1783333E+01  0.3912655E+04  0.7842181E+05  0.2341012E-01  0.3240967E-01  0.4878634E+06  0.7523200E+05
  0.1814286E+01  0.1560353E+04  0.7830826E+05 -0.8881336E-02  0.2398682E-01  0.4860736E+06  0.7281977E+05
  0.1845238E+01 -0.6204420E+03  0.7797294E+05  0.1733241E-01 -0.2441406E-03  0.4838451E+06  0.7000252E+05
  0.1876190E+01 -0.2647457E+04  0.7730662E+05 -0.1860798E-01  0.2136230E-01  0.4817461E+06  0.6703434E+05
  0.1907143E+01 -0.4576186E+04  0.7631764E+05 -0.1817796E-01 -0.2679443E-01  0.4798248E+06  0.6340666E+05
  0.1938095E+01 -0.6373800E+04  0.7488453E+05 -0.7558162E-02  0.5633545E-01  0.4787328E+06  0.5969215E+05
  0.1969048E+01 -0.8017202E+04  0.7311677E+05 -0.4959568E-03  0.1312256E-01  0.4783060E+06  0.5658281E+05
  0.2000000E+01 -0.9468695E+04  0.7111513E+05  0.4040527E-01  0.5413818E-01  0.4783665E+06  0.5424166E+05
