VARIABLES="w (rad/s)"
"abs(F   1   1)" "angle(F   1   1)"
"abs(F   1   2)" "angle(F   1   2)"
"abs(F   1   3)" "angle(F   1   3)"
Zone t="Diffraction force - beta =   0.000 deg",I=    64,F=POINT
  0.5000000E-01  0.2871483E+04 -0.1570790E+01  0.4672413E+06 -0.3143803E-04  0.4067018E+03  0.1570785E+01
  0.8095238E-01  0.4684265E+04 -0.1570790E+01  0.4662194E+06 -0.8454023E-04  0.6733574E+03  0.1570790E+01
  0.1119048E+00  0.6533128E+04 -0.1570789E+01  0.4647201E+06 -0.1677773E-03  0.9340330E+03  0.1570817E+01
  0.1428571E+00  0.8468258E+04 -0.1570792E+01  0.4627442E+06 -0.2874525E-03  0.1235754E+04  0.1570808E+01
  0.1738095E+00  0.1047295E+05 -0.1570786E+01  0.4602887E+06 -0.4530508E-03  0.1542625E+04  0.1570815E+01
  0.2047619E+00  0.1259871E+05 -0.1570780E+01  0.4573453E+06 -0.6782844E-03  0.1883248E+04  0.1570808E+01
  0.2357143E+00  0.1487442E+05 -0.1570773E+01  0.4539213E+06 -0.9834126E-03  0.2264272E+04  0.1570826E+01
  0.2666667E+00  0.1728896E+05 -0.1570760E+01  0.4500052E+06 -0.1392722E-02  0.2658302E+04  0.1570832E+01
  0.2976190E+00  0.1995976E+05 -0.1570744E+01  0.4455998E+06 -0.1948030E-02  0.3146439E+04  0.1570854E+01
  0.3285715E+00  0.2288622E+05 -0.1570715E+01  0.4407048E+06 -0.2690730E-02  0.3676992E+04  0.1570875E+01
  0.3595238E+00  0.2608100E+05 -0.1570677E+01  0.4353379E+06 -0.3687819E-02  0.4280108E+04  0.1570919E+01
  0.3904762E+00  0.2964344E+05 -0.1570617E+01  0.4294827E+06 -0.5012668E-02  0.4973920E+04  0.1570974E+01
  0.4214286E+00  0.3364588E+05 -0.1570529E+01  0.4232390E+06 -0.6710624E-02  0.5817676E+04  0.1571068E+01
  0.4523810E+00  0.3799046E+05 -0.1570399E+01  0.4165312E+06 -0.8910231E-02  0.6714899E+04  0.1571198E+01
  0.4833333E+00  0.4276512E+05 -0.1570217E+01  0.4095434E+06 -0.1154707E-01  0.7742843E+04  0.1571375E+01
  0.5142857E+00  0.4801935E+05 -0.1569964E+01  0.4021793E+06 -0.1477090E-01  0.8954850E+04  0.1571632E+01
  0.5452381E+00  0.5369206E+05 -0.1569620E+01  0.3945609E+06 -0.1852781E-01  0.1028598E+05  0.1571975E+01
  0.5761905E+00  0.5968654E+05 -0.1569173E+01  0.3866951E+06 -0.2282455E-01  0.1178563E+05  0.1572425E+01
  0.6071429E+00  0.6594596E+05 -0.1568587E+01  0.3785349E+06 -0.2778244E-01  0.1333933E+05  0.1573012E+01
  0.6380953E+00  0.7271504E+05 -0.1567850E+01  0.3702703E+06 -0.3326936E-01  0.1514400E+05  0.1573748E+01
  0.6690477E+00  0.7981266E+05 -0.1566926E+01  0.3617806E+06 -0.3941023E-01  0.1718225E+05  0.1574677E+01
  0.7000000E+00  0.8712400E+05 -0.1565777E+01  0.3530864E+06 -0.4626095E-01  0.1929972E+05  0.1575833E+01
  0.7309524E+00  0.9473505E+05 -0.1564374E+01  0.3443953E+06 -0.5377236E-01  0.2151373E+05  0.1577243E+01
  0.7619048E+00  0.1025900E+06 -0.1562675E+01  0.3355597E+06 -0.6201067E-01  0.2401498E+05  0.1578956E+01
  0.7928572E+00  0.1107415E+06 -0.1560635E+01  0.3266106E+06 -0.7098424E-01  0.2667238E+05  0.1581006E+01
  0.8238096E+00  0.1193285E+06 -0.1558209E+01  0.3176336E+06 -0.8072637E-01  0.2962070E+05  0.1583440E+01
  0.8547620E+00  0.1282096E+06 -0.1555349E+01  0.3087419E+06 -0.9125400E-01  0.3277741E+05  0.1586325E+01
  0.8857143E+00  0.1371879E+06 -0.1551999E+01  0.2998113E+06 -0.1025658E+00  0.3613194E+05  0.1589714E+01
  0.9166667E+00  0.1462943E+06 -0.1548109E+01  0.2907984E+06 -0.1146396E+00  0.3955840E+05  0.1593656E+01
  0.9476191E+00  0.1555741E+06 -0.1543635E+01  0.2818823E+06 -0.1275321E+00  0.4318727E+05  0.1598192E+01
  0.9785714E+00  0.1651220E+06 -0.1538533E+01  0.2731691E+06 -0.1412640E+00  0.4700066E+05  0.1603361E+01
  0.1009524E+01  0.1750380E+06 -0.1532765E+01  0.2644797E+06 -0.1558346E+00  0.5135153E+05  0.1609146E+01
  0.1040476E+01  0.1850173E+06 -0.1526260E+01  0.2558205E+06 -0.1711914E+00  0.5579442E+05  0.1615721E+01
  0.1071429E+01  0.1949985E+06 -0.1518973E+01  0.2472108E+06 -0.1873253E+00  0.6040748E+05  0.1623138E+01
  0.1102381E+01  0.2049934E+06 -0.1510885E+01  0.2388647E+06 -0.2043504E+00  0.6509995E+05  0.1631391E+01
  0.1133333E+01  0.2149685E+06 -0.1501978E+01  0.2307233E+06 -0.2222314E+00  0.6993045E+05  0.1640539E+01
  0.1164286E+01  0.2247482E+06 -0.1492243E+01  0.2226419E+06 -0.2410385E+00  0.7501514E+05  0.1650551E+01
  0.1195238E+01  0.2342004E+06 -0.1481703E+01  0.2146615E+06 -0.2606660E+00  0.8004502E+05  0.1661394E+01
  0.1226190E+01  0.2433471E+06 -0.1470395E+01  0.2067683E+06 -0.2811257E+00  0.8511727E+05  0.1673034E+01
  0.1257143E+01  0.2522002E+06 -0.1458423E+01  0.1990874E+06 -0.3027050E+00  0.9027461E+05  0.1685209E+01
  0.1288095E+01  0.2610960E+06 -0.1445977E+01  0.1917589E+06 -0.3247409E+00  0.9544281E+05  0.1697676E+01
  0.1319048E+01  0.2693519E+06 -0.1432914E+01  0.1845774E+06 -0.3479594E+00  0.1007482E+06  0.1711188E+01
  0.1350000E+01  0.2768223E+06 -0.1419450E+01  0.1775240E+06 -0.3721502E+00  0.1058824E+06  0.1725186E+01
  0.1380952E+01  0.2835163E+06 -0.1405740E+01  0.1705894E+06 -0.3972061E+00  0.1107692E+06  0.1739451E+01
  0.1411905E+01  0.2889632E+06 -0.1391813E+01  0.1638155E+06 -0.4231319E+00  0.1151774E+06  0.1754123E+01
  0.1442857E+01  0.2939348E+06 -0.1378271E+01  0.1571830E+06 -0.4501835E+00  0.1196333E+06  0.1768279E+01
  0.1473810E+01  0.2981950E+06 -0.1365354E+01  0.1510206E+06 -0.4780067E+00  0.1235153E+06  0.1781413E+01
  0.1504762E+01  0.3014770E+06 -0.1353007E+01  0.1450512E+06 -0.5067827E+00  0.1270036E+06  0.1794271E+01
  0.1535714E+01  0.3038407E+06 -0.1341455E+01  0.1392303E+06 -0.5367426E+00  0.1305874E+06  0.1806861E+01
  0.1566667E+01  0.3050308E+06 -0.1331054E+01  0.1335915E+06 -0.5676377E+00  0.1335018E+06  0.1818238E+01
  0.1597619E+01  0.3051857E+06 -0.1322009E+01  0.1281181E+06 -0.5994967E+00  0.1358350E+06  0.1828199E+01
  0.1628572E+01  0.3044233E+06 -0.1314554E+01  0.1228016E+06 -0.6322714E+00  0.1377563E+06  0.1836466E+01
  0.1659524E+01  0.3027876E+06 -0.1308884E+01  0.1176508E+06 -0.6660935E+00  0.1393738E+06  0.1843008E+01
  0.1690476E+01  0.3003877E+06 -0.1305334E+01  0.1129739E+06 -0.6999574E+00  0.1401829E+06  0.1847279E+01
  0.1721429E+01  0.2972493E+06 -0.1303906E+01  0.1085323E+06 -0.7341580E+00  0.1404661E+06  0.1849445E+01
  0.1752381E+01  0.2935132E+06 -0.1304675E+01  0.1042792E+06 -0.7690257E+00  0.1405833E+06  0.1849463E+01
  0.1783333E+01  0.2891502E+06 -0.1307811E+01  0.1001778E+06 -0.8042790E+00  0.1404107E+06  0.1847355E+01
  0.1814286E+01  0.2842278E+06 -0.1313454E+01  0.9620764E+05 -0.8395235E+00  0.1398108E+06  0.1842596E+01
  0.1845238E+01  0.2788178E+06 -0.1321675E+01  0.9238234E+05 -0.8746282E+00  0.1387588E+06  0.1835251E+01
  0.1876190E+01  0.2730273E+06 -0.1332469E+01  0.8866848E+05 -0.9092585E+00  0.1373961E+06  0.1825175E+01
  0.1907143E+01  0.2669568E+06 -0.1345945E+01  0.8504127E+05 -0.9436349E+00  0.1358559E+06  0.1812365E+01
  0.1938095E+01  0.2608016E+06 -0.1362274E+01  0.8158567E+05 -0.9767037E+00  0.1339409E+06  0.1795760E+01
  0.1969048E+01  0.2545687E+06 -0.1381475E+01  0.7827222E+05 -0.1008191E+01  0.1316378E+06  0.1775415E+01
  0.2000000E+01  0.2482440E+06 -0.1403543E+01  0.7500428E+05 -0.1038407E+01  0.1290924E+06  0.1751709E+01
