VARIABLES="w (rad/s)"
"abs(F   1   1)" "angle(F   1   1)"
"abs(F   1   2)" "angle(F   1   2)"
"abs(F   1   3)" "angle(F   1   3)"
Zone t="Diffraction force - beta =   0.000 deg",I=    64,F=POINT
  0.5000000E-01  0.8757317E+04 -0.1570795E+01  0.4163201E+06 -0.2832120E-04  0.2878453E+05  0.1570798E+01
  0.8095238E-01  0.1428685E+05 -0.1570787E+01  0.4146445E+06 -0.7602963E-04  0.4692457E+05  0.1570795E+01
  0.1119048E+00  0.1992322E+05 -0.1570790E+01  0.4121824E+06 -0.1504859E-03  0.6542326E+05  0.1570810E+01
  0.1428571E+00  0.2573774E+05 -0.1570781E+01  0.4089421E+06 -0.2570400E-03  0.8442464E+05  0.1570812E+01
  0.1738095E+00  0.3177200E+05 -0.1570769E+01  0.4049279E+06 -0.4032204E-03  0.1041620E+06  0.1570822E+01
  0.2047619E+00  0.3811201E+05 -0.1570748E+01  0.4001405E+06 -0.6008674E-03  0.1247883E+06  0.1570838E+01
  0.2357143E+00  0.4482325E+05 -0.1570724E+01  0.3946045E+06 -0.8663714E-03  0.1465996E+06  0.1570867E+01
  0.2666667E+00  0.5199511E+05 -0.1570690E+01  0.3883198E+06 -0.1218166E-02  0.1698402E+06  0.1570902E+01
  0.2976190E+00  0.5975020E+05 -0.1570639E+01  0.3813191E+06 -0.1692210E-02  0.1948262E+06  0.1570953E+01
  0.3285715E+00  0.6815719E+05 -0.1570562E+01  0.3736181E+06 -0.2317251E-02  0.2218786E+06  0.1571030E+01
  0.3595238E+00  0.7736776E+05 -0.1570449E+01  0.3652805E+06 -0.3149285E-02  0.2514512E+06  0.1571146E+01
  0.3904762E+00  0.8749999E+05 -0.1570276E+01  0.3563115E+06 -0.4239512E-02  0.2837201E+06  0.1571317E+01
  0.4214286E+00  0.9863989E+05 -0.1570029E+01  0.3468599E+06 -0.5617531E-02  0.3190936E+06  0.1571564E+01
  0.4523810E+00  0.1108480E+06 -0.1569667E+01  0.3368604E+06 -0.7397885E-02  0.3578322E+06  0.1571925E+01
  0.4833333E+00  0.1240837E+06 -0.1569168E+01  0.3265953E+06 -0.9482602E-02  0.3995166E+06  0.1572425E+01
  0.5142857E+00  0.1384162E+06 -0.1568478E+01  0.3159407E+06 -0.1202179E-01  0.4442098E+06  0.1573114E+01
  0.5452381E+00  0.1535578E+06 -0.1567562E+01  0.3050556E+06 -0.1493617E-01  0.4912688E+06  0.1574029E+01
  0.5761905E+00  0.1695207E+06 -0.1566381E+01  0.2940062E+06 -0.1822085E-01  0.5408514E+06  0.1575210E+01
  0.6071429E+00  0.1863507E+06 -0.1564865E+01  0.2827005E+06 -0.2201239E-01  0.5925381E+06  0.1576728E+01
  0.6380953E+00  0.2037188E+06 -0.1562985E+01  0.2714346E+06 -0.2611880E-01  0.6452251E+06  0.1578607E+01
  0.6690477E+00  0.2216640E+06 -0.1560665E+01  0.2600612E+06 -0.3069044E-01  0.6992281E+06  0.1580928E+01
  0.7000000E+00  0.2401632E+06 -0.1557829E+01  0.2485715E+06 -0.3579941E-01  0.7546099E+06  0.1583764E+01
  0.7309524E+00  0.2588666E+06 -0.1554431E+01  0.2372605E+06 -0.4130321E-01  0.8101754E+06  0.1587162E+01
  0.7619048E+00  0.2780828E+06 -0.1550392E+01  0.2260002E+06 -0.4733578E-01  0.8664338E+06  0.1591200E+01
  0.7928572E+00  0.2977806E+06 -0.1545635E+01  0.2147626E+06 -0.5393308E-01  0.9230798E+06  0.1595956E+01
  0.8238096E+00  0.3174858E+06 -0.1540083E+01  0.2036581E+06 -0.6107396E-01  0.9791049E+06  0.1601508E+01
  0.8547620E+00  0.3372812E+06 -0.1533666E+01  0.1928923E+06 -0.6872322E-01  0.1034754E+07  0.1607925E+01
  0.8857143E+00  0.3570762E+06 -0.1526314E+01  0.1822875E+06 -0.7700142E-01  0.1089566E+07  0.1615278E+01
  0.9166667E+00  0.3769864E+06 -0.1517968E+01  0.1718042E+06 -0.8598536E-01  0.1144101E+07  0.1623624E+01
  0.9476191E+00  0.3965245E+06 -0.1508616E+01  0.1615878E+06 -0.9562226E-01  0.1196371E+07  0.1632972E+01
  0.9785714E+00  0.4157173E+06 -0.1498211E+01  0.1518752E+06 -0.1056780E+00  0.1246172E+07  0.1643372E+01
  0.1009524E+01  0.4345468E+06 -0.1486711E+01  0.1424259E+06 -0.1165071E+00  0.1293958E+07  0.1654869E+01
  0.1040476E+01  0.4527235E+06 -0.1474119E+01  0.1332294E+06 -0.1281898E+00  0.1338548E+07  0.1667458E+01
  0.1071429E+01  0.4701845E+06 -0.1460431E+01  0.1242951E+06 -0.1408789E+00  0.1380432E+07  0.1681145E+01
  0.1102381E+01  0.4862311E+06 -0.1445724E+01  0.1158120E+06 -0.1539438E+00  0.1416971E+07  0.1695845E+01
  0.1133333E+01  0.5011131E+06 -0.1430029E+01  0.1078062E+06 -0.1675635E+00  0.1449688E+07  0.1711545E+01
  0.1164286E+01  0.5145598E+06 -0.1413518E+01  0.1001288E+06 -0.1821250E+00  0.1477470E+07  0.1728055E+01
  0.1195238E+01  0.5264709E+06 -0.1396476E+01  0.9276996E+05 -0.1977882E+00  0.1499134E+07  0.1745081E+01
  0.1226190E+01  0.5369427E+06 -0.1378955E+01  0.8573805E+05 -0.2146970E+00  0.1516011E+07  0.1762587E+01
  0.1257143E+01  0.5449875E+06 -0.1361138E+01  0.7905815E+05 -0.2328605E+00  0.1525420E+07  0.1780393E+01
  0.1288095E+01  0.5510431E+06 -0.1343408E+01  0.7288545E+05 -0.2501664E+00  0.1527757E+07  0.1798073E+01
  0.1319048E+01  0.5551173E+06 -0.1325677E+01  0.6709959E+05 -0.2686369E+00  0.1525239E+07  0.1815827E+01
  0.1350000E+01  0.5568289E+06 -0.1308553E+01  0.6162543E+05 -0.2883369E+00  0.1515180E+07  0.1832922E+01
  0.1380952E+01  0.5566473E+06 -0.1292288E+01  0.5645574E+05 -0.3094066E+00  0.1499274E+07  0.1849146E+01
  0.1411905E+01  0.5542201E+06 -0.1276829E+01  0.5163196E+05 -0.3320231E+00  0.1478300E+07  0.1864574E+01
  0.1442857E+01  0.5499347E+06 -0.1262846E+01  0.4708721E+05 -0.3564701E+00  0.1451520E+07  0.1878561E+01
  0.1473810E+01  0.5435826E+06 -0.1250544E+01  0.4290221E+05 -0.3796871E+00  0.1418578E+07  0.1890716E+01
  0.1504762E+01  0.5357268E+06 -0.1239777E+01  0.3906323E+05 -0.4032806E+00  0.1382496E+07  0.1901474E+01
  0.1535714E+01  0.5266608E+06 -0.1230842E+01  0.3550554E+05 -0.4277099E+00  0.1343906E+07  0.1910461E+01
  0.1566667E+01  0.5160463E+06 -0.1224283E+01  0.3218426E+05 -0.4541293E+00  0.1300718E+07  0.1916857E+01
  0.1597619E+01  0.5045909E+06 -0.1219726E+01  0.2911264E+05 -0.4820848E+00  0.1256181E+07  0.1921320E+01
  0.1628572E+01  0.4924508E+06 -0.1217220E+01  0.2628926E+05 -0.5113096E+00  0.1210906E+07  0.1923814E+01
  0.1659524E+01  0.4793404E+06 -0.1217112E+01  0.2368938E+05 -0.5425506E+00  0.1163842E+07  0.1923940E+01
  0.1690476E+01  0.4657000E+06 -0.1219507E+01  0.2129215E+05 -0.5744568E+00  0.1115756E+07  0.1921336E+01
  0.1721429E+01  0.4517059E+06 -0.1224252E+01  0.1911463E+05 -0.6058511E+00  0.1067479E+07  0.1916359E+01
  0.1752381E+01  0.4376272E+06 -0.1230967E+01  0.1714171E+05 -0.6360767E+00  0.1020403E+07  0.1909780E+01
  0.1783333E+01  0.4234897E+06 -0.1240043E+01  0.1533647E+05 -0.6684997E+00  0.9738163E+06  0.1900699E+01
  0.1814286E+01  0.4093598E+06 -0.1251523E+01  0.1367730E+05 -0.7050365E+00  0.9276990E+06  0.1888972E+01
  0.1845238E+01  0.3954522E+06 -0.1264991E+01  0.1217276E+05 -0.7427331E+00  0.8831506E+06  0.1875382E+01
  0.1876190E+01  0.3818236E+06 -0.1280351E+01  0.1081304E+05 -0.7809057E+00  0.8403112E+06  0.1860093E+01
  0.1907143E+01  0.3682623E+06 -0.1297897E+01  0.9586635E+04 -0.8213341E+00  0.7984083E+06  0.1842678E+01
  0.1938095E+01  0.3550267E+06 -0.1317461E+01  0.8476954E+04 -0.8649756E+00  0.7579868E+06  0.1823108E+01
  0.1969048E+01  0.3420656E+06 -0.1339209E+01  0.7476395E+04 -0.9115582E+00  0.7188112E+06  0.1800968E+01
  0.2000000E+01  0.3295087E+06 -0.1362524E+01  0.6578034E+04 -0.9560611E+00  0.6815159E+06  0.1777722E+01
