VARIABLES="w (rad/s)"
"abs(F   1   1)" "angle(F   1   1)"
"abs(F   1   2)" "angle(F   1   2)"
"abs(F   1   3)" "angle(F   1   3)"
Zone t="Diffraction force - beta =   0.000 deg",I=    64,F=POINT
  0.5000000E-01  0.1023202E+03 -0.1570796E+01  0.2722102E+02 -0.3115847E+01  0.6397311E+00 -0.1570796E+01
  0.8095238E-01  0.1668025E+03 -0.1570796E+01  0.7100021E+02 -0.3115041E+01  0.1037996E+01 -0.1570795E+01
  0.1119048E+00  0.2327576E+03 -0.1570795E+01  0.1356261E+03 -0.3113994E+01  0.1422078E+01 -0.1570795E+01
  0.1428571E+00  0.3009819E+03 -0.1570795E+01  0.2210211E+03 -0.3112558E+01  0.1861374E+01 -0.1570793E+01
  0.1738095E+00  0.3733241E+03 -0.1570793E+01  0.3275229E+03 -0.3110680E+01  0.2279582E+01 -0.1570791E+01
  0.2047619E+00  0.4488201E+03 -0.1570792E+01  0.4554426E+03 -0.3108280E+01  0.2792399E+01 -0.1570789E+01
  0.2357143E+00  0.5287069E+03 -0.1570789E+01  0.6053306E+03 -0.3105213E+01  0.3254959E+01 -0.1570785E+01
  0.2666667E+00  0.6172673E+03 -0.1570786E+01  0.7777508E+03 -0.3101426E+01  0.3835057E+01 -0.1570779E+01
  0.2976190E+00  0.7110451E+03 -0.1570781E+01  0.9730502E+03 -0.3096622E+01  0.4470685E+01 -0.1570773E+01
  0.3285715E+00  0.8135135E+03 -0.1570773E+01  0.1192402E+04 -0.3090797E+01  0.5103981E+01 -0.1570761E+01
  0.3595238E+00  0.9296669E+03 -0.1570760E+01  0.1435146E+04 -0.3083636E+01  0.5851346E+01 -0.1570746E+01
  0.3904762E+00  0.1057188E+04 -0.1570743E+01  0.1702380E+04 -0.3075029E+01  0.6792760E+01 -0.1570720E+01
  0.4214286E+00  0.1196149E+04 -0.1570716E+01  0.1992876E+04 -0.3065266E+01  0.7695212E+01 -0.1570686E+01
  0.4523810E+00  0.1350854E+04 -0.1570676E+01  0.2306946E+04 -0.3053839E+01  0.8724301E+01 -0.1570631E+01
  0.4833333E+00  0.1524873E+04 -0.1570621E+01  0.2642169E+04 -0.3041992E+01  0.9999327E+01 -0.1570560E+01
  0.5142857E+00  0.1710811E+04 -0.1570543E+01  0.2997663E+04 -0.3029000E+01  0.1141841E+02 -0.1570460E+01
  0.5452381E+00  0.1906706E+04 -0.1570438E+01  0.3374970E+04 -0.3015799E+01  0.1284703E+02 -0.1570319E+01
  0.5761905E+00  0.2121307E+04 -0.1570300E+01  0.3770795E+04 -0.3002492E+01  0.1444118E+02 -0.1570141E+01
  0.6071429E+00  0.2351541E+04 -0.1570121E+01  0.4183990E+04 -0.2988602E+01  0.1652642E+02 -0.1569918E+01
  0.6380953E+00  0.2592863E+04 -0.1569894E+01  0.4617800E+04 -0.2975136E+01  0.1862073E+02 -0.1569634E+01
  0.6690477E+00  0.2834801E+04 -0.1569605E+01  0.5068383E+04 -0.2961468E+01  0.2008432E+02 -0.1569238E+01
  0.7000000E+00  0.3089389E+04 -0.1569244E+01  0.5535035E+04 -0.2947482E+01  0.2221495E+02 -0.1568778E+01
  0.7309524E+00  0.3364767E+04 -0.1568805E+01  0.6019968E+04 -0.2933665E+01  0.2475694E+02 -0.1568234E+01
  0.7619048E+00  0.3652063E+04 -0.1568272E+01  0.6518809E+04 -0.2919701E+01  0.2736070E+02 -0.1567569E+01
  0.7928572E+00  0.3946234E+04 -0.1567626E+01  0.7029756E+04 -0.2905555E+01  0.3029195E+02 -0.1566783E+01
  0.8238096E+00  0.4243773E+04 -0.1566848E+01  0.7555284E+04 -0.2891415E+01  0.3293222E+02 -0.1565801E+01
  0.8547620E+00  0.4544736E+04 -0.1565920E+01  0.8093645E+04 -0.2877296E+01  0.3532075E+02 -0.1564586E+01
  0.8857143E+00  0.4862641E+04 -0.1564832E+01  0.8642576E+04 -0.2863162E+01  0.3814999E+02 -0.1563193E+01
  0.9166667E+00  0.5194876E+04 -0.1563563E+01  0.9199554E+04 -0.2848981E+01  0.4175600E+02 -0.1561665E+01
  0.9476191E+00  0.5541884E+04 -0.1562095E+01  0.9764624E+04 -0.2834835E+01  0.4582758E+02 -0.1559947E+01
  0.9785714E+00  0.5898709E+04 -0.1560399E+01  0.1033663E+05 -0.2820752E+01  0.4990921E+02 -0.1557939E+01
  0.1009524E+01  0.6258111E+04 -0.1558444E+01  0.1091371E+05 -0.2806723E+01  0.5369538E+02 -0.1555545E+01
  0.1040476E+01  0.6614209E+04 -0.1556192E+01  0.1149461E+05 -0.2792759E+01  0.5714094E+02 -0.1552690E+01
  0.1071429E+01  0.6972683E+04 -0.1553623E+01  0.1207988E+05 -0.2778940E+01  0.6102954E+02 -0.1549513E+01
  0.1102381E+01  0.7349725E+04 -0.1550742E+01  0.1266910E+05 -0.2765319E+01  0.6572205E+02 -0.1546102E+01
  0.1133333E+01  0.7741586E+04 -0.1547518E+01  0.1325821E+05 -0.2751789E+01  0.7055392E+02 -0.1542279E+01
  0.1164286E+01  0.8144092E+04 -0.1543920E+01  0.1384639E+05 -0.2738378E+01  0.7548353E+02 -0.1537967E+01
  0.1195238E+01  0.8552930E+04 -0.1539912E+01  0.1443115E+05 -0.2725049E+01  0.8101060E+02 -0.1533306E+01
  0.1226190E+01  0.8966388E+04 -0.1535462E+01  0.1501348E+05 -0.2711901E+01  0.8713184E+02 -0.1528279E+01
  0.1257143E+01  0.9375066E+04 -0.1530517E+01  0.1559419E+05 -0.2698587E+01  0.9343285E+02 -0.1522722E+01
  0.1288095E+01  0.9798831E+04 -0.1525100E+01  0.1616864E+05 -0.2686293E+01  0.9921150E+02 -0.1516323E+01
  0.1319048E+01  0.1020579E+05 -0.1519090E+01  0.1673851E+05 -0.2673794E+01  0.1043295E+03 -0.1508944E+01
  0.1350000E+01  0.1061250E+05 -0.1512516E+01  0.1730238E+05 -0.2661528E+01  0.1098560E+03 -0.1501023E+01
  0.1380952E+01  0.1102698E+05 -0.1505398E+01  0.1785924E+05 -0.2649496E+01  0.1161320E+03 -0.1492694E+01
  0.1411905E+01  0.1138325E+05 -0.1497763E+01  0.1839310E+05 -0.2637514E+01  0.1198823E+03 -0.1482744E+01
  0.1442857E+01  0.1180882E+05 -0.1489532E+01  0.1893126E+05 -0.2625842E+01  0.1276086E+03 -0.1473654E+01
  0.1473810E+01  0.1223398E+05 -0.1480692E+01  0.1945906E+05 -0.2614395E+01  0.1354084E+03 -0.1463798E+01
  0.1504762E+01  0.1265563E+05 -0.1471218E+01  0.1997500E+05 -0.2603127E+01  0.1431134E+03 -0.1453137E+01
  0.1535714E+01  0.1306788E+05 -0.1461062E+01  0.2047893E+05 -0.2592075E+01  0.1507220E+03 -0.1441595E+01
  0.1566667E+01  0.1347067E+05 -0.1450218E+01  0.2097047E+05 -0.2581260E+01  0.1586263E+03 -0.1429388E+01
  0.1597619E+01  0.1385414E+05 -0.1438613E+01  0.2144744E+05 -0.2570583E+01  0.1664165E+03 -0.1416228E+01
  0.1628572E+01  0.1421621E+05 -0.1426230E+01  0.2191201E+05 -0.2560212E+01  0.1738781E+03 -0.1401957E+01
  0.1659524E+01  0.1455893E+05 -0.1413081E+01  0.2236386E+05 -0.2550141E+01  0.1812642E+03 -0.1386738E+01
  0.1690476E+01  0.1488269E+05 -0.1399208E+01  0.2280257E+05 -0.2540387E+01  0.1890637E+03 -0.1371194E+01
  0.1721429E+01  0.1519230E+05 -0.1384727E+01  0.2322697E+05 -0.2530880E+01  0.1962852E+03 -0.1354544E+01
  0.1752381E+01  0.1548412E+05 -0.1369643E+01  0.2363486E+05 -0.2521550E+01  0.2039033E+03 -0.1337723E+01
  0.1783333E+01  0.1575208E+05 -0.1353931E+01  0.2402649E+05 -0.2512426E+01  0.2109614E+03 -0.1319967E+01
  0.1814286E+01  0.1599665E+05 -0.1337636E+01  0.2440159E+05 -0.2503536E+01  0.2181789E+03 -0.1301623E+01
  0.1845238E+01  0.1620673E+05 -0.1320665E+01  0.2475765E+05 -0.2494697E+01  0.2255621E+03 -0.1282757E+01
  0.1876190E+01  0.1638264E+05 -0.1303065E+01  0.2509682E+05 -0.2486139E+01  0.2328713E+03 -0.1263454E+01
  0.1907143E+01  0.1652385E+05 -0.1284876E+01  0.2541899E+05 -0.2477829E+01  0.2399564E+03 -0.1243687E+01
  0.1938095E+01  0.1662811E+05 -0.1266131E+01  0.2572414E+05 -0.2469832E+01  0.2470388E+03 -0.1223795E+01
  0.1969048E+01  0.1669279E+05 -0.1246943E+01  0.2601140E+05 -0.2462100E+01  0.2532862E+03 -0.1203319E+01
  0.2000000E+01  0.1671759E+05 -0.1227379E+01  0.2627950E+05 -0.2454535E+01  0.2585220E+03 -0.1181852E+01
