VARIABLES="w (rad/s)"
"abs(F   1   1)" "angle(F   1   1)"
"abs(F   1   2)" "angle(F   1   2)"
"abs(F   1   3)" "angle(F   1   3)"
Zone t="Diffraction force - beta =   0.000 deg",I=    64,F=POINT
  0.5000000E-01  0.1806321E+04 -0.1570842E+01  0.6776069E+05 -0.4848106E-05  0.7409318E+04  0.1570777E+01
  0.8095238E-01  0.2950591E+04 -0.1570782E+01  0.6750451E+05 -0.1301870E-04  0.1207996E+05  0.1570789E+01
  0.1119048E+00  0.4117242E+04 -0.1570793E+01  0.6712796E+05 -0.2577589E-04  0.1683173E+05  0.1570793E+01
  0.1428571E+00  0.5313211E+04 -0.1570802E+01  0.6663176E+05 -0.4404421E-04  0.2169762E+05  0.1570796E+01
  0.1738095E+00  0.6553231E+04 -0.1570786E+01  0.6601685E+05 -0.6912676E-04  0.2672899E+05  0.1570807E+01
  0.2047619E+00  0.7853678E+04 -0.1570788E+01  0.6528500E+05 -0.1030841E-03  0.3197332E+05  0.1570807E+01
  0.2357143E+00  0.9222947E+04 -0.1570773E+01  0.6443766E+05 -0.1487415E-03  0.3748634E+05  0.1570811E+01
  0.2666667E+00  0.1068102E+05 -0.1570778E+01  0.6347791E+05 -0.2093293E-03  0.4332681E+05  0.1570819E+01
  0.2976190E+00  0.1225362E+05 -0.1570764E+01  0.6240890E+05 -0.2910761E-03  0.4957382E+05  0.1570832E+01
  0.3285715E+00  0.1394877E+05 -0.1570752E+01  0.6123563E+05 -0.3990766E-03  0.5629543E+05  0.1570847E+01
  0.3595238E+00  0.1580063E+05 -0.1570724E+01  0.5996365E+05 -0.5429870E-03  0.6358135E+05  0.1570867E+01
  0.3904762E+00  0.1782130E+05 -0.1570689E+01  0.5860115E+05 -0.7321727E-03  0.7148758E+05  0.1570902E+01
  0.4214286E+00  0.2003250E+05 -0.1570638E+01  0.5715557E+05 -0.9716538E-03  0.8008189E+05  0.1570955E+01
  0.4523810E+00  0.2244753E+05 -0.1570567E+01  0.5563936E+05 -0.1281734E-02  0.8939575E+05  0.1571026E+01
  0.4833333E+00  0.2504068E+05 -0.1570466E+01  0.5405889E+05 -0.1646262E-02  0.9933823E+05  0.1571129E+01
  0.5142857E+00  0.2783408E+05 -0.1570324E+01  0.5242759E+05 -0.2090906E-02  0.1099124E+06  0.1571268E+01
  0.5452381E+00  0.3076578E+05 -0.1570142E+01  0.5075103E+05 -0.2603780E-02  0.1209521E+06  0.1571450E+01
  0.5761905E+00  0.3383873E+05 -0.1569906E+01  0.4903633E+05 -0.3183575E-02  0.1323970E+06  0.1571684E+01
  0.6071429E+00  0.3704077E+05 -0.1569604E+01  0.4729584E+05 -0.3853295E-02  0.1441610E+06  0.1571988E+01
  0.6380953E+00  0.4030496E+05 -0.1569234E+01  0.4552938E+05 -0.4586647E-02  0.1560299E+06  0.1572361E+01
  0.6690477E+00  0.4365401E+05 -0.1568776E+01  0.4374661E+05 -0.5404874E-02  0.1680112E+06  0.1572816E+01
  0.7000000E+00  0.4708109E+05 -0.1568220E+01  0.4195788E+05 -0.6318956E-02  0.1800959E+06  0.1573370E+01
  0.7309524E+00  0.5051464E+05 -0.1567558E+01  0.4016337E+05 -0.7320487E-02  0.1920459E+06  0.1574033E+01
  0.7619048E+00  0.5398923E+05 -0.1566773E+01  0.3836893E+05 -0.8427126E-02  0.2038982E+06  0.1574819E+01
  0.7928572E+00  0.5752327E+05 -0.1565849E+01  0.3659211E+05 -0.9624166E-02  0.2156706E+06  0.1575742E+01
  0.8238096E+00  0.6102083E+05 -0.1564776E+01  0.3482864E+05 -0.1094082E-01  0.2271377E+06  0.1576817E+01
  0.8547620E+00  0.6452866E+05 -0.1563536E+01  0.3308382E+05 -0.1238354E-01  0.2384082E+06  0.1578057E+01
  0.8857143E+00  0.6802178E+05 -0.1562115E+01  0.3136505E+05 -0.1395500E-01  0.2493192E+06  0.1579478E+01
  0.9166667E+00  0.7154222E+05 -0.1560497E+01  0.2968302E+05 -0.1562429E-01  0.2600286E+06  0.1581095E+01
  0.9476191E+00  0.7497724E+05 -0.1558671E+01  0.2803617E+05 -0.1744867E-01  0.2702057E+06  0.1582919E+01
  0.9785714E+00  0.7837673E+05 -0.1556620E+01  0.2642753E+05 -0.1944283E-01  0.2799690E+06  0.1584970E+01
  0.1009524E+01  0.8173059E+05 -0.1554330E+01  0.2485918E+05 -0.2163829E-01  0.2892455E+06  0.1587258E+01
  0.1040476E+01  0.8508044E+05 -0.1551785E+01  0.2334536E+05 -0.2389620E-01  0.2981338E+06  0.1589802E+01
  0.1071429E+01  0.8835512E+05 -0.1548971E+01  0.2188126E+05 -0.2633929E-01  0.3065505E+06  0.1592617E+01
  0.1102381E+01  0.9150764E+05 -0.1545877E+01  0.2046784E+05 -0.2899901E-01  0.3142363E+06  0.1595706E+01
  0.1133333E+01  0.9460273E+05 -0.1542485E+01  0.1910722E+05 -0.3190275E-01  0.3214844E+06  0.1599095E+01
  0.1164286E+01  0.9760141E+05 -0.1538792E+01  0.1779904E+05 -0.3510585E-01  0.3280597E+06  0.1602785E+01
  0.1195238E+01  0.1005565E+06 -0.1534782E+01  0.1655367E+05 -0.3831396E-01  0.3340992E+06  0.1606789E+01
  0.1226190E+01  0.1034299E+06 -0.1530443E+01  0.1536543E+05 -0.4174741E-01  0.3395986E+06  0.1611122E+01
  0.1257143E+01  0.1060968E+06 -0.1525789E+01  0.1423575E+05 -0.4546084E-01  0.3442257E+06  0.1615770E+01
  0.1288095E+01  0.1087227E+06 -0.1520755E+01  0.1316225E+05 -0.4943804E-01  0.3483045E+06  0.1620795E+01
  0.1319048E+01  0.1112250E+06 -0.1515367E+01  0.1214463E+05 -0.5380555E-01  0.3518397E+06  0.1626173E+01
  0.1350000E+01  0.1135702E+06 -0.1509636E+01  0.1118229E+05 -0.5861116E-01  0.3545104E+06  0.1631888E+01
  0.1380952E+01  0.1158689E+06 -0.1503515E+01  0.1028008E+05 -0.6317220E-01  0.3567480E+06  0.1637993E+01
  0.1411905E+01  0.1179087E+06 -0.1496935E+01  0.9432238E+04 -0.6815232E-01  0.3583809E+06  0.1644554E+01
  0.1442857E+01  0.1198864E+06 -0.1490048E+01  0.8639497E+04 -0.7331209E-01  0.3593197E+06  0.1651428E+01
  0.1473810E+01  0.1216588E+06 -0.1482852E+01  0.7897029E+04 -0.7890338E-01  0.3593270E+06  0.1658586E+01
  0.1504762E+01  0.1233259E+06 -0.1475261E+01  0.7204569E+04 -0.8485736E-01  0.3589016E+06  0.1666154E+01
  0.1535714E+01  0.1248448E+06 -0.1467327E+01  0.6558243E+04 -0.9139872E-01  0.3578171E+06  0.1674050E+01
  0.1566667E+01  0.1262180E+06 -0.1459060E+01  0.5959515E+04 -0.9819373E-01  0.3560454E+06  0.1682270E+01
  0.1597619E+01  0.1274955E+06 -0.1450421E+01  0.5404487E+04 -0.1047727E+00  0.3538494E+06  0.1690849E+01
  0.1628572E+01  0.1286342E+06 -0.1441403E+01  0.4891898E+04 -0.1118268E+00  0.3512405E+06  0.1699818E+01
  0.1659524E+01  0.1295310E+06 -0.1432073E+01  0.4422532E+04 -0.1186083E+00  0.3479274E+06  0.1709135E+01
  0.1690476E+01  0.1301883E+06 -0.1422590E+01  0.3988931E+04 -0.1262381E+00  0.3437296E+06  0.1718481E+01
  0.1721429E+01  0.1307138E+06 -0.1412739E+01  0.3592221E+04 -0.1337299E+00  0.3392172E+06  0.1728264E+01
  0.1752381E+01  0.1311085E+06 -0.1402542E+01  0.3227518E+04 -0.1421997E+00  0.3344577E+06  0.1738410E+01
  0.1783333E+01  0.1312645E+06 -0.1392292E+01  0.2893530E+04 -0.1513762E+00  0.3288960E+06  0.1748505E+01
  0.1814286E+01  0.1313109E+06 -0.1381780E+01  0.2589628E+04 -0.1603567E+00  0.3230887E+06  0.1758914E+01
  0.1845238E+01  0.1312290E+06 -0.1371145E+01  0.2310893E+04 -0.1700761E+00  0.3169807E+06  0.1769356E+01
  0.1876190E+01  0.1310090E+06 -0.1360347E+01  0.2058677E+04 -0.1802054E+00  0.3107025E+06  0.1780064E+01
  0.1907143E+01  0.1305093E+06 -0.1349614E+01  0.1833284E+04 -0.1876768E+00  0.3038498E+06  0.1790785E+01
  0.1938095E+01  0.1298133E+06 -0.1339111E+01  0.1628396E+04 -0.1966086E+00  0.2964613E+06  0.1800982E+01
  0.1969048E+01  0.1289465E+06 -0.1328708E+01  0.1443180E+04 -0.2056484E+00  0.2887628E+06  0.1811085E+01
  0.2000000E+01  0.1279451E+06 -0.1318206E+01  0.1276732E+04 -0.2147083E+00  0.2810677E+06  0.1821493E+01
