VARIABLES="w (rad/s)"
"abs(F   1   1)" "angle(F   1   1)"
"abs(F   1   2)" "angle(F   1   2)"
"abs(F   1   3)" "angle(F   1   3)"
Zone t="Diffraction force - beta =   0.000 deg",I=    64,F=POINT
  0.5000000E-01  0.4110698E+04 -0.1570802E+01  0.5534232E+06 -0.3748075E-04  0.1657611E+04  0.1570802E+01
  0.8095238E-01  0.6703273E+04 -0.1570793E+01  0.5520634E+06 -0.1007623E-03  0.2702174E+04  0.1570808E+01
  0.1119048E+00  0.9361393E+04 -0.1570791E+01  0.5500712E+06 -0.1998934E-03  0.3789471E+04  0.1570812E+01
  0.1428571E+00  0.1211988E+05 -0.1570788E+01  0.5474439E+06 -0.3423046E-03  0.4920260E+04  0.1570793E+01
  0.1738095E+00  0.1497938E+05 -0.1570784E+01  0.5441760E+06 -0.5391189E-03  0.6103181E+04  0.1570807E+01
  0.2047619E+00  0.1804196E+05 -0.1570773E+01  0.5402742E+06 -0.8065571E-03  0.7399297E+04  0.1570822E+01
  0.2357143E+00  0.2126179E+05 -0.1570763E+01  0.5357279E+06 -0.1168335E-02  0.8754153E+04  0.1570827E+01
  0.2666667E+00  0.2473625E+05 -0.1570747E+01  0.5305311E+06 -0.1652751E-02  0.1025235E+05  0.1570842E+01
  0.2976190E+00  0.2856736E+05 -0.1570722E+01  0.5247000E+06 -0.2309119E-02  0.1192907E+05  0.1570875E+01
  0.3285715E+00  0.3271479E+05 -0.1570682E+01  0.5182169E+06 -0.3185028E-02  0.1376727E+05  0.1570908E+01
  0.3595238E+00  0.3728221E+05 -0.1570627E+01  0.5111262E+06 -0.4358802E-02  0.1579149E+05  0.1570967E+01
  0.3904762E+00  0.4240607E+05 -0.1570541E+01  0.5034157E+06 -0.5915158E-02  0.1816371E+05  0.1571051E+01
  0.4214286E+00  0.4806685E+05 -0.1570418E+01  0.4951662E+06 -0.7903697E-02  0.2076910E+05  0.1571175E+01
  0.4523810E+00  0.5428933E+05 -0.1570233E+01  0.4864234E+06 -0.1047879E-01  0.2370805E+05  0.1571360E+01
  0.4833333E+00  0.6108910E+05 -0.1569976E+01  0.4771773E+06 -0.1354838E-01  0.2692933E+05  0.1571616E+01
  0.5142857E+00  0.6866938E+05 -0.1569617E+01  0.4676630E+06 -0.1730154E-01  0.3065631E+05  0.1571976E+01
  0.5452381E+00  0.7668659E+05 -0.1569134E+01  0.4577137E+06 -0.2165670E-01  0.3461878E+05  0.1572461E+01
  0.5761905E+00  0.8517299E+05 -0.1568501E+01  0.4474921E+06 -0.2661791E-01  0.3882867E+05  0.1573094E+01
  0.6071429E+00  0.9423434E+05 -0.1567677E+01  0.4370919E+06 -0.3234609E-01  0.4352614E+05  0.1573919E+01
  0.6380953E+00  0.1038717E+06 -0.1566639E+01  0.4263006E+06 -0.3863444E-01  0.4858688E+05  0.1574959E+01
  0.6690477E+00  0.1139560E+06 -0.1565339E+01  0.4154472E+06 -0.4566327E-01  0.5394847E+05  0.1576261E+01
  0.7000000E+00  0.1244308E+06 -0.1563724E+01  0.4044926E+06 -0.5351276E-01  0.5973991E+05  0.1577881E+01
  0.7309524E+00  0.1351663E+06 -0.1561755E+01  0.3932728E+06 -0.6204502E-01  0.6566867E+05  0.1579856E+01
  0.7619048E+00  0.1463607E+06 -0.1559373E+01  0.3820193E+06 -0.7137745E-01  0.7199409E+05  0.1582245E+01
  0.7928572E+00  0.1583112E+06 -0.1556519E+01  0.3708517E+06 -0.8156294E-01  0.7901326E+05  0.1585103E+01
  0.8238096E+00  0.1704643E+06 -0.1553124E+01  0.3595926E+06 -0.9257353E-01  0.8630644E+05  0.1588510E+01
  0.8547620E+00  0.1828438E+06 -0.1549125E+01  0.3482291E+06 -0.1043869E+00  0.9377757E+05  0.1592530E+01
  0.8857143E+00  0.1955713E+06 -0.1544459E+01  0.3370962E+06 -0.1170943E+00  0.1015790E+06  0.1597228E+01
  0.9166667E+00  0.2086519E+06 -0.1539063E+01  0.3260246E+06 -0.1306839E+00  0.1098915E+06  0.1602661E+01
  0.9476191E+00  0.2218339E+06 -0.1532870E+01  0.3150132E+06 -0.1451443E+00  0.1184558E+06  0.1608896E+01
  0.9785714E+00  0.2353743E+06 -0.1525828E+01  0.3040220E+06 -0.1604350E+00  0.1273273E+06  0.1615959E+01
  0.1009524E+01  0.2492393E+06 -0.1517867E+01  0.2932248E+06 -0.1766333E+00  0.1366989E+06  0.1623962E+01
  0.1040476E+01  0.2632338E+06 -0.1508936E+01  0.2827894E+06 -0.1937521E+00  0.1461788E+06  0.1632967E+01
  0.1071429E+01  0.2771733E+06 -0.1498985E+01  0.2724334E+06 -0.2118396E+00  0.1562117E+06  0.1643029E+01
  0.1102381E+01  0.2907817E+06 -0.1488002E+01  0.2621748E+06 -0.2308439E+00  0.1660899E+06  0.1654166E+01
  0.1133333E+01  0.3040037E+06 -0.1475989E+01  0.2520357E+06 -0.2507170E+00  0.1758157E+06  0.1666367E+01
  0.1164286E+01  0.3168781E+06 -0.1463006E+01  0.2421704E+06 -0.2715971E+00  0.1855781E+06  0.1679552E+01
  0.1195238E+01  0.3294081E+06 -0.1449163E+01  0.2327585E+06 -0.2934192E+00  0.1950940E+06  0.1693575E+01
  0.1226190E+01  0.3415966E+06 -0.1434530E+01  0.2234796E+06 -0.3163288E+00  0.2050347E+06  0.1708347E+01
  0.1257143E+01  0.3527935E+06 -0.1419161E+01  0.2143750E+06 -0.3404603E+00  0.2143964E+06  0.1723869E+01
  0.1288095E+01  0.3632769E+06 -0.1403292E+01  0.2054507E+06 -0.3651717E+00  0.2234802E+06  0.1740068E+01
  0.1319048E+01  0.3724038E+06 -0.1387003E+01  0.1966727E+06 -0.3911883E+00  0.2318385E+06  0.1756688E+01
  0.1350000E+01  0.3804118E+06 -0.1370647E+01  0.1883989E+06 -0.4181847E+00  0.2394702E+06  0.1773463E+01
  0.1380952E+01  0.3872284E+06 -0.1354521E+01  0.1804987E+06 -0.4460881E+00  0.2462389E+06  0.1789969E+01
  0.1411905E+01  0.3922387E+06 -0.1338693E+01  0.1728283E+06 -0.4753600E+00  0.2523875E+06  0.1806236E+01
  0.1442857E+01  0.3961732E+06 -0.1323798E+01  0.1653618E+06 -0.5057222E+00  0.2577196E+06  0.1821522E+01
  0.1473810E+01  0.3985730E+06 -0.1309921E+01  0.1581251E+06 -0.5371826E+00  0.2620432E+06  0.1835993E+01
  0.1504762E+01  0.3993688E+06 -0.1297318E+01  0.1510896E+06 -0.5698304E+00  0.2651745E+06  0.1849245E+01
  0.1535714E+01  0.3987102E+06 -0.1286314E+01  0.1443196E+06 -0.6038471E+00  0.2674628E+06  0.1860960E+01
  0.1566667E+01  0.3968554E+06 -0.1277359E+01  0.1381957E+06 -0.6380110E+00  0.2684178E+06  0.1870405E+01
  0.1597619E+01  0.3938943E+06 -0.1270613E+01  0.1323606E+06 -0.6726997E+00  0.2684498E+06  0.1877432E+01
  0.1628572E+01  0.3899308E+06 -0.1265945E+01  0.1267700E+06 -0.7084668E+00  0.2683259E+06  0.1882921E+01
  0.1659524E+01  0.3846023E+06 -0.1263844E+01  0.1214440E+06 -0.7448534E+00  0.2669182E+06  0.1885990E+01
  0.1690476E+01  0.3783735E+06 -0.1264380E+01  0.1163335E+06 -0.7814803E+00  0.2646956E+06  0.1886280E+01
  0.1721429E+01  0.3713696E+06 -0.1267665E+01  0.1114076E+06 -0.8179977E+00  0.2616982E+06  0.1883753E+01
  0.1752381E+01  0.3637303E+06 -0.1273783E+01  0.1066637E+06 -0.8543169E+00  0.2581559E+06  0.1878214E+01
  0.1783333E+01  0.3556600E+06 -0.1282828E+01  0.1022271E+06 -0.8895118E+00  0.2540660E+06  0.1869760E+01
  0.1814286E+01  0.3473067E+06 -0.1294960E+01  0.9808527E+05 -0.9226185E+00  0.2492201E+06  0.1857717E+01
  0.1845238E+01  0.3387082E+06 -0.1310072E+01  0.9403044E+05 -0.9543963E+00  0.2439556E+06  0.1842244E+01
  0.1876190E+01  0.3301041E+06 -0.1327826E+01  0.9000313E+05 -0.9854989E+00  0.2390395E+06  0.1824864E+01
  0.1907143E+01  0.3212521E+06 -0.1348798E+01  0.8594398E+05 -0.1015908E+01  0.2336723E+06  0.1803977E+01
  0.1938095E+01  0.3124257E+06 -0.1372785E+01  0.8186316E+05 -0.1045732E+01  0.2281809E+06  0.1780049E+01
  0.1969048E+01  0.3036501E+06 -0.1399825E+01  0.7774934E+05 -0.1075046E+01  0.2225263E+06  0.1752491E+01
  0.2000000E+01  0.2950557E+06 -0.1429606E+01  0.7358567E+05 -0.1104238E+01  0.2169457E+06  0.1721872E+01
