VARIABLES="w (rad/s)"
"A   1   1" "B   1   1"
"A   1   2" "B   1   2"
"A   1   3" "B   1   3"
Zone t="Motion of body    1 in DoF   1",I=    64,F=POINT
  0.5000000E-01  0.1043101E+06  0.1142336E-01  0.1918793E-01  0.8255569E-04 -0.8992688E+05 -0.4689199E-02
  0.8095238E-01  0.1045354E+06  0.5011184E-01 -0.3345714E-02 -0.6310205E-05 -0.8982944E+05 -0.2015802E-01
  0.1119048E+00  0.1047519E+06  0.1407079E+00  0.7874509E-02  0.1189910E-03 -0.9013165E+05 -0.5688305E-01
  0.1428571E+00  0.1051378E+06  0.3176746E+00 -0.1324463E-01 -0.1485345E-03 -0.9029492E+05 -0.1291033E+00
  0.1738095E+00  0.1050812E+06  0.6329855E+00  0.1883102E-01  0.2514641E-03 -0.9028481E+05 -0.2580964E+00
  0.2047619E+00  0.1057845E+06  0.1172076E+01  0.2067921E-01  0.4673693E-03 -0.9083065E+05 -0.4814355E+00
  0.2357143E+00  0.1058542E+06  0.2066763E+01  0.3786954E-02  0.1918096E-03 -0.9076690E+05 -0.8515603E+00
  0.2666667E+00  0.1060882E+06  0.3534647E+01 -0.1004219E-01 -0.1600049E-03 -0.9099185E+05 -0.1464904E+01
  0.2976190E+00  0.1068813E+06  0.5955475E+01  0.1058716E-01  0.4513264E-03 -0.9148047E+05 -0.2486922E+01
  0.3285715E+00  0.1072284E+06  0.9885255E+01 -0.1077403E-01 -0.3069714E-03 -0.9174995E+05 -0.4161175E+01
  0.3595238E+00  0.1075713E+06  0.1628393E+02  0.1799526E-01  0.9920448E-03 -0.9181992E+05 -0.6899759E+01
  0.3904762E+00  0.1083827E+06  0.2668474E+02 -0.1996854E-01 -0.9121597E-03 -0.9255632E+05 -0.1143303E+02
  0.4214286E+00  0.1091182E+06  0.4315163E+02  0.6155239E-02  0.4477501E-03 -0.9293315E+05 -0.1865401E+02
  0.4523810E+00  0.1097532E+06  0.6914573E+02  0.7420590E-02  0.1137614E-02 -0.9344878E+05 -0.3020888E+02
  0.4833333E+00  0.1103537E+06  0.1080763E+03 -0.1947863E-01 -0.2515674E-02 -0.9374311E+05 -0.4767466E+02
  0.5142857E+00  0.1117774E+06  0.1666796E+03  0.3679064E-02  0.1612067E-02 -0.9478305E+05 -0.7445659E+02
  0.5452381E+00  0.1127066E+06  0.2505585E+03  0.1242559E-01  0.2583265E-02 -0.9537377E+05 -0.1131981E+03
  0.5761905E+00  0.1135187E+06  0.3676395E+03 -0.5349403E-02 -0.1140118E-02 -0.9572859E+05 -0.1677841E+03
  0.6071429E+00  0.1146725E+06  0.5301527E+03  0.2060834E-02  0.4978180E-03 -0.9663680E+05 -0.2451554E+03
  0.6380953E+00  0.1161945E+06  0.7487815E+03 -0.1530434E-02  0.5412102E-03 -0.9760930E+05 -0.3506389E+03
  0.6690477E+00  0.1177641E+06  0.1039785E+04 -0.2125587E-01 -0.5708694E-02 -0.9854893E+05 -0.4929044E+03
  0.7000000E+00  0.1193139E+06  0.1422134E+04 -0.4795619E-03 -0.2687454E-02 -0.9974491E+05 -0.6839178E+03
  0.7309524E+00  0.1206526E+06  0.1913355E+04  0.1319314E-01  0.4039764E-02 -0.1005284E+06 -0.9314225E+03
  0.7619048E+00  0.1222415E+06  0.2542295E+04 -0.3204345E-03 -0.2346039E-03 -0.1015073E+06 -0.1253292E+04
  0.7928572E+00  0.1245984E+06  0.3345901E+04 -0.2193966E-02 -0.2876282E-02 -0.1032141E+06 -0.1673333E+04
  0.8238096E+00  0.1267125E+06  0.4350614E+04 -0.1126152E-01 -0.5149841E-02 -0.1047654E+06 -0.2208074E+04
  0.8547620E+00  0.1287198E+06  0.5594333E+04  0.3891628E-02  0.8239746E-03 -0.1060513E+06 -0.2877554E+04
  0.8857143E+00  0.1308492E+06  0.7123784E+04 -0.3824542E-02 -0.4207611E-02 -0.1074362E+06 -0.3713148E+04
  0.9166667E+00  0.1331346E+06  0.8988513E+04 -0.1265092E-02  0.1243591E-02 -0.1091506E+06 -0.4753247E+04
  0.9476191E+00  0.1352601E+06  0.1123115E+05  0.1996678E-02 -0.6866455E-04 -0.1107714E+06 -0.6024620E+04
  0.9785714E+00  0.1376170E+06  0.1392018E+05  0.5551081E-02  0.5485535E-02 -0.1123922E+06 -0.7562827E+04
  0.1009524E+01  0.1401591E+06  0.1712370E+05 -0.1571943E-02  0.2151489E-02 -0.1142954E+06 -0.9434114E+04
  0.1040476E+01  0.1426848E+06  0.2089963E+05  0.2053128E-02  0.4119873E-02 -0.1161096E+06 -0.1166449E+05
  0.1071429E+01  0.1450118E+06  0.2530384E+05 -0.4899089E-02 -0.4257202E-02 -0.1182135E+06 -0.1434460E+05
  0.1102381E+01  0.1469276E+06  0.3036740E+05 -0.7253033E-02 -0.6423950E-02 -0.1198923E+06 -0.1746469E+05
  0.1133333E+01  0.1484539E+06  0.3613154E+05 -0.1669491E-02  0.6851196E-02 -0.1211971E+06 -0.2106122E+05
  0.1164286E+01  0.1496747E+06  0.4263423E+05 -0.9960338E-03 -0.2380371E-02 -0.1224143E+06 -0.2518762E+05
  0.1195238E+01  0.1506534E+06  0.4989131E+05 -0.5515049E-02 -0.1626587E-01 -0.1233962E+06 -0.2982404E+05
  0.1226190E+01  0.1514212E+06  0.5792906E+05  0.4280757E-02 -0.1129150E-02 -0.1246371E+06 -0.3509754E+05
  0.1257143E+01  0.1514440E+06  0.6665823E+05  0.1747825E-02  0.1690674E-01 -0.1252705E+06 -0.4089441E+05
  0.1288095E+01  0.1510658E+06  0.7605573E+05  0.2037514E-02  0.4943848E-02 -0.1256134E+06 -0.4727751E+05
  0.1319048E+01  0.1497835E+06  0.8597587E+05 -0.3007689E-02 -0.1336670E-01 -0.1253202E+06 -0.5412552E+05
  0.1350000E+01  0.1478810E+06  0.9633177E+05 -0.9946469E-03 -0.3845215E-02 -0.1245959E+06 -0.6138868E+05
  0.1380952E+01  0.1453929E+06  0.1069765E+06 -0.5347942E-02 -0.1300049E-01 -0.1234054E+06 -0.6892789E+05
  0.1411905E+01  0.1418904E+06  0.1176606E+06  0.3847376E-02  0.1232910E-01 -0.1218353E+06 -0.7678425E+05
  0.1442857E+01  0.1380130E+06  0.1283092E+06 -0.9306350E-03 -0.3906250E-02 -0.1198276E+06 -0.8471562E+05
  0.1473810E+01  0.1334908E+06  0.1386915E+06  0.2650444E-02 -0.5737305E-02 -0.1172729E+06 -0.9266443E+05
  0.1504762E+01  0.1283488E+06  0.1486194E+06  0.3123223E-02  0.5493164E-03 -0.1141040E+06 -0.1004172E+06
  0.1535714E+01  0.1227527E+06  0.1579681E+06  0.5941701E-02  0.1831055E-01 -0.1106213E+06 -0.1079860E+06
  0.1566667E+01  0.1169521E+06  0.1666515E+06 -0.7012550E-03  0.1220703E-03 -0.1068338E+06 -0.1150074E+06
  0.1597619E+01  0.1110590E+06  0.1745781E+06  0.4412542E-02  0.9582520E-02 -0.1028991E+06 -0.1215149E+06
  0.1628572E+01  0.1050746E+06  0.1818257E+06 -0.7645456E-02 -0.2850342E-01 -0.9915102E+05 -0.1280701E+06
  0.1659524E+01  0.9879774E+05  0.1879805E+06 -0.3953712E-02 -0.1171875E-01 -0.9492319E+05 -0.1338786E+06
  0.1690476E+01  0.9255659E+05  0.1932146E+06 -0.4964479E-03  0.1403809E-02 -0.9058389E+05 -0.1390414E+06
  0.1721429E+01  0.8642695E+05  0.1975242E+06 -0.4387693E-02 -0.6286621E-02 -0.8613712E+05 -0.1435095E+06
  0.1752381E+01  0.8046152E+05  0.2009605E+06 -0.6008149E-03 -0.1342773E-01 -0.8173233E+05 -0.1473495E+06
  0.1783333E+01  0.7474674E+05  0.2036442E+06  0.5861087E-03  0.7080078E-02 -0.7744963E+05 -0.1506783E+06
  0.1814286E+01  0.6934189E+05  0.2056302E+06 -0.5298525E-03  0.1232910E-01 -0.7329832E+05 -0.1532804E+06
  0.1845238E+01  0.6423185E+05  0.2069690E+06  0.2947998E-02  0.6347656E-02 -0.6931367E+05 -0.1552992E+06
  0.1876190E+01  0.5942068E+05  0.2079095E+06  0.5337188E-03 -0.1452637E-01 -0.6570332E+05 -0.1575497E+06
  0.1907143E+01  0.5473954E+05  0.2079976E+06  0.4008433E-02  0.1525879E-02 -0.6200767E+05 -0.1589983E+06
  0.1938095E+01  0.5035423E+05  0.2075246E+06 -0.2428847E-02  0.1159668E-02 -0.5843202E+05 -0.1600566E+06
  0.1969048E+01  0.4620723E+05  0.2064732E+06 -0.8601751E-03 -0.3662109E-03 -0.5490012E+05 -0.1604184E+06
  0.2000000E+01  0.4231583E+05  0.2050765E+06 -0.1796722E-02  0.7751465E-02 -0.5151875E+05 -0.1604483E+06
Zone t="Motion of body    1 in DoF   2",I=    64,F=POINT
  0.5000000E-01  0.7247925E-02  0.3385544E-04  0.1845005E+06  0.4149506E+03  0.7324219E-02 -0.7152557E-04
  0.8095238E-01 -0.5089255E-02  0.5722046E-05  0.1831517E+06  0.6873005E+03  0.6031709E-02 -0.7057190E-04
  0.1119048E+00  0.1772617E-02 -0.5245209E-04  0.1819644E+06  0.9827556E+03 -0.1472635E-01 -0.5340576E-04
  0.1428571E+00 -0.7583618E-02 -0.4768372E-04  0.1813344E+06  0.1311927E+04 -0.1281738E-02  0.2174377E-03
  0.1738095E+00  0.7901127E-02 -0.5340576E-04  0.1811654E+06  0.1688010E+04  0.5969740E-02  0.9918213E-04
  0.2047619E+00  0.8122643E-02  0.1525879E-04  0.1810503E+06  0.2128101E+04  0.6557730E-02 -0.2822876E-03
  0.2357143E+00 -0.4337195E-02 -0.1831055E-03  0.1812059E+06  0.2655051E+04  0.8803858E-02  0.3280640E-03
  0.2666667E+00  0.1945495E-02  0.2365112E-03  0.1816048E+06  0.3287263E+04  0.1464844E-01 -0.1525879E-03
  0.2976190E+00  0.9125977E-02 -0.6484985E-04  0.1819533E+06  0.4069182E+04  0.2871094E-02 -0.1373291E-03
  0.3285715E+00  0.6780209E-02 -0.1754761E-03  0.1825011E+06  0.5020005E+04  0.1634680E-01 -0.8697510E-03
  0.3595238E+00  0.5092999E-03  0.1220703E-03  0.1828393E+06  0.6190895E+04  0.4413933E-02 -0.1235962E-02
  0.3904762E+00 -0.5392679E-02 -0.2593994E-03  0.1832094E+06  0.7615939E+04  0.1813191E-01 -0.9155273E-03
  0.4214286E+00 -0.2244852E-02 -0.1831055E-03  0.1832010E+06  0.9269704E+04 -0.6662142E-02 -0.6408691E-03
  0.4523810E+00 -0.1113088E-01 -0.7019043E-03  0.1827890E+06  0.1124040E+05  0.1295230E-01  0.3967285E-03
  0.4833333E+00 -0.2273033E-02  0.4577637E-04  0.1822762E+06  0.1333314E+05  0.8587015E-02  0.9155273E-03
  0.5142857E+00  0.6408692E-02 -0.4272461E-03  0.1808170E+06  0.1566865E+05  0.1186795E-01 -0.3662109E-03
  0.5452381E+00  0.7164301E-02  0.1098633E-02  0.1794178E+06  0.1808480E+05  0.1343307E-02  0.1464844E-02
  0.5761905E+00 -0.1483003E-02 -0.3143311E-02  0.1776040E+06  0.2053501E+05 -0.8898017E-02 -0.5493164E-03
  0.6071429E+00  0.1105813E-02  0.5187988E-03  0.1753081E+06  0.2309530E+05 -0.5629595E-02 -0.4882812E-03
  0.6380953E+00  0.5165214E-02 -0.2655029E-02  0.1733205E+06  0.2554723E+05 -0.7269560E-02 -0.2441406E-03
  0.6690477E+00 -0.2919261E-02 -0.7934570E-03  0.1708133E+06  0.2800157E+05  0.1788048E-01 -0.1586914E-02
  0.7000000E+00 -0.2790178E-02 -0.2258301E-02  0.1680931E+06  0.3045970E+05  0.1499721E-01  0.5004883E-02
  0.7309524E+00  0.1260863E-01  0.6103516E-03  0.1656407E+06  0.3278040E+05 -0.1469615E-01  0.4150391E-02
  0.7619048E+00 -0.8811950E-03  0.3662109E-03  0.1630044E+06  0.3502051E+05 -0.7690429E-02  0.1831055E-02
  0.7928572E+00  0.1154719E-02  0.3662109E-03  0.1600725E+06  0.3718895E+05  0.1785965E-01 -0.3540039E-02
  0.8238096E+00 -0.9187025E-02  0.2197266E-02  0.1573101E+06  0.3921798E+05  0.5927113E-02  0.7812500E-02
  0.8547620E+00  0.1713745E-02  0.3051758E-02  0.1547687E+06  0.4106507E+05 -0.3998738E-02 -0.5004883E-02
  0.8857143E+00 -0.5857406E-02 -0.4150391E-02  0.1518990E+06  0.4279611E+05  0.8269279E-03 -0.3906250E-02
  0.9166667E+00  0.7590554E-02  0.1647949E-02  0.1491055E+06  0.4436075E+05 -0.2663352E-02  0.5737305E-02
  0.9476191E+00 -0.5152716E-02  0.4394531E-02  0.1464510E+06  0.4573489E+05 -0.7213803E-02 -0.1098633E-02
  0.9785714E+00  0.1247434E-02 -0.2319336E-02  0.1440259E+06  0.4688199E+05  0.1247434E-02 -0.5493164E-02
  0.1009524E+01  0.1221279E-01  0.3662109E-02  0.1416013E+06  0.4785430E+05 -0.2490925E-01 -0.4760742E-02
  0.1040476E+01 -0.7039295E-03  0.2319336E-02  0.1389596E+06  0.4867365E+05 -0.9620369E-02 -0.1220703E-02
  0.1071429E+01 -0.2876790E-02  0.2441406E-02  0.1365935E+06  0.4930584E+05 -0.6835938E-03 -0.2929688E-02
  0.1102381E+01  0.3377366E-02  0.3906250E-02  0.1344503E+06  0.4971460E+05 -0.8858666E-03  0.6103516E-02
  0.1133333E+01  0.4658419E-02 -0.1342773E-02  0.1325296E+06  0.4988320E+05  0.3877528E-02 -0.1208496E-01
  0.1164286E+01  0.8571133E-02 -0.1342773E-02  0.1306478E+06  0.4989229E+05 -0.3774444E-02 -0.5371094E-02
  0.1195238E+01  0.5872506E-02 -0.5126953E-02  0.1285837E+06  0.4975559E+05  0.5719310E-02  0.1171875E-01
  0.1226190E+01 -0.6819346E-02 -0.5615234E-02  0.1268126E+06  0.4947578E+05  0.9955249E-03  0.1074219E-01
  0.1257143E+01 -0.2561049E-02  0.6103516E-03  0.1252922E+06  0.4907602E+05  0.8350719E-02  0.1831055E-02
  0.1288095E+01  0.1397829E-02  0.1049805E-01  0.1239409E+06  0.4838140E+05  0.1705825E-02 -0.8911133E-02
  0.1319048E+01  0.3863723E-02 -0.4150391E-02  0.1228719E+06  0.4757842E+05  0.7773719E-02 -0.8178711E-02
  0.1350000E+01  0.2656160E-03  0.3295898E-02  0.1216375E+06  0.4666894E+05 -0.2712674E-02 -0.5493164E-02
  0.1380952E+01 -0.5035795E-02  0.3662109E-02  0.1203805E+06  0.4561277E+05 -0.3535830E-02 -0.8056641E-02
  0.1411905E+01 -0.1751448E-02 -0.3173828E-02  0.1193611E+06  0.4450225E+05 -0.1729158E-03  0.8178711E-02
  0.1442857E+01  0.2781330E-02  0.1708984E-02  0.1185685E+06  0.4332627E+05 -0.8460319E-03  0.9887695E-02
  0.1473810E+01  0.6771056E-02 -0.2929688E-02  0.1179479E+06  0.4203698E+05 -0.2816097E-02  0.4882812E-02
  0.1504762E+01  0.8112267E-04  0.4638672E-02  0.1175137E+06  0.4064428E+05 -0.1005921E-01 -0.6713867E-02
  0.1535714E+01  0.4043933E-02 -0.8422852E-02  0.1172551E+06  0.3927354E+05 -0.6359011E-02  0.9887695E-02
  0.1566667E+01  0.1344072E-02 -0.2807617E-02  0.1166986E+06  0.3774956E+05 -0.1558344E-03 -0.1232910E-01
  0.1597619E+01 -0.2273127E-02  0.5249023E-02  0.1162350E+06  0.3614735E+05  0.7640765E-03 -0.8666992E-02
  0.1628572E+01  0.4553544E-02  0.6958008E-02  0.1159519E+06  0.3465450E+05 -0.5546703E-02  0.8300781E-02
  0.1659524E+01 -0.2960687E-02  0.9887695E-02  0.1158139E+06  0.3314548E+05  0.1912493E-02 -0.1745605E-01
  0.1690476E+01  0.2346845E-03  0.4882812E-03  0.1158041E+06  0.3163876E+05 -0.5632427E-02  0.5249023E-02
  0.1721429E+01  0.2038726E-02 -0.2197266E-02  0.1159111E+06  0.3009942E+05 -0.3545611E-02 -0.1586914E-02
  0.1752381E+01  0.9926506E-03  0.7812500E-02  0.1161104E+06  0.2864338E+05 -0.4736859E-02 -0.9521484E-02
  0.1783333E+01  0.2669575E-02 -0.3051758E-02  0.1162695E+06  0.2718095E+05 -0.8350979E-02 -0.1708984E-01
  0.1814286E+01 -0.5752684E-02  0.1074219E-01  0.1163294E+06  0.2556379E+05  0.1238004E-01  0.3784180E-02
  0.1845238E+01  0.2447707E-02  0.1000977E-01  0.1164510E+06  0.2395362E+05 -0.9129284E-02 -0.9948730E-02
  0.1876190E+01  0.9759429E-03 -0.4760742E-02  0.1166456E+06  0.2257293E+05  0.1821760E-02  0.1318359E-01
  0.1907143E+01 -0.1504162E-02 -0.1464844E-02  0.1169169E+06  0.2125973E+05 -0.5120553E-03  0.1586914E-02
  0.1938095E+01 -0.1417155E-02  0.2685547E-02  0.1172502E+06  0.1997815E+05  0.6046529E-02  0.4028320E-02
  0.1969048E+01  0.2944743E-02  0.4760742E-02  0.1176313E+06  0.1873421E+05  0.2479784E-02 -0.1867676E-01
  0.2000000E+01 -0.7934570E-03 -0.5615234E-02  0.1180431E+06  0.1753684E+05 -0.1000977E-01  0.3479004E-02
Zone t="Motion of body    1 in DoF   3",I=    64,F=POINT
  0.5000000E-01 -0.8841688E+05 -0.4243443E-02 -0.1869202E-01 -0.1001752E-03  0.2981916E+06  0.1820824E-02
  0.8095238E-01 -0.8795877E+05 -0.1831799E-01 -0.5843218E-02 -0.6708811E-05  0.2990980E+06  0.7439848E-02
  0.1119048E+00 -0.8829353E+05 -0.5144755E-01  0.8794907E-02  0.3003163E-04  0.2997796E+06  0.2088821E-01
  0.1428571E+00 -0.8845254E+05 -0.1166886E+00  0.3898621E-01  0.3382717E-03  0.2998173E+06  0.4732722E-01
  0.1738095E+00 -0.8825745E+05 -0.2337523E+00 -0.8340077E-02 -0.3436529E-03  0.3002686E+06  0.9468605E-01
  0.2047619E+00 -0.8897244E+05 -0.4352856E+00 -0.4076226E-01 -0.7030398E-03  0.3005563E+06  0.1794221E+00
  0.2357143E+00 -0.8887186E+05 -0.7718278E+00 -0.7120768E-02 -0.8247653E-04  0.3000683E+06  0.3189265E+00
  0.2666667E+00 -0.8899674E+05 -0.1328485E+01  0.2941131E-01  0.6546015E-03  0.3007063E+06  0.5488284E+00
  0.2976190E+00 -0.8963249E+05 -0.2255077E+01 -0.9741211E-02 -0.3695786E-03  0.3005575E+06  0.9404293E+00
  0.3285715E+00 -0.8978913E+05 -0.3776582E+01  0.1681120E-01  0.2597943E-03  0.3012153E+06  0.1588534E+01
  0.3595238E+00 -0.8986045E+05 -0.6276854E+01  0.6366249E-02  0.1305975E-03  0.3005852E+06  0.2661265E+01
  0.3904762E+00 -0.9064919E+05 -0.1038962E+02  0.4142202E-02  0.8445680E-03  0.3016290E+06  0.4452877E+01
  0.4214286E+00 -0.9093138E+05 -0.1698582E+02 -0.8182848E-02 -0.1019955E-02  0.3017735E+06  0.7342560E+01
  0.4523810E+00 -0.9152329E+05 -0.2751185E+02  0.3818231E-01  0.3288627E-02  0.3020369E+06  0.1202468E+02
  0.4833333E+00 -0.9153298E+05 -0.4353472E+02  0.4268251E-01  0.4798502E-02  0.3027377E+06  0.1920258E+02
  0.5142857E+00 -0.9288748E+05 -0.6793353E+02  0.4984538E-02  0.9703040E-03  0.3026685E+06  0.3034182E+02
  0.5452381E+00 -0.9329584E+05 -0.1034664E+03 -0.5261284E-02 -0.5158782E-03  0.3035676E+06  0.4674714E+02
  0.5761905E+00 -0.9355554E+05 -0.1538090E+03 -0.2425769E-01 -0.3656626E-02  0.3033281E+06  0.7020807E+02
  0.6071429E+00 -0.9452245E+05 -0.2246433E+03  0.1206342E-02 -0.2324581E-02  0.3038838E+06  0.1039436E+03
  0.6380953E+00 -0.9533480E+05 -0.3219292E+03 -0.6217387E-02 -0.1632690E-02  0.3050922E+06  0.1507424E+03
  0.6690477E+00 -0.9633422E+05 -0.4533340E+03  0.5491861E-01  0.1423764E-01  0.3050193E+06  0.2148728E+03
  0.7000000E+00 -0.9755140E+05 -0.6287219E+03 -0.1238142E-01 -0.1817226E-02  0.3059384E+06  0.3025679E+03
  0.7309524E+00 -0.9807240E+05 -0.8586729E+03 -0.1002010E-01 -0.2677917E-02  0.3067925E+06  0.4182466E+03
  0.7619048E+00 -0.9890901E+05 -0.1157619E+04  0.8491515E-02  0.2198219E-02  0.3072423E+06  0.5707848E+03
  0.7928572E+00 -0.1008405E+06 -0.1545009E+04  0.2286344E-01  0.2618790E-02  0.3078634E+06  0.7718053E+03
  0.8238096E+00 -0.1022926E+06 -0.2039993E+04  0.1481778E-03  0.3463745E-02  0.3093854E+06  0.1035052E+04
  0.8547620E+00 -0.1033155E+06 -0.2666809E+04  0.3498895E-02  0.7219315E-02  0.3106717E+06  0.1372341E+04
  0.8857143E+00 -0.1046488E+06 -0.3446810E+04  0.2253379E-01  0.1334381E-01  0.3110048E+06  0.1798202E+04
  0.9166667E+00 -0.1064016E+06 -0.4411357E+04  0.3728693E-01  0.2063370E-01  0.3117946E+06  0.2334573E+04
  0.9476191E+00 -0.1078507E+06 -0.5594547E+04 -0.2286518E-01 -0.2227783E-02  0.3132682E+06  0.3003096E+04
  0.9785714E+00 -0.1093023E+06 -0.7043835E+04  0.4615505E-02 -0.2948761E-02  0.3146992E+06  0.3825077E+04
  0.1009524E+01 -0.1111328E+06 -0.8798965E+04 -0.5804098E-02  0.3601074E-02  0.3160845E+06  0.4844038E+04
  0.1040476E+01 -0.1130735E+06 -0.1089423E+05 -0.1853681E-01 -0.3883362E-02  0.3163359E+06  0.6074073E+04
  0.1071429E+01 -0.1151244E+06 -0.1339073E+05  0.1925456E-01  0.2943420E-01  0.3183486E+06  0.7590903E+04
  0.1102381E+01 -0.1166275E+06 -0.1632443E+05  0.2768333E-02  0.1245117E-01  0.3200245E+06  0.9399280E+04
  0.1133333E+01 -0.1176948E+06 -0.1974471E+05  0.2768124E-01  0.3195190E-01  0.3213963E+06  0.1153373E+05
  0.1164286E+01 -0.1187444E+06 -0.2364369E+05  0.1058941E-01  0.7720947E-02  0.3223465E+06  0.1399824E+05
  0.1195238E+01 -0.1197903E+06 -0.2802234E+05  0.2001758E-01  0.1788330E-01  0.3221731E+06  0.1675587E+05
  0.1226190E+01 -0.1211235E+06 -0.3296622E+05 -0.1383780E-01 -0.2255249E-01  0.3235018E+06  0.1996150E+05
  0.1257143E+01 -0.1218123E+06 -0.3846100E+05  0.4369562E-02 -0.1525879E-04  0.3246396E+06  0.2357303E+05
  0.1288095E+01 -0.1221028E+06 -0.4455172E+05  0.7581446E-02  0.1803589E-01  0.3256143E+06  0.2770307E+05
  0.1319048E+01 -0.1217358E+06 -0.5112750E+05  0.1267857E-01  0.3988647E-01  0.3262664E+06  0.3221247E+05
  0.1350000E+01 -0.1210661E+06 -0.5804593E+05 -0.1238788E-01  0.2105713E-02  0.3258644E+06  0.3701873E+05
  0.1380952E+01 -0.1200727E+06 -0.6522055E+05 -0.1246380E-01  0.1800537E-02  0.3245380E+06  0.4197464E+05
  0.1411905E+01 -0.1186431E+06 -0.7272299E+05  0.6916631E-03 -0.9765625E-03  0.3241735E+06  0.4741103E+05
  0.1442857E+01 -0.1168123E+06 -0.8030659E+05  0.1269048E-01  0.2301025E-01  0.3236589E+06  0.5297077E+05
  0.1473810E+01 -0.1143548E+06 -0.8793639E+05 -0.4141319E-03  0.2014160E-01  0.3227697E+06  0.5877257E+05
  0.1504762E+01 -0.1112305E+06 -0.9550118E+05 -0.1289851E-01  0.9063721E-02  0.3213486E+06  0.6463586E+05
  0.1535714E+01 -0.1077684E+06 -0.1028030E+06 -0.1589753E-02 -0.3460693E-01  0.3197497E+06  0.7047185E+05
  0.1566667E+01 -0.1042501E+06 -0.1095473E+06  0.3194606E-02  0.3112793E-02  0.3167213E+06  0.7561447E+05
  0.1597619E+01 -0.1006644E+06 -0.1158500E+06  0.3743975E-02  0.2972412E-01  0.3133454E+06  0.8031622E+05
  0.1628572E+01 -0.9728244E+05 -0.1220361E+06  0.2473530E-02  0.3234863E-02  0.3115247E+06  0.8568822E+05
  0.1659524E+01 -0.9325166E+05 -0.1275700E+06 -0.3677872E-02  0.3662109E-03  0.3092281E+06  0.9080080E+05
  0.1690476E+01 -0.8907376E+05 -0.1325682E+06  0.9676221E-02  0.4821777E-02  0.3067998E+06  0.9552556E+05
  0.1721429E+01 -0.8470359E+05 -0.1369955E+06 -0.1418244E-02 -0.1403809E-01  0.3040382E+06  0.9985044E+05
  0.1752381E+01 -0.8033613E+05 -0.1408658E+06  0.4876179E-02  0.3399658E-01  0.3013358E+06  0.1037652E+06
  0.1783333E+01 -0.7616005E+05 -0.1440894E+06 -0.1971379E-01 -0.3045654E-01  0.2983197E+06  0.1071164E+06
  0.1814286E+01 -0.7226188E+05 -0.1466036E+06  0.2449096E-01 -0.1312256E-01  0.2945725E+06  0.1092733E+06
  0.1845238E+01 -0.6854018E+05 -0.1486025E+06 -0.4366179E-02 -0.2429199E-01  0.2907306E+06  0.1106673E+06
  0.1876190E+01 -0.6530515E+05 -0.1507821E+06  0.8588297E-02  0.3137207E-01  0.2885064E+06  0.1135683E+06
  0.1907143E+01 -0.6178919E+05 -0.1522434E+06  0.1792193E-02  0.8239746E-03  0.2860882E+06  0.1160347E+06
  0.1938095E+01 -0.5835800E+05 -0.1532995E+06  0.1385663E-02 -0.2532959E-02  0.2837798E+06  0.1185249E+06
  0.1969048E+01 -0.5483243E+05 -0.1536820E+06  0.1401078E-01  0.1434326E-02  0.2811062E+06  0.1200895E+06
  0.2000000E+01 -0.5140278E+05 -0.1538625E+06 -0.1831055E-02 -0.6439209E-02  0.2785547E+06  0.1215247E+06
