VARIABLES="w (rad/s)"
"abs(F   1   1)" "angle(F   1   1)"
"abs(F   1   2)" "angle(F   1   2)"
"abs(F   1   3)" "angle(F   1   3)"
Zone t="Diffraction force - beta =   0.000 deg",I=    64,F=POINT
  0.5000000E-01  0.2536555E+04 -0.1570792E+01  0.7017025E+03 -0.3090357E+01  0.3201116E+04  0.1570799E+01
  0.8095238E-01  0.4144527E+04 -0.1570784E+01  0.1814851E+04 -0.3088531E+01  0.5228041E+04  0.1570803E+01
  0.1119048E+00  0.5811539E+04 -0.1570772E+01  0.3440866E+04 -0.3086372E+01  0.7341092E+04  0.1570810E+01
  0.1428571E+00  0.7511791E+04 -0.1570754E+01  0.5578607E+04 -0.3083681E+01  0.9511479E+04  0.1570821E+01
  0.1738095E+00  0.9309850E+04 -0.1570728E+01  0.8234034E+04 -0.3080358E+01  0.1179530E+05  0.1570836E+01
  0.2047619E+00  0.1118473E+05 -0.1570689E+01  0.1141272E+05 -0.3076203E+01  0.1423326E+05  0.1570858E+01
  0.2357143E+00  0.1323775E+05 -0.1570633E+01  0.1509507E+05 -0.3070867E+01  0.1689010E+05  0.1570891E+01
  0.2666667E+00  0.1541057E+05 -0.1570550E+01  0.1934142E+05 -0.3064653E+01  0.1973731E+05  0.1570939E+01
  0.2976190E+00  0.1778443E+05 -0.1570428E+01  0.2405110E+05 -0.3056534E+01  0.2285667E+05  0.1571010E+01
  0.3285715E+00  0.2044365E+05 -0.1570248E+01  0.2935838E+05 -0.3047252E+01  0.2640294E+05  0.1571116E+01
  0.3595238E+00  0.2339438E+05 -0.1569978E+01  0.3505293E+05 -0.3035595E+01  0.3029061E+05  0.1571274E+01
  0.3904762E+00  0.2652496E+05 -0.1569572E+01  0.4132391E+05 -0.3022272E+01  0.3456112E+05  0.1571512E+01
  0.4214286E+00  0.3020930E+05 -0.1568987E+01  0.4786829E+05 -0.3007194E+01  0.3949631E+05  0.1571859E+01
  0.4523810E+00  0.3430821E+05 -0.1568132E+01  0.5482820E+05 -0.2989862E+01  0.4508341E+05  0.1572367E+01
  0.4833333E+00  0.3870148E+05 -0.1566944E+01  0.6201168E+05 -0.2972796E+01  0.5105759E+05  0.1573076E+01
  0.5142857E+00  0.4348392E+05 -0.1565299E+01  0.6927348E+05 -0.2953942E+01  0.5775927E+05  0.1574059E+01
  0.5452381E+00  0.4883404E+05 -0.1563134E+01  0.7687341E+05 -0.2936188E+01  0.6528039E+05  0.1575363E+01
  0.5761905E+00  0.5465638E+05 -0.1560344E+01  0.8419688E+05 -0.2918022E+01  0.7321658E+05  0.1577066E+01
  0.6071429E+00  0.6070442E+05 -0.1556740E+01  0.9163131E+05 -0.2899770E+01  0.8171922E+05  0.1579271E+01
  0.6380953E+00  0.6687412E+05 -0.1552233E+01  0.9922834E+05 -0.2883858E+01  0.9068738E+05  0.1582028E+01
  0.6690477E+00  0.7382516E+05 -0.1546775E+01  0.1064175E+06 -0.2867128E+01  0.1004550E+06  0.1585416E+01
  0.7000000E+00  0.8113918E+05 -0.1540125E+01  0.1135806E+06 -0.2850840E+01  0.1109110E+06  0.1589576E+01
  0.7309524E+00  0.8874870E+05 -0.1532157E+01  0.1208537E+06 -0.2836633E+01  0.1220785E+06  0.1594590E+01
  0.7619048E+00  0.9660089E+05 -0.1522668E+01  0.1274719E+06 -0.2821382E+01  0.1330682E+06  0.1600657E+01
  0.7928572E+00  0.1045735E+06 -0.1511440E+01  0.1339554E+06 -0.2806930E+01  0.1450244E+06  0.1607821E+01
  0.8238096E+00  0.1128951E+06 -0.1498481E+01  0.1403418E+06 -0.2793724E+01  0.1574318E+06  0.1616098E+01
  0.8547620E+00  0.1217215E+06 -0.1483732E+01  0.1464093E+06 -0.2781197E+01  0.1705735E+06  0.1625641E+01
  0.8857143E+00  0.1309204E+06 -0.1467016E+01  0.1517951E+06 -0.2767953E+01  0.1839144E+06  0.1636616E+01
  0.9166667E+00  0.1401975E+06 -0.1448065E+01  0.1570211E+06 -0.2756029E+01  0.1980188E+06  0.1649114E+01
  0.9476191E+00  0.1492602E+06 -0.1426619E+01  0.1619368E+06 -0.2745142E+01  0.2118815E+06  0.1663322E+01
  0.9785714E+00  0.1580740E+06 -0.1402574E+01  0.1665257E+06 -0.2735307E+01  0.2259908E+06  0.1679241E+01
  0.1009524E+01  0.1665510E+06 -0.1375993E+01  0.1702157E+06 -0.2724317E+01  0.2389411E+06  0.1696963E+01
  0.1040476E+01  0.1752802E+06 -0.1347692E+01  0.1736478E+06 -0.2714220E+01  0.2530751E+06  0.1715584E+01
  0.1071429E+01  0.1834170E+06 -0.1316974E+01  0.1766935E+06 -0.2705106E+01  0.2664329E+06  0.1735907E+01
  0.1102381E+01  0.1909074E+06 -0.1283880E+01  0.1794502E+06 -0.2697256E+01  0.2793295E+06  0.1757690E+01
  0.1133333E+01  0.1975468E+06 -0.1248432E+01  0.1816797E+06 -0.2689886E+01  0.2913320E+06  0.1780938E+01
  0.1164286E+01  0.2031377E+06 -0.1210953E+01  0.1830298E+06 -0.2681598E+01  0.3010728E+06  0.1805470E+01
  0.1195238E+01  0.2080817E+06 -0.1172669E+01  0.1840868E+06 -0.2674048E+01  0.3110149E+06  0.1829794E+01
  0.1226190E+01  0.2115195E+06 -0.1132820E+01  0.1847528E+06 -0.2667421E+01  0.3191151E+06  0.1854686E+01
  0.1257143E+01  0.2133887E+06 -0.1091325E+01  0.1850618E+06 -0.2661579E+01  0.3252912E+06  0.1880011E+01
  0.1288095E+01  0.2139442E+06 -0.1049486E+01  0.1850522E+06 -0.2657257E+01  0.3303639E+06  0.1904693E+01
  0.1319048E+01  0.2128449E+06 -0.1007285E+01  0.1842605E+06 -0.2652073E+01  0.3323767E+06  0.1928452E+01
  0.1350000E+01  0.2102965E+06 -0.9657419E+00  0.1828753E+06 -0.2646832E+01  0.3320724E+06  0.1950429E+01
  0.1380952E+01  0.2064679E+06 -0.9248366E+00  0.1812116E+06 -0.2642258E+01  0.3312285E+06  0.1970832E+01
  0.1411905E+01  0.2003049E+06 -0.8828136E+00  0.1791696E+06 -0.2638337E+01  0.3272586E+06  0.1989574E+01
  0.1442857E+01  0.1930696E+06 -0.8426387E+00  0.1768650E+06 -0.2635385E+01  0.3215791E+06  0.2005119E+01
  0.1473810E+01  0.1846354E+06 -0.8038607E+00  0.1743043E+06 -0.2633198E+01  0.3149655E+06  0.2017413E+01
  0.1504762E+01  0.1749297E+06 -0.7662329E+00  0.1713682E+06 -0.2631667E+01  0.3066198E+06  0.2026430E+01
  0.1535714E+01  0.1639763E+06 -0.7305589E+00  0.1677022E+06 -0.2629258E+01  0.2953334E+06  0.2030727E+01
  0.1566667E+01  0.1522890E+06 -0.6972755E+00  0.1638117E+06 -0.2627507E+01  0.2836463E+06  0.2030077E+01
  0.1597619E+01  0.1399499E+06 -0.6663604E+00  0.1597243E+06 -0.2626091E+01  0.2719846E+06  0.2024792E+01
  0.1628572E+01  0.1266387E+06 -0.6365194E+00  0.1554209E+06 -0.2625399E+01  0.2589100E+06  0.2014038E+01
  0.1659524E+01  0.1126951E+06 -0.6084834E+00  0.1509336E+06 -0.2625503E+01  0.2450922E+06  0.1996630E+01
  0.1690476E+01  0.9846427E+05 -0.5829905E+00  0.1462879E+06 -0.2626189E+01  0.2317067E+06  0.1972592E+01
  0.1721429E+01  0.8389893E+05 -0.5594023E+00  0.1414795E+06 -0.2627634E+01  0.2184353E+06  0.1941553E+01
  0.1752381E+01  0.6902536E+05 -0.5398904E+00  0.1363116E+06 -0.2628936E+01  0.2044264E+06  0.1899679E+01
  0.1783333E+01  0.5400489E+05 -0.5260360E+00  0.1309338E+06 -0.2630582E+01  0.1904263E+06  0.1845638E+01
  0.1814286E+01  0.3914207E+05 -0.5214608E+00  0.1255554E+06 -0.2632936E+01  0.1780604E+06  0.1783006E+01
  0.1845238E+01  0.2440931E+05 -0.5402906E+00  0.1201419E+06 -0.2635532E+01  0.1669903E+06  0.1710088E+01
  0.1876190E+01  0.9857810E+04 -0.6722400E+00  0.1146840E+06 -0.2638980E+01  0.1570682E+06  0.1624534E+01
  0.1907143E+01  0.5583301E+04 -0.3090537E+01  0.1091828E+06 -0.2643236E+01  0.1487492E+06  0.1527146E+01
  0.1938095E+01  0.1940850E+05  0.2881744E+01  0.1036552E+06 -0.2648067E+01  0.1424335E+06  0.1421798E+01
  0.1969048E+01  0.3315825E+05  0.2845197E+01  0.9806194E+05 -0.2653889E+01  0.1382129E+06  0.1312033E+01
  0.2000000E+01  0.4653719E+05  0.2838728E+01  0.9234156E+05 -0.2660582E+01  0.1359480E+06  0.1199592E+01
