VARIABLES="w (rad/s)"
"abs(F   1   1)" "angle(F   1   1)"
"abs(F   1   2)" "angle(F   1   2)"
"abs(F   1   3)" "angle(F   1   3)"
Zone t="Diffraction force - beta =   0.000 deg",I=    64,F=POINT
  0.5000000E-01  0.2257927E+04 -0.1570794E+01  0.1217278E+03 -0.3109145E+01  0.7114296E+04  0.1570799E+01
  0.8095238E-01  0.3702525E+04 -0.1570790E+01  0.3160445E+03 -0.3108147E+01  0.1165746E+05  0.1570803E+01
  0.1119048E+00  0.5170739E+04 -0.1570783E+01  0.6004178E+03 -0.3106909E+01  0.1626621E+05  0.1570809E+01
  0.1428571E+00  0.6688025E+04 -0.1570773E+01  0.9740744E+03 -0.3105300E+01  0.2102936E+05  0.1570819E+01
  0.1738095E+00  0.8263870E+04 -0.1570759E+01  0.1437147E+04 -0.3103297E+01  0.2594636E+05  0.1570834E+01
  0.2047619E+00  0.9924637E+04 -0.1570738E+01  0.1989540E+04 -0.3100749E+01  0.3113621E+05  0.1570855E+01
  0.2357143E+00  0.1168647E+05 -0.1570708E+01  0.2624772E+04 -0.3097433E+01  0.3662004E+05  0.1570886E+01
  0.2666667E+00  0.1357141E+05 -0.1570664E+01  0.3353392E+04 -0.3093586E+01  0.4245541E+05  0.1570930E+01
  0.2976190E+00  0.1562701E+05 -0.1570598E+01  0.4153269E+04 -0.3088495E+01  0.4881479E+05  0.1570996E+01
  0.3285715E+00  0.1785125E+05 -0.1570501E+01  0.5048147E+04 -0.3082693E+01  0.5566690E+05  0.1571094E+01
  0.3595238E+00  0.2031999E+05 -0.1570358E+01  0.5993561E+04 -0.3075318E+01  0.6320355E+05  0.1571239E+01
  0.3904762E+00  0.2300799E+05 -0.1570144E+01  0.7025923E+04 -0.3066900E+01  0.7144806E+05  0.1571454E+01
  0.4214286E+00  0.2601481E+05 -0.1569833E+01  0.8085750E+04 -0.3057322E+01  0.8059177E+05  0.1571767E+01
  0.4523810E+00  0.2929503E+05 -0.1569380E+01  0.9200127E+04 -0.3046194E+01  0.9050608E+05  0.1572224E+01
  0.4833333E+00  0.3288945E+05 -0.1568756E+01  0.1033421E+05 -0.3035260E+01  0.1013089E+06  0.1572852E+01
  0.5142857E+00  0.3680480E+05 -0.1567898E+01  0.1146266E+05 -0.3023081E+01  0.1130760E+06  0.1573717E+01
  0.5452381E+00  0.4096535E+05 -0.1566761E+01  0.1263681E+05 -0.3011579E+01  0.1255406E+06  0.1574860E+01
  0.5761905E+00  0.4544902E+05 -0.1565302E+01  0.1373033E+05 -0.2999699E+01  0.1387000E+06  0.1576331E+01
  0.6071429E+00  0.5010298E+05 -0.1563428E+01  0.1483589E+05 -0.2987700E+01  0.1523661E+06  0.1578218E+01
  0.6380953E+00  0.5499309E+05 -0.1561115E+01  0.1594559E+05 -0.2977016E+01  0.1666709E+06  0.1580546E+01
  0.6690477E+00  0.6016328E+05 -0.1558280E+01  0.1695997E+05 -0.2965780E+01  0.1817131E+06  0.1583396E+01
  0.7000000E+00  0.6543131E+05 -0.1554818E+01  0.1796175E+05 -0.2954752E+01  0.1968089E+06  0.1586879E+01
  0.7309524E+00  0.7094343E+05 -0.1550691E+01  0.1896498E+05 -0.2944797E+01  0.2124143E+06  0.1591031E+01
  0.7619048E+00  0.7667588E+05 -0.1545805E+01  0.1982417E+05 -0.2934141E+01  0.2284010E+06  0.1595952E+01
  0.7928572E+00  0.8254799E+05 -0.1540059E+01  0.2064922E+05 -0.2923813E+01  0.2448014E+06  0.1601727E+01
  0.8238096E+00  0.8849096E+05 -0.1533354E+01  0.2145362E+05 -0.2914114E+01  0.2612852E+06  0.1608456E+01
  0.8547620E+00  0.9459373E+05 -0.1525637E+01  0.2216967E+05 -0.2904598E+01  0.2779380E+06  0.1616201E+01
  0.8857143E+00  0.1009845E+06 -0.1516864E+01  0.2276293E+05 -0.2894771E+01  0.2949303E+06  0.1625026E+01
  0.9166667E+00  0.1073800E+06 -0.1506877E+01  0.2331323E+05 -0.2885392E+01  0.3117749E+06  0.1635061E+01
  0.9476191E+00  0.1137905E+06 -0.1495602E+01  0.2381796E+05 -0.2876451E+01  0.3284101E+06  0.1646384E+01
  0.9785714E+00  0.1202841E+06 -0.1482991E+01  0.2425056E+05 -0.2867856E+01  0.3449883E+06  0.1659045E+01
  0.1009524E+01  0.1268746E+06 -0.1468997E+01  0.2451259E+05 -0.2858852E+01  0.3614846E+06  0.1673101E+01
  0.1040476E+01  0.1334882E+06 -0.1453539E+01  0.2471389E+05 -0.2850007E+01  0.3780397E+06  0.1688576E+01
  0.1071429E+01  0.1398536E+06 -0.1436526E+01  0.2486570E+05 -0.2841511E+01  0.3934642E+06  0.1705611E+01
  0.1102381E+01  0.1462466E+06 -0.1418073E+01  0.2497446E+05 -0.2833309E+01  0.4085117E+06  0.1724100E+01
  0.1133333E+01  0.1524546E+06 -0.1398081E+01  0.2498049E+05 -0.2825393E+01  0.4224469E+06  0.1744168E+01
  0.1164286E+01  0.1585656E+06 -0.1376579E+01  0.2484446E+05 -0.2817494E+01  0.4357236E+06  0.1765767E+01
  0.1195238E+01  0.1644903E+06 -0.1353541E+01  0.2464616E+05 -0.2809616E+01  0.4483804E+06  0.1788852E+01
  0.1226190E+01  0.1698677E+06 -0.1328845E+01  0.2440386E+05 -0.2801939E+01  0.4591881E+06  0.1813593E+01
  0.1257143E+01  0.1746695E+06 -0.1302532E+01  0.2412096E+05 -0.2794192E+01  0.4682613E+06  0.1839910E+01
  0.1288095E+01  0.1794692E+06 -0.1274973E+01  0.2380836E+05 -0.2786912E+01  0.4770249E+06  0.1867458E+01
  0.1319048E+01  0.1834016E+06 -0.1245930E+01  0.2334823E+05 -0.2780144E+01  0.4830475E+06  0.1896491E+01
  0.1350000E+01  0.1869728E+06 -0.1215901E+01  0.2283090E+05 -0.2773404E+01  0.4879021E+06  0.1926485E+01
  0.1380952E+01  0.1899932E+06 -0.1184956E+01  0.2226452E+05 -0.2766782E+01  0.4910721E+06  0.1957380E+01
  0.1411905E+01  0.1915733E+06 -0.1153015E+01  0.2166764E+05 -0.2760332E+01  0.4908350E+06  0.1989025E+01
  0.1442857E+01  0.1928716E+06 -0.1120278E+01  0.2106210E+05 -0.2753884E+01  0.4888762E+06  0.2021751E+01
  0.1473810E+01  0.1935924E+06 -0.1086856E+01  0.2042553E+05 -0.2747319E+01  0.4857969E+06  0.2055007E+01
  0.1504762E+01  0.1933933E+06 -0.1053027E+01  0.1976106E+05 -0.2741377E+01  0.4799599E+06  0.2088700E+01
  0.1535714E+01  0.1924920E+06 -0.1018971E+01  0.1902500E+05 -0.2736625E+01  0.4723241E+06  0.2122637E+01
  0.1566667E+01  0.1910288E+06 -0.9852312E+00  0.1826698E+05 -0.2731686E+01  0.4633696E+06  0.2156182E+01
  0.1597619E+01  0.1887619E+06 -0.9515372E+00  0.1748816E+05 -0.2726871E+01  0.4526806E+06  0.2189640E+01
  0.1628572E+01  0.1856479E+06 -0.9181243E+00  0.1671932E+05 -0.2722164E+01  0.4398129E+06  0.2222844E+01
  0.1659524E+01  0.1817354E+06 -0.8851591E+00  0.1597055E+05 -0.2717486E+01  0.4249724E+06  0.2255631E+01
  0.1690476E+01  0.1773640E+06 -0.8525510E+00  0.1520185E+05 -0.2712950E+01  0.4096886E+06  0.2287958E+01
  0.1721429E+01  0.1724379E+06 -0.8207144E+00  0.1446012E+05 -0.2708209E+01  0.3932879E+06  0.2319399E+01
  0.1752381E+01  0.1668968E+06 -0.7899584E+00  0.1370150E+05 -0.2705472E+01  0.3752868E+06  0.2349888E+01
  0.1783333E+01  0.1610847E+06 -0.7603029E+00  0.1294825E+05 -0.2703060E+01  0.3571917E+06  0.2379254E+01
  0.1814286E+01  0.1550315E+06 -0.7316956E+00  0.1219855E+05 -0.2700681E+01  0.3391332E+06  0.2407377E+01
  0.1845238E+01  0.1484788E+06 -0.7036858E+00  0.1145279E+05 -0.2698911E+01  0.3204690E+06  0.2434875E+01
  0.1876190E+01  0.1416067E+06 -0.6767694E+00  0.1074519E+05 -0.2697149E+01  0.3013079E+06  0.2461181E+01
  0.1907143E+01  0.1344045E+06 -0.6510551E+00  0.1007861E+05 -0.2695067E+01  0.2815777E+06  0.2486216E+01
  0.1938095E+01  0.1271823E+06 -0.6263482E+00  0.9419158E+04 -0.2694023E+01  0.2625116E+06  0.2510337E+01
  0.1969048E+01  0.1199482E+06 -0.6026178E+00  0.8779533E+04 -0.2693139E+01  0.2440848E+06  0.2533401E+01
  0.2000000E+01  0.1125348E+06 -0.5802677E+00  0.8185084E+04 -0.2692242E+01  0.2253281E+06  0.2554929E+01
