VARIABLES="w (rad/s)"
"abs(F   1   1)" "angle(F   1   1)"
"abs(F   1   2)" "angle(F   1   2)"
"abs(F   1   3)" "angle(F   1   3)"
Zone t="Diffraction force - beta =   0.000 deg",I=    64,F=POINT
  0.5000000E-01  0.7035319E+04 -0.1570777E+01  0.4030875E+06 -0.2768772E-04  0.1553611E+05  0.1570785E+01
  0.8095238E-01  0.1151115E+05 -0.1570787E+01  0.4022808E+06 -0.7447484E-04  0.2538740E+05  0.1570796E+01
  0.1119048E+00  0.1606838E+05 -0.1570795E+01  0.4010964E+06 -0.1478380E-03  0.3541356E+05  0.1570801E+01
  0.1428571E+00  0.2078596E+05 -0.1570780E+01  0.3995337E+06 -0.2534193E-03  0.4573889E+05  0.1570815E+01
  0.1738095E+00  0.2569027E+05 -0.1570767E+01  0.3975902E+06 -0.3996277E-03  0.5646949E+05  0.1570820E+01
  0.2047619E+00  0.3084499E+05 -0.1570759E+01  0.3952651E+06 -0.5987192E-03  0.6770538E+05  0.1570834E+01
  0.2357143E+00  0.3633601E+05 -0.1570740E+01  0.3925540E+06 -0.8687479E-03  0.7960970E+05  0.1570855E+01
  0.2666667E+00  0.4220084E+05 -0.1570709E+01  0.3894548E+06 -0.1231470E-02  0.9232489E+05  0.1570884E+01
  0.2976190E+00  0.4857233E+05 -0.1570665E+01  0.3859701E+06 -0.1724398E-02  0.1060386E+06  0.1570929E+01
  0.3285715E+00  0.5555031E+05 -0.1570598E+01  0.3820935E+06 -0.2384730E-02  0.1209431E+06  0.1570994E+01
  0.3595238E+00  0.6316451E+05 -0.1570503E+01  0.3778398E+06 -0.3272922E-02  0.1372277E+06  0.1571088E+01
  0.3904762E+00  0.7159073E+05 -0.1570355E+01  0.3732094E+06 -0.4455235E-02  0.1550937E+06  0.1571233E+01
  0.4214286E+00  0.8096473E+05 -0.1570145E+01  0.3682489E+06 -0.5974791E-02  0.1748179E+06  0.1571449E+01
  0.4523810E+00  0.9119484E+05 -0.1569831E+01  0.3629513E+06 -0.7948440E-02  0.1963400E+06  0.1571762E+01
  0.4833333E+00  0.1024222E+06 -0.1569398E+01  0.3573722E+06 -0.1032279E-01  0.2197535E+06  0.1572195E+01
  0.5142857E+00  0.1145831E+06 -0.1568793E+01  0.3515460E+06 -0.1323607E-01  0.2449173E+06  0.1572799E+01
  0.5452381E+00  0.1276628E+06 -0.1567985E+01  0.3454779E+06 -0.1664330E-01  0.2716949E+06  0.1573606E+01
  0.5761905E+00  0.1414664E+06 -0.1566934E+01  0.3392037E+06 -0.2055524E-01  0.2999513E+06  0.1574658E+01
  0.6071429E+00  0.1560132E+06 -0.1565571E+01  0.3327496E+06 -0.2508684E-01  0.3294538E+06  0.1576021E+01
  0.6380953E+00  0.1714295E+06 -0.1563866E+01  0.3261063E+06 -0.3013653E-01  0.3601959E+06  0.1577726E+01
  0.6690477E+00  0.1873960E+06 -0.1561739E+01  0.3193349E+06 -0.3581253E-01  0.3918290E+06  0.1579852E+01
  0.7000000E+00  0.2040218E+06 -0.1559112E+01  0.3124444E+06 -0.4218260E-01  0.4244792E+06  0.1582479E+01
  0.7309524E+00  0.2212481E+06 -0.1555928E+01  0.3054244E+06 -0.4920574E-01  0.4579042E+06  0.1585662E+01
  0.7619048E+00  0.2389945E+06 -0.1552093E+01  0.2983242E+06 -0.5694974E-01  0.4920210E+06  0.1589497E+01
  0.7928572E+00  0.2573307E+06 -0.1547515E+01  0.2911810E+06 -0.6546190E-01  0.5268051E+06  0.1594074E+01
  0.8238096E+00  0.2762588E+06 -0.1542102E+01  0.2840074E+06 -0.7476451E-01  0.5619945E+06  0.1599484E+01
  0.8547620E+00  0.2958409E+06 -0.1535760E+01  0.2767960E+06 -0.8487184E-01  0.5979007E+06  0.1605825E+01
  0.8857143E+00  0.3156104E+06 -0.1528379E+01  0.2695892E+06 -0.9582274E-01  0.6338353E+06  0.1613202E+01
  0.9166667E+00  0.3357909E+06 -0.1519861E+01  0.2623868E+06 -0.1076403E+00  0.6701344E+06  0.1621717E+01
  0.9476191E+00  0.3561893E+06 -0.1510125E+01  0.2552307E+06 -0.1203660E+00  0.7059753E+06  0.1631449E+01
  0.9785714E+00  0.3771499E+06 -0.1499077E+01  0.2481176E+06 -0.1340225E+00  0.7419688E+06  0.1642488E+01
  0.1009524E+01  0.3981575E+06 -0.1486620E+01  0.2410882E+06 -0.1486425E+00  0.7775363E+06  0.1654936E+01
  0.1040476E+01  0.4189942E+06 -0.1472688E+01  0.2341532E+06 -0.1642672E+00  0.8118748E+06  0.1668854E+01
  0.1071429E+01  0.4399563E+06 -0.1457208E+01  0.2272929E+06 -0.1808992E+00  0.8458211E+06  0.1684320E+01
  0.1102381E+01  0.4604033E+06 -0.1440198E+01  0.2205284E+06 -0.1986157E+00  0.8777696E+06  0.1701310E+01
  0.1133333E+01  0.4805374E+06 -0.1421644E+01  0.2138709E+06 -0.2174264E+00  0.9085005E+06  0.1719837E+01
  0.1164286E+01  0.4996568E+06 -0.1401554E+01  0.2073340E+06 -0.2374141E+00  0.9369369E+06  0.1739898E+01
  0.1195238E+01  0.5174057E+06 -0.1380126E+01  0.2009531E+06 -0.2586229E+00  0.9617116E+06  0.1761279E+01
  0.1226190E+01  0.5343754E+06 -0.1357377E+01  0.1946847E+06 -0.2811222E+00  0.9845572E+06  0.1783982E+01
  0.1257143E+01  0.5490895E+06 -0.1333758E+01  0.1886178E+06 -0.3051316E+00  0.1002299E+07  0.1807543E+01
  0.1288095E+01  0.5631924E+06 -0.1309117E+01  0.1826964E+06 -0.3301694E+00  0.1017638E+07  0.1832115E+01
  0.1319048E+01  0.5750659E+06 -0.1283897E+01  0.1769610E+06 -0.3568085E+00  0.1028899E+07  0.1857253E+01
  0.1350000E+01  0.5844458E+06 -0.1258392E+01  0.1714244E+06 -0.3849746E+00  0.1035261E+07  0.1882671E+01
  0.1380952E+01  0.5912577E+06 -0.1233021E+01  0.1660869E+06 -0.4146331E+00  0.1036512E+07  0.1907917E+01
  0.1411905E+01  0.5932343E+06 -0.1210610E+01  0.1610939E+06 -0.4461882E+00  0.1031472E+07  0.1930221E+01
  0.1442857E+01  0.5952819E+06 -0.1186675E+01  0.1562119E+06 -0.4792659E+00  0.1024097E+07  0.1954001E+01
  0.1473810E+01  0.5949793E+06 -0.1164006E+01  0.1515699E+06 -0.5141643E+00  0.1012400E+07  0.1976485E+01
  0.1504762E+01  0.5927168E+06 -0.1142880E+01  0.1471854E+06 -0.5508622E+00  0.9972912E+06  0.1997384E+01
  0.1535714E+01  0.5882802E+06 -0.1123465E+01  0.1430992E+06 -0.5893641E+00  0.9789951E+06  0.2016596E+01
  0.1566667E+01  0.5818216E+06 -0.1106321E+01  0.1393642E+06 -0.6294665E+00  0.9570237E+06  0.2033459E+01
  0.1597619E+01  0.5737325E+06 -0.1091407E+01  0.1359834E+06 -0.6710400E+00  0.9325424E+06  0.2048076E+01
  0.1628572E+01  0.5646223E+06 -0.1078600E+01  0.1329348E+06 -0.7140103E+00  0.9070984E+06  0.2060647E+01
  0.1659524E+01  0.5541731E+06 -0.1068436E+01  0.1302657E+06 -0.7578687E+00  0.8794989E+06  0.2070472E+01
  0.1690476E+01  0.5427954E+06 -0.1060898E+01  0.1279619E+06 -0.8025339E+00  0.8506988E+06  0.2077646E+01
  0.1721429E+01  0.5308943E+06 -0.1055933E+01  0.1260188E+06 -0.8475013E+00  0.8215522E+06  0.2082180E+01
  0.1752381E+01  0.5186672E+06 -0.1053354E+01  0.1244332E+06 -0.8924981E+00  0.7927414E+06  0.2084400E+01
  0.1783333E+01  0.5058632E+06 -0.1053390E+01  0.1232538E+06 -0.9366717E+00  0.7635498E+06  0.2084060E+01
  0.1814286E+01  0.4927078E+06 -0.1056302E+01  0.1224095E+06 -0.9791478E+00  0.7338959E+06  0.2080529E+01
  0.1845238E+01  0.4796186E+06 -0.1061467E+01  0.1218316E+06 -0.1020149E+01  0.7050432E+06  0.2074877E+01
  0.1876190E+01  0.4667761E+06 -0.1068632E+01  0.1215061E+06 -0.1059075E+01  0.6774505E+06  0.2067447E+01
  0.1907143E+01  0.4540632E+06 -0.1078231E+01  0.1213134E+06 -0.1095154E+01  0.6503808E+06  0.2057454E+01
  0.1938095E+01  0.4414631E+06 -0.1090399E+01  0.1211884E+06 -0.1128695E+01  0.6236545E+06  0.2044674E+01
  0.1969048E+01  0.4293530E+06 -0.1104518E+01  0.1210614E+06 -0.1159792E+01  0.5982936E+06  0.2030105E+01
  0.2000000E+01  0.4177483E+06 -0.1120256E+01  0.1208919E+06 -0.1188562E+01  0.5742109E+06  0.2013862E+01
