VARIABLES="w (rad/s)"
"abs(F   1   1)" "angle(F   1   1)"
"abs(F   1   2)" "angle(F   1   2)"
"abs(F   1   3)" "angle(F   1   3)"
Zone t="Diffraction force - beta =   0.000 deg",I=    64,F=POINT
  0.5000000E-01  0.8560793E+03 -0.1570795E+01  0.5446511E+03 -0.3082237E+01  0.1391490E+04 -0.1570794E+01
  0.8095238E-01  0.1397610E+04 -0.1570792E+01  0.1408666E+04 -0.3079978E+01  0.2263365E+04 -0.1570790E+01
  0.1119048E+00  0.1949521E+04 -0.1570787E+01  0.2675628E+04 -0.3077368E+01  0.3156977E+04 -0.1570784E+01
  0.1428571E+00  0.2516732E+04 -0.1570779E+01  0.4341481E+04 -0.3074002E+01  0.4073465E+04 -0.1570775E+01
  0.1738095E+00  0.3105221E+04 -0.1570768E+01  0.6427392E+04 -0.3069918E+01  0.5033061E+04 -0.1570762E+01
  0.2047619E+00  0.3720625E+04 -0.1570753E+01  0.8928177E+04 -0.3064723E+01  0.6031087E+04 -0.1570742E+01
  0.2357143E+00  0.4369521E+04 -0.1570729E+01  0.1187650E+05 -0.3058301E+01  0.7083574E+04 -0.1570714E+01
  0.2666667E+00  0.5064711E+04 -0.1570696E+01  0.1527886E+05 -0.3050500E+01  0.8229227E+04 -0.1570672E+01
  0.2976190E+00  0.5809860E+04 -0.1570646E+01  0.1913167E+05 -0.3040620E+01  0.9442759E+04 -0.1570610E+01
  0.3285715E+00  0.6615050E+04 -0.1570572E+01  0.2349284E+05 -0.3028982E+01  0.1075295E+05 -0.1570519E+01
  0.3595238E+00  0.7498567E+04 -0.1570462E+01  0.2833672E+05 -0.3014879E+01  0.1222496E+05 -0.1570382E+01
  0.3904762E+00  0.8458146E+04 -0.1570295E+01  0.3365199E+05 -0.2998070E+01  0.1379937E+05 -0.1570177E+01
  0.4214286E+00  0.9510619E+04 -0.1570054E+01  0.3938702E+05 -0.2979317E+01  0.1552008E+05 -0.1569877E+01
  0.4523810E+00  0.1065138E+05 -0.1569700E+01  0.4562856E+05 -0.2957951E+01  0.1740771E+05 -0.1569438E+01
  0.4833333E+00  0.1189326E+05 -0.1569212E+01  0.5217918E+05 -0.2936210E+01  0.1950367E+05 -0.1568834E+01
  0.5142857E+00  0.1321340E+05 -0.1568535E+01  0.5900798E+05 -0.2912490E+01  0.2169831E+05 -0.1567993E+01
  0.5452381E+00  0.1460692E+05 -0.1567639E+01  0.6619258E+05 -0.2889224E+01  0.2401830E+05 -0.1566875E+01
  0.5761905E+00  0.1603855E+05 -0.1566473E+01  0.7362381E+05 -0.2866452E+01  0.2639374E+05 -0.1565418E+01
  0.6071429E+00  0.1752385E+05 -0.1564981E+01  0.8123276E+05 -0.2842995E+01  0.2890256E+05 -0.1563554E+01
  0.6380953E+00  0.1905064E+05 -0.1563134E+01  0.8904859E+05 -0.2820913E+01  0.3149306E+05 -0.1561247E+01
  0.6690477E+00  0.2058775E+05 -0.1560856E+01  0.9703089E+05 -0.2799184E+01  0.3406391E+05 -0.1558380E+01
  0.7000000E+00  0.2212175E+05 -0.1558075E+01  0.1051851E+06 -0.2777688E+01  0.3662777E+05 -0.1554867E+01
  0.7309524E+00  0.2364103E+05 -0.1554752E+01  0.1135058E+06 -0.2757288E+01  0.3919651E+05 -0.1550664E+01
  0.7619048E+00  0.2514840E+05 -0.1550822E+01  0.1218595E+06 -0.2737101E+01  0.4176352E+05 -0.1545684E+01
  0.7928572E+00  0.2661879E+05 -0.1546217E+01  0.1302070E+06 -0.2717020E+01  0.4426638E+05 -0.1539822E+01
  0.8238096E+00  0.2804775E+05 -0.1540888E+01  0.1385943E+06 -0.2697551E+01  0.4668851E+05 -0.1533000E+01
  0.8547620E+00  0.2940146E+05 -0.1534771E+01  0.1470439E+06 -0.2679037E+01  0.4895132E+05 -0.1525102E+01
  0.8857143E+00  0.3065452E+05 -0.1527811E+01  0.1554812E+06 -0.2661267E+01  0.5101249E+05 -0.1516035E+01
  0.9166667E+00  0.3178858E+05 -0.1519982E+01  0.1638521E+06 -0.2644039E+01  0.5286236E+05 -0.1505754E+01
  0.9476191E+00  0.3279952E+05 -0.1511288E+01  0.1721030E+06 -0.2627195E+01  0.5451088E+05 -0.1494262E+01
  0.9785714E+00  0.3367299E+05 -0.1501745E+01  0.1802124E+06 -0.2610797E+01  0.5590287E+05 -0.1481509E+01
  0.1009524E+01  0.3436711E+05 -0.1491333E+01  0.1881523E+06 -0.2594820E+01  0.5691102E+05 -0.1467333E+01
  0.1040476E+01  0.3485266E+05 -0.1480057E+01  0.1959448E+06 -0.2579610E+01  0.5750435E+05 -0.1451668E+01
  0.1071429E+01  0.3511185E+05 -0.1467984E+01  0.2035758E+06 -0.2565288E+01  0.5761689E+05 -0.1434431E+01
  0.1102381E+01  0.3510811E+05 -0.1455169E+01  0.2110297E+06 -0.2551873E+01  0.5720426E+05 -0.1415571E+01
  0.1133333E+01  0.3481877E+05 -0.1441743E+01  0.2182463E+06 -0.2539083E+01  0.5620069E+05 -0.1395004E+01
  0.1164286E+01  0.3422141E+05 -0.1427871E+01  0.2252142E+06 -0.2526874E+01  0.5455206E+05 -0.1372612E+01
  0.1195238E+01  0.3329361E+05 -0.1413735E+01  0.2319023E+06 -0.2515137E+01  0.5222694E+05 -0.1348226E+01
  0.1226190E+01  0.3203240E+05 -0.1399708E+01  0.2383021E+06 -0.2504020E+01  0.4918932E+05 -0.1321634E+01
  0.1257143E+01  0.3041364E+05 -0.1385893E+01  0.2444690E+06 -0.2493235E+01  0.4539468E+05 -0.1291927E+01
  0.1288095E+01  0.2842254E+05 -0.1373501E+01  0.2501365E+06 -0.2483396E+01  0.4079996E+05 -0.1259143E+01
  0.1319048E+01  0.2605704E+05 -0.1362693E+01  0.2555458E+06 -0.2474013E+01  0.3539993E+05 -0.1220518E+01
  0.1350000E+01  0.2331371E+05 -0.1354952E+01  0.2605965E+06 -0.2465227E+01  0.2916093E+05 -0.1172080E+01
  0.1380952E+01  0.2018294E+05 -0.1352314E+01  0.2652568E+06 -0.2457156E+01  0.2210147E+05 -0.1102891E+01
  0.1411905E+01  0.1725874E+05 -0.1351028E+01  0.2656855E+06 -0.2443449E+01  0.1579513E+05 -0.9935545E+00
  0.1442857E+01  0.1354416E+05 -0.1370161E+01  0.2695250E+06 -0.2435869E+01  0.7961245E+04 -0.6746994E+00
  0.1473810E+01  0.9518928E+04 -0.1427789E+01  0.2729508E+06 -0.2428815E+01  0.5043038E+04  0.8978730E+00
  0.1504762E+01  0.5328639E+04 -0.1623004E+01  0.2759502E+06 -0.2422255E+01  0.1346536E+05  0.1618418E+01
  0.1535714E+01  0.2428332E+04 -0.2716680E+01  0.2785158E+06 -0.2416108E+01  0.2402046E+05  0.1787361E+01
  0.1566667E+01  0.5657573E+04  0.2475418E+01  0.2806525E+06 -0.2410303E+01  0.3545561E+05  0.1869534E+01
  0.1597619E+01  0.1073199E+05  0.2278749E+01  0.2823303E+06 -0.2404946E+01  0.4761848E+05  0.1923721E+01
  0.1628572E+01  0.1622777E+05  0.2218965E+01  0.2835232E+06 -0.2400209E+01  0.6044051E+05  0.1965187E+01
  0.1659524E+01  0.2199502E+05  0.2196808E+01  0.2842155E+06 -0.2396037E+01  0.7385809E+05  0.1999476E+01
  0.1690476E+01  0.2796933E+05  0.2189864E+01  0.2844095E+06 -0.2392351E+01  0.8780666E+05  0.2029223E+01
  0.1721429E+01  0.3411773E+05  0.2190109E+01  0.2840805E+06 -0.2389271E+01  0.1022267E+06  0.2055696E+01
  0.1752381E+01  0.4039448E+05  0.2194615E+01  0.2832697E+06 -0.2386550E+01  0.1169799E+06  0.2080291E+01
  0.1783333E+01  0.4676732E+05  0.2201570E+01  0.2819753E+06 -0.2384226E+01  0.1320065E+06  0.2103353E+01
  0.1814286E+01  0.5320266E+05  0.2209834E+01  0.2801868E+06 -0.2382316E+01  0.1472516E+06  0.2124987E+01
  0.1845238E+01  0.5966744E+05  0.2218709E+01  0.2778911E+06 -0.2380810E+01  0.1626530E+06  0.2145247E+01
  0.1876190E+01  0.6613828E+05  0.2227747E+01  0.2750633E+06 -0.2379870E+01  0.1781382E+06  0.2164212E+01
  0.1907143E+01  0.7258445E+05  0.2236660E+01  0.2716833E+06 -0.2379488E+01  0.1936292E+06  0.2182011E+01
  0.1938095E+01  0.7896005E+05  0.2245401E+01  0.2677821E+06 -0.2379548E+01  0.2090518E+06  0.2198704E+01
  0.1969048E+01  0.8524129E+05  0.2253933E+01  0.2633753E+06 -0.2380089E+01  0.2242977E+06  0.2214588E+01
  0.2000000E+01  0.9139516E+05  0.2262094E+01  0.2584228E+06 -0.2381163E+01  0.2393036E+06  0.2229606E+01
