VARIABLES="w (rad/s)"
"abs(F   1   1)" "angle(F   1   1)"
"abs(F   1   2)" "angle(F   1   2)"
"abs(F   1   3)" "angle(F   1   3)"
Zone t="Diffraction force - beta =   0.000 deg",I=    64,F=POINT
  0.5000000E-01  0.7591802E+03 -0.1570795E+01  0.6494048E+02 -0.3116020E+01  0.1374367E+04  0.1570797E+01
  0.8095238E-01  0.1245788E+04 -0.1570794E+01  0.1686290E+03 -0.3115176E+01  0.2255682E+04  0.1570799E+01
  0.1119048E+00  0.1745774E+04 -0.1570791E+01  0.3211702E+03 -0.3114171E+01  0.3159471E+04  0.1570801E+01
  0.1428571E+00  0.2261985E+04 -0.1570788E+01  0.5218117E+03 -0.3112808E+01  0.4087696E+04  0.1570805E+01
  0.1738095E+00  0.2796851E+04 -0.1570782E+01  0.7709218E+03 -0.3111073E+01  0.5056518E+04  0.1570810E+01
  0.2047619E+00  0.3364736E+04 -0.1570774E+01  0.1070115E+04 -0.3108907E+01  0.6075539E+04  0.1570818E+01
  0.2357143E+00  0.3965805E+04 -0.1570762E+01  0.1414907E+04 -0.3106045E+01  0.7157820E+04  0.1570830E+01
  0.2666667E+00  0.4615210E+04 -0.1570745E+01  0.1810889E+04 -0.3102637E+01  0.8324447E+04  0.1570847E+01
  0.2976190E+00  0.5321243E+04 -0.1570720E+01  0.2252203E+04 -0.3098238E+01  0.9588903E+04  0.1570872E+01
  0.3285715E+00  0.6092571E+04 -0.1570681E+01  0.2744245E+04 -0.3093031E+01  0.1096814E+05  0.1570909E+01
  0.3595238E+00  0.6943576E+04 -0.1570624E+01  0.3276049E+04 -0.3086549E+01  0.1249659E+05  0.1570965E+01
  0.3904762E+00  0.7890397E+04 -0.1570539E+01  0.3861112E+04 -0.3079019E+01  0.1417959E+05  0.1571049E+01
  0.4214286E+00  0.8940668E+04 -0.1570414E+01  0.4468405E+04 -0.3070283E+01  0.1604203E+05  0.1571172E+01
  0.4523810E+00  0.1010059E+05 -0.1570230E+01  0.5131036E+04 -0.3060418E+01  0.1810988E+05  0.1571352E+01
  0.4833333E+00  0.1136495E+05 -0.1569975E+01  0.5796630E+04 -0.3050064E+01  0.2036110E+05  0.1571603E+01
  0.5142857E+00  0.1275876E+05 -0.1569620E+01  0.6497673E+04 -0.3038975E+01  0.2280232E+05  0.1571951E+01
  0.5452381E+00  0.1424457E+05 -0.1569146E+01  0.7219633E+04 -0.3027920E+01  0.2540921E+05  0.1572418E+01
  0.5761905E+00  0.1582346E+05 -0.1568527E+01  0.7939209E+04 -0.3016758E+01  0.2820527E+05  0.1573025E+01
  0.6071429E+00  0.1751871E+05 -0.1567727E+01  0.8694809E+04 -0.3005662E+01  0.3119237E+05  0.1573809E+01
  0.6380953E+00  0.1929167E+05 -0.1566726E+01  0.9433498E+04 -0.2994811E+01  0.3426346E+05  0.1574794E+01
  0.6690477E+00  0.2116044E+05 -0.1565481E+01  0.1017237E+05 -0.2983932E+01  0.3749741E+05  0.1576018E+01
  0.7000000E+00  0.2312597E+05 -0.1563946E+01  0.1093686E+05 -0.2973433E+01  0.4089687E+05  0.1577526E+01
  0.7309524E+00  0.2512441E+05 -0.1562081E+01  0.1167319E+05 -0.2962929E+01  0.4435807E+05  0.1579357E+01
  0.7619048E+00  0.2723203E+05 -0.1559842E+01  0.1239096E+05 -0.2952311E+01  0.4801226E+05  0.1581551E+01
  0.7928572E+00  0.2944858E+05 -0.1557183E+01  0.1311763E+05 -0.2942182E+01  0.5176507E+05  0.1584168E+01
  0.8238096E+00  0.3174903E+05 -0.1554045E+01  0.1385225E+05 -0.2932641E+01  0.5565612E+05  0.1587255E+01
  0.8547620E+00  0.3408415E+05 -0.1550359E+01  0.1450552E+05 -0.2922249E+01  0.5957496E+05  0.1590882E+01
  0.8857143E+00  0.3650634E+05 -0.1546078E+01  0.1515024E+05 -0.2912241E+01  0.6364845E+05  0.1595089E+01
  0.9166667E+00  0.3901725E+05 -0.1541150E+01  0.1579807E+05 -0.2902935E+01  0.6786067E+05  0.1599930E+01
  0.9476191E+00  0.4159469E+05 -0.1535508E+01  0.1644568E+05 -0.2894315E+01  0.7220096E+05  0.1605460E+01
  0.9785714E+00  0.4422288E+05 -0.1529090E+01  0.1698139E+05 -0.2884624E+01  0.7648564E+05  0.1611780E+01
  0.1009524E+01  0.4697295E+05 -0.1521864E+01  0.1749954E+05 -0.2875292E+01  0.8098185E+05  0.1618887E+01
  0.1040476E+01  0.4975694E+05 -0.1513730E+01  0.1800221E+05 -0.2866526E+01  0.8544581E+05  0.1626906E+01
  0.1071429E+01  0.5265224E+05 -0.1504674E+01  0.1849285E+05 -0.2858359E+01  0.9008896E+05  0.1635825E+01
  0.1102381E+01  0.5552432E+05 -0.1494555E+01  0.1894553E+05 -0.2850523E+01  0.9466753E+05  0.1645785E+01
  0.1133333E+01  0.5840666E+05 -0.1483339E+01  0.1929367E+05 -0.2841911E+01  0.9922163E+05  0.1656825E+01
  0.1164286E+01  0.6136232E+05 -0.1471026E+01  0.1961625E+05 -0.2833620E+01  0.1039479E+06  0.1668901E+01
  0.1195238E+01  0.6430298E+05 -0.1457555E+01  0.1991521E+05 -0.2825822E+01  0.1085189E+06  0.1682148E+01
  0.1226190E+01  0.6734945E+05 -0.1443029E+01  0.2019298E+05 -0.2818503E+01  0.1131547E+06  0.1696461E+01
  0.1257143E+01  0.7028101E+05 -0.1427210E+01  0.2045820E+05 -0.2811642E+01  0.1176098E+06  0.1712014E+01
  0.1288095E+01  0.7329478E+05 -0.1410193E+01  0.2059995E+05 -0.2804534E+01  0.1219867E+06  0.1728840E+01
  0.1319048E+01  0.7622466E+05 -0.1391869E+01  0.2069979E+05 -0.2797184E+01  0.1262845E+06  0.1746898E+01
  0.1350000E+01  0.7909622E+05 -0.1372263E+01  0.2076395E+05 -0.2790132E+01  0.1304223E+06  0.1766219E+01
  0.1380952E+01  0.8185436E+05 -0.1351329E+01  0.2080815E+05 -0.2783571E+01  0.1342858E+06  0.1786879E+01
  0.1411905E+01  0.8442309E+05 -0.1328934E+01  0.2082461E+05 -0.2777146E+01  0.1379614E+06  0.1808818E+01
  0.1442857E+01  0.8695688E+05 -0.1305463E+01  0.2082667E+05 -0.2771241E+01  0.1414712E+06  0.1831861E+01
  0.1473810E+01  0.8925071E+05 -0.1280694E+01  0.2075441E+05 -0.2765440E+01  0.1445073E+06  0.1856174E+01
  0.1504762E+01  0.9135691E+05 -0.1254914E+01  0.2059982E+05 -0.2759394E+01  0.1471160E+06  0.1881520E+01
  0.1535714E+01  0.9334885E+05 -0.1228273E+01  0.2041676E+05 -0.2753360E+01  0.1495543E+06  0.1907652E+01
  0.1566667E+01  0.9506258E+05 -0.1200685E+01  0.2020888E+05 -0.2747655E+01  0.1514036E+06  0.1934790E+01
  0.1597619E+01  0.9653356E+05 -0.1172264E+01  0.1998483E+05 -0.2742282E+01  0.1528011E+06  0.1962784E+01
  0.1628572E+01  0.9778100E+05 -0.1143181E+01  0.1973736E+05 -0.2737009E+01  0.1538213E+06  0.1991377E+01
  0.1659524E+01  0.9872349E+05 -0.1113344E+01  0.1947709E+05 -0.2732001E+01  0.1544057E+06  0.2020626E+01
  0.1690476E+01  0.9928486E+05 -0.1082852E+01  0.1918748E+05 -0.2727359E+01  0.1543342E+06  0.2050504E+01
  0.1721429E+01  0.9944205E+05 -0.1051926E+01  0.1880974E+05 -0.2722990E+01  0.1535089E+06  0.2080842E+01
  0.1752381E+01  0.9938212E+05 -0.1020996E+01  0.1841224E+05 -0.2718405E+01  0.1524202E+06  0.2111124E+01
  0.1783333E+01  0.9905642E+05 -0.9900979E+00  0.1799466E+05 -0.2713996E+01  0.1509624E+06  0.2141267E+01
  0.1814286E+01  0.9829041E+05 -0.9591997E+00  0.1756971E+05 -0.2709869E+01  0.1486840E+06  0.2171536E+01
  0.1845238E+01  0.9725722E+05 -0.9285258E+00  0.1713982E+05 -0.2706003E+01  0.1460341E+06  0.2201576E+01
  0.1876190E+01  0.9595869E+05 -0.8981993E+00  0.1669330E+05 -0.2702117E+01  0.1430219E+06  0.2231140E+01
  0.1907143E+01  0.9438614E+05 -0.8681514E+00  0.1624312E+05 -0.2698369E+01  0.1396905E+06  0.2260318E+01
  0.1938095E+01  0.9245955E+05 -0.8385689E+00  0.1579280E+05 -0.2694849E+01  0.1358147E+06  0.2289026E+01
  0.1969048E+01  0.9024727E+05 -0.8097439E+00  0.1529863E+05 -0.2692249E+01  0.1314574E+06  0.2316964E+01
  0.2000000E+01  0.8779921E+05 -0.7815620E+00  0.1478734E+05 -0.2689766E+01  0.1267996E+06  0.2344265E+01
