VARIABLES="w (rad/s)"
"abs(F   1   1)" "angle(F   1   1)"
"abs(F   1   2)" "angle(F   1   2)"
"abs(F   1   3)" "angle(F   1   3)"
Zone t="Diffraction force - beta =   0.000 deg",I=    64,F=POINT
  0.5000000E-01  0.1402478E+04 -0.1570794E+01  0.3931874E+03 -0.3097170E+01  0.1449906E+04  0.1570797E+01
  0.8095238E-01  0.2289453E+04 -0.1570789E+01  0.1020445E+04 -0.3095704E+01  0.2367406E+04  0.1570798E+01
  0.1119048E+00  0.3206704E+04 -0.1570782E+01  0.1935921E+04 -0.3093802E+01  0.3321274E+04  0.1570801E+01
  0.1428571E+00  0.4142177E+04 -0.1570771E+01  0.3143420E+04 -0.3091456E+01  0.4306298E+04  0.1570804E+01
  0.1738095E+00  0.5146758E+04 -0.1570754E+01  0.4636896E+04 -0.3088419E+01  0.5363387E+04  0.1570809E+01
  0.2047619E+00  0.6175509E+04 -0.1570731E+01  0.6427941E+04 -0.3084663E+01  0.6460178E+04  0.1570816E+01
  0.2357143E+00  0.7302022E+04 -0.1570696E+01  0.8527982E+04 -0.3080014E+01  0.7681176E+04  0.1570827E+01
  0.2666667E+00  0.8510743E+04 -0.1570646E+01  0.1090268E+05 -0.3074184E+01  0.8985908E+04  0.1570842E+01
  0.2976190E+00  0.9788927E+04 -0.1570571E+01  0.1361085E+05 -0.3067066E+01  0.1040307E+05  0.1570865E+01
  0.3285715E+00  0.1126293E+05 -0.1570461E+01  0.1657751E+05 -0.3058324E+01  0.1202936E+05  0.1570901E+01
  0.3595238E+00  0.1287076E+05 -0.1570296E+01  0.1987792E+05 -0.3047976E+01  0.1383763E+05  0.1570954E+01
  0.3904762E+00  0.1462339E+05 -0.1570048E+01  0.2340692E+05 -0.3035454E+01  0.1580674E+05  0.1571035E+01
  0.4214286E+00  0.1655774E+05 -0.1569686E+01  0.2720115E+05 -0.3021691E+01  0.1804916E+05  0.1571155E+01
  0.4523810E+00  0.1880339E+05 -0.1569161E+01  0.3119779E+05 -0.3005568E+01  0.2060306E+05  0.1571333E+01
  0.4833333E+00  0.2123035E+05 -0.1568432E+01  0.3533923E+05 -0.2989406E+01  0.2343978E+05  0.1571584E+01
  0.5142857E+00  0.2376465E+05 -0.1567413E+01  0.3966956E+05 -0.2972154E+01  0.2646913E+05  0.1571937E+01
  0.5452381E+00  0.2661986E+05 -0.1566070E+01  0.4399114E+05 -0.2954496E+01  0.2988066E+05  0.1572414E+01
  0.5761905E+00  0.2972182E+05 -0.1564339E+01  0.4847406E+05 -0.2937814E+01  0.3363787E+05  0.1573045E+01
  0.6071429E+00  0.3297841E+05 -0.1562105E+01  0.5290326E+05 -0.2920215E+01  0.3750496E+05  0.1573874E+01
  0.6380953E+00  0.3634625E+05 -0.1559317E+01  0.5736694E+05 -0.2903907E+01  0.4172580E+05  0.1574926E+01
  0.6690477E+00  0.3977020E+05 -0.1555843E+01  0.6192386E+05 -0.2888400E+01  0.4610897E+05  0.1576251E+01
  0.7000000E+00  0.4361637E+05 -0.1551678E+01  0.6628701E+05 -0.2872094E+01  0.5083833E+05  0.1577884E+01
  0.7309524E+00  0.4768649E+05 -0.1546708E+01  0.7061096E+05 -0.2856611E+01  0.5605457E+05  0.1579892E+01
  0.7619048E+00  0.5175936E+05 -0.1540731E+01  0.7493651E+05 -0.2842042E+01  0.6131404E+05  0.1582348E+01
  0.7928572E+00  0.5585868E+05 -0.1533626E+01  0.7916092E+05 -0.2827919E+01  0.6675145E+05  0.1585308E+01
  0.8238096E+00  0.6008807E+05 -0.1525337E+01  0.8307037E+05 -0.2813118E+01  0.7230491E+05  0.1588828E+01
  0.8547620E+00  0.6445755E+05 -0.1515824E+01  0.8691839E+05 -0.2799263E+01  0.7829362E+05  0.1592905E+01
  0.8857143E+00  0.6910759E+05 -0.1505117E+01  0.9067646E+05 -0.2786447E+01  0.8467005E+05  0.1597578E+01
  0.9166667E+00  0.7379145E+05 -0.1492923E+01  0.9423054E+05 -0.2774174E+01  0.9116110E+05  0.1603045E+01
  0.9476191E+00  0.7851981E+05 -0.1479187E+01  0.9735644E+05 -0.2761141E+01  0.9759946E+05  0.1609351E+01
  0.9785714E+00  0.8314559E+05 -0.1463715E+01  0.1003407E+06 -0.2748990E+01  0.1043943E+06  0.1616551E+01
  0.1009524E+01  0.8752182E+05 -0.1446333E+01  0.1031632E+06 -0.2737883E+01  0.1110159E+06  0.1624677E+01
  0.1040476E+01  0.9174154E+05 -0.1427120E+01  0.1058671E+06 -0.2728072E+01  0.1179110E+06  0.1633697E+01
  0.1071429E+01  0.9583262E+05 -0.1406346E+01  0.1079750E+06 -0.2716909E+01  0.1242003E+06  0.1643423E+01
  0.1102381E+01  0.1000953E+06 -0.1384649E+01  0.1098447E+06 -0.2706367E+01  0.1310424E+06  0.1653545E+01
  0.1133333E+01  0.1038912E+06 -0.1360952E+01  0.1114865E+06 -0.2696617E+01  0.1377414E+06  0.1664854E+01
  0.1164286E+01  0.1071886E+06 -0.1335410E+01  0.1129024E+06 -0.2687975E+01  0.1439579E+06  0.1676940E+01
  0.1195238E+01  0.1099927E+06 -0.1308128E+01  0.1141494E+06 -0.2680619E+01  0.1501555E+06  0.1689849E+01
  0.1226190E+01  0.1122297E+06 -0.1279492E+01  0.1148801E+06 -0.2672652E+01  0.1554550E+06  0.1703096E+01
  0.1257143E+01  0.1139477E+06 -0.1250188E+01  0.1152139E+06 -0.2664369E+01  0.1601264E+06  0.1716027E+01
  0.1288095E+01  0.1152811E+06 -0.1220578E+01  0.1153322E+06 -0.2657207E+01  0.1650967E+06  0.1729190E+01
  0.1319048E+01  0.1156096E+06 -0.1189414E+01  0.1152134E+06 -0.2650747E+01  0.1689638E+06  0.1742498E+01
  0.1350000E+01  0.1150866E+06 -0.1157453E+01  0.1148624E+06 -0.2645435E+01  0.1720277E+06  0.1755403E+01
  0.1380952E+01  0.1137998E+06 -0.1125152E+01  0.1143571E+06 -0.2641567E+01  0.1747285E+06  0.1767787E+01
  0.1411905E+01  0.1115008E+06 -0.1092721E+01  0.1133208E+06 -0.2637112E+01  0.1759720E+06  0.1778400E+01
  0.1442857E+01  0.1085658E+06 -0.1061473E+01  0.1118722E+06 -0.2632763E+01  0.1761288E+06  0.1787572E+01
  0.1473810E+01  0.1049375E+06 -0.1030901E+01  0.1102901E+06 -0.2629266E+01  0.1761846E+06  0.1795632E+01
  0.1504762E+01  0.1003009E+06 -0.1000574E+01  0.1085176E+06 -0.2626771E+01  0.1751054E+06  0.1801631E+01
  0.1535714E+01  0.9487870E+05 -0.9717325E+00  0.1065594E+06 -0.2625773E+01  0.1731452E+06  0.1804751E+01
  0.1566667E+01  0.8874275E+05 -0.9442801E+00  0.1044768E+06 -0.2626118E+01  0.1706553E+06  0.1805460E+01
  0.1597619E+01  0.8189675E+05 -0.9180061E+00  0.1022883E+06 -0.2627892E+01  0.1676032E+06  0.1803659E+01
  0.1628572E+01  0.7437738E+05 -0.8944345E+00  0.9970568E+05 -0.2629813E+01  0.1631768E+06  0.1797152E+01
  0.1659524E+01  0.6630695E+05 -0.8746455E+00  0.9688145E+05 -0.2632708E+01  0.1577563E+06  0.1785358E+01
  0.1690476E+01  0.5786150E+05 -0.8590180E+00  0.9405673E+05 -0.2636712E+01  0.1524994E+06  0.1770432E+01
  0.1721429E+01  0.4893507E+05 -0.8488678E+00  0.9119228E+05 -0.2641837E+01  0.1467872E+06  0.1750658E+01
  0.1752381E+01  0.3955469E+05 -0.8470424E+00  0.8832780E+05 -0.2648338E+01  0.1405485E+06  0.1724520E+01
  0.1783333E+01  0.2986543E+05 -0.8614886E+00  0.8550863E+05 -0.2656162E+01  0.1340628E+06  0.1691492E+01
  0.1814286E+01  0.2004073E+05 -0.9144763E+00  0.8270689E+05 -0.2663802E+01  0.1277492E+06  0.1652683E+01
  0.1845238E+01  0.1031329E+05 -0.1113685E+01  0.7992047E+05 -0.2671851E+01  0.1214931E+06  0.1606173E+01
  0.1876190E+01  0.4599806E+04 -0.2467416E+01  0.7700128E+05 -0.2680142E+01  0.1149162E+06  0.1546796E+01
  0.1907143E+01  0.1257304E+05  0.2877467E+01  0.7403654E+05 -0.2688306E+01  0.1083901E+06  0.1473356E+01
  0.1938095E+01  0.2285091E+05  0.2728551E+01  0.7108188E+05 -0.2695461E+01  0.1026601E+06  0.1389697E+01
  0.1969048E+01  0.3338589E+05  0.2684265E+01  0.6810525E+05 -0.2701256E+01  0.9789673E+05  0.1294987E+01
  0.2000000E+01  0.4403819E+05  0.2668485E+01  0.6510821E+05 -0.2706296E+01  0.9416647E+05  0.1187678E+01
