VARIABLES="w (rad/s)"
"abs(F   1   1)" "angle(F   1   1)"
"abs(F   1   2)" "angle(F   1   2)"
"abs(F   1   3)" "angle(F   1   3)"
Zone t="Diffraction force - beta =   0.000 deg",I=    64,F=POINT
  0.5000000E-01  0.1134839E+04 -0.1570795E+01  0.3641019E+03 -0.3081450E+01  0.1560134E+03 -0.1570791E+01
  0.8095238E-01  0.1856955E+04 -0.1570792E+01  0.9414927E+03 -0.3079143E+01  0.2515254E+03 -0.1570782E+01
  0.1119048E+00  0.2590668E+04 -0.1570787E+01  0.1786862E+04 -0.3076437E+01  0.3503029E+03 -0.1570767E+01
  0.1428571E+00  0.3352078E+04 -0.1570779E+01  0.2900553E+04 -0.3073035E+01  0.4669748E+03 -0.1570746E+01
  0.1738095E+00  0.4133938E+04 -0.1570769E+01  0.4293481E+04 -0.3068866E+01  0.5730490E+03 -0.1570712E+01
  0.2047619E+00  0.4964377E+04 -0.1570753E+01  0.5968442E+04 -0.3063628E+01  0.7112128E+03 -0.1570668E+01
  0.2357143E+00  0.5835906E+04 -0.1570730E+01  0.7936917E+04 -0.3057052E+01  0.8360321E+03 -0.1570600E+01
  0.2666667E+00  0.6762373E+04 -0.1570697E+01  0.1021437E+05 -0.3049128E+01  0.9797337E+03 -0.1570501E+01
  0.2976190E+00  0.7784238E+04 -0.1570648E+01  0.1280227E+05 -0.3039136E+01  0.1180136E+04 -0.1570369E+01
  0.3285715E+00  0.8874710E+04 -0.1570574E+01  0.1571745E+05 -0.3027225E+01  0.1350877E+04 -0.1570155E+01
  0.3595238E+00  0.1006190E+05 -0.1570465E+01  0.1896501E+05 -0.3012837E+01  0.1546735E+04 -0.1569838E+01
  0.3904762E+00  0.1138155E+05 -0.1570301E+01  0.2255049E+05 -0.2995814E+01  0.1816174E+04 -0.1569398E+01
  0.4214286E+00  0.1284987E+05 -0.1570062E+01  0.2640692E+05 -0.2976663E+01  0.2132240E+04 -0.1568779E+01
  0.4523810E+00  0.1441825E+05 -0.1569712E+01  0.3060252E+05 -0.2954770E+01  0.2421401E+04 -0.1567819E+01
  0.4833333E+00  0.1612725E+05 -0.1569228E+01  0.3502914E+05 -0.2932575E+01  0.2799094E+04 -0.1566568E+01
  0.5142857E+00  0.1798083E+05 -0.1568557E+01  0.3964799E+05 -0.2908295E+01  0.3231803E+04 -0.1564886E+01
  0.5452381E+00  0.1995432E+05 -0.1567667E+01  0.4448009E+05 -0.2884191E+01  0.3687539E+04 -0.1562654E+01
  0.5761905E+00  0.2200019E+05 -0.1566510E+01  0.4951325E+05 -0.2860735E+01  0.4146558E+04 -0.1559716E+01
  0.6071429E+00  0.2411837E+05 -0.1565021E+01  0.5468716E+05 -0.2836615E+01  0.4665996E+04 -0.1556038E+01
  0.6380953E+00  0.2634721E+05 -0.1563180E+01  0.6001132E+05 -0.2813818E+01  0.5298684E+04 -0.1551766E+01
  0.6690477E+00  0.2864467E+05 -0.1560910E+01  0.6542528E+05 -0.2791103E+01  0.5948758E+04 -0.1546494E+01
  0.7000000E+00  0.3095346E+05 -0.1558125E+01  0.7095107E+05 -0.2768470E+01  0.6579904E+04 -0.1539903E+01
  0.7309524E+00  0.3327758E+05 -0.1554783E+01  0.7662516E+05 -0.2747072E+01  0.7248259E+04 -0.1532088E+01
  0.7619048E+00  0.3563399E+05 -0.1550816E+01  0.8235760E+05 -0.2726034E+01  0.8003271E+04 -0.1523166E+01
  0.7928572E+00  0.3800268E+05 -0.1546154E+01  0.8809084E+05 -0.2705004E+01  0.8810718E+04 -0.1512905E+01
  0.8238096E+00  0.4040000E+05 -0.1540748E+01  0.9383016E+05 -0.2684294E+01  0.9665202E+04 -0.1501194E+01
  0.8547620E+00  0.4275844E+05 -0.1534512E+01  0.9960233E+05 -0.2664339E+01  0.1053632E+05 -0.1487743E+01
  0.8857143E+00  0.4505035E+05 -0.1527372E+01  0.1053825E+06 -0.2645163E+01  0.1135482E+05 -0.1471923E+01
  0.9166667E+00  0.4724009E+05 -0.1519261E+01  0.1111514E+06 -0.2626698E+01  0.1216931E+05 -0.1453942E+01
  0.9476191E+00  0.4935543E+05 -0.1510191E+01  0.1168542E+06 -0.2608648E+01  0.1301472E+05 -0.1434119E+01
  0.9785714E+00  0.5137200E+05 -0.1500134E+01  0.1224753E+06 -0.2591044E+01  0.1391706E+05 -0.1412764E+01
  0.1009524E+01  0.5327779E+05 -0.1489100E+01  0.1279900E+06 -0.2573814E+01  0.1481902E+05 -0.1389446E+01
  0.1040476E+01  0.5501243E+05 -0.1477037E+01  0.1333845E+06 -0.2557026E+01  0.1562017E+05 -0.1363055E+01
  0.1071429E+01  0.5653038E+05 -0.1463924E+01  0.1386635E+06 -0.2540923E+01  0.1635993E+05 -0.1333888E+01
  0.1102381E+01  0.5781993E+05 -0.1449808E+01  0.1438347E+06 -0.2525758E+01  0.1697644E+05 -0.1301104E+01
  0.1133333E+01  0.5881882E+05 -0.1434684E+01  0.1488683E+06 -0.2511358E+01  0.1749004E+05 -0.1264901E+01
  0.1164286E+01  0.5951555E+05 -0.1418691E+01  0.1537594E+06 -0.2497725E+01  0.1789037E+05 -0.1225274E+01
  0.1195238E+01  0.5988305E+05 -0.1401922E+01  0.1584729E+06 -0.2484564E+01  0.1811104E+05 -0.1181016E+01
  0.1226190E+01  0.5987902E+05 -0.1384469E+01  0.1629976E+06 -0.2471879E+01  0.1821329E+05 -0.1133008E+01
  0.1257143E+01  0.5951828E+05 -0.1366373E+01  0.1673841E+06 -0.2459547E+01  0.1810304E+05 -0.1078428E+01
  0.1288095E+01  0.5875736E+05 -0.1348358E+01  0.1714361E+06 -0.2448062E+01  0.1781804E+05 -0.1018766E+01
  0.1319048E+01  0.5757888E+05 -0.1330045E+01  0.1753237E+06 -0.2437058E+01  0.1730978E+05 -0.9499205E+00
  0.1350000E+01  0.5596474E+05 -0.1311913E+01  0.1789795E+06 -0.2426646E+01  0.1658505E+05 -0.8702027E+00
  0.1380952E+01  0.5391549E+05 -0.1294235E+01  0.1823989E+06 -0.2416969E+01  0.1563009E+05 -0.7744794E+00
  0.1411905E+01  0.5109351E+05 -0.1278363E+01  0.1835911E+06 -0.2403732E+01  0.1423474E+05 -0.6462668E+00
  0.1442857E+01  0.4823415E+05 -0.1262351E+01  0.1864790E+06 -0.2394818E+01  0.1308982E+05 -0.4997520E+00
  0.1473810E+01  0.4493626E+05 -0.1247979E+01  0.1891040E+06 -0.2386342E+01  0.1195078E+05 -0.3116979E+00
  0.1504762E+01  0.4121153E+05 -0.1235911E+01  0.1914568E+06 -0.2378361E+01  0.1101440E+05 -0.6741823E-01
  0.1535714E+01  0.3708976E+05 -0.1227420E+01  0.1935291E+06 -0.2370964E+01  0.1059188E+05  0.2353067E+00
  0.1566667E+01  0.3259419E+05 -0.1224306E+01  0.1953229E+06 -0.2363947E+01  0.1102000E+05  0.5690747E+00
  0.1597619E+01  0.2776131E+05 -0.1229555E+01  0.1968384E+06 -0.2357372E+01  0.1249928E+05  0.8848672E+00
  0.1628572E+01  0.2261525E+05 -0.1249220E+01  0.1980571E+06 -0.2351099E+01  0.1494076E+05  0.1143202E+01
  0.1659524E+01  0.1724811E+05 -0.1297944E+01  0.1989718E+06 -0.2345464E+01  0.1818237E+05  0.1343401E+01
  0.1690476E+01  0.1178514E+05 -0.1417399E+01  0.1995698E+06 -0.2340392E+01  0.2203644E+05  0.1496851E+01
  0.1721429E+01  0.6732642E+04 -0.1775352E+01  0.1998423E+06 -0.2335789E+01  0.2641232E+05  0.1616713E+01
  0.1752381E+01  0.5062125E+04 -0.2843386E+01  0.1997805E+06 -0.2331857E+01  0.3122536E+05  0.1712738E+01
  0.1783333E+01  0.9331872E+04  0.2741078E+01  0.1993986E+06 -0.2328364E+01  0.3637330E+05  0.1791967E+01
  0.1814286E+01  0.1534161E+05  0.2534646E+01  0.1987043E+06 -0.2325343E+01  0.4181303E+05  0.1858880E+01
  0.1845238E+01  0.2177494E+05  0.2454214E+01  0.1977196E+06 -0.2322683E+01  0.4751864E+05  0.1916608E+01
  0.1876190E+01  0.2838814E+05  0.2416642E+01  0.1964192E+06 -0.2320255E+01  0.5343838E+05  0.1967249E+01
  0.1907143E+01  0.3508697E+05  0.2398004E+01  0.1947825E+06 -0.2318442E+01  0.5954932E+05  0.2012156E+01
  0.1938095E+01  0.4182499E+05  0.2389031E+01  0.1928046E+06 -0.2317206E+01  0.6579648E+05  0.2052481E+01
  0.1969048E+01  0.4855298E+05  0.2385348E+01  0.1904945E+06 -0.2316458E+01  0.7218784E+05  0.2088731E+01
  0.2000000E+01  0.5523177E+05  0.2384769E+01  0.1878392E+06 -0.2316215E+01  0.7868184E+05  0.2121621E+01
