VARIABLES="w (rad/s)"
"abs(F   1   1)" "angle(F   1   1)"
"abs(F   1   2)" "angle(F   1   2)"
"abs(F   1   3)" "angle(F   1   3)"
Zone t="Diffraction force - beta =   0.000 deg",I=    64,F=POINT
  0.5000000E-01  0.3053625E+04 -0.1570784E+01  0.5690322E+06 -0.3846004E-04  0.1285356E+04 -0.1570764E+01
  0.8095238E-01  0.4983187E+04 -0.1570789E+01  0.5679636E+06 -0.1034542E-03  0.2094238E+04 -0.1570761E+01
  0.1119048E+00  0.6952942E+04 -0.1570786E+01  0.5663953E+06 -0.2054082E-03  0.2927137E+04 -0.1570768E+01
  0.1428571E+00  0.8991403E+04 -0.1570790E+01  0.5643274E+06 -0.3521004E-03  0.3807669E+04 -0.1570777E+01
  0.1738095E+00  0.1110523E+05 -0.1570782E+01  0.5617498E+06 -0.5553635E-03  0.4717397E+04 -0.1570773E+01
  0.2047619E+00  0.1333841E+05 -0.1570781E+01  0.5586605E+06 -0.8320904E-03  0.5710466E+04 -0.1570772E+01
  0.2357143E+00  0.1570177E+05 -0.1570773E+01  0.5550496E+06 -0.1207454E-02  0.6754706E+04 -0.1570767E+01
  0.2666667E+00  0.1823026E+05 -0.1570760E+01  0.5509037E+06 -0.1711953E-02  0.7897704E+04 -0.1570752E+01
  0.2976190E+00  0.2098851E+05 -0.1570743E+01  0.5462264E+06 -0.2397146E-02  0.9195013E+04 -0.1570737E+01
  0.3285715E+00  0.2397649E+05 -0.1570713E+01  0.5410051E+06 -0.3315421E-02  0.1058024E+05 -0.1570708E+01
  0.3595238E+00  0.2725061E+05 -0.1570672E+01  0.5352432E+06 -0.4549561E-02  0.1212985E+05 -0.1570669E+01
  0.3904762E+00  0.3087395E+05 -0.1570610E+01  0.5289470E+06 -0.6192997E-02  0.1391427E+05 -0.1570610E+01
  0.4214286E+00  0.3488554E+05 -0.1570526E+01  0.5221956E+06 -0.8302647E-02  0.1592658E+05 -0.1570523E+01
  0.4523810E+00  0.3925095E+05 -0.1570398E+01  0.5149427E+06 -0.1103843E-01  0.1810873E+05 -0.1570395E+01
  0.4833333E+00  0.4401362E+05 -0.1570223E+01  0.5073017E+06 -0.1432830E-01  0.2058521E+05 -0.1570218E+01
  0.5142857E+00  0.4916909E+05 -0.1569978E+01  0.4993433E+06 -0.1835737E-01  0.2332476E+05 -0.1569976E+01
  0.5452381E+00  0.5467578E+05 -0.1569655E+01  0.4910494E+06 -0.2306136E-01  0.2629238E+05 -0.1569651E+01
  0.5761905E+00  0.6046558E+05 -0.1569237E+01  0.4824419E+06 -0.2845090E-01  0.2946280E+05 -0.1569235E+01
  0.6071429E+00  0.6651760E+05 -0.1568703E+01  0.4736151E+06 -0.3467866E-01  0.3288726E+05 -0.1568700E+01
  0.6380953E+00  0.7285195E+05 -0.1568042E+01  0.4645432E+06 -0.4160088E-01  0.3661404E+05 -0.1568040E+01
  0.6690477E+00  0.7941067E+05 -0.1567231E+01  0.4553199E+06 -0.4935733E-01  0.4054389E+05 -0.1567229E+01
  0.7000000E+00  0.8612316E+05 -0.1566242E+01  0.4459438E+06 -0.5802973E-01  0.4463858E+05 -0.1566241E+01
  0.7309524E+00  0.9298163E+05 -0.1565065E+01  0.4363640E+06 -0.6754562E-01  0.4895293E+05 -0.1565065E+01
  0.7619048E+00  0.9999198E+05 -0.1563676E+01  0.4267004E+06 -0.7799759E-01  0.5353518E+05 -0.1563677E+01
  0.7928572E+00  0.1071237E+06 -0.1562055E+01  0.4170349E+06 -0.8943845E-01  0.5834974E+05 -0.1562058E+01
  0.8238096E+00  0.1143826E+06 -0.1560185E+01  0.4073674E+06 -0.1018742E+00  0.6338941E+05 -0.1560191E+01
  0.8547620E+00  0.1216901E+06 -0.1558049E+01  0.3976664E+06 -0.1153052E+00  0.6862075E+05 -0.1558057E+01
  0.8857143E+00  0.1290074E+06 -0.1555637E+01  0.3879603E+06 -0.1297392E+00  0.7397062E+05 -0.1555642E+01
  0.9166667E+00  0.1362872E+06 -0.1552940E+01  0.3782766E+06 -0.1452074E+00  0.7948271E+05 -0.1552944E+01
  0.9476191E+00  0.1435450E+06 -0.1549969E+01  0.3686880E+06 -0.1617356E+00  0.8518583E+05 -0.1549977E+01
  0.9785714E+00  0.1507442E+06 -0.1546734E+01  0.3592135E+06 -0.1793313E+00  0.9109925E+05 -0.1546752E+01
  0.1009524E+01  0.1578594E+06 -0.1543251E+01  0.3498855E+06 -0.1980071E+00  0.9715656E+05 -0.1543283E+01
  0.1040476E+01  0.1648168E+06 -0.1539542E+01  0.3407164E+06 -0.2177517E+00  0.1032455E+06 -0.1539587E+01
  0.1071429E+01  0.1715572E+06 -0.1535641E+01  0.3316833E+06 -0.2385411E+00  0.1093935E+06 -0.1535689E+01
  0.1102381E+01  0.1780546E+06 -0.1531593E+01  0.3227555E+06 -0.2603545E+00  0.1155236E+06 -0.1531633E+01
  0.1133333E+01  0.1842326E+06 -0.1527462E+01  0.3139668E+06 -0.2832050E+00  0.1216405E+06 -0.1527482E+01
  0.1164286E+01  0.1900662E+06 -0.1523333E+01  0.3053179E+06 -0.3071153E+00  0.1277180E+06 -0.1523336E+01
  0.1195238E+01  0.1955152E+06 -0.1519296E+01  0.2968652E+06 -0.3321117E+00  0.1336690E+06 -0.1519288E+01
  0.1226190E+01  0.2005244E+06 -0.1515450E+01  0.2886134E+06 -0.3581923E+00  0.1395387E+06 -0.1515433E+01
  0.1257143E+01  0.2050963E+06 -0.1511851E+01  0.2805567E+06 -0.3855786E+00  0.1452033E+06 -0.1511827E+01
  0.1288095E+01  0.2091824E+06 -0.1508790E+01  0.2727161E+06 -0.4135390E+00  0.1506924E+06 -0.1508749E+01
  0.1319048E+01  0.2127515E+06 -0.1506222E+01  0.2650564E+06 -0.4427352E+00  0.1559164E+06 -0.1506166E+01
  0.1350000E+01  0.2157818E+06 -0.1504352E+01  0.2575888E+06 -0.4729481E+00  0.1608580E+06 -0.1504279E+01
  0.1380952E+01  0.2182688E+06 -0.1503298E+01  0.2502844E+06 -0.5041527E+00  0.1654570E+06 -0.1503222E+01
  0.1411905E+01  0.2198927E+06 -0.1503762E+01  0.2444851E+06 -0.5295620E+00  0.1694219E+06 -0.1503670E+01
  0.1442857E+01  0.2213429E+06 -0.1504593E+01  0.2375713E+06 -0.5623662E+00  0.1734153E+06 -0.1504496E+01
  0.1473810E+01  0.2222419E+06 -0.1506608E+01  0.2308615E+06 -0.5961795E+00  0.1770394E+06 -0.1506501E+01
  0.1504762E+01  0.2226024E+06 -0.1509912E+01  0.2243424E+06 -0.6309733E+00  0.1802648E+06 -0.1509796E+01
  0.1535714E+01  0.2224585E+06 -0.1514635E+01  0.2179924E+06 -0.6667241E+00  0.1830960E+06 -0.1514512E+01
  0.1566667E+01  0.2218357E+06 -0.1520878E+01  0.2118450E+06 -0.7034914E+00  0.1855438E+06 -0.1520743E+01
  0.1597619E+01  0.2207678E+06 -0.1528701E+01  0.2058850E+06 -0.7412899E+00  0.1875805E+06 -0.1528578E+01
  0.1628572E+01  0.2192714E+06 -0.1538192E+01  0.2001371E+06 -0.7800493E+00  0.1892652E+06 -0.1538055E+01
  0.1659524E+01  0.2174109E+06 -0.1549415E+01  0.1945295E+06 -0.8197477E+00  0.1905750E+06 -0.1549285E+01
  0.1690476E+01  0.2152108E+06 -0.1562429E+01  0.1890707E+06 -0.8603537E+00  0.1915488E+06 -0.1562297E+01
  0.1721429E+01  0.2126992E+06 -0.1577226E+01  0.1837730E+06 -0.9018354E+00  0.1921712E+06 -0.1577105E+01
  0.1752381E+01  0.2099210E+06 -0.1593848E+01  0.1785888E+06 -0.9442011E+00  0.1924602E+06 -0.1593750E+01
  0.1783333E+01  0.2069112E+06 -0.1612339E+01  0.1735617E+06 -0.9875157E+00  0.1924765E+06 -0.1612264E+01
  0.1814286E+01  0.2037114E+06 -0.1632695E+01  0.1686838E+06 -0.1031845E+01  0.1922361E+06 -0.1632633E+01
  0.1845238E+01  0.2003606E+06 -0.1654894E+01  0.1639813E+06 -0.1077291E+01  0.1917478E+06 -0.1654896E+01
  0.1876190E+01  0.1968795E+06 -0.1678938E+01  0.1594691E+06 -0.1123641E+01  0.1910480E+06 -0.1679017E+01
  0.1907143E+01  0.1932974E+06 -0.1704802E+01  0.1550652E+06 -0.1170928E+01  0.1901441E+06 -0.1704979E+01
  0.1938095E+01  0.1896339E+06 -0.1732493E+01  0.1507715E+06 -0.1219123E+01  0.1890761E+06 -0.1732717E+01
  0.1969048E+01  0.1859109E+06 -0.1761932E+01  0.1466042E+06 -0.1268232E+01  0.1878170E+06 -0.1762251E+01
  0.2000000E+01  0.1821489E+06 -0.1793071E+01  0.1425494E+06 -0.1318175E+01  0.1863937E+06 -0.1793571E+01
