VARIABLES="w (rad/s)"
"abs(F   1   1)" "angle(F   1   1)"
"abs(F   1   2)" "angle(F   1   2)"
"abs(F   1   3)" "angle(F   1   3)"
Zone t="Diffraction force - beta =   0.000 deg",I=    64,F=POINT
  0.5000000E-01  0.1849222E+04 -0.1570793E+01  0.3286109E+03 -0.3098356E+01  0.3109422E+04  0.1570799E+01
  0.8095238E-01  0.3026538E+04 -0.1570788E+01  0.8515713E+03 -0.3096888E+01  0.5088282E+04  0.1570802E+01
  0.1119048E+00  0.4236005E+04 -0.1570780E+01  0.1617154E+04 -0.3095127E+01  0.7118828E+04  0.1570808E+01
  0.1428571E+00  0.5470137E+04 -0.1570767E+01  0.2623328E+04 -0.3092853E+01  0.9207263E+04  0.1570818E+01
  0.1738095E+00  0.6787328E+04 -0.1570749E+01  0.3866330E+04 -0.3089937E+01  0.1142142E+05  0.1570831E+01
  0.2047619E+00  0.8157951E+04 -0.1570722E+01  0.5357840E+04 -0.3086364E+01  0.1374051E+05  0.1570850E+01
  0.2357143E+00  0.9619470E+04 -0.1570683E+01  0.7097462E+04 -0.3081881E+01  0.1622517E+05  0.1570879E+01
  0.2666667E+00  0.1121087E+05 -0.1570627E+01  0.9066734E+04 -0.3076339E+01  0.1892341E+05  0.1570920E+01
  0.2976190E+00  0.1291420E+05 -0.1570543E+01  0.1130252E+05 -0.3069527E+01  0.2183495E+05  0.1570982E+01
  0.3285715E+00  0.1481089E+05 -0.1570418E+01  0.1374471E+05 -0.3061191E+01  0.2507101E+05  0.1571074E+01
  0.3595238E+00  0.1691608E+05 -0.1570232E+01  0.1644211E+05 -0.3051257E+01  0.2866791E+05  0.1571210E+01
  0.3904762E+00  0.1922579E+05 -0.1569955E+01  0.1933174E+05 -0.3039383E+01  0.3263241E+05  0.1571415E+01
  0.4214286E+00  0.2175006E+05 -0.1569549E+01  0.2239897E+05 -0.3026203E+01  0.3703075E+05  0.1571713E+01
  0.4523810E+00  0.2466127E+05 -0.1568960E+01  0.2564442E+05 -0.3010919E+01  0.4197761E+05  0.1572150E+01
  0.4833333E+00  0.2780995E+05 -0.1568145E+01  0.2894328E+05 -0.2995451E+01  0.4739308E+05  0.1572754E+01
  0.5142857E+00  0.3117842E+05 -0.1567013E+01  0.3242836E+05 -0.2979246E+01  0.5326074E+05  0.1573593E+01
  0.5452381E+00  0.3481651E+05 -0.1565511E+01  0.3581300E+05 -0.2962313E+01  0.5962225E+05  0.1574707E+01
  0.5761905E+00  0.3883084E+05 -0.1563584E+01  0.3930652E+05 -0.2946372E+01  0.6655388E+05  0.1576146E+01
  0.6071429E+00  0.4308629E+05 -0.1561108E+01  0.4279017E+05 -0.2929928E+01  0.7384433E+05  0.1578005E+01
  0.6380953E+00  0.4746197E+05 -0.1558023E+01  0.4618745E+05 -0.2914322E+01  0.8147555E+05  0.1580320E+01
  0.6690477E+00  0.5198329E+05 -0.1554202E+01  0.4964620E+05 -0.2899522E+01  0.8951993E+05  0.1583184E+01
  0.7000000E+00  0.5683813E+05 -0.1549575E+01  0.5299230E+05 -0.2884497E+01  0.9791688E+05  0.1586681E+01
  0.7309524E+00  0.6201727E+05 -0.1544078E+01  0.5617162E+05 -0.2869670E+01  0.1068537E+06  0.1590859E+01
  0.7619048E+00  0.6730153E+05 -0.1537515E+01  0.5933466E+05 -0.2855732E+01  0.1160870E+06  0.1595857E+01
  0.7928572E+00  0.7267912E+05 -0.1529757E+01  0.6249439E+05 -0.2842994E+01  0.1254989E+06  0.1601787E+01
  0.8238096E+00  0.7821388E+05 -0.1520718E+01  0.6522889E+05 -0.2828791E+01  0.1352078E+06  0.1608719E+01
  0.8547620E+00  0.8373654E+05 -0.1510242E+01  0.6788471E+05 -0.2815502E+01  0.1449235E+06  0.1616762E+01
  0.8857143E+00  0.8961773E+05 -0.1498466E+01  0.7045711E+05 -0.2803135E+01  0.1553079E+06  0.1625813E+01
  0.9166667E+00  0.9560241E+05 -0.1485153E+01  0.7297305E+05 -0.2792304E+01  0.1656189E+06  0.1636141E+01
  0.9476191E+00  0.1016974E+06 -0.1470219E+01  0.7495509E+05 -0.2779736E+01  0.1761780E+06  0.1647779E+01
  0.9785714E+00  0.1075866E+06 -0.1453406E+01  0.7679312E+05 -0.2768039E+01  0.1864795E+06  0.1660904E+01
  0.1009524E+01  0.1133151E+06 -0.1434677E+01  0.7850358E+05 -0.2757260E+01  0.1967156E+06  0.1675518E+01
  0.1040476E+01  0.1188350E+06 -0.1414008E+01  0.8011012E+05 -0.2747746E+01  0.2066945E+06  0.1691630E+01
  0.1071429E+01  0.1241492E+06 -0.1391502E+01  0.8137055E+05 -0.2738116E+01  0.2161578E+06  0.1709205E+01
  0.1102381E+01  0.1293167E+06 -0.1367512E+01  0.8222895E+05 -0.2727751E+01  0.2254073E+06  0.1727877E+01
  0.1133333E+01  0.1340959E+06 -0.1341990E+01  0.8288821E+05 -0.2718254E+01  0.2336837E+06  0.1747734E+01
  0.1164286E+01  0.1383809E+06 -0.1314564E+01  0.8341256E+05 -0.2709647E+01  0.2415700E+06  0.1769054E+01
  0.1195238E+01  0.1420521E+06 -0.1285421E+01  0.8380088E+05 -0.2702241E+01  0.2485527E+06  0.1791553E+01
  0.1226190E+01  0.1449983E+06 -0.1254705E+01  0.8395558E+05 -0.2695701E+01  0.2541834E+06  0.1815179E+01
  0.1257143E+01  0.1472249E+06 -0.1222732E+01  0.8356649E+05 -0.2687514E+01  0.2586217E+06  0.1839513E+01
  0.1288095E+01  0.1487768E+06 -0.1190583E+01  0.8301567E+05 -0.2680609E+01  0.2619598E+06  0.1863583E+01
  0.1319048E+01  0.1492310E+06 -0.1157166E+01  0.8229514E+05 -0.2674275E+01  0.2633111E+06  0.1888329E+01
  0.1350000E+01  0.1488521E+06 -0.1123024E+01  0.8146953E+05 -0.2668683E+01  0.2638226E+06  0.1913165E+01
  0.1380952E+01  0.1474335E+06 -0.1088495E+01  0.8051061E+05 -0.2664381E+01  0.2625512E+06  0.1937652E+01
  0.1411905E+01  0.1447595E+06 -0.1053174E+01  0.7937225E+05 -0.2660964E+01  0.2592489E+06  0.1961735E+01
  0.1442857E+01  0.1414933E+06 -0.1019588E+01  0.7769878E+05 -0.2656906E+01  0.2545486E+06  0.1983738E+01
  0.1473810E+01  0.1371803E+06 -0.9859747E+00  0.7595752E+05 -0.2653689E+01  0.2485723E+06  0.2004732E+01
  0.1504762E+01  0.1318205E+06 -0.9527285E+00  0.7410548E+05 -0.2651556E+01  0.2407518E+06  0.2024151E+01
  0.1535714E+01  0.1255686E+06 -0.9202042E+00  0.7215813E+05 -0.2650155E+01  0.2315613E+06  0.2041441E+01
  0.1566667E+01  0.1186321E+06 -0.8890929E+00  0.7015596E+05 -0.2649874E+01  0.2216612E+06  0.2055814E+01
  0.1597619E+01  0.1108515E+06 -0.8591179E+00  0.6810741E+05 -0.2651121E+01  0.2102976E+06  0.2067034E+01
  0.1628572E+01  0.1023920E+06 -0.8303235E+00  0.6601548E+05 -0.2653652E+01  0.1978558E+06  0.2074771E+01
  0.1659524E+01  0.9341513E+05 -0.8034506E+00  0.6356796E+05 -0.2656908E+01  0.1843718E+06  0.2077613E+01
  0.1690476E+01  0.8397157E+05 -0.7782698E+00  0.6113896E+05 -0.2661176E+01  0.1705271E+06  0.2075296E+01
  0.1721429E+01  0.7403958E+05 -0.7546901E+00  0.5875068E+05 -0.2666687E+01  0.1560615E+06  0.2066604E+01
  0.1752381E+01  0.6361781E+05 -0.7324114E+00  0.5639416E+05 -0.2673064E+01  0.1408836E+06  0.2049808E+01
  0.1783333E+01  0.5299530E+05 -0.7125512E+00  0.5406211E+05 -0.2680034E+01  0.1259059E+06  0.2022961E+01
  0.1814286E+01  0.4221820E+05 -0.6958114E+00  0.5179546E+05 -0.2687882E+01  0.1112098E+06  0.1982592E+01
  0.1845238E+01  0.3118789E+05 -0.6831030E+00  0.4960450E+05 -0.2696022E+01  0.9657514E+05  0.1922320E+01
  0.1876190E+01  0.2004209E+05 -0.6788168E+00  0.4746058E+05 -0.2703645E+01  0.8260978E+05  0.1834772E+01
  0.1907143E+01  0.8883863E+04 -0.7162775E+00  0.4521916E+05 -0.2711808E+01  0.6960945E+05  0.1703886E+01
  0.1938095E+01  0.2521011E+04  0.2905151E+01  0.4300955E+05 -0.2719118E+01  0.5871896E+05  0.1513919E+01
  0.1969048E+01  0.1357431E+05  0.2623287E+01  0.4084808E+05 -0.2725328E+01  0.5121597E+05  0.1253626E+01
  0.2000000E+01  0.2473791E+05  0.2608460E+01  0.3869795E+05 -0.2730708E+01  0.4849828E+05  0.9348248E+00
