VARIABLES="w (rad/s)"
"abs(F   1   1)" "angle(F   1   1)"
"abs(F   1   2)" "angle(F   1   2)"
"abs(F   1   3)" "angle(F   1   3)"
Zone t="Diffraction force - beta =   0.000 deg",I=    64,F=POINT
  0.5000000E-01  0.4745622E+04 -0.1570791E+01  0.3595953E+06 -0.2502382E-04  0.8296817E+04  0.1570807E+01
  0.8095238E-01  0.7763814E+04 -0.1570790E+01  0.3589190E+06 -0.6731786E-04  0.1356464E+05  0.1570802E+01
  0.1119048E+00  0.1083421E+05 -0.1570785E+01  0.3579250E+06 -0.1336657E-03  0.1892018E+05  0.1570801E+01
  0.1428571E+00  0.1401581E+05 -0.1570783E+01  0.3566138E+06 -0.2291704E-03  0.2443428E+05  0.1570806E+01
  0.1738095E+00  0.1731579E+05 -0.1570780E+01  0.3549823E+06 -0.3615127E-03  0.3016097E+05  0.1570818E+01
  0.2047619E+00  0.2080489E+05 -0.1570767E+01  0.3530292E+06 -0.5418043E-03  0.3616348E+05  0.1570823E+01
  0.2357143E+00  0.2448880E+05 -0.1570756E+01  0.3507521E+06 -0.7865129E-03  0.4251817E+05  0.1570836E+01
  0.2666667E+00  0.2845988E+05 -0.1570736E+01  0.3481467E+06 -0.1115493E-02  0.4930011E+05  0.1570858E+01
  0.2976190E+00  0.3275485E+05 -0.1570704E+01  0.3452159E+06 -0.1562862E-02  0.5660507E+05  0.1570887E+01
  0.3285715E+00  0.3743345E+05 -0.1570660E+01  0.3419531E+06 -0.2162777E-02  0.6455996E+05  0.1570932E+01
  0.3595238E+00  0.4257015E+05 -0.1570594E+01  0.3383695E+06 -0.2970417E-02  0.7323620E+05  0.1570993E+01
  0.3904762E+00  0.4826813E+05 -0.1570496E+01  0.3344639E+06 -0.4046746E-02  0.8273045E+05  0.1571096E+01
  0.4214286E+00  0.5454874E+05 -0.1570349E+01  0.3302720E+06 -0.5431520E-02  0.9320465E+05  0.1571244E+01
  0.4523810E+00  0.6142072E+05 -0.1570136E+01  0.3257862E+06 -0.7231918E-02  0.1046210E+06  0.1571458E+01
  0.4833333E+00  0.6894220E+05 -0.1569837E+01  0.3210579E+06 -0.9401475E-02  0.1170047E+06  0.1571756E+01
  0.5142857E+00  0.7712913E+05 -0.1569422E+01  0.3161025E+06 -0.1206573E-01  0.1303133E+06  0.1572170E+01
  0.5452381E+00  0.8588748E+05 -0.1568869E+01  0.3109258E+06 -0.1518592E-01  0.1445106E+06  0.1572724E+01
  0.5761905E+00  0.9508006E+05 -0.1568149E+01  0.3055626E+06 -0.1877482E-01  0.1593796E+06  0.1573444E+01
  0.6071429E+00  0.1048167E+06 -0.1567214E+01  0.3000314E+06 -0.2293858E-01  0.1748724E+06  0.1574377E+01
  0.6380953E+00  0.1150738E+06 -0.1566048E+01  0.2943251E+06 -0.2758424E-01  0.1909302E+06  0.1575545E+01
  0.6690477E+00  0.1257062E+06 -0.1564593E+01  0.2884842E+06 -0.3281199E-01  0.2075085E+06  0.1576998E+01
  0.7000000E+00  0.1366516E+06 -0.1562800E+01  0.2825232E+06 -0.3868876E-01  0.2244253E+06  0.1578791E+01
  0.7309524E+00  0.1480026E+06 -0.1560628E+01  0.2764311E+06 -0.4517662E-01  0.2417920E+06  0.1580963E+01
  0.7619048E+00  0.1596592E+06 -0.1558017E+01  0.2702614E+06 -0.5234545E-01  0.2593305E+06  0.1583573E+01
  0.7928572E+00  0.1717223E+06 -0.1554907E+01  0.2640323E+06 -0.6023226E-01  0.2770948E+06  0.1586681E+01
  0.8238096E+00  0.1841573E+06 -0.1551234E+01  0.2577394E+06 -0.6885580E-01  0.2951165E+06  0.1590353E+01
  0.8547620E+00  0.1967489E+06 -0.1546938E+01  0.2514066E+06 -0.7823956E-01  0.3132645E+06  0.1594647E+01
  0.8857143E+00  0.2095427E+06 -0.1541947E+01  0.2450436E+06 -0.8841146E-01  0.3314965E+06  0.1599634E+01
  0.9166667E+00  0.2225220E+06 -0.1536207E+01  0.2386681E+06 -0.9940953E-01  0.3496168E+06  0.1605370E+01
  0.9476191E+00  0.2357672E+06 -0.1529661E+01  0.2323003E+06 -0.1112634E+00  0.3676464E+06  0.1611909E+01
  0.9785714E+00  0.2491741E+06 -0.1522241E+01  0.2259686E+06 -0.1239936E+00  0.3855509E+06  0.1619322E+01
  0.1009524E+01  0.2625862E+06 -0.1513898E+01  0.2196807E+06 -0.1376266E+00  0.4029384E+06  0.1627656E+01
  0.1040476E+01  0.2761087E+06 -0.1504573E+01  0.2134266E+06 -0.1521806E+00  0.4202103E+06  0.1636971E+01
  0.1071429E+01  0.2894530E+06 -0.1494238E+01  0.2072228E+06 -0.1676988E+00  0.4368003E+06  0.1647289E+01
  0.1102381E+01  0.3026792E+06 -0.1482873E+01  0.2010650E+06 -0.1842175E+00  0.4528481E+06  0.1658631E+01
  0.1133333E+01  0.3155567E+06 -0.1470466E+01  0.1949882E+06 -0.2017819E+00  0.4680786E+06  0.1671011E+01
  0.1164286E+01  0.3279860E+06 -0.1457058E+01  0.1889846E+06 -0.2204732E+00  0.4821605E+06  0.1684384E+01
  0.1195238E+01  0.3401270E+06 -0.1442697E+01  0.1830731E+06 -0.2403070E+00  0.4953672E+06  0.1698706E+01
  0.1226190E+01  0.3515672E+06 -0.1427447E+01  0.1772670E+06 -0.2613539E+00  0.5069518E+06  0.1713910E+01
  0.1257143E+01  0.3622106E+06 -0.1411413E+01  0.1715732E+06 -0.2837929E+00  0.5169813E+06  0.1729884E+01
  0.1288095E+01  0.3724725E+06 -0.1394641E+01  0.1659630E+06 -0.3072154E+00  0.5260481E+06  0.1746585E+01
  0.1319048E+01  0.3814091E+06 -0.1377321E+01  0.1604970E+06 -0.3322017E+00  0.5330401E+06  0.1763822E+01
  0.1350000E+01  0.3892661E+06 -0.1359614E+01  0.1551392E+06 -0.3586887E+00  0.5382827E+06  0.1781429E+01
  0.1380952E+01  0.3960608E+06 -0.1341730E+01  0.1498858E+06 -0.3867177E+00  0.5418301E+06  0.1799189E+01
  0.1411905E+01  0.3999355E+06 -0.1325584E+01  0.1448535E+06 -0.4163248E+00  0.5419231E+06  0.1815195E+01
  0.1442857E+01  0.4040175E+06 -0.1308298E+01  0.1398871E+06 -0.4479309E+00  0.5412231E+06  0.1832305E+01
  0.1473810E+01  0.4068545E+06 -0.1291623E+01  0.1350758E+06 -0.4815606E+00  0.5386748E+06  0.1848773E+01
  0.1504762E+01  0.4083063E+06 -0.1275726E+01  0.1304591E+06 -0.5173998E+00  0.5342959E+06  0.1864474E+01
  0.1535714E+01  0.4083062E+06 -0.1260984E+01  0.1260867E+06 -0.5552586E+00  0.5276572E+06  0.1878945E+01
  0.1566667E+01  0.4072660E+06 -0.1247421E+01  0.1219026E+06 -0.5955030E+00  0.5198224E+06  0.1892260E+01
  0.1597619E+01  0.4050900E+06 -0.1235357E+01  0.1179420E+06 -0.6381345E+00  0.5104782E+06  0.1904025E+01
  0.1628572E+01  0.4017086E+06 -0.1224983E+01  0.1142461E+06 -0.6832663E+00  0.4996212E+06  0.1914055E+01
  0.1659524E+01  0.3974534E+06 -0.1216420E+01  0.1108095E+06 -0.7310265E+00  0.4878364E+06  0.1922262E+01
  0.1690476E+01  0.3923683E+06 -0.1209858E+01  0.1076657E+06 -0.7813367E+00  0.4751413E+06  0.1928393E+01
  0.1721429E+01  0.3865281E+06 -0.1205209E+01  0.1048903E+06 -0.8340937E+00  0.4618980E+06  0.1932685E+01
  0.1752381E+01  0.3799459E+06 -0.1202830E+01  0.1025063E+06 -0.8887880E+00  0.4477993E+06  0.1934596E+01
  0.1783333E+01  0.3728486E+06 -0.1202627E+01  0.1005283E+06 -0.9450364E+00  0.4333084E+06  0.1934314E+01
  0.1814286E+01  0.3654946E+06 -0.1204498E+01  0.9894436E+05 -0.1002567E+01  0.4189143E+06  0.1932047E+01
  0.1845238E+01  0.3578311E+06 -0.1208657E+01  0.9778295E+05 -0.1060574E+01  0.4043398E+06  0.1927412E+01
  0.1876190E+01  0.3498538E+06 -0.1215104E+01  0.9705467E+05 -0.1118008E+01  0.3896045E+06  0.1920421E+01
  0.1907143E+01  0.3418437E+06 -0.1223679E+01  0.9670384E+05 -0.1174452E+01  0.3751898E+06  0.1911404E+01
  0.1938095E+01  0.3337947E+06 -0.1234469E+01  0.9671922E+05 -0.1228982E+01  0.3609453E+06  0.1900054E+01
  0.1969048E+01  0.3257918E+06 -0.1247184E+01  0.9708370E+05 -0.1280696E+01  0.3471571E+06  0.1886949E+01
  0.2000000E+01  0.3178348E+06 -0.1261859E+01  0.9770142E+05 -0.1328908E+01  0.3337999E+06  0.1872148E+01
