VARIABLES="w (rad/s)"
"abs(F   1   1)" "angle(F   1   1)"
"abs(F   1   2)" "angle(F   1   2)"
"abs(F   1   3)" "angle(F   1   3)"
Zone t="Diffraction force - beta =   0.000 deg",I=    64,F=POINT
  0.5000000E-01  0.6775221E+03 -0.1570795E+01  0.5567141E+03 -0.3084378E+01  0.1496411E+04 -0.1570794E+01
  0.8095238E-01  0.1105320E+04 -0.1570792E+01  0.1440894E+04 -0.3082238E+01  0.2434349E+04 -0.1570791E+01
  0.1119048E+00  0.1539436E+04 -0.1570788E+01  0.2736094E+04 -0.3079696E+01  0.3384444E+04 -0.1570786E+01
  0.1428571E+00  0.1987950E+04 -0.1570781E+01  0.4441519E+04 -0.3076471E+01  0.4372862E+04 -0.1570778E+01
  0.1738095E+00  0.2450831E+04 -0.1570771E+01  0.6575161E+04 -0.3072515E+01  0.5391076E+04 -0.1570766E+01
  0.2047619E+00  0.2937564E+04 -0.1570757E+01  0.9136824E+04 -0.3067518E+01  0.6468049E+04 -0.1570750E+01
  0.2357143E+00  0.3448490E+04 -0.1570736E+01  0.1215176E+05 -0.3061290E+01  0.7588970E+04 -0.1570725E+01
  0.2666667E+00  0.3993563E+04 -0.1570706E+01  0.1563200E+05 -0.3053732E+01  0.8797829E+04 -0.1570688E+01
  0.2976190E+00  0.4581682E+04 -0.1570660E+01  0.1957677E+05 -0.3044182E+01  0.1010260E+05 -0.1570635E+01
  0.3285715E+00  0.5212816E+04 -0.1570594E+01  0.2403145E+05 -0.3032870E+01  0.1148828E+05 -0.1570555E+01
  0.3595238E+00  0.5899467E+04 -0.1570493E+01  0.2897542E+05 -0.3019152E+01  0.1300916E+05 -0.1570436E+01
  0.3904762E+00  0.6657142E+04 -0.1570344E+01  0.3442600E+05 -0.3002907E+01  0.1470876E+05 -0.1570258E+01
  0.4214286E+00  0.7477490E+04 -0.1570126E+01  0.4028086E+05 -0.2984659E+01  0.1651492E+05 -0.1569997E+01
  0.4523810E+00  0.8363464E+04 -0.1569805E+01  0.4665066E+05 -0.2963853E+01  0.1846755E+05 -0.1569613E+01
  0.4833333E+00  0.9322582E+04 -0.1569363E+01  0.5334898E+05 -0.2942704E+01  0.2061788E+05 -0.1569085E+01
  0.5142857E+00  0.1035223E+05 -0.1568752E+01  0.6035513E+05 -0.2919723E+01  0.2293398E+05 -0.1568355E+01
  0.5452381E+00  0.1142349E+05 -0.1567938E+01  0.6769100E+05 -0.2896993E+01  0.2530304E+05 -0.1567376E+01
  0.5761905E+00  0.1253265E+05 -0.1566885E+01  0.7531909E+05 -0.2874885E+01  0.2777332E+05 -0.1566108E+01
  0.6071429E+00  0.1367128E+05 -0.1565532E+01  0.8313438E+05 -0.2852113E+01  0.3032544E+05 -0.1564480E+01
  0.6380953E+00  0.1482567E+05 -0.1563854E+01  0.9114583E+05 -0.2830560E+01  0.3290694E+05 -0.1562454E+01
  0.6690477E+00  0.1599543E+05 -0.1561790E+01  0.9935245E+05 -0.2809416E+01  0.3551894E+05 -0.1559955E+01
  0.7000000E+00  0.1715408E+05 -0.1559269E+01  0.1077351E+06 -0.2788463E+01  0.3808452E+05 -0.1556885E+01
  0.7309524E+00  0.1828442E+05 -0.1556249E+01  0.1162881E+06 -0.2768537E+01  0.4058526E+05 -0.1553195E+01
  0.7619048E+00  0.1939765E+05 -0.1552679E+01  0.1249071E+06 -0.2748928E+01  0.4307571E+05 -0.1548829E+01
  0.7928572E+00  0.2047563E+05 -0.1548498E+01  0.1335340E+06 -0.2729447E+01  0.4547675E+05 -0.1543693E+01
  0.8238096E+00  0.2150116E+05 -0.1543651E+01  0.1421809E+06 -0.2710394E+01  0.4772623E+05 -0.1537695E+01
  0.8547620E+00  0.2245867E+05 -0.1538091E+01  0.1508970E+06 -0.2692232E+01  0.4979086E+05 -0.1530757E+01
  0.8857143E+00  0.2333388E+05 -0.1531779E+01  0.1596385E+06 -0.2674953E+01  0.5165970E+05 -0.1522828E+01
  0.9166667E+00  0.2410072E+05 -0.1524679E+01  0.1683224E+06 -0.2658226E+01  0.5325186E+05 -0.1513824E+01
  0.9476191E+00  0.2474747E+05 -0.1516782E+01  0.1768822E+06 -0.2641814E+01  0.5454269E+05 -0.1503703E+01
  0.9785714E+00  0.2526549E+05 -0.1508109E+01  0.1853038E+06 -0.2625801E+01  0.5551270E+05 -0.1492453E+01
  0.1009524E+01  0.2562863E+05 -0.1498664E+01  0.1935710E+06 -0.2610228E+01  0.5607861E+05 -0.1479990E+01
  0.1040476E+01  0.2582330E+05 -0.1488500E+01  0.2017070E+06 -0.2595471E+01  0.5620102E+05 -0.1466290E+01
  0.1071429E+01  0.2581606E+05 -0.1477633E+01  0.2096721E+06 -0.2581453E+01  0.5577843E+05 -0.1451218E+01
  0.1102381E+01  0.2558746E+05 -0.1466161E+01  0.2174618E+06 -0.2568286E+01  0.5476786E+05 -0.1434739E+01
  0.1133333E+01  0.2511855E+05 -0.1454229E+01  0.2250224E+06 -0.2555770E+01  0.5310990E+05 -0.1416787E+01
  0.1164286E+01  0.2438601E+05 -0.1442008E+01  0.2323464E+06 -0.2543913E+01  0.5074960E+05 -0.1397247E+01
  0.1195238E+01  0.2338029E+05 -0.1429803E+01  0.2394003E+06 -0.2532655E+01  0.4765247E+05 -0.1376000E+01
  0.1226190E+01  0.2208582E+05 -0.1418017E+01  0.2461574E+06 -0.2521878E+01  0.4377904E+05 -0.1352801E+01
  0.1257143E+01  0.2049597E+05 -0.1407031E+01  0.2526867E+06 -0.2511347E+01  0.3909248E+05 -0.1326764E+01
  0.1288095E+01  0.1859072E+05 -0.1398333E+01  0.2587023E+06 -0.2501642E+01  0.3355045E+05 -0.1297669E+01
  0.1319048E+01  0.1637446E+05 -0.1392922E+01  0.2644718E+06 -0.2492482E+01  0.2714246E+05 -0.1262034E+01
  0.1350000E+01  0.1383620E+05 -0.1393806E+01  0.2698817E+06 -0.2483973E+01  0.1983185E+05 -0.1212207E+01
  0.1380952E+01  0.1098085E+05 -0.1407441E+01  0.2748964E+06 -0.2476301E+01  0.1163742E+05 -0.1115174E+01
  0.1411905E+01  0.8541824E+04 -0.1426786E+01  0.2752553E+06 -0.2462486E+01  0.5153416E+04 -0.8160555E+00
  0.1442857E+01  0.5265209E+04 -0.1529684E+01  0.2794395E+06 -0.2455104E+01  0.5508048E+04  0.1456499E+01
  0.1473810E+01  0.2092505E+04 -0.2081839E+01  0.2832098E+06 -0.2448159E+01  0.1566466E+05  0.1761117E+01
  0.1504762E+01  0.3099763E+04  0.2512007E+01  0.2865492E+06 -0.2441724E+01  0.2692435E+05  0.1844868E+01
  0.1535714E+01  0.7080311E+04  0.2211862E+01  0.2894456E+06 -0.2435752E+01  0.3904221E+05  0.1893009E+01
  0.1566667E+01  0.1150832E+05  0.2141090E+01  0.2919004E+06 -0.2430110E+01  0.5190766E+05  0.1929236E+01
  0.1597619E+01  0.1621408E+05  0.2118218E+01  0.2938771E+06 -0.2425010E+01  0.6549979E+05  0.1959574E+01
  0.1628572E+01  0.2114889E+05  0.2112661E+01  0.2953686E+06 -0.2420365E+01  0.7973114E+05  0.1986661E+01
  0.1659524E+01  0.2628156E+05  0.2115007E+01  0.2963609E+06 -0.2416232E+01  0.9456077E+05  0.2011444E+01
  0.1690476E+01  0.3158639E+05  0.2121334E+01  0.2968449E+06 -0.2412559E+01  0.1099318E+06  0.2034441E+01
  0.1721429E+01  0.3703814E+05  0.2129799E+01  0.2968028E+06 -0.2409430E+01  0.1257792E+06  0.2055967E+01
  0.1752381E+01  0.4261125E+05  0.2139435E+01  0.2962434E+06 -0.2406771E+01  0.1420193E+06  0.2076319E+01
  0.1783333E+01  0.4827218E+05  0.2149775E+01  0.2951673E+06 -0.2404529E+01  0.1585700E+06  0.2095685E+01
  0.1814286E+01  0.5399514E+05  0.2160397E+01  0.2935758E+06 -0.2402685E+01  0.1753523E+06  0.2114142E+01
  0.1845238E+01  0.5975380E+05  0.2170977E+01  0.2914361E+06 -0.2401330E+01  0.1922970E+06  0.2131649E+01
  0.1876190E+01  0.6551762E+05  0.2181477E+01  0.2887688E+06 -0.2400389E+01  0.2092914E+06  0.2148444E+01
  0.1907143E+01  0.7126167E+05  0.2191771E+01  0.2855578E+06 -0.2399938E+01  0.2262671E+06  0.2164551E+01
  0.1938095E+01  0.7695695E+05  0.2201658E+01  0.2817945E+06 -0.2399956E+01  0.2431555E+06  0.2179816E+01
  0.1969048E+01  0.8256989E+05  0.2211364E+01  0.2775431E+06 -0.2400356E+01  0.2598393E+06  0.2194630E+01
  0.2000000E+01  0.8808509E+05  0.2220556E+01  0.2727185E+06 -0.2401318E+01  0.2762599E+06  0.2208721E+01
