VARIABLES="w (rad/s)"
"abs(F   1   1)" "angle(F   1   1)"
"abs(F   1   2)" "angle(F   1   2)"
"abs(F   1   3)" "angle(F   1   3)"
Zone t="Diffraction force - beta =   0.000 deg",I=    64,F=POINT
  0.5000000E-01  0.4186794E+03 -0.1570795E+01  0.1930551E+03 -0.3098318E+01  0.6567532E+03 -0.1570795E+01
  0.8095238E-01  0.6834287E+03 -0.1570794E+01  0.5016799E+03 -0.3096855E+01  0.1066751E+04 -0.1570792E+01
  0.1119048E+00  0.9533107E+03 -0.1570791E+01  0.9539722E+03 -0.3094968E+01  0.1486134E+04 -0.1570788E+01
  0.1428571E+00  0.1230794E+04 -0.1570786E+01  0.1551414E+04 -0.3092566E+01  0.1920199E+04 -0.1570782E+01
  0.1738095E+00  0.1517652E+04 -0.1570780E+01  0.2296662E+04 -0.3089513E+01  0.2365539E+04 -0.1570773E+01
  0.2047619E+00  0.1818277E+04 -0.1570771E+01  0.3193334E+04 -0.3085678E+01  0.2835886E+04 -0.1570759E+01
  0.2357143E+00  0.2135815E+04 -0.1570758E+01  0.4244658E+04 -0.3080811E+01  0.3331355E+04 -0.1570740E+01
  0.2666667E+00  0.2472359E+04 -0.1570738E+01  0.5456477E+04 -0.3074877E+01  0.3852987E+04 -0.1570711E+01
  0.2976190E+00  0.2835551E+04 -0.1570708E+01  0.6832034E+04 -0.3067397E+01  0.4422291E+04 -0.1570669E+01
  0.3285715E+00  0.3229095E+04 -0.1570666E+01  0.8378354E+04 -0.3058421E+01  0.5037627E+04 -0.1570606E+01
  0.3595238E+00  0.3654844E+04 -0.1570600E+01  0.1009202E+05 -0.3047479E+01  0.5696093E+04 -0.1570510E+01
  0.3904762E+00  0.4119744E+04 -0.1570504E+01  0.1198289E+05 -0.3034500E+01  0.6420367E+04 -0.1570367E+01
  0.4214286E+00  0.4631319E+04 -0.1570362E+01  0.1402277E+05 -0.3019866E+01  0.7222149E+04 -0.1570159E+01
  0.4523810E+00  0.5183876E+04 -0.1570154E+01  0.1623083E+05 -0.3002967E+01  0.8078507E+04 -0.1569853E+01
  0.4833333E+00  0.5775791E+04 -0.1569867E+01  0.1856757E+05 -0.2985731E+01  0.8990207E+04 -0.1569425E+01
  0.5142857E+00  0.6409828E+04 -0.1569469E+01  0.2103220E+05 -0.2967034E+01  0.9978461E+04 -0.1568833E+01
  0.5452381E+00  0.7076952E+04 -0.1568940E+01  0.2361369E+05 -0.2948289E+01  0.1101446E+05 -0.1568044E+01
  0.5761905E+00  0.7767186E+04 -0.1568253E+01  0.2630070E+05 -0.2929811E+01  0.1207196E+05 -0.1567011E+01
  0.6071429E+00  0.8472066E+04 -0.1567369E+01  0.2907734E+05 -0.2910794E+01  0.1314340E+05 -0.1565672E+01
  0.6380953E+00  0.9192729E+04 -0.1566273E+01  0.3196196E+05 -0.2892874E+01  0.1424883E+05 -0.1564008E+01
  0.6690477E+00  0.9921439E+04 -0.1564920E+01  0.3491357E+05 -0.2874975E+01  0.1536199E+05 -0.1561944E+01
  0.7000000E+00  0.1064560E+05 -0.1563265E+01  0.3792152E+05 -0.2856921E+01  0.1644102E+05 -0.1559389E+01
  0.7309524E+00  0.1136199E+05 -0.1561285E+01  0.4101079E+05 -0.2839640E+01  0.1748903E+05 -0.1556297E+01
  0.7619048E+00  0.1206387E+05 -0.1558932E+01  0.4414509E+05 -0.2822623E+01  0.1850243E+05 -0.1552588E+01
  0.7928572E+00  0.1274765E+05 -0.1556172E+01  0.4730946E+05 -0.2805831E+01  0.1947942E+05 -0.1548193E+01
  0.8238096E+00  0.1340535E+05 -0.1552965E+01  0.5049268E+05 -0.2789304E+01  0.2040041E+05 -0.1543029E+01
  0.8547620E+00  0.1402946E+05 -0.1549286E+01  0.5369011E+05 -0.2773224E+01  0.2123772E+05 -0.1537000E+01
  0.8857143E+00  0.1461027E+05 -0.1545099E+01  0.5688816E+05 -0.2757614E+01  0.2196319E+05 -0.1529994E+01
  0.9166667E+00  0.1513849E+05 -0.1540386E+01  0.6007651E+05 -0.2742518E+01  0.2256258E+05 -0.1521919E+01
  0.9476191E+00  0.1560185E+05 -0.1535131E+01  0.6323048E+05 -0.2727814E+01  0.2301676E+05 -0.1512667E+01
  0.9785714E+00  0.1599710E+05 -0.1529346E+01  0.6634978E+05 -0.2713693E+01  0.2332013E+05 -0.1502164E+01
  0.1009524E+01  0.1631297E+05 -0.1523045E+01  0.6941466E+05 -0.2700078E+01  0.2344935E+05 -0.1490292E+01
  0.1040476E+01  0.1653994E+05 -0.1516264E+01  0.7241631E+05 -0.2686967E+01  0.2337458E+05 -0.1476892E+01
  0.1071429E+01  0.1666580E+05 -0.1509049E+01  0.7533567E+05 -0.2674378E+01  0.2306420E+05 -0.1461743E+01
  0.1102381E+01  0.1667905E+05 -0.1501478E+01  0.7817492E+05 -0.2662481E+01  0.2248759E+05 -0.1444559E+01
  0.1133333E+01  0.1656826E+05 -0.1493662E+01  0.8092197E+05 -0.2651307E+01  0.2162041E+05 -0.1424963E+01
  0.1164286E+01  0.1632230E+05 -0.1485756E+01  0.8356610E+05 -0.2640846E+01  0.2043414E+05 -0.1402351E+01
  0.1195238E+01  0.1593130E+05 -0.1477978E+01  0.8609125E+05 -0.2631053E+01  0.1890690E+05 -0.1375777E+01
  0.1226190E+01  0.1538762E+05 -0.1470641E+01  0.8849559E+05 -0.2622100E+01  0.1701911E+05 -0.1343597E+01
  0.1257143E+01  0.1468035E+05 -0.1464041E+01  0.9078134E+05 -0.2613560E+01  0.1475416E+05 -0.1302308E+01
  0.1288095E+01  0.1380759E+05 -0.1459167E+01  0.9289353E+05 -0.2606471E+01  0.1210862E+05 -0.1245904E+01
  0.1319048E+01  0.1276229E+05 -0.1456614E+01  0.9486840E+05 -0.2599734E+01  0.9086930E+04 -0.1155054E+01
  0.1350000E+01  0.1154167E+05 -0.1458014E+01  0.9667770E+05 -0.2593735E+01  0.5765818E+04 -0.9629273E+00
  0.1380952E+01  0.1014472E+05 -0.1465975E+01  0.9832011E+05 -0.2588596E+01  0.2801634E+04 -0.2660606E+00
  0.1411905E+01  0.8733103E+04 -0.1481120E+01  0.9948893E+05 -0.2584846E+01  0.3756245E+04  0.1008877E+01
  0.1442857E+01  0.7024301E+04 -0.1519535E+01  0.1007772E+06 -0.2581285E+01  0.7967296E+04  0.1454359E+01
  0.1473810E+01  0.5183624E+04 -0.1604264E+01  0.1018891E+06 -0.2578742E+01  0.1304676E+05  0.1605072E+01
  0.1504762E+01  0.3305590E+04 -0.1823070E+01  0.1028186E+06 -0.2577137E+01  0.1866202E+05  0.1685674E+01
  0.1535714E+01  0.1934183E+04 -0.2545813E+01  0.1035625E+06 -0.2576586E+01  0.2474286E+05  0.1740136E+01
  0.1566667E+01  0.2757608E+04  0.2710527E+01  0.1041229E+06 -0.2577183E+01  0.3124756E+05  0.1782148E+01
  0.1597619E+01  0.4979023E+04  0.2361705E+01  0.1045136E+06 -0.2578934E+01  0.3814970E+05  0.1817123E+01
  0.1628572E+01  0.7580057E+04  0.2240664E+01  0.1047521E+06 -0.2581770E+01  0.4540543E+05  0.1847901E+01
  0.1659524E+01  0.1037590E+05  0.2187517E+01  0.1048154E+06 -0.2585624E+01  0.5298939E+05  0.1875716E+01
  0.1690476E+01  0.1331210E+05  0.2162052E+01  0.1047260E+06 -0.2590720E+01  0.6087870E+05  0.1901293E+01
  0.1721429E+01  0.1636256E+05  0.2150103E+01  0.1044842E+06 -0.2597013E+01  0.6903784E+05  0.1925084E+01
  0.1752381E+01  0.1950301E+05  0.2145708E+01  0.1040942E+06 -0.2604378E+01  0.7742525E+05  0.1947446E+01
  0.1783333E+01  0.2271857E+05  0.2145661E+01  0.1035688E+06 -0.2613009E+01  0.8600351E+05  0.1968498E+01
  0.1814286E+01  0.2598685E+05  0.2148502E+01  0.1029128E+06 -0.2622674E+01  0.9470999E+05  0.1988598E+01
  0.1845238E+01  0.2929407E+05  0.2153023E+01  0.1021448E+06 -0.2633290E+01  0.1035156E+06  0.2007687E+01
  0.1876190E+01  0.3262058E+05  0.2158696E+01  0.1012768E+06 -0.2644548E+01  0.1123646E+06  0.2025925E+01
  0.1907143E+01  0.3594746E+05  0.2165004E+01  0.1002796E+06 -0.2656316E+01  0.1212148E+06  0.2043300E+01
  0.1938095E+01  0.3925933E+05  0.2171648E+01  0.9916808E+05 -0.2668567E+01  0.1300215E+06  0.2059812E+01
  0.1969048E+01  0.4254142E+05  0.2178326E+01  0.9791963E+05 -0.2681289E+01  0.1387401E+06  0.2075484E+01
  0.2000000E+01  0.4577167E+05  0.2184920E+01  0.9653060E+05 -0.2694160E+01  0.1473221E+06  0.2090274E+01
