VARIABLES="w (rad/s)"
"abs(F   1   1)" "angle(F   1   1)"
"abs(F   1   2)" "angle(F   1   2)"
"abs(F   1   3)" "angle(F   1   3)"
Zone t="Diffraction force - beta =   0.000 deg",I=    64,F=POINT
  0.5000000E-01  0.2180519E+04 -0.1570793E+01  0.5574007E+03 -0.3093724E+01  0.2806913E+04  0.1570799E+01
  0.8095238E-01  0.3563877E+04 -0.1570786E+01  0.1444035E+04 -0.3092086E+01  0.4584772E+04  0.1570803E+01
  0.1119048E+00  0.4987556E+04 -0.1570776E+01  0.2738958E+04 -0.3090072E+01  0.6430225E+04  0.1570809E+01
  0.1428571E+00  0.6439772E+04 -0.1570761E+01  0.4442977E+04 -0.3087559E+01  0.8314351E+04  0.1570819E+01
  0.1738095E+00  0.7988462E+04 -0.1570739E+01  0.6561777E+04 -0.3084451E+01  0.1032397E+05  0.1570833E+01
  0.2047619E+00  0.9597887E+04 -0.1570707E+01  0.9090312E+04 -0.3080488E+01  0.1243338E+05  0.1570854E+01
  0.2357143E+00  0.1134687E+05 -0.1570660E+01  0.1203194E+05 -0.3075485E+01  0.1473338E+05  0.1570884E+01
  0.2666667E+00  0.1323181E+05 -0.1570591E+01  0.1541167E+05 -0.3069562E+01  0.1722810E+05  0.1570928E+01
  0.2976190E+00  0.1525354E+05 -0.1570489E+01  0.1917620E+05 -0.3061909E+01  0.1990965E+05  0.1570994E+01
  0.3285715E+00  0.1751300E+05 -0.1570338E+01  0.2339717E+05 -0.3053029E+01  0.2294919E+05  0.1571092E+01
  0.3595238E+00  0.2005696E+05 -0.1570112E+01  0.2796187E+05 -0.3042020E+01  0.2632631E+05  0.1571239E+01
  0.3904762E+00  0.2279713E+05 -0.1569774E+01  0.3295282E+05 -0.3029245E+01  0.3004826E+05  0.1571458E+01
  0.4214286E+00  0.2584864E+05 -0.1569280E+01  0.3821474E+05 -0.3014954E+01  0.3417665E+05  0.1571779E+01
  0.4523810E+00  0.2937364E+05 -0.1568562E+01  0.4376846E+05 -0.2998304E+01  0.3900280E+05  0.1572248E+01
  0.4833333E+00  0.3319180E+05 -0.1567568E+01  0.4957911E+05 -0.2982083E+01  0.4423018E+05  0.1572901E+01
  0.5142857E+00  0.3730002E+05 -0.1566185E+01  0.5539525E+05 -0.2963892E+01  0.4990179E+05  0.1573810E+01
  0.5452381E+00  0.4174675E+05 -0.1564347E+01  0.6148317E+05 -0.2946611E+01  0.5613219E+05  0.1575019E+01
  0.5761905E+00  0.4669741E+05 -0.1561988E+01  0.6747552E+05 -0.2929342E+01  0.6287796E+05  0.1576591E+01
  0.6071429E+00  0.5199638E+05 -0.1558957E+01  0.7348034E+05 -0.2911549E+01  0.7032302E+05  0.1578614E+01
  0.6380953E+00  0.5739059E+05 -0.1555158E+01  0.7971771E+05 -0.2896251E+01  0.7800598E+05  0.1581151E+01
  0.6690477E+00  0.6303657E+05 -0.1550457E+01  0.8557025E+05 -0.2879934E+01  0.8586609E+05  0.1584316E+01
  0.7000000E+00  0.6928874E+05 -0.1544790E+01  0.9142123E+05 -0.2863899E+01  0.9481720E+05  0.1588145E+01
  0.7309524E+00  0.7580217E+05 -0.1537991E+01  0.9737588E+05 -0.2849753E+01  0.1041272E+06  0.1592771E+01
  0.7619048E+00  0.8260217E+05 -0.1529896E+01  0.1029398E+06 -0.2835136E+01  0.1135863E+06  0.1598349E+01
  0.7928572E+00  0.8968462E+05 -0.1520350E+01  0.1082998E+06 -0.2820731E+01  0.1238360E+06  0.1604935E+01
  0.8238096E+00  0.9665852E+05 -0.1509065E+01  0.1135628E+06 -0.2807392E+01  0.1340262E+06  0.1612736E+01
  0.8547620E+00  0.1040533E+06 -0.1496175E+01  0.1187907E+06 -0.2795471E+01  0.1450285E+06  0.1621630E+01
  0.8857143E+00  0.1119132E+06 -0.1481606E+01  0.1233087E+06 -0.2782177E+01  0.1560513E+06  0.1631877E+01
  0.9166667E+00  0.1201122E+06 -0.1465170E+01  0.1277295E+06 -0.2770045E+01  0.1681247E+06  0.1643451E+01
  0.9476191E+00  0.1281915E+06 -0.1446522E+01  0.1318873E+06 -0.2758775E+01  0.1799667E+06  0.1656676E+01
  0.9785714E+00  0.1362461E+06 -0.1425589E+01  0.1359016E+06 -0.2748889E+01  0.1921968E+06  0.1671525E+01
  0.1009524E+01  0.1440945E+06 -0.1402270E+01  0.1392506E+06 -0.2738208E+01  0.2037545E+06  0.1688200E+01
  0.1040476E+01  0.1517926E+06 -0.1376574E+01  0.1422197E+06 -0.2727787E+01  0.2155557E+06  0.1706556E+01
  0.1071429E+01  0.1593491E+06 -0.1348936E+01  0.1449509E+06 -0.2718235E+01  0.2273115E+06  0.1726091E+01
  0.1102381E+01  0.1665488E+06 -0.1319155E+01  0.1474286E+06 -0.2709838E+01  0.2385445E+06  0.1747194E+01
  0.1133333E+01  0.1733320E+06 -0.1287206E+01  0.1496790E+06 -0.2702649E+01  0.2497589E+06  0.1769755E+01
  0.1164286E+01  0.1793716E+06 -0.1253150E+01  0.1511565E+06 -0.2694317E+01  0.2592175E+06  0.1793870E+01
  0.1195238E+01  0.1847314E+06 -0.1217152E+01  0.1522453E+06 -0.2686311E+01  0.2681737E+06  0.1819256E+01
  0.1226190E+01  0.1892137E+06 -0.1179734E+01  0.1530835E+06 -0.2679080E+01  0.2763925E+06  0.1845100E+01
  0.1257143E+01  0.1924773E+06 -0.1140789E+01  0.1536340E+06 -0.2672571E+01  0.2827978E+06  0.1871470E+01
  0.1288095E+01  0.1947742E+06 -0.1101270E+01  0.1539112E+06 -0.2667474E+01  0.2884396E+06  0.1897850E+01
  0.1319048E+01  0.1957442E+06 -0.1060468E+01  0.1538559E+06 -0.2662850E+01  0.2924228E+06  0.1924390E+01
  0.1350000E+01  0.1953110E+06 -0.1019239E+01  0.1530250E+06 -0.2657003E+01  0.2935010E+06  0.1950606E+01
  0.1380952E+01  0.1938738E+06 -0.9786611E+00  0.1519573E+06 -0.2651920E+01  0.2938552E+06  0.1975174E+01
  0.1411905E+01  0.1906775E+06 -0.9374478E+00  0.1506044E+06 -0.2647241E+01  0.2924598E+06  0.1998560E+01
  0.1442857E+01  0.1863910E+06 -0.8971242E+00  0.1490146E+06 -0.2643430E+01  0.2892324E+06  0.2020284E+01
  0.1473810E+01  0.1807552E+06 -0.8571353E+00  0.1472161E+06 -0.2640475E+01  0.2843424E+06  0.2040047E+01
  0.1504762E+01  0.1740590E+06 -0.8183309E+00  0.1452202E+06 -0.2638389E+01  0.2784284E+06  0.2056843E+01
  0.1535714E+01  0.1662355E+06 -0.7810667E+00  0.1427082E+06 -0.2635956E+01  0.2703895E+06  0.2070297E+01
  0.1566667E+01  0.1573600E+06 -0.7453529E+00  0.1397557E+06 -0.2633392E+01  0.2603318E+06  0.2080219E+01
  0.1597619E+01  0.1478533E+06 -0.7114066E+00  0.1366845E+06 -0.2631326E+01  0.2504630E+06  0.2086521E+01
  0.1628572E+01  0.1375869E+06 -0.6793418E+00  0.1334297E+06 -0.2629688E+01  0.2397543E+06  0.2088050E+01
  0.1659524E+01  0.1265356E+06 -0.6486318E+00  0.1300043E+06 -0.2628788E+01  0.2279358E+06  0.2084682E+01
  0.1690476E+01  0.1148227E+06 -0.6190858E+00  0.1264394E+06 -0.2628598E+01  0.2153334E+06  0.2076043E+01
  0.1721429E+01  0.1027918E+06 -0.5912990E+00  0.1227579E+06 -0.2628945E+01  0.2028931E+06  0.2061633E+01
  0.1752381E+01  0.9047373E+05 -0.5653424E+00  0.1189310E+06 -0.2630080E+01  0.1904202E+06  0.2040122E+01
  0.1783333E+01  0.7778055E+05 -0.5424684E+00  0.1147238E+06 -0.2630628E+01  0.1767871E+06  0.2008296E+01
  0.1814286E+01  0.6492875E+05 -0.5221463E+00  0.1104221E+06 -0.2631807E+01  0.1633754E+06  0.1966519E+01
  0.1845238E+01  0.5220840E+05 -0.5059223E+00  0.1061202E+06 -0.2633556E+01  0.1513157E+06  0.1915920E+01
  0.1876190E+01  0.3945475E+05 -0.4948011E+00  0.1017644E+06 -0.2635678E+01  0.1399328E+06  0.1853271E+01
  0.1907143E+01  0.2666096E+05 -0.4927213E+00  0.9737977E+05 -0.2638359E+01  0.1292430E+06  0.1776247E+01
  0.1938095E+01  0.1397911E+05 -0.5226324E+00  0.9295975E+05 -0.2641980E+01  0.1197535E+06  0.1683919E+01
  0.1969048E+01  0.2044072E+04 -0.1182615E+01  0.8852014E+05 -0.2646130E+01  0.1120389E+06  0.1579051E+01
  0.2000000E+01  0.1083586E+05  0.2888012E+01  0.8402723E+05 -0.2650918E+01  0.1061254E+06  0.1462388E+01
