VARIABLES="w (rad/s)"
"A   1   1" "B   1   1"
"A   1   2" "B   1   2"
"A   1   3" "B   1   3"
Zone t="Motion of body    1 in DoF   1",I=    64,F=POINT
  0.5000000E-01  0.2054373E+05  0.3857739E-03  0.4386902E-03  0.2732988E-05 -0.2311203E+05 -0.3850288E-03
  0.8095238E-01  0.2065311E+05  0.1590224E-02 -0.5065693E-03 -0.6782302E-05 -0.2330424E+05 -0.1624683E-02
  0.1119048E+00  0.2073987E+05  0.4535313E-02 -0.1397640E-02 -0.3561712E-05 -0.2338150E+05 -0.4591277E-02
  0.1428571E+00  0.2076772E+05  0.1014272E-01 -0.2016068E-02 -0.3405134E-05 -0.2340174E+05 -0.1017967E-01
  0.1738095E+00  0.2080618E+05  0.2018269E-01 -0.1207117E-02 -0.8625371E-05 -0.2342076E+05 -0.2017898E-01
  0.2047619E+00  0.2080266E+05  0.3736793E-01 -0.4284881E-03 -0.5479553E-05 -0.2342908E+05 -0.3741294E-01
  0.2357143E+00  0.2084373E+05  0.6584552E-01  0.1618356E-03  0.1383055E-04 -0.2343313E+05 -0.6582748E-01
  0.2666667E+00  0.2086714E+05  0.1123802E+00 -0.2403259E-02 -0.2136640E-04 -0.2345117E+05 -0.1121394E+00
  0.2976190E+00  0.2086801E+05  0.1885218E+00  0.2691650E-03  0.1642038E-04 -0.2345975E+05 -0.1877750E+00
  0.3285715E+00  0.2091870E+05  0.3122227E+00 -0.2612238E-02 -0.4439475E-04 -0.2346200E+05 -0.3098284E+00
  0.3595238E+00  0.2094506E+05  0.5129319E+00 -0.2344902E-02 -0.9890692E-04 -0.2348713E+05 -0.5076265E+00
  0.3904762E+00  0.2094414E+05  0.8363464E+00 -0.3907738E-03 -0.1804624E-04 -0.2350443E+05 -0.8258610E+00
  0.4214286E+00  0.2099036E+05  0.1347209E+01 -0.3765558E-02 -0.1893910E-03 -0.2350977E+05 -0.1324977E+01
  0.4523810E+00  0.2106843E+05  0.2151961E+01 -0.8095189E-03 -0.4273653E-04 -0.2354304E+05 -0.2107229E+01
  0.4833333E+00  0.2110879E+05  0.3350269E+01 -0.1736345E-02 -0.9782612E-05 -0.2356834E+05 -0.3267433E+01
  0.5142857E+00  0.2114499E+05  0.5130369E+01 -0.4138947E-02 -0.3907196E-03 -0.2359424E+05 -0.4984203E+01
  0.5452381E+00  0.2118552E+05  0.7670122E+01 -0.2756577E-02 -0.3385171E-03 -0.2361128E+05 -0.7418261E+01
  0.5761905E+00  0.2126342E+05  0.1120629E+02 -0.2105334E-02 -0.4011393E-04 -0.2364890E+05 -0.1078244E+02
  0.6071429E+00  0.2134979E+05  0.1607447E+02 -0.1419965E-02 -0.1681000E-03 -0.2370343E+05 -0.1538796E+02
  0.6380953E+00  0.2138169E+05  0.2252617E+02 -0.2391303E-02 -0.4391521E-03 -0.2373900E+05 -0.2146471E+02
  0.6690477E+00  0.2143922E+05  0.3104159E+02 -0.1242967E-02 -0.2762079E-03 -0.2376941E+05 -0.2941623E+02
  0.7000000E+00  0.2154401E+05  0.4217591E+02 -0.3313337E-02 -0.8847713E-03 -0.2382683E+05 -0.3972490E+02
  0.7309524E+00  0.2163143E+05  0.5640396E+02 -0.3548786E-03  0.7331371E-04 -0.2387368E+05 -0.5279827E+02
  0.7619048E+00  0.2172684E+05  0.7445879E+02 -0.3985405E-02 -0.8041859E-03 -0.2393069E+05 -0.6925570E+02
  0.7928572E+00  0.2182521E+05  0.9711539E+02 -0.6543408E-03  0.2048016E-03 -0.2399557E+05 -0.8974707E+02
  0.8238096E+00  0.2189713E+05  0.1251769E+03 -0.2500501E-02 -0.4961491E-03 -0.2405227E+05 -0.1149504E+03
  0.8547620E+00  0.2199756E+05  0.1597282E+03 -0.9461298E-03 -0.2087355E-03 -0.2411347E+05 -0.1456509E+03
  0.8857143E+00  0.2212249E+05  0.2019342E+03 -0.1016432E-02 -0.1668930E-03 -0.2417257E+05 -0.1827086E+03
  0.9166667E+00  0.2227177E+05  0.2530854E+03 -0.3995028E-03 -0.2939701E-03 -0.2425288E+05 -0.2271703E+03
  0.9476191E+00  0.2239853E+05  0.3143645E+03 -0.5072205E-02 -0.1787186E-02 -0.2432991E+05 -0.2799816E+03
  0.9785714E+00  0.2251785E+05  0.3873076E+03  0.1372177E-02  0.3340244E-03 -0.2440378E+05 -0.3422123E+03
  0.1009524E+01  0.2263389E+05  0.4735194E+03 -0.1254532E-02 -0.5269051E-03 -0.2447960E+05 -0.4150229E+03
  0.1040476E+01  0.2276580E+05  0.5748688E+03 -0.1671833E-02 -0.4935265E-03 -0.2454805E+05 -0.4994386E+03
  0.1071429E+01  0.2291710E+05  0.6933420E+03  0.4842122E-03 -0.1964569E-03 -0.2463162E+05 -0.5969868E+03
  0.1102381E+01  0.2306631E+05  0.8307895E+03 -0.2145458E-02 -0.1320839E-02 -0.2470021E+05 -0.7086022E+03
  0.1133333E+01  0.2322685E+05  0.9895917E+03 -0.1629100E-02 -0.7600784E-03 -0.2478314E+05 -0.8360748E+03
  0.1164286E+01  0.2338807E+05  0.1171824E+04 -0.2490084E-03 -0.8363724E-03 -0.2486074E+05 -0.9803529E+03
  0.1195238E+01  0.2355334E+05  0.1379876E+04 -0.1531958E-02 -0.1633644E-02 -0.2493103E+05 -0.1142551E+04
  0.1226190E+01  0.2372081E+05  0.1616089E+04 -0.3484337E-03  0.1907349E-05 -0.2501369E+05 -0.1324484E+04
  0.1257143E+01  0.2384143E+05  0.1881338E+04 -0.6311590E-03  0.2212524E-03 -0.2507555E+05 -0.1526403E+04
  0.1288095E+01  0.2398239E+05  0.2180061E+04 -0.6159925E-03 -0.5493164E-03 -0.2512925E+05 -0.1749517E+04
  0.1319048E+01  0.2412478E+05  0.2513458E+04 -0.3239050E-03  0.3414154E-03 -0.2518754E+05 -0.1995056E+04
  0.1350000E+01  0.2425824E+05  0.2883353E+04  0.1243309E-02  0.2250671E-02 -0.2521863E+05 -0.2262198E+04
  0.1380952E+01  0.2440650E+05  0.3293111E+04  0.3093851E-03 -0.2632141E-03 -0.2524856E+05 -0.2552710E+04
  0.1411905E+01  0.2439546E+05  0.3703315E+04  0.1837230E-02  0.2723694E-02 -0.2524007E+05 -0.2842667E+04
  0.1442857E+01  0.2451682E+05  0.4190511E+04  0.0000000E+00  0.8544922E-03 -0.2526640E+05 -0.3178518E+04
  0.1473810E+01  0.2460979E+05  0.4719278E+04 -0.1097450E-02 -0.2506256E-02 -0.2525521E+05 -0.3534532E+04
  0.1504762E+01  0.2469623E+05  0.5292475E+04 -0.2230874E-02 -0.3322601E-02 -0.2524747E+05 -0.3913923E+04
  0.1535714E+01  0.2476734E+05  0.5909622E+04 -0.2146166E-02 -0.7324219E-03 -0.2522969E+05 -0.4314102E+04
  0.1566667E+01  0.2480099E+05  0.6568241E+04 -0.9155273E-03  0.6408691E-03 -0.2517465E+05 -0.4729979E+04
  0.1597619E+01  0.2482016E+05  0.7269225E+04 -0.9741975E-03 -0.1953125E-02 -0.2511152E+05 -0.5162574E+04
  0.1628572E+01  0.2482201E+05  0.8010032E+04 -0.5246882E-03  0.9613037E-03 -0.2503847E+05 -0.5609046E+04
  0.1659524E+01  0.2479158E+05  0.8788118E+04 -0.8091318E-03  0.1434326E-02 -0.2494662E+05 -0.6067369E+04
  0.1690476E+01  0.2472885E+05  0.9598436E+04 -0.1137317E-02 -0.9460449E-03 -0.2482012E+05 -0.6529199E+04
  0.1721429E+01  0.2464423E+05  0.1044037E+05 -0.3368330E-03 -0.1358032E-02 -0.2468034E+05 -0.6996052E+04
  0.1752381E+01  0.2454568E+05  0.1131222E+05  0.6269373E-03 -0.5950928E-03 -0.2454269E+05 -0.7468398E+04
  0.1783333E+01  0.2441310E+05  0.1220467E+05  0.9925343E-03  0.4882812E-03 -0.2437995E+05 -0.7934653E+04
  0.1814286E+01  0.2424736E+05  0.1311245E+05  0.5382628E-03  0.1525879E-02 -0.2419409E+05 -0.8390314E+04
  0.1845238E+01  0.2406085E+05  0.1403167E+05 -0.1587702E-02  0.2380371E-02 -0.2399960E+05 -0.8834395E+04
  0.1876190E+01  0.2385310E+05  0.1495503E+05  0.1301257E-03 -0.2349854E-02 -0.2379846E+05 -0.9262333E+04
  0.1907143E+01  0.2360971E+05  0.1587670E+05 -0.6240674E-03 -0.2288818E-02 -0.2358634E+05 -0.9673704E+04
  0.1938095E+01  0.2333916E+05  0.1678728E+05 -0.4094004E-03 -0.9307861E-03 -0.2335615E+05 -0.1005667E+05
  0.1969048E+01  0.2303524E+05  0.1767908E+05 -0.4804581E-03  0.3921509E-02 -0.2310246E+05 -0.1040485E+05
  0.2000000E+01  0.2272124E+05  0.1855492E+05 -0.1296997E-02 -0.3433228E-02 -0.2285856E+05 -0.1073155E+05
Zone t="Motion of body    1 in DoF   2",I=    64,F=POINT
  0.5000000E-01 -0.2059937E-02  0.3337860E-05  0.1186828E+05  0.2314840E+02  0.2784729E-02 -0.5960464E-07
  0.8095238E-01  0.1437243E-02  0.1192093E-06  0.1179725E+05  0.3844178E+02  0.4476659E-03 -0.1513958E-04
  0.1119048E+00 -0.2897547E-02  0.6079674E-05  0.1175458E+05  0.5517611E+02 -0.1806705E-02 -0.8583069E-05
  0.1428571E+00  0.6675720E-03 -0.4053116E-05  0.1174930E+05  0.7403197E+02  0.1935959E-02 -0.3576279E-06
  0.1738095E+00  0.1251012E-02  0.9775162E-05  0.1175251E+05  0.9588018E+02  0.3094608E-02 -0.2384186E-06
  0.2047619E+00  0.2645448E-02  0.1096725E-04  0.1178733E+05  0.1217921E+03  0.2794487E-02 -0.1347065E-04
  0.2357143E+00  0.1068115E-02 -0.9059906E-05  0.1183026E+05  0.1533141E+03  0.1844926E-02 -0.1740456E-04
  0.2666667E+00  0.5149841E-03  0.2050400E-04  0.1188779E+05  0.1918589E+03 -0.2303123E-02 -0.1811981E-04
  0.2976190E+00 -0.1281738E-03 -0.9536743E-06  0.1196261E+05  0.2402850E+03 -0.2153320E-02 -0.2145767E-04
  0.3285715E+00  0.4643979E-03 -0.2861023E-05  0.1204423E+05  0.3005046E+03  0.1845982E-02  0.5412102E-04
  0.3595238E+00 -0.3140683E-02 -0.5626678E-04  0.1211836E+05  0.3761293E+03  0.8382229E-03 -0.2813339E-04
  0.3904762E+00 -0.1680327E-02  0.7343292E-04  0.1220558E+05  0.4703506E+03 -0.1524018E-02 -0.2264977E-03
  0.4214286E+00 -0.9413896E-03  0.1506805E-03  0.1227739E+05  0.5830422E+03 -0.1357773E-02  0.1096725E-04
  0.4523810E+00  0.9781686E-03  0.1335144E-03  0.1233279E+05  0.7203091E+03  0.4722193E-03 -0.1468658E-03
  0.4833333E+00 -0.9470972E-03 -0.1792908E-03  0.1236144E+05  0.8729058E+03 -0.1215441E-02 -0.1420975E-03
  0.5142857E+00 -0.1839532E-02 -0.2861023E-04  0.1237711E+05  0.1047774E+04 -0.1364814E-02  0.1039505E-03
  0.5452381E+00  0.1231364E-02  0.1144409E-03  0.1236717E+05  0.1237618E+04 -0.1063451E-02 -0.9536743E-04
  0.5761905E+00  0.2489326E-02 -0.2784729E-03  0.1233082E+05  0.1440037E+04 -0.3575096E-02 -0.2403259E-03
  0.6071429E+00  0.3267176E-03 -0.2288818E-03  0.1227828E+05  0.1659252E+04 -0.2387552E-03 -0.1907349E-04
  0.6380953E+00 -0.1913042E-03 -0.2021790E-03  0.1222077E+05  0.1885941E+04 -0.3598911E-02  0.3757477E-03
  0.6690477E+00 -0.1459631E-02  0.9155273E-04  0.1214807E+05  0.2124447E+04 -0.1448227E-02 -0.2212524E-03
  0.7000000E+00 -0.8719307E-03  0.2288818E-03  0.1205416E+05  0.2375737E+04  0.1667568E-02  0.1544952E-03
  0.7309524E+00 -0.1628267E-02 -0.6790161E-03  0.1194707E+05  0.2634844E+04  0.9602599E-03 -0.3089905E-03
  0.7619048E+00  0.2443313E-02  0.4577637E-03  0.1183197E+05  0.2902604E+04  0.5136966E-02  0.5722046E-04
  0.7928572E+00 -0.3849063E-03  0.9918213E-04  0.1170974E+05  0.3178353E+04 -0.8275487E-03  0.4577637E-04
  0.8238096E+00  0.4445335E-03 -0.1754761E-03  0.1157543E+05  0.3460932E+04  0.1657740E-02 -0.9803772E-03
  0.8547620E+00 -0.3106162E-02  0.3204346E-03  0.1143056E+05  0.3748688E+04  0.3391786E-03  0.3204346E-03
  0.8857143E+00  0.3445533E-04 -0.1525879E-04  0.1127339E+05  0.4040537E+04  0.2136230E-02 -0.1438141E-02
  0.9166667E+00 -0.1265092E-02 -0.2593994E-03  0.1110735E+05  0.4334750E+04 -0.2363725E-02 -0.6141663E-03
  0.9476191E+00 -0.4830672E-03  0.5950928E-03  0.1093161E+05  0.4630280E+04 -0.3107732E-02  0.2143860E-02
  0.9785714E+00 -0.7484603E-03  0.7019043E-03  0.1075200E+05  0.4925383E+04 -0.4677877E-03  0.1136780E-02
  0.1009524E+01  0.2750901E-02 -0.8544922E-03  0.1056733E+05  0.5218982E+04 -0.2675327E-02 -0.7324219E-03
  0.1040476E+01  0.2933040E-03 -0.6561279E-03  0.1037895E+05  0.5509932E+04  0.1363863E-02  0.8163452E-03
  0.1071429E+01  0.1224772E-02  0.1373291E-02  0.1018401E+05  0.5797253E+04  0.1424154E-04 -0.5950928E-03
  0.1102381E+01 -0.1467217E-02  0.7476807E-03  0.9982135E+04  0.6080320E+04  0.4443175E-02  0.2212524E-03
  0.1133333E+01 -0.2342673E-02 -0.3814697E-03  0.9777119E+04  0.6357202E+04  0.1481000E-03 -0.1327515E-02
  0.1164286E+01 -0.2935678E-02 -0.1831055E-03  0.9569421E+04  0.6627087E+04  0.1965856E-03  0.2746582E-03
  0.1195238E+01 -0.1302164E-02  0.2746582E-03  0.9362544E+04  0.6888395E+04 -0.2323470E-02  0.5416870E-03
  0.1226190E+01  0.8959724E-03 -0.4272461E-03  0.9157303E+04  0.7139944E+04  0.1431067E-02  0.8544922E-03
  0.1257143E+01  0.1189492E-02 -0.3967285E-03  0.8951517E+04  0.7388379E+04  0.3289309E-02  0.2204895E-02
  0.1288095E+01  0.5212245E-03 -0.1281738E-02  0.8746703E+04  0.7615646E+04 -0.4619944E-03 -0.2128601E-02
  0.1319048E+01 -0.2544968E-03 -0.1922607E-02  0.8544650E+04  0.7837532E+04 -0.3701771E-03 -0.6561279E-03
  0.1350000E+01 -0.1333731E-02  0.3051758E-04  0.8341733E+04  0.8049609E+04 -0.4521123E-04  0.5035400E-03
  0.1380952E+01 -0.8839574E-03 -0.3051758E-04  0.8143376E+04  0.8248875E+04 -0.1082848E-02 -0.9613037E-03
  0.1411905E+01  0.2355977E-02 -0.9765625E-03  0.7921670E+04  0.8424346E+04 -0.5403618E-03  0.1846313E-02
  0.1442857E+01  0.9729366E-03  0.5798340E-03  0.7728565E+04  0.8601525E+04  0.1258472E-02  0.1419067E-02
  0.1473810E+01  0.6211978E-04  0.2014160E-02  0.7535635E+04  0.8767428E+04 -0.1646174E-02 -0.9460449E-03
  0.1504762E+01  0.2028067E-03  0.3051758E-03  0.7350923E+04  0.8919378E+04  0.1216840E-02 -0.1220703E-03
  0.1535714E+01 -0.1192315E-03  0.7019043E-03  0.7171290E+04  0.9057781E+04  0.4967977E-03  0.8850098E-03
  0.1566667E+01 -0.1383031E-02 -0.2075195E-02  0.6995583E+04  0.9185068E+04  0.1451208E-02  0.1190186E-02
  0.1597619E+01  0.1337134E-02 -0.1800537E-02  0.6826921E+04  0.9298809E+04  0.1614112E-02 -0.2029419E-02
  0.1628572E+01  0.4309939E-03 -0.1953125E-02  0.6663459E+04  0.9399615E+04  0.1517848E-02 -0.2136230E-03
  0.1659524E+01  0.1158530E-02  0.1831055E-03  0.6505811E+04  0.9490591E+04  0.8826892E-03  0.4730225E-03
  0.1690476E+01  0.8484746E-03 -0.1556396E-02  0.6350333E+04  0.9571490E+04  0.1390054E-02  0.8239746E-03
  0.1721429E+01  0.6204819E-03 -0.1251221E-02  0.6201263E+04  0.9641532E+04  0.6204819E-03 -0.7476807E-03
  0.1752381E+01  0.3134686E-03 -0.9155273E-04  0.6058624E+04  0.9699324E+04  0.1297412E-02 -0.1449585E-02
  0.1783333E+01 -0.7016191E-03  0.3967285E-03  0.5920237E+04  0.9747312E+04  0.1796829E-03  0.1007080E-02
  0.1814286E+01 -0.1177450E-02 -0.1098633E-02  0.5786927E+04  0.9785297E+04  0.9251392E-03 -0.7019043E-03
  0.1845238E+01 -0.1124622E-02 -0.5798340E-03  0.5660144E+04  0.9811798E+04  0.1488470E-03  0.5645752E-03
  0.1876190E+01  0.6668943E-03 -0.3051758E-04  0.5539192E+04  0.9826256E+04  0.2846500E-03 -0.2136230E-03
  0.1907143E+01  0.1248135E-02 -0.1464844E-02  0.5424295E+04  0.9833880E+04  0.2096226E-02 -0.5493164E-03
  0.1938095E+01 -0.1196709E-02  0.2227783E-02  0.5314268E+04  0.9832644E+04  0.2755580E-04 -0.1632690E-02
  0.1969048E+01  0.7284365E-03 -0.1037598E-02  0.5207453E+04  0.9825045E+04  0.5734501E-03 -0.3814697E-03
  0.2000000E+01 -0.1205444E-02  0.3051758E-04  0.5108262E+04  0.9809053E+04 -0.1262665E-02  0.1068115E-03
Zone t="Motion of body    1 in DoF   3",I=    64,F=POINT
  0.5000000E-01 -0.2306840E+05 -0.3868965E-03  0.1175404E-02  0.2775154E-05  0.5061442E+05  0.3881140E-03
  0.8095238E-01 -0.2326647E+05 -0.1605928E-02  0.6052325E-02  0.1597536E-04  0.5086654E+05  0.1697501E-02
  0.1119048E+00 -0.2335001E+05 -0.4576233E-02  0.7648671E-02  0.2639370E-04  0.5091866E+05  0.4607355E-02
  0.1428571E+00 -0.2337089E+05 -0.1012694E-01  0.7319927E-02  0.5093533E-04  0.5092955E+05  0.1015060E-01
  0.1738095E+00 -0.2339317E+05 -0.2008051E-01  0.7829797E-02  0.5522701E-04  0.5093299E+05  0.1997333E-01
  0.2047619E+00 -0.2340062E+05 -0.3721112E-01  0.4559672E-02  0.4217180E-04  0.5093612E+05  0.3720629E-01
  0.2357143E+00 -0.2340462E+05 -0.6551272E-01  0.4996675E-02  0.5964382E-04  0.5094380E+05  0.6547474E-01
  0.2666667E+00 -0.2342455E+05 -0.1115940E+00  0.4684925E-02  0.9594689E-04  0.5094724E+05  0.1113430E+00
  0.2976190E+00 -0.2343106E+05 -0.1867625E+00  0.8097381E-02  0.1527931E-03  0.5095386E+05  0.1860576E+00
  0.3285715E+00 -0.2343241E+05 -0.3083871E+00  0.5061937E-02  0.1755536E-03  0.5096408E+05  0.3060022E+00
  0.3595238E+00 -0.2345945E+05 -0.5051525E+00  0.4663277E-02  0.9617163E-04  0.5096922E+05  0.4999812E+00
  0.3904762E+00 -0.2347616E+05 -0.8212333E+00  0.3819814E-02  0.1377976E-03  0.5097346E+05  0.8110666E+00
  0.4214286E+00 -0.2347754E+05 -0.1318277E+01  0.8434036E-02  0.3875196E-03  0.5099733E+05  0.1296491E+01
  0.4523810E+00 -0.2351414E+05 -0.2097914E+01  0.6332798E-02  0.4236866E-03  0.5101020E+05  0.2054013E+01
  0.4833333E+00 -0.2353931E+05 -0.3252630E+01  0.4676293E-02  0.2795104E-03  0.5102598E+05  0.3171859E+01
  0.5142857E+00 -0.2356384E+05 -0.4960557E+01  0.1098527E-01  0.8028932E-03  0.5104211E+05  0.4819105E+01
  0.5452381E+00 -0.2357837E+05 -0.7383691E+01  0.5943432E-02  0.5552620E-03  0.5106401E+05  0.7141384E+01
  0.5761905E+00 -0.2361754E+05 -0.1073630E+02  0.2009336E-02  0.2752319E-03  0.5108916E+05  0.1033028E+02
  0.6071429E+00 -0.2367461E+05 -0.1532331E+02  0.3838931E-02  0.1684576E-03  0.5111790E+05  0.1467060E+02
  0.6380953E+00 -0.2370758E+05 -0.2135914E+02  0.4952986E-02  0.4509389E-03  0.5114231E+05  0.2035357E+02
  0.6690477E+00 -0.2373488E+05 -0.2927164E+02  0.6545532E-02  0.9410381E-03  0.5117504E+05  0.2774049E+02
  0.7000000E+00 -0.2379440E+05 -0.3954237E+02  0.3468649E-02  0.8439422E-03  0.5120834E+05  0.3724701E+02
  0.7309524E+00 -0.2384183E+05 -0.5256190E+02  0.1594345E-02  0.4131198E-03  0.5123638E+05  0.4920146E+02
  0.7619048E+00 -0.2389898E+05 -0.6894537E+02  0.2428293E-02  0.3867149E-03  0.5127370E+05  0.6412653E+02
  0.7928572E+00 -0.2396414E+05 -0.8932426E+02  0.6062275E-03  0.2824664E-03  0.5130901E+05  0.8254802E+02
  0.8238096E+00 -0.2401749E+05 -0.1143405E+03  0.4385137E-02  0.9373426E-03  0.5135248E+05  0.1050025E+03
  0.8547620E+00 -0.2407691E+05 -0.1448660E+03  0.2222513E-02  0.4420280E-03  0.5140124E+05  0.1320995E+03
  0.8857143E+00 -0.2413665E+05 -0.1818032E+03  0.3333553E-02  0.6752014E-03  0.5144079E+05  0.1644875E+03
  0.9166667E+00 -0.2421946E+05 -0.2261084E+03 -0.2796520E-02 -0.1241207E-02  0.5147876E+05  0.2029419E+03
  0.9476191E+00 -0.2429632E+05 -0.2786191E+03 -0.2938659E-03 -0.6031990E-04  0.5152570E+05  0.2481290E+03
  0.9785714E+00 -0.2436870E+05 -0.3404320E+03 -0.8186285E-04 -0.2486706E-03  0.5157450E+05  0.3007856E+03
  0.1009524E+01 -0.2444203E+05 -0.4126269E+03  0.4436205E-02  0.1463890E-02  0.5161797E+05  0.3616638E+03
  0.1040476E+01 -0.2450864E+05 -0.4965718E+03  0.2372096E-02  0.1256466E-02  0.5166327E+05  0.4314364E+03
  0.1071429E+01 -0.2459155E+05 -0.5935149E+03  0.1595052E-02  0.1043797E-02  0.5170779E+05  0.5110270E+03
  0.1102381E+01 -0.2466034E+05 -0.7046318E+03  0.9758374E-03  0.5049706E-03  0.5174223E+05  0.6009357E+03
  0.1133333E+01 -0.2474347E+05 -0.8313362E+03  0.1602173E-02  0.1272202E-02  0.5178582E+05  0.7022349E+03
  0.1164286E+01 -0.2482111E+05 -0.9747615E+03  0.2906191E-02  0.1567841E-02  0.5181962E+05  0.8152946E+03
  0.1195238E+01 -0.2489188E+05 -0.1136277E+04  0.1187267E-02  0.8573532E-03  0.5185178E+05  0.9406417E+03
  0.1226190E+01 -0.2497381E+05 -0.1316748E+04  0.3384785E-02  0.1452446E-02  0.5187709E+05  0.1078977E+04
  0.1257143E+01 -0.2503254E+05 -0.1516098E+04  0.4345287E-02  0.1886368E-02  0.5189980E+05  0.1230047E+04
  0.1288095E+01 -0.2508429E+05 -0.1737547E+04  0.2363279E-02  0.2693176E-02  0.5191431E+05  0.1394508E+04
  0.1319048E+01 -0.2514004E+05 -0.1980772E+04  0.1590605E-02 -0.9155273E-04  0.5193407E+05  0.1572252E+04
  0.1350000E+01 -0.2517108E+05 -0.2246504E+04  0.6216544E-03 -0.1811981E-03  0.5193107E+05  0.1762283E+04
  0.1380952E+01 -0.2520227E+05 -0.2536143E+04  0.2386685E-02  0.2504349E-02  0.5192375E+05  0.1965237E+04
  0.1411905E+01 -0.2530100E+05 -0.2850952E+04  0.1664314E-02  0.1094818E-02  0.5192032E+05  0.2187075E+04
  0.1442857E+01 -0.2532721E+05 -0.3186958E+04  0.1205595E-02  0.2174377E-03  0.5190768E+05  0.2415581E+04
  0.1473810E+01 -0.2531756E+05 -0.3544366E+04  0.6051502E-02  0.6267548E-02  0.5185761E+05  0.2652417E+04
  0.1504762E+01 -0.2531000E+05 -0.3924321E+04  0.3995292E-02  0.4600525E-02  0.5182061E+05  0.2899969E+04
  0.1535714E+01 -0.2529107E+05 -0.4323919E+04  0.1336386E-02  0.2525330E-02  0.5176759E+05  0.3154448E+04
  0.1566667E+01 -0.2523681E+05 -0.4741081E+04  0.1456078E-02 -0.3814697E-04  0.5169545E+05  0.3412848E+04
  0.1597619E+01 -0.2517350E+05 -0.5174285E+04  0.4211972E-02  0.5096436E-02  0.5161682E+05  0.3674625E+04
  0.1628572E+01 -0.2509910E+05 -0.5620079E+04  0.3232454E-02  0.1518250E-02  0.5152084E+05  0.3935557E+04
  0.1659524E+01 -0.2500587E+05 -0.6078073E+04  0.5250162E-02  0.4074097E-02  0.5143046E+05  0.4196486E+04
  0.1690476E+01 -0.2488015E+05 -0.6541631E+04  0.2053489E-02  0.2258301E-02  0.5130775E+05  0.4448846E+04
  0.1721429E+01 -0.2474158E+05 -0.7010840E+04  0.2326807E-02  0.3021240E-02  0.5118371E+05  0.4695709E+04
  0.1752381E+01 -0.2460316E+05 -0.7481306E+04  0.2716728E-02  0.2014160E-02  0.5105800E+05  0.4934603E+04
  0.1783333E+01 -0.2444054E+05 -0.7946187E+04  0.1865280E-02 -0.8163452E-03  0.5091605E+05  0.5159814E+04
  0.1814286E+01 -0.2425637E+05 -0.8403205E+04  0.3132858E-02  0.2403259E-02  0.5076702E+05  0.5369506E+04
  0.1845238E+01 -0.2406288E+05 -0.8847572E+04  0.2505592E-02  0.1991272E-02  0.5061396E+05  0.5562673E+04
  0.1876190E+01 -0.2386142E+05 -0.9272713E+04  0.1223995E-02  0.1075745E-02  0.5044883E+05  0.5731939E+04
  0.1907143E+01 -0.2364962E+05 -0.9681886E+04  0.2800302E-04 -0.3013611E-02  0.5029754E+05  0.5885577E+04
  0.1938095E+01 -0.2342035E+05 -0.1006474E+05  0.4460103E-02  0.5874634E-02  0.5013849E+05  0.6013175E+04
  0.1969048E+01 -0.2316982E+05 -0.1041852E+05  0.2328672E-02 -0.2670288E-02  0.4996839E+05  0.6110928E+04
  0.2000000E+01 -0.2292702E+05 -0.1074676E+05  0.8392334E-03 -0.3204346E-03  0.4981678E+05  0.6192438E+04
