VARIABLES="w (rad/s)"
"A   1   1" "B   1   1"
"A   1   2" "B   1   2"
"A   1   3" "B   1   3"
Zone t="Motion of body    1 in DoF   1",I=    64,F=POINT
  0.5000000E-01  0.1828203E+06  0.3909616E-01 -0.3051758E-02 -0.2483177E-04 -0.2554097E+06 -0.3172502E-01
  0.8095238E-01  0.1833967E+06  0.1725231E+00  0.1649296E-01  0.1204611E-03 -0.2554285E+06 -0.1402829E+00
  0.1119048E+00  0.1841869E+06  0.4844480E+00  0.1349916E-01  0.5018897E-04 -0.2564100E+06 -0.3950366E+00
  0.1428571E+00  0.1845112E+06  0.1091523E+01  0.2670288E-03  0.1249323E-03 -0.2567980E+06 -0.8924313E+00
  0.1738095E+00  0.1852546E+06  0.2174849E+01  0.1132495E-01  0.3060810E-03 -0.2575533E+06 -0.1782313E+01
  0.2047619E+00  0.1852223E+06  0.4011220E+01 -0.6706770E-03  0.1090020E-04 -0.2575913E+06 -0.3299118E+01
  0.2357143E+00  0.1863501E+06  0.7075869E+01  0.2783573E-02 -0.9752065E-04 -0.2588237E+06 -0.5843170E+01
  0.2666667E+00  0.1869687E+06  0.1208044E+02  0.3261566E-02  0.3058612E-03 -0.2592165E+06 -0.1001481E+02
  0.2976190E+00  0.1875393E+06  0.2027277E+02  0.9023437E-02  0.4509538E-03 -0.2600554E+06 -0.1690412E+02
  0.3285715E+00  0.1889134E+06  0.3361487E+02  0.1393194E-01  0.7341802E-03 -0.2613930E+06 -0.2819153E+02
  0.3595238E+00  0.1901971E+06  0.5529881E+02 -0.1994758E-01 -0.1030385E-02 -0.2629630E+06 -0.4669455E+02
  0.3904762E+00  0.1907460E+06  0.9017636E+02 -0.2657262E-01 -0.1914322E-02 -0.2635636E+06 -0.7664191E+02
  0.4214286E+00  0.1926628E+06  0.1454804E+03  0.2896583E-03 -0.3806353E-03 -0.2656726E+06 -0.1245823E+03
  0.4523810E+00  0.1944375E+06  0.2326166E+03  0.1301976E-01  0.1570225E-02 -0.2676680E+06 -0.2007657E+03
  0.4833333E+00  0.1961263E+06  0.3626505E+03 -0.3156991E-03 -0.1228333E-02 -0.2691764E+06 -0.3153138E+03
  0.5142857E+00  0.1975049E+06  0.5556271E+03  0.2361722E-01  0.4139900E-02 -0.2708668E+06 -0.4871659E+03
  0.5452381E+00  0.2000191E+06  0.8327216E+03 -0.1063451E-02 -0.7944107E-03 -0.2734345E+06 -0.7361190E+03
  0.5761905E+00  0.2029205E+06  0.1219611E+04 -0.1483003E-02 -0.1459122E-02 -0.2767726E+06 -0.1088454E+04
  0.6071429E+00  0.2052004E+06  0.1751082E+04  0.9248620E-02  0.5279541E-02 -0.2793718E+06 -0.1577529E+04
  0.6380953E+00  0.2075256E+06  0.2457652E+04 -0.1128695E-01 -0.2254486E-02 -0.2813807E+06 -0.2231301E+04
  0.6690477E+00  0.2106914E+06  0.3393707E+04  0.1824538E-02  0.9536743E-03 -0.2854200E+06 -0.3113139E+04
  0.7000000E+00  0.2142790E+06  0.4618219E+04  0.5144391E-02 -0.3662109E-03 -0.2893546E+06 -0.4276663E+04
  0.7309524E+00  0.2178927E+06  0.6186570E+04 -0.1895469E-01 -0.4116058E-02 -0.2929837E+06 -0.5780359E+04
  0.7619048E+00  0.2217123E+06  0.8179300E+04  0.2162933E-02  0.1182556E-02 -0.2976539E+06 -0.7725339E+04
  0.7928572E+00  0.2250317E+06  0.1066526E+05 -0.1508833E-01 -0.1100159E-01 -0.3013647E+06 -0.1017036E+05
  0.8238096E+00  0.2284808E+06  0.1373888E+05 -0.9853826E-02 -0.4638672E-02 -0.3057862E+06 -0.1324301E+05
  0.8547620E+00  0.2328856E+06  0.1750975E+05  0.1363855E-01  0.1139832E-01 -0.3101263E+06 -0.1699707E+05
  0.8857143E+00  0.2374767E+06  0.2209708E+05 -0.1081897E-01 -0.8392334E-02 -0.3159602E+06 -0.2168195E+05
  0.9166667E+00  0.2414682E+06  0.2757981E+05  0.4128196E-02  0.2273560E-02 -0.3206822E+06 -0.2732952E+05
  0.9476191E+00  0.2450671E+06  0.3407605E+05 -0.1159361E-02 -0.5401611E-02 -0.3256430E+06 -0.3415951E+05
  0.9785714E+00  0.2482351E+06  0.4166190E+05  0.1496921E-02 -0.2563477E-02 -0.3290204E+06 -0.4211036E+05
  0.1009524E+01  0.2512056E+06  0.5044518E+05 -0.1015717E-01 -0.1208496E-01 -0.3334272E+06 -0.5152606E+05
  0.1040476E+01  0.2532024E+06  0.6039876E+05 -0.1759824E-02  0.8941650E-02 -0.3366117E+06 -0.6229116E+05
  0.1071429E+01  0.2548744E+06  0.7156450E+05  0.9114583E-03  0.1800537E-01 -0.3391415E+06 -0.7439999E+05
  0.1102381E+01  0.2557063E+06  0.8397312E+05  0.5204466E-02 -0.6103516E-04 -0.3410505E+06 -0.8811978E+05
  0.1133333E+01  0.2555129E+06  0.9751432E+05 -0.1152487E-01 -0.1184082E-01 -0.3409617E+06 -0.1030424E+06
  0.1164286E+01  0.2544574E+06  0.1121508E+06  0.1992068E-02 -0.7385254E-02 -0.3412473E+06 -0.1196751E+06
  0.1195238E+01  0.2517145E+06  0.1275036E+06 -0.1225566E-02 -0.4089355E-02 -0.3394058E+06 -0.1373213E+06
  0.1226190E+01  0.2478025E+06  0.1433245E+06 -0.2588365E-02  0.1544189E-01 -0.3358423E+06 -0.1555353E+06
  0.1257143E+01  0.2426362E+06  0.1594669E+06  0.3786954E-02  0.1818848E-01 -0.3312027E+06 -0.1745340E+06
  0.1288095E+01  0.2365211E+06  0.1755964E+06  0.2369202E-02 -0.4760742E-02 -0.3248708E+06 -0.1935795E+06
  0.1319048E+01  0.2292513E+06  0.1914183E+06 -0.5922833E-02 -0.1208496E-01 -0.3169386E+06 -0.2123344E+06
  0.1350000E+01  0.2212181E+06  0.2067522E+06  0.5425347E-03  0.4882812E-02 -0.3089725E+06 -0.2312852E+06
  0.1380952E+01  0.2122161E+06  0.2209966E+06  0.9281553E-03  0.7690430E-02 -0.2993240E+06 -0.2488774E+06
  0.1411905E+01  0.2020471E+06  0.2339889E+06  0.5187474E-03  0.3051758E-02 -0.2881397E+06 -0.2653114E+06
  0.1442857E+01  0.1919179E+06  0.2459159E+06  0.1040619E-01  0.3662109E-02 -0.2770829E+06 -0.2810847E+06
  0.1473810E+01  0.1816079E+06  0.2564001E+06  0.3064576E-02 -0.8544922E-03 -0.2654027E+06 -0.2950186E+06
  0.1504762E+01  0.1714441E+06  0.2653893E+06  0.5110729E-02  0.1220703E-01 -0.2531770E+06 -0.3063125E+06
  0.1535714E+01  0.1615489E+06  0.2732200E+06  0.2483989E-02  0.2343750E-01 -0.2417703E+06 -0.3171326E+06
  0.1566667E+01  0.1518309E+06  0.2797342E+06  0.7129426E-02 -0.1062012E-01 -0.2306484E+06 -0.3269127E+06
  0.1597619E+01  0.1422882E+06  0.2846989E+06  0.4603561E-02 -0.1159668E-01 -0.2192751E+06 -0.3344727E+06
  0.1628572E+01  0.1331825E+06  0.2883925E+06 -0.4122550E-02  0.6347656E-02 -0.2081658E+06 -0.3402625E+06
  0.1659524E+01  0.1245250E+06  0.2911272E+06 -0.1038999E-02  0.4638672E-02 -0.1976881E+06 -0.3455468E+06
  0.1690476E+01  0.1163150E+06  0.2928611E+06  0.8295193E-02  0.1367188E-01 -0.1875492E+06 -0.3497191E+06
  0.1721429E+01  0.1087170E+06  0.2935775E+06  0.4033132E-02 -0.1220703E-02 -0.1777848E+06 -0.3511102E+06
  0.1752381E+01  0.1017921E+06  0.2936832E+06 -0.1906934E-02  0.1098633E-01 -0.1688803E+06 -0.3517103E+06
  0.1783333E+01  0.9539401E+05  0.2934578E+06  0.1508053E-02  0.1306152E-01 -0.1609074E+06 -0.3531062E+06
  0.1814286E+01  0.8925694E+05  0.2926312E+06  0.9461651E-04 -0.8239746E-02 -0.1531266E+06 -0.3537459E+06
  0.1845238E+01  0.8355092E+05  0.2912861E+06 -0.1062473E-02  0.2075195E-02 -0.1457453E+06 -0.3533132E+06
  0.1876190E+01  0.7817191E+05  0.2892525E+06  0.2932912E-03 -0.5004883E-02 -0.1385228E+06 -0.3515699E+06
  0.1907143E+01  0.7309525E+05  0.2869141E+06  0.3219347E-02 -0.3234863E-02 -0.1316416E+06 -0.3500195E+06
  0.1938095E+01  0.6830269E+05  0.2843000E+06 -0.1412235E-02 -0.2746582E-02 -0.1250751E+06 -0.3481231E+06
  0.1969048E+01  0.6385773E+05  0.2813311E+06 -0.2334484E-03 -0.3540039E-02 -0.1189497E+06 -0.3448139E+06
  0.2000000E+01  0.5974973E+05  0.2779916E+06  0.6361008E-03 -0.5065918E-02 -0.1132779E+06 -0.3402435E+06
Zone t="Motion of body    1 in DoF   2",I=    64,F=POINT
  0.5000000E-01  0.1678467E-02  0.4768372E-04  0.2725822E+06  0.6957906E+03 -0.1220703E-02  0.5340576E-04
  0.8095238E-01 -0.6879918E-02  0.9346008E-04  0.2684676E+06  0.1150932E+04 -0.2261891E-02 -0.8392334E-04
  0.1119048E+00 -0.2454392E-02  0.1087189E-03  0.2665772E+06  0.1642295E+04 -0.7526804E-01 -0.2059937E-03
  0.1428571E+00  0.2990722E-02  0.1525879E-04  0.2652299E+06  0.2186782E+04 -0.1025391E-01 -0.1525879E-04
  0.1738095E+00  0.1343191E-01  0.1525879E-04  0.2645114E+06  0.2803946E+04 -0.2387896E-01  0.6103516E-04
  0.2047619E+00 -0.6408691E-02  0.9918213E-04  0.2645395E+06  0.3520854E+04  0.7153888E-02  0.5187988E-03
  0.2357143E+00  0.1320579E-01 -0.5111694E-03  0.2641635E+06  0.4372724E+04 -0.1967921E-01  0.1007080E-02
  0.2666667E+00 -0.1373291E-02 -0.2670288E-03  0.2645348E+06  0.5383259E+04  0.2655029E-01  0.3051758E-04
  0.2976190E+00  0.1661133E-01  0.2517700E-03  0.2646048E+06  0.6623931E+04  0.1722656E-01 -0.1434326E-02
  0.3285715E+00 -0.6965968E-02 -0.1525879E-03  0.2651767E+06  0.8113257E+04  0.9659476E-02  0.2044678E-02
  0.3595238E+00 -0.4923233E-02  0.3051758E-04  0.2650016E+06  0.9931228E+04  0.4889280E-01  0.7934570E-03
  0.3904762E+00 -0.8909644E-02 -0.4425049E-03  0.2654558E+06  0.1210972E+05 -0.3001143E-01 -0.3051758E-03
  0.4214286E+00  0.5937996E-02  0.3051758E-03  0.2642702E+06  0.1460671E+05  0.1274497E-01  0.1525879E-02
  0.4523810E+00  0.2023797E-02 -0.1647949E-02  0.2636839E+06  0.1754215E+05 -0.5396792E-02 -0.1464844E-02
  0.4833333E+00  0.1666891E-01 -0.1525879E-03  0.2614207E+06  0.2059489E+05 -0.7677802E-01 -0.2441406E-02
  0.5142857E+00 -0.1008776E-01 -0.1312256E-02  0.2589741E+06  0.2393631E+05  0.1708985E-01  0.3295898E-02
  0.5452381E+00 -0.1679133E-02 -0.7629395E-03  0.2562593E+06  0.2730776E+05 -0.3044828E-01 -0.2807617E-02
  0.5761905E+00  0.2754148E-02  0.2136230E-02  0.2525107E+06  0.3064586E+05 -0.5254067E-01 -0.1708984E-02
  0.6071429E+00  0.9650734E-02 -0.2319336E-02  0.2490542E+06  0.3402925E+05  0.9811579E-01  0.8544922E-02
  0.6380953E+00 -0.9660862E-02 -0.0000000E+00  0.2450151E+06  0.3714938E+05  0.2142607E-01  0.1562500E-01
  0.6690477E+00 -0.3101715E-02  0.9765625E-03  0.2407411E+06  0.4017114E+05  0.3503114E-01 -0.8056641E-02
  0.7000000E+00  0.1429966E-01 -0.4272461E-02  0.2368293E+06  0.4305647E+05 -0.8370535E-02  0.5371094E-02
  0.7309524E+00  0.3173033E-02 -0.2136230E-02  0.2326055E+06  0.4565862E+05  0.6680069E-02  0.2636719E-01
  0.7619048E+00  0.1161575E-01  0.9155273E-03  0.2281113E+06  0.4806723E+05 -0.1794433E-01  0.1464844E-01
  0.7928572E+00 -0.6774352E-02  0.1220703E-02  0.2239888E+06  0.5019464E+05  0.0000000E+00 -0.1489258E-01
  0.8238096E+00 -0.2963557E-02 -0.1464844E-02  0.2204925E+06  0.5199800E+05  0.2904285E-01 -0.5859375E-02
  0.8547620E+00 -0.1278168E-01 -0.3662109E-03  0.2159684E+06  0.5357950E+05  0.3998737E-01 -0.1464844E-02
  0.8857143E+00  0.2274052E-02  0.5371094E-02  0.2119347E+06  0.5488898E+05  0.1929498E-01 -0.9521484E-02
  0.9166667E+00  0.1731179E-02 -0.5493164E-02  0.2085019E+06  0.5581551E+05 -0.1491477E-01  0.2026367E-01
  0.9476191E+00  0.9983389E-02  0.7812500E-02  0.2056500E+06  0.5639563E+05 -0.2576358E-02 -0.1611328E-01
  0.9785714E+00  0.2432496E-02 -0.9033203E-02  0.2018467E+06  0.5670963E+05  0.9979471E-02  0.1440430E-01
  0.1009524E+01  0.2146307E-02 -0.5737305E-02  0.1985386E+06  0.5676330E+05  0.5804098E-02  0.1586914E-01
  0.1040476E+01 -0.7919206E-03  0.1440430E-01  0.1957071E+06  0.5650351E+05 -0.1877145E-02 -0.3735352E-01
  0.1071429E+01 -0.6949870E-02 -0.8178711E-02  0.1934564E+06  0.5596021E+05  0.3190104E-02  0.2539062E-01
  0.1102381E+01  0.5259833E-02  0.9399414E-02  0.1916043E+06  0.5515497E+05 -0.1993200E-01 -0.2636719E-01
  0.1133333E+01  0.8212819E-03 -0.3417969E-02  0.1889321E+06  0.5404958E+05  0.5600873E-02  0.4150391E-02
  0.1164286E+01  0.1023556E-01 -0.1171875E-01  0.1868898E+06  0.5284056E+05 -0.9645801E-02  0.3759766E-01
  0.1195238E+01 -0.5144826E-02 -0.1403809E-01  0.1852361E+06  0.5141982E+05 -0.4085221E-03  0.9765625E-03
  0.1226190E+01  0.3125404E-02  0.7324219E-03  0.1840789E+06  0.4983380E+05  0.2707828E-01  0.1464844E-01
  0.1257143E+01 -0.2670288E-03 -0.2929688E-02  0.1834614E+06  0.4823673E+05  0.1553622E-02  0.2172852E-01
  0.1288095E+01 -0.1196447E-02 -0.2685547E-01  0.1823639E+06  0.4624127E+05  0.1971176E-01  0.8300781E-01
  0.1319048E+01  0.1226212E-02  0.1135254E-01  0.1811784E+06  0.4406725E+05  0.1554744E-01 -0.9033203E-02
  0.1350000E+01  0.1130281E-02  0.9399414E-02  0.1804640E+06  0.4206440E+05  0.8680555E-02 -0.8300781E-02
  0.1380952E+01  0.3027554E-02 -0.7812500E-02  0.1800623E+06  0.3999516E+05  0.1838632E-01 -0.8056641E-02
  0.1411905E+01  0.6462727E-02 -0.3051758E-02  0.1799664E+06  0.3793321E+05  0.1037495E-01  0.1831055E-01
  0.1442857E+01  0.1205595E-02  0.6958008E-02  0.1802428E+06  0.3607391E+05 -0.1353651E-01  0.1391602E-01
  0.1473810E+01  0.2236312E-02  0.1220703E-02  0.1804454E+06  0.3402256E+05  0.6626111E-02 -0.5371094E-02
  0.1504762E+01  0.1622453E-03 -0.9033203E-02  0.1802569E+06  0.3150147E+05  0.1557555E-01  0.2758789E-01
  0.1535714E+01 -0.4570539E-02 -0.7080078E-02  0.1803386E+06  0.2927830E+05 -0.1017442E-01  0.2941895E-01
  0.1566667E+01 -0.9350066E-03  0.3784180E-02  0.1805960E+06  0.2731621E+05 -0.1246675E-02 -0.1513672E-01
  0.1597619E+01 -0.1451745E-02  0.1708984E-01  0.1810212E+06  0.2541338E+05  0.2139414E-01 -0.2258301E-01
  0.1628572E+01  0.2473530E-02  0.9155273E-02  0.1815990E+06  0.2364878E+05 -0.4797149E-02 -0.1623535E-01
  0.1659524E+01  0.1066583E-02 -0.0000000E+00  0.1822806E+06  0.2216915E+05  0.2353838E-02 -0.1025391E-01
  0.1690476E+01  0.1010948E-02  0.1281738E-01  0.1830109E+06  0.2074660E+05 -0.5199163E-02 -0.2709961E-01
  0.1721429E+01  0.4396557E-02  0.9521484E-02  0.1834824E+06  0.1873835E+05 -0.1588434E-01 -0.3784180E-02
  0.1752381E+01  0.5990734E-02 -0.5249023E-02  0.1840357E+06  0.1688310E+05  0.8916440E-02  0.6713867E-02
  0.1783333E+01  0.5133798E-02  0.3051758E-02  0.1846262E+06  0.1548384E+05 -0.2738026E-02 -0.1611328E-01
  0.1814286E+01 -0.3061370E-02 -0.1116943E-01  0.1852436E+06  0.1424174E+05  0.2368356E-01  0.2929688E-02
  0.1845238E+01 -0.7607737E-03  0.5920410E-02  0.1858954E+06  0.1308489E+05  0.8467742E-02 -0.1959229E-01
  0.1876190E+01  0.7482229E-03 -0.2807617E-02  0.1865773E+06  0.1200778E+05 -0.4684526E-02  0.1159668E-01
  0.1907143E+01  0.3328359E-02  0.1666260E-01  0.1872274E+06  0.1103628E+05  0.1126522E-01 -0.1605225E-01
  0.1938095E+01 -0.2298941E-02  0.1184082E-01  0.1878642E+06  0.1001219E+05  0.7558162E-02 -0.1306152E-01
  0.1969048E+01  0.2820754E-02  0.5798340E-02  0.1884575E+06  0.8984012E+04  0.9423179E-02 -0.1446533E-01
  0.2000000E+01  0.3021240E-02  0.6713867E-02  0.1889987E+06  0.8072238E+04  0.1367188E-01 -0.9277344E-02
Zone t="Motion of body    1 in DoF   3",I=    64,F=POINT
  0.5000000E-01 -0.2556328E+06 -0.3171772E-01  0.1257324E+00  0.5393748E-03  0.1034318E+07  0.2648103E-01
  0.8095238E-01 -0.2559049E+06 -0.1401744E+00 -0.1413682E-01 -0.3515957E-03  0.1032109E+07  0.1140729E+00
  0.1119048E+00 -0.2568645E+06 -0.3936482E+00 -0.7254093E-01 -0.2777311E-03  0.1033783E+07  0.3213742E+00
  0.1428571E+00 -0.2572982E+06 -0.8897590E+00 -0.1687622E-01 -0.3936710E-03  0.1033726E+07  0.7285740E+00
  0.1738095E+00 -0.2580809E+06 -0.1777107E+01 -0.9639374E-01 -0.6857347E-03  0.1034615E+07  0.1457145E+01
  0.2047619E+00 -0.2577685E+06 -0.3289419E+01 -0.4173101E-02 -0.3679954E-03  0.1036223E+07  0.2704213E+01
  0.2357143E+00 -0.2593743E+06 -0.5825054E+01 -0.5230528E-01 -0.1074146E-02  0.1036030E+07  0.4809423E+01
  0.2666667E+00 -0.2595406E+06 -0.9990642E+01 -0.2929687E-01 -0.6081983E-03  0.1036591E+07  0.8284335E+01
  0.2976190E+00 -0.2604871E+06 -0.1684939E+02  0.4060547E-01  0.1112878E-02  0.1037257E+07  0.1405838E+02
  0.3285715E+00 -0.2617598E+06 -0.2810478E+02  0.2489173E-01  0.1239866E-02  0.1039298E+07  0.2357876E+02
  0.3595238E+00 -0.2635575E+06 -0.4651237E+02  0.1392087E-01  0.9999871E-03  0.1040495E+07  0.3928455E+02
  0.3904762E+00 -0.2636867E+06 -0.7635835E+02 -0.3219976E-01  0.9425282E-03  0.1042995E+07  0.6490470E+02
  0.4214286E+00 -0.2662761E+06 -0.1240599E+03 -0.1216565E-01 -0.9121895E-03  0.1043170E+07  0.1062212E+03
  0.4523810E+00 -0.2679847E+06 -0.1998561E+03  0.5396792E-02 -0.8201599E-04  0.1047773E+07  0.1724831E+03
  0.4833333E+00 -0.2696559E+06 -0.3140204E+03  0.8688039E-01  0.9468317E-02  0.1046515E+07  0.2730571E+03
  0.5142857E+00 -0.2711762E+06 -0.4848448E+03 -0.8402507E-01 -0.1279831E-01  0.1049046E+07  0.4251517E+03
  0.5452381E+00 -0.2737139E+06 -0.7328040E+03 -0.1947794E-01 -0.5068779E-02  0.1052214E+07  0.6476198E+03
  0.5761905E+00 -0.2774232E+06 -0.1082502E+04 -0.1483003E-02  0.5581856E-02  0.1055102E+07  0.9660156E+03
  0.6071429E+00 -0.2795647E+06 -0.1568699E+04  0.4081456E-01  0.7374763E-02  0.1060036E+07  0.1413910E+04
  0.6380953E+00 -0.2815136E+06 -0.2220905E+04 -0.3233041E-01 -0.2403259E-03  0.1059349E+07  0.2016688E+04
  0.6690477E+00 -0.2857792E+06 -0.3092796E+04  0.4762045E-01  0.2746582E-01  0.1064536E+07  0.2836258E+04
  0.7000000E+00 -0.2895420E+06 -0.4249037E+04 -0.8196149E-02  0.3082275E-02  0.1070610E+07  0.3934428E+04
  0.7309524E+00 -0.2931592E+06 -0.5747829E+04  0.3106232E-01  0.1059723E-01  0.1073102E+07  0.5370293E+04
  0.7619048E+00 -0.2979617E+06 -0.7671737E+04  0.5351257E-01  0.2786255E-01  0.1078193E+07  0.7249577E+04
  0.7928572E+00 -0.3013806E+06 -0.1009947E+05 -0.3725893E-01 -0.3433228E-03  0.1082252E+07  0.9635698E+04
  0.8238096E+00 -0.3052459E+06 -0.1313954E+05  0.2489387E-01  0.4539490E-02  0.1091128E+07  0.1267339E+05
  0.8547620E+00 -0.3100768E+06 -0.1688122E+05 -0.2856241E-01  0.3494263E-02  0.1091246E+07  0.1636827E+05
  0.8857143E+00 -0.3161302E+06 -0.2150252E+05  0.3417969E-01  0.1235962E-01  0.1098893E+07  0.2108778E+05
  0.9166667E+00 -0.3206948E+06 -0.2711078E+05  0.2982954E-01  0.2145386E-01  0.1104638E+07  0.2686434E+05
  0.9476191E+00 -0.3251148E+06 -0.3387059E+05 -0.3606902E-02  0.1129150E-02  0.1114703E+07  0.3399804E+05
  0.9785714E+00 -0.3285428E+06 -0.4179340E+05  0.4291172E-01  0.2545166E-01  0.1114302E+07  0.4227100E+05
  0.1009524E+01 -0.3329602E+06 -0.5106551E+05 -0.4111236E-02 -0.4541016E-01  0.1119990E+07  0.5219921E+05
  0.1040476E+01 -0.3359447E+06 -0.6167852E+05 -0.2346432E-03 -0.6622314E-02  0.1124563E+07  0.6365768E+05
  0.1071429E+01 -0.3383791E+06 -0.7370327E+05 -0.4352214E-01 -0.5822754E-01  0.1129179E+07  0.7660976E+05
  0.1102381E+01 -0.3400639E+06 -0.8731810E+05 -0.1107333E-01 -0.1470947E-01  0.1134604E+07  0.9167366E+05
  0.1133333E+01 -0.3401875E+06 -0.1022047E+06 -0.1034007E-01 -0.7995605E-02  0.1130583E+07  0.1079123E+06
  0.1164286E+01 -0.3406076E+06 -0.1185553E+06 -0.5451974E-02  0.1739502E-01  0.1132579E+07  0.1264551E+06
  0.1195238E+01 -0.3386329E+06 -0.1359122E+06 -0.1327697E-01 -0.1867676E-01  0.1132152E+07  0.1464200E+06
  0.1226190E+01 -0.3349504E+06 -0.1539673E+06  0.1553019E-01 -0.2575684E-01  0.1129548E+07  0.1670778E+06
  0.1257143E+01 -0.3301293E+06 -0.1727648E+06 -0.1767245E-01 -0.1940918E-01  0.1128682E+07  0.1892823E+06
  0.1288095E+01 -0.3238255E+06 -0.1916695E+06  0.6444229E-02  0.5615234E-02  0.1120965E+07  0.2114013E+06
  0.1319048E+01 -0.3160995E+06 -0.2103119E+06 -0.1850885E-03  0.1098633E-02  0.1109449E+07  0.2329844E+06
  0.1350000E+01 -0.3084339E+06 -0.2288012E+06  0.2206308E-01  0.2441406E-02  0.1102439E+07  0.2557698E+06
  0.1380952E+01 -0.2989148E+06 -0.2461257E+06  0.1873990E-01 -0.1123047E-01  0.1092471E+07  0.2769368E+06
  0.1411905E+01 -0.2874953E+06 -0.2624268E+06  0.2801236E-01  0.1696777E-01  0.1080602E+07  0.2974660E+06
  0.1442857E+01 -0.2763168E+06 -0.2779077E+06 -0.2571937E-01  0.5737305E-02  0.1071574E+07  0.3185080E+06
  0.1473810E+01 -0.2645883E+06 -0.2916715E+06 -0.1424614E-01  0.2441406E-02  0.1059544E+07  0.3368028E+06
  0.1504762E+01 -0.2525701E+06 -0.3029805E+06 -0.1135717E-01 -0.1245117E-01  0.1040787E+07  0.3489376E+06
  0.1535714E+01 -0.2415220E+06 -0.3135931E+06 -0.3847202E-01 -0.4992676E-01  0.1027187E+07  0.3629372E+06
  0.1566667E+01 -0.2308102E+06 -0.3229247E+06 -0.7480053E-02 -0.7934570E-02  0.1015562E+07  0.3769371E+06
  0.1597619E+01 -0.2195760E+06 -0.3302044E+06  0.2200540E-01  0.3649902E-01  0.1002310E+07  0.3875493E+06
  0.1628572E+01 -0.2083938E+06 -0.3359258E+06  0.1828913E-01 -0.1184082E-01  0.9891816E+06  0.3960755E+06
  0.1659524E+01 -0.1979183E+06 -0.3411065E+06  0.1206342E-01 -0.1013184E-01  0.9792783E+06  0.4068152E+06
  0.1690476E+01 -0.1877009E+06 -0.3451980E+06 -0.3466109E-02  0.1110840E-01  0.9697340E+06  0.4170529E+06
  0.1721429E+01 -0.1780047E+06 -0.3464975E+06 -0.5672977E-02  0.8422852E-02  0.9541042E+06  0.4157074E+06
  0.1752381E+01 -0.1692038E+06 -0.3471448E+06 -0.6130053E-02 -0.1867676E-01  0.9399153E+06  0.4131381E+06
  0.1783333E+01 -0.1617422E+06 -0.3484871E+06  0.9035485E-02 -0.8911133E-02  0.9306752E+06  0.4172762E+06
  0.1814286E+01 -0.1543586E+06 -0.3490060E+06  0.1318744E-01 -0.2319336E-02  0.9217732E+06  0.4210939E+06
  0.1845238E+01 -0.1471316E+06 -0.3484623E+06  0.3704637E-02 -0.3417969E-02  0.9126572E+06  0.4221137E+06
  0.1876190E+01 -0.1397842E+06 -0.3465360E+06 -0.1093056E-01  0.4272461E-02  0.9031025E+06  0.4206702E+06
  0.1907143E+01 -0.1329377E+06 -0.3450331E+06  0.9729050E-02  0.1629639E-01  0.8954702E+06  0.4242994E+06
  0.1938095E+01 -0.1262759E+06 -0.3433507E+06  0.3779081E-01  0.2258301E-01  0.8883579E+06  0.4290548E+06
  0.1969048E+01 -0.1201189E+06 -0.3399948E+06  0.1363881E-01  0.3137207E-01  0.8796604E+06  0.4241563E+06
  0.2000000E+01 -0.1145082E+06 -0.3349999E+06  0.1904297E-01  0.1483154E-01  0.8703256E+06  0.4103386E+06
