VARIABLES="w (rad/s)"
"abs(F   1   1)" "angle(F   1   1)"
"abs(F   1   2)" "angle(F   1   2)"
"abs(F   1   3)" "angle(F   1   3)"
Zone t="Diffraction force - beta =   0.000 deg",I=    64,F=POINT
  0.5000000E-01  0.3994359E+04 -0.1570794E+01  0.2049706E+03 -0.3079242E+01  0.9245790E+04  0.1570798E+01
  0.8095238E-01  0.6545955E+04 -0.1570790E+01  0.5297476E+03 -0.3076844E+01  0.1511888E+05  0.1570802E+01
  0.1119048E+00  0.9136115E+04 -0.1570784E+01  0.1004637E+04 -0.3074030E+01  0.2107646E+05  0.1570807E+01
  0.1428571E+00  0.1180936E+05 -0.1570775E+01  0.1631539E+04 -0.3070581E+01  0.2722216E+05  0.1570815E+01
  0.1738095E+00  0.1459423E+05 -0.1570761E+01  0.2412285E+04 -0.3066253E+01  0.3357714E+05  0.1570827E+01
  0.2047619E+00  0.1751350E+05 -0.1570742E+01  0.3353568E+04 -0.3060913E+01  0.4025387E+05  0.1570844E+01
  0.2357143E+00  0.2061567E+05 -0.1570713E+01  0.4459354E+04 -0.3054201E+01  0.4729398E+05  0.1570868E+01
  0.2666667E+00  0.2394339E+05 -0.1570671E+01  0.5734439E+04 -0.3046073E+01  0.5480216E+05  0.1570905E+01
  0.2976190E+00  0.2753029E+05 -0.1570609E+01  0.7188218E+04 -0.3035905E+01  0.6290812E+05  0.1570959E+01
  0.3285715E+00  0.3143274E+05 -0.1570517E+01  0.8825506E+04 -0.3023812E+01  0.7166796E+05  0.1571038E+01
  0.3595238E+00  0.3576652E+05 -0.1570379E+01  0.1064231E+05 -0.3009095E+01  0.8123344E+05  0.1571158E+01
  0.3904762E+00  0.4049151E+05 -0.1570174E+01  0.1265284E+05 -0.2991816E+01  0.9172709E+05  0.1571335E+01
  0.4214286E+00  0.4570998E+05 -0.1569873E+01  0.1482316E+05 -0.2972478E+01  0.1032325E+06  0.1571595E+01
  0.4523810E+00  0.5144273E+05 -0.1569433E+01  0.1716567E+05 -0.2950109E+01  0.1157761E+06  0.1571976E+01
  0.4833333E+00  0.5775320E+05 -0.1568825E+01  0.1963385E+05 -0.2927504E+01  0.1293767E+06  0.1572501E+01
  0.5142857E+00  0.6453543E+05 -0.1567980E+01  0.2223353E+05 -0.2903076E+01  0.1440153E+06  0.1573230E+01
  0.5452381E+00  0.7174545E+05 -0.1566856E+01  0.2495127E+05 -0.2878872E+01  0.1595287E+06  0.1574199E+01
  0.5761905E+00  0.7946329E+05 -0.1565401E+01  0.2775305E+05 -0.2855028E+01  0.1757791E+06  0.1575453E+01
  0.6071429E+00  0.8759206E+05 -0.1563524E+01  0.3063339E+05 -0.2830538E+01  0.1927010E+06  0.1577072E+01
  0.6380953E+00  0.9606888E+05 -0.1561188E+01  0.3361773E+05 -0.2807723E+01  0.2102806E+06  0.1579083E+01
  0.6690477E+00  0.1048671E+06 -0.1558293E+01  0.3667481E+05 -0.2785305E+01  0.2283509E+06  0.1581573E+01
  0.7000000E+00  0.1138918E+06 -0.1554738E+01  0.3977264E+05 -0.2762670E+01  0.2467262E+06  0.1584626E+01
  0.7309524E+00  0.1233543E+06 -0.1550470E+01  0.4292858E+05 -0.2740964E+01  0.2655032E+06  0.1588296E+01
  0.7619048E+00  0.1331525E+06 -0.1545374E+01  0.4613025E+05 -0.2719845E+01  0.2845001E+06  0.1592677E+01
  0.7928572E+00  0.1431538E+06 -0.1539335E+01  0.4935285E+05 -0.2699077E+01  0.3038493E+06  0.1597860E+01
  0.8238096E+00  0.1532579E+06 -0.1532243E+01  0.5260073E+05 -0.2678899E+01  0.3232403E+06  0.1603935E+01
  0.8547620E+00  0.1635231E+06 -0.1524010E+01  0.5586971E+05 -0.2659451E+01  0.3425744E+06  0.1610976E+01
  0.8857143E+00  0.1740729E+06 -0.1514557E+01  0.5914172E+05 -0.2640621E+01  0.3618838E+06  0.1619064E+01
  0.9166667E+00  0.1847388E+06 -0.1503768E+01  0.6239111E+05 -0.2622211E+01  0.3810123E+06  0.1628285E+01
  0.9476191E+00  0.1954673E+06 -0.1491553E+01  0.6561267E+05 -0.2604353E+01  0.3997534E+06  0.1638713E+01
  0.9785714E+00  0.2062021E+06 -0.1477823E+01  0.6880814E+05 -0.2587209E+01  0.4181727E+06  0.1650413E+01
  0.1009524E+01  0.2168178E+06 -0.1462512E+01  0.7198520E+05 -0.2570930E+01  0.4359734E+06  0.1663425E+01
  0.1040476E+01  0.2272497E+06 -0.1445562E+01  0.7513064E+05 -0.2555448E+01  0.4531833E+06  0.1677780E+01
  0.1071429E+01  0.2372077E+06 -0.1426918E+01  0.7822042E+05 -0.2540483E+01  0.4691083E+06  0.1693496E+01
  0.1102381E+01  0.2469328E+06 -0.1406657E+01  0.8127466E+05 -0.2526342E+01  0.4841443E+06  0.1710523E+01
  0.1133333E+01  0.2561211E+06 -0.1384793E+01  0.8425938E+05 -0.2512592E+01  0.4975438E+06  0.1728826E+01
  0.1164286E+01  0.2647784E+06 -0.1361408E+01  0.8719986E+05 -0.2499721E+01  0.5094101E+06  0.1748316E+01
  0.1195238E+01  0.2727761E+06 -0.1336575E+01  0.9007735E+05 -0.2487595E+01  0.5197100E+06  0.1768880E+01
  0.1226190E+01  0.2797242E+06 -0.1310281E+01  0.9289095E+05 -0.2476159E+01  0.5280428E+06  0.1790444E+01
  0.1257143E+01  0.2854051E+06 -0.1282615E+01  0.9565430E+05 -0.2465102E+01  0.5340895E+06  0.1812852E+01
  0.1288095E+01  0.2903877E+06 -0.1254192E+01  0.9834360E+05 -0.2455578E+01  0.5384795E+06  0.1835653E+01
  0.1319048E+01  0.2937184E+06 -0.1224835E+01  0.1010000E+06 -0.2446374E+01  0.5398725E+06  0.1858801E+01
  0.1350000E+01  0.2958044E+06 -0.1195093E+01  0.1036059E+06 -0.2437985E+01  0.5389221E+06  0.1881838E+01
  0.1380952E+01  0.2966232E+06 -0.1165171E+01  0.1061686E+06 -0.2430347E+01  0.5358140E+06  0.1904534E+01
  0.1411905E+01  0.2943003E+06 -0.1137102E+01  0.1086016E+06 -0.2422363E+01  0.5288843E+06  0.1924588E+01
  0.1442857E+01  0.2921244E+06 -0.1107623E+01  0.1110290E+06 -0.2415162E+01  0.5207255E+06  0.1945622E+01
  0.1473810E+01  0.2888152E+06 -0.1078770E+01  0.1134308E+06 -0.2408648E+01  0.5109668E+06  0.1965462E+01
  0.1504762E+01  0.2840347E+06 -0.1050768E+01  0.1157868E+06 -0.2402594E+01  0.4989063E+06  0.1983731E+01
  0.1535714E+01  0.2780788E+06 -0.1023866E+01  0.1181243E+06 -0.2397105E+01  0.4853465E+06  0.2000216E+01
  0.1566667E+01  0.2709784E+06 -0.9984447E+00  0.1204433E+06 -0.2391998E+01  0.4702390E+06  0.2014476E+01
  0.1597619E+01  0.2628680E+06 -0.9744591E+00  0.1227471E+06 -0.2386942E+01  0.4542154E+06  0.2026559E+01
  0.1628572E+01  0.2536979E+06 -0.9522219E+00  0.1250231E+06 -0.2381722E+01  0.4369802E+06  0.2036032E+01
  0.1659524E+01  0.2436202E+06 -0.9319012E+00  0.1272551E+06 -0.2376169E+01  0.4187763E+06  0.2042693E+01
  0.1690476E+01  0.2330364E+06 -0.9136859E+00  0.1294905E+06 -0.2370568E+01  0.4005939E+06  0.2046607E+01
  0.1721429E+01  0.2218359E+06 -0.8978883E+00  0.1316947E+06 -0.2364626E+01  0.3819995E+06  0.2047241E+01
  0.1752381E+01  0.2100348E+06 -0.8845415E+00  0.1338371E+06 -0.2358011E+01  0.3630978E+06  0.2044509E+01
  0.1783333E+01  0.1979481E+06 -0.8739889E+00  0.1359385E+06 -0.2350877E+01  0.3445209E+06  0.2038416E+01
  0.1814286E+01  0.1856055E+06 -0.8665627E+00  0.1379719E+06 -0.2342999E+01  0.3262030E+06  0.2028539E+01
  0.1845238E+01  0.1730749E+06 -0.8620291E+00  0.1398689E+06 -0.2333684E+01  0.3085216E+06  0.2015435E+01
  0.1876190E+01  0.1603764E+06 -0.8612468E+00  0.1415885E+06 -0.2323424E+01  0.2912771E+06  0.1998367E+01
  0.1907143E+01  0.1475276E+06 -0.8647091E+00  0.1430487E+06 -0.2311846E+01  0.2744036E+06  0.1976953E+01
  0.1938095E+01  0.1348475E+06 -0.8730183E+00  0.1443021E+06 -0.2299292E+01  0.2586261E+06  0.1952093E+01
  0.1969048E+01  0.1223518E+06 -0.8872578E+00  0.1452878E+06 -0.2285942E+01  0.2437450E+06  0.1923203E+01
  0.2000000E+01  0.1099249E+06 -0.9089379E+00  0.1459105E+06 -0.2271801E+01  0.2295178E+06  0.1889818E+01
