VARIABLES="w (rad/s)"
"abs(F   1   1)" "angle(F   1   1)"
"abs(F   1   2)" "angle(F   1   2)"
"abs(F   1   3)" "angle(F   1   3)"
Zone t="Diffraction force - beta =   0.000 deg",I=    64,F=POINT
  0.5000000E-01  0.8595277E+03 -0.1570795E+01  0.1235733E+03 -0.3090305E+01  0.8436432E+03  0.1570797E+01
  0.8095238E-01  0.1405105E+04 -0.1570792E+01  0.3203085E+03 -0.3088466E+01  0.1376207E+04  0.1570798E+01
  0.1119048E+00  0.1958096E+04 -0.1570788E+01  0.6085958E+03 -0.3086232E+01  0.1917497E+04  0.1570799E+01
  0.1428571E+00  0.2529138E+04 -0.1570782E+01  0.9889000E+03 -0.3083387E+01  0.2469203E+04  0.1570801E+01
  0.1738095E+00  0.3118779E+04 -0.1570773E+01  0.1463285E+04 -0.3079825E+01  0.3038357E+04  0.1570804E+01
  0.2047619E+00  0.3738863E+04 -0.1570759E+01  0.2033739E+04 -0.3075351E+01  0.3627044E+04  0.1570808E+01
  0.2357143E+00  0.4389489E+04 -0.1570740E+01  0.2703938E+04 -0.3069730E+01  0.4250827E+04  0.1570814E+01
  0.2666667E+00  0.5085174E+04 -0.1570711E+01  0.3475549E+04 -0.3062880E+01  0.4900283E+04  0.1570822E+01
  0.2976190E+00  0.5833933E+04 -0.1570669E+01  0.4351700E+04 -0.3054240E+01  0.5595800E+04  0.1570834E+01
  0.3285715E+00  0.6640452E+04 -0.1570606E+01  0.5339749E+04 -0.3043985E+01  0.6346783E+04  0.1570851E+01
  0.3595238E+00  0.7520975E+04 -0.1570513E+01  0.6433062E+04 -0.3031438E+01  0.7147076E+04  0.1570877E+01
  0.3904762E+00  0.8487083E+04 -0.1570374E+01  0.7638126E+04 -0.3016604E+01  0.8008271E+04  0.1570914E+01
  0.4214286E+00  0.9540248E+04 -0.1570171E+01  0.8940596E+04 -0.2999957E+01  0.8955907E+04  0.1570966E+01
  0.4523810E+00  0.1068223E+05 -0.1569874E+01  0.1035157E+05 -0.2980771E+01  0.9964967E+04  0.1571039E+01
  0.4833333E+00  0.1192100E+05 -0.1569464E+01  0.1183550E+05 -0.2961202E+01  0.1102169E+05  0.1571135E+01
  0.5142857E+00  0.1324933E+05 -0.1568899E+01  0.1339626E+05 -0.2939947E+01  0.1213787E+05  0.1571261E+01
  0.5452381E+00  0.1464031E+05 -0.1568149E+01  0.1503590E+05 -0.2918890E+01  0.1332270E+05  0.1571419E+01
  0.5761905E+00  0.1608196E+05 -0.1567179E+01  0.1673083E+05 -0.2898108E+01  0.1453762E+05  0.1571610E+01
  0.6071429E+00  0.1758575E+05 -0.1565937E+01  0.1847428E+05 -0.2876670E+01  0.1572859E+05  0.1571836E+01
  0.6380953E+00  0.1913528E+05 -0.1564404E+01  0.2027684E+05 -0.2856489E+01  0.1692638E+05  0.1572087E+01
  0.6690477E+00  0.2069202E+05 -0.1562512E+01  0.2211729E+05 -0.2836482E+01  0.1814548E+05  0.1572363E+01
  0.7000000E+00  0.2225244E+05 -0.1560204E+01  0.2399531E+05 -0.2816509E+01  0.1936385E+05  0.1572659E+01
  0.7309524E+00  0.2381997E+05 -0.1557453E+01  0.2590923E+05 -0.2797279E+01  0.2053138E+05  0.1572952E+01
  0.7619048E+00  0.2538892E+05 -0.1554200E+01  0.2783404E+05 -0.2778245E+01  0.2164568E+05  0.1573224E+01
  0.7928572E+00  0.2694820E+05 -0.1550393E+01  0.2976503E+05 -0.2759450E+01  0.2270859E+05  0.1573450E+01
  0.8238096E+00  0.2847556E+05 -0.1545979E+01  0.3170396E+05 -0.2741175E+01  0.2374659E+05  0.1573601E+01
  0.8547620E+00  0.2994585E+05 -0.1540906E+01  0.3364786E+05 -0.2723606E+01  0.2476959E+05  0.1573642E+01
  0.8857143E+00  0.3134408E+05 -0.1535130E+01  0.3557639E+05 -0.2706516E+01  0.2574309E+05  0.1573529E+01
  0.9166667E+00  0.3267796E+05 -0.1528641E+01  0.3748546E+05 -0.2689926E+01  0.2662808E+05  0.1573199E+01
  0.9476191E+00  0.3393611E+05 -0.1521425E+01  0.3935526E+05 -0.2673734E+01  0.2742888E+05  0.1572597E+01
  0.9785714E+00  0.3510072E+05 -0.1513472E+01  0.4118435E+05 -0.2658129E+01  0.2816134E+05  0.1571661E+01
  0.1009524E+01  0.3613505E+05 -0.1504752E+01  0.4295916E+05 -0.2643052E+01  0.2885106E+05  0.1570336E+01
  0.1040476E+01  0.3703429E+05 -0.1495294E+01  0.4468851E+05 -0.2628881E+01  0.2950173E+05  0.1568557E+01
  0.1071429E+01  0.3776100E+05 -0.1485089E+01  0.4635761E+05 -0.2615516E+01  0.3012168E+05  0.1566277E+01
  0.1102381E+01  0.3830809E+05 -0.1474214E+01  0.4796594E+05 -0.2603068E+01  0.3069968E+05  0.1563464E+01
  0.1133333E+01  0.3866232E+05 -0.1462758E+01  0.4949817E+05 -0.2591298E+01  0.3123864E+05  0.1560120E+01
  0.1164286E+01  0.3879331E+05 -0.1450789E+01  0.5094282E+05 -0.2580104E+01  0.3173173E+05  0.1556244E+01
  0.1195238E+01  0.3871096E+05 -0.1438499E+01  0.5230354E+05 -0.2569827E+01  0.3220105E+05  0.1551904E+01
  0.1226190E+01  0.3838507E+05 -0.1425992E+01  0.5357343E+05 -0.2560509E+01  0.3266492E+05  0.1547200E+01
  0.1257143E+01  0.3780273E+05 -0.1413376E+01  0.5474402E+05 -0.2551826E+01  0.3314864E+05  0.1542306E+01
  0.1288095E+01  0.3696314E+05 -0.1401198E+01  0.5581550E+05 -0.2544809E+01  0.3363567E+05  0.1537423E+01
  0.1319048E+01  0.3584845E+05 -0.1389446E+01  0.5677531E+05 -0.2538375E+01  0.3418053E+05  0.1532885E+01
  0.1350000E+01  0.3444949E+05 -0.1378563E+01  0.5762029E+05 -0.2532869E+01  0.3477111E+05  0.1528936E+01
  0.1380952E+01  0.3277874E+05 -0.1369116E+01  0.5836147E+05 -0.2528731E+01  0.3541347E+05  0.1525892E+01
  0.1411905E+01  0.3083953E+05 -0.1361573E+01  0.5896644E+05 -0.2524205E+01  0.3612486E+05  0.1524131E+01
  0.1442857E+01  0.2864019E+05 -0.1356896E+01  0.5948987E+05 -0.2522124E+01  0.3690569E+05  0.1523928E+01
  0.1473810E+01  0.2618487E+05 -0.1356357E+01  0.5990827E+05 -0.2521346E+01  0.3777286E+05  0.1525675E+01
  0.1504762E+01  0.2349337E+05 -0.1361914E+01  0.6022339E+05 -0.2521866E+01  0.3872946E+05  0.1529613E+01
  0.1535714E+01  0.2058324E+05 -0.1376662E+01  0.6043407E+05 -0.2523686E+01  0.3978034E+05  0.1535932E+01
  0.1566667E+01  0.1749594E+05 -0.1406287E+01  0.6055549E+05 -0.2526929E+01  0.4092981E+05  0.1544789E+01
  0.1597619E+01  0.1427466E+05 -0.1461793E+01  0.6059198E+05 -0.2531719E+01  0.4215944E+05  0.1556149E+01
  0.1628572E+01  0.1101684E+05 -0.1567188E+01  0.6054173E+05 -0.2537768E+01  0.4348807E+05  0.1570075E+01
  0.1659524E+01  0.7941626E+04 -0.1782393E+01  0.6042491E+05 -0.2545383E+01  0.4490759E+05  0.1586424E+01
  0.1690476E+01  0.5705769E+04 -0.2244328E+01  0.6024575E+05 -0.2554301E+01  0.4641818E+05  0.1605095E+01
  0.1721429E+01  0.5732804E+04 -0.2944132E+01  0.6001474E+05 -0.2564544E+01  0.4800117E+05  0.1625825E+01
  0.1752381E+01  0.8142954E+04  0.2866716E+01  0.5974239E+05 -0.2575846E+01  0.4966002E+05  0.1648404E+01
  0.1783333E+01  0.1158933E+05  0.2644373E+01  0.5941328E+05 -0.2587587E+01  0.5139778E+05  0.1672597E+01
  0.1814286E+01  0.1541493E+05  0.2533358E+01  0.5906454E+05 -0.2600016E+01  0.5319424E+05  0.1698027E+01
  0.1845238E+01  0.1939634E+05  0.2471965E+01  0.5868111E+05 -0.2612900E+01  0.5504577E+05  0.1724482E+01
  0.1876190E+01  0.2342655E+05  0.2435939E+01  0.5824064E+05 -0.2625566E+01  0.5695157E+05  0.1751634E+01
  0.1907143E+01  0.2745541E+05  0.2413834E+01  0.5774880E+05 -0.2638065E+01  0.5890127E+05  0.1779171E+01
  0.1938095E+01  0.3144428E+05  0.2400165E+01  0.5718684E+05 -0.2650006E+01  0.6086458E+05  0.1806925E+01
  0.1969048E+01  0.3535811E+05  0.2391766E+01  0.5653604E+05 -0.2661281E+01  0.6285847E+05  0.1834821E+01
  0.2000000E+01  0.3917250E+05  0.2387052E+01  0.5576771E+05 -0.2671390E+01  0.6480970E+05  0.1862501E+01
