VARIABLES="w (rad/s)"
"A   1   1" "B   1   1"
"A   1   2" "B   1   2"
"A   1   3" "B   1   3"
Zone t="Motion of body    1 in DoF   1",I=    64,F=POINT
  0.5000000E-01  0.3028573E+05  0.1275451E-02  0.1087189E-02  0.2184010E-05 -0.1717789E+05 -0.8902280E-04
  0.8095238E-01  0.3031078E+05  0.5544546E-02 -0.7657444E-03  0.2571542E-06 -0.1712282E+05 -0.4182105E-03
  0.1119048E+00  0.3053011E+05  0.1559134E-01 -0.1772617E-02 -0.1040078E-04 -0.1728480E+05 -0.1153456E-02
  0.1428571E+00  0.3053501E+05  0.3511000E-01 -0.2576828E-02 -0.3613209E-04 -0.1727721E+05 -0.2642124E-02
  0.1738095E+00  0.3062934E+05  0.7011664E-01  0.2940975E-02  0.2281083E-04 -0.1731545E+05 -0.5424403E-02
  0.2047619E+00  0.3060314E+05  0.1295975E+00  0.1192315E-02  0.2313266E-04 -0.1731592E+05 -0.1029539E-01
  0.2357143E+00  0.3074821E+05  0.2290048E+00 -0.1844926E-02 -0.1262454E-04 -0.1737445E+05 -0.1867404E-01
  0.2666667E+00  0.3085331E+05  0.3920308E+00  0.5664825E-02  0.1105894E-03 -0.1742288E+05 -0.3277680E-01
  0.2976190E+00  0.3079966E+05  0.6585325E+00 -0.1820068E-02 -0.6283354E-04 -0.1735873E+05 -0.5584810E-01
  0.3285715E+00  0.3098450E+05  0.1095020E+01 -0.1149385E-02 -0.3193133E-04 -0.1748940E+05 -0.9671350E-01
  0.3595238E+00  0.3114185E+05  0.1806579E+01 -0.5941833E-03 -0.5532056E-05 -0.1751017E+05 -0.1641372E+00
  0.3904762E+00  0.3115358E+05  0.2954842E+01 -0.3126191E-03  0.3073737E-04 -0.1752198E+05 -0.2769929E+00
  0.4214286E+00  0.3128582E+05  0.4777334E+01 -0.2679340E-02 -0.1303777E-03 -0.1757337E+05 -0.4644722E+00
  0.4523810E+00  0.3154924E+05  0.7668979E+01  0.1753957E-02  0.2974272E-04 -0.1770216E+05 -0.7783720E+00
  0.4833333E+00  0.3163643E+05  0.1198891E+02 -0.1310151E-02 -0.3637373E-04 -0.1770189E+05 -0.1258207E+01
  0.5142857E+00  0.3174102E+05  0.1843713E+02  0.1661513E-02  0.2654791E-03 -0.1771099E+05 -0.1998464E+01
  0.5452381E+00  0.3196607E+05  0.2772576E+02  0.1986974E-02  0.1701117E-03 -0.1784630E+05 -0.3141600E+01
  0.5761905E+00  0.3221435E+05  0.4073563E+02  0.3614819E-02  0.5565882E-03 -0.1791337E+05 -0.4795395E+01
  0.6071429E+00  0.3245440E+05  0.5875445E+02  0.1407399E-02  0.2409220E-03 -0.1801484E+05 -0.7201725E+01
  0.6380953E+00  0.3256074E+05  0.8276536E+02  0.5727170E-02  0.1047254E-02 -0.1801316E+05 -0.1048740E+02
  0.6690477E+00  0.3275077E+05  0.1147025E+03  0.2474530E-02  0.3693104E-03 -0.1806693E+05 -0.1506812E+02
  0.7000000E+00  0.3317186E+05  0.1569974E+03  0.2027239E-02  0.1816750E-03 -0.1828459E+05 -0.2159380E+02
  0.7309524E+00  0.3348684E+05  0.2113866E+03  0.1169012E-02  0.2477169E-03 -0.1839289E+05 -0.3023139E+02
  0.7619048E+00  0.3375433E+05  0.2808013E+03  0.1001358E-03 -0.4625320E-04 -0.1846375E+05 -0.4166897E+02
  0.7928572E+00  0.3406232E+05  0.3686974E+03  0.4176234E-02  0.1188278E-02 -0.1855162E+05 -0.5667955E+02
  0.8238096E+00  0.3433027E+05  0.4784386E+03  0.2796856E-02  0.1223087E-02 -0.1867282E+05 -0.7638062E+02
  0.8547620E+00  0.3471237E+05  0.6148641E+03 -0.1553081E-02 -0.2660751E-03 -0.1881897E+05 -0.1017604E+03
  0.8857143E+00  0.3517977E+05  0.7832805E+03  0.1860588E-02  0.6103516E-03 -0.1899838E+05 -0.1345981E+03
  0.9166667E+00  0.3568054E+05  0.9892668E+03 -0.1664595E-02 -0.1225471E-02 -0.1919147E+05 -0.1763967E+03
  0.9476191E+00  0.3611500E+05  0.1238056E+04  0.3220448E-03  0.4663467E-03 -0.1938941E+05 -0.2293888E+03
  0.9785714E+00  0.3650912E+05  0.1536291E+04  0.1637257E-02  0.1195908E-02 -0.1952371E+05 -0.2945415E+03
  0.1009524E+01  0.3688445E+05  0.1891105E+04  0.4383303E-03  0.7553101E-03 -0.1965192E+05 -0.3747269E+03
  0.1040476E+01  0.3733300E+05  0.2311609E+04  0.1466520E-02  0.1888275E-02 -0.1980313E+05 -0.4720721E+03
  0.1071429E+01  0.3790484E+05  0.2807624E+04 -0.8544922E-03  0.1907349E-03 -0.2010709E+05 -0.5931436E+03
  0.1102381E+01  0.3847091E+05  0.3386913E+04  0.1356483E-02  0.2441406E-03 -0.2038402E+05 -0.7396045E+03
  0.1133333E+01  0.3900611E+05  0.4059620E+04  0.5654728E-03  0.1869202E-03 -0.2061132E+05 -0.9155372E+03
  0.1164286E+01  0.3950971E+05  0.4835603E+04  0.8649767E-03 -0.6446838E-03 -0.2084171E+05 -0.1126354E+04
  0.1195238E+01  0.4002612E+05  0.5726952E+04  0.3319242E-03 -0.1060486E-02 -0.2106999E+05 -0.1375297E+04
  0.1226190E+01  0.4052447E+05  0.6743029E+04  0.4977625E-03 -0.1014709E-02 -0.2134909E+05 -0.1671929E+04
  0.1257143E+01  0.4087882E+05  0.7885139E+04 -0.1893477E-02 -0.1823425E-02 -0.2156629E+05 -0.2014406E+04
  0.1288095E+01  0.4127293E+05  0.9167086E+04 -0.1042449E-02 -0.2593994E-03 -0.2179760E+05 -0.2410650E+04
  0.1319048E+01  0.4157323E+05  0.1058867E+05 -0.1688933E-02 -0.2845764E-02 -0.2198801E+05 -0.2860712E+04
  0.1350000E+01  0.4191440E+05  0.1215862E+05 -0.2260561E-04  0.4501343E-03 -0.2223028E+05 -0.3367164E+04
  0.1380952E+01  0.4224101E+05  0.1388644E+05 -0.4419787E-04 -0.8392334E-03 -0.2245002E+05 -0.3936527E+04
  0.1411905E+01  0.4236864E+05  0.1576496E+05  0.4755184E-03 -0.5203247E-02 -0.2263180E+05 -0.4586208E+04
  0.1442857E+01  0.4248333E+05  0.1779800E+05  0.8460318E-04  0.1129150E-02 -0.2284351E+05 -0.5318864E+04
  0.1473810E+01  0.4248016E+05  0.1996849E+05  0.2484791E-03  0.4837036E-02 -0.2299430E+05 -0.6121801E+04
  0.1504762E+01  0.4236938E+05  0.2226805E+05  0.1216840E-03 -0.7934570E-03 -0.2310109E+05 -0.7002605E+04
  0.1535714E+01  0.4214152E+05  0.2467296E+05 -0.1550009E-02 -0.5538940E-02 -0.2317113E+05 -0.7948646E+04
  0.1566667E+01  0.4186573E+05  0.2716868E+05 -0.3701068E-03 -0.3616333E-02 -0.2321558E+05 -0.8931185E+04
  0.1597619E+01  0.4149413E+05  0.2974644E+05 -0.1719172E-03  0.1190186E-02 -0.2320683E+05 -0.9973912E+04
  0.1628572E+01  0.4101714E+05  0.3239212E+05 -0.2061275E-03  0.3448486E-02 -0.2320817E+05 -0.1111205E+05
  0.1659524E+01  0.4039263E+05  0.3506492E+05 -0.9010785E-03 -0.3967285E-03 -0.2316450E+05 -0.1231261E+05
  0.1690476E+01  0.3963823E+05  0.3772805E+05 -0.9026325E-03 -0.4180908E-02 -0.2304416E+05 -0.1354159E+05
  0.1721429E+01  0.3877897E+05  0.4034679E+05 -0.1063683E-03 -0.6469727E-02 -0.2284943E+05 -0.1478016E+05
  0.1752381E+01  0.3783951E+05  0.4289706E+05  0.1253875E-02 -0.0000000E+00 -0.2260504E+05 -0.1601347E+05
  0.1783333E+01  0.3680830E+05  0.4537245E+05 -0.5989432E-03  0.2441406E-03 -0.2232904E+05 -0.1728938E+05
  0.1814286E+01  0.3572781E+05  0.4775857E+05  0.1261554E-03  0.3021240E-02 -0.2199558E+05 -0.1852447E+05
  0.1845238E+01  0.3460443E+05  0.5003102E+05  0.2563476E-03 -0.4882812E-03 -0.2162046E+05 -0.1972574E+05
  0.1876190E+01  0.3345260E+05  0.5218248E+05 -0.2439857E-03 -0.2777100E-02 -0.2125819E+05 -0.2093862E+05
  0.1907143E+01  0.3227813E+05  0.5419369E+05 -0.4080441E-03  0.7049561E-02 -0.2090778E+05 -0.2215979E+05
  0.1938095E+01  0.3104704E+05  0.5602270E+05 -0.1133724E-02  0.3112793E-02 -0.2048605E+05 -0.2332248E+05
  0.1969048E+01  0.2979577E+05  0.5768571E+05 -0.7671831E-03  0.4272461E-02 -0.2001927E+05 -0.2444561E+05
  0.2000000E+01  0.2853741E+05  0.5917311E+05  0.8392334E-03 -0.4241943E-02 -0.1950980E+05 -0.2549368E+05
Zone t="Motion of body    1 in DoF   2",I=    64,F=POINT
  0.5000000E-01  0.3814697E-04 -0.2384186E-05  0.6160666E+05  0.9672948E+02 -0.3051758E-03  0.3099442E-05
  0.8095238E-01 -0.4241046E-03 -0.7152557E-06  0.6112771E+05  0.1604446E+03 -0.1696418E-02 -0.2861023E-05
  0.1119048E+00 -0.1908972E-02 -0.3099442E-05  0.6088569E+05  0.2298862E+03  0.5454206E-03 -0.4100800E-04
  0.1428571E+00 -0.3738403E-03 -0.7629395E-05  0.6077468E+05  0.3077203E+03 -0.3845215E-02  0.6675720E-05
  0.1738095E+00 -0.1185169E-02  0.1001358E-04  0.6080366E+05  0.3973293E+03 -0.8779029E-03 -0.1907349E-05
  0.2047619E+00  0.1117795E-03  0.1525879E-04  0.6079238E+05  0.5029614E+03 -0.2086551E-02 -0.3433228E-04
  0.2357143E+00 -0.6473425E-03 -0.1907349E-04  0.6090540E+05  0.6305229E+03 -0.1553622E-02 -0.7629395E-05
  0.2666667E+00  0.1058578E-02  0.2098083E-04  0.6105957E+05  0.7851960E+03  0.5722045E-03 -0.0000000E+00
  0.2976190E+00  0.1691894E-02 -0.3051758E-04  0.6122703E+05  0.9780956E+03 -0.2050781E-03 -0.1525879E-04
  0.3285715E+00  0.6269371E-03  0.4959106E-04  0.6143932E+05  0.1215635E+04 -0.1300314E-02  0.1716614E-03
  0.3595238E+00 -0.1782550E-02  0.2861023E-04  0.6164320E+05  0.1511227E+04  0.6790666E-03 -0.1678467E-03
  0.3904762E+00 -0.9378572E-03 -0.2479553E-04  0.6181469E+05  0.1875788E+04 -0.7815477E-03 -0.3051758E-04
  0.4214286E+00 -0.1593121E-02  0.9536743E-04  0.6196742E+05  0.2305876E+04 -0.4344875E-03 -0.2288818E-03
  0.4523810E+00  0.2023797E-03 -0.6484985E-04  0.6195795E+05  0.2824451E+04 -0.8095189E-03  0.2593994E-03
  0.4833333E+00 -0.5366884E-03 -0.1564026E-03  0.6199944E+05  0.3388847E+04 -0.1136517E-02  0.3356934E-03
  0.5142857E+00  0.0000000E+00 -0.1220703E-03  0.6173475E+05  0.4028206E+04  0.3560384E-03  0.3051758E-03
  0.5452381E+00  0.1035466E-02  0.2288818E-03  0.6150988E+05  0.4707258E+04 -0.4477688E-03  0.7629395E-04
  0.5761905E+00 -0.9533589E-03  0.2365112E-03  0.6121935E+05  0.5414277E+04  0.4237151E-03 -0.3356934E-03
  0.6071429E+00 -0.4548914E-02 -0.2593994E-03  0.6073219E+05  0.6168962E+04  0.2211627E-02  0.4730225E-03
  0.6380953E+00 -0.1195651E-03  0.1678467E-03  0.6033696E+05  0.6921468E+04  0.1147825E-02  0.1037598E-02
  0.6690477E+00  0.2006992E-02  0.1831055E-03  0.5983036E+05  0.7694880E+04 -0.2006992E-02  0.1525879E-03
  0.7000000E+00 -0.8719307E-03  0.2746582E-03  0.5919730E+05  0.8492933E+04  0.3487723E-03 -0.1831055E-03
  0.7309524E+00  0.4592547E-03 -0.6713867E-03  0.5864338E+05  0.9283507E+04 -0.5177053E-02  0.1800537E-02
  0.7619048E+00 -0.1041412E-02  0.3356934E-03  0.5806959E+05  0.1007357E+05 -0.2243042E-02 -0.4577637E-03
  0.7928572E+00  0.6543408E-03 -0.2136230E-03  0.5731696E+05  0.1086839E+05  0.2309438E-02 -0.4577637E-03
  0.8238096E+00  0.7779336E-03  0.1983643E-03  0.5660826E+05  0.1165094E+05  0.1778134E-02 -0.1129150E-02
  0.8547620E+00  0.1071090E-02  0.3967285E-03  0.5595380E+05  0.1240913E+05  0.1856557E-02 -0.1556396E-02
  0.8857143E+00  0.1998409E-02 -0.1220703E-03  0.5522130E+05  0.1314996E+05  0.1791677E-02  0.2868652E-02
  0.9166667E+00 -0.1764471E-02  0.3967285E-03  0.5442291E+05  0.1387064E+05 -0.1198509E-02 -0.3662109E-03
  0.9476191E+00 -0.3864537E-03 -0.0000000E+00  0.5365695E+05  0.1455699E+05 -0.7600257E-02  0.2258301E-02
  0.9785714E+00  0.1964708E-02 -0.6103516E-04  0.5293575E+05  0.1519718E+05 -0.9979471E-03  0.6103516E-03
  0.1009524E+01 -0.4534452E-03  0.1464844E-02  0.5223203E+05  0.1579236E+05  0.1692862E-02  0.6103516E-04
  0.1040476E+01 -0.6159383E-03  0.6408691E-03  0.5139294E+05  0.1636171E+05 -0.1055894E-02 -0.2624512E-02
  0.1071429E+01  0.2278646E-03  0.1312256E-02  0.5060706E+05  0.1688477E+05 -0.1822917E-02  0.4882812E-03
  0.1102381E+01  0.6090333E-03  0.1007080E-02  0.4987231E+05  0.1735166E+05 -0.2436133E-02 -0.3295898E-02
  0.1133333E+01 -0.2167646E-02 -0.1251221E-02  0.4919157E+05  0.1775635E+05 -0.6031710E-02  0.2441406E-03
  0.1164286E+01 -0.4062769E-03 -0.1220703E-02  0.4854961E+05  0.1810382E+05  0.3564752E-02  0.9094238E-02
  0.1195238E+01 -0.1187267E-02 -0.3173828E-02  0.4778728E+05  0.1841968E+05  0.1021305E-03  0.6652832E-02
  0.1226190E+01  0.4604303E-03 -0.1983643E-02  0.4707519E+05  0.1867962E+05 -0.3086127E-02  0.6774902E-02
  0.1257143E+01 -0.2026991E-02  0.2075195E-02  0.4642925E+05  0.1889916E+05  0.3884055E-03  0.1220703E-03
  0.1288095E+01 -0.2606122E-03 -0.3143311E-02  0.4582255E+05  0.1901793E+05  0.6633766E-03 -0.1220703E-03
  0.1319048E+01  0.9948510E-03  0.1403809E-02  0.4528945E+05  0.1908668E+05  0.1203076E-02 -0.2441406E-02
  0.1350000E+01  0.3051758E-03  0.1037598E-02  0.4476423E+05  0.1911427E+05 -0.3345631E-02  0.3173828E-02
  0.1380952E+01  0.1546925E-03  0.5187988E-03  0.4416609E+05  0.1910127E+05  0.2651872E-03 -0.2807617E-02
  0.1411905E+01 -0.5727835E-03 -0.1953125E-02  0.4361312E+05  0.1902881E+05 -0.2853110E-02  0.7690430E-02
  0.1442857E+01 -0.9782243E-03  0.8544922E-03  0.4313968E+05  0.1892836E+05 -0.1015238E-02  0.3112793E-02
  0.1473810E+01  0.2645267E-02 -0.1098633E-02  0.4271640E+05  0.1877233E+05  0.1325222E-02 -0.5065918E-02
  0.1504762E+01  0.1242191E-02 -0.2014160E-02  0.4234988E+05  0.1855728E+05 -0.8112267E-04  0.3662109E-03
  0.1535714E+01 -0.1987191E-04  0.3173828E-02  0.4205306E+05  0.1829931E+05 -0.3974382E-03 -0.1342773E-02
  0.1566667E+01  0.8278704E-03  0.2014160E-02  0.4170216E+05  0.1802097E+05  0.0000000E+00 -0.3356934E-02
  0.1597619E+01  0.2671880E-02  0.3051758E-03  0.4131957E+05  0.1769711E+05 -0.7640765E-03  0.1464844E-02
  0.1628572E+01  0.2670288E-03 -0.0000000E+00  0.4098943E+05  0.1735004E+05 -0.8994654E-03 -0.6103516E-03
  0.1659524E+01 -0.1497009E-03  0.4882812E-03  0.4073173E+05  0.1699005E+05 -0.5149020E-03 -0.2441406E-03
  0.1690476E+01  0.8744253E-03  0.6713867E-03  0.4051773E+05  0.1659771E+05 -0.1444212E-03  0.1586914E-02
  0.1721429E+01  0.3390490E-03  0.1586914E-02  0.4034888E+05  0.1616903E+05 -0.7800344E-03 -0.3540039E-02
  0.1752381E+01 -0.7553723E-03 -0.6347656E-02  0.4022951E+05  0.1571559E+05 -0.1462854E-02  0.1953125E-02
  0.1783333E+01  0.9754217E-03  0.1892090E-02  0.4016650E+05  0.1527167E+05  0.4791545E-03 -0.4455566E-02
  0.1814286E+01  0.5634939E-03  0.1770020E-02  0.3999531E+05  0.1477680E+05 -0.3296860E-02  0.2807617E-02
  0.1845238E+01 -0.8310626E-03  0.1403809E-02  0.3983977E+05  0.1425700E+05  0.1058468E-02  0.2502441E-02
  0.1876190E+01  0.3659786E-04  0.2075195E-02  0.3972113E+05  0.1373858E+05 -0.7156914E-03 -0.1342773E-02
  0.1907143E+01  0.9841062E-03  0.6469727E-02  0.3965678E+05  0.1325731E+05 -0.1472159E-02  0.1220703E-02
  0.1938095E+01  0.1102232E-02  0.2685547E-02  0.3962280E+05  0.1276170E+05 -0.5038775E-03  0.2258301E-02
  0.1969048E+01  0.6354447E-03 -0.1220703E-03  0.3961877E+05  0.1225961E+05  0.6199460E-04  0.2014160E-02
  0.2000000E+01 -0.9918213E-04 -0.2746582E-03  0.3964637E+05  0.1175737E+05  0.2441406E-03 -0.6408691E-02
Zone t="Motion of body    1 in DoF   3",I=    64,F=POINT
  0.5000000E-01 -0.1696961E+05 -0.8047420E-04  0.1163483E-01  0.2630741E-04  0.6824648E+05 -0.2731791E-04
  0.8095238E-01 -0.1691287E+05 -0.3610951E-03 -0.2874486E-02 -0.1023838E-04  0.6804831E+05  0.4067009E-04
  0.1119048E+00 -0.1716031E+05 -0.9393783E-03 -0.1124930E-02 -0.5265731E-05  0.6816795E+05  0.7076329E-04
  0.1428571E+00 -0.1712796E+05 -0.2110598E-02  0.1281738E-02  0.3542637E-04  0.6814429E+05  0.1455264E-03
  0.1738095E+00 -0.1714706E+05 -0.4404749E-02 -0.5135732E-02 -0.2878076E-04  0.6833534E+05  0.3411747E-03
  0.2047619E+00 -0.1716349E+05 -0.8448856E-02  0.7153888E-02  0.9228627E-04  0.6822843E+05  0.7658932E-03
  0.2357143E+00 -0.1723620E+05 -0.1540575E-01  0.3074877E-02  0.5906176E-04  0.6822980E+05  0.1290451E-02
  0.2666667E+00 -0.1728440E+05 -0.2708159E-01 -0.3948212E-02 -0.8640756E-04  0.6831662E+05  0.2299318E-02
  0.2976190E+00 -0.1720009E+05 -0.4679138E-01  0.2871094E-02  0.1309457E-03  0.6815598E+05  0.3836550E-02
  0.3285715E+00 -0.1735361E+05 -0.8035290E-01 -0.3018586E-02 -0.2818159E-04  0.6833504E+05  0.6583162E-02
  0.3595238E+00 -0.1737732E+05 -0.1374530E+00 -0.2291850E-02 -0.8023239E-04  0.6828423E+05  0.1206418E-01
  0.3904762E+00 -0.1738533E+05 -0.2337390E+00  0.3634197E-02  0.1041966E-03  0.6828577E+05  0.2153633E-01
  0.4214286E+00 -0.1740340E+05 -0.3940234E+00  0.2570718E-02  0.1713657E-03  0.6838789E+05  0.3758196E-01
  0.4523810E+00 -0.1760547E+05 -0.6585803E+00  0.5396793E-03  0.2073077E-03  0.6834420E+05  0.6680367E-01
  0.4833333E+00 -0.1752697E+05 -0.1077611E+01  0.7008519E-02  0.6924793E-03  0.6853040E+05  0.1141928E+00
  0.5142857E+00 -0.1757355E+05 -0.1725640E+01 -0.3234016E-02 -0.3422704E-03  0.6825141E+05  0.1879784E+00
  0.5452381E+00 -0.1770419E+05 -0.2710134E+01 -0.4701573E-02 -0.2676174E-03  0.6845177E+05  0.3055334E+00
  0.5761905E+00 -0.1776014E+05 -0.4165505E+01  0.1133438E-01  0.1225464E-02  0.6850228E+05  0.4898384E+00
  0.6071429E+00 -0.1790397E+05 -0.6268199E+01 -0.3769818E-02 -0.2951026E-03  0.6843670E+05  0.7759360E+00
  0.6380953E+00 -0.1782797E+05 -0.9233876E+01 -0.8752168E-02 -0.1743264E-02  0.6852152E+05  0.1177398E+01
  0.6690477E+00 -0.1786443E+05 -0.1334785E+02  0.1687698E-02  0.7215887E-03  0.6849289E+05  0.1749704E+01
  0.7000000E+00 -0.1815591E+05 -0.1902976E+02 -0.7019043E-02 -0.1896605E-02  0.6852830E+05  0.2609829E+01
  0.7309524E+00 -0.1823835E+05 -0.2678402E+02  0.2129272E-02  0.3645420E-03  0.6867676E+05  0.3836246E+01
  0.7619048E+00 -0.1825919E+05 -0.3720773E+02 -0.6328582E-02 -0.1610905E-02  0.6878015E+05  0.5573674E+01
  0.7928572E+00 -0.1837893E+05 -0.5083380E+02 -0.1000756E-01 -0.2211928E-02  0.6856148E+05  0.7873173E+01
  0.8238096E+00 -0.1847757E+05 -0.6863866E+02 -0.3704446E-04 -0.1216888E-02  0.6868393E+05  0.1101265E+02
  0.8547620E+00 -0.1858485E+05 -0.9183738E+02  0.4784204E-02  0.2396107E-03  0.6886696E+05  0.1502720E+02
  0.8857143E+00 -0.1877004E+05 -0.1216872E+03 -0.8097002E-02 -0.2375007E-02  0.6892716E+05  0.2074067E+02
  0.9166667E+00 -0.1901400E+05 -0.1596395E+03  0.4627575E-02  0.1397610E-02  0.6883305E+05  0.2837552E+02
  0.9476191E+00 -0.1920007E+05 -0.2078567E+03  0.1030543E-02 -0.5412102E-04  0.6899177E+05  0.3876366E+02
  0.9785714E+00 -0.1927714E+05 -0.2686632E+03 -0.2401310E-02 -0.1523256E-02  0.6911579E+05  0.5211308E+02
  0.1009524E+01 -0.1933981E+05 -0.3439245E+03 -0.1602173E-02 -0.4267693E-03  0.6923915E+05  0.6890907E+02
  0.1040476E+01 -0.1950904E+05 -0.4343459E+03 -0.2610405E-02 -0.2529144E-02  0.6905256E+05  0.8905674E+02
  0.1071429E+01 -0.1984726E+05 -0.5435885E+03 -0.2278646E-03 -0.5998611E-03  0.6918815E+05  0.1134493E+03
  0.1102381E+01 -0.2012619E+05 -0.6775995E+03  0.2657600E-02 -0.1438618E-02  0.6938940E+05  0.1460599E+03
  0.1133333E+01 -0.2031959E+05 -0.8425538E+03 -0.2908146E-02  0.4701614E-03  0.6957439E+05  0.1893038E+03
  0.1164286E+01 -0.2050904E+05 -0.1041020E+04 -0.3250215E-02 -0.5411148E-02  0.6977328E+05  0.2429698E+03
  0.1195238E+01 -0.2075044E+05 -0.1273912E+04 -0.5106527E-04 -0.2602577E-02  0.6967476E+05  0.3082310E+03
  0.1226190E+01 -0.2103804E+05 -0.1548890E+04 -0.7864647E-02 -0.6153107E-02  0.6972204E+05  0.3884960E+03
  0.1257143E+01 -0.2122689E+05 -0.1869916E+04 -0.8739124E-03  0.4749298E-03  0.6985391E+05  0.4839265E+03
  0.1288095E+01 -0.2140991E+05 -0.2244647E+04  0.3174731E-02  0.7324219E-03  0.7001297E+05  0.5984252E+03
  0.1319048E+01 -0.2154542E+05 -0.2675744E+04  0.6061650E-02  0.4476547E-02  0.7019871E+05  0.7319009E+03
  0.1350000E+01 -0.2177774E+05 -0.3153710E+04 -0.1175492E-02 -0.4108429E-02  0.7035589E+05  0.8727718E+03
  0.1380952E+01 -0.2203428E+05 -0.3690941E+04 -0.4110402E-02 -0.3540039E-02  0.7027704E+05  0.1037090E+04
  0.1411905E+01 -0.2222575E+05 -0.4320870E+04 -0.2982797E-02 -0.1186371E-02  0.7029144E+05  0.1249766E+04
  0.1442857E+01 -0.2243273E+05 -0.5012127E+04 -0.2199683E-02 -0.1911163E-02  0.7047827E+05  0.1494907E+04
  0.1473810E+01 -0.2256594E+05 -0.5780065E+04  0.2567618E-02  0.3124237E-02  0.7065291E+05  0.1774834E+04
  0.1504762E+01 -0.2263611E+05 -0.6629086E+04 -0.2433680E-03  0.4627228E-02  0.7082676E+05  0.2098275E+04
  0.1535714E+01 -0.2266624E+05 -0.7543838E+04  0.9935955E-03 -0.2342224E-02  0.7103557E+05  0.2451344E+04
  0.1566667E+01 -0.2272845E+05 -0.8484508E+04  0.3311482E-02  0.5416870E-03  0.7104220E+05  0.2784648E+04
  0.1597619E+01 -0.2275573E+05 -0.9482538E+04  0.4011401E-02  0.5973816E-02  0.7090565E+05  0.3153869E+04
  0.1628572E+01 -0.2278748E+05 -0.1055491E+05  0.4497327E-03 -0.4760742E-02  0.7091378E+05  0.3596330E+04
  0.1659524E+01 -0.2275351E+05 -0.1168698E+05 -0.7355743E-04  0.9208679E-02  0.7104500E+05  0.4095201E+04
  0.1690476E+01 -0.2263699E+05 -0.1286059E+05  0.2130213E-02  0.3517151E-02  0.7115771E+05  0.4622956E+04
  0.1721429E+01 -0.2243384E+05 -0.1405884E+05 -0.1914630E-02  0.7827759E-02  0.7120685E+05  0.5166525E+04
  0.1752381E+01 -0.2218272E+05 -0.1527482E+05 -0.4318901E-02  0.2220154E-02  0.7126688E+05  0.5720343E+04
  0.1783333E+01 -0.2188270E+05 -0.1650543E+05  0.2909152E-02  0.2731323E-02  0.7135883E+05  0.6337811E+04
  0.1814286E+01 -0.2157656E+05 -0.1768362E+05 -0.3128653E-02 -0.8316040E-02  0.7114562E+05  0.6881362E+04
  0.1845238E+01 -0.2124061E+05 -0.1883542E+05 -0.2150013E-02 -0.1388550E-02  0.7086063E+05  0.7388906E+04
  0.1876190E+01 -0.2092426E+05 -0.1998504E+05  0.2309731E-02  0.3051758E-03  0.7068770E+05  0.7945348E+04
  0.1907143E+01 -0.2062158E+05 -0.2113417E+05  0.2784301E-02 -0.1831055E-03  0.7070302E+05  0.8581746E+04
  0.1938095E+01 -0.2022281E+05 -0.2224335E+05  0.2960280E-02  0.2105713E-02  0.7066773E+05  0.9239495E+04
  0.1969048E+01 -0.1976418E+05 -0.2332067E+05 -0.2355795E-02  0.3540039E-02  0.7059630E+05  0.9925017E+04
  0.2000000E+01 -0.1924538E+05 -0.2434824E+05 -0.2197266E-02  0.4241943E-02  0.7047171E+05  0.1058243E+05
