VARIABLES="w (rad/s)"
"abs(F   1   1)" "angle(F   1   1)"
"abs(F   1   2)" "angle(F   1   2)"
"abs(F   1   3)" "angle(F   1   3)"
Zone t="Diffraction force - beta =   0.000 deg",I=    64,F=POINT
  0.5000000E-01  0.3803368E+04 -0.1570775E+01  0.2899121E+06 -0.1970679E-04  0.5806992E+04  0.1570784E+01
  0.8095238E-01  0.6221380E+04 -0.1570794E+01  0.2894714E+06 -0.5303194E-04  0.9502937E+04  0.1570800E+01
  0.1119048E+00  0.8693918E+04 -0.1570791E+01  0.2888239E+06 -0.1053495E-03  0.1327073E+05  0.1570809E+01
  0.1428571E+00  0.1125529E+05 -0.1570791E+01  0.2879693E+06 -0.1807281E-03  0.1716121E+05  0.1570795E+01
  0.1738095E+00  0.1392427E+05 -0.1570785E+01  0.2869053E+06 -0.2853376E-03  0.2121055E+05  0.1570803E+01
  0.2047619E+00  0.1674280E+05 -0.1570776E+01  0.2856307E+06 -0.4280131E-03  0.2547017E+05  0.1570814E+01
  0.2357143E+00  0.1972381E+05 -0.1570764E+01  0.2841431E+06 -0.6219701E-03  0.2999192E+05  0.1570823E+01
  0.2666667E+00  0.2296712E+05 -0.1570753E+01  0.2824393E+06 -0.8832786E-03  0.3484689E+05  0.1570842E+01
  0.2976190E+00  0.2645076E+05 -0.1570726E+01  0.2805205E+06 -0.1239081E-02  0.4008732E+05  0.1570872E+01
  0.3285715E+00  0.3027637E+05 -0.1570688E+01  0.2783806E+06 -0.1717487E-02  0.4583576E+05  0.1570903E+01
  0.3595238E+00  0.3449732E+05 -0.1570637E+01  0.2760276E+06 -0.2362609E-02  0.5212431E+05  0.1570957E+01
  0.3904762E+00  0.3918679E+05 -0.1570555E+01  0.2734572E+06 -0.3224452E-02  0.5906625E+05  0.1571037E+01
  0.4214286E+00  0.4435755E+05 -0.1570436E+01  0.2706909E+06 -0.4336296E-02  0.6673974E+05  0.1571154E+01
  0.4523810E+00  0.5007382E+05 -0.1570264E+01  0.2677246E+06 -0.5784294E-02  0.7517077E+05  0.1571328E+01
  0.4833333E+00  0.5635547E+05 -0.1570020E+01  0.2645897E+06 -0.7535069E-02  0.8437666E+05  0.1571573E+01
  0.5142857E+00  0.6317318E+05 -0.1569679E+01  0.2612937E+06 -0.9688944E-02  0.9433955E+05  0.1571913E+01
  0.5452381E+00  0.7053937E+05 -0.1569222E+01  0.2578384E+06 -0.1221967E-01  0.1050679E+06  0.1572372E+01
  0.5761905E+00  0.7830683E+05 -0.1568622E+01  0.2542504E+06 -0.1513963E-01  0.1163672E+06  0.1572970E+01
  0.6071429E+00  0.8664212E+05 -0.1567839E+01  0.2505407E+06 -0.1853365E-01  0.1282696E+06  0.1573753E+01
  0.6380953E+00  0.9541063E+05 -0.1566852E+01  0.2467001E+06 -0.2233121E-01  0.1408056E+06  0.1574741E+01
  0.6690477E+00  0.1045382E+06 -0.1565613E+01  0.2427523E+06 -0.2661705E-01  0.1537929E+06  0.1575980E+01
  0.7000000E+00  0.1140601E+06 -0.1564070E+01  0.2387151E+06 -0.3144602E-01  0.1672430E+06  0.1577523E+01
  0.7309524E+00  0.1240575E+06 -0.1562185E+01  0.2345810E+06 -0.3678953E-01  0.1812704E+06  0.1579408E+01
  0.7619048E+00  0.1344143E+06 -0.1559894E+01  0.2303806E+06 -0.4270360E-01  0.1956077E+06  0.1581698E+01
  0.7928572E+00  0.1452036E+06 -0.1557135E+01  0.2261262E+06 -0.4921960E-01  0.2104540E+06  0.1584456E+01
  0.8238096E+00  0.1564663E+06 -0.1553840E+01  0.2218182E+06 -0.5635587E-01  0.2257701E+06  0.1587753E+01
  0.8547620E+00  0.1679674E+06 -0.1549938E+01  0.2174705E+06 -0.6413493E-01  0.2413906E+06  0.1591653E+01
  0.8857143E+00  0.1798395E+06 -0.1545351E+01  0.2130924E+06 -0.7257516E-01  0.2574454E+06  0.1596240E+01
  0.9166667E+00  0.1921112E+06 -0.1539999E+01  0.2087057E+06 -0.8170422E-01  0.2737564E+06  0.1601591E+01
  0.9476191E+00  0.2049750E+06 -0.1533802E+01  0.2043175E+06 -0.9153438E-01  0.2905341E+06  0.1607787E+01
  0.9785714E+00  0.2181130E+06 -0.1526655E+01  0.1999442E+06 -0.1020834E+00  0.3076273E+06  0.1614933E+01
  0.1009524E+01  0.2314345E+06 -0.1518468E+01  0.1955941E+06 -0.1133742E+00  0.3247746E+06  0.1623116E+01
  0.1040476E+01  0.2451518E+06 -0.1509152E+01  0.1912626E+06 -0.1254132E+00  0.3422362E+06  0.1632431E+01
  0.1071429E+01  0.2591309E+06 -0.1498626E+01  0.1869607E+06 -0.1382357E+00  0.3597370E+06  0.1642953E+01
  0.1102381E+01  0.2734690E+06 -0.1486793E+01  0.1826915E+06 -0.1518429E+00  0.3776321E+06  0.1654781E+01
  0.1133333E+01  0.2877377E+06 -0.1473596E+01  0.1784889E+06 -0.1662699E+00  0.3951646E+06  0.1667970E+01
  0.1164286E+01  0.3020903E+06 -0.1458958E+01  0.1743454E+06 -0.1815354E+00  0.4124365E+06  0.1682602E+01
  0.1195238E+01  0.3166608E+06 -0.1442816E+01  0.1702631E+06 -0.1976359E+00  0.4296958E+06  0.1698731E+01
  0.1226190E+01  0.3310530E+06 -0.1425169E+01  0.1662556E+06 -0.2146123E+00  0.4462549E+06  0.1716369E+01
  0.1257143E+01  0.3449549E+06 -0.1406138E+01  0.1623270E+06 -0.2326335E+00  0.4620295E+06  0.1735379E+01
  0.1288095E+01  0.3592490E+06 -0.1385241E+01  0.1584770E+06 -0.2512042E+00  0.4779804E+06  0.1756270E+01
  0.1319048E+01  0.3723286E+06 -0.1363120E+01  0.1547288E+06 -0.2708814E+00  0.4919797E+06  0.1778356E+01
  0.1350000E+01  0.3848139E+06 -0.1339595E+01  0.1510682E+06 -0.2915222E+00  0.5051230E+06  0.1801858E+01
  0.1380952E+01  0.3965718E+06 -0.1314836E+01  0.1474961E+06 -0.3130792E+00  0.5171451E+06  0.1826590E+01
  0.1411905E+01  0.4043760E+06 -0.1291688E+01  0.1441709E+06 -0.3353951E+00  0.5246231E+06  0.1849698E+01
  0.1442857E+01  0.4137953E+06 -0.1265622E+01  0.1408514E+06 -0.3589344E+00  0.5328216E+06  0.1875717E+01
  0.1473810E+01  0.4220073E+06 -0.1239027E+01  0.1376535E+06 -0.3835074E+00  0.5393412E+06  0.1902266E+01
  0.1504762E+01  0.4286228E+06 -0.1212315E+01  0.1346059E+06 -0.4090102E+00  0.5435298E+06  0.1928942E+01
  0.1535714E+01  0.4335099E+06 -0.1185788E+01  0.1317121E+06 -0.4354886E+00  0.5452732E+06  0.1955365E+01
  0.1566667E+01  0.4370985E+06 -0.1159469E+01  0.1289516E+06 -0.4629073E+00  0.5455137E+06  0.1981645E+01
  0.1597619E+01  0.4390997E+06 -0.1134008E+01  0.1263539E+06 -0.4911244E+00  0.5436131E+06  0.2007041E+01
  0.1628572E+01  0.4393016E+06 -0.1109787E+01  0.1239259E+06 -0.5201968E+00  0.5391596E+06  0.2031142E+01
  0.1659524E+01  0.4382678E+06 -0.1086954E+01  0.1216530E+06 -0.5500096E+00  0.5332152E+06  0.2053864E+01
  0.1690476E+01  0.4360697E+06 -0.1065659E+01  0.1195372E+06 -0.5805078E+00  0.5260965E+06  0.2075046E+01
  0.1721429E+01  0.4323398E+06 -0.1046249E+01  0.1176225E+06 -0.6114829E+00  0.5172403E+06  0.2094349E+01
  0.1752381E+01  0.4273880E+06 -0.1029135E+01  0.1159072E+06 -0.6426874E+00  0.5067704E+06  0.2111289E+01
  0.1783333E+01  0.4214587E+06 -0.1014162E+01  0.1143713E+06 -0.6740727E+00  0.4952898E+06  0.2126077E+01
  0.1814286E+01  0.4149621E+06 -0.1001303E+01  0.1130161E+06 -0.7053243E+00  0.4833469E+06  0.2138818E+01
  0.1845238E+01  0.4078694E+06 -0.9909120E+00  0.1118332E+06 -0.7362223E+00  0.4707021E+06  0.2149045E+01
  0.1876190E+01  0.4001938E+06 -0.9830503E+00  0.1108147E+06 -0.7665133E+00  0.4572962E+06  0.2156662E+01
  0.1907143E+01  0.3923410E+06 -0.9774016E+00  0.1099240E+06 -0.7959794E+00  0.4438912E+06  0.2162084E+01
  0.1938095E+01  0.3844033E+06 -0.9738939E+00  0.1091310E+06 -0.8245373E+00  0.4306512E+06  0.2165379E+01
  0.1969048E+01  0.3761952E+06 -0.9723858E+00  0.1084487E+06 -0.8518775E+00  0.4174534E+06  0.2166771E+01
  0.2000000E+01  0.3678232E+06 -0.9731370E+00  0.1078322E+06 -0.8777888E+00  0.4041682E+06  0.2165847E+01
