VARIABLES="w (rad/s)"
"abs(F   1   1)" "angle(F   1   1)"
"abs(F   1   2)" "angle(F   1   2)"
"abs(F   1   3)" "angle(F   1   3)"
Zone t="Diffraction force - beta =   0.000 deg",I=    64,F=POINT
  0.5000000E-01  0.1891969E+04 -0.1570817E+01  0.2853795E+06 -0.1949933E-04  0.1784546E+04  0.1570761E+01
  0.8095238E-01  0.3089775E+04 -0.1570788E+01  0.2849343E+06 -0.5247082E-04  0.2918006E+04  0.1570792E+01
  0.1119048E+00  0.4310859E+04 -0.1570789E+01  0.2842797E+06 -0.1042264E-03  0.4067733E+04  0.1570803E+01
  0.1428571E+00  0.5572504E+04 -0.1570792E+01  0.2834154E+06 -0.1787811E-03  0.5249915E+04  0.1570797E+01
  0.1738095E+00  0.6889156E+04 -0.1570788E+01  0.2823405E+06 -0.2822181E-03  0.6472414E+04  0.1570810E+01
  0.2047619E+00  0.8273902E+04 -0.1570776E+01  0.2810522E+06 -0.4232669E-03  0.7752942E+04  0.1570796E+01
  0.2357143E+00  0.9739436E+04 -0.1570783E+01  0.2795491E+06 -0.6149486E-03  0.9101935E+04  0.1570806E+01
  0.2666667E+00  0.1132388E+05 -0.1570773E+01  0.2778297E+06 -0.8731201E-03  0.1053500E+05  0.1570819E+01
  0.2976190E+00  0.1302667E+05 -0.1570765E+01  0.2758914E+06 -0.1224546E-02  0.1207742E+05  0.1570832E+01
  0.3285715E+00  0.1488309E+05 -0.1570744E+01  0.2737317E+06 -0.1696850E-02  0.1374508E+05  0.1570846E+01
  0.3595238E+00  0.1693616E+05 -0.1570716E+01  0.2713592E+06 -0.2333581E-02  0.1555554E+05  0.1570871E+01
  0.3904762E+00  0.1920164E+05 -0.1570677E+01  0.2687662E+06 -0.3183840E-02  0.1752861E+05  0.1570911E+01
  0.4214286E+00  0.2167726E+05 -0.1570623E+01  0.2659740E+06 -0.4279928E-02  0.1969070E+05  0.1570965E+01
  0.4523810E+00  0.2441729E+05 -0.1570539E+01  0.2629833E+06 -0.5706908E-02  0.2202340E+05  0.1571051E+01
  0.4833333E+00  0.2741119E+05 -0.1570425E+01  0.2598276E+06 -0.7431803E-02  0.2455045E+05  0.1571167E+01
  0.5142857E+00  0.3063334E+05 -0.1570263E+01  0.2565016E+06 -0.9552116E-02  0.2724899E+05  0.1571330E+01
  0.5452381E+00  0.3406945E+05 -0.1570049E+01  0.2530122E+06 -0.1204167E-01  0.3009035E+05  0.1571543E+01
  0.5761905E+00  0.3771431E+05 -0.1569769E+01  0.2493936E+06 -0.1491335E-01  0.3303384E+05  0.1571823E+01
  0.6071429E+00  0.4156659E+05 -0.1569410E+01  0.2456561E+06 -0.1824805E-01  0.3607233E+05  0.1572183E+01
  0.6380953E+00  0.4557608E+05 -0.1568959E+01  0.2417788E+06 -0.2197727E-01  0.3920614E+05  0.1572633E+01
  0.6690477E+00  0.4968977E+05 -0.1568400E+01  0.2377877E+06 -0.2618211E-01  0.4238292E+05  0.1573194E+01
  0.7000000E+00  0.5395469E+05 -0.1567713E+01  0.2337038E+06 -0.3091683E-01  0.4555552E+05  0.1573882E+01
  0.7309524E+00  0.5838346E+05 -0.1566882E+01  0.2295293E+06 -0.3615359E-01  0.4876880E+05  0.1574713E+01
  0.7619048E+00  0.6291266E+05 -0.1565885E+01  0.2252937E+06 -0.4194442E-01  0.5196813E+05  0.1575708E+01
  0.7928572E+00  0.6754951E+05 -0.1564701E+01  0.2209916E+06 -0.4831531E-01  0.5516491E+05  0.1576892E+01
  0.8238096E+00  0.7226766E+05 -0.1563308E+01  0.2166238E+06 -0.5528287E-01  0.5833504E+05  0.1578285E+01
  0.8547620E+00  0.7703237E+05 -0.1561684E+01  0.2122105E+06 -0.6286865E-01  0.6145968E+05  0.1579909E+01
  0.8857143E+00  0.8187802E+05 -0.1559810E+01  0.2077731E+06 -0.7109514E-01  0.6449507E+05  0.1581783E+01
  0.9166667E+00  0.8682036E+05 -0.1557663E+01  0.2033256E+06 -0.7997714E-01  0.6744584E+05  0.1583932E+01
  0.9476191E+00  0.9183509E+05 -0.1555224E+01  0.1988824E+06 -0.8952495E-01  0.7031681E+05  0.1586375E+01
  0.9785714E+00  0.9686994E+05 -0.1552469E+01  0.1944439E+06 -0.9974401E-01  0.7312379E+05  0.1589131E+01
  0.1009524E+01  0.1018750E+06 -0.1549379E+01  0.1900154E+06 -0.1106500E+00  0.7576211E+05  0.1592220E+01
  0.1040476E+01  0.1068771E+06 -0.1545942E+01  0.1855903E+06 -0.1222436E+00  0.7831648E+05  0.1595654E+01
  0.1071429E+01  0.1118365E+06 -0.1542150E+01  0.1811891E+06 -0.1345531E+00  0.8065266E+05  0.1599443E+01
  0.1102381E+01  0.1167938E+06 -0.1538007E+01  0.1768235E+06 -0.1475839E+00  0.8282580E+05  0.1603586E+01
  0.1133333E+01  0.1216936E+06 -0.1533506E+01  0.1725150E+06 -0.1613509E+00  0.8483030E+05  0.1608094E+01
  0.1164286E+01  0.1265019E+06 -0.1528648E+01  0.1682693E+06 -0.1758597E+00  0.8659928E+05  0.1612962E+01
  0.1195238E+01  0.1312475E+06 -0.1523448E+01  0.1640788E+06 -0.1910876E+00  0.8822791E+05  0.1618178E+01
  0.1226190E+01  0.1358304E+06 -0.1517921E+01  0.1599503E+06 -0.2070456E+00  0.8956795E+05  0.1623717E+01
  0.1257143E+01  0.1402419E+06 -0.1512071E+01  0.1558685E+06 -0.2238832E+00  0.9068713E+05  0.1629570E+01
  0.1288095E+01  0.1445148E+06 -0.1506000E+01  0.1518466E+06 -0.2410984E+00  0.9160696E+05  0.1635627E+01
  0.1319048E+01  0.1484930E+06 -0.1499670E+01  0.1478937E+06 -0.2592409E+00  0.9223455E+05  0.1641922E+01
  0.1350000E+01  0.1522274E+06 -0.1493187E+01  0.1440074E+06 -0.2781339E+00  0.9256342E+05  0.1648364E+01
  0.1380952E+01  0.1557449E+06 -0.1486623E+01  0.1401815E+06 -0.2977497E+00  0.9266707E+05  0.1654898E+01
  0.1411905E+01  0.1583845E+06 -0.1481062E+01  0.1367155E+06 -0.3161260E+00  0.9235139E+05  0.1660429E+01
  0.1442857E+01  0.1613281E+06 -0.1474642E+01  0.1330641E+06 -0.3371239E+00  0.9185262E+05  0.1666832E+01
  0.1473810E+01  0.1639625E+06 -0.1468373E+01  0.1295000E+06 -0.3588478E+00  0.9112622E+05  0.1673072E+01
  0.1504762E+01  0.1662340E+06 -0.1462318E+01  0.1260199E+06 -0.3813348E+00  0.9016127E+05  0.1679101E+01
  0.1535714E+01  0.1681202E+06 -0.1456622E+01  0.1226363E+06 -0.4045302E+00  0.8885691E+05  0.1684715E+01
  0.1566667E+01  0.1696774E+06 -0.1451381E+01  0.1193112E+06 -0.4284493E+00  0.8734912E+05  0.1689911E+01
  0.1597619E+01  0.1708924E+06 -0.1446713E+01  0.1160570E+06 -0.4530895E+00  0.8562841E+05  0.1694543E+01
  0.1628572E+01  0.1717067E+06 -0.1442728E+01  0.1128983E+06 -0.4784902E+00  0.8360973E+05  0.1698451E+01
  0.1659524E+01  0.1721917E+06 -0.1439530E+01  0.1098067E+06 -0.5046010E+00  0.8141895E+05  0.1701598E+01
  0.1690476E+01  0.1723300E+06 -0.1437214E+01  0.1067931E+06 -0.5313986E+00  0.7906205E+05  0.1703814E+01
  0.1721429E+01  0.1721179E+06 -0.1435834E+01  0.1038600E+06 -0.5589892E+00  0.7657338E+05  0.1705139E+01
  0.1752381E+01  0.1715625E+06 -0.1435520E+01  0.1010196E+06 -0.5873309E+00  0.7393120E+05  0.1705373E+01
  0.1783333E+01  0.1706816E+06 -0.1436355E+01  0.9826381E+05 -0.6163593E+00  0.7114535E+05  0.1704401E+01
  0.1814286E+01  0.1695404E+06 -0.1438388E+01  0.9556710E+05 -0.6461788E+00  0.6832052E+05  0.1702339E+01
  0.1845238E+01  0.1681425E+06 -0.1441707E+01  0.9294480E+05 -0.6767179E+00  0.6543082E+05  0.1698949E+01
  0.1876190E+01  0.1664703E+06 -0.1446383E+01  0.9041608E+05 -0.7079293E+00  0.6244258E+05  0.1694084E+01
  0.1907143E+01  0.1646014E+06 -0.1452436E+01  0.8793932E+05 -0.7398829E+00  0.5945701E+05  0.1687936E+01
  0.1938095E+01  0.1625404E+06 -0.1459933E+01  0.8552983E+05 -0.7724784E+00  0.5645190E+05  0.1680237E+01
  0.1969048E+01  0.1603215E+06 -0.1468857E+01  0.8317873E+05 -0.8058436E+00  0.5347806E+05  0.1671202E+01
  0.2000000E+01  0.1579432E+06 -0.1479212E+01  0.8090747E+05 -0.8399944E+00  0.5053126E+05  0.1660859E+01
