VARIABLES="w (rad/s)"
"abs(F   1   1)" "angle(F   1   1)"
"abs(F   1   2)" "angle(F   1   2)"
"abs(F   1   3)" "angle(F   1   3)"
Zone t="Diffraction force - beta =   0.000 deg",I=    64,F=POINT
  0.5000000E-01  0.4460667E+04 -0.1570792E+01  0.2175668E+03 -0.3101538E+01  0.1842893E+05  0.1570801E+01
  0.8095238E-01  0.7306248E+04 -0.1570784E+01  0.5637155E+03 -0.3100298E+01  0.3011912E+05  0.1570809E+01
  0.1119048E+00  0.1019749E+05 -0.1570771E+01  0.1068722E+04 -0.3098794E+01  0.4198521E+05  0.1570822E+01
  0.1428571E+00  0.1318251E+05 -0.1570752E+01  0.1731086E+04 -0.3096896E+01  0.5420092E+05  0.1570841E+01
  0.1738095E+00  0.1628401E+05 -0.1570724E+01  0.2550224E+04 -0.3094580E+01  0.6686496E+05  0.1570869E+01
  0.2047619E+00  0.1953608E+05 -0.1570684E+01  0.3522090E+04 -0.3091594E+01  0.8010676E+05  0.1570910E+01
  0.2357143E+00  0.2298089E+05 -0.1570626E+01  0.4640878E+04 -0.3087806E+01  0.9408306E+05  0.1570969E+01
  0.2666667E+00  0.2667660E+05 -0.1570542E+01  0.5915040E+04 -0.3083419E+01  0.1090189E+06  0.1571054E+01
  0.2976190E+00  0.3065553E+05 -0.1570418E+01  0.7310991E+04 -0.3077638E+01  0.1249847E+06  0.1571179E+01
  0.3285715E+00  0.3500491E+05 -0.1570236E+01  0.8855764E+04 -0.3071069E+01  0.1423335E+06  0.1571363E+01
  0.3595238E+00  0.3974904E+05 -0.1569966E+01  0.1048765E+05 -0.3062860E+01  0.1613089E+06  0.1571636E+01
  0.3904762E+00  0.4498503E+05 -0.1569568E+01  0.1223802E+05 -0.3053384E+01  0.1819725E+06  0.1572039E+01
  0.4214286E+00  0.5075377E+05 -0.1568993E+01  0.1403164E+05 -0.3042902E+01  0.2046124E+06  0.1572620E+01
  0.4523810E+00  0.5709360E+05 -0.1568158E+01  0.1587096E+05 -0.3030483E+01  0.2293941E+06  0.1573464E+01
  0.4833333E+00  0.6399330E+05 -0.1567020E+01  0.1773053E+05 -0.3018699E+01  0.2563201E+06  0.1574612E+01
  0.5142857E+00  0.7146984E+05 -0.1565461E+01  0.1952263E+05 -0.3005336E+01  0.2850590E+06  0.1576188E+01
  0.5452381E+00  0.7953241E+05 -0.1563423E+01  0.2134448E+05 -0.2992803E+01  0.3157165E+06  0.1578249E+01
  0.5761905E+00  0.8794302E+05 -0.1560813E+01  0.2302768E+05 -0.2980293E+01  0.3476875E+06  0.1580882E+01
  0.6071429E+00  0.9683473E+05 -0.1557503E+01  0.2464604E+05 -0.2967242E+01  0.3812643E+06  0.1584221E+01
  0.6380953E+00  0.1062226E+06 -0.1553464E+01  0.2627543E+05 -0.2956157E+01  0.4160176E+06  0.1588297E+01
  0.6690477E+00  0.1158379E+06 -0.1548537E+01  0.2766150E+05 -0.2944291E+01  0.4511375E+06  0.1593271E+01
  0.7000000E+00  0.1258107E+06 -0.1542597E+01  0.2898035E+05 -0.2932504E+01  0.4871620E+06  0.1599265E+01
  0.7309524E+00  0.1361775E+06 -0.1535590E+01  0.3027928E+05 -0.2922056E+01  0.5242574E+06  0.1606328E+01
  0.7619048E+00  0.1465987E+06 -0.1527338E+01  0.3132919E+05 -0.2911197E+01  0.5612797E+06  0.1614629E+01
  0.7928572E+00  0.1573850E+06 -0.1517780E+01  0.3224462E+05 -0.2900355E+01  0.5986798E+06  0.1624254E+01
  0.8238096E+00  0.1684534E+06 -0.1506809E+01  0.3308362E+05 -0.2890048E+01  0.6359191E+06  0.1635324E+01
  0.8547620E+00  0.1796112E+06 -0.1494297E+01  0.3383141E+05 -0.2880345E+01  0.6731555E+06  0.1647922E+01
  0.8857143E+00  0.1906440E+06 -0.1480098E+01  0.3427487E+05 -0.2870212E+01  0.7092060E+06  0.1662209E+01
  0.9166667E+00  0.2018016E+06 -0.1464192E+01  0.3463037E+05 -0.2860473E+01  0.7450192E+06  0.1678199E+01
  0.9476191E+00  0.2129251E+06 -0.1446504E+01  0.3487949E+05 -0.2850909E+01  0.7799079E+06  0.1695969E+01
  0.9785714E+00  0.2239603E+06 -0.1427037E+01  0.3505640E+05 -0.2841693E+01  0.8136655E+06  0.1715503E+01
  0.1009524E+01  0.2344402E+06 -0.1405686E+01  0.3492949E+05 -0.2832680E+01  0.8438212E+06  0.1736972E+01
  0.1040476E+01  0.2449090E+06 -0.1382537E+01  0.3467100E+05 -0.2823593E+01  0.8733578E+06  0.1760221E+01
  0.1071429E+01  0.2545846E+06 -0.1357434E+01  0.3431963E+05 -0.2814639E+01  0.8987489E+06  0.1785467E+01
  0.1102381E+01  0.2639126E+06 -0.1330590E+01  0.3390380E+05 -0.2806010E+01  0.9219804E+06  0.1812456E+01
  0.1133333E+01  0.2724065E+06 -0.1301826E+01  0.3341124E+05 -0.2797231E+01  0.9422489E+06  0.1841275E+01
  0.1164286E+01  0.2796218E+06 -0.1271255E+01  0.3266439E+05 -0.2789613E+01  0.9567696E+06  0.1871924E+01
  0.1195238E+01  0.2861702E+06 -0.1239078E+01  0.3182106E+05 -0.2781672E+01  0.9693056E+06  0.1904043E+01
  0.1226190E+01  0.2913773E+06 -0.1205617E+01  0.3092386E+05 -0.2773861E+01  0.9757825E+06  0.1937520E+01
  0.1257143E+01  0.2953803E+06 -0.1171031E+01  0.2996823E+05 -0.2765845E+01  0.9773931E+06  0.1972149E+01
  0.1288095E+01  0.2985703E+06 -0.1135825E+01  0.2899427E+05 -0.2758362E+01  0.9755344E+06  0.2007416E+01
  0.1319048E+01  0.2998976E+06 -0.1099469E+01  0.2793076E+05 -0.2751050E+01  0.9675242E+06  0.2043761E+01
  0.1350000E+01  0.2995701E+06 -0.1062425E+01  0.2677651E+05 -0.2745098E+01  0.9537556E+06  0.2080779E+01
  0.1380952E+01  0.2981959E+06 -0.1024957E+01  0.2556174E+05 -0.2739108E+01  0.9374706E+06  0.2118046E+01
  0.1411905E+01  0.2942987E+06 -0.9877242E+00  0.2433808E+05 -0.2733288E+01  0.9135457E+06  0.2154807E+01
  0.1442857E+01  0.2900664E+06 -0.9508308E+00  0.2311498E+05 -0.2727479E+01  0.8872941E+06  0.2191659E+01
  0.1473810E+01  0.2847194E+06 -0.9144659E+00  0.2192784E+05 -0.2721670E+01  0.8580391E+06  0.2227860E+01
  0.1504762E+01  0.2779494E+06 -0.8782979E+00  0.2071985E+05 -0.2715945E+01  0.8254875E+06  0.2263795E+01
  0.1535714E+01  0.2697832E+06 -0.8428934E+00  0.1951394E+05 -0.2711827E+01  0.7885437E+06  0.2298892E+01
  0.1566667E+01  0.2607402E+06 -0.8082758E+00  0.1831467E+05 -0.2708170E+01  0.7501096E+06  0.2333251E+01
  0.1597619E+01  0.2511487E+06 -0.7748169E+00  0.1710348E+05 -0.2704903E+01  0.7115578E+06  0.2366292E+01
  0.1628572E+01  0.2405032E+06 -0.7426789E+00  0.1594598E+05 -0.2701809E+01  0.6698256E+06  0.2398078E+01
  0.1659524E+01  0.2294113E+06 -0.7118251E+00  0.1482468E+05 -0.2699172E+01  0.6279436E+06  0.2428633E+01
  0.1690476E+01  0.2179333E+06 -0.6823461E+00  0.1377438E+05 -0.2696305E+01  0.5861949E+06  0.2457519E+01
  0.1721429E+01  0.2060786E+06 -0.6538805E+00  0.1274605E+05 -0.2693992E+01  0.5450361E+06  0.2485299E+01
  0.1752381E+01  0.1938457E+06 -0.6267610E+00  0.1176369E+05 -0.2692511E+01  0.5036927E+06  0.2511732E+01
  0.1783333E+01  0.1812395E+06 -0.6011365E+00  0.1085719E+05 -0.2691268E+01  0.4618684E+06  0.2536459E+01
  0.1814286E+01  0.1687506E+06 -0.5765624E+00  0.9957143E+04 -0.2691756E+01  0.4222082E+06  0.2560381E+01
  0.1845238E+01  0.1564088E+06 -0.5530728E+00  0.9081956E+04 -0.2692877E+01  0.3846401E+06  0.2583140E+01
  0.1876190E+01  0.1439120E+06 -0.5311927E+00  0.8294291E+04 -0.2693766E+01  0.3469058E+06  0.2604006E+01
  0.1907143E+01  0.1316204E+06 -0.5105913E+00  0.7556357E+04 -0.2695665E+01  0.3109240E+06  0.2623690E+01
  0.1938095E+01  0.1195556E+06 -0.4910780E+00  0.6882422E+04 -0.2696975E+01  0.2768247E+06  0.2641937E+01
  0.1969048E+01  0.1077837E+06 -0.4725618E+00  0.6248558E+04 -0.2698253E+01  0.2448447E+06  0.2659199E+01
  0.2000000E+01  0.9611868E+05 -0.4545176E+00  0.5649753E+04 -0.2701661E+01  0.2141357E+06  0.2676040E+01
