VARIABLES="w (rad/s)"
"abs(F   1   1)" "angle(F   1   1)"
"abs(F   1   2)" "angle(F   1   2)"
"abs(F   1   3)" "angle(F   1   3)"
Zone t="Diffraction force - beta =   0.000 deg",I=    64,F=POINT
  0.5000000E-01  0.4452877E+03 -0.1570796E+01  0.1198331E+03 -0.3100020E+01  0.4551965E+01 -0.1570796E+01
  0.8095238E-01  0.7261788E+03 -0.1570794E+01  0.3120867E+03 -0.3098703E+01  0.7360049E+01 -0.1570795E+01
  0.1119048E+00  0.1015314E+04 -0.1570792E+01  0.5937855E+03 -0.3096908E+01  0.1006123E+02 -0.1570793E+01
  0.1428571E+00  0.1310813E+04 -0.1570789E+01  0.9656231E+03 -0.3094591E+01  0.1314223E+02 -0.1570789E+01
  0.1738095E+00  0.1626009E+04 -0.1570784E+01  0.1429249E+04 -0.3091639E+01  0.1633452E+02 -0.1570783E+01
  0.2047619E+00  0.1951242E+04 -0.1570777E+01  0.1986768E+04 -0.3087921E+01  0.1995069E+02 -0.1570775E+01
  0.2357143E+00  0.2300395E+04 -0.1570766E+01  0.2640914E+04 -0.3083218E+01  0.2341491E+02 -0.1570761E+01
  0.2666667E+00  0.2680126E+04 -0.1570751E+01  0.3393425E+04 -0.3077449E+01  0.2770694E+02 -0.1570741E+01
  0.2976190E+00  0.3086292E+04 -0.1570728E+01  0.4248175E+04 -0.3070189E+01  0.3236229E+02 -0.1570709E+01
  0.3285715E+00  0.3528615E+04 -0.1570694E+01  0.5207689E+04 -0.3061447E+01  0.3691996E+02 -0.1570663E+01
  0.3595238E+00  0.4028656E+04 -0.1570643E+01  0.6270918E+04 -0.3050778E+01  0.4282481E+02 -0.1570598E+01
  0.3904762E+00  0.4572646E+04 -0.1570566E+01  0.7441265E+04 -0.3038061E+01  0.4946901E+02 -0.1570499E+01
  0.4214286E+00  0.5168621E+04 -0.1570454E+01  0.8707112E+04 -0.3023742E+01  0.5672641E+02 -0.1570350E+01
  0.4523810E+00  0.5840067E+04 -0.1570288E+01  0.1007263E+05 -0.3007092E+01  0.6513724E+02 -0.1570137E+01
  0.4833333E+00  0.6585257E+04 -0.1570058E+01  0.1151724E+05 -0.2990034E+01  0.7650058E+02 -0.1569850E+01
  0.5142857E+00  0.7371088E+04 -0.1569735E+01  0.1304043E+05 -0.2971466E+01  0.8535046E+02 -0.1569422E+01
  0.5452381E+00  0.8201625E+04 -0.1569300E+01  0.1463652E+05 -0.2952751E+01  0.9611017E+02 -0.1568858E+01
  0.5761905E+00  0.9123362E+04 -0.1568736E+01  0.1629756E+05 -0.2934178E+01  0.1099390E+03 -0.1568156E+01
  0.6071429E+00  0.1010146E+05 -0.1568005E+01  0.1801005E+05 -0.2914893E+01  0.1248708E+03 -0.1567252E+01
  0.6380953E+00  0.1110696E+05 -0.1567083E+01  0.1978777E+05 -0.2896532E+01  0.1406076E+03 -0.1566113E+01
  0.6690477E+00  0.1212776E+05 -0.1565922E+01  0.2161678E+05 -0.2878191E+01  0.1538938E+03 -0.1564595E+01
  0.7000000E+00  0.1321565E+05 -0.1564492E+01  0.2348201E+05 -0.2859531E+01  0.1704710E+03 -0.1562792E+01
  0.7309524E+00  0.1437047E+05 -0.1562766E+01  0.2539188E+05 -0.2841349E+01  0.1914409E+03 -0.1560729E+01
  0.7619048E+00  0.1557826E+05 -0.1560688E+01  0.2733449E+05 -0.2823304E+01  0.2144064E+03 -0.1558285E+01
  0.7928572E+00  0.1680287E+05 -0.1558195E+01  0.2929757E+05 -0.2805282E+01  0.2357193E+03 -0.1555242E+01
  0.8238096E+00  0.1801415E+05 -0.1555212E+01  0.3127742E+05 -0.2787383E+01  0.2548596E+03 -0.1551451E+01
  0.8547620E+00  0.1926755E+05 -0.1551716E+01  0.3328040E+05 -0.2769849E+01  0.2794115E+03 -0.1547259E+01
  0.8857143E+00  0.2059490E+05 -0.1547680E+01  0.3529009E+05 -0.2752559E+01  0.3062574E+03 -0.1542480E+01
  0.9166667E+00  0.2196947E+05 -0.1543036E+01  0.3729623E+05 -0.2735473E+01  0.3341370E+03 -0.1536940E+01
  0.9476191E+00  0.2336698E+05 -0.1537708E+01  0.3928314E+05 -0.2718472E+01  0.3660268E+03 -0.1530807E+01
  0.9785714E+00  0.2478898E+05 -0.1531639E+01  0.4126112E+05 -0.2701847E+01  0.4018896E+03 -0.1524040E+01
  0.1009524E+01  0.2620188E+05 -0.1524734E+01  0.4322274E+05 -0.2685601E+01  0.4334905E+03 -0.1515882E+01
  0.1040476E+01  0.2758536E+05 -0.1516904E+01  0.4516080E+05 -0.2669696E+01  0.4618834E+03 -0.1506252E+01
  0.1071429E+01  0.2898496E+05 -0.1508172E+01  0.4706982E+05 -0.2654115E+01  0.4942118E+03 -0.1495826E+01
  0.1102381E+01  0.3040921E+05 -0.1498530E+01  0.4894197E+05 -0.2638816E+01  0.5338066E+03 -0.1485030E+01
  0.1133333E+01  0.3186799E+05 -0.1487975E+01  0.5077467E+05 -0.2623882E+01  0.5777062E+03 -0.1473509E+01
  0.1164286E+01  0.3332248E+05 -0.1476416E+01  0.5256399E+05 -0.2609342E+01  0.6208480E+03 -0.1460611E+01
  0.1195238E+01  0.3475066E+05 -0.1463786E+01  0.5429958E+05 -0.2595097E+01  0.6646682E+03 -0.1446538E+01
  0.1226190E+01  0.3613714E+05 -0.1450034E+01  0.5598373E+05 -0.2581269E+01  0.7089935E+03 -0.1431173E+01
  0.1257143E+01  0.3740876E+05 -0.1434906E+01  0.5762267E+05 -0.2567387E+01  0.7508838E+03 -0.1413963E+01
  0.1288095E+01  0.3865481E+05 -0.1418788E+01  0.5917172E+05 -0.2554580E+01  0.7944059E+03 -0.1395679E+01
  0.1319048E+01  0.3978314E+05 -0.1401306E+01  0.6068147E+05 -0.2541971E+01  0.8378482E+03 -0.1376092E+01
  0.1350000E+01  0.4084646E+05 -0.1382804E+01  0.6212939E+05 -0.2529805E+01  0.8792386E+03 -0.1355161E+01
  0.1380952E+01  0.4183088E+05 -0.1363314E+01  0.6350813E+05 -0.2518066E+01  0.9209470E+03 -0.1333465E+01
  0.1411905E+01  0.4245651E+05 -0.1342970E+01  0.6475525E+05 -0.2506386E+01  0.9399738E+03 -0.1307626E+01
  0.1442857E+01  0.4319658E+05 -0.1321453E+01  0.6598127E+05 -0.2495093E+01  0.9808369E+03 -0.1283632E+01
  0.1473810E+01  0.4378492E+05 -0.1298890E+01  0.6713196E+05 -0.2484187E+01  0.1021373E+04 -0.1258904E+01
  0.1504762E+01  0.4422058E+05 -0.1275376E+01  0.6820836E+05 -0.2473722E+01  0.1060656E+04 -0.1233476E+01
  0.1535714E+01  0.4448755E+05 -0.1251033E+01  0.6920878E+05 -0.2463719E+01  0.1097702E+04 -0.1207766E+01
  0.1566667E+01  0.4458264E+05 -0.1226073E+01  0.7012746E+05 -0.2454044E+01  0.1127331E+04 -0.1180446E+01
  0.1597619E+01  0.4447344E+05 -0.1200416E+01  0.7096367E+05 -0.2444694E+01  0.1148361E+04 -0.1151631E+01
  0.1628572E+01  0.4416859E+05 -0.1174228E+01  0.7171643E+05 -0.2435673E+01  0.1164874E+04 -0.1122033E+01
  0.1659524E+01  0.4365539E+05 -0.1147508E+01  0.7238330E+05 -0.2426876E+01  0.1178330E+04 -0.1092092E+01
  0.1690476E+01  0.4292564E+05 -0.1120267E+01  0.7296652E+05 -0.2418437E+01  0.1188235E+04 -0.1062299E+01
  0.1721429E+01  0.4199347E+05 -0.1092835E+01  0.7346690E+05 -0.2410408E+01  0.1194081E+04 -0.1033651E+01
  0.1752381E+01  0.4085667E+05 -0.1065319E+01  0.7388262E+05 -0.2402805E+01  0.1193636E+04 -0.1004929E+01
  0.1783333E+01  0.3951305E+05 -0.1037704E+01  0.7421246E+05 -0.2395585E+01  0.1182958E+04 -0.9755462E+00
  0.1814286E+01  0.3796658E+05 -0.1010007E+01  0.7445355E+05 -0.2388657E+01  0.1163492E+04 -0.9456754E+00
  0.1845238E+01  0.3621381E+05 -0.9820735E+00  0.7460959E+05 -0.2382020E+01  0.1133376E+04 -0.9138906E+00
  0.1876190E+01  0.3427344E+05 -0.9540826E+00  0.7468058E+05 -0.2375714E+01  0.1096611E+04 -0.8828166E+00
  0.1907143E+01  0.3215998E+05 -0.9261383E+00  0.7466484E+05 -0.2369696E+01  0.1053293E+04 -0.8525965E+00
  0.1938095E+01  0.2987372E+05 -0.8979090E+00  0.7456295E+05 -0.2363935E+01  0.1003950E+04 -0.8238236E+00
  0.1969048E+01  0.2743437E+05 -0.8693370E+00  0.7437809E+05 -0.2358599E+01  0.9462283E+03 -0.7951008E+00
  0.2000000E+01  0.2485083E+05 -0.8400974E+00  0.7410853E+05 -0.2353621E+01  0.8803346E+03 -0.7658228E+00
