VARIABLES="w (rad/s)"
"abs(F   1   1)" "angle(F   1   1)"
"abs(F   1   2)" "angle(F   1   2)"
"abs(F   1   3)" "angle(F   1   3)"
Zone t="Diffraction force - beta =   0.000 deg",I=    64,F=POINT
  0.5000000E-01  0.7948160E+03 -0.1570795E+01  0.1523554E+03 -0.3094074E+01  0.2461838E+03  0.1570795E+01
  0.8095238E-01  0.1300046E+04 -0.1570793E+01  0.3951556E+03 -0.3092387E+01  0.4053090E+03  0.1570794E+01
  0.1119048E+00  0.1813657E+04 -0.1570789E+01  0.7511047E+03 -0.3090315E+01  0.5655405E+03  0.1570791E+01
  0.1428571E+00  0.2343541E+04 -0.1570784E+01  0.1220717E+04 -0.3087667E+01  0.7231224E+03  0.1570786E+01
  0.1738095E+00  0.2890961E+04 -0.1570777E+01  0.1807142E+04 -0.3084354E+01  0.8926725E+03  0.1570780E+01
  0.2047619E+00  0.3466760E+04 -0.1570766E+01  0.2512004E+04 -0.3080172E+01  0.1060087E+04  0.1570770E+01
  0.2357143E+00  0.4074936E+04 -0.1570749E+01  0.3338793E+04 -0.3074883E+01  0.1240559E+04  0.1570755E+01
  0.2666667E+00  0.4722148E+04 -0.1570726E+01  0.4293869E+04 -0.3068488E+01  0.1428981E+04  0.1570733E+01
  0.2976190E+00  0.5422376E+04 -0.1570691E+01  0.5375908E+04 -0.3060374E+01  0.1620238E+04  0.1570698E+01
  0.3285715E+00  0.6181172E+04 -0.1570638E+01  0.6592687E+04 -0.3050671E+01  0.1833747E+04  0.1570646E+01
  0.3595238E+00  0.7005445E+04 -0.1570560E+01  0.7945662E+04 -0.3038904E+01  0.2063490E+04  0.1570568E+01
  0.3904762E+00  0.7911360E+04 -0.1570443E+01  0.9435733E+04 -0.3024936E+01  0.2298468E+04  0.1570444E+01
  0.4214286E+00  0.8910648E+04 -0.1570273E+01  0.1104060E+05 -0.3009161E+01  0.2546365E+04  0.1570253E+01
  0.4523810E+00  0.9990009E+04 -0.1570023E+01  0.1278149E+05 -0.2991005E+01  0.2834494E+04  0.1569972E+01
  0.4833333E+00  0.1115888E+05 -0.1569677E+01  0.1462631E+05 -0.2972599E+01  0.3121149E+04  0.1569561E+01
  0.5142857E+00  0.1241959E+05 -0.1569198E+01  0.1656282E+05 -0.2952522E+01  0.3402298E+04  0.1568951E+01
  0.5452381E+00  0.1375474E+05 -0.1568563E+01  0.1858828E+05 -0.2932427E+01  0.3695113E+04  0.1568104E+01
  0.5761905E+00  0.1513943E+05 -0.1567738E+01  0.2069801E+05 -0.2912721E+01  0.4022995E+04  0.1566984E+01
  0.6071429E+00  0.1657031E+05 -0.1566675E+01  0.2287959E+05 -0.2892491E+01  0.4341601E+04  0.1565463E+01
  0.6380953E+00  0.1805328E+05 -0.1565358E+01  0.2513255E+05 -0.2873331E+01  0.4629898E+04  0.1563420E+01
  0.6690477E+00  0.1957569E+05 -0.1563734E+01  0.2743559E+05 -0.2854238E+01  0.4893728E+04  0.1560705E+01
  0.7000000E+00  0.2110958E+05 -0.1561745E+01  0.2978330E+05 -0.2835052E+01  0.5184158E+04  0.1557299E+01
  0.7309524E+00  0.2264649E+05 -0.1559358E+01  0.3219741E+05 -0.2816787E+01  0.5487495E+04  0.1553079E+01
  0.7619048E+00  0.2418522E+05 -0.1556520E+01  0.3464316E+05 -0.2798818E+01  0.5756364E+04  0.1547693E+01
  0.7928572E+00  0.2572682E+05 -0.1553184E+01  0.3710134E+05 -0.2780997E+01  0.5991388E+04  0.1540883E+01
  0.8238096E+00  0.2725539E+05 -0.1549304E+01  0.3956527E+05 -0.2763424E+01  0.6200979E+04  0.1532405E+01
  0.8547620E+00  0.2876121E+05 -0.1544835E+01  0.4203990E+05 -0.2746382E+01  0.6405362E+04  0.1522124E+01
  0.8857143E+00  0.3022060E+05 -0.1539725E+01  0.4451816E+05 -0.2729955E+01  0.6633845E+04  0.1510107E+01
  0.9166667E+00  0.3161817E+05 -0.1533935E+01  0.4699288E+05 -0.2714180E+01  0.6881423E+04  0.1496256E+01
  0.9476191E+00  0.3293688E+05 -0.1527435E+01  0.4943610E+05 -0.2698807E+01  0.7122373E+04  0.1480176E+01
  0.9785714E+00  0.3418634E+05 -0.1520229E+01  0.5184117E+05 -0.2683937E+01  0.7345292E+04  0.1461546E+01
  0.1009524E+01  0.3534308E+05 -0.1512305E+01  0.5419339E+05 -0.2669528E+01  0.7567290E+04  0.1440490E+01
  0.1040476E+01  0.3639176E+05 -0.1503664E+01  0.5649783E+05 -0.2655728E+01  0.7808951E+04  0.1417429E+01
  0.1071429E+01  0.3730886E+05 -0.1494309E+01  0.5873765E+05 -0.2642516E+01  0.8109198E+04  0.1393531E+01
  0.1102381E+01  0.3807002E+05 -0.1484252E+01  0.6091630E+05 -0.2630102E+01  0.8482690E+04  0.1369767E+01
  0.1133333E+01  0.3865743E+05 -0.1473542E+01  0.6302812E+05 -0.2618555E+01  0.8934782E+04  0.1347049E+01
  0.1164286E+01  0.3904926E+05 -0.1462243E+01  0.6506466E+05 -0.2607830E+01  0.9464182E+04  0.1326159E+01
  0.1195238E+01  0.3923613E+05 -0.1450476E+01  0.6701443E+05 -0.2597884E+01  0.1007506E+05  0.1307999E+01
  0.1226190E+01  0.3920889E+05 -0.1438376E+01  0.6886608E+05 -0.2588689E+01  0.1078672E+05  0.1293824E+01
  0.1257143E+01  0.3892930E+05 -0.1425920E+01  0.7060885E+05 -0.2579786E+01  0.1160589E+05  0.1284043E+01
  0.1288095E+01  0.3842367E+05 -0.1413725E+01  0.7223953E+05 -0.2572513E+01  0.1251765E+05  0.1279218E+01
  0.1319048E+01  0.3765058E+05 -0.1401608E+01  0.7376596E+05 -0.2565680E+01  0.1356347E+05  0.1279970E+01
  0.1350000E+01  0.3661178E+05 -0.1389999E+01  0.7517630E+05 -0.2559740E+01  0.1473945E+05  0.1286287E+01
  0.1380952E+01  0.3529791E+05 -0.1379240E+01  0.7647292E+05 -0.2554834E+01  0.1604819E+05  0.1297919E+01
  0.1411905E+01  0.3373282E+05 -0.1369668E+01  0.7753407E+05 -0.2550863E+01  0.1748512E+05  0.1314139E+01
  0.1442857E+01  0.3187807E+05 -0.1361859E+01  0.7857464E+05 -0.2547587E+01  0.1905965E+05  0.1334732E+01
  0.1473810E+01  0.2976229E+05 -0.1356724E+01  0.7950012E+05 -0.2545498E+01  0.2078937E+05  0.1359479E+01
  0.1504762E+01  0.2738204E+05 -0.1355305E+01  0.8030637E+05 -0.2544528E+01  0.2267323E+05  0.1387639E+01
  0.1535714E+01  0.2475223E+05 -0.1359275E+01  0.8098498E+05 -0.2544543E+01  0.2471060E+05  0.1418555E+01
  0.1566667E+01  0.2189594E+05 -0.1371397E+01  0.8154837E+05 -0.2545797E+01  0.2690260E+05  0.1451703E+01
  0.1597619E+01  0.1883382E+05 -0.1396256E+01  0.8200228E+05 -0.2548316E+01  0.2924588E+05  0.1486444E+01
  0.1628572E+01  0.1562000E+05 -0.1442701E+01  0.8236996E+05 -0.2551917E+01  0.3174542E+05  0.1522323E+01
  0.1659524E+01  0.1231516E+05 -0.1529096E+01  0.8263625E+05 -0.2556401E+01  0.3439322E+05  0.1558845E+01
  0.1690476E+01  0.9097981E+04 -0.1699909E+01  0.8282489E+05 -0.2562119E+01  0.3719371E+05  0.1595701E+01
  0.1721429E+01  0.6428642E+04 -0.2065544E+01  0.8293737E+05 -0.2568993E+01  0.4012707E+05  0.1632466E+01
  0.1752381E+01  0.5584741E+04 -0.2728560E+01  0.8297408E+05 -0.2576700E+01  0.4320495E+05  0.1668924E+01
  0.1783333E+01  0.7446630E+04  0.2978421E+01  0.8294691E+05 -0.2585344E+01  0.4640734E+05  0.1704756E+01
  0.1814286E+01  0.1079739E+05  0.2694087E+01  0.8286177E+05 -0.2594687E+01  0.4972440E+05  0.1739893E+01
  0.1845238E+01  0.1470929E+05  0.2555861E+01  0.8272377E+05 -0.2604697E+01  0.5314351E+05  0.1774119E+01
  0.1876190E+01  0.1885824E+05  0.2481631E+01  0.8254091E+05 -0.2614799E+01  0.5664089E+05  0.1807329E+01
  0.1907143E+01  0.2311717E+05  0.2438367E+01  0.8228841E+05 -0.2624700E+01  0.6021773E+05  0.1839483E+01
  0.1938095E+01  0.2742200E+05  0.2412094E+01  0.8196688E+05 -0.2634298E+01  0.6384505E+05  0.1870545E+01
  0.1969048E+01  0.3174044E+05  0.2395623E+01  0.8156385E+05 -0.2643699E+01  0.6749019E+05  0.1900449E+01
  0.2000000E+01  0.3602913E+05  0.2385276E+01  0.8105202E+05 -0.2652433E+01  0.7117352E+05  0.1929129E+01
