VARIABLES="w (rad/s)"
"abs(F   1   1)" "angle(F   1   1)"
"abs(F   1   2)" "angle(F   1   2)"
"abs(F   1   3)" "angle(F   1   3)"
Zone t="Diffraction force - beta =   0.000 deg",I=    64,F=POINT
  0.5000000E-01  0.6555135E+03 -0.1570795E+01  0.1411235E+03 -0.3109655E+01  0.5800992E+03  0.1570797E+01
  0.8095238E-01  0.1068272E+04 -0.1570794E+01  0.3704088E+03 -0.3108926E+01  0.9469888E+03  0.1570798E+01
  0.1119048E+00  0.1493665E+04 -0.1570791E+01  0.7044710E+03 -0.3107590E+01  0.1321345E+04  0.1570800E+01
  0.1428571E+00  0.1930437E+04 -0.1570787E+01  0.1145797E+04 -0.3105886E+01  0.1711462E+04  0.1570802E+01
  0.1738095E+00  0.2399909E+04 -0.1570781E+01  0.1692055E+04 -0.3103634E+01  0.2127050E+04  0.1570806E+01
  0.2047619E+00  0.2883695E+04 -0.1570773E+01  0.2348153E+04 -0.3100835E+01  0.2559101E+04  0.1570811E+01
  0.2357143E+00  0.3407558E+04 -0.1570761E+01  0.3117980E+04 -0.3097338E+01  0.3029317E+04  0.1570819E+01
  0.2666667E+00  0.3976812E+04 -0.1570742E+01  0.3989908E+04 -0.3092921E+01  0.3536777E+04  0.1570830E+01
  0.2976190E+00  0.4579586E+04 -0.1570715E+01  0.4986218E+04 -0.3087509E+01  0.4083324E+04  0.1570848E+01
  0.3285715E+00  0.5259912E+04 -0.1570675E+01  0.6078188E+04 -0.3080787E+01  0.4695923E+04  0.1570873E+01
  0.3595238E+00  0.6011645E+04 -0.1570615E+01  0.7297574E+04 -0.3072789E+01  0.5376683E+04  0.1570912E+01
  0.3904762E+00  0.6841920E+04 -0.1570524E+01  0.8607022E+04 -0.3063053E+01  0.6124757E+04  0.1570971E+01
  0.4214286E+00  0.7749790E+04 -0.1570390E+01  0.1002487E+05 -0.3052240E+01  0.6960186E+04  0.1571056E+01
  0.4523810E+00  0.8799359E+04 -0.1570194E+01  0.1153230E+05 -0.3039579E+01  0.7900845E+04  0.1571183E+01
  0.4833333E+00  0.9940065E+04 -0.1569920E+01  0.1310909E+05 -0.3026649E+01  0.8951919E+04  0.1571360E+01
  0.5142857E+00  0.1114507E+05 -0.1569536E+01  0.1478292E+05 -0.3012850E+01  0.1006716E+05  0.1571608E+01
  0.5452381E+00  0.1248502E+05 -0.1569024E+01  0.1647065E+05 -0.2998526E+01  0.1130526E+05  0.1571941E+01
  0.5761905E+00  0.1394164E+05 -0.1568356E+01  0.1825062E+05 -0.2984789E+01  0.1264457E+05  0.1572377E+01
  0.6071429E+00  0.1547663E+05 -0.1567487E+01  0.2004741E+05 -0.2970354E+01  0.1404445E+05  0.1572947E+01
  0.6380953E+00  0.1708890E+05 -0.1566393E+01  0.2187671E+05 -0.2956582E+01  0.1556719E+05  0.1573663E+01
  0.6690477E+00  0.1873619E+05 -0.1565017E+01  0.2377865E+05 -0.2943318E+01  0.1712683E+05  0.1574566E+01
  0.7000000E+00  0.2054962E+05 -0.1563331E+01  0.2565460E+05 -0.2929484E+01  0.1878973E+05  0.1575685E+01
  0.7309524E+00  0.2249631E+05 -0.1561294E+01  0.2754008E+05 -0.2915972E+01  0.2062171E+05  0.1577043E+01
  0.7619048E+00  0.2446417E+05 -0.1558815E+01  0.2946638E+05 -0.2903015E+01  0.2247124E+05  0.1578699E+01
  0.7928572E+00  0.2648053E+05 -0.1555836E+01  0.3140803E+05 -0.2890430E+01  0.2439615E+05  0.1580693E+01
  0.8238096E+00  0.2859365E+05 -0.1552312E+01  0.3324889E+05 -0.2877115E+01  0.2636950E+05  0.1583073E+01
  0.8547620E+00  0.3079100E+05 -0.1548176E+01  0.3510978E+05 -0.2864419E+01  0.2849928E+05  0.1585864E+01
  0.8857143E+00  0.3314759E+05 -0.1543396E+01  0.3698029E+05 -0.2852405E+01  0.3071941E+05  0.1589121E+01
  0.9166667E+00  0.3557922E+05 -0.1537857E+01  0.3883214E+05 -0.2840858E+01  0.3303459E+05  0.1592919E+01
  0.9476191E+00  0.3810661E+05 -0.1531503E+01  0.4053948E+05 -0.2828516E+01  0.3538276E+05  0.1597321E+01
  0.9785714E+00  0.4068897E+05 -0.1524232E+01  0.4223475E+05 -0.2816789E+01  0.3790059E+05  0.1602355E+01
  0.1009524E+01  0.4326557E+05 -0.1515933E+01  0.4390387E+05 -0.2805781E+01  0.4038029E+05  0.1608126E+01
  0.1040476E+01  0.4588912E+05 -0.1506566E+01  0.4556999E+05 -0.2795757E+01  0.4297860E+05  0.1614641E+01
  0.1071429E+01  0.4858687E+05 -0.1496114E+01  0.4705965E+05 -0.2784898E+01  0.4555155E+05  0.1621982E+01
  0.1102381E+01  0.5151527E+05 -0.1484704E+01  0.4846655E+05 -0.2774170E+01  0.4833553E+05  0.1630050E+01
  0.1133333E+01  0.5447300E+05 -0.1472049E+01  0.4983086E+05 -0.2764041E+01  0.5121258E+05  0.1639042E+01
  0.1164286E+01  0.5739611E+05 -0.1458021E+01  0.5114182E+05 -0.2754673E+01  0.5404129E+05  0.1649069E+01
  0.1195238E+01  0.6031459E+05 -0.1442593E+01  0.5241954E+05 -0.2746231E+01  0.5695593E+05  0.1660105E+01
  0.1226190E+01  0.6319477E+05 -0.1425717E+01  0.5354377E+05 -0.2737481E+01  0.5979377E+05  0.1672255E+01
  0.1257143E+01  0.6597426E+05 -0.1407313E+01  0.5451387E+05 -0.2728046E+01  0.6248714E+05  0.1685545E+01
  0.1288095E+01  0.6889894E+05 -0.1387767E+01  0.5541746E+05 -0.2719650E+01  0.6546750E+05  0.1699687E+01
  0.1319048E+01  0.7154474E+05 -0.1366483E+01  0.5625654E+05 -0.2711656E+01  0.6819873E+05  0.1715018E+01
  0.1350000E+01  0.7407294E+05 -0.1343806E+01  0.5702948E+05 -0.2704432E+01  0.7081334E+05  0.1731336E+01
  0.1380952E+01  0.7658648E+05 -0.1320089E+01  0.5774939E+05 -0.2698147E+01  0.7346223E+05  0.1748316E+01
  0.1411905E+01  0.7878116E+05 -0.1294680E+01  0.5830508E+05 -0.2691388E+01  0.7580634E+05  0.1766409E+01
  0.1442857E+01  0.8093255E+05 -0.1268350E+01  0.5868057E+05 -0.2684067E+01  0.7796972E+05  0.1785414E+01
  0.1473810E+01  0.8293086E+05 -0.1240942E+01  0.5899957E+05 -0.2677303E+01  0.8021588E+05  0.1805028E+01
  0.1504762E+01  0.8456815E+05 -0.1212242E+01  0.5923871E+05 -0.2671009E+01  0.8215645E+05  0.1825370E+01
  0.1535714E+01  0.8585116E+05 -0.1182449E+01  0.5940071E+05 -0.2665376E+01  0.8377179E+05  0.1846310E+01
  0.1566667E+01  0.8680349E+05 -0.1151888E+01  0.5949927E+05 -0.2660455E+01  0.8511925E+05  0.1867483E+01
  0.1597619E+01  0.8746481E+05 -0.1121046E+01  0.5953291E+05 -0.2656336E+01  0.8626698E+05  0.1888372E+01
  0.1628572E+01  0.8775796E+05 -0.1089759E+01  0.5940218E+05 -0.2651791E+01  0.8698395E+05  0.1909277E+01
  0.1659524E+01  0.8766052E+05 -0.1058153E+01  0.5910136E+05 -0.2646695E+01  0.8723611E+05  0.1930157E+01
  0.1690476E+01  0.8723158E+05 -0.1026470E+01  0.5874282E+05 -0.2642089E+01  0.8736662E+05  0.1950546E+01
  0.1721429E+01  0.8641318E+05 -0.9948688E+00  0.5830957E+05 -0.2637786E+01  0.8723772E+05  0.1970168E+01
  0.1752381E+01  0.8508491E+05 -0.9631802E+00  0.5781080E+05 -0.2634074E+01  0.8658561E+05  0.1988976E+01
  0.1783333E+01  0.8336652E+05 -0.9320592E+00  0.5724880E+05 -0.2631099E+01  0.8556164E+05  0.2006396E+01
  0.1814286E+01  0.8130272E+05 -0.9014143E+00  0.5663791E+05 -0.2628637E+01  0.8432486E+05  0.2022524E+01
  0.1845238E+01  0.7885936E+05 -0.8710309E+00  0.5598611E+05 -0.2626751E+01  0.8281589E+05  0.2037410E+01
  0.1876190E+01  0.7605710E+05 -0.8414887E+00  0.5519387E+05 -0.2624715E+01  0.8088569E+05  0.2050368E+01
  0.1907143E+01  0.7292035E+05 -0.8131099E+00  0.5424815E+05 -0.2622334E+01  0.7849966E+05  0.2060940E+01
  0.1938095E+01  0.6953542E+05 -0.7858924E+00  0.5325951E+05 -0.2620512E+01  0.7596662E+05  0.2069107E+01
  0.1969048E+01  0.6596979E+05 -0.7601287E+00  0.5223629E+05 -0.2619007E+01  0.7344586E+05  0.2074772E+01
  0.2000000E+01  0.6205729E+05 -0.7348287E+00  0.5117151E+05 -0.2617730E+01  0.7059427E+05  0.2077883E+01
