VARIABLES="w (rad/s)"
"A   1   1" "B   1   1"
"A   1   2" "B   1   2"
"A   1   3" "B   1   3"
Zone t="Motion of body    1 in DoF   1",I=    64,F=POINT
  0.5000000E-01  0.8343368E+05  0.5666736E-02  0.2861023E-03  0.7125738E-05 -0.2408405E+06 -0.1665044E-01
  0.8095238E-01  0.8406011E+05  0.2476081E-01 -0.2096961E-02 -0.4140384E-05 -0.2424064E+06 -0.7253124E-01
  0.1119048E+00  0.8418157E+05  0.6918217E-01  0.3477056E-02  0.3990982E-04 -0.2427899E+06 -0.2021874E+00
  0.1428571E+00  0.8436488E+05  0.1555354E+00  0.1922607E-02  0.4799559E-04 -0.2430147E+06 -0.4540837E+00
  0.1738095E+00  0.8450712E+05  0.3092185E+00  0.2414233E-03  0.1027831E-04 -0.2434022E+06 -0.9022274E+00
  0.2047619E+00  0.8457426E+05  0.5694048E+00  0.3260235E-02  0.4527858E-04 -0.2434915E+06 -0.1659733E+01
  0.2357143E+00  0.8473785E+05  0.9999294E+00  0.7557724E-02  0.1556259E-03 -0.2437435E+06 -0.2910393E+01
  0.2666667E+00  0.8482516E+05  0.1699895E+01  0.1344681E-02  0.9630062E-04 -0.2440855E+06 -0.4942502E+01
  0.2976190E+00  0.8497370E+05  0.2842222E+01  0.5126953E-04  0.7244572E-04 -0.2443282E+06 -0.8250124E+01
  0.3285715E+00  0.8517885E+05  0.4685562E+01  0.2530969E-02  0.1049694E-03 -0.2447112E+06 -0.1357307E+02
  0.3595238E+00  0.8536194E+05  0.7661720E+01  0.1909875E-02  0.2194196E-03 -0.2452060E+06 -0.2215494E+02
  0.3904762E+00  0.8554181E+05  0.1243053E+02  0.3302039E-02  0.3185868E-03 -0.2455635E+06 -0.3586678E+02
  0.4214286E+00  0.8587645E+05  0.1991384E+02 -0.3801766E-03 -0.6645918E-05 -0.2462344E+06 -0.5730730E+02
  0.4523810E+00  0.8610660E+05  0.3159797E+02 -0.1619038E-02  0.1862645E-04 -0.2468092E+06 -0.9072767E+02
  0.4833333E+00  0.8645291E+05  0.4889813E+02  0.2020474E-02  0.5065501E-03 -0.2476084E+06 -0.1400147E+03
  0.5142857E+00  0.8675366E+05  0.7441323E+02 -0.1928541E-02  0.4517734E-03 -0.2482170E+06 -0.2124520E+03
  0.5452381E+00  0.8713922E+05  0.1105520E+03  0.4225818E-02  0.1465619E-02 -0.2490416E+06 -0.3146316E+03
  0.5761905E+00  0.8759088E+05  0.1603579E+03  0.3283792E-02  0.8849502E-03 -0.2501066E+06 -0.4549090E+03
  0.6071429E+00  0.8802566E+05  0.2282658E+03  0.4548914E-02  0.1640201E-02 -0.2512440E+06 -0.6455844E+03
  0.6380953E+00  0.8850498E+05  0.3177358E+03  0.1913042E-03  0.4787445E-03 -0.2521865E+06 -0.8950793E+03
  0.6690477E+00  0.8905597E+05  0.4347218E+03  0.3443816E-02  0.8971691E-03 -0.2533732E+06 -0.1219762E+04
  0.7000000E+00  0.8960995E+05  0.5857418E+03  0.2485003E-02  0.2529621E-03 -0.2546634E+06 -0.1637097E+04
  0.7309524E+00  0.9018748E+05  0.7768869E+03  0.8350086E-04  0.9055138E-03 -0.2559754E+06 -0.2162266E+04
  0.7619048E+00  0.9089117E+05  0.1017209E+04 -0.1221657E-02  0.1505852E-02 -0.2576587E+06 -0.2819126E+04
  0.7928572E+00  0.9150715E+05  0.1314798E+04 -0.3849063E-04  0.3824234E-03 -0.2589465E+06 -0.3626583E+04
  0.8238096E+00  0.9222809E+05  0.1680941E+04  0.7594114E-03  0.1724243E-02 -0.2604747E+06 -0.4613415E+04
  0.8547620E+00  0.9301003E+05  0.2126438E+04  0.0000000E+00  0.1457214E-02 -0.2620801E+06 -0.5805035E+04
  0.8857143E+00  0.9381589E+05  0.2663529E+04 -0.4306916E-03  0.1576424E-02 -0.2638561E+06 -0.7233298E+04
  0.9166667E+00  0.9454168E+05  0.3303451E+04 -0.4993785E-03  0.6704330E-03 -0.2654176E+06 -0.8923023E+04
  0.9476191E+00  0.9535805E+05  0.4062795E+04  0.2769585E-02  0.2460480E-02 -0.2672452E+06 -0.1091470E+05
  0.9785714E+00  0.9619859E+05  0.4954808E+04 -0.9355754E-03  0.6675720E-03 -0.2688994E+06 -0.1322947E+05
  0.1009524E+01  0.9708788E+05  0.5996380E+04  0.1964929E-02  0.1791000E-02 -0.2706124E+06 -0.1590804E+05
  0.1040476E+01  0.9785485E+05  0.7197720E+04 -0.2141119E-02 -0.6675720E-04 -0.2719819E+06 -0.1896879E+05
  0.1071429E+01  0.9867525E+05  0.8581985E+04 -0.6266276E-03  0.2151489E-02 -0.2735363E+06 -0.2246735E+05
  0.1102381E+01  0.9942417E+05  0.1015912E+05 -0.1079650E-02  0.3234863E-02 -0.2748299E+06 -0.2641180E+05
  0.1133333E+01  0.1001929E+06  0.1195020E+05 -0.7001092E-03 -0.4959106E-04 -0.2761023E+06 -0.3084353E+05
  0.1164286E+01  0.1009273E+06  0.1396754E+05 -0.2096913E-03  0.3185272E-02 -0.2773222E+06 -0.3578873E+05
  0.1195238E+01  0.1014867E+06  0.1620993E+05 -0.6383159E-03  0.9040833E-03 -0.2780868E+06 -0.4122450E+05
  0.1226190E+01  0.1019904E+06  0.1869297E+05  0.1269294E-02  0.3501892E-02 -0.2786139E+06 -0.4716606E+05
  0.1257143E+01  0.1023317E+06  0.2140796E+05 -0.5583329E-03  0.5340576E-03 -0.2787267E+06 -0.5358384E+05
  0.1288095E+01  0.1027058E+06  0.2440473E+05  0.4738404E-03  0.1373291E-02 -0.2786677E+06 -0.6054206E+05
  0.1319048E+01  0.1029002E+06  0.2763848E+05 -0.1712069E-02  0.2258301E-02 -0.2781757E+06 -0.6794673E+05
  0.1350000E+01  0.1029310E+06  0.3111950E+05 -0.1130281E-02  0.3173828E-02 -0.2774017E+06 -0.7582399E+05
  0.1380952E+01  0.1026970E+06  0.3480909E+05 -0.2033102E-02  0.8010864E-03 -0.2759145E+06 -0.8401680E+05
  0.1411905E+01  0.1021222E+06  0.3863492E+05 -0.9510368E-03 -0.1060486E-02 -0.2739295E+06 -0.9244308E+05
  0.1442857E+01  0.1016223E+06  0.4275201E+05 -0.1692064E-03  0.2098083E-02 -0.2719355E+06 -0.1013320E+06
  0.1473810E+01  0.1007830E+06  0.4697838E+05 -0.2691857E-03  0.1815796E-02 -0.2690922E+06 -0.1102373E+06
  0.1504762E+01  0.9981780E+05  0.5134563E+05 -0.5881394E-03  0.2304077E-02 -0.2660062E+06 -0.1192672E+06
  0.1535714E+01  0.9868586E+05  0.5577674E+05 -0.5564135E-03  0.2059937E-02 -0.2624754E+06 -0.1281707E+06
  0.1566667E+01  0.9729788E+05  0.6022273E+05 -0.2259599E-02  0.1007080E-02 -0.2585347E+06 -0.1369251E+06
  0.1597619E+01  0.9559434E+05  0.6455532E+05  0.3629363E-03  0.7629395E-04 -0.2537715E+06 -0.1450708E+06
  0.1628572E+01  0.9376852E+05  0.6886266E+05 -0.3560384E-03 -0.2761841E-02 -0.2489272E+06 -0.1529996E+06
  0.1659524E+01  0.9184522E+05  0.7310006E+05 -0.2850350E-02  0.9002686E-03 -0.2440142E+06 -0.1605869E+06
  0.1690476E+01  0.8964361E+05  0.7705730E+05 -0.5776848E-03  0.3005981E-02 -0.2385035E+06 -0.1672391E+06
  0.1721429E+01  0.8736645E+05  0.8083552E+05  0.7268502E-03 -0.9460449E-03 -0.2329763E+06 -0.1733078E+06
  0.1752381E+01  0.8500868E+05  0.8432777E+05  0.7662566E-03  0.1190186E-02 -0.2273316E+06 -0.1784968E+06
  0.1783333E+01  0.8260948E+05  0.8754104E+05 -0.1369013E-02  0.1281738E-02 -0.2217663E+06 -0.1829335E+06
  0.1814286E+01  0.8011868E+05  0.9039618E+05 -0.1766175E-02  0.1586914E-02 -0.2162029E+06 -0.1864988E+06
  0.1845238E+01  0.7750387E+05  0.9273009E+05 -0.1124622E-02 -0.9307861E-03 -0.2103648E+06 -0.1885921E+06
  0.1876190E+01  0.7495099E+05  0.9479498E+05 -0.1756697E-02 -0.1495361E-02 -0.2049034E+06 -0.1901811E+06
  0.1907143E+01  0.7247315E+05  0.9656839E+05  0.2240242E-03  0.4577637E-03 -0.1997822E+06 -0.1911503E+06
  0.1938095E+01  0.7000345E+05  0.9788252E+05 -0.3464157E-02  0.6561279E-03 -0.1947689E+06 -0.1910372E+06
  0.1969048E+01  0.6758802E+05  0.9875595E+05 -0.7749325E-04  0.6866455E-04 -0.1899587E+06 -0.1898634E+06
  0.2000000E+01  0.6531359E+05  0.9934136E+05  0.1525879E-04 -0.3814697E-03 -0.1855772E+06 -0.1881711E+06
Zone t="Motion of body    1 in DoF   2",I=    64,F=POINT
  0.5000000E-01  0.2651215E-02 -0.4768372E-05  0.2484239E+05  0.3045505E+02  0.7629395E-03  0.2634525E-04
  0.8095238E-01 -0.9071126E-03 -0.1382828E-04  0.2471389E+05  0.5037140E+02  0.2129947E-01  0.6198883E-04
  0.1119048E+00  0.8351752E-03 -0.8821487E-05  0.2461013E+05  0.7186018E+02  0.3136168E-02 -0.1144409E-04
  0.1428571E+00  0.2002716E-02  0.1049042E-04  0.2456366E+05  0.9568051E+02 -0.5126953E-02 -0.1010895E-03
  0.1738095E+00 -0.1931386E-02  0.7009506E-04  0.2454498E+05  0.1226345E+03 -0.1404645E-02 -0.2241135E-04
  0.2047619E+00  0.1676692E-03  0.7295609E-04  0.2450168E+05  0.1539855E+03  0.2086551E-02 -0.2193451E-04
  0.2357143E+00 -0.8739124E-03 -0.1716614E-04  0.2451752E+05  0.1911959E+03  0.6473425E-02 -0.3118515E-03
  0.2666667E+00  0.1788139E-02  0.2574921E-04  0.2450815E+05  0.2353276E+03 -0.5378723E-02 -0.4577637E-04
  0.2976190E+00  0.8459472E-03  0.1125336E-03  0.2453249E+05  0.2895546E+03  0.7177734E-02 -0.2098083E-04
  0.3285715E+00  0.1021675E-02 -0.1640320E-03  0.2452922E+05  0.3546805E+03  0.8359161E-03  0.2136230E-03
  0.3595238E+00 -0.2970916E-03  0.2670288E-04  0.2455449E+05  0.4341771E+03 -0.4413933E-02 -0.3890991E-03
  0.3904762E+00 -0.4357128E-02 -0.2269745E-03  0.2452546E+05  0.5296795E+03  0.1438048E-01  0.3757477E-03
  0.4214286E+00  0.3421589E-02 -0.1068115E-03  0.2454472E+05  0.6388893E+03 -0.1375877E-01  0.6713867E-03
  0.4523810E+00 -0.1686498E-03 -0.3395081E-03  0.2444317E+05  0.7682834E+03  0.7825349E-02  0.5264282E-03
  0.4833333E+00 -0.3346410E-02  0.1144409E-04  0.2438676E+05  0.9019736E+03  0.1098633E-01  0.1026154E-02
  0.5142857E+00 -0.3115336E-03  0.3738403E-03  0.2425779E+05  0.1048832E+04  0.9019640E-02 -0.3433228E-04
  0.5452381E+00  0.1917010E-02  0.1754761E-03  0.2411241E+05  0.1197298E+04 -0.3917977E-02  0.4043579E-03
  0.5761905E+00 -0.1151975E-02 -0.1220703E-03  0.2401061E+05  0.1342464E+04  0.9215803E-02  0.1220703E-03
  0.6071429E+00  0.1332002E-02  0.1525879E-03  0.2378120E+05  0.1490900E+04  0.5126953E-02  0.6484985E-03
  0.6380953E+00 -0.1554347E-02 -0.2288818E-04  0.2361534E+05  0.1626724E+04  0.1042608E-01 -0.7019043E-03
  0.6690477E+00 -0.7754288E-03  0.2288818E-04  0.2346736E+05  0.1756080E+04  0.3284169E-02  0.3082275E-02
  0.7000000E+00 -0.4250662E-03  0.2365112E-03  0.2322314E+05  0.1879697E+04  0.1325335E-01 -0.1358032E-02
  0.7309524E+00  0.2734653E-02 -0.9155273E-03  0.2303330E+05  0.1989799E+04  0.4509046E-02 -0.1373291E-03
  0.7619048E+00  0.2733707E-02  0.6713867E-03  0.2290660E+05  0.2088812E+04  0.2243042E-02  0.1510620E-02
  0.7928572E+00 -0.3656610E-03 -0.7324219E-03  0.2266188E+05  0.2172851E+04  0.2155476E-02  0.2822876E-02
  0.8238096E+00 -0.2370845E-02 -0.1785278E-02  0.2245135E+05  0.2244395E+04  0.1481778E-02  0.3860474E-02
  0.8547620E+00  0.8925754E-05  0.1068115E-03  0.2229126E+05  0.2301808E+04 -0.7283415E-02 -0.4257202E-02
  0.8857143E+00 -0.1042274E-02 -0.4272461E-03  0.2217203E+05  0.2345553E+04 -0.2205141E-02 -0.2456665E-02
  0.9166667E+00 -0.6075772E-03  0.7934570E-03  0.2195637E+05  0.2365684E+04  0.2663352E-02 -0.6088257E-02
  0.9476191E+00 -0.2149649E-02  0.9460449E-03  0.2177945E+05  0.2373823E+04  0.7600257E-02  0.1403809E-02
  0.9785714E+00 -0.1637257E-03 -0.5645752E-03  0.2164709E+05  0.2370389E+04 -0.4615505E-02 -0.6561279E-03
  0.1009524E+01 -0.6272658E-03 -0.1632690E-02  0.2157083E+05  0.2357935E+04  0.3990318E-02  0.6103516E-03
  0.1040476E+01 -0.1961470E-02  0.5645752E-03  0.2142758E+05  0.2316376E+04  0.6335365E-02 -0.1419067E-02
  0.1071429E+01 -0.9897868E-03 -0.6713867E-03  0.2128446E+05  0.2261569E+04  0.8772787E-02 -0.1953125E-02
  0.1102381E+01 -0.1885927E-02  0.5798340E-03  0.2118006E+05  0.2200400E+04  0.4540066E-02  0.2822876E-02
  0.1133333E+01 -0.1916885E-02  0.7171631E-03  0.2111491E+05  0.2136703E+04  0.8078182E-02  0.5447388E-02
  0.1164286E+01 -0.6864115E-03  0.1785278E-02  0.2109891E+05  0.2076164E+04  0.5976203E-02 -0.6790161E-03
  0.1195238E+01 -0.3662337E-03  0.9613037E-03  0.2102826E+05  0.1978851E+04  0.5106527E-03 -0.5561829E-02
  0.1226190E+01 -0.1504954E-02  0.8850098E-03  0.2095108E+05  0.1868647E+04  0.7466437E-02 -0.5187988E-02
  0.1257143E+01  0.1054460E-03 -0.1129150E-02  0.2089699E+05  0.1760501E+04 -0.5826083E-03  0.1136780E-02
  0.1288095E+01  0.1377099E-03 -0.1174927E-02  0.2087319E+05  0.1660606E+04 -0.1516289E-02  0.2883911E-02
  0.1319048E+01 -0.3528250E-03 -0.3051758E-04  0.2088232E+05  0.1573755E+04  0.4627214E-03 -0.2090454E-02
  0.1350000E+01 -0.9833442E-03  0.1983643E-02  0.2092738E+05  0.1511312E+04  0.5334925E-02 -0.2128601E-02
  0.1380952E+01 -0.1157432E-02  0.6103516E-03  0.2090597E+05  0.1376951E+04  0.8662783E-02 -0.1091003E-02
  0.1411905E+01 -0.1067215E-02  0.7781982E-03  0.2088908E+05  0.1245063E+04  0.2593737E-02 -0.6179810E-03
  0.1442857E+01 -0.1057540E-02  0.8087158E-03  0.2088576E+05  0.1123925E+04  0.6852858E-02 -0.4760742E-02
  0.1473810E+01 -0.1863594E-02 -0.2258301E-02  0.2090055E+05  0.1020398E+04  0.9276554E-02  0.2746582E-02
  0.1504762E+01 -0.6287007E-03 -0.2059937E-02  0.2093402E+05  0.9418339E+03  0.3488275E-02  0.3574371E-02
  0.1535714E+01 -0.1291674E-02 -0.9002686E-03  0.2098374E+05  0.8887313E+03  0.1073083E-01  0.1525879E-02
  0.1566667E+01 -0.6330774E-03 -0.9460449E-03  0.2105168E+05  0.8768312E+03  0.5610040E-02  0.1911163E-02
  0.1597619E+01  0.6685669E-04  0.4577637E-03  0.2105896E+05  0.7263282E+03 -0.8404841E-03  0.1255035E-02
  0.1628572E+01 -0.8151405E-03 -0.1159668E-02  0.2108175E+05  0.6149579E+03  0.5246881E-02  0.4405975E-02
  0.1659524E+01 -0.1425175E-02  0.3051758E-04  0.2110632E+05  0.5167233E+03  0.5884595E-02 -0.7514954E-03
  0.1690476E+01 -0.1001922E-02 -0.1525879E-03  0.2113948E+05  0.4428735E+03  0.6210112E-02  0.8697510E-03
  0.1721429E+01 -0.1365060E-02 -0.5798340E-03  0.2117611E+05  0.3909611E+03  0.4751118E-02 -0.6904602E-03
  0.1752381E+01 -0.8620387E-03 -0.9765625E-03  0.2121868E+05  0.3657958E+03  0.5363796E-02  0.1632690E-02
  0.1783333E+01 -0.7358444E-03 -0.1098633E-02  0.2126236E+05  0.3685523E+03  0.3764785E-02 -0.3662109E-03
  0.1814286E+01 -0.8914978E-03 -0.3051758E-04  0.2130686E+05  0.3901380E+03  0.4306103E-02 -0.9326935E-03
  0.1845238E+01 -0.8103893E-03 -0.2441406E-03  0.2133680E+05  0.2725666E+03 -0.4630796E-03  0.8430481E-03
  0.1876190E+01 -0.1390719E-02  0.6561279E-03  0.2137008E+05  0.2076410E+03  0.5335154E-02 -0.7362366E-03
  0.1907143E+01 -0.7120768E-03 -0.6332397E-03  0.2139863E+05  0.1463112E+03  0.3840415E-02  0.1284599E-02
  0.1938095E+01 -0.1637602E-02 -0.4043579E-03  0.2142883E+05  0.1122593E+03  0.6928315E-02  0.1127720E-02
  0.1969048E+01 -0.6896899E-03 -0.3738403E-03  0.2145598E+05  0.8544773E+02  0.4835579E-02  0.5426407E-03
  0.2000000E+01 -0.1289368E-02  0.6484985E-03  0.2148260E+05  0.8139433E+02  0.8056641E-02  0.6566048E-03
Zone t="Motion of body    1 in DoF   3",I=    64,F=POINT
  0.5000000E-01 -0.2410980E+06 -0.1665927E-01  0.1846313E-01  0.1857637E-04  0.8536381E+06  0.4906019E-01
  0.8095238E-01 -0.2426622E+06 -0.7261431E-01  0.2233617E-01  0.7239371E-04  0.8568531E+06  0.2127110E+00
  0.1119048E+00 -0.2430464E+06 -0.2025106E+00  0.4499719E-02 -0.7131335E-04  0.8577968E+06  0.5917301E+00
  0.1428571E+00 -0.2432852E+06 -0.4550173E+00  0.8544921E-03 -0.4794099E-04  0.8580837E+06  0.1328334E+01
  0.1738095E+00 -0.2436798E+06 -0.9039788E+00 -0.1413424E-01 -0.2542245E-03  0.8590044E+06  0.2637928E+01
  0.2047619E+00 -0.2437739E+06 -0.1663011E+01 -0.1475489E-01 -0.2883105E-03  0.8591812E+06  0.4847663E+01
  0.2357143E+00 -0.2440312E+06 -0.2916629E+01 -0.3958499E-01 -0.9755455E-03  0.8596969E+06  0.8489621E+01
  0.2666667E+00 -0.2443657E+06 -0.4951663E+01  0.2746582E-02 -0.1152027E-03  0.8606098E+06  0.1439838E+02
  0.2976190E+00 -0.2446017E+06 -0.8265883E+01 -0.1256104E-01 -0.8856207E-03  0.8610488E+06  0.2399378E+02
  0.3285715E+00 -0.2450112E+06 -0.1360160E+02  0.4736858E-02 -0.2409592E-03  0.8619924E+06  0.3939967E+02
  0.3595238E+00 -0.2454864E+06 -0.2219707E+02  0.9506932E-02  0.5730987E-04  0.8630903E+06  0.6418340E+02
  0.3904762E+00 -0.2458580E+06 -0.3593682E+02  0.2645539E-01  0.1111463E-02  0.8639482E+06  0.1036893E+03
  0.4214286E+00 -0.2465373E+06 -0.5743056E+02 -0.1412084E-02 -0.8526146E-03  0.8654376E+06  0.1652678E+03
  0.4523810E+00 -0.2471077E+06 -0.9090789E+02 -0.8432488E-03 -0.5379319E-03  0.8668281E+06  0.2610309E+03
  0.4833333E+00 -0.2479043E+06 -0.1402908E+03  0.5493164E-02 -0.3448129E-03  0.8686219E+06  0.4017092E+03
  0.5142857E+00 -0.2485129E+06 -0.2128861E+03  0.2788968E-02 -0.3561974E-03  0.8700956E+06  0.6077900E+03
  0.5452381E+00 -0.2493582E+06 -0.3153021E+03  0.1998168E-01  0.1166821E-02  0.8720666E+06  0.8973506E+03
  0.5761905E+00 -0.2504180E+06 -0.4558553E+03 -0.2717073E-01 -0.6304026E-02  0.8745144E+06  0.1293180E+04
  0.6071429E+00 -0.2515427E+06 -0.6467203E+03 -0.1181210E-01 -0.3264904E-02  0.8772087E+06  0.1829128E+04
  0.6380953E+00 -0.2524984E+06 -0.8968847E+03 -0.1310434E-01 -0.4488945E-02  0.8794051E+06  0.2526575E+04
  0.6690477E+00 -0.2536879E+06 -0.1222344E+04 -0.2741369E-01 -0.6479740E-02  0.8820526E+06  0.3429698E+04
  0.7000000E+00 -0.2549795E+06 -0.1640349E+04 -0.1988002E-01 -0.8096695E-02  0.8850782E+06  0.4584686E+04
  0.7309524E+00 -0.2562974E+06 -0.2166430E+04  0.7932582E-02 -0.2129555E-02  0.8882606E+06  0.6029692E+04
  0.7619048E+00 -0.2579688E+06 -0.2824047E+04  0.1273727E-01 -0.2537727E-02  0.8920892E+06  0.7826606E+04
  0.7928572E+00 -0.2592461E+06 -0.3633053E+04  0.1170115E-01  0.1115799E-02  0.8949251E+06  0.1002091E+05
  0.8238096E+00 -0.2607930E+06 -0.4621908E+04 -0.2556068E-02  0.1022339E-02  0.8982874E+06  0.1268495E+05
  0.8547620E+00 -0.2624107E+06 -0.5816916E+04  0.9247080E-02 -0.1457214E-02  0.9017769E+06  0.1587972E+05
  0.8857143E+00 -0.2641847E+06 -0.7247298E+04 -0.1088788E-01 -0.8045197E-02  0.9056832E+06  0.1968111E+05
  0.9166667E+00 -0.2657302E+06 -0.8938814E+04  0.6258878E-02 -0.3681183E-02  0.9090484E+06  0.2414450E+05
  0.9476191E+00 -0.2675552E+06 -0.1093083E+05 -0.6440896E-04 -0.5676270E-02  0.9129354E+06  0.2936534E+05
  0.9785714E+00 -0.2692200E+06 -0.1325050E+05  0.1921048E-01  0.4928589E-02  0.9163243E+06  0.3537888E+05
  0.1009524E+01 -0.2709352E+06 -0.1593493E+05 -0.1632403E-02 -0.2944946E-02  0.9195059E+06  0.4227327E+05
  0.1040476E+01 -0.2722966E+06 -0.1900195E+05  0.1759824E-03 -0.5935669E-02  0.9218946E+06  0.5007548E+05
  0.1071429E+01 -0.2738588E+06 -0.2250426E+05 -0.4215495E-02 -0.4440308E-02  0.9247354E+06  0.5891278E+05
  0.1102381E+01 -0.2751571E+06 -0.2645404E+05  0.6145699E-02 -0.7858276E-03  0.9268336E+06  0.6877302E+05
  0.1133333E+01 -0.2764366E+06 -0.3089505E+05  0.5277746E-02 -0.2510071E-02  0.9287891E+06  0.7973830E+05
  0.1164286E+01 -0.2776445E+06 -0.3584312E+05 -0.8911881E-03 -0.9963989E-02  0.9303375E+06  0.9183455E+05
  0.1195238E+01 -0.2783886E+06 -0.4127888E+05  0.1011092E-01  0.4302979E-02  0.9307884E+06  0.1049683E+06
  0.1226190E+01 -0.2789100E+06 -0.4722375E+05 -0.8362409E-02 -0.1290894E-01  0.9306656E+06  0.1191445E+06
  0.1257143E+01 -0.2790158E+06 -0.5363851E+05  0.8690573E-02 -0.1068115E-02  0.9293591E+06  0.1342458E+06
  0.1288095E+01 -0.2789847E+06 -0.6062164E+05  0.6965454E-02 -0.1846313E-02  0.9275414E+06  0.1503733E+06
  0.1319048E+01 -0.2784873E+06 -0.6804586E+05  0.2406151E-02 -0.6668091E-02  0.9244471E+06  0.1672680E+06
  0.1350000E+01 -0.2777078E+06 -0.7592581E+05 -0.8590133E-03 -0.5752563E-02  0.9208562E+06  0.1849675E+06
  0.1380952E+01 -0.2761978E+06 -0.8412341E+05  0.8176606E-02 -0.1083374E-02  0.9154424E+06  0.2029950E+06
  0.1411905E+01 -0.2742149E+06 -0.9253677E+05  0.6052053E-02  0.1861572E-02  0.9094138E+06  0.2213697E+06
  0.1442857E+01 -0.2722187E+06 -0.1014080E+06  0.1015238E-01 -0.7690430E-02  0.9029289E+06  0.2402947E+06
  0.1473810E+01 -0.2693777E+06 -0.1103177E+06 -0.4555451E-02 -0.6561279E-02  0.8947039E+06  0.2587976E+06
  0.1504762E+01 -0.2662941E+06 -0.1193516E+06  0.6408691E-02 -0.4089355E-02  0.8860649E+06  0.2771806E+06
  0.1535714E+01 -0.2627400E+06 -0.1282459E+06  0.3179506E-03 -0.6561279E-02  0.8760439E+06  0.2945892E+06
  0.1566667E+01 -0.2587996E+06 -0.1369832E+06 -0.2337516E-03  0.3479004E-02  0.8657950E+06  0.3113231E+06
  0.1597619E+01 -0.2540087E+06 -0.1451251E+06  0.1554896E-01  0.1678467E-02  0.8533998E+06  0.3259266E+06
  0.1628572E+01 -0.2491612E+06 -0.1530502E+06  0.5022015E-02  0.2777100E-02  0.8414546E+06  0.3398539E+06
  0.1659524E+01 -0.2442589E+06 -0.1605999E+06  0.1706532E-01  0.3356934E-02  0.8293815E+06  0.3525227E+06
  0.1690476E+01 -0.2387503E+06 -0.1672505E+06 -0.1949686E-02 -0.4669189E-02  0.8164022E+06  0.3627105E+06
  0.1721429E+01 -0.2332356E+06 -0.1733300E+06  0.2411015E-02  0.4577637E-03  0.8037870E+06  0.3713368E+06
  0.1752381E+01 -0.2275776E+06 -0.1785015E+06 -0.9055760E-03 -0.6622314E-02  0.7909018E+06  0.3775302E+06
  0.1783333E+01 -0.2220073E+06 -0.1829025E+06  0.9275062E-02 -0.2532959E-02  0.7784508E+06  0.3817287E+06
  0.1814286E+01 -0.2164568E+06 -0.1864603E+06  0.2994087E-02 -0.2105713E-02  0.7667374E+06  0.3841988E+06
  0.1845238E+01 -0.2105927E+06 -0.1885294E+06  0.9592364E-02  0.4608154E-02  0.7542430E+06  0.3827086E+06
  0.1876190E+01 -0.2051325E+06 -0.1901199E+06  0.5823126E-02  0.2075195E-02  0.7432421E+06  0.3807450E+06
  0.1907143E+01 -0.2000391E+06 -0.1910610E+06  0.6336684E-02 -0.5187988E-03  0.7330632E+06  0.3772606E+06
  0.1938095E+01 -0.1950362E+06 -0.1909248E+06  0.3936543E-02  0.5645752E-03  0.7234462E+06  0.3717022E+06
  0.1969048E+01 -0.1902311E+06 -0.1897747E+06 -0.4959568E-03  0.1525879E-03  0.7145273E+06  0.3638059E+06
  0.2000000E+01 -0.1858534E+06 -0.1880978E+06 -0.6103516E-04 -0.3662109E-03  0.7067960E+06  0.3553780E+06
