VARIABLES="w (rad/s)"
"A   1   1" "B   1   1"
"A   1   2" "B   1   2"
"A   1   3" "B   1   3"
Zone t="Motion of body    1 in DoF   1",I=    64,F=POINT
  0.5000000E-01  0.4658862E+05  0.2169924E-02  0.1361847E-01  0.2489810E-04 -0.3724626E+05 -0.1349987E-02
  0.8095238E-01  0.4687369E+05  0.9457154E-02  0.6031709E-02  0.1621700E-04 -0.3761529E+05 -0.5803693E-02
  0.1119048E+00  0.4696697E+05  0.2660576E-01  0.9510770E-02  0.5225491E-04 -0.3766386E+05 -0.1628246E-01
  0.1428571E+00  0.4700847E+05  0.5977098E-01  0.1431274E-01  0.9366922E-04 -0.3769361E+05 -0.3636888E-01
  0.1738095E+00  0.4710564E+05  0.1190242E+00  0.9393561E-02  0.9062630E-04 -0.3769076E+05 -0.7223023E-01
  0.2047619E+00  0.4714936E+05  0.2195753E+00  0.7675526E-02  0.6120675E-04 -0.3769548E+05 -0.1329964E+00
  0.2357143E+00  0.4717779E+05  0.3863524E+00  0.4628499E-02  0.4584435E-05 -0.3770505E+05 -0.2331385E+00
  0.2666667E+00  0.4727343E+05  0.6589406E+00  0.7438659E-03 -0.2598576E-04 -0.3772069E+05 -0.3955050E+00
  0.2976190E+00  0.4737014E+05  0.1104735E+01  0.2358398E-02  0.4836358E-05 -0.3770303E+05 -0.6592221E+00
  0.3285715E+00  0.4739528E+05  0.1826027E+01  0.1578953E-02  0.7321686E-04 -0.3773447E+05 -0.1084448E+01
  0.3595238E+00  0.4752707E+05  0.2997627E+01 -0.9337165E-03 -0.1024976E-03 -0.3775282E+05 -0.1768619E+01
  0.3904762E+00  0.4764530E+05  0.4883872E+01  0.2227411E-02  0.3201514E-04 -0.3775854E+05 -0.2859698E+01
  0.4214286E+00  0.4775932E+05  0.7849566E+01  0.7748360E-02  0.3399849E-03 -0.3777575E+05 -0.4559590E+01
  0.4523810E+00  0.4789857E+05  0.1250804E+02  0.1062493E-01  0.4490018E-03 -0.3777190E+05 -0.7203589E+01
  0.4833333E+00  0.4811857E+05  0.1945026E+02  0.6629681E-02  0.6598234E-03 -0.3775437E+05 -0.1108575E+02
  0.5142857E+00  0.4824827E+05  0.2972408E+02 -0.7120768E-03 -0.7247925E-03 -0.3783110E+05 -0.1679792E+02
  0.5452381E+00  0.4837798E+05  0.4433699E+02 -0.3302295E-02 -0.5156398E-03 -0.3787205E+05 -0.2481163E+02
  0.5761905E+00  0.4861443E+05  0.6462289E+02 -0.3495649E-02 -0.6367564E-03 -0.3789007E+05 -0.3574620E+02
  0.6071429E+00  0.4886546E+05  0.9246166E+02 -0.1960305E-02 -0.8521080E-03 -0.3792319E+05 -0.5054377E+02
  0.6380953E+00  0.4911395E+05  0.1293625E+03  0.1052173E-02 -0.6384850E-03 -0.3797304E+05 -0.6985240E+02
  0.6690477E+00  0.4932355E+05  0.1777999E+03  0.6842019E-03 -0.9167194E-03 -0.3807997E+05 -0.9489040E+02
  0.7000000E+00  0.4954711E+05  0.2406784E+03 -0.4534040E-02 -0.1576424E-02 -0.3811527E+05 -0.1267328E+03
  0.7309524E+00  0.4987221E+05  0.3209359E+03 -0.9352096E-02 -0.3767490E-02 -0.3813138E+05 -0.1664475E+03
  0.7619048E+00  0.5024296E+05  0.4224036E+03 -0.5207061E-03 -0.1944542E-02 -0.3818818E+05 -0.2157043E+03
  0.7928572E+00  0.5056874E+05  0.5490106E+03 -0.5388689E-03 -0.9026527E-03 -0.3825830E+05 -0.2760311E+03
  0.8238096E+00  0.5088853E+05  0.7053799E+03 -0.3963757E-02 -0.1455307E-02 -0.3837132E+05 -0.3491964E+03
  0.8547620E+00  0.5121296E+05  0.8963983E+03  0.5569670E-02  0.1079559E-02 -0.3841471E+05 -0.4361039E+03
  0.8857143E+00  0.5159462E+05  0.1127980E+04  0.1791677E-02 -0.1173019E-02 -0.3847094E+05 -0.5389182E+03
  0.9166667E+00  0.5198654E+05  0.1406043E+04 -0.5992543E-03 -0.1668930E-02 -0.3848949E+05 -0.6588484E+03
  0.9476191E+00  0.5243460E+05  0.1737661E+04  0.2061087E-02 -0.2868652E-02 -0.3854918E+05 -0.7982759E+03
  0.9785714E+00  0.5287209E+05  0.2129302E+04 -0.1309806E-02 -0.9040833E-03 -0.3857297E+05 -0.9577018E+03
  0.1009524E+01  0.5330645E+05  0.2588218E+04  0.1209187E-02  0.7820129E-03 -0.3863082E+05 -0.1139490E+04
  0.1040476E+01  0.5367772E+05  0.3120923E+04 -0.6452687E-03 -0.2079010E-02 -0.3868745E+05 -0.1344354E+04
  0.1071429E+01  0.5404954E+05  0.3735029E+04  0.3361003E-02  0.5226135E-03 -0.3870304E+05 -0.1571827E+04
  0.1102381E+01  0.5443170E+05  0.4437518E+04  0.3045166E-02 -0.2021790E-02 -0.3868549E+05 -0.1822144E+04
  0.1133333E+01  0.5483312E+05  0.5235812E+04  0.1077091E-03 -0.2906799E-02 -0.3861927E+05 -0.2094175E+04
  0.1164286E+01  0.5523601E+05  0.6136141E+04  0.1572685E-03 -0.1731873E-02 -0.3856722E+05 -0.2389521E+04
  0.1195238E+01  0.5559171E+05  0.7143740E+04 -0.4595874E-02 -0.6538391E-02 -0.3850889E+05 -0.2706420E+04
  0.1226190E+01  0.5589320E+05  0.8262711E+04  0.2986575E-02  0.6942749E-03 -0.3841057E+05 -0.3040395E+04
  0.1257143E+01  0.5614189E+05  0.9500843E+04 -0.9224631E-03 -0.5004883E-02 -0.3833684E+05 -0.3393903E+04
  0.1288095E+01  0.5634525E+05  0.1084741E+05  0.1942746E-02 -0.2960205E-02 -0.3819255E+05 -0.3750919E+04
  0.1319048E+01  0.5646908E+05  0.1231118E+05 -0.3239050E-03 -0.4882812E-03 -0.3803305E+05 -0.4115786E+04
  0.1350000E+01  0.5653210E+05  0.1388405E+05 -0.8183232E-02 -0.8377075E-02 -0.3784959E+05 -0.4481383E+04
  0.1380952E+01  0.5651064E+05  0.1556066E+05  0.5392140E-02 -0.3372192E-02 -0.3763566E+05 -0.4842524E+04
  0.1411905E+01  0.5594339E+05  0.1707704E+05 -0.1685929E-02 -0.2746582E-02 -0.3742688E+05 -0.5138206E+04
  0.1442857E+01  0.5580015E+05  0.1891479E+05 -0.5245398E-02 -0.5249023E-02 -0.3717706E+05 -0.5469672E+04
  0.1473810E+01  0.5555771E+05  0.2082638E+05  0.1200982E-02 -0.5798340E-03 -0.3688583E+05 -0.5772766E+04
  0.1504762E+01  0.5524073E+05  0.2279930E+05  0.1865822E-02 -0.9124756E-02 -0.3658062E+05 -0.6043938E+04
  0.1535714E+01  0.5484055E+05  0.2481256E+05 -0.1589753E-02 -0.5615234E-02 -0.3625556E+05 -0.6273939E+04
  0.1566667E+01  0.5435748E+05  0.2685476E+05  0.2025848E-02 -0.1831055E-03 -0.3594384E+05 -0.6466436E+04
  0.1597619E+01  0.5378162E+05  0.2890227E+05 -0.3820382E-03 -0.9552002E-02 -0.3560358E+05 -0.6605878E+04
  0.1628572E+01  0.5311953E+05  0.3093795E+05 -0.5996436E-03 -0.5371094E-02 -0.3524124E+05 -0.6686951E+04
  0.1659524E+01  0.5240973E+05  0.3295022E+05 -0.4192774E-02 -0.5004883E-02 -0.3491238E+05 -0.6719559E+04
  0.1690476E+01  0.5162962E+05  0.3491291E+05  0.2166318E-03 -0.1049805E-01 -0.3456921E+05 -0.6685149E+04
  0.1721429E+01  0.5077921E+05  0.3681117E+05  0.1843718E-02  0.2258301E-02 -0.3422323E+05 -0.6587129E+04
  0.1752381E+01  0.4988977E+05  0.3862964E+05 -0.6617671E-02 -0.4211426E-02 -0.3389781E+05 -0.6429445E+04
  0.1783333E+01  0.4896916E+05  0.4035211E+05 -0.3217180E-02 -0.5310059E-02 -0.3358905E+05 -0.6208049E+04
  0.1814286E+01  0.4800975E+05  0.4198407E+05  0.1614788E-02 -0.5187988E-02 -0.3332485E+05 -0.5943925E+04
  0.1845238E+01  0.4701505E+05  0.4349966E+05  0.1786164E-02 -0.1586914E-02 -0.3305973E+05 -0.5609852E+04
  0.1876190E+01  0.4599995E+05  0.4489729E+05  0.4033897E-02 -0.6103516E-04 -0.3280529E+05 -0.5218097E+04
  0.1907143E+01  0.4500203E+05  0.4618338E+05  0.4352470E-02  0.5920410E-02 -0.3260982E+05 -0.4801160E+04
  0.1938095E+01  0.4401668E+05  0.4733931E+05  0.5038775E-03  0.2685547E-02 -0.3242957E+05 -0.4330443E+04
  0.1969048E+01  0.4301089E+05  0.4836271E+05  0.7749325E-03 -0.9887695E-02 -0.3224124E+05 -0.3803176E+04
  0.2000000E+01  0.4204139E+05  0.4926836E+05  0.1800537E-02  0.4333496E-02 -0.3210139E+05 -0.3264169E+04
Zone t="Motion of body    1 in DoF   2",I=    64,F=POINT
  0.5000000E-01  0.2975464E-02 -0.3242493E-04  0.4894805E+05  0.1240090E+03 -0.7247925E-02  0.1406670E-04
  0.8095238E-01 -0.3675573E-02 -0.5054474E-04  0.4846096E+05  0.2057909E+03  0.0000000E+00 -0.3099442E-04
  0.1119048E+00  0.8522196E-02  0.2622604E-04  0.4820687E+05  0.2950707E+03 -0.1568084E-02  0.1096725E-04
  0.1428571E+00  0.1100159E-01 -0.7724762E-04  0.4810891E+05  0.3953115E+03  0.7049560E-02  0.3910065E-04
  0.1738095E+00  0.9832513E-02 -0.4482269E-04  0.4809179E+05  0.5110372E+03 -0.5618579E-02  0.9536743E-04
  0.2047619E+00 -0.1713952E-02  0.8869171E-04  0.4820718E+05  0.6477306E+03 -0.4918298E-02  0.1106262E-03
  0.2357143E+00  0.3107244E-02 -0.1316071E-03  0.4838333E+05  0.8132748E+03  0.7379705E-02 -0.7629395E-04
  0.2666667E+00 -0.2174377E-02 -0.7438660E-04  0.4859793E+05  0.1014649E+04 -0.7438659E-02 -0.3814697E-04
  0.2976190E+00 -0.6767578E-02 -0.1983643E-03  0.4891137E+05  0.1266394E+04 -0.5229492E-02  0.7438660E-04
  0.3285715E+00  0.1950471E-02 -0.1411438E-03  0.4924746E+05  0.1577490E+04  0.5387015E-02  0.1983643E-03
  0.3595238E+00 -0.6790666E-03 -0.4196167E-04  0.4953777E+05  0.1965914E+04  0.8488332E-04 -0.4959106E-04
  0.3904762E+00  0.1641250E-02  0.3433228E-04  0.4987236E+05  0.2446594E+04 -0.4767441E-02  0.3166199E-03
  0.4214286E+00  0.3041412E-02 -0.3280640E-03  0.5011990E+05  0.3016156E+04 -0.6879386E-02 -0.3509521E-03
  0.4523810E+00  0.1011899E-01 -0.5264282E-03  0.5027986E+05  0.3705089E+04  0.4452354E-02  0.2517700E-03
  0.4833333E+00  0.1136517E-01  0.3585815E-03  0.5027476E+05  0.4462214E+04  0.3283270E-02 -0.4577637E-03
  0.5142857E+00  0.1186795E-02 -0.3585815E-03  0.5017157E+05  0.5321424E+04 -0.1056247E-01 -0.4119873E-03
  0.5452381E+00 -0.9515088E-02 -0.3509521E-03  0.4998991E+05  0.6241628E+04  0.1746299E-01 -0.3051758E-04
  0.5761905E+00 -0.9003946E-02 -0.7324219E-03  0.4966960E+05  0.7209733E+04  0.8474302E-03 -0.8392334E-03
  0.6071429E+00  0.2111098E-02 -0.2212524E-02  0.4921219E+05  0.8245967E+04  0.3518497E-02 -0.4119873E-03
  0.6380953E+00  0.2391303E-02 -0.4730225E-03  0.4874951E+05  0.9298339E+04 -0.9947819E-02  0.2288818E-03
  0.6690477E+00 -0.1550858E-02  0.7629395E-03  0.4822551E+05  0.1038734E+05  0.4470119E-02  0.5187988E-03
  0.7000000E+00 -0.1743861E-02  0.8850098E-03  0.4760738E+05  0.1151837E+05  0.2267020E-02  0.1312256E-02
  0.7309524E+00 -0.9853101E-02 -0.3356934E-03  0.4694564E+05  0.1266334E+05 -0.1336014E-02  0.3051758E-04
  0.7619048E+00  0.1201630E-02 -0.1068115E-02  0.4622109E+05  0.1382641E+05  0.7049560E-02  0.8850098E-03
  0.7928572E+00  0.2001513E-02  0.1342773E-02  0.4545088E+05  0.1500320E+05  0.4618876E-03 -0.8850098E-03
  0.8238096E+00 -0.6001202E-02  0.5798340E-03  0.4466373E+05  0.1618349E+05  0.2889468E-02 -0.2655029E-02
  0.8547620E+00 -0.4784204E-02  0.2441406E-03  0.4385492E+05  0.1736121E+05  0.2856241E-03 -0.3570557E-02
  0.8857143E+00 -0.2756426E-03 -0.1525879E-02  0.4300537E+05  0.1853214E+05  0.2756426E-03  0.7629395E-03
  0.9166667E+00  0.7523970E-02  0.1953125E-02  0.4211537E+05  0.1969205E+05  0.1238459E-01 -0.0000000E+00
  0.9476191E+00  0.2511949E-02 -0.9765625E-03  0.4119754E+05  0.2083237E+05 -0.1030543E-02 -0.2563477E-02
  0.9785714E+00  0.7609346E-02 -0.2136230E-02  0.4026845E+05  0.2194578E+05 -0.3679930E-02 -0.2746582E-02
  0.1009524E+01  0.1995159E-02 -0.6652832E-02  0.3933895E+05  0.2302564E+05 -0.5320423E-02  0.4089355E-02
  0.1040476E+01 -0.4223577E-02 -0.2136230E-02  0.3840937E+05  0.2407043E+05  0.7332599E-02  0.1525879E-02
  0.1071429E+01 -0.1424154E-02 -0.1220703E-03  0.3748297E+05  0.2507638E+05 -0.6835938E-03 -0.1953125E-02
  0.1102381E+01  0.4484700E-02 -0.6103516E-03  0.3655489E+05  0.2604309E+05  0.1771733E-02  0.1464844E-02
  0.1133333E+01  0.1346364E-02  0.3662109E-03  0.3562822E+05  0.2696634E+05 -0.8724437E-02 -0.5737305E-02
  0.1164286E+01  0.9436109E-02  0.5432129E-02  0.3470654E+05  0.2784385E+05 -0.4718055E-02 -0.5737305E-02
  0.1195238E+01  0.1429828E-02 -0.1831055E-02  0.3379302E+05  0.2867455E+05  0.2042611E-02 -0.1464844E-02
  0.1226190E+01 -0.3832771E-02  0.2197266E-02  0.3289567E+05  0.2945321E+05 -0.2488812E-02 -0.3295898E-02
  0.1257143E+01 -0.4952170E-02 -0.3173828E-02  0.3202946E+05  0.3019443E+05 -0.6505792E-02 -0.3967285E-02
  0.1288095E+01  0.2511354E-02  0.1403809E-02  0.3117366E+05  0.3083974E+05 -0.3601187E-02 -0.5737305E-02
  0.1319048E+01 -0.2128518E-02 -0.7934570E-03  0.3035134E+05  0.3144948E+05  0.3933132E-02  0.1098633E-02
  0.1350000E+01 -0.2124928E-02 -0.2807617E-02  0.2955266E+05  0.3200491E+05  0.4023799E-02  0.1831055E-03
  0.1380952E+01  0.1856311E-02 -0.3295898E-02  0.2878045E+05  0.3250963E+05  0.1414332E-02  0.1220703E-03
  0.1411905E+01  0.4020292E-02  0.1831055E-02  0.2789370E+05  0.3294705E+05  0.2247905E-02  0.7324219E-03
  0.1442857E+01 -0.4060953E-02  0.5920410E-02  0.2717015E+05  0.3336140E+05 -0.3384127E-03 -0.1098633E-02
  0.1473810E+01  0.2816097E-02  0.7141113E-02  0.2646806E+05  0.3373132E+05  0.4224145E-02 -0.1708984E-02
  0.1504762E+01  0.4664554E-02 -0.4943848E-02  0.2579488E+05  0.3404886E+05  0.7706654E-03 -0.0000000E+00
  0.1535714E+01 -0.1828216E-02  0.1831055E-02  0.2514777E+05  0.3431550E+05  0.2066679E-02 -0.9765625E-03
  0.1566667E+01 -0.1402510E-02  0.6347656E-02  0.2453106E+05  0.3453405E+05  0.5843791E-03 -0.3295898E-02
  0.1597619E+01 -0.2292229E-02 -0.2807617E-02  0.2394033E+05  0.3471385E+05 -0.1375338E-02 -0.3540039E-02
  0.1628572E+01  0.3972639E-02 -0.5371094E-02  0.2337398E+05  0.3485536E+05  0.2323619E-02 -0.1831055E-02
  0.1659524E+01  0.2022829E-02  0.2075195E-02  0.2283913E+05  0.3494927E+05 -0.1434370E-02 -0.2197266E-02
  0.1690476E+01 -0.3827162E-02  0.9765625E-03  0.2232788E+05  0.3500549E+05  0.1660844E-02 -0.1464844E-02
  0.1721429E+01  0.1772805E-03 -0.2807617E-02  0.2183980E+05  0.3502851E+05  0.1808261E-02 -0.7324219E-03
  0.1752381E+01  0.2751558E-02  0.4272461E-02  0.2137995E+05  0.3501211E+05  0.4144752E-02 -0.4882812E-02
  0.1783333E+01  0.1437464E-02  0.3295898E-02  0.2094386E+05  0.3495624E+05 -0.9925343E-03  0.1220703E-02
  0.1814286E+01  0.5180780E-02  0.6469727E-02  0.2053552E+05  0.3487905E+05 -0.4541593E-02 -0.6591797E-02
  0.1845238E+01  0.3638483E-02 -0.5615234E-02  0.2014612E+05  0.3477694E+05 -0.2183090E-02 -0.3173828E-02
  0.1876190E+01 -0.1333789E-02 -0.5493164E-02  0.1977735E+05  0.3465144E+05 -0.3220611E-02 -0.6958008E-02
  0.1907143E+01  0.4480483E-03  0.1708984E-02  0.1943752E+05  0.3449373E+05 -0.3104335E-02 -0.4760742E-02
  0.1938095E+01  0.4471913E-02  0.3784180E-02  0.1911761E+05  0.3430218E+05 -0.2361926E-02 -0.5493164E-02
  0.1969048E+01 -0.1952830E-02 -0.2685547E-02  0.1881074E+05  0.3409931E+05 -0.7439352E-03 -0.4760742E-02
  0.2000000E+01  0.3570557E-02 -0.6103516E-03  0.1852787E+05  0.3386489E+05 -0.1647949E-02 -0.5737305E-02
Zone t="Motion of body    1 in DoF   3",I=    64,F=POINT
  0.5000000E-01 -0.3730507E+05 -0.1353136E-02  0.1029968E-02  0.1870014E-04  0.1084796E+06  0.9417895E-03
  0.8095238E-01 -0.3769607E+05 -0.5795722E-02 -0.7445391E-02 -0.1124447E-04  0.1088020E+06  0.3648865E-02
  0.1119048E+00 -0.3775116E+05 -0.1628288E-01 -0.3110602E-02 -0.1793698E-05  0.1088158E+06  0.1008085E-01
  0.1428571E+00 -0.3777531E+05 -0.3635914E-01  0.2883911E-02  0.6021940E-04  0.1088453E+06  0.2190202E-01
  0.1738095E+00 -0.3778398E+05 -0.7226519E-01 -0.1020562E-01 -0.7514184E-04  0.1088123E+06  0.4355205E-01
  0.2047619E+00 -0.3778102E+05 -0.1330545E+00  0.3809818E-02  0.4116108E-04  0.1088531E+06  0.8051994E-01
  0.2357143E+00 -0.3778884E+05 -0.2331565E+00 -0.5939368E-02  0.5832314E-04  0.1088566E+06  0.1408226E+00
  0.2666667E+00 -0.3781403E+05 -0.3955218E+00 -0.3719330E-03  0.7874751E-04  0.1088229E+06  0.2376540E+00
  0.2976190E+00 -0.3778817E+05 -0.6595965E+00 -0.1955933E-01 -0.4693437E-03  0.1088662E+06  0.3934871E+00
  0.3285715E+00 -0.3781441E+05 -0.1084142E+01  0.6548010E-02  0.3298279E-03  0.1088823E+06  0.6441193E+00
  0.3595238E+00 -0.3784518E+05 -0.1768629E+01  0.2196356E-02  0.1481716E-03  0.1088258E+06  0.1043896E+01
  0.3904762E+00 -0.3785212E+05 -0.2859927E+01  0.1094167E-02  0.2837256E-03  0.1088301E+06  0.1674402E+01
  0.4214286E+00 -0.3785625E+05 -0.4560479E+01 -0.9404844E-02 -0.1541562E-03  0.1089029E+06  0.2647266E+01
  0.4523810E+00 -0.3784964E+05 -0.7209494E+01 -0.1807082E-01 -0.1171358E-02  0.1089307E+06  0.4152368E+01
  0.4833333E+00 -0.3783901E+05 -0.1110997E+02 -0.1958913E-01 -0.1618549E-02  0.1089265E+06  0.6332340E+01
  0.5142857E+00 -0.3792314E+05 -0.1681837E+02 -0.4020267E-02  0.1857579E-03  0.1088928E+06  0.9504746E+01
  0.5452381E+00 -0.3794834E+05 -0.2483233E+02  0.1021473E-02  0.6351769E-03  0.1089822E+06  0.1389807E+02
  0.5761905E+00 -0.3796809E+05 -0.3580269E+02 -0.1100335E-01 -0.1518190E-02  0.1090174E+06  0.1980348E+02
  0.6071429E+00 -0.3801038E+05 -0.5065093E+02 -0.1252836E-01 -0.1608968E-02  0.1089981E+06  0.2770503E+02
  0.6380953E+00 -0.3806523E+05 -0.7000464E+02 -0.2068477E-02  0.5798936E-03  0.1090050E+06  0.3780330E+02
  0.6690477E+00 -0.3816907E+05 -0.9496099E+02 -0.4321876E-02  0.3516674E-04  0.1090177E+06  0.5068434E+02
  0.7000000E+00 -0.3819377E+05 -0.1268400E+03 -0.1416887E-03  0.4832745E-03  0.1090901E+06  0.6680293E+02
  0.7309524E+00 -0.3821053E+05 -0.1667811E+03  0.6753132E-02  0.2869844E-02  0.1091413E+06  0.8647997E+02
  0.7619048E+00 -0.3827810E+05 -0.2162333E+03  0.5587577E-02  0.3337145E-02  0.1091157E+06  0.1103912E+03
  0.7928572E+00 -0.3835598E+05 -0.2766183E+03 -0.4156989E-02  0.7574558E-03  0.1091025E+06  0.1390640E+03
  0.8238096E+00 -0.3846811E+05 -0.3494286E+03  0.4463857E-02  0.3300667E-02  0.1091069E+06  0.1730356E+03
  0.8547620E+00 -0.3849941E+05 -0.4364834E+03  0.1535230E-02  0.2071857E-02  0.1091929E+06  0.2124225E+03
  0.8857143E+00 -0.3855241E+05 -0.5394717E+03 -0.6210573E-02 -0.2138138E-02  0.1092306E+06  0.2577048E+03
  0.9166667E+00 -0.3857561E+05 -0.6600370E+03 -0.4569313E-02 -0.3042221E-03  0.1092354E+06  0.3090634E+03
  0.9476191E+00 -0.3864064E+05 -0.7997023E+03 -0.7632461E-02  0.5683899E-03  0.1092290E+06  0.3670151E+03
  0.9785714E+00 -0.3867022E+05 -0.9599909E+03 -0.3407054E-02 -0.2002716E-02  0.1092373E+06  0.4314385E+03
  0.1009524E+01 -0.3873282E+05 -0.1141208E+04  0.2418374E-02  0.3030777E-02  0.1091797E+06  0.5023984E+03
  0.1040476E+01 -0.3878638E+05 -0.1344441E+04 -0.1127754E-01 -0.5128860E-02  0.1091633E+06  0.5796652E+03
  0.1071429E+01 -0.3879411E+05 -0.1571565E+04 -0.1034648E-01 -0.3908157E-02  0.1091997E+06  0.6619503E+03
  0.1102381E+01 -0.3877205E+05 -0.1822400E+04  0.3252791E-02  0.4617691E-02  0.1092072E+06  0.7481083E+03
  0.1133333E+01 -0.3870724E+05 -0.2097583E+04 -0.1279046E-02  0.2956390E-03  0.1092219E+06  0.8374186E+03
  0.1164286E+01 -0.3865956E+05 -0.2393573E+04 -0.8282808E-02 -0.2902985E-02  0.1091446E+06  0.9289824E+03
  0.1195238E+01 -0.3860461E+05 -0.2710120E+04 -0.6319327E-02 -0.2899170E-03  0.1090949E+06  0.1022759E+04
  0.1226190E+01 -0.3851430E+05 -0.3044724E+04  0.2551032E-02  0.7335663E-02  0.1090250E+06  0.1116582E+04
  0.1257143E+01 -0.3843472E+05 -0.3389806E+04 -0.3447099E-02  0.2674103E-02  0.1089411E+06  0.1208709E+04
  0.1288095E+01 -0.3829726E+05 -0.3748656E+04 -0.1184601E-02  0.5748749E-02  0.1088786E+06  0.1298199E+04
  0.1319048E+01 -0.3813372E+05 -0.4111597E+04 -0.8976795E-02 -0.1011658E-01  0.1088304E+06  0.1380471E+04
  0.1350000E+01 -0.3794316E+05 -0.4473982E+04 -0.2339681E-02 -0.1045227E-02  0.1087535E+06  0.1450464E+04
  0.1380952E+01 -0.3772630E+05 -0.4833250E+04 -0.6408691E-02 -0.3402710E-02  0.1086995E+06  0.1509218E+04
  0.1411905E+01 -0.3816932E+05 -0.5460913E+04  0.3090870E-02  0.1187134E-01  0.1085459E+06  0.1644972E+04
  0.1442857E+01 -0.3791571E+05 -0.5820218E+04 -0.3331251E-02  0.3593445E-02  0.1084422E+06  0.1680774E+04
  0.1473810E+01 -0.3762345E+05 -0.6155618E+04 -0.2070660E-04  0.1541901E-01  0.1083343E+06  0.1701997E+04
  0.1504762E+01 -0.3731535E+05 -0.6461790E+04 -0.7513988E-02 -0.2655029E-02  0.1082516E+06  0.1708676E+04
  0.1535714E+01 -0.3698805E+05 -0.6725487E+04 -0.6359011E-03  0.2426147E-02  0.1081248E+06  0.1692382E+04
  0.1566667E+01 -0.3666981E+05 -0.6946951E+04 -0.3525754E-02  0.4295349E-02  0.1080253E+06  0.1657970E+04
  0.1597619E+01 -0.3632559E+05 -0.7123837E+04 -0.7210972E-02 -0.1708984E-01  0.1079483E+06  0.1604334E+04
  0.1628572E+01 -0.3596148E+05 -0.7250685E+04 -0.5602920E-02 -0.9941101E-02  0.1078850E+06  0.1535430E+04
  0.1659524E+01 -0.3562014E+05 -0.7314728E+04  0.3530757E-02  0.1302338E-01  0.1078398E+06  0.1452839E+04
  0.1690476E+01 -0.3526310E+05 -0.7316826E+04 -0.2130213E-02  0.7835388E-02  0.1077976E+06  0.1353006E+04
  0.1721429E+01 -0.3490677E+05 -0.7265914E+04 -0.3545611E-02  0.4692078E-02  0.1077808E+06  0.1242429E+04
  0.1752381E+01 -0.3456609E+05 -0.7148948E+04 -0.4196996E-02  0.1075745E-02  0.1077761E+06  0.1124005E+04
  0.1783333E+01 -0.3424005E+05 -0.6951891E+04 -0.2943378E-02 -0.4051208E-02  0.1077209E+06  0.9779705E+03
  0.1814286E+01 -0.3396089E+05 -0.6705307E+04 -0.4036971E-02 -0.7789612E-02  0.1077212E+06  0.8487737E+03
  0.1845238E+01 -0.3368426E+05 -0.6397588E+04 -0.9923135E-02 -0.9742737E-02  0.1077190E+06  0.7109267E+03
  0.1876190E+01 -0.3342269E+05 -0.6044372E+04 -0.5985783E-02 -0.7125854E-02  0.1077309E+06  0.5759376E+03
  0.1907143E+01 -0.3321366E+05 -0.5644740E+04 -0.2176235E-02  0.9101868E-02  0.1077742E+06  0.4512753E+03
  0.1938095E+01 -0.3301748E+05 -0.5179046E+04 -0.4125497E-02 -0.6744385E-02  0.1077752E+06  0.2959218E+03
  0.1969048E+01 -0.3282292E+05 -0.4701475E+04 -0.2572776E-02 -0.8712769E-02  0.1078267E+06  0.1785150E+03
  0.2000000E+01 -0.3266775E+05 -0.4195483E+04 -0.6713867E-02  0.3509521E-03  0.1079060E+06  0.7521759E+02
