VARIABLES="w (rad/s)"
"abs(F   1   1)" "angle(F   1   1)"
"abs(F   1   2)" "angle(F   1   2)"
"abs(F   1   3)" "angle(F   1   3)"
Zone t="Diffraction force - beta =   0.000 deg",I=    64,F=POINT
  0.5000000E-01  0.8807714E+03 -0.1570795E+01  0.7753243E+02 -0.3096627E+01  0.1289692E+04  0.1570797E+01
  0.8095238E-01  0.1442268E+04 -0.1570794E+01  0.2014381E+03 -0.3095101E+01  0.2111297E+04  0.1570798E+01
  0.1119048E+00  0.2014720E+04 -0.1570791E+01  0.3831638E+03 -0.3093163E+01  0.2942856E+04  0.1570800E+01
  0.1428571E+00  0.2601587E+04 -0.1570788E+01  0.6234614E+03 -0.3090698E+01  0.3800068E+04  0.1570803E+01
  0.1738095E+00  0.3216512E+04 -0.1570782E+01  0.9225923E+03 -0.3087520E+01  0.4684820E+04  0.1570807E+01
  0.2047619E+00  0.3856375E+04 -0.1570774E+01  0.1283302E+04 -0.3083569E+01  0.5614315E+04  0.1570812E+01
  0.2357143E+00  0.4536538E+04 -0.1570762E+01  0.1706061E+04 -0.3078533E+01  0.6591208E+04  0.1570821E+01
  0.2666667E+00  0.5268467E+04 -0.1570745E+01  0.2193017E+04 -0.3072386E+01  0.7631236E+04  0.1570833E+01
  0.2976190E+00  0.6050482E+04 -0.1570720E+01  0.2747991E+04 -0.3064684E+01  0.8754892E+04  0.1570851E+01
  0.3285715E+00  0.6904811E+04 -0.1570682E+01  0.3371374E+04 -0.3055418E+01  0.9964207E+04  0.1570878E+01
  0.3595238E+00  0.7848567E+04 -0.1570625E+01  0.4061573E+04 -0.3044072E+01  0.1127711E+05  0.1570918E+01
  0.3904762E+00  0.8874554E+04 -0.1570540E+01  0.4825536E+04 -0.3030672E+01  0.1272456E+05  0.1570979E+01
  0.4214286E+00  0.1000080E+05 -0.1570416E+01  0.5654114E+04 -0.3015609E+01  0.1430364E+05  0.1571066E+01
  0.4523810E+00  0.1124678E+05 -0.1570234E+01  0.6547056E+04 -0.2998051E+01  0.1600690E+05  0.1571195E+01
  0.4833333E+00  0.1260743E+05 -0.1569982E+01  0.7493940E+04 -0.2980155E+01  0.1784966E+05  0.1571373E+01
  0.5142857E+00  0.1405058E+05 -0.1569631E+01  0.8498910E+04 -0.2960804E+01  0.1983563E+05  0.1571619E+01
  0.5452381E+00  0.1558728E+05 -0.1569162E+01  0.9556353E+04 -0.2941437E+01  0.2191787E+05  0.1571946E+01
  0.5761905E+00  0.1722300E+05 -0.1568555E+01  0.1064954E+05 -0.2922086E+01  0.2407808E+05  0.1572369E+01
  0.6071429E+00  0.1894074E+05 -0.1567771E+01  0.1178310E+05 -0.2902156E+01  0.2632390E+05  0.1572914E+01
  0.6380953E+00  0.2070526E+05 -0.1566791E+01  0.1296991E+05 -0.2883425E+01  0.2863486E+05  0.1573590E+01
  0.6690477E+00  0.2250492E+05 -0.1565573E+01  0.1419272E+05 -0.2864792E+01  0.3099637E+05  0.1574425E+01
  0.7000000E+00  0.2437277E+05 -0.1564079E+01  0.1544095E+05 -0.2845861E+01  0.3336821E+05  0.1575447E+01
  0.7309524E+00  0.2629906E+05 -0.1562280E+01  0.1671726E+05 -0.2827394E+01  0.3574518E+05  0.1576673E+01
  0.7619048E+00  0.2826712E+05 -0.1560128E+01  0.1801966E+05 -0.2809197E+01  0.3814491E+05  0.1578132E+01
  0.7928572E+00  0.3024034E+05 -0.1557569E+01  0.1934479E+05 -0.2791254E+01  0.4055468E+05  0.1579852E+01
  0.8238096E+00  0.3221619E+05 -0.1554558E+01  0.2069406E+05 -0.2773765E+01  0.4295791E+05  0.1581858E+01
  0.8547620E+00  0.3421280E+05 -0.1551059E+01  0.2205905E+05 -0.2756655E+01  0.4531281E+05  0.1584176E+01
  0.8857143E+00  0.3623067E+05 -0.1547028E+01  0.2342281E+05 -0.2739665E+01  0.4762037E+05  0.1586829E+01
  0.9166667E+00  0.3826248E+05 -0.1542424E+01  0.2478466E+05 -0.2722941E+01  0.4987859E+05  0.1589839E+01
  0.9476191E+00  0.4028415E+05 -0.1537196E+01  0.2614331E+05 -0.2706596E+01  0.5207573E+05  0.1593228E+01
  0.9785714E+00  0.4228277E+05 -0.1531299E+01  0.2750435E+05 -0.2690909E+01  0.5421450E+05  0.1597007E+01
  0.1009524E+01  0.4423504E+05 -0.1524689E+01  0.2886251E+05 -0.2675874E+01  0.5630127E+05  0.1601186E+01
  0.1040476E+01  0.4610093E+05 -0.1517313E+01  0.3020631E+05 -0.2661295E+01  0.5826986E+05  0.1605776E+01
  0.1071429E+01  0.4793452E+05 -0.1509199E+01  0.3153752E+05 -0.2647249E+01  0.6012204E+05  0.1610768E+01
  0.1102381E+01  0.4969791E+05 -0.1500312E+01  0.3284045E+05 -0.2633498E+01  0.6182208E+05  0.1616161E+01
  0.1133333E+01  0.5139839E+05 -0.1490667E+01  0.3411523E+05 -0.2620212E+01  0.6337919E+05  0.1621931E+01
  0.1164286E+01  0.5300882E+05 -0.1480245E+01  0.3535978E+05 -0.2607456E+01  0.6481768E+05  0.1628049E+01
  0.1195238E+01  0.5447280E+05 -0.1469007E+01  0.3656859E+05 -0.2595189E+01  0.6607430E+05  0.1634489E+01
  0.1226190E+01  0.5581505E+05 -0.1457012E+01  0.3775433E+05 -0.2583871E+01  0.6719642E+05  0.1641182E+01
  0.1257143E+01  0.5695425E+05 -0.1444157E+01  0.3890889E+05 -0.2572989E+01  0.6813770E+05  0.1648105E+01
  0.1288095E+01  0.5796632E+05 -0.1430741E+01  0.4002764E+05 -0.2563659E+01  0.6890880E+05  0.1655088E+01
  0.1319048E+01  0.5875546E+05 -0.1416609E+01  0.4111006E+05 -0.2554722E+01  0.6946091E+05  0.1662131E+01
  0.1350000E+01  0.5935081E+05 -0.1401934E+01  0.4215164E+05 -0.2546314E+01  0.6983342E+05  0.1669113E+01
  0.1380952E+01  0.5970791E+05 -0.1386763E+01  0.4314047E+05 -0.2538388E+01  0.6995167E+05  0.1675933E+01
  0.1411905E+01  0.5969183E+05 -0.1371716E+01  0.4406189E+05 -0.2531088E+01  0.6990548E+05  0.1682031E+01
  0.1442857E+01  0.5960161E+05 -0.1355987E+01  0.4495328E+05 -0.2524564E+01  0.6964271E+05  0.1688121E+01
  0.1473810E+01  0.5925985E+05 -0.1340119E+01  0.4579539E+05 -0.2518843E+01  0.6918622E+05  0.1693652E+01
  0.1504762E+01  0.5865693E+05 -0.1324262E+01  0.4659365E+05 -0.2514041E+01  0.6854363E+05  0.1698481E+01
  0.1535714E+01  0.5778936E+05 -0.1308590E+01  0.4734496E+05 -0.2510100E+01  0.6772269E+05  0.1702453E+01
  0.1566667E+01  0.5665582E+05 -0.1293258E+01  0.4804892E+05 -0.2506955E+01  0.6675625E+05  0.1705463E+01
  0.1597619E+01  0.5524173E+05 -0.1278429E+01  0.4869884E+05 -0.2504475E+01  0.6562116E+05  0.1707337E+01
  0.1628572E+01  0.5358275E+05 -0.1264447E+01  0.4930544E+05 -0.2503017E+01  0.6437120E+05  0.1707940E+01
  0.1659524E+01  0.5166375E+05 -0.1251482E+01  0.4986977E+05 -0.2502496E+01  0.6300118E+05  0.1707152E+01
  0.1690476E+01  0.4949166E+05 -0.1239803E+01  0.5039182E+05 -0.2502537E+01  0.6152782E+05  0.1704853E+01
  0.1721429E+01  0.4709658E+05 -0.1229851E+01  0.5088152E+05 -0.2503576E+01  0.5999483E+05  0.1700984E+01
  0.1752381E+01  0.4447634E+05 -0.1222034E+01  0.5133598E+05 -0.2505522E+01  0.5839052E+05  0.1695407E+01
  0.1783333E+01  0.4166434E+05 -0.1216840E+01  0.5175917E+05 -0.2508194E+01  0.5677738E+05  0.1688219E+01
  0.1814286E+01  0.3866131E+05 -0.1214957E+01  0.5214959E+05 -0.2511544E+01  0.5514412E+05  0.1679348E+01
  0.1845238E+01  0.3549647E+05 -0.1217330E+01  0.5251607E+05 -0.2515586E+01  0.5351791E+05  0.1668859E+01
  0.1876190E+01  0.3220675E+05 -0.1225466E+01  0.5287333E+05 -0.2520566E+01  0.5192035E+05  0.1656814E+01
  0.1907143E+01  0.2880196E+05 -0.1241298E+01  0.5322254E+05 -0.2526261E+01  0.5035096E+05  0.1643316E+01
  0.1938095E+01  0.2531646E+05 -0.1267796E+01  0.5355175E+05 -0.2531875E+01  0.4883380E+05  0.1628582E+01
  0.1969048E+01  0.2180346E+05 -0.1310219E+01  0.5388653E+05 -0.2537978E+01  0.4737917E+05  0.1612824E+01
  0.2000000E+01  0.1831449E+05 -0.1377284E+01  0.5421604E+05 -0.2544125E+01  0.4598881E+05  0.1596303E+01
