VARIABLES="w (rad/s)"
"abs(F   1   1)" "angle(F   1   1)"
"abs(F   1   2)" "angle(F   1   2)"
"abs(F   1   3)" "angle(F   1   3)"
Zone t="Diffraction force - beta =   0.000 deg",I=    64,F=POINT
  0.5000000E-01  0.4213813E+03 -0.1570796E+01  0.1139083E+03 -0.3100614E+01  0.5909962E+01 -0.1570795E+01
  0.8095238E-01  0.6870464E+03 -0.1570794E+01  0.2966682E+03 -0.3099314E+01  0.9584963E+01 -0.1570794E+01
  0.1119048E+00  0.9601509E+03 -0.1570792E+01  0.5645169E+03 -0.3097548E+01  0.1320642E+02 -0.1570791E+01
  0.1428571E+00  0.1240309E+04 -0.1570789E+01  0.9180884E+03 -0.3095262E+01  0.1721248E+02 -0.1570786E+01
  0.1738095E+00  0.1537921E+04 -0.1570784E+01  0.1358969E+04 -0.3092349E+01  0.2132708E+02 -0.1570780E+01
  0.2047619E+00  0.1846512E+04 -0.1570778E+01  0.1889119E+04 -0.3088678E+01  0.2590617E+02 -0.1570772E+01
  0.2357143E+00  0.2175964E+04 -0.1570768E+01  0.2511155E+04 -0.3084031E+01  0.3048900E+02 -0.1570759E+01
  0.2666667E+00  0.2535470E+04 -0.1570753E+01  0.3226766E+04 -0.3078332E+01  0.3580097E+02 -0.1570740E+01
  0.2976190E+00  0.2920891E+04 -0.1570731E+01  0.4039553E+04 -0.3071157E+01  0.4171396E+02 -0.1570713E+01
  0.3285715E+00  0.3338575E+04 -0.1570699E+01  0.4951942E+04 -0.3062512E+01  0.4760266E+02 -0.1570670E+01
  0.3595238E+00  0.3811461E+04 -0.1570650E+01  0.5963231E+04 -0.3051964E+01  0.5493245E+02 -0.1570608E+01
  0.3904762E+00  0.4327722E+04 -0.1570577E+01  0.7076166E+04 -0.3039382E+01  0.6307368E+02 -0.1570516E+01
  0.4214286E+00  0.4891660E+04 -0.1570469E+01  0.8280114E+04 -0.3025209E+01  0.7203047E+02 -0.1570381E+01
  0.4523810E+00  0.5526389E+04 -0.1570311E+01  0.9579788E+04 -0.3008737E+01  0.8229462E+02 -0.1570181E+01
  0.4833333E+00  0.6231188E+04 -0.1570092E+01  0.1095418E+05 -0.2991835E+01  0.9552369E+02 -0.1569918E+01
  0.5142857E+00  0.6979305E+04 -0.1569783E+01  0.1240441E+05 -0.2973442E+01  0.1070029E+03 -0.1569528E+01
  0.5452381E+00  0.7763800E+04 -0.1569368E+01  0.1392452E+05 -0.2954894E+01  0.1195660E+03 -0.1569003E+01
  0.5761905E+00  0.8634188E+04 -0.1568829E+01  0.1550751E+05 -0.2936479E+01  0.1359226E+03 -0.1568350E+01
  0.6071429E+00  0.9562504E+04 -0.1568130E+01  0.1714131E+05 -0.2917368E+01  0.1530427E+03 -0.1567499E+01
  0.6380953E+00  0.1051671E+05 -0.1567249E+01  0.1883539E+05 -0.2899115E+01  0.1714097E+03 -0.1566437E+01
  0.6690477E+00  0.1148674E+05 -0.1566140E+01  0.2058033E+05 -0.2880892E+01  0.1878646E+03 -0.1565044E+01
  0.7000000E+00  0.1251419E+05 -0.1564771E+01  0.2236290E+05 -0.2862375E+01  0.2064913E+03 -0.1563345E+01
  0.7309524E+00  0.1360342E+05 -0.1563117E+01  0.2418661E+05 -0.2844281E+01  0.2297837E+03 -0.1561386E+01
  0.7619048E+00  0.1474841E+05 -0.1561128E+01  0.2604412E+05 -0.2826331E+01  0.2554223E+03 -0.1559067E+01
  0.7928572E+00  0.1591470E+05 -0.1558742E+01  0.2792167E+05 -0.2808383E+01  0.2801150E+03 -0.1556221E+01
  0.8238096E+00  0.1707171E+05 -0.1555888E+01  0.2981641E+05 -0.2790547E+01  0.3022904E+03 -0.1552688E+01
  0.8547620E+00  0.1825385E+05 -0.1552531E+01  0.3173318E+05 -0.2773045E+01  0.3283519E+03 -0.1548665E+01
  0.8857143E+00  0.1950698E+05 -0.1548655E+01  0.3366004E+05 -0.2755808E+01  0.3579882E+03 -0.1544122E+01
  0.9166667E+00  0.2080987E+05 -0.1544195E+01  0.3558474E+05 -0.2738760E+01  0.3887344E+03 -0.1538870E+01
  0.9476191E+00  0.2213975E+05 -0.1539081E+01  0.3749375E+05 -0.2721809E+01  0.4225211E+03 -0.1532958E+01
  0.9785714E+00  0.2348968E+05 -0.1533249E+01  0.3939188E+05 -0.2705156E+01  0.4597964E+03 -0.1526377E+01
  0.1009524E+01  0.2484122E+05 -0.1526620E+01  0.4127735E+05 -0.2688892E+01  0.4957948E+03 -0.1518731E+01
  0.1040476E+01  0.2616802E+05 -0.1519102E+01  0.4314193E+05 -0.2672960E+01  0.5272491E+03 -0.1509648E+01
  0.1071429E+01  0.2749693E+05 -0.1510684E+01  0.4498124E+05 -0.2657379E+01  0.5611649E+03 -0.1499631E+01
  0.1102381E+01  0.2885142E+05 -0.1501381E+01  0.4678545E+05 -0.2642030E+01  0.6008611E+03 -0.1489004E+01
  0.1133333E+01  0.3023407E+05 -0.1491178E+01  0.4855328E+05 -0.2627030E+01  0.6455292E+03 -0.1477716E+01
  0.1164286E+01  0.3162726E+05 -0.1480021E+01  0.5028327E+05 -0.2612456E+01  0.6917517E+03 -0.1465355E+01
  0.1195238E+01  0.3300112E+05 -0.1467832E+01  0.5196284E+05 -0.2598152E+01  0.7373288E+03 -0.1451728E+01
  0.1226190E+01  0.3433521E+05 -0.1454540E+01  0.5359313E+05 -0.2584227E+01  0.7819055E+03 -0.1436711E+01
  0.1257143E+01  0.3557770E+05 -0.1439948E+01  0.5518354E+05 -0.2570280E+01  0.8252566E+03 -0.1420108E+01
  0.1288095E+01  0.3679031E+05 -0.1424356E+01  0.5668575E+05 -0.2557324E+01  0.8698529E+03 -0.1402404E+01
  0.1319048E+01  0.3789517E+05 -0.1407418E+01  0.5815215E+05 -0.2544567E+01  0.9131923E+03 -0.1383158E+01
  0.1350000E+01  0.3893262E+05 -0.1389411E+01  0.5956178E+05 -0.2532292E+01  0.9562551E+03 -0.1362905E+01
  0.1380952E+01  0.3990736E+05 -0.1370454E+01  0.6090861E+05 -0.2520454E+01  0.9988871E+03 -0.1341676E+01
  0.1411905E+01  0.4054314E+05 -0.1350577E+01  0.6214143E+05 -0.2508614E+01  0.1017511E+04 -0.1316600E+01
  0.1442857E+01  0.4130243E+05 -0.1329639E+01  0.6334552E+05 -0.2497261E+01  0.1057284E+04 -0.1292930E+01
  0.1473810E+01  0.4191580E+05 -0.1307626E+01  0.6447569E+05 -0.2486177E+01  0.1096538E+04 -0.1268365E+01
  0.1504762E+01  0.4238804E+05 -0.1284655E+01  0.6553616E+05 -0.2475528E+01  0.1134506E+04 -0.1243083E+01
  0.1535714E+01  0.4270571E+05 -0.1260793E+01  0.6652482E+05 -0.2465338E+01  0.1170379E+04 -0.1217296E+01
  0.1566667E+01  0.4286322E+05 -0.1236269E+01  0.6743854E+05 -0.2455513E+01  0.1198886E+04 -0.1190065E+01
  0.1597619E+01  0.4283621E+05 -0.1211070E+01  0.6827327E+05 -0.2445976E+01  0.1220944E+04 -0.1161786E+01
  0.1628572E+01  0.4262209E+05 -0.1185290E+01  0.6902916E+05 -0.2436748E+01  0.1235158E+04 -0.1132179E+01
  0.1659524E+01  0.4222174E+05 -0.1159045E+01  0.6970495E+05 -0.2427850E+01  0.1245856E+04 -0.1101986E+01
  0.1690476E+01  0.4161145E+05 -0.1132212E+01  0.7029848E+05 -0.2419169E+01  0.1253836E+04 -0.1071808E+01
  0.1721429E+01  0.4080457E+05 -0.1105039E+01  0.7081502E+05 -0.2410918E+01  0.1256533E+04 -0.1042020E+01
  0.1752381E+01  0.3980504E+05 -0.1077764E+01  0.7125220E+05 -0.2403063E+01  0.1254161E+04 -0.1012623E+01
  0.1783333E+01  0.3860809E+05 -0.1050379E+01  0.7160736E+05 -0.2395574E+01  0.1243475E+04 -0.9829563E+00
  0.1814286E+01  0.3721888E+05 -0.1022933E+01  0.7187957E+05 -0.2388426E+01  0.1222080E+04 -0.9522357E+00
  0.1845238E+01  0.3563259E+05 -0.9952845E+00  0.7206944E+05 -0.2381571E+01  0.1191871E+04 -0.9203282E+00
  0.1876190E+01  0.3386007E+05 -0.9674835E+00  0.7217893E+05 -0.2375019E+01  0.1152233E+04 -0.8874167E+00
  0.1907143E+01  0.3191741E+05 -0.9397078E+00  0.7220745E+05 -0.2368835E+01  0.1106116E+04 -0.8549747E+00
  0.1938095E+01  0.2980839E+05 -0.9117871E+00  0.7215145E+05 -0.2362749E+01  0.1054342E+04 -0.8234348E+00
  0.1969048E+01  0.2754658E+05 -0.8835954E+00  0.7201695E+05 -0.2357085E+01  0.9946728E+03 -0.7920148E+00
  0.2000000E+01  0.2514098E+05 -0.8548646E+00  0.7180530E+05 -0.2351748E+01  0.9271165E+03 -0.7595510E+00
