VARIABLES="w (rad/s)"
"abs(F   1   1)" "angle(F   1   1)"
"abs(F   1   2)" "angle(F   1   2)"
"abs(F   1   3)" "angle(F   1   3)"
Zone t="Diffraction force - beta =   0.000 deg",I=    64,F=POINT
  0.5000000E-01  0.4453157E+03 -0.1570796E+01  0.7774826E+02 -0.3098395E+01  0.2793496E+03  0.1570797E+01
  0.8095238E-01  0.7297447E+03 -0.1570795E+01  0.2021828E+03 -0.3096941E+01  0.4597980E+03  0.1570797E+01
  0.1119048E+00  0.1019152E+04 -0.1570793E+01  0.3848748E+03 -0.3095067E+01  0.6430225E+03  0.1570799E+01
  0.1428571E+00  0.1320459E+04 -0.1570791E+01  0.6258998E+03 -0.3092617E+01  0.8302708E+03  0.1570800E+01
  0.1738095E+00  0.1630900E+04 -0.1570787E+01  0.9277490E+03 -0.3089561E+01  0.1024422E+04  0.1570803E+01
  0.2047619E+00  0.1961363E+04 -0.1570782E+01  0.1290351E+04 -0.3085651E+01  0.1227341E+04  0.1570807E+01
  0.2357143E+00  0.2309812E+04 -0.1570775E+01  0.1717533E+04 -0.3080745E+01  0.1441831E+04  0.1570812E+01
  0.2666667E+00  0.2682563E+04 -0.1570764E+01  0.2210593E+04 -0.3074729E+01  0.1671186E+04  0.1570820E+01
  0.2976190E+00  0.3089106E+04 -0.1570748E+01  0.2769435E+04 -0.3067075E+01  0.1917265E+04  0.1570832E+01
  0.3285715E+00  0.3534093E+04 -0.1570724E+01  0.3402747E+04 -0.3057965E+01  0.2184099E+04  0.1570850E+01
  0.3595238E+00  0.4016131E+04 -0.1570687E+01  0.4106601E+04 -0.3046820E+01  0.2474802E+04  0.1570876E+01
  0.3904762E+00  0.4553273E+04 -0.1570632E+01  0.4881983E+04 -0.3033460E+01  0.2793265E+04  0.1570916E+01
  0.4214286E+00  0.5149791E+04 -0.1570552E+01  0.5723652E+04 -0.3018394E+01  0.3142862E+04  0.1570974E+01
  0.4523810E+00  0.5800729E+04 -0.1570434E+01  0.6644953E+04 -0.3001082E+01  0.3518786E+04  0.1571060E+01
  0.4833333E+00  0.6507942E+04 -0.1570270E+01  0.7620341E+04 -0.2983191E+01  0.3927028E+04  0.1571178E+01
  0.5142857E+00  0.7287089E+04 -0.1570041E+01  0.8650068E+04 -0.2963610E+01  0.4361779E+04  0.1571343E+01
  0.5452381E+00  0.8119240E+04 -0.1569735E+01  0.9740424E+04 -0.2943960E+01  0.4830054E+04  0.1571562E+01
  0.5761905E+00  0.8978082E+04 -0.1569333E+01  0.1088559E+05 -0.2924478E+01  0.5321339E+04  0.1571847E+01
  0.6071429E+00  0.9893801E+04 -0.1568812E+01  0.1207752E+05 -0.2904320E+01  0.5815666E+04  0.1572216E+01
  0.6380953E+00  0.1086289E+05 -0.1568161E+01  0.1331479E+05 -0.2884834E+01  0.6330752E+04  0.1572676E+01
  0.6690477E+00  0.1186953E+05 -0.1567348E+01  0.1459360E+05 -0.2865275E+01  0.6862303E+04  0.1573246E+01
  0.7000000E+00  0.1289596E+05 -0.1566339E+01  0.1591903E+05 -0.2845619E+01  0.7401274E+04  0.1573947E+01
  0.7309524E+00  0.1394805E+05 -0.1565114E+01  0.1729420E+05 -0.2826552E+01  0.7954521E+04  0.1574790E+01
  0.7619048E+00  0.1503092E+05 -0.1563636E+01  0.1869799E+05 -0.2807405E+01  0.8495202E+04  0.1575803E+01
  0.7928572E+00  0.1615972E+05 -0.1561877E+01  0.2012557E+05 -0.2788138E+01  0.9033856E+04  0.1577004E+01
  0.8238096E+00  0.1732723E+05 -0.1559803E+01  0.2157842E+05 -0.2768966E+01  0.9576968E+04  0.1578413E+01
  0.8547620E+00  0.1849714E+05 -0.1557361E+01  0.2305903E+05 -0.2750089E+01  0.1012827E+05  0.1580046E+01
  0.8857143E+00  0.1967404E+05 -0.1554511E+01  0.2456852E+05 -0.2731636E+01  0.1068356E+05  0.1581924E+01
  0.9166667E+00  0.2086047E+05 -0.1551216E+01  0.2609964E+05 -0.2713521E+01  0.1121574E+05  0.1584077E+01
  0.9476191E+00  0.2207677E+05 -0.1547454E+01  0.2763791E+05 -0.2695533E+01  0.1172938E+05  0.1586519E+01
  0.9785714E+00  0.2331150E+05 -0.1543178E+01  0.2917708E+05 -0.2677648E+01  0.1223672E+05  0.1589265E+01
  0.1009524E+01  0.2455051E+05 -0.1538342E+01  0.3071183E+05 -0.2659843E+01  0.1272238E+05  0.1592336E+01
  0.1040476E+01  0.2580328E+05 -0.1532920E+01  0.3224763E+05 -0.2642404E+01  0.1320272E+05  0.1595728E+01
  0.1071429E+01  0.2704729E+05 -0.1526857E+01  0.3378682E+05 -0.2625486E+01  0.1365498E+05  0.1599462E+01
  0.1102381E+01  0.2827205E+05 -0.1520111E+01  0.3532500E+05 -0.2609077E+01  0.1410629E+05  0.1603513E+01
  0.1133333E+01  0.2945711E+05 -0.1512627E+01  0.3685500E+05 -0.2593051E+01  0.1453281E+05  0.1607901E+01
  0.1164286E+01  0.3061867E+05 -0.1504415E+01  0.3837514E+05 -0.2577425E+01  0.1491271E+05  0.1612637E+01
  0.1195238E+01  0.3177244E+05 -0.1495492E+01  0.3987632E+05 -0.2562076E+01  0.1526699E+05  0.1617683E+01
  0.1226190E+01  0.3289570E+05 -0.1485825E+01  0.4135610E+05 -0.2547021E+01  0.1556592E+05  0.1623052E+01
  0.1257143E+01  0.3396871E+05 -0.1475351E+01  0.4282452E+05 -0.2531846E+01  0.1583897E+05  0.1628694E+01
  0.1288095E+01  0.3503410E+05 -0.1464251E+01  0.4423202E+05 -0.2517699E+01  0.1609342E+05  0.1634496E+01
  0.1319048E+01  0.3599621E+05 -0.1452258E+01  0.4562546E+05 -0.2503532E+01  0.1630106E+05  0.1640490E+01
  0.1350000E+01  0.3688882E+05 -0.1439491E+01  0.4699488E+05 -0.2490029E+01  0.1648045E+05  0.1646565E+01
  0.1380952E+01  0.3769794E+05 -0.1425957E+01  0.4833711E+05 -0.2477224E+01  0.1662782E+05  0.1652627E+01
  0.1411905E+01  0.3799777E+05 -0.1412729E+01  0.4930084E+05 -0.2463562E+01  0.1676511E+05  0.1657406E+01
  0.1442857E+01  0.3859136E+05 -0.1397850E+01  0.5056821E+05 -0.2451572E+01  0.1680734E+05  0.1663185E+01
  0.1473810E+01  0.3907789E+05 -0.1382363E+01  0.5179635E+05 -0.2439907E+01  0.1681564E+05  0.1668714E+01
  0.1504762E+01  0.3943812E+05 -0.1366278E+01  0.5298400E+05 -0.2428513E+01  0.1678050E+05  0.1673920E+01
  0.1535714E+01  0.3966577E+05 -0.1349673E+01  0.5412484E+05 -0.2417321E+01  0.1668318E+05  0.1678684E+01
  0.1566667E+01  0.3977779E+05 -0.1332700E+01  0.5522338E+05 -0.2406590E+01  0.1657187E+05  0.1682841E+01
  0.1597619E+01  0.3974712E+05 -0.1315371E+01  0.5627349E+05 -0.2396187E+01  0.1642138E+05  0.1686240E+01
  0.1628572E+01  0.3955910E+05 -0.1297736E+01  0.5727507E+05 -0.2386158E+01  0.1622503E+05  0.1688771E+01
  0.1659524E+01  0.3922797E+05 -0.1280034E+01  0.5822755E+05 -0.2376679E+01  0.1600078E+05  0.1690316E+01
  0.1690476E+01  0.3874291E+05 -0.1262339E+01  0.5912880E+05 -0.2367649E+01  0.1575313E+05  0.1690731E+01
  0.1721429E+01  0.3809472E+05 -0.1244659E+01  0.5998217E+05 -0.2358885E+01  0.1549247E+05  0.1690053E+01
  0.1752381E+01  0.3727687E+05 -0.1227153E+01  0.6077964E+05 -0.2350376E+01  0.1519207E+05  0.1688021E+01
  0.1783333E+01  0.3630192E+05 -0.1209964E+01  0.6152343E+05 -0.2342277E+01  0.1488162E+05  0.1684665E+01
  0.1814286E+01  0.3518161E+05 -0.1193347E+01  0.6221264E+05 -0.2334657E+01  0.1457619E+05  0.1679991E+01
  0.1845238E+01  0.3390394E+05 -0.1177365E+01  0.6284325E+05 -0.2327362E+01  0.1426156E+05  0.1673923E+01
  0.1876190E+01  0.3246777E+05 -0.1162121E+01  0.6341614E+05 -0.2320305E+01  0.1394106E+05  0.1666511E+01
  0.1907143E+01  0.3089708E+05 -0.1148049E+01  0.6392811E+05 -0.2313787E+01  0.1363254E+05  0.1658001E+01
  0.1938095E+01  0.2919074E+05 -0.1135333E+01  0.6438017E+05 -0.2307536E+01  0.1333348E+05  0.1648355E+01
  0.1969048E+01  0.2735943E+05 -0.1124207E+01  0.6477559E+05 -0.2301552E+01  0.1305940E+05  0.1638091E+01
  0.2000000E+01  0.2540857E+05 -0.1115036E+01  0.6511305E+05 -0.2295851E+01  0.1280798E+05  0.1627482E+01
