VARIABLES="w (rad/s)"
"abs(F   1   1)" "angle(F   1   1)"
"abs(F   1   2)" "angle(F   1   2)"
"abs(F   1   3)" "angle(F   1   3)"
Zone t="Diffraction force - beta =   0.000 deg",I=    64,F=POINT
  0.5000000E-01  0.3836815E+04 -0.1570793E+01  0.4986352E+06 -0.3730323E-04  0.1137731E+04 -0.1570752E+01
  0.8095238E-01  0.6258614E+04 -0.1570794E+01  0.4975538E+06 -0.1003279E-03  0.1852111E+04 -0.1570786E+01
  0.1119048E+00  0.8727410E+04 -0.1570787E+01  0.4959661E+06 -0.1991455E-03  0.2592709E+04 -0.1570798E+01
  0.1428571E+00  0.1127671E+05 -0.1570791E+01  0.4938717E+06 -0.3413113E-03  0.3376023E+04 -0.1570787E+01
  0.1738095E+00  0.1392400E+05 -0.1570782E+01  0.4912657E+06 -0.5381450E-03  0.4206748E+04 -0.1570794E+01
  0.2047619E+00  0.1670951E+05 -0.1570773E+01  0.4881436E+06 -0.8060363E-03  0.5108046E+04 -0.1570751E+01
  0.2357143E+00  0.1965351E+05 -0.1570762E+01  0.4844969E+06 -0.1169225E-02  0.6075376E+04 -0.1570753E+01
  0.2666667E+00  0.2281056E+05 -0.1570744E+01  0.4803263E+06 -0.1656910E-02  0.7161537E+04 -0.1570748E+01
  0.2976190E+00  0.2622261E+05 -0.1570720E+01  0.4756205E+06 -0.2319122E-02  0.8369985E+04 -0.1570717E+01
  0.3285715E+00  0.2992192E+05 -0.1570682E+01  0.4703715E+06 -0.3205720E-02  0.9699400E+04 -0.1570683E+01
  0.3595238E+00  0.3398247E+05 -0.1570624E+01  0.4646075E+06 -0.4397434E-02  0.1123682E+05 -0.1570623E+01
  0.3904762E+00  0.3845222E+05 -0.1570543E+01  0.4583153E+06 -0.5982433E-02  0.1298127E+05 -0.1570538E+01
  0.4214286E+00  0.4335849E+05 -0.1570420E+01  0.4515418E+06 -0.8016944E-02  0.1494197E+05 -0.1570419E+01
  0.4523810E+00  0.4871496E+05 -0.1570246E+01  0.4442981E+06 -0.1065759E-01  0.1714916E+05 -0.1570249E+01
  0.4833333E+00  0.5456064E+05 -0.1570002E+01  0.4366779E+06 -0.1382959E-01  0.1969971E+05 -0.1570000E+01
  0.5142857E+00  0.6084346E+05 -0.1569670E+01  0.4286893E+06 -0.1771643E-01  0.2249508E+05 -0.1569669E+01
  0.5452381E+00  0.6749575E+05 -0.1569231E+01  0.4203330E+06 -0.2225429E-01  0.2552211E+05 -0.1569229E+01
  0.5761905E+00  0.7449306E+05 -0.1568668E+01  0.4116876E+06 -0.2745828E-01  0.2887695E+05 -0.1568663E+01
  0.6071429E+00  0.8181405E+05 -0.1567951E+01  0.4028173E+06 -0.3348256E-01  0.3257438E+05 -0.1567946E+01
  0.6380953E+00  0.8939852E+05 -0.1567072E+01  0.3936533E+06 -0.4017581E-01  0.3654321E+05 -0.1567064E+01
  0.6690477E+00  0.9717223E+05 -0.1565998E+01  0.3842525E+06 -0.4767823E-01  0.4074124E+05 -0.1565984E+01
  0.7000000E+00  0.1050856E+06 -0.1564703E+01  0.3746803E+06 -0.5609161E-01  0.4517109E+05 -0.1564683E+01
  0.7309524E+00  0.1131580E+06 -0.1563177E+01  0.3649238E+06 -0.6534921E-01  0.4995918E+05 -0.1563151E+01
  0.7619048E+00  0.1213501E+06 -0.1561393E+01  0.3550569E+06 -0.7554004E-01  0.5509714E+05 -0.1561357E+01
  0.7928572E+00  0.1296136E+06 -0.1559333E+01  0.3451022E+06 -0.8671001E-01  0.6047434E+05 -0.1559283E+01
  0.8238096E+00  0.1378655E+06 -0.1556983E+01  0.3350503E+06 -0.9887678E-01  0.6605178E+05 -0.1556913E+01
  0.8547620E+00  0.1460716E+06 -0.1554338E+01  0.3248877E+06 -0.1120582E+00  0.7184058E+05 -0.1554237E+01
  0.8857143E+00  0.1542012E+06 -0.1551401E+01  0.3146817E+06 -0.1263164E+00  0.7786229E+05 -0.1551269E+01
  0.9166667E+00  0.1622246E+06 -0.1548187E+01  0.3044850E+06 -0.1416873E+00  0.8412865E+05 -0.1548022E+01
  0.9476191E+00  0.1700680E+06 -0.1544716E+01  0.2943411E+06 -0.1582072E+00  0.9062146E+05 -0.1544511E+01
  0.9785714E+00  0.1777060E+06 -0.1541022E+01  0.2842172E+06 -0.1758828E+00  0.9726840E+05 -0.1540767E+01
  0.1009524E+01  0.1850490E+06 -0.1537146E+01  0.2741187E+06 -0.1947414E+00  0.1039795E+06 -0.1536822E+01
  0.1040476E+01  0.1920270E+06 -0.1533148E+01  0.2640308E+06 -0.2147995E+00  0.1107086E+06 -0.1532729E+01
  0.1071429E+01  0.1985747E+06 -0.1529104E+01  0.2539785E+06 -0.2361278E+00  0.1173872E+06 -0.1528565E+01
  0.1102381E+01  0.2046533E+06 -0.1525114E+01  0.2439674E+06 -0.2588532E+00  0.1240002E+06 -0.1524442E+01
  0.1133333E+01  0.2101975E+06 -0.1521295E+01  0.2340403E+06 -0.2830232E+00  0.1305457E+06 -0.1520474E+01
  0.1164286E+01  0.2151788E+06 -0.1517772E+01  0.2241919E+06 -0.3087212E+00  0.1369357E+06 -0.1516793E+01
  0.1195238E+01  0.2195436E+06 -0.1514689E+01  0.2144245E+06 -0.3360398E+00  0.1431310E+06 -0.1513536E+01
  0.1226190E+01  0.2232623E+06 -0.1512187E+01  0.2047414E+06 -0.3651122E+00  0.1490112E+06 -0.1510854E+01
  0.1257143E+01  0.2262841E+06 -0.1510376E+01  0.1951945E+06 -0.3963380E+00  0.1545472E+06 -0.1508861E+01
  0.1288095E+01  0.2286158E+06 -0.1509592E+01  0.1856472E+06 -0.4292143E+00  0.1597179E+06 -0.1507897E+01
  0.1319048E+01  0.2302211E+06 -0.1509835E+01  0.1762401E+06 -0.4646563E+00  0.1644319E+06 -0.1507977E+01
  0.1350000E+01  0.2311262E+06 -0.1511345E+01  0.1669031E+06 -0.5028719E+00  0.1686459E+06 -0.1509364E+01
  0.1380952E+01  0.2313224E+06 -0.1514297E+01  0.1576669E+06 -0.5443622E+00  0.1723762E+06 -0.1512219E+01
  0.1411905E+01  0.2310230E+06 -0.1518451E+01  0.1485962E+06 -0.5870060E+00  0.1757849E+06 -0.1516364E+01
  0.1442857E+01  0.2299356E+06 -0.1524591E+01  0.1396779E+06 -0.6364694E+00  0.1784726E+06 -0.1522566E+01
  0.1473810E+01  0.2282532E+06 -0.1532618E+01  0.1309080E+06 -0.6912457E+00  0.1805812E+06 -0.1530779E+01
  0.1504762E+01  0.2260025E+06 -0.1542652E+01  0.1223617E+06 -0.7524227E+00  0.1821146E+06 -0.1541156E+01
  0.1535714E+01  0.2232374E+06 -0.1554818E+01  0.1141276E+06 -0.8211813E+00  0.1830949E+06 -0.1553840E+01
  0.1566667E+01  0.2200152E+06 -0.1569232E+01  0.1063132E+06 -0.8995637E+00  0.1835235E+06 -0.1569035E+01
  0.1597619E+01  0.2163850E+06 -0.1586008E+01  0.9907205E+05 -0.9889533E+00  0.1834573E+06 -0.1586854E+01
  0.1628572E+01  0.2124205E+06 -0.1605195E+01  0.9259430E+05 -0.1090753E+01  0.1828773E+06 -0.1607475E+01
  0.1659524E+01  0.2081524E+06 -0.1626868E+01  0.8711720E+05 -0.1205326E+01  0.1818444E+06 -0.1631004E+01
  0.1690476E+01  0.2036531E+06 -0.1651108E+01  0.8280382E+05 -0.1333037E+01  0.1803809E+06 -0.1657609E+01
  0.1721429E+01  0.1989598E+06 -0.1677998E+01  0.7988667E+05 -0.1471352E+01  0.1785632E+06 -0.1687434E+01
  0.1752381E+01  0.1941405E+06 -0.1707483E+01  0.7860784E+05 -0.1614372E+01  0.1763821E+06 -0.1720656E+01
  0.1783333E+01  0.1892264E+06 -0.1739672E+01  0.7891538E+05 -0.1756635E+01  0.1739269E+06 -0.1757319E+01
  0.1814286E+01  0.1842655E+06 -0.1774574E+01  0.8070353E+05 -0.1891653E+01  0.1712430E+06 -0.1797758E+01
  0.1845238E+01  0.1792942E+06 -0.1812249E+01  0.8372354E+05 -0.2014530E+01  0.1684197E+06 -0.1841825E+01
  0.1876190E+01  0.1743691E+06 -0.1852626E+01  0.8765703E+05 -0.2122595E+01  0.1654880E+06 -0.1889761E+01
  0.1907143E+01  0.1695146E+06 -0.1895636E+01  0.9209998E+05 -0.2214937E+01  0.1624826E+06 -0.1941859E+01
  0.1938095E+01  0.1647557E+06 -0.1941347E+01  0.9676238E+05 -0.2293947E+01  0.1594960E+06 -0.1997891E+01
  0.1969048E+01  0.1601004E+06 -0.1989805E+01  0.1013640E+06 -0.2361897E+01  0.1566065E+06 -0.2057747E+01
  0.2000000E+01  0.1555940E+06 -0.2040787E+01  0.1056836E+06 -0.2420760E+01  0.1538102E+06 -0.2121816E+01
