VARIABLES="w (rad/s)"
"abs(F   1   1)" "angle(F   1   1)"
"abs(F   1   2)" "angle(F   1   2)"
"abs(F   1   3)" "angle(F   1   3)"
Zone t="Diffraction force - beta =   0.000 deg",I=    64,F=POINT
  0.5000000E-01  0.3889303E+03 -0.1570796E+01  0.1050404E+03 -0.3101679E+01  0.5299796E+01 -0.1570796E+01
  0.8095238E-01  0.6341317E+03 -0.1570794E+01  0.2735668E+03 -0.3100408E+01  0.8623013E+01 -0.1570795E+01
  0.1119048E+00  0.8852335E+03 -0.1570792E+01  0.5206697E+03 -0.3098692E+01  0.1186523E+02 -0.1570792E+01
  0.1428571E+00  0.1144866E+04 -0.1570790E+01  0.8468562E+03 -0.3096463E+01  0.1553282E+02 -0.1570789E+01
  0.1738095E+00  0.1418324E+04 -0.1570785E+01  0.1253641E+04 -0.3093620E+01  0.1912968E+02 -0.1570783E+01
  0.2047619E+00  0.1704622E+04 -0.1570779E+01  0.1742841E+04 -0.3090037E+01  0.2323827E+02 -0.1570775E+01
  0.2357143E+00  0.2007272E+04 -0.1570770E+01  0.2316668E+04 -0.3085494E+01  0.2739352E+02 -0.1570764E+01
  0.2666667E+00  0.2339311E+04 -0.1570757E+01  0.2977012E+04 -0.3079923E+01  0.3208193E+02 -0.1570746E+01
  0.2976190E+00  0.2696494E+04 -0.1570736E+01  0.3726677E+04 -0.3072900E+01  0.3743087E+02 -0.1570722E+01
  0.3285715E+00  0.3081171E+04 -0.1570706E+01  0.4568447E+04 -0.3064440E+01  0.4274928E+02 -0.1570683E+01
  0.3595238E+00  0.3516334E+04 -0.1570661E+01  0.5501463E+04 -0.3054111E+01  0.4921068E+02 -0.1570625E+01
  0.3904762E+00  0.3995961E+04 -0.1570594E+01  0.6528497E+04 -0.3041788E+01  0.5661710E+02 -0.1570541E+01
  0.4214286E+00  0.4516548E+04 -0.1570494E+01  0.7639079E+04 -0.3027885E+01  0.6480168E+02 -0.1570415E+01
  0.4523810E+00  0.5099896E+04 -0.1570348E+01  0.8839983E+04 -0.3011752E+01  0.7367316E+02 -0.1570232E+01
  0.4833333E+00  0.5749711E+04 -0.1570144E+01  0.1010860E+05 -0.2995149E+01  0.8525109E+02 -0.1569985E+01
  0.5142857E+00  0.6447854E+04 -0.1569860E+01  0.1144912E+05 -0.2977096E+01  0.9657119E+02 -0.1569632E+01
  0.5452381E+00  0.7170312E+04 -0.1569475E+01  0.1285452E+05 -0.2958869E+01  0.1070319E+03 -0.1569137E+01
  0.5761905E+00  0.7967210E+04 -0.1568974E+01  0.1431979E+05 -0.2940767E+01  0.1215274E+03 -0.1568529E+01
  0.6071429E+00  0.8826349E+04 -0.1568327E+01  0.1583445E+05 -0.2921990E+01  0.1368776E+03 -0.1567742E+01
  0.6380953E+00  0.9715610E+04 -0.1567511E+01  0.1740383E+05 -0.2904001E+01  0.1536623E+03 -0.1566760E+01
  0.6690477E+00  0.1061759E+05 -0.1566483E+01  0.1902191E+05 -0.2886028E+01  0.1685466E+03 -0.1565472E+01
  0.7000000E+00  0.1155890E+05 -0.1565210E+01  0.2067775E+05 -0.2867784E+01  0.1849395E+03 -0.1563887E+01
  0.7309524E+00  0.1256014E+05 -0.1563671E+01  0.2237325E+05 -0.2849934E+01  0.2050784E+03 -0.1562046E+01
  0.7619048E+00  0.1361718E+05 -0.1561821E+01  0.2410086E+05 -0.2832191E+01  0.2281848E+03 -0.1559891E+01
  0.7928572E+00  0.1470475E+05 -0.1559605E+01  0.2585015E+05 -0.2814456E+01  0.2511377E+03 -0.1557274E+01
  0.8238096E+00  0.1579240E+05 -0.1556959E+01  0.2761728E+05 -0.2796823E+01  0.2715380E+03 -0.1554015E+01
  0.8547620E+00  0.1687738E+05 -0.1553825E+01  0.2940268E+05 -0.2779439E+01  0.2934094E+03 -0.1550195E+01
  0.8857143E+00  0.1802764E+05 -0.1550199E+01  0.3120361E+05 -0.2762371E+01  0.3197976E+03 -0.1545940E+01
  0.9166667E+00  0.1922934E+05 -0.1546030E+01  0.3300526E+05 -0.2745480E+01  0.3474299E+03 -0.1541044E+01
  0.9476191E+00  0.2046763E+05 -0.1541255E+01  0.3479611E+05 -0.2728701E+01  0.3764427E+03 -0.1535436E+01
  0.9785714E+00  0.2171965E+05 -0.1535799E+01  0.3657437E+05 -0.2712121E+01  0.4094007E+03 -0.1529243E+01
  0.1009524E+01  0.2298925E+05 -0.1529610E+01  0.3834323E+05 -0.2695905E+01  0.4441278E+03 -0.1522274E+01
  0.1040476E+01  0.2424100E+05 -0.1522590E+01  0.4009612E+05 -0.2680043E+01  0.4738478E+03 -0.1513903E+01
  0.1071429E+01  0.2547261E+05 -0.1514674E+01  0.4182682E+05 -0.2664505E+01  0.5026469E+03 -0.1504341E+01
  0.1102381E+01  0.2673050E+05 -0.1505911E+01  0.4353102E+05 -0.2649269E+01  0.5362159E+03 -0.1494111E+01
  0.1133333E+01  0.2800960E+05 -0.1496272E+01  0.4520023E+05 -0.2634290E+01  0.5749325E+03 -0.1483330E+01
  0.1164286E+01  0.2931394E+05 -0.1485745E+01  0.4683721E+05 -0.2619721E+01  0.6175551E+03 -0.1471791E+01
  0.1195238E+01  0.3060914E+05 -0.1474243E+01  0.4843201E+05 -0.2605469E+01  0.6583574E+03 -0.1458876E+01
  0.1226190E+01  0.3187726E+05 -0.1461702E+01  0.4998143E+05 -0.2591550E+01  0.6994205E+03 -0.1444780E+01
  0.1257143E+01  0.3307666E+05 -0.1447953E+01  0.5149781E+05 -0.2577650E+01  0.7389955E+03 -0.1429155E+01
  0.1288095E+01  0.3425351E+05 -0.1433230E+01  0.5292832E+05 -0.2564598E+01  0.7806401E+03 -0.1412568E+01
  0.1319048E+01  0.3532765E+05 -0.1417189E+01  0.5432745E+05 -0.2551726E+01  0.8195223E+03 -0.1394200E+01
  0.1350000E+01  0.3633198E+05 -0.1400002E+01  0.5567664E+05 -0.2539373E+01  0.8598094E+03 -0.1374929E+01
  0.1380952E+01  0.3728362E+05 -0.1381860E+01  0.5697264E+05 -0.2527518E+01  0.8980343E+03 -0.1354361E+01
  0.1411905E+01  0.3793512E+05 -0.1362838E+01  0.5816530E+05 -0.2515669E+01  0.9167446E+03 -0.1330499E+01
  0.1442857E+01  0.3870972E+05 -0.1342774E+01  0.5933292E+05 -0.2504309E+01  0.9527051E+03 -0.1307758E+01
  0.1473810E+01  0.3937006E+05 -0.1321717E+01  0.6043234E+05 -0.2493163E+01  0.9889531E+03 -0.1284087E+01
  0.1504762E+01  0.3989752E+05 -0.1299653E+01  0.6146608E+05 -0.2482388E+01  0.1024270E+04 -0.1259594E+01
  0.1535714E+01  0.4029110E+05 -0.1276672E+01  0.6243471E+05 -0.2472038E+01  0.1058159E+04 -0.1234357E+01
  0.1566667E+01  0.4053759E+05 -0.1252882E+01  0.6333597E+05 -0.2462113E+01  0.1089363E+04 -0.1208703E+01
  0.1597619E+01  0.4063472E+05 -0.1228493E+01  0.6416718E+05 -0.2452507E+01  0.1113677E+04 -0.1181504E+01
  0.1628572E+01  0.4055407E+05 -0.1203428E+01  0.6492543E+05 -0.2443188E+01  0.1130618E+04 -0.1152976E+01
  0.1659524E+01  0.4030396E+05 -0.1177855E+01  0.6561070E+05 -0.2434190E+01  0.1142786E+04 -0.1123642E+01
  0.1690476E+01  0.3987603E+05 -0.1151805E+01  0.6622061E+05 -0.2425444E+01  0.1151967E+04 -0.1093842E+01
  0.1721429E+01  0.3925604E+05 -0.1125211E+01  0.6675638E+05 -0.2416996E+01  0.1157673E+04 -0.1063947E+01
  0.1752381E+01  0.3845654E+05 -0.1098367E+01  0.6722122E+05 -0.2408953E+01  0.1159354E+04 -0.1034887E+01
  0.1783333E+01  0.3747782E+05 -0.1071430E+01  0.6761188E+05 -0.2401290E+01  0.1155672E+04 -0.1005845E+01
  0.1814286E+01  0.3631738E+05 -0.1044388E+01  0.6792676E+05 -0.2393993E+01  0.1143745E+04 -0.9763441E+00
  0.1845238E+01  0.3498011E+05 -0.1017286E+01  0.6816459E+05 -0.2386999E+01  0.1122759E+04 -0.9459344E+00
  0.1876190E+01  0.3346075E+05 -0.9899586E+00  0.6832741E+05 -0.2380291E+01  0.1093049E+04 -0.9139664E+00
  0.1907143E+01  0.3177288E+05 -0.9625285E+00  0.6841560E+05 -0.2373886E+01  0.1055967E+04 -0.8816297E+00
  0.1938095E+01  0.2993051E+05 -0.9351352E+00  0.6842856E+05 -0.2367813E+01  0.1012788E+04 -0.8495739E+00
  0.1969048E+01  0.2793352E+05 -0.9075265E+00  0.6836473E+05 -0.2361865E+01  0.9649216E+03 -0.8186936E+00
  0.2000000E+01  0.2579884E+05 -0.8796547E+00  0.6822847E+05 -0.2356334E+01  0.9095170E+03 -0.7876042E+00
