VARIABLES="w (rad/s)"
"abs(F   1   1)" "angle(F   1   1)"
"abs(F   1   2)" "angle(F   1   2)"
"abs(F   1   3)" "angle(F   1   3)"
Zone t="Diffraction force - beta =   0.000 deg",I=    64,F=POINT
  0.5000000E-01  0.3120897E+04 -0.1570792E+01  0.9398649E+03 -0.3084396E+01  0.3319602E+04  0.1570798E+01
  0.8095238E-01  0.5105875E+04 -0.1570784E+01  0.2429044E+04 -0.3082321E+01  0.5433829E+04  0.1570801E+01
  0.1119048E+00  0.7158151E+04 -0.1570771E+01  0.4599035E+04 -0.3079837E+01  0.7638671E+04  0.1570805E+01
  0.1428571E+00  0.9264514E+04 -0.1570751E+01  0.7453543E+04 -0.3076818E+01  0.9914948E+04  0.1570811E+01
  0.1738095E+00  0.1148022E+05 -0.1570722E+01  0.1100303E+05 -0.3073131E+01  0.1233136E+05  0.1570821E+01
  0.2047619E+00  0.1379512E+05 -0.1570680E+01  0.1522734E+05 -0.3068398E+01  0.1489409E+05  0.1570835E+01
  0.2357143E+00  0.1634574E+05 -0.1570620E+01  0.2016773E+05 -0.3062576E+01  0.1768636E+05  0.1570856E+01
  0.2666667E+00  0.1902285E+05 -0.1570531E+01  0.2580715E+05 -0.3055559E+01  0.2070778E+05  0.1570886E+01
  0.2976190E+00  0.2195875E+05 -0.1570400E+01  0.3215315E+05 -0.3046741E+01  0.2401284E+05  0.1570933E+01
  0.3285715E+00  0.2527720E+05 -0.1570206E+01  0.3920348E+05 -0.3036338E+01  0.2783345E+05  0.1571002E+01
  0.3595238E+00  0.2885986E+05 -0.1569914E+01  0.4692036E+05 -0.3023759E+01  0.3193750E+05  0.1571107E+01
  0.3904762E+00  0.3278789E+05 -0.1569478E+01  0.5526735E+05 -0.3008951E+01  0.3658857E+05  0.1571266E+01
  0.4214286E+00  0.3735742E+05 -0.1568847E+01  0.6415794E+05 -0.2992735E+01  0.4193728E+05  0.1571502E+01
  0.4523810E+00  0.4245723E+05 -0.1567927E+01  0.7343255E+05 -0.2973633E+01  0.4799847E+05  0.1571852E+01
  0.4833333E+00  0.4783204E+05 -0.1566643E+01  0.8313134E+05 -0.2955220E+01  0.5445730E+05  0.1572346E+01
  0.5142857E+00  0.5378852E+05 -0.1564872E+01  0.9286395E+05 -0.2934710E+01  0.6164795E+05  0.1573039E+01
  0.5452381E+00  0.6056173E+05 -0.1562547E+01  0.1028624E+06 -0.2914966E+01  0.6997041E+05  0.1573977E+01
  0.5761905E+00  0.6764365E+05 -0.1559525E+01  0.1129368E+06 -0.2896132E+01  0.7864670E+05  0.1575217E+01
  0.6071429E+00  0.7520170E+05 -0.1555646E+01  0.1227632E+06 -0.2876136E+01  0.8807845E+05  0.1576842E+01
  0.6380953E+00  0.8291292E+05 -0.1550800E+01  0.1328114E+06 -0.2858767E+01  0.9787783E+05  0.1578896E+01
  0.6690477E+00  0.9152373E+05 -0.1544913E+01  0.1426538E+06 -0.2841614E+01  0.1087364E+06  0.1581466E+01
  0.7000000E+00  0.1007926E+06 -0.1537778E+01  0.1520866E+06 -0.2823888E+01  0.1205756E+06  0.1584680E+01
  0.7309524E+00  0.1101335E+06 -0.1529169E+01  0.1615435E+06 -0.2808147E+01  0.1327367E+06  0.1588613E+01
  0.7619048E+00  0.1196487E+06 -0.1518892E+01  0.1707910E+06 -0.2793344E+01  0.1452639E+06  0.1593388E+01
  0.7928572E+00  0.1296290E+06 -0.1506877E+01  0.1793180E+06 -0.2777790E+01  0.1582760E+06  0.1599088E+01
  0.8238096E+00  0.1400631E+06 -0.1493007E+01  0.1876443E+06 -0.2763295E+01  0.1726407E+06  0.1605779E+01
  0.8547620E+00  0.1510703E+06 -0.1477218E+01  0.1957301E+06 -0.2750283E+01  0.1874532E+06  0.1613563E+01
  0.8857143E+00  0.1621654E+06 -0.1459153E+01  0.2032295E+06 -0.2737565E+01  0.2027594E+06  0.1622683E+01
  0.9166667E+00  0.1734512E+06 -0.1438795E+01  0.2100561E+06 -0.2724886E+01  0.2183021E+06  0.1633161E+01
  0.9476191E+00  0.1844036E+06 -0.1415842E+01  0.2164428E+06 -0.2713037E+01  0.2345074E+06  0.1645099E+01
  0.9785714E+00  0.1948241E+06 -0.1390190E+01  0.2223904E+06 -0.2702386E+01  0.2501137E+06  0.1658481E+01
  0.1009524E+01  0.2047021E+06 -0.1361901E+01  0.2279400E+06 -0.2692927E+01  0.2657673E+06  0.1673273E+01
  0.1040476E+01  0.2146460E+06 -0.1331771E+01  0.2324011E+06 -0.2682225E+01  0.2810782E+06  0.1689100E+01
  0.1071429E+01  0.2243497E+06 -0.1299741E+01  0.2363655E+06 -0.2672419E+01  0.2970339E+06  0.1706008E+01
  0.1102381E+01  0.2325889E+06 -0.1265007E+01  0.2398465E+06 -0.2663674E+01  0.3120837E+06  0.1724414E+01
  0.1133333E+01  0.2394918E+06 -0.1228050E+01  0.2427875E+06 -0.2656019E+01  0.3257690E+06  0.1743738E+01
  0.1164286E+01  0.2448063E+06 -0.1189061E+01  0.2452933E+06 -0.2649538E+01  0.3385403E+06  0.1763810E+01
  0.1195238E+01  0.2488598E+06 -0.1149338E+01  0.2466475E+06 -0.2641548E+01  0.3491885E+06  0.1783734E+01
  0.1226190E+01  0.2515485E+06 -0.1109328E+01  0.2474169E+06 -0.2634289E+01  0.3588540E+06  0.1803007E+01
  0.1257143E+01  0.2518846E+06 -0.1067695E+01  0.2477771E+06 -0.2627694E+01  0.3669987E+06  0.1822593E+01
  0.1288095E+01  0.2502854E+06 -0.1026113E+01  0.2475330E+06 -0.2622287E+01  0.3730846E+06  0.1841077E+01
  0.1319048E+01  0.2463242E+06 -0.9839830E+00  0.2467985E+06 -0.2617611E+01  0.3764201E+06  0.1858112E+01
  0.1350000E+01  0.2404564E+06 -0.9428294E+00  0.2454863E+06 -0.2613500E+01  0.3781518E+06  0.1872855E+01
  0.1380952E+01  0.2328252E+06 -0.9033800E+00  0.2431698E+06 -0.2608300E+01  0.3768652E+06  0.1884752E+01
  0.1411905E+01  0.2227057E+06 -0.8630666E+00  0.2403168E+06 -0.2603185E+01  0.3732172E+06  0.1894590E+01
  0.1442857E+01  0.2114151E+06 -0.8257849E+00  0.2370988E+06 -0.2598783E+01  0.3691227E+06  0.1901246E+01
  0.1473810E+01  0.1983427E+06 -0.7902685E+00  0.2333872E+06 -0.2595337E+01  0.3628693E+06  0.1903743E+01
  0.1504762E+01  0.1837034E+06 -0.7565829E+00  0.2291834E+06 -0.2592751E+01  0.3546984E+06  0.1901877E+01
  0.1535714E+01  0.1676476E+06 -0.7245411E+00  0.2245417E+06 -0.2590625E+01  0.3451534E+06  0.1895808E+01
  0.1566667E+01  0.1505341E+06 -0.6958588E+00  0.2192461E+06 -0.2588171E+01  0.3341418E+06  0.1883925E+01
  0.1597619E+01  0.1325954E+06 -0.6720114E+00  0.2132939E+06 -0.2585634E+01  0.3215752E+06  0.1864925E+01
  0.1628572E+01  0.1138759E+06 -0.6525998E+00  0.2069303E+06 -0.2583562E+01  0.3086062E+06  0.1839821E+01
  0.1659524E+01  0.9450681E+05 -0.6389198E+00  0.2002587E+06 -0.2582061E+01  0.2960226E+06  0.1809440E+01
  0.1690476E+01  0.7447663E+05 -0.6347555E+00  0.1933057E+06 -0.2582046E+01  0.2830662E+06  0.1770824E+01
  0.1721429E+01  0.5408645E+05 -0.6505083E+00  0.1861000E+06 -0.2583515E+01  0.2703239E+06  0.1723114E+01
  0.1752381E+01  0.3359719E+05 -0.7175604E+00  0.1785881E+06 -0.2586082E+01  0.2582175E+06  0.1666703E+01
  0.1783333E+01  0.1410706E+05 -0.1061667E+01  0.1708679E+06 -0.2589145E+01  0.2473374E+06  0.1601248E+01
  0.1814286E+01  0.1267190E+05 -0.2845150E+01  0.1629408E+06 -0.2592522E+01  0.2374213E+06  0.1523428E+01
  0.1845238E+01  0.3174495E+05  0.3019485E+01  0.1548224E+06 -0.2596816E+01  0.2292182E+06  0.1434413E+01
  0.1876190E+01  0.5213453E+05  0.2939956E+01  0.1466469E+06 -0.2602222E+01  0.2234843E+06  0.1337663E+01
  0.1907143E+01  0.7223741E+05  0.2919645E+01  0.1386259E+06 -0.2609237E+01  0.2209171E+06  0.1241048E+01
  0.1938095E+01  0.9190690E+05  0.2917615E+01  0.1305749E+06 -0.2617867E+01  0.2209812E+06  0.1144088E+01
  0.1969048E+01  0.1109140E+06  0.2924254E+01  0.1224592E+06 -0.2628457E+01  0.2236357E+06  0.1050922E+01
  0.2000000E+01  0.1291086E+06  0.2934839E+01  0.1142422E+06 -0.2641971E+01  0.2284487E+06  0.9640899E+00
