VARIABLES="w (rad/s)"
"A   1   1" "B   1   1"
"A   1   2" "B   1   2"
"A   1   3" "B   1   3"
Zone t="Motion of body    1 in DoF   1",I=    64,F=POINT
  0.5000000E-01  0.2795215E+05  0.1111544E-02  0.8296967E-03 -0.1513547E-05  0.3972670E+03  0.2049056E-04
  0.8095238E-01  0.2798452E+05  0.4832611E-02 -0.1154507E-02 -0.1142480E-04  0.3952390E+03  0.8710374E-04
  0.1119048E+00  0.2805392E+05  0.1360630E-01  0.4227009E-02  0.1739466E-04  0.3900862E+03  0.2442232E-03
  0.1428571E+00  0.2803362E+05  0.3061242E-01 -0.1862526E-02 -0.4335605E-05  0.3926603E+03  0.5515930E-03
  0.1738095E+00  0.2814803E+05  0.6107373E-01 -0.1459514E-02 -0.7456329E-05  0.3937341E+03  0.1102355E-02
  0.2047619E+00  0.2814244E+05  0.1127524E+00  0.1350669E-03  0.1247466E-04  0.3976852E+03  0.2045691E-02
  0.2357143E+00  0.2818816E+05  0.1988042E+00 -0.8334535E-03 -0.5545386E-05  0.3962478E+03  0.3616466E-02
  0.2666667E+00  0.2828358E+05  0.3399830E+00 -0.1430511E-02 -0.4719070E-05  0.4003576E+03  0.6228237E-02
  0.2976190E+00  0.2832168E+05  0.5710583E+00 -0.4870605E-03  0.2962421E-05  0.4036656E+03  0.1052669E-01
  0.3285715E+00  0.2835122E+05  0.9464448E+00  0.1851787E-02  0.7054512E-04  0.4019951E+03  0.1749948E-01
  0.3595238E+00  0.2848210E+05  0.1558681E+01 -0.1480153E-02 -0.6236136E-04  0.4069513E+03  0.2903146E-01
  0.3904762E+00  0.2855232E+05  0.2547147E+01 -0.1255361E-02 -0.6010663E-04  0.4107843E+03  0.4779957E-01
  0.4214286E+00  0.2860526E+05  0.4106593E+01  0.4068794E-02  0.1856321E-03  0.4142670E+03  0.7772107E-01
  0.4523810E+00  0.2873607E+05  0.6569143E+01  0.1096223E-02  0.1855921E-03  0.4192116E+03  0.1253763E+00
  0.4833333E+00  0.2891474E+05  0.1025772E+02  0.6085100E-02  0.5013384E-03  0.4322289E+03  0.1985113E+00
  0.5142857E+00  0.2900569E+05  0.1573777E+02  0.2121396E-02  0.3477298E-03  0.4302652E+03  0.3061458E+00
  0.5452381E+00  0.2906710E+05  0.2356707E+02  0.1280339E-02 -0.6426871E-04  0.4326572E+03  0.4625602E+00
  0.5761905E+00  0.2926223E+05  0.3451659E+02 -0.1052667E-02  0.2121702E-03  0.4425124E+03  0.6857948E+00
  0.6071429E+00  0.2947656E+05  0.4963837E+02  0.3769818E-04 -0.2122521E-03  0.4516763E+03  0.9976512E+00
  0.6380953E+00  0.2963726E+05  0.6977762E+02  0.2642389E-02  0.8648634E-04  0.4591002E+03  0.1419300E+01
  0.6690477E+00  0.2974888E+05  0.9635979E+02  0.4606959E-02  0.1192525E-02  0.4592303E+03  0.1976334E+01
  0.7000000E+00  0.2993400E+05  0.1311727E+03  0.6844657E-02  0.1279473E-02  0.4652138E+03  0.2719559E+01
  0.7309524E+00  0.3018604E+05  0.1759322E+03  0.9654787E-03  0.5150437E-03  0.4780452E+03  0.3701751E+01
  0.7619048E+00  0.3047414E+05  0.2329763E+03  0.2383232E-02  0.1791775E-02  0.4921073E+03  0.4976097E+01
  0.7928572E+00  0.3073037E+05  0.3047193E+03  0.6591521E-03  0.1131773E-02  0.5005450E+03  0.6588617E+01
  0.8238096E+00  0.3092097E+05  0.3938223E+03  0.7427413E-02  0.2784848E-02  0.5039109E+03  0.8606687E+01
  0.8547620E+00  0.3114687E+05  0.5037145E+03  0.6587206E-02  0.2189517E-02  0.5142604E+03  0.1116736E+02
  0.8857143E+00  0.3144918E+05  0.6383273E+03  0.2360190E-02  0.7323027E-03  0.5268780E+03  0.1435427E+02
  0.9166667E+00  0.3178931E+05  0.8017109E+03 -0.2605091E-02 -0.6693602E-03  0.5395748E+03  0.1828285E+02
  0.9476191E+00  0.3213414E+05  0.9982670E+03  0.1175463E-02 -0.1997948E-03  0.5553594E+03  0.2312999E+02
  0.9785714E+00  0.3248899E+05  0.1233054E+04  0.8186285E-03  0.3383160E-03  0.5735289E+03  0.2906771E+02
  0.1009524E+01  0.3281896E+05  0.1510959E+04 -0.3967645E-02 -0.2695799E-02  0.5855585E+03  0.3614191E+02
  0.1040476E+01  0.3311443E+05  0.1837291E+04  0.5668099E-02  0.1862526E-02  0.5940404E+03  0.4452813E+02
  0.1071429E+01  0.3342700E+05  0.2218238E+04  0.7191976E-03  0.4056454E-02  0.6053420E+03  0.5452088E+02
  0.1102381E+01  0.3376456E+05  0.2659831E+04  0.1162700E-02  0.9407997E-03  0.6227775E+03  0.6645598E+02
  0.1133333E+01  0.3414298E+05  0.3168981E+04  0.4140068E-02  0.3620625E-02  0.6432668E+03  0.8058154E+02
  0.1164286E+01  0.3452869E+05  0.3751718E+04 -0.1113985E-02 -0.1533508E-02  0.6622227E+03  0.9703061E+02
  0.1195238E+01  0.3490091E+05  0.4414177E+04  0.2393685E-02 -0.3051758E-03  0.6814391E+03  0.1160995E+03
  0.1226190E+01  0.3525113E+05  0.5162603E+04  0.7093115E-03  0.2218246E-02  0.6996991E+03  0.1380708E+03
  0.1257143E+01  0.3551763E+05  0.6002317E+04 -0.4169290E-02 -0.3859520E-02  0.7142554E+03  0.1632321E+03
  0.1288095E+01  0.3579497E+05  0.6935664E+04  0.2582430E-02  0.1163483E-02  0.7301399E+03  0.1919397E+03
  0.1319048E+01  0.3600397E+05  0.7968850E+04 -0.1046907E-02  0.1258850E-03  0.7452789E+03  0.2244623E+03
  0.1350000E+01  0.3619155E+05  0.9101480E+04 -0.1797146E-02 -0.3377914E-02  0.7586068E+03  0.2606621E+03
  0.1380952E+01  0.3635142E+05  0.1033434E+05  0.1955756E-02  0.3885269E-02  0.7728901E+03  0.3008535E+03
  0.1411905E+01  0.3630425E+05  0.1160348E+05  0.4268858E-03  0.2372742E-02  0.7704424E+03  0.3419266E+03
  0.1442857E+01  0.3636481E+05  0.1302483E+05  0.3516320E-02  0.3629684E-02  0.7831359E+03  0.3907739E+03
  0.1473810E+01  0.3635911E+05  0.1453816E+05  0.8489704E-03 -0.1853943E-02  0.7947808E+03  0.4443486E+03
  0.1504762E+01  0.3629125E+05  0.1613853E+05  0.1115437E-03 -0.2973557E-02  0.8053954E+03  0.5027865E+03
  0.1535714E+01  0.3615375E+05  0.1781433E+05 -0.4928234E-02 -0.2902985E-02  0.8144282E+03  0.5653967E+03
  0.1566667E+01  0.3595063E+05  0.1955162E+05  0.1996629E-02  0.1388550E-02  0.8191937E+03  0.6316960E+03
  0.1597619E+01  0.3566523E+05  0.2133581E+05  0.2731573E-02  0.3280640E-02  0.8199049E+03  0.7010052E+03
  0.1628572E+01  0.3531328E+05  0.2315559E+05  0.6090130E-03  0.1754761E-03  0.8183990E+03  0.7738380E+03
  0.1659524E+01  0.3488602E+05  0.2499703E+05  0.1655042E-03 -0.1617432E-02  0.8150659E+03  0.8507288E+03
  0.1690476E+01  0.3438247E+05  0.2684433E+05  0.2969661E-02  0.2449036E-02  0.8099744E+03  0.9310400E+03
  0.1721429E+01  0.3381951E+05  0.2867960E+05  0.1152324E-03  0.1369476E-02  0.8034460E+03  0.1013645E+04
  0.1752381E+01  0.3319977E+05  0.3048417E+05  0.3099856E-02  0.2998352E-02  0.7949133E+03  0.1098290E+04
  0.1783333E+01  0.3252717E+05  0.3224253E+05  0.2096301E-02 -0.3372192E-02  0.7822719E+03  0.1183089E+04
  0.1814286E+01  0.3180832E+05  0.3394170E+05  0.6644182E-03  0.9868622E-02  0.7668012E+03  0.1267993E+04
  0.1845238E+01  0.3103819E+05  0.3556985E+05 -0.1050198E-02  0.8926392E-03  0.7476732E+03  0.1352766E+04
  0.1876190E+01  0.3023703E+05  0.3711625E+05 -0.2277200E-03  0.3814697E-03  0.7269360E+03  0.1437119E+04
  0.1907143E+01  0.2941100E+05  0.3857108E+05  0.8000864E-03  0.1013947E-01  0.7050311E+03  0.1520941E+04
  0.1938095E+01  0.2855925E+05  0.3992579E+05  0.1968271E-03  0.1167297E-02  0.6824384E+03  0.1604146E+04
  0.1969048E+01  0.2770003E+05  0.4117616E+05  0.1852089E-02  0.1777649E-02  0.6578599E+03  0.1685390E+04
  0.2000000E+01  0.2683617E+05  0.4231708E+05 -0.1033783E-02  0.2670288E-03  0.6313437E+03  0.1764910E+04
Zone t="Motion of body    1 in DoF   2",I=    64,F=POINT
  0.5000000E-01 -0.1811981E-02  0.6854534E-05  0.4769389E+05  0.9872621E+02 -0.1859665E-02 -0.4231930E-05
  0.8095238E-01 -0.6025819E-02 -0.6899238E-05  0.4739054E+05  0.1638402E+03 -0.1284094E-02 -0.1072884E-04
  0.1119048E+00 -0.3187301E-02 -0.1379848E-04  0.4718677E+05  0.2349304E+03 -0.1159019E-02 -0.1132488E-04
  0.1428571E+00 -0.4666328E-02 -0.3817677E-04  0.4708651E+05  0.3147811E+03 -0.1214981E-02 -0.6675720E-05
  0.1738095E+00  0.8559554E-03 -0.1293421E-04  0.4708326E+05  0.4069831E+03 -0.9327718E-03 -0.2038479E-04
  0.2047619E+00 -0.6334172E-02  0.9644032E-04  0.4715757E+05  0.5159250E+03 -0.1937511E-02 -0.2539158E-04
  0.2357143E+00 -0.9289365E-02 -0.8106232E-05  0.4730140E+05  0.6478930E+03 -0.1367511E-02 -0.2801418E-04
  0.2666667E+00 -0.1017809E-01  0.1120567E-04  0.4748631E+05  0.8084930E+03 -0.1659393E-02 -0.3290176E-04
  0.2976190E+00 -0.3108215E-02  0.5924702E-04  0.4771794E+05  0.1009348E+04 -0.1884155E-02 -0.4100800E-04
  0.3285715E+00  0.2176865E-02 -0.1413822E-03  0.4798152E+05  0.1257694E+04 -0.1265484E-02 -0.5459785E-04
  0.3595238E+00 -0.2376733E-02 -0.2071857E-03  0.4823962E+05  0.1567817E+04 -0.2270629E-02 -0.6151199E-04
  0.3904762E+00 -0.9183185E-03  0.1997948E-03  0.4849595E+05  0.1951903E+04 -0.1543557E-02 -0.1025200E-03
  0.4214286E+00  0.9232860E-03  0.1194477E-03  0.4867324E+05  0.2407483E+04 -0.1384929E-02 -0.1192093E-03
  0.4523810E+00 -0.1118991E-01  0.8821487E-05  0.4880382E+05  0.2958695E+04 -0.1703363E-02 -0.1115799E-03
  0.4833333E+00 -0.8650155E-02  0.1840591E-03  0.4881474E+05  0.3564591E+04 -0.1460108E-02 -0.1354218E-03
  0.5142857E+00 -0.2521939E-02 -0.3337860E-04  0.4872596E+05  0.4252953E+04 -0.2158483E-02 -0.1034737E-03
  0.5452381E+00 -0.2322801E-02  0.2574921E-04  0.4855151E+05  0.4991178E+04 -0.1609169E-02 -0.4863739E-04
  0.5761905E+00  0.6421932E-03  0.3523827E-03  0.4829775E+05  0.5767669E+04 -0.1363833E-02 -0.2775192E-03
  0.6071429E+00  0.3826365E-02 -0.1029015E-02  0.4794107E+05  0.6600014E+04 -0.1910041E-02 -0.3290176E-03
  0.6380953E+00  0.7042387E-02  0.6132126E-03  0.4755634E+05  0.7445005E+04 -0.1972825E-02 -0.4196167E-03
  0.6690477E+00 -0.1368404E-03  0.1678467E-03  0.4711464E+05  0.8320897E+04 -0.1915765E-02 -0.3042221E-03
  0.7000000E+00  0.2784729E-02 -0.4720688E-03  0.4659999E+05  0.9230912E+04 -0.2234322E-02 -0.4367828E-03
  0.7309524E+00 -0.5010052E-03  0.1200676E-02  0.4605927E+05  0.1015128E+05 -0.1722205E-02 -0.5264282E-03
  0.7619048E+00 -0.1396894E-02 -0.1411438E-03  0.4547977E+05  0.1108597E+05 -0.2092838E-02 -0.4863739E-03
  0.7928572E+00  0.1294248E-02 -0.1144409E-04  0.4485001E+05  0.1203221E+05 -0.1587739E-02 -0.3833771E-03
  0.8238096E+00  0.8751753E-03  0.6513596E-03  0.4418013E+05  0.1298327E+05 -0.1027984E-02 -0.6809235E-03
  0.8547620E+00 -0.9015011E-03 -0.1697540E-02  0.4349755E+05  0.1393098E+05 -0.1347789E-02 -0.6637573E-03
  0.8857143E+00 -0.1985488E-02 -0.1750946E-02  0.4279245E+05  0.1487102E+05 -0.9905908E-03 -0.9765625E-03
  0.9166667E+00 -0.1548073E-02  0.1155853E-02  0.4206223E+05  0.1579871E+05 -0.1306707E-02 -0.5416870E-03
  0.9476191E+00 -0.1513610E-02 -0.2601624E-02  0.4129869E+05  0.1671054E+05 -0.1787349E-02 -0.7305145E-03
  0.9785714E+00 -0.4237377E-02 -0.1817703E-02  0.4052739E+05  0.1759885E+05 -0.1543699E-02 -0.8716583E-03
  0.1009524E+01 -0.7073745E-02 -0.4560471E-02  0.3975105E+05  0.1845901E+05 -0.1715534E-02 -0.6694794E-03
  0.1040476E+01  0.3285004E-02 -0.3414154E-03  0.3896645E+05  0.1928834E+05 -0.1048562E-02 -0.9307861E-03
  0.1071429E+01 -0.3453573E-03 -0.3566742E-03  0.3817721E+05  0.2008371E+05 -0.1117961E-02 -0.1121521E-02
  0.1102381E+01 -0.2830621E-02 -0.2300262E-02  0.3738923E+05  0.2084273E+05 -0.9550749E-03 -0.1232147E-02
  0.1133333E+01 -0.5183500E-03 -0.1632690E-02  0.3660875E+05  0.2156130E+05 -0.7943546E-03 -0.8506775E-03
  0.1164286E+01 -0.5904121E-02 -0.1859665E-02  0.3584021E+05  0.2223571E+05 -0.1140197E-02 -0.1075745E-02
  0.1195238E+01 -0.2304320E-02  0.1977921E-02  0.3507638E+05  0.2286595E+05 -0.1640472E-02 -0.1583099E-02
  0.1226190E+01 -0.1941274E-02 -0.1991272E-02  0.3432380E+05  0.2344887E+05 -0.1325293E-02 -0.1071930E-02
  0.1257143E+01 -0.5346645E-02 -0.2590179E-02  0.3358268E+05  0.2400510E+05 -0.1341213E-02 -0.1548767E-02
  0.1288095E+01 -0.4720635E-02 -0.8811951E-03  0.3285479E+05  0.2447588E+05 -0.1273446E-02 -0.7781982E-03
  0.1319048E+01 -0.3643931E-03 -0.2193451E-02  0.3215288E+05  0.2491347E+05 -0.1336108E-02 -0.1243591E-02
  0.1350000E+01 -0.2978289E-02 -0.6502151E-02  0.3147407E+05  0.2530034E+05 -0.8251049E-03 -0.1281738E-02
  0.1380952E+01  0.6021960E-03  0.7534027E-03  0.3081818E+05  0.2563569E+05 -0.9336800E-03 -0.1327515E-02
  0.1411905E+01 -0.4690341E-02 -0.5588531E-03  0.3018309E+05  0.2595199E+05 -0.1594067E-02 -0.1667023E-02
  0.1442857E+01 -0.1120992E-02 -0.1213074E-02  0.2956374E+05  0.2620050E+05 -0.9993751E-03 -0.1693726E-02
  0.1473810E+01 -0.3509768E-02  0.2172470E-02  0.2896975E+05  0.2640141E+05 -0.1118156E-02 -0.1384735E-02
  0.1504762E+01 -0.3756994E-02  0.3252029E-02  0.2840274E+05  0.2655604E+05 -0.1607243E-02 -0.1308441E-02
  0.1535714E+01 -0.7894116E-02 -0.3162384E-02  0.2786260E+05  0.2666164E+05 -0.1028371E-02 -0.1792908E-02
  0.1566667E+01 -0.2434913E-03 -0.3952026E-02  0.2734644E+05  0.2672597E+05 -0.5843791E-03 -0.1037598E-02
  0.1597619E+01  0.1700070E-02 -0.6141663E-03  0.2685547E+05  0.2674790E+05 -0.3677118E-03 -0.1678467E-02
  0.1628572E+01 -0.4867420E-02 -0.4421234E-02  0.2638796E+05  0.2672958E+05 -0.1288297E-02 -0.1575470E-02
  0.1659524E+01 -0.3002063E-02 -0.9618759E-02  0.2594021E+05  0.2667522E+05 -0.6712116E-03 -0.1716614E-02
  0.1690476E+01 -0.4287505E-02 -0.5529404E-02  0.2551715E+05  0.2658232E+05 -0.6408691E-03 -0.1716614E-02
  0.1721429E+01 -0.3168890E-02 -0.8356094E-02  0.2512293E+05  0.2645533E+05 -0.5584337E-03 -0.2197266E-02
  0.1752381E+01 -0.1549928E-02 -0.5586624E-02  0.2475578E+05  0.2629319E+05 -0.8054402E-03 -0.1628876E-02
  0.1783333E+01 -0.4864274E-02 -0.5544662E-02  0.2441287E+05  0.2609718E+05 -0.5176580E-03 -0.2117157E-02
  0.1814286E+01 -0.1677866E-02 -0.3086090E-02  0.2408932E+05  0.2587258E+05 -0.6391871E-03 -0.1686096E-02
  0.1845238E+01 -0.3522713E-02 -0.5647659E-02  0.2378917E+05  0.2562007E+05 -0.5416378E-03 -0.2033234E-02
  0.1876190E+01 -0.1394785E-02 -0.2130508E-02  0.2351008E+05  0.2534202E+05 -0.5245693E-03 -0.1914978E-02
  0.1907143E+01 -0.6720725E-03 -0.2693176E-02  0.2324874E+05  0.2504085E+05 -0.5200561E-03 -0.1914978E-02
  0.1938095E+01 -0.1484077E-02 -0.7068634E-02  0.2300551E+05  0.2471716E+05 -0.3542888E-03 -0.2702713E-02
  0.1969048E+01 -0.4386118E-02 -0.8497238E-02  0.2278646E+05  0.2437326E+05 -0.4649595E-03 -0.1638412E-02
  0.2000000E+01 -0.1258850E-03 -0.3082275E-02  0.2258879E+05  0.2401440E+05 -0.6637573E-03 -0.1508713E-02
Zone t="Motion of body    1 in DoF   3",I=    64,F=POINT
  0.5000000E-01  0.4068217E+03  0.2063898E-04 -0.1014471E-02 -0.2247034E-05  0.5875621E+03  0.6456937E-06
  0.8095238E-01  0.4047181E+03  0.9000513E-04 -0.1698627E-02 -0.7295696E-05  0.5870237E+03  0.1373379E-05
  0.1119048E+00  0.3982762E+03  0.2522084E-03 -0.1209087E-02 -0.6030631E-05  0.5873776E+03  0.4641805E-05
  0.1428571E+00  0.4013746E+03  0.5726010E-03 -0.1225829E-02 -0.8535652E-05  0.5836649E+03  0.1180455E-04
  0.1738095E+00  0.4013781E+03  0.1144516E-02 -0.2142632E-02 -0.2001587E-04  0.5823528E+03  0.2089457E-04
  0.2047619E+00  0.4070341E+03  0.2116489E-02 -0.2204152E-02 -0.2558619E-04  0.5875427E+03  0.3700902E-04
  0.2357143E+00  0.4045085E+03  0.3751850E-02 -0.3719185E-02 -0.5334823E-04  0.5843545E+03  0.7160407E-04
  0.2666667E+00  0.4085779E+03  0.6453087E-02 -0.2352297E-02 -0.4311686E-04  0.5837311E+03  0.1225937E-03
  0.2976190E+00  0.4126852E+03  0.1089406E-01 -0.3631325E-02 -0.8478310E-04  0.5854683E+03  0.2014931E-03
  0.3285715E+00  0.4102415E+03  0.1816094E-01 -0.6479801E-03 -0.1450301E-04  0.5838607E+03  0.3401903E-03
  0.3595238E+00  0.4149177E+03  0.3010702E-01 -0.7891497E-03 -0.2522154E-04  0.5828535E+03  0.5549380E-03
  0.3904762E+00  0.4194159E+03  0.4955966E-01 -0.2913707E-02 -0.1373746E-03  0.5848494E+03  0.9164212E-03
  0.4214286E+00  0.4230624E+03  0.8050985E-01 -0.2155465E-02 -0.1257694E-03  0.5838979E+03  0.1512681E-02
  0.4523810E+00  0.4281373E+03  0.1298123E+00 -0.1690714E-02 -0.8064799E-04  0.5857037E+03  0.2463173E-02
  0.4833333E+00  0.4419402E+03  0.2044981E+00 -0.2239490E-02 -0.1433934E-03  0.5853715E+03  0.3948536E-02
  0.5142857E+00  0.4395961E+03  0.3167112E+00 -0.5887615E-03 -0.5128165E-04  0.5864970E+03  0.6136959E-02
  0.5452381E+00  0.4419508E+03  0.4787749E+00 -0.1147408E-02 -0.8846668E-04  0.5861627E+03  0.9383275E-02
  0.5761905E+00  0.4518461E+03  0.7081923E+00 -0.3043797E-02 -0.3975485E-03  0.5849647E+03  0.1407850E-01
  0.6071429E+00  0.4615685E+03  0.1028854E+01  0.7853788E-05  0.1968164E-04  0.5880656E+03  0.2066656E-01
  0.6380953E+00  0.4691473E+03  0.1462405E+01 -0.8661000E-03 -0.1268405E-03  0.5869848E+03  0.2972895E-01
  0.6690477E+00  0.4688908E+03  0.2043891E+01 -0.8281694E-03 -0.1365491E-03  0.5860483E+03  0.4195957E-01
  0.7000000E+00  0.4751647E+03  0.2815068E+01 -0.4138946E-02 -0.8823415E-03  0.5883099E+03  0.5844111E-01
  0.7309524E+00  0.4880972E+03  0.3819944E+01 -0.3653163E-03  0.6368384E-04  0.5879191E+03  0.8040322E-01
  0.7619048E+00  0.5023946E+03  0.5120833E+01 -0.2035260E-02 -0.5348343E-03  0.5877310E+03  0.1093812E+00
  0.7928572E+00  0.5114165E+03  0.6788631E+01  0.4691046E-04  0.1974218E-04  0.5901747E+03  0.1467665E+00
  0.8238096E+00  0.5146088E+03  0.8897531E+01  0.5903961E-03  0.3106184E-03  0.5902899E+03  0.1945869E+00
  0.8547620E+00  0.5250573E+03  0.1153459E+02  0.9215840E-03  0.5079880E-03  0.5890009E+03  0.2556108E+00
  0.8857143E+00  0.5379106E+03  0.1481720E+02 -0.1913348E-02 -0.8555427E-03  0.5888353E+03  0.3329631E+00
  0.9166667E+00  0.5509459E+03  0.1887632E+02 -0.1665636E-02 -0.7982254E-03  0.5913767E+03  0.4302047E+00
  0.9476191E+00  0.5670133E+03  0.2383749E+02 -0.4579074E-03  0.3829226E-04  0.5931098E+03  0.5530131E+00
  0.9785714E+00  0.5855524E+03  0.2987540E+02 -0.2643001E-02 -0.1133807E-02  0.5928556E+03  0.7042556E+00
  0.1009524E+01  0.5973137E+03  0.3718336E+02 -0.3117436E-04  0.7073581E-04  0.5919727E+03  0.8892853E+00
  0.1040476E+01  0.6066572E+03  0.4600053E+02 -0.1566426E-02 -0.9891689E-03  0.5928787E+03  0.1115457E+01
  0.1071429E+01  0.6183552E+03  0.5642414E+02  0.1673381E-03  0.4376769E-03  0.5947672E+03  0.1389816E+01
  0.1102381E+01  0.6361866E+03  0.6864757E+02 -0.3232029E-02 -0.2541021E-02  0.5963384E+03  0.1712307E+01
  0.1133333E+01  0.6566784E+03  0.8302742E+02 -0.2684313E-03  0.2003610E-03  0.5955358E+03  0.2105335E+01
  0.1164286E+01  0.6750858E+03  0.9984462E+02 -0.1245042E-02 -0.1210555E-02  0.5952812E+03  0.2573883E+01
  0.1195238E+01  0.6952270E+03  0.1194484E+03 -0.1294185E-02 -0.1088202E-02  0.5972423E+03  0.3143136E+01
  0.1226190E+01  0.7143121E+03  0.1420623E+03 -0.8228635E-03  0.7280707E-04  0.6003875E+03  0.3805331E+01
  0.1257143E+01  0.7292659E+03  0.1681421E+03 -0.5962632E-03 -0.4050732E-03  0.6012947E+03  0.4581422E+01
  0.1288095E+01  0.7448425E+03  0.1976960E+03 -0.1629567E-02 -0.1006484E-02  0.6015861E+03  0.5490892E+01
  0.1319048E+01  0.7601252E+03  0.2312257E+03 -0.1130775E-02 -0.7368922E-03  0.6007368E+03  0.6502443E+01
  0.1350000E+01  0.7733997E+03  0.2687957E+03 -0.4867271E-03 -0.1515150E-03  0.6003718E+03  0.7695826E+01
  0.1380952E+01  0.7892646E+03  0.3106499E+03 -0.1201630E-02 -0.1217306E-02  0.6022637E+03  0.8999504E+01
  0.1411905E+01  0.7542926E+03  0.3422390E+03  0.1985830E-03  0.1953721E-02  0.6009975E+03  0.1010555E+02
  0.1442857E+01  0.7666074E+03  0.3912191E+03 -0.1090588E-02 -0.1021504E-02  0.6021674E+03  0.1176430E+02
  0.1473810E+01  0.7778243E+03  0.4446386E+03 -0.1219101E-02 -0.2041399E-02  0.6036318E+03  0.1363289E+02
  0.1504762E+01  0.7883366E+03  0.5029959E+03 -0.1086283E-02 -0.1963973E-03  0.6030923E+03  0.1569133E+02
  0.1535714E+01  0.7971725E+03  0.5651046E+03 -0.1706500E-02 -0.1674652E-02  0.6029441E+03  0.1785511E+02
  0.1566667E+01  0.8021888E+03  0.6319874E+03 -0.1934538E-02 -0.2888680E-02  0.6033928E+03  0.2025528E+02
  0.1597619E+01  0.8042312E+03  0.7030978E+03 -0.6984136E-03 -0.8225441E-04  0.6049932E+03  0.2293996E+02
  0.1628572E+01  0.8028577E+03  0.7772679E+03 -0.4216244E-03  0.3001690E-03  0.6075571E+03  0.2611826E+02
  0.1659524E+01  0.7990118E+03  0.8550529E+03 -0.1258522E-02 -0.3193855E-02  0.6084050E+03  0.2931444E+02
  0.1690476E+01  0.7930501E+03  0.9352023E+03 -0.1399080E-02 -0.1744747E-02  0.6093213E+03  0.3270455E+02
  0.1721429E+01  0.7860591E+03  0.1017205E+04 -0.4376613E-03  0.4147291E-03  0.6089233E+03  0.3615551E+02
  0.1752381E+01  0.7767983E+03  0.1100908E+04 -0.3548291E-03 -0.1289725E-02  0.6072798E+03  0.3938818E+02
  0.1783333E+01  0.7633961E+03  0.1185589E+04 -0.5187275E-03 -0.4040003E-03  0.6060610E+03  0.4281057E+02
  0.1814286E+01  0.7481844E+03  0.1271734E+04 -0.3395682E-03  0.1636744E-03  0.6057761E+03  0.4684611E+02
  0.1845238E+01  0.7299564E+03  0.1359594E+04 -0.9147890E-03 -0.1962185E-03  0.6072293E+03  0.5121963E+02
  0.1876190E+01  0.7089634E+03  0.1445214E+04 -0.4473072E-03 -0.1637936E-03  0.6098371E+03  0.5619234E+02
  0.1907143E+01  0.6868016E+03  0.1530004E+04 -0.6550707E-03  0.4458427E-04  0.6108776E+03  0.6114965E+02
  0.1938095E+01  0.6638941E+03  0.1611847E+04 -0.1018580E-02 -0.9794235E-03  0.6115227E+03  0.6571581E+02
  0.1969048E+01  0.6391262E+03  0.1691970E+04 -0.5114555E-03 -0.1140356E-02  0.6114209E+03  0.7020892E+02
  0.2000000E+01  0.6121965E+03  0.1771180E+04 -0.1078606E-02 -0.1016378E-02  0.6088483E+03  0.7391987E+02
