VARIABLES="w (rad/s)"
"abs(F   1   1)" "angle(F   1   1)"
"abs(F   1   2)" "angle(F   1   2)"
"abs(F   1   3)" "angle(F   1   3)"
Zone t="Diffraction force - beta =   0.000 deg",I=    64,F=POINT
  0.5000000E-01  0.1820477E+03 -0.1570796E+01  0.2935403E+02 -0.3109264E+01  0.9447853E+02  0.1570796E+01
  0.8095238E-01  0.2976573E+03 -0.1570796E+01  0.7656986E+02 -0.3108256E+01  0.1548748E+03  0.1570797E+01
  0.1119048E+00  0.4164335E+03 -0.1570795E+01  0.1460480E+03 -0.3106893E+01  0.2171732E+03  0.1570797E+01
  0.1428571E+00  0.5390956E+03 -0.1570794E+01  0.2380253E+03 -0.3105096E+01  0.2811810E+03  0.1570798E+01
  0.1738095E+00  0.6675602E+03 -0.1570793E+01  0.3526439E+03 -0.3102734E+01  0.3473194E+03  0.1570799E+01
  0.2047619E+00  0.8026823E+03 -0.1570791E+01  0.4909066E+03 -0.3099771E+01  0.4167781E+03  0.1570801E+01
  0.2357143E+00  0.9450300E+03 -0.1570788E+01  0.6531043E+03 -0.3095975E+01  0.4904238E+03  0.1570803E+01
  0.2666667E+00  0.1100284E+04 -0.1570783E+01  0.8397384E+03 -0.3091277E+01  0.5692294E+03  0.1570807E+01
  0.2976190E+00  0.1267317E+04 -0.1570777E+01  0.1052630E+04 -0.3085385E+01  0.6540444E+03  0.1570811E+01
  0.3285715E+00  0.1449203E+04 -0.1570767E+01  0.1292213E+04 -0.3078239E+01  0.7468801E+03  0.1570819E+01
  0.3595238E+00  0.1651055E+04 -0.1570752E+01  0.1557190E+04 -0.3069420E+01  0.8481406E+03  0.1570831E+01
  0.3904762E+00  0.1875332E+04 -0.1570730E+01  0.1851043E+04 -0.3058907E+01  0.9592098E+03  0.1570847E+01
  0.4214286E+00  0.2119746E+04 -0.1570697E+01  0.2172085E+04 -0.3047048E+01  0.1082037E+04  0.1570872E+01
  0.4523810E+00  0.2389950E+04 -0.1570648E+01  0.2518854E+04 -0.3033129E+01  0.1215892E+04  0.1570910E+01
  0.4833333E+00  0.2688499E+04 -0.1570580E+01  0.2888011E+04 -0.3018666E+01  0.1361751E+04  0.1570961E+01
  0.5142857E+00  0.3013046E+04 -0.1570486E+01  0.3284543E+04 -0.3003031E+01  0.1517951E+04  0.1571033E+01
  0.5452381E+00  0.3355917E+04 -0.1570358E+01  0.3705692E+04 -0.2987179E+01  0.1685756E+04  0.1571130E+01
  0.5761905E+00  0.3723098E+04 -0.1570190E+01  0.4146051E+04 -0.2971143E+01  0.1860420E+04  0.1571257E+01
  0.6071429E+00  0.4115597E+04 -0.1569972E+01  0.4606069E+04 -0.2954434E+01  0.2041550E+04  0.1571422E+01
  0.6380953E+00  0.4522592E+04 -0.1569697E+01  0.5090712E+04 -0.2938314E+01  0.2234031E+04  0.1571629E+01
  0.6690477E+00  0.4940207E+04 -0.1569350E+01  0.5598335E+04 -0.2922151E+01  0.2433692E+04  0.1571888E+01
  0.7000000E+00  0.5375862E+04 -0.1568918E+01  0.6124632E+04 -0.2905635E+01  0.2632474E+04  0.1572210E+01
  0.7309524E+00  0.5834987E+04 -0.1568393E+01  0.6668937E+04 -0.2889208E+01  0.2838094E+04  0.1572602E+01
  0.7619048E+00  0.6307767E+04 -0.1567756E+01  0.7228735E+04 -0.2872603E+01  0.3047722E+04  0.1573076E+01
  0.7928572E+00  0.6794634E+04 -0.1566989E+01  0.7807164E+04 -0.2855997E+01  0.3260975E+04  0.1573643E+01
  0.8238096E+00  0.7290746E+04 -0.1566073E+01  0.8405001E+04 -0.2839522E+01  0.3480337E+04  0.1574316E+01
  0.8547620E+00  0.7790082E+04 -0.1564986E+01  0.9018467E+04 -0.2823097E+01  0.3699392E+04  0.1575108E+01
  0.8857143E+00  0.8309237E+04 -0.1563714E+01  0.9644564E+04 -0.2806663E+01  0.3919266E+04  0.1576033E+01
  0.9166667E+00  0.8845571E+04 -0.1562237E+01  0.1028086E+05 -0.2790193E+01  0.4135313E+04  0.1577108E+01
  0.9476191E+00  0.9399682E+04 -0.1560533E+01  0.1092505E+05 -0.2773693E+01  0.4354557E+04  0.1578343E+01
  0.9785714E+00  0.9957039E+04 -0.1558569E+01  0.1157843E+05 -0.2757298E+01  0.4577262E+04  0.1579754E+01
  0.1009524E+01  0.1051780E+05 -0.1556319E+01  0.1224270E+05 -0.2741158E+01  0.4799451E+04  0.1581355E+01
  0.1040476E+01  0.1108145E+05 -0.1553757E+01  0.1291682E+05 -0.2725295E+01  0.5021936E+04  0.1583161E+01
  0.1071429E+01  0.1165226E+05 -0.1550864E+01  0.1359908E+05 -0.2709692E+01  0.5236315E+04  0.1585193E+01
  0.1102381E+01  0.1223349E+05 -0.1547621E+01  0.1428372E+05 -0.2694167E+01  0.5449465E+04  0.1587457E+01
  0.1133333E+01  0.1281951E+05 -0.1543996E+01  0.1496838E+05 -0.2678687E+01  0.5655811E+04  0.1589975E+01
  0.1164286E+01  0.1341340E+05 -0.1539970E+01  0.1565331E+05 -0.2663342E+01  0.5858770E+04  0.1592752E+01
  0.1195238E+01  0.1401463E+05 -0.1535522E+01  0.1633737E+05 -0.2648169E+01  0.6059368E+04  0.1595797E+01
  0.1226190E+01  0.1461399E+05 -0.1530615E+01  0.1702221E+05 -0.2633321E+01  0.6251244E+04  0.1599127E+01
  0.1257143E+01  0.1519996E+05 -0.1525207E+01  0.1771032E+05 -0.2618366E+01  0.6438720E+04  0.1602740E+01
  0.1288095E+01  0.1579652E+05 -0.1519321E+01  0.1839121E+05 -0.2604697E+01  0.6628858E+04  0.1606621E+01
  0.1319048E+01  0.1636227E+05 -0.1512856E+01  0.1907124E+05 -0.2590786E+01  0.6802199E+04  0.1610815E+01
  0.1350000E+01  0.1692735E+05 -0.1505870E+01  0.1974933E+05 -0.2577297E+01  0.6968358E+04  0.1615296E+01
  0.1380952E+01  0.1748577E+05 -0.1498348E+01  0.2042101E+05 -0.2564065E+01  0.7121289E+04  0.1620075E+01
  0.1411905E+01  0.1785674E+05 -0.1490824E+01  0.2094840E+05 -0.2550286E+01  0.7265750E+04  0.1624446E+01
  0.1442857E+01  0.1839205E+05 -0.1482279E+01  0.2159747E+05 -0.2537343E+01  0.7392217E+04  0.1629719E+01
  0.1473810E+01  0.1891077E+05 -0.1473171E+01  0.2223521E+05 -0.2524546E+01  0.7514221E+04  0.1635222E+01
  0.1504762E+01  0.1940419E+05 -0.1463473E+01  0.2286178E+05 -0.2511955E+01  0.7622675E+04  0.1640960E+01
  0.1535714E+01  0.1986754E+05 -0.1453177E+01  0.2347736E+05 -0.2499654E+01  0.7715076E+04  0.1646906E+01
  0.1566667E+01  0.2030933E+05 -0.1442332E+01  0.2408440E+05 -0.2487872E+01  0.7801592E+04  0.1652983E+01
  0.1597619E+01  0.2071318E+05 -0.1430892E+01  0.2468006E+05 -0.2476438E+01  0.7870909E+04  0.1659186E+01
  0.1628572E+01  0.2107658E+05 -0.1418862E+01  0.2526493E+05 -0.2465448E+01  0.7924341E+04  0.1665463E+01
  0.1659524E+01  0.2140167E+05 -0.1406314E+01  0.2583761E+05 -0.2454839E+01  0.7961902E+04  0.1671759E+01
  0.1690476E+01  0.2168748E+05 -0.1393296E+01  0.2639673E+05 -0.2444545E+01  0.7986544E+04  0.1678014E+01
  0.1721429E+01  0.2192335E+05 -0.1379768E+01  0.2694169E+05 -0.2434489E+01  0.7997469E+04  0.1684211E+01
  0.1752381E+01  0.2210401E+05 -0.1365786E+01  0.2746858E+05 -0.2424479E+01  0.7980605E+04  0.1690295E+01
  0.1783333E+01  0.2224334E+05 -0.1351480E+01  0.2798049E+05 -0.2414843E+01  0.7953124E+04  0.1696170E+01
  0.1814286E+01  0.2233516E+05 -0.1336868E+01  0.2847561E+05 -0.2405490E+01  0.7917288E+04  0.1701718E+01
  0.1845238E+01  0.2236652E+05 -0.1321934E+01  0.2895211E+05 -0.2396290E+01  0.7862019E+04  0.1706899E+01
  0.1876190E+01  0.2233915E+05 -0.1306745E+01  0.2941055E+05 -0.2387421E+01  0.7792144E+04  0.1711609E+01
  0.1907143E+01  0.2225440E+05 -0.1291424E+01  0.2985086E+05 -0.2378913E+01  0.7709736E+04  0.1715745E+01
  0.1938095E+01  0.2210945E+05 -0.1276043E+01  0.3027115E+05 -0.2370722E+01  0.7616331E+04  0.1719204E+01
  0.1969048E+01  0.2189769E+05 -0.1260543E+01  0.3067340E+05 -0.2362809E+01  0.7515319E+04  0.1721982E+01
  0.2000000E+01  0.2162122E+05 -0.1245094E+01  0.3105636E+05 -0.2355158E+01  0.7400861E+04  0.1723978E+01
