VARIABLES="w (rad/s)"
"abs(F   1   1)" "angle(F   1   1)"
"abs(F   1   2)" "angle(F   1   2)"
"abs(F   1   3)" "angle(F   1   3)"
Zone t="Diffraction force - beta =   0.000 deg",I=    64,F=POINT
  0.5000000E-01  0.1169484E+04 -0.1570852E+01  0.2197732E+06 -0.1544804E-04  0.3654961E+03  0.1570779E+01
  0.8095238E-01  0.1908666E+04 -0.1570813E+01  0.2194900E+06 -0.4158058E-04  0.5982695E+03  0.1570821E+01
  0.1119048E+00  0.2667326E+04 -0.1570789E+01  0.2190735E+06 -0.8263365E-04  0.8371594E+03  0.1570825E+01
  0.1428571E+00  0.3450369E+04 -0.1570790E+01  0.2185228E+06 -0.1418230E-03  0.1081468E+04  0.1570819E+01
  0.1738095E+00  0.4269011E+04 -0.1570786E+01  0.2178377E+06 -0.2240547E-03  0.1334464E+04  0.1570807E+01
  0.2047619E+00  0.5129014E+04 -0.1570793E+01  0.2170153E+06 -0.3363291E-03  0.1599197E+04  0.1570817E+01
  0.2357143E+00  0.6046760E+04 -0.1570786E+01  0.2160558E+06 -0.4891410E-03  0.1877894E+04  0.1570788E+01
  0.2666667E+00  0.7031914E+04 -0.1570783E+01  0.2149552E+06 -0.6953907E-03  0.2176800E+04  0.1570825E+01
  0.2976190E+00  0.8100822E+04 -0.1570772E+01  0.2137125E+06 -0.9765383E-03  0.2496925E+04  0.1570818E+01
  0.3285715E+00  0.9272315E+04 -0.1570761E+01  0.2123278E+06 -0.1355397E-02  0.2842751E+04  0.1570825E+01
  0.3595238E+00  0.1056300E+05 -0.1570740E+01  0.2107992E+06 -0.1867001E-02  0.3222753E+04  0.1570849E+01
  0.3904762E+00  0.1198693E+05 -0.1570718E+01  0.2091229E+06 -0.2552153E-02  0.3634978E+04  0.1570886E+01
  0.4214286E+00  0.1356359E+05 -0.1570684E+01  0.2073171E+06 -0.3437744E-02  0.4088455E+04  0.1570914E+01
  0.4523810E+00  0.1530672E+05 -0.1570628E+01  0.2053735E+06 -0.4593176E-02  0.4580601E+04  0.1570968E+01
  0.4833333E+00  0.1720842E+05 -0.1570548E+01  0.2033061E+06 -0.5994772E-02  0.5116211E+04  0.1571049E+01
  0.5142857E+00  0.1926988E+05 -0.1570441E+01  0.2011168E+06 -0.7722285E-02  0.5680965E+04  0.1571151E+01
  0.5452381E+00  0.2148352E+05 -0.1570294E+01  0.1988214E+06 -0.9759200E-02  0.6279719E+04  0.1571299E+01
  0.5761905E+00  0.2384484E+05 -0.1570104E+01  0.1964189E+06 -0.1211702E-01  0.6902583E+04  0.1571484E+01
  0.6071429E+00  0.2633235E+05 -0.1569858E+01  0.1939151E+06 -0.1486408E-01  0.7556862E+04  0.1571738E+01
  0.6380953E+00  0.2892509E+05 -0.1569546E+01  0.1913053E+06 -0.1794864E-01  0.8226683E+04  0.1572043E+01
  0.6690477E+00  0.3163480E+05 -0.1569156E+01  0.1886118E+06 -0.2144291E-01  0.8906938E+04  0.1572433E+01
  0.7000000E+00  0.3446414E+05 -0.1568673E+01  0.1858426E+06 -0.2539217E-01  0.9588028E+04  0.1572917E+01
  0.7309524E+00  0.3738649E+05 -0.1568084E+01  0.1829875E+06 -0.2977667E-01  0.1027744E+05  0.1573506E+01
  0.7619048E+00  0.4040346E+05 -0.1567372E+01  0.1800573E+06 -0.3464339E-01  0.1098377E+05  0.1574215E+01
  0.7928572E+00  0.4350148E+05 -0.1566518E+01  0.1770614E+06 -0.4002300E-01  0.1168209E+05  0.1575073E+01
  0.8238096E+00  0.4669095E+05 -0.1565504E+01  0.1740123E+06 -0.4593681E-01  0.1238162E+05  0.1576084E+01
  0.8547620E+00  0.4995745E+05 -0.1564310E+01  0.1709207E+06 -0.5240512E-01  0.1306110E+05  0.1577276E+01
  0.8857143E+00  0.5331460E+05 -0.1562917E+01  0.1677852E+06 -0.5944654E-01  0.1372639E+05  0.1578667E+01
  0.9166667E+00  0.5675002E+05 -0.1561301E+01  0.1646076E+06 -0.6707794E-01  0.1437849E+05  0.1580280E+01
  0.9476191E+00  0.6024898E+05 -0.1559442E+01  0.1614028E+06 -0.7531706E-01  0.1503800E+05  0.1582135E+01
  0.9785714E+00  0.6377801E+05 -0.1557315E+01  0.1581763E+06 -0.8418494E-01  0.1566800E+05  0.1584255E+01
  0.1009524E+01  0.6737901E+05 -0.1554901E+01  0.1549263E+06 -0.9369555E-01  0.1627490E+05  0.1586658E+01
  0.1040476E+01  0.7101452E+05 -0.1552180E+01  0.1516702E+06 -0.1038736E+00  0.1684840E+05  0.1589369E+01
  0.1071429E+01  0.7470539E+05 -0.1549133E+01  0.1484170E+06 -0.1147339E+00  0.1738280E+05  0.1592401E+01
  0.1102381E+01  0.7842368E+05 -0.1545741E+01  0.1451635E+06 -0.1262937E+00  0.1788876E+05  0.1595777E+01
  0.1133333E+01  0.8215755E+05 -0.1541986E+01  0.1419170E+06 -0.1385599E+00  0.1834634E+05  0.1599510E+01
  0.1164286E+01  0.8591505E+05 -0.1537857E+01  0.1386723E+06 -0.1515448E+00  0.1877941E+05  0.1603615E+01
  0.1195238E+01  0.8964574E+05 -0.1533339E+01  0.1354356E+06 -0.1652672E+00  0.1916748E+05  0.1608095E+01
  0.1226190E+01  0.9335658E+05 -0.1528430E+01  0.1322108E+06 -0.1797475E+00  0.1951001E+05  0.1612958E+01
  0.1257143E+01  0.9699776E+05 -0.1523122E+01  0.1290049E+06 -0.1951889E+00  0.1981047E+05  0.1618200E+01
  0.1288095E+01  0.1006469E+06 -0.1517444E+01  0.1258254E+06 -0.2110880E+00  0.2003493E+05  0.1623797E+01
  0.1319048E+01  0.1042103E+06 -0.1511392E+01  0.1226775E+06 -0.2280050E+00  0.2021178E+05  0.1629758E+01
  0.1350000E+01  0.1076994E+06 -0.1504994E+01  0.1195655E+06 -0.2457732E+00  0.2031051E+05  0.1636046E+01
  0.1380952E+01  0.1110882E+06 -0.1498268E+01  0.1164726E+06 -0.2644079E+00  0.2034340E+05  0.1642643E+01
  0.1411905E+01  0.1140579E+06 -0.1491773E+01  0.1135171E+06 -0.2828640E+00  0.2035743E+05  0.1648989E+01
  0.1442857E+01  0.1171972E+06 -0.1484558E+01  0.1104921E+06 -0.3032610E+00  0.2026993E+05  0.1655996E+01
  0.1473810E+01  0.1201631E+06 -0.1477135E+01  0.1075038E+06 -0.3246289E+00  0.2011628E+05  0.1663162E+01
  0.1504762E+01  0.1229406E+06 -0.1469572E+01  0.1045522E+06 -0.3470150E+00  0.1989236E+05  0.1670398E+01
  0.1535714E+01  0.1255416E+06 -0.1461942E+01  0.1016325E+06 -0.3704747E+00  0.1962107E+05  0.1677654E+01
  0.1566667E+01  0.1279120E+06 -0.1454336E+01  0.9875200E+05 -0.3950730E+00  0.1925866E+05  0.1684776E+01
  0.1597619E+01  0.1300649E+06 -0.1446850E+01  0.9590438E+05 -0.4209204E+00  0.1882663E+05  0.1691709E+01
  0.1628572E+01  0.1319708E+06 -0.1439580E+01  0.9311343E+05 -0.4480791E+00  0.1832435E+05  0.1698326E+01
  0.1659524E+01  0.1336413E+06 -0.1432627E+01  0.9037267E+05 -0.4766316E+00  0.1776687E+05  0.1704525E+01
  0.1690476E+01  0.1350530E+06 -0.1426070E+01  0.8769259E+05 -0.5066557E+00  0.1715559E+05  0.1710241E+01
  0.1721429E+01  0.1361796E+06 -0.1420028E+01  0.8508657E+05 -0.5382108E+00  0.1645764E+05  0.1715197E+01
  0.1752381E+01  0.1370660E+06 -0.1414595E+01  0.8252987E+05 -0.5714716E+00  0.1573490E+05  0.1719475E+01
  0.1783333E+01  0.1377021E+06 -0.1409897E+01  0.8003938E+05 -0.6065353E+00  0.1496738E+05  0.1722845E+01
  0.1814286E+01  0.1380524E+06 -0.1406008E+01  0.7762968E+05 -0.6434938E+00  0.1414612E+05  0.1725071E+01
  0.1845238E+01  0.1381681E+06 -0.1403035E+01  0.7529000E+05 -0.6825447E+00  0.1330854E+05  0.1726221E+01
  0.1876190E+01  0.1380318E+06 -0.1401083E+01  0.7305077E+05 -0.7238160E+00  0.1243303E+05  0.1725987E+01
  0.1907143E+01  0.1376770E+06 -0.1400238E+01  0.7091468E+05 -0.7673925E+00  0.1154589E+05  0.1724380E+01
  0.1938095E+01  0.1371019E+06 -0.1400520E+01  0.6890201E+05 -0.8133597E+00  0.1066035E+05  0.1721419E+01
  0.1969048E+01  0.1363071E+06 -0.1402059E+01  0.6703285E+05 -0.8617539E+00  0.9740417E+04  0.1716440E+01
  0.2000000E+01  0.1353287E+06 -0.1404884E+01  0.6531204E+05 -0.9126111E+00  0.8824089E+04  0.1709661E+01
