VARIABLES="w (rad/s)"
"abs(F   1   1)" "angle(F   1   1)"
"abs(F   1   2)" "angle(F   1   2)"
"abs(F   1   3)" "angle(F   1   3)"
Zone t="Diffraction force - beta =   0.000 deg",I=    64,F=POINT
  0.5000000E-01  0.7515324E+03 -0.1570795E+01  0.2057556E+03 -0.3092215E+01  0.1273352E+02 -0.1570795E+01
  0.8095238E-01  0.1228414E+04 -0.1570793E+01  0.5338434E+03 -0.3090487E+01  0.2067445E+02 -0.1570792E+01
  0.1119048E+00  0.1719520E+04 -0.1570789E+01  0.1014008E+04 -0.3088305E+01  0.2909908E+02 -0.1570787E+01
  0.1428571E+00  0.2226741E+04 -0.1570783E+01  0.1647582E+04 -0.3085556E+01  0.3740722E+02 -0.1570780E+01
  0.1738095E+00  0.2751488E+04 -0.1570775E+01  0.2437036E+04 -0.3082083E+01  0.4687015E+02 -0.1570771E+01
  0.2047619E+00  0.3306419E+04 -0.1570763E+01  0.3387528E+04 -0.3077759E+01  0.5610224E+02 -0.1570754E+01
  0.2357143E+00  0.3902379E+04 -0.1570745E+01  0.4500207E+04 -0.3072259E+01  0.6707022E+02 -0.1570732E+01
  0.2666667E+00  0.4531341E+04 -0.1570719E+01  0.5783599E+04 -0.3065603E+01  0.7812737E+02 -0.1570699E+01
  0.2976190E+00  0.5219256E+04 -0.1570680E+01  0.7239261E+04 -0.3057204E+01  0.9051720E+02 -0.1570650E+01
  0.3285715E+00  0.5984737E+04 -0.1570623E+01  0.8873953E+04 -0.3047151E+01  0.1051692E+03 -0.1570578E+01
  0.3595238E+00  0.6806914E+04 -0.1570537E+01  0.1068210E+05 -0.3034886E+01  0.1213383E+03 -0.1570471E+01
  0.3904762E+00  0.7715230E+04 -0.1570407E+01  0.1267893E+05 -0.3020413E+01  0.1381329E+03 -0.1570306E+01
  0.4214286E+00  0.8750088E+04 -0.1570219E+01  0.1482141E+05 -0.3004047E+01  0.1602435E+03 -0.1570074E+01
  0.4523810E+00  0.9884873E+04 -0.1569941E+01  0.1713542E+05 -0.2985149E+01  0.1845248E+03 -0.1569733E+01
  0.4833333E+00  0.1107641E+05 -0.1569553E+01  0.1957014E+05 -0.2965881E+01  0.2058691E+03 -0.1569236E+01
  0.5142857E+00  0.1241240E+05 -0.1569015E+01  0.2213059E+05 -0.2944979E+01  0.2360267E+03 -0.1568579E+01
  0.5452381E+00  0.1387616E+05 -0.1568300E+01  0.2479723E+05 -0.2924010E+01  0.2688202E+03 -0.1567708E+01
  0.5761905E+00  0.1540188E+05 -0.1567364E+01  0.2754419E+05 -0.2903199E+01  0.3044704E+03 -0.1566579E+01
  0.6071429E+00  0.1696769E+05 -0.1566144E+01  0.3037887E+05 -0.2881841E+01  0.3370599E+03 -0.1565054E+01
  0.6380953E+00  0.1863709E+05 -0.1564625E+01  0.3330318E+05 -0.2861660E+01  0.3744709E+03 -0.1563175E+01
  0.6690477E+00  0.2042172E+05 -0.1562745E+01  0.3627694E+05 -0.2841443E+01  0.4215083E+03 -0.1560962E+01
  0.7000000E+00  0.2229443E+05 -0.1560437E+01  0.3929466E+05 -0.2821033E+01  0.4723626E+03 -0.1558266E+01
  0.7309524E+00  0.2418944E+05 -0.1557631E+01  0.4236681E+05 -0.2801343E+01  0.5181169E+03 -0.1554844E+01
  0.7619048E+00  0.2607115E+05 -0.1554229E+01  0.4546370E+05 -0.2781842E+01  0.5642689E+03 -0.1550674E+01
  0.7928572E+00  0.2806372E+05 -0.1550211E+01  0.4858511E+05 -0.2762610E+01  0.6211536E+03 -0.1545955E+01
  0.8238096E+00  0.3015869E+05 -0.1545515E+01  0.5170724E+05 -0.2743592E+01  0.6812185E+03 -0.1540437E+01
  0.8547620E+00  0.3231389E+05 -0.1540052E+01  0.5481899E+05 -0.2724867E+01  0.7457530E+03 -0.1534065E+01
  0.8857143E+00  0.3450352E+05 -0.1533727E+01  0.5791047E+05 -0.2706483E+01  0.8186613E+03 -0.1526913E+01
  0.9166667E+00  0.3670228E+05 -0.1526445E+01  0.6098427E+05 -0.2688618E+01  0.8899942E+03 -0.1518523E+01
  0.9476191E+00  0.3885648E+05 -0.1518081E+01  0.6401245E+05 -0.2671075E+01  0.9518383E+03 -0.1508402E+01
  0.9785714E+00  0.4102862E+05 -0.1508635E+01  0.6699328E+05 -0.2653949E+01  0.1020051E+04 -0.1497190E+01
  0.1009524E+01  0.4324020E+05 -0.1498102E+01  0.6990937E+05 -0.2637119E+01  0.1102768E+04 -0.1485367E+01
  0.1040476E+01  0.4550553E+05 -0.1486470E+01  0.7276145E+05 -0.2620761E+01  0.1194424E+04 -0.1472603E+01
  0.1071429E+01  0.4775775E+05 -0.1473629E+01  0.7553348E+05 -0.2604815E+01  0.1283183E+04 -0.1458198E+01
  0.1102381E+01  0.4995467E+05 -0.1459486E+01  0.7821829E+05 -0.2589288E+01  0.1372143E+04 -0.1442290E+01
  0.1133333E+01  0.5206719E+05 -0.1443970E+01  0.8080320E+05 -0.2574120E+01  0.1461132E+04 -0.1424778E+01
  0.1164286E+01  0.5401552E+05 -0.1426924E+01  0.8329277E+05 -0.2559429E+01  0.1547062E+04 -0.1405360E+01
  0.1195238E+01  0.5582712E+05 -0.1408401E+01  0.8568773E+05 -0.2545335E+01  0.1632194E+04 -0.1384253E+01
  0.1226190E+01  0.5751453E+05 -0.1388560E+01  0.8798401E+05 -0.2531847E+01  0.1717143E+04 -0.1361920E+01
  0.1257143E+01  0.5904053E+05 -0.1367328E+01  0.9018988E+05 -0.2518485E+01  0.1797280E+04 -0.1337931E+01
  0.1288095E+01  0.6046073E+05 -0.1345303E+01  0.9221709E+05 -0.2505941E+01  0.1878584E+04 -0.1313312E+01
  0.1319048E+01  0.6163269E+05 -0.1321849E+01  0.9413971E+05 -0.2493455E+01  0.1958050E+04 -0.1287116E+01
  0.1350000E+01  0.6254726E+05 -0.1297149E+01  0.9593402E+05 -0.2481428E+01  0.2035158E+04 -0.1259900E+01
  0.1380952E+01  0.6320367E+05 -0.1271334E+01  0.9760200E+05 -0.2470070E+01  0.2109338E+04 -0.1231900E+01
  0.1411905E+01  0.6319221E+05 -0.1244700E+01  0.9905816E+05 -0.2458832E+01  0.2133362E+04 -0.1199631E+01
  0.1442857E+01  0.6324136E+05 -0.1217159E+01  0.1004530E+06 -0.2448228E+01  0.2181119E+04 -0.1168784E+01
  0.1473810E+01  0.6294789E+05 -0.1188845E+01  0.1017066E+06 -0.2437991E+01  0.2210572E+04 -0.1136261E+01
  0.1504762E+01  0.6232351E+05 -0.1159964E+01  0.1028170E+06 -0.2428160E+01  0.2232274E+04 -0.1103031E+01
  0.1535714E+01  0.6132623E+05 -0.1130385E+01  0.1037801E+06 -0.2418599E+01  0.2247722E+04 -0.1069743E+01
  0.1566667E+01  0.5997739E+05 -0.1100420E+01  0.1046052E+06 -0.2409559E+01  0.2252082E+04 -0.1037059E+01
  0.1597619E+01  0.5828138E+05 -0.1070336E+01  0.1052867E+06 -0.2400985E+01  0.2244505E+04 -0.1004683E+01
  0.1628572E+01  0.5623263E+05 -0.1040122E+01  0.1058212E+06 -0.2392870E+01  0.2216312E+04 -0.9715797E+00
  0.1659524E+01  0.5383927E+05 -0.1009812E+01  0.1062061E+06 -0.2385142E+01  0.2167714E+04 -0.9374879E+00
  0.1690476E+01  0.5109672E+05 -0.9792285E+00  0.1064462E+06 -0.2377754E+01  0.2096064E+04 -0.9011199E+00
  0.1721429E+01  0.4803652E+05 -0.9485818E+00  0.1065412E+06 -0.2370776E+01  0.2010461E+04 -0.8653959E+00
  0.1752381E+01  0.4468030E+05 -0.9178957E+00  0.1064870E+06 -0.2364039E+01  0.1910955E+04 -0.8302537E+00
  0.1783333E+01  0.4104154E+05 -0.8868771E+00  0.1062893E+06 -0.2357718E+01  0.1795789E+04 -0.7956845E+00
  0.1814286E+01  0.3714416E+05 -0.8552527E+00  0.1059534E+06 -0.2351817E+01  0.1663367E+04 -0.7600083E+00
  0.1845238E+01  0.3301994E+05 -0.8227250E+00  0.1054726E+06 -0.2346400E+01  0.1514015E+04 -0.7228332E+00
  0.1876190E+01  0.2869897E+05 -0.7885571E+00  0.1048461E+06 -0.2341494E+01  0.1345783E+04 -0.6818691E+00
  0.1907143E+01  0.2420418E+05 -0.7512078E+00  0.1040741E+06 -0.2336980E+01  0.1157268E+04 -0.6343302E+00
  0.1938095E+01  0.1955700E+05 -0.7073181E+00  0.1031674E+06 -0.2332836E+01  0.9491336E+03 -0.5745834E+00
  0.1969048E+01  0.1479313E+05 -0.6498404E+00  0.1021286E+06 -0.2329082E+01  0.7267242E+03 -0.4910592E+00
  0.2000000E+01  0.9963880E+04 -0.5575591E+00  0.1009563E+06 -0.2325779E+01  0.4964857E+03 -0.3500358E+00
