VARIABLES="w (rad/s)"
"A   1   1" "B   1   1"
"A   1   2" "B   1   2"
"A   1   3" "B   1   3"
Zone t="Motion of body    1 in DoF   1",I=    64,F=POINT
  0.5000000E-01  0.4954961E+05  0.2156520E-02 -0.4196167E-03  0.3323330E-05 -0.9932841E+05 -0.4286347E-02
  0.8095238E-01  0.5007731E+05  0.9471285E-02 -0.2002716E-02 -0.2831155E-05 -0.1004261E+06 -0.1895471E-01
  0.1119048E+00  0.5023465E+05  0.2666304E-01 -0.1278329E-02 -0.8267874E-05 -0.1006685E+06 -0.5324940E-01
  0.1428571E+00  0.5039367E+05  0.5999115E-01 -0.3097534E-02 -0.3023591E-04 -0.1009053E+06 -0.1196937E+00
  0.1738095E+00  0.5042412E+05  0.1193646E+00 -0.3160450E-02 -0.3323564E-04 -0.1009495E+06 -0.2380327E+00
  0.2047619E+00  0.5050114E+05  0.2203070E+00 -0.8756061E-03 -0.1023919E-04 -0.1010846E+06 -0.4391446E+00
  0.2357143E+00  0.5060939E+05  0.3877240E+00 -0.1925844E-02  0.2455898E-05 -0.1012007E+06 -0.7719932E+00
  0.2666667E+00  0.5063696E+05  0.6607282E+00 -0.1459122E-02  0.2285466E-05 -0.1013066E+06 -0.1314932E+01
  0.2976190E+00  0.5074858E+05  0.1108211E+01  0.8972168E-04  0.2405234E-04 -0.1014797E+06 -0.2203392E+01
  0.3285715E+00  0.5084139E+05  0.1832927E+01 -0.1834372E-02 -0.2114102E-04 -0.1015808E+06 -0.3639791E+01
  0.3595238E+00  0.5098712E+05  0.3009338E+01 -0.1443016E-02 -0.9541772E-04 -0.1018240E+06 -0.5968716E+01
  0.3904762E+00  0.5106971E+05  0.4901069E+01 -0.1895253E-02 -0.6064028E-04 -0.1019871E+06 -0.9710116E+01
  0.4214286E+00  0.5127928E+05  0.7886944E+01  0.8689750E-03  0.1126528E-03 -0.1022410E+06 -0.1559574E+02
  0.4523810E+00  0.5139614E+05  0.1256874E+02 -0.2883911E-02 -0.9393692E-04 -0.1024196E+06 -0.2481744E+02
  0.4833333E+00  0.5155845E+05  0.1953864E+02 -0.3725249E-02 -0.2802908E-03 -0.1027534E+06 -0.3852855E+02
  0.5142857E+00  0.5179651E+05  0.2989868E+02 -0.8900961E-03  0.2303720E-04 -0.1031210E+06 -0.5884807E+02
  0.5452381E+00  0.5201435E+05  0.4465392E+02 -0.2952476E-02 -0.1103282E-03 -0.1034469E+06 -0.8771591E+02
  0.5761905E+00  0.5228641E+05  0.6514360E+02 -0.4899206E-02 -0.6932616E-03 -0.1038718E+06 -0.1276943E+03
  0.6071429E+00  0.5248602E+05  0.9322548E+02 -0.1482795E-02  0.2881289E-03 -0.1042500E+06 -0.1824273E+03
  0.6380953E+00  0.5276468E+05  0.1305482E+03 -0.5499996E-03  0.2125502E-03 -0.1047348E+06 -0.2549284E+03
  0.6690477E+00  0.5314454E+05  0.1798366E+03 -0.5701683E-03  0.2235174E-03 -0.1053121E+06 -0.3502476E+03
  0.7000000E+00  0.5342729E+05  0.2438069E+03 -0.2179827E-02 -0.4982948E-03 -0.1057309E+06 -0.4736140E+03
  0.7309524E+00  0.5377613E+05  0.3255995E+03  0.1878769E-03  0.5877018E-03 -0.1063455E+06 -0.6310059E+03
  0.7619048E+00  0.5417320E+05  0.4292632E+03 -0.3064155E-02 -0.6117821E-03 -0.1070261E+06 -0.8297712E+03
  0.7928572E+00  0.5457803E+05  0.5590819E+03 -0.3637365E-02 -0.5950928E-03 -0.1077312E+06 -0.1077890E+04
  0.8238096E+00  0.5498842E+05  0.7200052E+03 -0.8890670E-03  0.6380081E-03 -0.1083693E+06 -0.1383868E+04
  0.8547620E+00  0.5543825E+05  0.9177487E+03 -0.1017536E-02 -0.5931854E-03 -0.1090596E+06 -0.1758152E+04
  0.8857143E+00  0.5597190E+05  0.1159200E+04 -0.1722766E-02  0.2269745E-03 -0.1098984E+06 -0.2213164E+04
  0.9166667E+00  0.5644971E+05  0.1450036E+04 -0.3445712E-02 -0.1269341E-02 -0.1106870E+06 -0.2759533E+04
  0.9476191E+00  0.5692693E+05  0.1798173E+04 -0.2334825E-02 -0.2918243E-03 -0.1114847E+06 -0.3410961E+04
  0.9785714E+00  0.5744855E+05  0.2212446E+04 -0.1138283E-02  0.7276535E-03 -0.1123716E+06 -0.4182962E+04
  0.1009524E+01  0.5802475E+05  0.2702095E+04 -0.1178957E-02  0.2155304E-03 -0.1132359E+06 -0.5088202E+04
  0.1040476E+01  0.5863619E+05  0.3277129E+04  0.2346432E-03 -0.1144409E-04 -0.1141838E+06 -0.6146409E+04
  0.1071429E+01  0.5917501E+05  0.3944567E+04 -0.3304037E-02 -0.1913071E-02 -0.1149408E+06 -0.7366068E+04
  0.1102381E+01  0.5976051E+05  0.4719250E+04 -0.5536666E-04  0.5130768E-03 -0.1158484E+06 -0.8776640E+04
  0.1133333E+01  0.6031584E+05  0.5609105E+04 -0.2127255E-02  0.9498596E-03 -0.1166539E+06 -0.1038557E+05
  0.1164286E+01  0.6089841E+05  0.6628330E+04 -0.1100879E-02 -0.8392334E-04 -0.1174884E+06 -0.1221664E+05
  0.1195238E+01  0.6148306E+05  0.7787790E+04 -0.1327697E-02 -0.1602173E-03 -0.1183823E+06 -0.1429129E+05
  0.1226190E+01  0.6196782E+05  0.9089949E+04 -0.2737693E-02 -0.6828308E-03 -0.1190652E+06 -0.1660438E+05
  0.1257143E+01  0.6236018E+05  0.1053725E+05 -0.1262318E-02 -0.1144409E-04 -0.1195377E+06 -0.1915310E+05
  0.1288095E+01  0.6290317E+05  0.1217575E+05 -0.2558738E-02 -0.1228333E-02 -0.1202428E+06 -0.2201629E+05
  0.1319048E+01  0.6326995E+05  0.1397048E+05 -0.2614376E-02 -0.1800537E-02 -0.1205542E+06 -0.2511774E+05
  0.1350000E+01  0.6363065E+05  0.1595184E+05 -0.9268301E-03  0.1243591E-02 -0.1208621E+06 -0.2851621E+05
  0.1380952E+01  0.6392055E+05  0.1811914E+05 -0.1502728E-02 -0.2212524E-03 -0.1210862E+06 -0.3220990E+05
  0.1411905E+01  0.6389946E+05  0.2040278E+05 -0.2031761E-02 -0.1220703E-02 -0.1208508E+06 -0.3608031E+05
  0.1442857E+01  0.6390598E+05  0.2290453E+05 -0.2707302E-02  0.3204346E-03 -0.1205224E+06 -0.4025636E+05
  0.1473810E+01  0.6386516E+05  0.2559471E+05 -0.7454374E-03  0.3356934E-03 -0.1201969E+06 -0.4472714E+05
  0.1504762E+01  0.6365021E+05  0.2842562E+05 -0.1541331E-02 -0.1312256E-02 -0.1195149E+06 -0.4936572E+05
  0.1535714E+01  0.6331861E+05  0.3139936E+05 -0.2583348E-02 -0.4730225E-03 -0.1186384E+06 -0.5418588E+05
  0.1566667E+01  0.6290580E+05  0.3449325E+05 -0.3506275E-02 -0.2166748E-02 -0.1175914E+06 -0.5912602E+05
  0.1597619E+01  0.6232249E+05  0.3766638E+05 -0.2120312E-02 -0.1953125E-02 -0.1162856E+06 -0.6412917E+05
  0.1628572E+01  0.6156068E+05  0.4088249E+05 -0.5246882E-03  0.9613037E-03 -0.1146487E+06 -0.6910502E+05
  0.1659524E+01  0.6062243E+05  0.4410695E+05 -0.1213698E-02 -0.8087158E-03 -0.1126912E+06 -0.7398584E+05
  0.1690476E+01  0.5960143E+05  0.4736921E+05 -0.1588633E-02  0.3814697E-03 -0.1107088E+06 -0.7889636E+05
  0.1721429E+01  0.5844926E+05  0.5058969E+05 -0.3439242E-02 -0.1022339E-02 -0.1085195E+06 -0.8364026E+05
  0.1752381E+01  0.5712019E+05  0.5369312E+05 -0.2577409E-02  0.5645752E-03 -0.1060167E+06 -0.8806723E+05
  0.1783333E+01  0.5572042E+05  0.5670471E+05 -0.1488802E-02 -0.2639771E-02 -0.1034427E+06 -0.9226238E+05
  0.1814286E+01  0.5428315E+05  0.5959766E+05 -0.2960446E-02 -0.1052856E-02 -0.1008373E+06 -0.9617459E+05
  0.1845238E+01  0.5271488E+05  0.6227785E+05 -0.1306546E-02 -0.2136230E-03 -0.9809183E+05 -0.9967986E+05
  0.1876190E+01  0.5107146E+05  0.6473452E+05 -0.2016949E-02 -0.2090454E-02 -0.9523195E+05 -0.1027131E+06
  0.1907143E+01  0.4933558E+05  0.6690394E+05 -0.1632176E-02 -0.2807617E-02 -0.9222239E+05 -0.1051515E+06
  0.1938095E+01  0.4761549E+05  0.6890209E+05 -0.4566390E-03 -0.2655029E-02 -0.8935473E+05 -0.1073452E+06
  0.1969048E+01  0.4591492E+05  0.7069619E+05 -0.2030323E-02 -0.6103516E-03 -0.8659974E+05 -0.1092026E+06
  0.2000000E+01  0.4417205E+05  0.7213516E+05 -0.1525879E-03 -0.3051758E-03 -0.8375766E+05 -0.1103473E+06
Zone t="Motion of body    1 in DoF   2",I=    64,F=POINT
  0.5000000E-01  0.1487732E-02  0.1668930E-05  0.2150780E+05  0.2476558E+02 -0.2441406E-02  0.6079674E-05
  0.8095238E-01  0.2120523E-02 -0.5364418E-05  0.2140154E+05  0.4102069E+02 -0.6125955E-02 -0.6198883E-05
  0.1119048E+00 -0.1022664E-02  0.1001358E-04  0.2132626E+05  0.5864725E+02  0.2045327E-03 -0.3170967E-04
  0.1428571E+00  0.7743835E-03 -0.1168251E-04  0.2130349E+05  0.7831136E+02  0.1068115E-02  0.4911423E-04
  0.1738095E+00  0.1185169E-02 -0.1859665E-04  0.2124970E+05  0.1007579E+03 -0.1053483E-02  0.7438660E-04
  0.2047619E+00  0.9687557E-03 -0.3814697E-05  0.2124761E+05  0.1270513E+03 -0.6557730E-02 -0.1192093E-04
  0.2357143E+00  0.1909660E-02 -0.2717972E-04  0.2128871E+05  0.1585517E+03 -0.3884055E-02  0.1811981E-04
  0.2666667E+00  0.3433227E-03  0.5626678E-04  0.2127137E+05  0.1963465E+03 -0.8125305E-02  0.2861023E-04
  0.2976190E+00  0.3845215E-04 -0.7915497E-04  0.2134261E+05  0.2431776E+03 -0.3486328E-02  0.2651215E-03
  0.3285715E+00  0.5108376E-03 -0.5149841E-04  0.2132388E+05  0.3001899E+03 -0.3993822E-02  0.4959106E-04
  0.3595238E+00  0.2376733E-02 -0.9918213E-04  0.2138273E+05  0.3705238E+03 -0.3055800E-02  0.4062653E-03
  0.3904762E+00 -0.6643155E-03 -0.1354218E-03  0.2137097E+05  0.4561920E+03  0.4454822E-02 -0.9346008E-04
  0.4214286E+00 -0.8327677E-03 -0.1716614E-04  0.2137820E+05  0.5559979E+03 -0.3186242E-02  0.1411438E-03
  0.4523810E+00  0.7926539E-03 -0.6294250E-04  0.2135871E+05  0.6753166E+03 -0.3305535E-02 -0.3166199E-03
  0.4833333E+00  0.1278581E-02  0.9155273E-04  0.2129583E+05  0.8024011E+03 -0.3535830E-02  0.2899170E-03
  0.5142857E+00  0.2032386E-02  0.1907349E-04  0.2126689E+05  0.9440706E+03 -0.5103217E-02  0.7591248E-03
  0.5452381E+00 -0.1357299E-02  0.1068115E-03  0.2112561E+05  0.1091728E+04  0.1903018E-02  0.3242493E-03
  0.5761905E+00 -0.3707507E-03  0.2365112E-03  0.2103989E+05  0.1241152E+04 -0.2860077E-02 -0.2517700E-03
  0.6071429E+00  0.3279742E-02  0.8239746E-03  0.2090306E+05  0.1397246E+04 -0.1708984E-02 -0.4882812E-03
  0.6380953E+00  0.1458695E-02 -0.1296997E-03  0.2073995E+05  0.1548174E+04 -0.6599995E-02  0.3204346E-03
  0.6690477E+00  0.2417513E-02 -0.2059937E-03  0.2062616E+05  0.1698003E+04  0.9122692E-04  0.4501343E-03
  0.7000000E+00  0.7629394E-03 -0.3051758E-04  0.2045145E+05  0.1847053E+04 -0.1569475E-02  0.1785278E-02
  0.7309524E+00  0.2859904E-02 -0.4577637E-04  0.2025838E+05  0.1989707E+04 -0.7181074E-02  0.3051758E-04
  0.7619048E+00  0.8611678E-03 -0.5264282E-03  0.2010567E+05  0.2125958E+04 -0.2323150E-02  0.1495361E-02
  0.7928572E+00  0.1404908E-02  0.1373291E-03  0.1997292E+05  0.2254598E+04 -0.3310195E-02 -0.7934570E-03
  0.8238096E+00  0.1352123E-02 -0.5798340E-03  0.1974675E+05  0.2375240E+04 -0.2667201E-02  0.1144409E-02
  0.8547620E+00  0.1321012E-02 -0.1525879E-04  0.1955444E+05  0.2485406E+04 -0.1570933E-02  0.4470825E-02
  0.8857143E+00  0.1378213E-02 -0.9307861E-03  0.1940226E+05  0.2584388E+04 -0.1240392E-02  0.9155273E-04
  0.9166667E+00  0.2330433E-03 -0.2136230E-03  0.1926522E+05  0.2669780E+04 -0.1131925E-02  0.1266479E-02
  0.9476191E+00  0.1650480E-02 -0.7476807E-03  0.1904844E+05  0.2741704E+04 -0.2383131E-02 -0.1205444E-02
  0.9785714E+00  0.1699629E-02  0.2899170E-03  0.1886245E+05  0.2800836E+04 -0.1933523E-02 -0.3356934E-03
  0.1009524E+01  0.4534452E-03 -0.2746582E-03  0.1871620E+05  0.2846851E+04 -0.1813781E-03  0.4425049E-03
  0.1040476E+01 -0.1759824E-03 -0.3051758E-04  0.1861782E+05  0.2880673E+04  0.9385726E-03  0.3341675E-02
  0.1071429E+01  0.2698771E-02  0.3814697E-03  0.1844054E+05  0.2891640E+04 -0.4728190E-02 -0.3646851E-02
  0.1102381E+01  0.9550749E-03  0.1052856E-02  0.1827708E+05  0.2892913E+04  0.4429333E-03 -0.2624512E-02
  0.1133333E+01  0.1043432E-02 -0.7324219E-03  0.1813427E+05  0.2880229E+04 -0.4146800E-02  0.1403809E-02
  0.1164286E+01  0.2234523E-02  0.9307861E-03  0.1803024E+05  0.2857708E+04 -0.6081048E-02 -0.7934570E-03
  0.1195238E+01  0.1442594E-02  0.9765625E-03  0.1796891E+05  0.2828531E+04 -0.2655394E-02 -0.1647949E-02
  0.1226190E+01  0.4075430E-03 -0.1373291E-03  0.1787568E+05  0.2775469E+04  0.2190155E-02  0.1647949E-02
  0.1257143E+01  0.2206022E-02  0.3051758E-04  0.1774686E+05  0.2704979E+04 -0.3786954E-02 -0.5645752E-03
  0.1288095E+01  0.1895362E-02  0.4882812E-03  0.1764662E+05  0.2629995E+04 -0.4454100E-02  0.3814697E-03
  0.1319048E+01  0.1733759E-02 -0.1617432E-02  0.1757563E+05  0.2550201E+04 -0.5367568E-02  0.1113892E-02
  0.1350000E+01  0.1320309E-02  0.6713867E-03  0.1753572E+05  0.2471715E+04 -0.1627604E-02 -0.1785278E-02
  0.1380952E+01  0.6771252E-03  0.1068115E-02  0.1753354E+05  0.2399370E+04  0.2651872E-03 -0.1525879E-02
  0.1411905E+01  0.1462016E-02  0.9155273E-04  0.1750485E+05  0.2301122E+04 -0.3717689E-02  0.7629395E-04
  0.1442857E+01  0.1678844E-02 -0.5798340E-03  0.1743123E+05  0.2169435E+04 -0.4568572E-02  0.3784180E-02
  0.1473810E+01  0.1475345E-02  0.9765625E-03  0.1738748E+05  0.2052525E+04 -0.3230229E-02 -0.2845764E-02
  0.1504762E+01  0.1130647E-02 -0.9765625E-03  0.1735954E+05  0.1934800E+04 -0.1703576E-02  0.3540039E-02
  0.1535714E+01  0.1366194E-02  0.1403809E-02  0.1735778E+05  0.1829228E+04 -0.3417969E-02 -0.1190186E-02
  0.1566667E+01  0.2169508E-02  0.1373291E-02  0.1737557E+05  0.1739477E+04 -0.5142536E-02 -0.2967834E-02
  0.1597619E+01  0.1494725E-02 -0.1693726E-02  0.1742024E+05  0.1673171E+04 -0.3438344E-02 -0.3433228E-03
  0.1628572E+01  0.1110278E-02  0.3509521E-03  0.1743927E+05  0.1567503E+04 -0.2923263E-02 -0.3395081E-02
  0.1659524E+01  0.1599874E-02  0.4272461E-03  0.1741847E+05  0.1408418E+04 -0.3015855E-02 -0.2861023E-02
  0.1690476E+01  0.1800752E-02  0.2288818E-03  0.1742111E+05  0.1287650E+04 -0.4260425E-02 -0.1266479E-02
  0.1721429E+01  0.1515749E-02  0.1983643E-03  0.1742840E+05  0.1167966E+04 -0.2340103E-02  0.1350403E-02
  0.1752381E+01  0.2490334E-02  0.6103516E-04  0.1745270E+05  0.1070018E+04 -0.4876179E-02 -0.1079559E-02
  0.1783333E+01  0.1544418E-02  0.7476807E-03  0.1748639E+05  0.9922445E+03 -0.3627884E-02 -0.5912781E-03
  0.1814286E+01  0.1618994E-02 -0.6408691E-03  0.1752760E+05  0.9368175E+03 -0.4306103E-02 -0.1609802E-02
  0.1845238E+01  0.2422899E-02  0.1922607E-02  0.1758142E+05  0.9147313E+03 -0.6747732E-02 -0.2288818E-02
  0.1876190E+01  0.1642837E-02 -0.7781982E-03  0.1762336E+05  0.8527947E+03 -0.6115909E-02  0.1594543E-02
  0.1907143E+01  0.1336144E-02 -0.1266479E-02  0.1763760E+05  0.7026354E+03 -0.2496270E-02  0.9956360E-03
  0.1938095E+01  0.4487659E-03 -0.1113892E-02  0.1766342E+05  0.6122172E+03  0.3149234E-03  0.2502441E-02
  0.1969048E+01 -0.1472372E-03  0.9155273E-04  0.1768901E+05  0.5274739E+03  0.8059298E-03  0.1304626E-02
  0.2000000E+01  0.1312256E-02  0.1159668E-02  0.1771812E+05  0.4517088E+03 -0.2502441E-02  0.4272461E-03
Zone t="Motion of body    1 in DoF   3",I=    64,F=POINT
  0.5000000E-01 -0.9955712E+05 -0.4291673E-02 -0.1525879E-02 -0.1566507E-04  0.2444929E+06  0.8565917E-02
  0.8095238E-01 -0.1006191E+06 -0.1899683E-01  0.2685996E-02  0.6481001E-05  0.2467471E+06  0.3804521E-01
  0.1119048E+00 -0.1008610E+06 -0.5337480E-01 -0.6255292E-02 -0.1615650E-04  0.2470441E+06  0.1066132E+00
  0.1428571E+00 -0.1011060E+06 -0.1200057E+00 -0.6675720E-03  0.1003034E-05  0.2473796E+06  0.2393875E+00
  0.1738095E+00 -0.1011545E+06 -0.2386492E+00 -0.6650114E-02 -0.6874930E-04  0.2474586E+06  0.4758451E+00
  0.2047619E+00 -0.1012902E+06 -0.4402297E+00 -0.1548146E-01 -0.2469746E-03  0.2476684E+06  0.8776038E+00
  0.2357143E+00 -0.1014089E+06 -0.7741901E+00  0.1001763E-01  0.1586708E-03  0.2478418E+06  0.1541587E+01
  0.2666667E+00 -0.1015149E+06 -0.1318200E+01 -0.1416206E-02 -0.1483010E-03  0.2480519E+06  0.2623526E+01
  0.2976190E+00 -0.1016805E+06 -0.2209011E+01 -0.7959595E-02 -0.1763627E-03  0.2483291E+06  0.4392479E+01
  0.3285715E+00 -0.1017918E+06 -0.3649696E+01  0.6257761E-02  0.2348125E-03  0.2484478E+06  0.7248032E+01
  0.3595238E+00 -0.1020348E+06 -0.5984861E+01 -0.8000254E-02 -0.1760423E-03  0.2488910E+06  0.1187076E+02
  0.3904762E+00 -0.1021976E+06 -0.9734603E+01 -0.2334874E-02 -0.1967624E-03  0.2491684E+06  0.1928644E+02
  0.4214286E+00 -0.1024561E+06 -0.1564203E+02 -0.8544921E-02 -0.5446523E-03  0.2495019E+06  0.3093038E+02
  0.4523810E+00 -0.1026283E+06 -0.2489031E+02  0.6745990E-03 -0.1878738E-03  0.2498048E+06  0.4914635E+02
  0.4833333E+00 -0.1029670E+06 -0.3862818E+02  0.8508090E-02  0.7800162E-03  0.2504562E+06  0.7617118E+02
  0.5142857E+00 -0.1033251E+06 -0.5900858E+02 -0.6052653E-02 -0.6800890E-04  0.2510087E+06  0.1161440E+03
  0.5452381E+00 -0.1036691E+06 -0.8796585E+02  0.1364296E-01  0.1394272E-02  0.2515358E+06  0.1727966E+03
  0.5761905E+00 -0.1040959E+06 -0.1280759E+03  0.7362050E-02  0.6785393E-03  0.2522453E+06  0.2510538E+03
  0.6071429E+00 -0.1044580E+06 -0.1829161E+03  0.1500388E-01  0.1719356E-02  0.2529076E+06  0.3579453E+03
  0.6380953E+00 -0.1049533E+06 -0.2555726E+03  0.7030430E-02  0.3161430E-03  0.2537678E+06  0.4990676E+03
  0.6690477E+00 -0.1055359E+06 -0.3512391E+03 -0.4869237E-02 -0.4377365E-03  0.2546905E+06  0.6840690E+03
  0.7000000E+00 -0.1059429E+06 -0.4750140E+03 -0.2724783E-02 -0.1294374E-02  0.2553243E+06  0.9227573E+03
  0.7309524E+00 -0.1065749E+06 -0.6327308E+03 -0.2661590E-02 -0.1902103E-02  0.2564314E+06  0.1226219E+04
  0.7619048E+00 -0.1072527E+06 -0.8319449E+03  0.5136966E-02  0.9489059E-03  0.2575910E+06  0.1608162E+04
  0.7928572E+00 -0.1079451E+06 -0.1080483E+04  0.1284625E-01  0.3519058E-02  0.2587975E+06  0.2083123E+04
  0.8238096E+00 -0.1085914E+06 -0.1387317E+04  0.6668002E-02 -0.2441406E-03  0.2598282E+06  0.2666444E+04
  0.8547620E+00 -0.1092892E+06 -0.1762811E+04 -0.4123698E-02  0.3709793E-03  0.2609532E+06  0.3377051E+04
  0.8857143E+00 -0.1101336E+06 -0.2219362E+04  0.6374236E-02  0.3239632E-02  0.2622832E+06  0.4237230E+04
  0.9166667E+00 -0.1109109E+06 -0.2766832E+04  0.1198509E-02  0.1182556E-02  0.2636063E+06  0.5265478E+04
  0.9476191E+00 -0.1117122E+06 -0.3419197E+04  0.3478084E-02 -0.1237869E-02  0.2649404E+06  0.6485875E+04
  0.9785714E+00 -0.1126027E+06 -0.4191735E+04 -0.2401310E-02 -0.2573013E-02  0.2664077E+06  0.7925083E+04
  0.1009524E+01 -0.1134660E+06 -0.5099728E+04  0.4262384E-02  0.2040863E-02  0.2677326E+06  0.9603050E+04
  0.1040476E+01 -0.1144152E+06 -0.6160479E+04  0.1290537E-02 -0.1411438E-02  0.2692265E+06  0.1155420E+05
  0.1071429E+01 -0.1151627E+06 -0.7384314E+04  0.1922608E-02  0.3402710E-02  0.2702615E+06  0.1378913E+05
  0.1102381E+01 -0.1160871E+06 -0.8797259E+04 -0.6214908E-02 -0.2155304E-02  0.2717012E+06  0.1636050E+05
  0.1133333E+01 -0.1168957E+06 -0.1040987E+05  0.3163955E-02 -0.2048492E-02  0.2728766E+06  0.1927430E+05
  0.1164286E+01 -0.1177307E+06 -0.1224579E+05 -0.2280393E-02 -0.1861572E-02  0.2740747E+06  0.2257020E+05
  0.1195238E+01 -0.1186217E+06 -0.1432142E+05  0.1034072E-01  0.5371094E-02  0.2753968E+06  0.2628093E+05
  0.1226190E+01 -0.1192860E+06 -0.1663540E+05  0.6159810E-02  0.2212524E-03  0.2762736E+06  0.3038667E+05
  0.1257143E+01 -0.1197597E+06 -0.1918686E+05 -0.3471374E-02 -0.4348755E-02  0.2767606E+06  0.3487396E+05
  0.1288095E+01 -0.1204785E+06 -0.2205355E+05  0.2700890E-02 -0.2281189E-02  0.2776093E+06  0.3987526E+05
  0.1319048E+01 -0.1207902E+06 -0.2516685E+05  0.7484518E-02  0.6622314E-02  0.2777377E+06  0.4524746E+05
  0.1350000E+01 -0.1211017E+06 -0.2857563E+05  0.3142180E-02 -0.2578735E-02  0.2777829E+06  0.5108205E+05
  0.1380952E+01 -0.1213248E+06 -0.3227403E+05  0.3027554E-02 -0.1388550E-02  0.2777497E+06  0.5737102E+05
  0.1411905E+01 -0.1210841E+06 -0.3614537E+05 -0.1188796E-03  0.3814697E-03  0.2769678E+06  0.6391586E+05
  0.1442857E+01 -0.1207524E+06 -0.4033067E+05  0.1353651E-02 -0.1739502E-02  0.2758768E+06  0.7087775E+05
  0.1473810E+01 -0.1204390E+06 -0.4479729E+05 -0.1294162E-02 -0.2410889E-02  0.2749320E+06  0.7827745E+05
  0.1504762E+01 -0.1197540E+06 -0.4943645E+05  0.1977365E-02  0.3952026E-02  0.2732755E+06  0.8584700E+05
  0.1535714E+01 -0.1188692E+06 -0.5425805E+05  0.2652900E-02 -0.1281738E-02  0.2713495E+06  0.9363402E+05
  0.1566667E+01 -0.1178199E+06 -0.5919818E+05  0.2805020E-02  0.1693726E-02  0.2689914E+06  0.1014657E+06
  0.1597619E+01 -0.1165072E+06 -0.6419468E+05  0.2129863E-02  0.4547119E-02  0.2663385E+06  0.1092863E+06
  0.1628572E+01 -0.1148524E+06 -0.6916817E+05  0.7682934E-03  0.2746582E-03  0.2630523E+06  0.1169007E+06
  0.1659524E+01 -0.1128839E+06 -0.7405918E+05 -0.2482563E-03 -0.2075195E-02  0.2592011E+06  0.1241968E+06
  0.1690476E+01 -0.1109174E+06 -0.7896547E+05 -0.4197241E-02 -0.3356934E-02  0.2555575E+06  0.1314972E+06
  0.1721429E+01 -0.1087360E+06 -0.8369795E+05  0.2499656E-02  0.3204346E-02  0.2515170E+06  0.1383350E+06
  0.1752381E+01 -0.1062248E+06 -0.8812701E+05  0.2825571E-02 -0.7019043E-03  0.2470304E+06  0.1445218E+06
  0.1783333E+01 -0.1036452E+06 -0.9231755E+05 -0.6545593E-03  0.1708984E-02  0.2424692E+06  0.1501902E+06
  0.1814286E+01 -0.1010399E+06 -0.9622117E+05  0.5706427E-02  0.3204346E-02  0.2378430E+06  0.1552276E+06
  0.1845238E+01 -0.9829577E+05 -0.9971473E+05  0.4515027E-02  0.2044678E-02  0.2332212E+06  0.1595586E+06
  0.1876190E+01 -0.9542291E+05 -0.1027327E+06  0.4420208E-02  0.2410889E-02  0.2283776E+06  0.1629461E+06
  0.1907143E+01 -0.9239548E+05 -0.1051737E+06 -0.2668288E-02  0.5187988E-03  0.2232633E+06  0.1651753E+06
  0.1938095E+01 -0.8954334E+05 -0.1073741E+06 -0.4544739E-02 -0.4577637E-03  0.2186595E+06  0.1671768E+06
  0.1969048E+01 -0.8681241E+05 -0.1092211E+06  0.1726646E-02  0.1068115E-02  0.2143237E+06  0.1685793E+06
  0.2000000E+01 -0.8396865E+05 -0.1103589E+06 -0.1678228E-02 -0.1220703E-02  0.2098129E+06  0.1686564E+06
