VARIABLES="w (rad/s)"
"abs(F   1   1)" "angle(F   1   1)"
"abs(F   1   2)" "angle(F   1   2)"
"abs(F   1   3)" "angle(F   1   3)"
Zone t="Diffraction force - beta =   0.000 deg",I=    64,F=POINT
  0.5000000E-01  0.1054737E+04 -0.1570794E+01  0.2896226E+03 -0.3086607E+01  0.1990246E+02 -0.1570793E+01
  0.8095238E-01  0.1725744E+04 -0.1570791E+01  0.7498845E+03 -0.3084588E+01  0.3224524E+02 -0.1570788E+01
  0.1119048E+00  0.2405571E+04 -0.1570786E+01  0.1422969E+04 -0.3082133E+01  0.4510273E+02 -0.1570780E+01
  0.1428571E+00  0.3121556E+04 -0.1570778E+01  0.2310195E+04 -0.3079065E+01  0.5913152E+02 -0.1570770E+01
  0.1738095E+00  0.3850094E+04 -0.1570766E+01  0.3416101E+04 -0.3075239E+01  0.7298291E+02 -0.1570754E+01
  0.2047619E+00  0.4634565E+04 -0.1570750E+01  0.4745397E+04 -0.3070459E+01  0.8842655E+02 -0.1570732E+01
  0.2357143E+00  0.5458398E+04 -0.1570725E+01  0.6304026E+04 -0.3064441E+01  0.1054823E+03 -0.1570701E+01
  0.2666667E+00  0.6338435E+04 -0.1570688E+01  0.8099589E+04 -0.3057156E+01  0.1224475E+03 -0.1570653E+01
  0.2976190E+00  0.7314097E+04 -0.1570635E+01  0.1013691E+05 -0.3047987E+01  0.1430412E+03 -0.1570584E+01
  0.3285715E+00  0.8361709E+04 -0.1570555E+01  0.1242247E+05 -0.3037035E+01  0.1656894E+03 -0.1570484E+01
  0.3595238E+00  0.9508994E+04 -0.1570435E+01  0.1495537E+05 -0.3023750E+01  0.1900982E+03 -0.1570332E+01
  0.3904762E+00  0.1080137E+05 -0.1570256E+01  0.1774072E+05 -0.3008035E+01  0.2198182E+03 -0.1570109E+01
  0.4214286E+00  0.1224436E+05 -0.1569995E+01  0.2073055E+05 -0.2990372E+01  0.2554293E+03 -0.1569793E+01
  0.4523810E+00  0.1376480E+05 -0.1569608E+01  0.2395049E+05 -0.2969971E+01  0.2858999E+03 -0.1569297E+01
  0.4833333E+00  0.1547328E+05 -0.1569075E+01  0.2733472E+05 -0.2949321E+01  0.3285928E+03 -0.1568644E+01
  0.5142857E+00  0.1736832E+05 -0.1568338E+01  0.3087026E+05 -0.2926852E+01  0.3761208E+03 -0.1567746E+01
  0.5452381E+00  0.1936585E+05 -0.1567352E+01  0.3453641E+05 -0.2904380E+01  0.4284864E+03 -0.1566555E+01
  0.5761905E+00  0.2142297E+05 -0.1566061E+01  0.3831918E+05 -0.2882347E+01  0.4762164E+03 -0.1564938E+01
  0.6071429E+00  0.2364024E+05 -0.1564402E+01  0.4218652E+05 -0.2859594E+01  0.5333375E+03 -0.1562904E+01
  0.6380953E+00  0.2602200E+05 -0.1562348E+01  0.4615855E+05 -0.2838231E+01  0.6051076E+03 -0.1560499E+01
  0.6690477E+00  0.2851153E+05 -0.1559803E+01  0.5018555E+05 -0.2816984E+01  0.6790810E+03 -0.1557503E+01
  0.7000000E+00  0.3100908E+05 -0.1556652E+01  0.5424143E+05 -0.2795493E+01  0.7449575E+03 -0.1553628E+01
  0.7309524E+00  0.3353481E+05 -0.1552836E+01  0.5836319E+05 -0.2774960E+01  0.8185060E+03 -0.1549019E+01
  0.7619048E+00  0.3623555E+05 -0.1548317E+01  0.6250821E+05 -0.2754807E+01  0.9055116E+03 -0.1543727E+01
  0.7928572E+00  0.3905501E+05 -0.1542994E+01  0.6663375E+05 -0.2734769E+01  0.9963066E+03 -0.1537459E+01
  0.8238096E+00  0.4193267E+05 -0.1536757E+01  0.7072785E+05 -0.2714964E+01  0.1099053E+04 -0.1530321E+01
  0.8547620E+00  0.4485189E+05 -0.1529510E+01  0.7480793E+05 -0.2695773E+01  0.1210120E+04 -0.1522151E+01
  0.8857143E+00  0.4772889E+05 -0.1521102E+01  0.7884352E+05 -0.2677094E+01  0.1305208E+04 -0.1512105E+01
  0.9166667E+00  0.5058111E+05 -0.1511461E+01  0.8282477E+05 -0.2658946E+01  0.1401566E+04 -0.1500558E+01
  0.9476191E+00  0.5349790E+05 -0.1500621E+01  0.8670907E+05 -0.2641035E+01  0.1517155E+04 -0.1488151E+01
  0.9785714E+00  0.5648664E+05 -0.1488555E+01  0.9050396E+05 -0.2623632E+01  0.1650718E+04 -0.1474877E+01
  0.1009524E+01  0.5947641E+05 -0.1475162E+01  0.9419112E+05 -0.2606704E+01  0.1782974E+04 -0.1459887E+01
  0.1040476E+01  0.6239516E+05 -0.1460323E+01  0.9775416E+05 -0.2590217E+01  0.1915364E+04 -0.1443226E+01
  0.1071429E+01  0.6519598E+05 -0.1443950E+01  0.1011828E+06 -0.2574168E+01  0.2047282E+04 -0.1424750E+01
  0.1102381E+01  0.6777076E+05 -0.1425871E+01  0.1044759E+06 -0.2558638E+01  0.2174393E+04 -0.1404142E+01
  0.1133333E+01  0.7015408E+05 -0.1406144E+01  0.1076320E+06 -0.2543744E+01  0.2301530E+04 -0.1381747E+01
  0.1164286E+01  0.7236862E+05 -0.1384976E+01  0.1106524E+06 -0.2529536E+01  0.2425173E+04 -0.1357791E+01
  0.1195238E+01  0.7438991E+05 -0.1362471E+01  0.1135040E+06 -0.2515718E+01  0.2547419E+04 -0.1332610E+01
  0.1226190E+01  0.7616450E+05 -0.1338638E+01  0.1161855E+06 -0.2502390E+01  0.2664343E+04 -0.1305814E+01
  0.1257143E+01  0.7757277E+05 -0.1313129E+01  0.1187089E+06 -0.2489107E+01  0.2777618E+04 -0.1277222E+01
  0.1288095E+01  0.7868644E+05 -0.1286793E+01  0.1209921E+06 -0.2476796E+01  0.2893841E+04 -0.1248573E+01
  0.1319048E+01  0.7937974E+05 -0.1258975E+01  0.1231258E+06 -0.2464872E+01  0.2999159E+04 -0.1218655E+01
  0.1350000E+01  0.7966701E+05 -0.1230271E+01  0.1250709E+06 -0.2453455E+01  0.3081050E+04 -0.1187012E+01
  0.1380952E+01  0.7948716E+05 -0.1200688E+01  0.1268169E+06 -0.2442580E+01  0.3136200E+04 -0.1153641E+01
  0.1411905E+01  0.7836779E+05 -0.1170508E+01  0.1282533E+06 -0.2431707E+01  0.3118411E+04 -0.1115183E+01
  0.1442857E+01  0.7721413E+05 -0.1139470E+01  0.1295925E+06 -0.2421458E+01  0.3144713E+04 -0.1079993E+01
  0.1473810E+01  0.7555410E+05 -0.1107840E+01  0.1307358E+06 -0.2411749E+01  0.3155090E+04 -0.1045042E+01
  0.1504762E+01  0.7340938E+05 -0.1076043E+01  0.1316808E+06 -0.2402578E+01  0.3148310E+04 -0.1010767E+01
  0.1535714E+01  0.7077024E+05 -0.1044101E+01  0.1324201E+06 -0.2393918E+01  0.3112460E+04 -0.9760205E+00
  0.1566667E+01  0.6764816E+05 -0.1012060E+01  0.1329501E+06 -0.2385700E+01  0.3043172E+04 -0.9400683E+00
  0.1597619E+01  0.6403566E+05 -0.9797175E+00  0.1332767E+06 -0.2377868E+01  0.2938484E+04 -0.9016884E+00
  0.1628572E+01  0.5997762E+05 -0.9473022E+00  0.1334000E+06 -0.2370495E+01  0.2811254E+04 -0.8638871E+00
  0.1659524E+01  0.5550420E+05 -0.9148141E+00  0.1333145E+06 -0.2363385E+01  0.2662418E+04 -0.8268021E+00
  0.1690476E+01  0.5063996E+05 -0.8819424E+00  0.1330292E+06 -0.2356768E+01  0.2488405E+04 -0.7901643E+00
  0.1721429E+01  0.4541786E+05 -0.8483266E+00  0.1325488E+06 -0.2350602E+01  0.2287368E+04 -0.7520316E+00
  0.1752381E+01  0.3988998E+05 -0.8136115E+00  0.1318649E+06 -0.2345005E+01  0.2059422E+04 -0.7121381E+00
  0.1783333E+01  0.3409461E+05 -0.7766832E+00  0.1309763E+06 -0.2339947E+01  0.1800376E+04 -0.6666474E+00
  0.1814286E+01  0.2806461E+05 -0.7351694E+00  0.1298872E+06 -0.2335343E+01  0.1511964E+04 -0.6135390E+00
  0.1845238E+01  0.2183933E+05 -0.6840649E+00  0.1286140E+06 -0.2331121E+01  0.1191833E+04 -0.5406755E+00
  0.1876190E+01  0.1547689E+05 -0.6102667E+00  0.1271543E+06 -0.2327370E+01  0.8562065E+03 -0.4315145E+00
  0.1907143E+01  0.9089510E+04 -0.4636936E+00  0.1255070E+06 -0.2323953E+01  0.5173798E+03 -0.2074499E+00
  0.1938095E+01  0.3360288E+04  0.1793719E+00  0.1236810E+06 -0.2320970E+01  0.2501418E+03  0.5939490E+00
  0.1969048E+01  0.5395559E+04  0.1900566E+01  0.1216799E+06 -0.2318610E+01  0.3992727E+03  0.1872902E+01
  0.2000000E+01  0.1174168E+05  0.2208376E+01  0.1195022E+06 -0.2316901E+01  0.7750122E+03  0.2221630E+01
