VARIABLES="w (rad/s)"
"abs(F   1   1)" "angle(F   1   1)"
"abs(F   1   2)" "angle(F   1   2)"
"abs(F   1   3)" "angle(F   1   3)"
Zone t="Diffraction force - beta =   0.000 deg",I=    64,F=POINT
  0.5000000E-01  0.2927144E+04 -0.1570814E+01  0.4701389E+06 -0.3217909E-04  0.6965622E+02 -0.1570498E+01
  0.8095238E-01  0.4776304E+04 -0.1570788E+01  0.4692069E+06 -0.8654852E-04  0.1134165E+03 -0.1570608E+01
  0.1119048E+00  0.6663896E+04 -0.1570793E+01  0.4678400E+06 -0.1718103E-03  0.1586716E+03 -0.1570664E+01
  0.1428571E+00  0.8626756E+04 -0.1570796E+01  0.4660362E+06 -0.2944723E-03  0.2062810E+03 -0.1570692E+01
  0.1738095E+00  0.1065614E+05 -0.1570783E+01  0.4637921E+06 -0.4643408E-03  0.2556009E+03 -0.1570701E+01
  0.2047619E+00  0.1281095E+05 -0.1570782E+01  0.4611044E+06 -0.6955532E-03  0.3086856E+03 -0.1570711E+01
  0.2357143E+00  0.1509439E+05 -0.1570770E+01  0.4579683E+06 -0.1009059E-02  0.3663009E+03 -0.1570712E+01
  0.2666667E+00  0.1753966E+05 -0.1570759E+01  0.4543789E+06 -0.1430124E-02  0.4274663E+03 -0.1570709E+01
  0.2976190E+00  0.2021336E+05 -0.1570741E+01  0.4503345E+06 -0.2001929E-02  0.4965299E+03 -0.1570702E+01
  0.3285715E+00  0.2312100E+05 -0.1570715E+01  0.4458329E+06 -0.2767756E-02  0.5728903E+03 -0.1570681E+01
  0.3595238E+00  0.2631049E+05 -0.1570675E+01  0.4408812E+06 -0.3796872E-02  0.6574521E+03 -0.1570646E+01
  0.3904762E+00  0.2985705E+05 -0.1570617E+01  0.4354826E+06 -0.5166202E-02  0.7538784E+03 -0.1570588E+01
  0.4214286E+00  0.3379505E+05 -0.1570527E+01  0.4296927E+06 -0.6924000E-02  0.8651746E+03 -0.1570506E+01
  0.4523810E+00  0.3806301E+05 -0.1570397E+01  0.4235025E+06 -0.9204612E-02  0.9800388E+03 -0.1570378E+01
  0.4833333E+00  0.4275882E+05 -0.1570217E+01  0.4169805E+06 -0.1194333E-01  0.1115777E+04 -0.1570200E+01
  0.5142857E+00  0.4789186E+05 -0.1569967E+01  0.4101578E+06 -0.1529798E-01  0.1265836E+04 -0.1569953E+01
  0.5452381E+00  0.5336575E+05 -0.1569636E+01  0.4030616E+06 -0.1921466E-01  0.1430890E+04 -0.1569623E+01
  0.5761905E+00  0.5910719E+05 -0.1569201E+01  0.3957124E+06 -0.2370024E-01  0.1600932E+04 -0.1569190E+01
  0.6071429E+00  0.6518450E+05 -0.1568641E+01  0.3881612E+06 -0.2888856E-01  0.1787435E+04 -0.1568633E+01
  0.6380953E+00  0.7159489E+05 -0.1567942E+01  0.3803837E+06 -0.3464457E-01  0.1997171E+04 -0.1567935E+01
  0.6690477E+00  0.7828063E+05 -0.1567073E+01  0.3724465E+06 -0.4109548E-01  0.2220842E+04 -0.1567066E+01
  0.7000000E+00  0.8513295E+05 -0.1566003E+01  0.3643925E+06 -0.4831548E-01  0.2445592E+04 -0.1565997E+01
  0.7309524E+00  0.9212202E+05 -0.1564712E+01  0.3561865E+06 -0.5623831E-01  0.2684213E+04 -0.1564706E+01
  0.7619048E+00  0.9939794E+05 -0.1563167E+01  0.3478762E+06 -0.6493907E-01  0.2945288E+04 -0.1563164E+01
  0.7928572E+00  0.1069113E+06 -0.1561339E+01  0.3395247E+06 -0.7445765E-01  0.3220627E+04 -0.1561338E+01
  0.8238096E+00  0.1145902E+06 -0.1559191E+01  0.3311489E+06 -0.8480705E-01  0.3515307E+04 -0.1559192E+01
  0.8547620E+00  0.1224037E+06 -0.1556695E+01  0.3227384E+06 -0.9599009E-01  0.3829830E+04 -0.1556696E+01
  0.8857143E+00  0.1302686E+06 -0.1553815E+01  0.3143244E+06 -0.1080197E+00  0.4140751E+04 -0.1553810E+01
  0.9166667E+00  0.1381547E+06 -0.1550525E+01  0.3059264E+06 -0.1209164E+00  0.4457652E+04 -0.1550517E+01
  0.9476191E+00  0.1461583E+06 -0.1546814E+01  0.2975940E+06 -0.1347052E+00  0.4801919E+04 -0.1546818E+01
  0.9785714E+00  0.1542634E+06 -0.1542668E+01  0.2893258E+06 -0.1493825E+00  0.5171761E+04 -0.1542692E+01
  0.1009524E+01  0.1624169E+06 -0.1538067E+01  0.2811352E+06 -0.1649490E+00  0.5555291E+04 -0.1538096E+01
  0.1040476E+01  0.1705220E+06 -0.1533000E+01  0.2730481E+06 -0.1814095E+00  0.5946165E+04 -0.1533037E+01
  0.1071429E+01  0.1785198E+06 -0.1527462E+01  0.2650716E+06 -0.1987634E+00  0.6344623E+04 -0.1527495E+01
  0.1102381E+01  0.1862843E+06 -0.1521453E+01  0.2572208E+06 -0.2170236E+00  0.6747751E+04 -0.1521453E+01
  0.1133333E+01  0.1938163E+06 -0.1515000E+01  0.2494789E+06 -0.2361736E+00  0.7155772E+04 -0.1514938E+01
  0.1164286E+01  0.2011123E+06 -0.1508171E+01  0.2418420E+06 -0.2562261E+00  0.7572585E+04 -0.1508109E+01
  0.1195238E+01  0.2081628E+06 -0.1501050E+01  0.2343536E+06 -0.2772022E+00  0.7991294E+04 -0.1501022E+01
  0.1226190E+01  0.2148781E+06 -0.1493696E+01  0.2270168E+06 -0.2990913E+00  0.8409161E+04 -0.1493731E+01
  0.1257143E+01  0.2211490E+06 -0.1486120E+01  0.2198575E+06 -0.3220817E+00  0.8829551E+04 -0.1486120E+01
  0.1288095E+01  0.2270047E+06 -0.1478588E+01  0.2128528E+06 -0.3456175E+00  0.9257216E+04 -0.1478543E+01
  0.1319048E+01  0.2323095E+06 -0.1471033E+01  0.2059981E+06 -0.3702286E+00  0.9680126E+04 -0.1470948E+01
  0.1350000E+01  0.2370606E+06 -0.1463698E+01  0.1992947E+06 -0.3957375E+00  0.1008513E+05 -0.1463633E+01
  0.1380952E+01  0.2412053E+06 -0.1456732E+01  0.1927487E+06 -0.4221122E+00  0.1046920E+05 -0.1456716E+01
  0.1411905E+01  0.2442681E+06 -0.1450813E+01  0.1864658E+06 -0.4489892E+00  0.1077634E+05 -0.1450868E+01
  0.1442857E+01  0.2471144E+06 -0.1445036E+01  0.1802793E+06 -0.4771661E+00  0.1112770E+05 -0.1445017E+01
  0.1473810E+01  0.2492697E+06 -0.1440049E+01  0.1742565E+06 -0.5062463E+00  0.1146576E+05 -0.1439938E+01
  0.1504762E+01  0.2507712E+06 -0.1436061E+01  0.1683861E+06 -0.5362375E+00  0.1178951E+05 -0.1435961E+01
  0.1535714E+01  0.2516195E+06 -0.1433231E+01  0.1626683E+06 -0.5671153E+00  0.1208927E+05 -0.1433114E+01
  0.1566667E+01  0.2518288E+06 -0.1431685E+01  0.1571102E+06 -0.5988692E+00  0.1235538E+05 -0.1431648E+01
  0.1597619E+01  0.2513997E+06 -0.1431539E+01  0.1517163E+06 -0.6315290E+00  0.1259027E+05 -0.1431483E+01
  0.1628572E+01  0.2503789E+06 -0.1432927E+01  0.1464805E+06 -0.6651071E+00  0.1279813E+05 -0.1432896E+01
  0.1659524E+01  0.2488247E+06 -0.1435975E+01  0.1414084E+06 -0.6995792E+00  0.1298752E+05 -0.1435956E+01
  0.1690476E+01  0.2467591E+06 -0.1440759E+01  0.1365000E+06 -0.7349509E+00  0.1315932E+05 -0.1440782E+01
  0.1721429E+01  0.2442401E+06 -0.1447353E+01  0.1317300E+06 -0.7712798E+00  0.1330762E+05 -0.1447362E+01
  0.1752381E+01  0.2413191E+06 -0.1455824E+01  0.1270988E+06 -0.8085052E+00  0.1343341E+05 -0.1455706E+01
  0.1783333E+01  0.2380596E+06 -0.1466206E+01  0.1225937E+06 -0.8466089E+00  0.1353484E+05 -0.1465939E+01
  0.1814286E+01  0.2345007E+06 -0.1478525E+01  0.1182264E+06 -0.8855824E+00  0.1360989E+05 -0.1478246E+01
  0.1845238E+01  0.2306759E+06 -0.1492792E+01  0.1140006E+06 -0.9255154E+00  0.1366026E+05 -0.1492740E+01
  0.1876190E+01  0.2266358E+06 -0.1509023E+01  0.1099103E+06 -0.9664237E+00  0.1369312E+05 -0.1509243E+01
  0.1907143E+01  0.2224285E+06 -0.1527206E+01  0.1059496E+06 -0.1008258E+01  0.1371373E+05 -0.1527613E+01
  0.1938095E+01  0.2180867E+06 -0.1547327E+01  0.1021422E+06 -0.1050987E+01  0.1372785E+05 -0.1547695E+01
  0.1969048E+01  0.2136425E+06 -0.1569357E+01  0.9843709E+05 -0.1094717E+01  0.1373035E+05 -0.1569715E+01
  0.2000000E+01  0.2091280E+06 -0.1593283E+01  0.9484580E+05 -0.1139451E+01  0.1372576E+05 -0.1593453E+01
