VARIABLES="w (rad/s)"
"A   1   1" "B   1   1"
"A   1   2" "B   1   2"
"A   1   3" "B   1   3"
Zone t="Motion of body    1 in DoF   1",I=    64,F=POINT
  0.5000000E-01  0.2036693E+06  0.2432148E-01 -0.3501892E-01 -0.1257097E-03 -0.1859031E+06 -0.1374293E-01
  0.8095238E-01  0.2047462E+06  0.1071782E+00 -0.2309014E-02  0.1125789E-04 -0.1872167E+06 -0.6013135E-01
  0.1119048E+00  0.2050694E+06  0.3008392E+00  0.1847612E-01 -0.1064411E-03 -0.1872167E+06 -0.1677615E+00
  0.1428571E+00  0.2053109E+06  0.6765374E+00  0.1463318E-01  0.3246265E-04 -0.1873048E+06 -0.3764248E+00
  0.1738095E+00  0.2056463E+06  0.1346463E+01  0.8164497E-02  0.2040989E-03 -0.1873088E+06 -0.7466253E+00
  0.2047619E+00  0.2059141E+06  0.2481380E+01  0.1043275E-02 -0.3243499E-03 -0.1874177E+06 -0.1370460E+01
  0.2357143E+00  0.2063819E+06  0.4366985E+01  0.9645403E-02  0.2617054E-03 -0.1874685E+06 -0.2399457E+01
  0.2666667E+00  0.2068452E+06  0.7443697E+01 -0.9841918E-02  0.6264821E-04 -0.1875006E+06 -0.4064966E+01
  0.2976190E+00  0.2072633E+06  0.1246751E+02 -0.1194580E-01  0.2633259E-03 -0.1876305E+06 -0.6767340E+01
  0.3285715E+00  0.2079419E+06  0.2060849E+02  0.4922618E-01  0.1115344E-02 -0.1876610E+06 -0.1110188E+02
  0.3595238E+00  0.2086516E+06  0.3380227E+02 -0.7401826E-01 -0.2510473E-02 -0.1877481E+06 -0.1806110E+02
  0.3904762E+00  0.2092574E+06  0.5501303E+02 -0.1258292E-01 -0.6815195E-03 -0.1878788E+06 -0.2914830E+02
  0.4214286E+00  0.2101904E+06  0.8838135E+02  0.6806971E-02 -0.1060009E-02 -0.1879155E+06 -0.4633416E+02
  0.4523810E+00  0.2112727E+06  0.1408035E+03 -0.1996813E-01 -0.9905696E-03 -0.1879740E+06 -0.7300894E+02
  0.4833333E+00  0.2122591E+06  0.2186491E+03 -0.2582418E-01 -0.1514077E-02 -0.1882873E+06 -0.1121695E+03
  0.5142857E+00  0.2133261E+06  0.3339656E+03  0.3560384E-01  0.4213214E-02 -0.1886097E+06 -0.1694553E+03
  0.5452381E+00  0.2147965E+06  0.4982559E+03 -0.5110162E-01 -0.5083084E-02 -0.1886645E+06 -0.2492246E+03
  0.5761905E+00  0.2162477E+06  0.7257171E+03 -0.3548614E-02  0.3597260E-02 -0.1889678E+06 -0.3580826E+03
  0.6071429E+00  0.2177795E+06  0.1037573E+04  0.2885167E-01  0.8073330E-02 -0.1892988E+06 -0.5047690E+03
  0.6380953E+00  0.2193897E+06  0.1450310E+04  0.7556517E-02 -0.6389618E-04 -0.1898420E+06 -0.6956326E+03
  0.6690477E+00  0.2211730E+06  0.1992351E+04 -0.7298153E-03 -0.1137733E-02 -0.1900575E+06 -0.9395930E+03
  0.7000000E+00  0.2232057E+06  0.2696365E+04 -0.1743861E-01 -0.7554054E-02 -0.1902566E+06 -0.1248644E+04
  0.7309524E+00  0.2253695E+06  0.3592233E+04  0.5845060E-03 -0.9937286E-03 -0.1906243E+06 -0.1633103E+04
  0.7619048E+00  0.2274637E+06  0.4720178E+04 -0.8811950E-03  0.4522324E-02 -0.1910050E+06 -0.2105358E+04
  0.7928572E+00  0.2296430E+06  0.6124841E+04 -0.2763628E-01 -0.1261520E-01 -0.1915273E+06 -0.2679910E+04
  0.8238096E+00  0.2319704E+06  0.7853609E+04  0.9927914E-02  0.7431030E-02 -0.1917548E+06 -0.3362032E+04
  0.8547620E+00  0.2344458E+06  0.9957589E+04 -0.2577758E-01 -0.1094055E-01 -0.1919321E+06 -0.4164527E+04
  0.8857143E+00  0.2368907E+06  0.1249101E+05  0.3169890E-02 -0.2952576E-02 -0.1920502E+06 -0.5098204E+04
  0.9166667E+00  0.2393301E+06  0.1551050E+05  0.2883079E-01  0.5401611E-02 -0.1921266E+06 -0.6170878E+04
  0.9476191E+00  0.2416719E+06  0.1906829E+05  0.5023899E-02  0.3349304E-02 -0.1920669E+06 -0.7381591E+04
  0.9785714E+00  0.2438550E+06  0.2321873E+05  0.7235116E-02  0.7385254E-02 -0.1922268E+06 -0.8752135E+04
  0.1009524E+01  0.2457079E+06  0.2799435E+05  0.1215233E-01 -0.3601074E-02 -0.1919668E+06 -0.1024437E+05
  0.1040476E+01  0.2475058E+06  0.3344388E+05 -0.2123521E-01 -0.2001953E-01 -0.1916340E+06 -0.1186627E+05
  0.1071429E+01  0.2489133E+06  0.3957723E+05 -0.3326823E-01 -0.2932739E-01 -0.1908686E+06 -0.1356909E+05
  0.1102381E+01  0.2500030E+06  0.4640718E+05 -0.4407186E-01 -0.1611328E-01 -0.1899863E+06 -0.1534921E+05
  0.1133333E+01  0.2506582E+06  0.5393509E+05 -0.1960306E-01 -0.3347778E-01 -0.1891866E+06 -0.1720353E+05
  0.1164286E+01  0.2506163E+06  0.6209611E+05  0.2096913E-03 -0.1791382E-01 -0.1879316E+06 -0.1902987E+05
  0.1195238E+01  0.2501246E+06  0.7085188E+05  0.3462225E-01  0.4852295E-02 -0.1866810E+06 -0.2083131E+05
  0.1226190E+01  0.2488873E+06  0.8009528E+05 -0.1971139E-01 -0.1681519E-01 -0.1852566E+06 -0.2254246E+05
  0.1257143E+01  0.2469666E+06  0.8976920E+05 -0.1398260E-01 -0.5377197E-01 -0.1836864E+06 -0.2412107E+05
  0.1288095E+01  0.2445269E+06  0.9955145E+05  0.1914315E-01 -0.1666260E-01 -0.1818491E+06 -0.2542538E+05
  0.1319048E+01  0.2413860E+06  0.1095148E+06  0.6940821E-02 -0.2130127E-01 -0.1799571E+06 -0.2651854E+05
  0.1350000E+01  0.2375895E+06  0.1194118E+06  0.4521123E-03  0.4699707E-02 -0.1778393E+06 -0.2726579E+05
  0.1380952E+01  0.2334040E+06  0.1291498E+06 -0.7602034E-02 -0.8666992E-02 -0.1758490E+06 -0.2771547E+05
  0.1411905E+01  0.2278232E+06  0.1376514E+06  0.1037495E-01  0.3228760E-01 -0.1741248E+06 -0.2773973E+05
  0.1442857E+01  0.2227411E+06  0.1466066E+06 -0.3637937E-02 -0.1855469E-01 -0.1721114E+06 -0.2745405E+05
  0.1473810E+01  0.2173402E+06  0.1549858E+06  0.1847028E-01 -0.9765625E-02 -0.1700981E+06 -0.2675564E+05
  0.1504762E+01  0.2117434E+06  0.1627831E+06 -0.4056134E-03  0.3967285E-01 -0.1683798E+06 -0.2578568E+05
  0.1535714E+01  0.2058973E+06  0.1698409E+06 -0.7074400E-02 -0.2685547E-01 -0.1666284E+06 -0.2437410E+05
  0.1566667E+01  0.2000293E+06  0.1761924E+06  0.7168384E-02  0.2563477E-02 -0.1651359E+06 -0.2270387E+05
  0.1597619E+01  0.1942303E+06  0.1817895E+06 -0.1146115E-02 -0.3674316E-01 -0.1638616E+06 -0.2075520E+05
  0.1628572E+01  0.1884012E+06  0.1865995E+06  0.4122550E-02 -0.2807617E-02 -0.1626486E+06 -0.1849246E+05
  0.1659524E+01  0.1827512E+06  0.1906863E+06  0.1154852E-01  0.4882812E-03 -0.1616959E+06 -0.1607575E+05
  0.1690476E+01  0.1772483E+06  0.1939835E+06  0.7654324E-02  0.2197266E-02 -0.1608212E+06 -0.1335953E+05
  0.1721429E+01  0.1720039E+06  0.1966443E+06  0.2411015E-01  0.3259277E-01 -0.1602357E+06 -0.1056630E+05
  0.1752381E+01  0.1669711E+06  0.1987098E+06 -0.1159834E-01  0.2294922E-01 -0.1598775E+06 -0.7746114E+04
  0.1783333E+01  0.1620852E+06  0.2001054E+06 -0.8316753E-02  0.8544922E-02 -0.1594871E+06 -0.4638645E+04
  0.1814286E+01  0.1575597E+06  0.2010252E+06 -0.1352385E-01  0.1586914E-02 -0.1593982E+06 -0.1643065E+04
  0.1845238E+01  0.1533296E+06  0.2014493E+06  0.1237084E-01 -0.1782227E-01 -0.1594546E+06  0.1406538E+04
  0.1876190E+01  0.1492679E+06  0.2013842E+06 -0.6148440E-02  0.4882812E-03 -0.1595356E+06  0.4504865E+04
  0.1907143E+01  0.1455132E+06  0.2009243E+06 -0.1212931E-01  0.1062012E-01 -0.1598097E+06  0.7476305E+04
  0.1938095E+01  0.1420205E+06  0.2000109E+06 -0.2245404E-01 -0.7202148E-02 -0.1601202E+06  0.1056157E+05
  0.1969048E+01  0.1388307E+06  0.1988175E+06 -0.3719676E-03 -0.1013184E-01 -0.1605347E+06  0.1365474E+05
  0.2000000E+01  0.1358826E+06  0.1974812E+06 -0.1342773E-01  0.7324219E-02 -0.1611407E+06  0.1643123E+05
Zone t="Motion of body    1 in DoF   2",I=    64,F=POINT
  0.5000000E-01 -0.4272461E-02  0.1187325E-03  0.1857111E+06  0.5850513E+03  0.6729126E-01 -0.7343292E-04
  0.8095238E-01  0.2167645E-01 -0.1382828E-03  0.1828887E+06  0.9696547E+03 -0.6220200E-02 -0.1926422E-03
  0.1119048E+00 -0.1363551E-02 -0.4386902E-04  0.1813731E+06  0.1387717E+04 -0.1827159E-01 -0.2174377E-03
  0.1428571E+00  0.2328491E-01 -0.1192093E-03  0.1805885E+06  0.1854650E+04  0.4550171E-01  0.2098083E-03
  0.1738095E+00  0.1790922E-01  0.2307892E-03  0.1803280E+06  0.2390059E+04 -0.5794159E-02  0.2136230E-03
  0.2047619E+00  0.1117795E-01  0.1049042E-03  0.1805129E+06  0.3018089E+04 -0.2787036E-01 -0.3395081E-03
  0.2357143E+00  0.3314394E-01  0.4959106E-04  0.1808925E+06  0.3772869E+04  0.9632457E-01 -0.4386902E-03
  0.2666667E+00 -0.2162933E-01 -0.7514954E-03  0.1816622E+06  0.4682286E+04  0.5836486E-01 -0.4653931E-03
  0.2976190E+00 -0.6972656E-02  0.8735657E-03  0.1824942E+06  0.5810342E+04  0.2645508E-01  0.5340576E-04
  0.3285715E+00  0.3213633E-01  0.6103516E-03  0.1834481E+06  0.7188895E+04 -0.3102178E-01 -0.5645752E-03
  0.3595238E+00  0.1731620E-01 -0.6408691E-03  0.1843348E+06  0.8892158E+04 -0.1867433E-02  0.1617432E-02
  0.3904762E+00 -0.2813572E-02 -0.1678467E-03  0.1852587E+06  0.1097443E+05 -0.2000762E-01 -0.1693726E-02
  0.4214286E+00  0.1173116E-01 -0.8239746E-03  0.1854813E+06  0.1340849E+05  0.1651053E-01  0.1602173E-02
  0.4523810E+00  0.3238075E-02 -0.8697510E-03  0.1854973E+06  0.1631462E+05  0.2212685E-01 -0.7629395E-03
  0.4833333E+00  0.2778152E-02  0.1983643E-03  0.1848535E+06  0.1944165E+05  0.2626616E-01 -0.4608154E-02
  0.5142857E+00 -0.2800836E-01 -0.1556396E-02  0.1836168E+06  0.2293993E+05 -0.6123861E-01 -0.9765625E-03
  0.5452381E+00 -0.2238844E-02 -0.4119873E-03  0.1819269E+06  0.2660733E+05 -0.4701573E-02 -0.8209229E-02
  0.5761905E+00 -0.3071934E-02  0.3967285E-02  0.1797509E+06  0.3037339E+05 -0.2351619E-01 -0.0000000E+00
  0.6071429E+00  0.5669807E-01 -0.1495361E-02  0.1772132E+06  0.3432199E+05 -0.1528033E-01  0.4394531E-02
  0.6380953E+00 -0.1319999E-01 -0.2410889E-02  0.1745447E+06  0.3821833E+05 -0.3118259E-01  0.9948730E-02
  0.6690477E+00 -0.2554354E-02  0.2838135E-02  0.1715325E+06  0.4215880E+05  0.4908008E-01 -0.1116943E-01
  0.7000000E+00 -0.2092634E-01 -0.3265381E-02  0.1682713E+06  0.4614962E+05  0.1220703E-01  0.8850098E-02
  0.7309524E+00  0.9185094E-03 -0.4547119E-02  0.1649823E+06  0.5005891E+05  0.1486315E-01 -0.7385254E-02
  0.7619048E+00  0.3548812E-01  0.7873535E-02  0.1615839E+06  0.5391215E+05 -0.6504821E-01 -0.1501465E-01
  0.7928572E+00 -0.8544921E-02 -0.1165771E-01  0.1580512E+06  0.5770340E+05 -0.1647399E-01 -0.6103516E-03
  0.8238096E+00 -0.4297157E-02 -0.2319336E-02  0.1544645E+06  0.6140354E+05 -0.1674409E-01  0.3906250E-02
  0.8547620E+00  0.2684867E-01  0.5493164E-03  0.1508585E+06  0.6497907E+05  0.6712167E-02 -0.4150391E-02
  0.8857143E+00  0.3927907E-02  0.5493164E-02  0.1472319E+06  0.6841445E+05  0.1640074E-01 -0.6347656E-02
  0.9166667E+00 -0.3995028E-03 -0.1611328E-01  0.1436431E+06  0.7168397E+05 -0.6658381E-03 -0.1586914E-02
  0.9476191E+00 -0.5281535E-02 -0.6103516E-02  0.1400873E+06  0.7477709E+05  0.7857893E-02  0.1953125E-01
  0.9785714E+00  0.9667613E-02 -0.4272461E-03  0.1365807E+06  0.7768580E+05 -0.1172588E-01  0.6469727E-02
  0.1009524E+01  0.7799257E-02  0.5249023E-02  0.1331108E+06  0.8042373E+05  0.1680770E-01 -0.2929688E-02
  0.1040476E+01  0.1671833E-01 -0.1037598E-01  0.1297479E+06  0.8296764E+05 -0.3109022E-01  0.1098633E-02
  0.1071429E+01  0.2067871E-01 -0.4882812E-02  0.1264675E+06  0.8531955E+05  0.2962240E-02  0.2319336E-01
  0.1102381E+01 -0.8858666E-02 -0.1782227E-01  0.1233046E+06  0.8746450E+05 -0.7197666E-02 -0.4760742E-02
  0.1133333E+01 -0.8509018E-02  0.1892090E-02  0.1202554E+06  0.8940715E+05  0.5191579E-01 -0.2075195E-02
  0.1164286E+01  0.2516296E-02  0.6591797E-02  0.1173148E+06  0.9116180E+05  0.1048457E-02 -0.6103516E-02
  0.1195238E+01  0.6229963E-02 -0.2929688E-02  0.1145402E+06  0.9270461E+05 -0.5412919E-02  0.9399414E-02
  0.1226190E+01  0.1697370E-01 -0.3662109E-02  0.1119090E+06  0.9406641E+05 -0.1493287E-02 -0.1684570E-01
  0.1257143E+01  0.1063260E-01 -0.1684570E-01  0.1094248E+06  0.9530238E+05  0.1213767E-01  0.6591797E-02
  0.1288095E+01 -0.4122411E-02  0.1416016E-01  0.1070502E+06  0.9627998E+05 -0.2407109E-01  0.4638672E-02
  0.1319048E+01 -0.8837978E-02  0.1489258E-01  0.1048156E+06  0.9717983E+05 -0.9439516E-02 -0.3662109E-02
  0.1350000E+01 -0.1311126E-02 -0.1489258E-01  0.1027110E+06  0.9795369E+05  0.9946470E-02 -0.4638672E-02
  0.1380952E+01 -0.9060564E-02 -0.1391602E-01  0.1007671E+06  0.9855909E+05  0.1573444E-01  0.1416016E-01
  0.1411905E+01  0.1266608E-01 -0.3417969E-02  0.9898591E+05  0.9917214E+05 -0.7781210E-02 -0.1342773E-01
  0.1442857E+01 -0.1645532E-01  0.9399414E-02  0.9732644E+05  0.9960916E+05 -0.3130318E-02 -0.5371094E-02
  0.1473810E+01 -0.9110902E-03 -0.4394531E-02  0.9578085E+05  0.9997318E+05 -0.2981750E-01 -0.1708984E-02
  0.1504762E+01  0.1074875E-01 -0.1306152E-01  0.9436702E+05  0.1002959E+06  0.2701385E-01 -0.3417969E-02
  0.1535714E+01  0.1410906E-01  0.2075195E-02  0.9304825E+05  0.1006025E+06 -0.1398982E-01  0.5615234E-02
  0.1566667E+01 -0.5415247E-02 -0.5615234E-02  0.9183621E+05  0.1009036E+06  0.3872486E-01  0.4150391E-02
  0.1597619E+01  0.1016222E-01 -0.6835938E-02  0.9071296E+05  0.1011880E+06 -0.9627364E-02  0.1293945E-01
  0.1628572E+01  0.2623441E-03 -0.2416992E-01  0.8965328E+05  0.1015215E+06  0.3747772E-03 -0.1464844E-02
  0.1659524E+01  0.1574129E-01 -0.1037598E-01  0.8865993E+05  0.1018826E+06 -0.3861765E-01  0.2441406E-03
  0.1690476E+01  0.7401587E-02  0.8911133E-02  0.8769316E+05  0.1022725E+06 -0.8520851E-02 -0.2978516E-01
  0.1721429E+01 -0.4006540E-02 -0.1232910E-01  0.8676335E+05  0.1027017E+06  0.7091222E-02  0.4882812E-03
  0.1752381E+01  0.5050328E-02 -0.1745605E-01  0.8584938E+05  0.1032104E+06 -0.9264739E-02 -0.3906250E-02
  0.1783333E+01 -0.1985069E-02  0.1110840E-01  0.8489151E+05  0.1037590E+06 -0.3217180E-01  0.5859375E-02
  0.1814286E+01  0.6190022E-02 -0.1574707E-01  0.8393895E+05  0.1042987E+06 -0.1301923E-01  0.9765625E-03
  0.1845238E+01 -0.1480201E-01 -0.1269531E-01  0.8296030E+05  0.1048133E+06 -0.4961567E-03  0.4882812E-02
  0.1876190E+01  0.1488313E-01  0.5371094E-02  0.8192234E+05  0.1053016E+06 -0.1727419E-01 -0.3662109E-02
  0.1907143E+01 -0.4544490E-02  0.3662109E-03  0.8085922E+05  0.1056661E+06 -0.1011309E-01  0.1196289E-01
  0.1938095E+01 -0.1163642E-01 -0.5126953E-02  0.7977365E+05  0.1059072E+06  0.7274731E-02 -0.7568359E-02
  0.1969048E+01  0.4866576E-02  0.6713867E-02  0.7870472E+05  0.1059547E+06 -0.2045822E-02 -0.9521484E-02
  0.2000000E+01  0.4913330E-02 -0.2563477E-02  0.7764648E+05  0.1058667E+06  0.2688599E-01  0.7568359E-02
Zone t="Motion of body    1 in DoF   3",I=    64,F=POINT
  0.5000000E-01 -0.1838520E+06 -0.1300755E-01  0.3364563E-01  0.1531296E-03  0.5727566E+06  0.7830715E-02
  0.8095238E-01 -0.1853612E+06 -0.5681443E-01 -0.6542991E-01 -0.1442385E-03  0.5736246E+06  0.3215332E-01
  0.1119048E+00 -0.1854189E+06 -0.1588546E+00 -0.5351939E-02 -0.1733425E-03  0.5735792E+06  0.8931671E-01
  0.1428571E+00 -0.1854537E+06 -0.3555871E+00 -0.3762436E-01 -0.4246517E-03  0.5738479E+06  0.1963265E+00
  0.1738095E+00 -0.1854898E+06 -0.7054480E+00 -0.5662474E-02 -0.4420278E-03  0.5737246E+06  0.3908844E+00
  0.2047619E+00 -0.1855425E+06 -0.1294627E+01  0.4966736E-01  0.1120794E-02  0.5739249E+06  0.7138292E+00
  0.2357143E+00 -0.1856267E+06 -0.2266565E+01 -0.3113718E-01 -0.6575370E-03  0.5738193E+06  0.1246210E+01
  0.2666667E+00 -0.1856382E+06 -0.3839776E+01  0.5046844E-01  0.8070655E-04  0.5739326E+06  0.2099139E+01
  0.2976190E+00 -0.1857193E+06 -0.6390319E+01  0.1109985E-01  0.1058262E-02  0.5739975E+06  0.3471925E+01
  0.3285715E+00 -0.1857731E+06 -0.1047932E+02  0.3392426E-01  0.1892541E-02  0.5739138E+06  0.5644073E+01
  0.3595238E+00 -0.1858789E+06 -0.1704583E+02 -0.4728001E-01 -0.6537288E-03  0.5738065E+06  0.9106260E+01
  0.3904762E+00 -0.1859215E+06 -0.2748303E+02  0.2481414E-02 -0.2748176E-02  0.5740506E+06  0.1455721E+02
  0.4214286E+00 -0.1859256E+06 -0.4371497E+02  0.1073546E-01  0.3514439E-03  0.5743401E+06  0.2290142E+02
  0.4523810E+00 -0.1860037E+06 -0.6892117E+02  0.5040941E-01  0.2778918E-02  0.5744032E+06  0.3574131E+02
  0.4833333E+00 -0.1863004E+06 -0.1057318E+03  0.5894102E-01  0.3351390E-02  0.5741608E+06  0.5423299E+02
  0.5142857E+00 -0.1865339E+06 -0.1595529E+03 -0.3055997E-01 -0.2068579E-02  0.5744143E+06  0.8093921E+02
  0.5452381E+00 -0.1865845E+06 -0.2349360E+03  0.9243628E-01  0.1533747E-01  0.5747204E+06  0.1175117E+03
  0.5761905E+00 -0.1868900E+06 -0.3372347E+03 -0.5762525E-01 -0.1030970E-01  0.5746958E+06  0.1663795E+03
  0.6071429E+00 -0.1871808E+06 -0.4749063E+03 -0.5790440E-01 -0.1257396E-01  0.5747157E+06  0.2312746E+03
  0.6380953E+00 -0.1876366E+06 -0.6530166E+03 -0.6839126E-01 -0.1333785E-01  0.5747921E+06  0.3131789E+03
  0.6690477E+00 -0.1877913E+06 -0.8820583E+03 -0.2755053E-01 -0.3320694E-02  0.5751238E+06  0.4158911E+03
  0.7000000E+00 -0.1879572E+06 -0.1172566E+04 -0.1126970E-01 -0.7365227E-02  0.5754585E+06  0.5431385E+03
  0.7309524E+00 -0.1883194E+06 -0.1531573E+04 -0.2039509E-01 -0.1161671E-01  0.5752868E+06  0.6963112E+03
  0.7619048E+00 -0.1886396E+06 -0.1970892E+04  0.4658317E-01  0.1089478E-01  0.5751746E+06  0.8790802E+03
  0.7928572E+00 -0.1890520E+06 -0.2501947E+04 -0.1553097E-01 -0.9105682E-02  0.5752093E+06  0.1094542E+04
  0.8238096E+00 -0.1891911E+06 -0.3137284E+04 -0.3398829E-01 -0.1359558E-01  0.5755509E+06  0.1342590E+04
  0.8547620E+00 -0.1893219E+06 -0.3883883E+04  0.2459938E-01 -0.4064560E-02  0.5757705E+06  0.1622976E+04
  0.8857143E+00 -0.1894068E+06 -0.4749288E+04 -0.2082825E-01 -0.7816315E-02  0.5757658E+06  0.1936917E+04
  0.9166667E+00 -0.1894474E+06 -0.5737585E+04  0.2996271E-03 -0.3437042E-02  0.5755678E+06  0.2282401E+04
  0.9476191E+00 -0.1893428E+06 -0.6852499E+04 -0.2846876E-01 -0.2754974E-01  0.5754283E+06  0.2651323E+04
  0.9785714E+00 -0.1893754E+06 -0.8088228E+04  0.3124822E-01  0.3693771E-01  0.5752381E+06  0.3050129E+04
  0.1009524E+01 -0.1890545E+06 -0.9447627E+04 -0.1426841E-01 -0.1565170E-01  0.5749759E+06  0.3454331E+04
  0.1040476E+01 -0.1886532E+06 -0.1091471E+05  0.2845048E-02  0.1956940E-01  0.5749211E+06  0.3868505E+04
  0.1071429E+01 -0.1878895E+06 -0.1248003E+05  0.9114583E-03  0.1633453E-01  0.5749967E+06  0.4269388E+04
  0.1102381E+01 -0.1870001E+06 -0.1408482E+05  0.5204466E-02  0.2134705E-01  0.5746150E+06  0.4650557E+04
  0.1133333E+01 -0.1861487E+06 -0.1570545E+05  0.2181109E-01  0.1042175E-01  0.5742789E+06  0.5002848E+04
  0.1164286E+01 -0.1849151E+06 -0.1730937E+05 -0.1100879E-01 -0.2026367E-01  0.5736401E+06  0.5307207E+04
  0.1195238E+01 -0.1836447E+06 -0.1883650E+05  0.1169395E-01  0.2807617E-01  0.5730782E+06  0.5534958E+04
  0.1226190E+01 -0.1822142E+06 -0.2026142E+05 -0.1177208E-01 -0.5218506E-01  0.5726372E+06  0.5722339E+04
  0.1257143E+01 -0.1806611E+06 -0.2152284E+05  0.2410542E-01  0.3724670E-01  0.5722649E+06  0.5811066E+04
  0.1288095E+01 -0.1788754E+06 -0.2257595E+05 -0.1881146E-01 -0.4127502E-01  0.5717578E+06  0.5773512E+04
  0.1319048E+01 -0.1770718E+06 -0.2339531E+05  0.2105382E-02 -0.1585388E-01  0.5715198E+06  0.5672187E+04
  0.1350000E+01 -0.1750908E+06 -0.2391536E+05  0.1401548E-01 -0.7339478E-02  0.5711918E+06  0.5464073E+04
  0.1380952E+01 -0.1731933E+06 -0.2405253E+05  0.1770125E-01  0.3973389E-01  0.5708044E+06  0.5116938E+04
  0.1411905E+01 -0.1743929E+06 -0.2649831E+05 -0.4943230E-01 -0.6442261E-01  0.5696730E+06  0.5334951E+04
  0.1442857E+01 -0.1724580E+06 -0.2618861E+05  0.2220834E-02 -0.4060364E-01  0.5695761E+06  0.4879789E+04
  0.1473810E+01 -0.1704960E+06 -0.2545011E+05  0.1946420E-02  0.2677917E-01  0.5692249E+06  0.4296045E+04
  0.1504762E+01 -0.1688206E+06 -0.2441475E+05 -0.7260479E-02 -0.3977966E-01  0.5692686E+06  0.3720681E+04
  0.1535714E+01 -0.1671640E+06 -0.2302329E+05  0.2424373E-01  0.1516724E-01  0.5691719E+06  0.3088396E+04
  0.1566667E+01 -0.1657508E+06 -0.2132643E+05 -0.7285260E-02 -0.2668762E-01  0.5692371E+06  0.2521307E+04
  0.1597619E+01 -0.1645064E+06 -0.1925731E+05 -0.1058246E-01 -0.2304077E-02  0.5692325E+06  0.1853199E+04
  0.1628572E+01 -0.1633685E+06 -0.1705726E+05 -0.4384894E-02 -0.3799438E-01  0.5695022E+06  0.1314532E+04
  0.1659524E+01 -0.1624682E+06 -0.1468873E+05 -0.2077997E-01  0.2662659E-02  0.5699786E+06  0.8502759E+03
  0.1690476E+01 -0.1616213E+06 -0.1198150E+05  0.8773589E-02  0.3845215E-02  0.5701637E+06  0.3170845E+03
  0.1721429E+01 -0.1610484E+06 -0.9084521E+04 -0.2481928E-03  0.5615234E-02  0.5703706E+06 -0.1913373E+03
  0.1752381E+01 -0.1607076E+06 -0.6219337E+04  0.3448155E-02  0.1705170E-02  0.5709293E+06 -0.4203304E+03
  0.1783333E+01 -0.1603752E+06 -0.3221633E+04  0.1920041E-01  0.2708435E-02  0.5712181E+06 -0.7562383E+03
  0.1814286E+01 -0.1603241E+06 -0.2110032E+03  0.9655089E-02  0.3147030E-01  0.5716935E+06 -0.9140887E+03
  0.1845238E+01 -0.1603729E+06  0.2966775E+04  0.1630702E-01 -0.3283596E-01  0.5719824E+06 -0.1166931E+04
  0.1876190E+01 -0.1604761E+06  0.5966987E+04  0.1899835E-01 -0.9914398E-02  0.5724788E+06 -0.1079458E+04
  0.1907143E+01 -0.1607609E+06  0.8856322E+04  0.1228933E-01  0.1765823E-01  0.5731248E+06 -0.8683085E+03
  0.1938095E+01 -0.1610922E+06  0.1188673E+05  0.9762626E-03 -0.1609802E-02  0.5735574E+06 -0.8554859E+03
  0.1969048E+01 -0.1615052E+06  0.1509999E+05  0.5517519E-02  0.9445190E-02  0.5736907E+06 -0.9624688E+03
  0.2000000E+01 -0.1621353E+06  0.1801081E+05 -0.2505493E-01 -0.1636505E-01  0.5740966E+06 -0.4183634E+03
