VARIABLES="w (rad/s)"
"A   1   1" "B   1   1"
"A   1   2" "B   1   2"
"A   1   3" "B   1   3"
Zone t="Motion of body    1 in DoF   1",I=    64,F=POINT
  0.5000000E-01  0.9015552E+05  0.7902049E-02 -0.8583069E-02 -0.2360911E-04 -0.1788700E+06 -0.1103508E-01
  0.8095238E-01  0.9057574E+05  0.3460855E-01 -0.1072042E-01 -0.4649423E-04 -0.1793030E+06 -0.4805356E-01
  0.1119048E+00  0.9065501E+05  0.9684741E-01 -0.3170257E-02 -0.5338213E-04 -0.1794152E+06 -0.1334582E+00
  0.1428571E+00  0.9084407E+05  0.2176792E+00 -0.1231003E-01 -0.9322795E-04 -0.1794208E+06 -0.2994083E+00
  0.1738095E+00  0.9085155E+05  0.4323191E+00  0.1097379E-03 -0.2280110E-05 -0.1795100E+06 -0.5931367E+00
  0.2047619E+00  0.9101360E+05  0.7953796E+00 -0.3800503E-02 -0.1183562E-03 -0.1794951E+06 -0.1087396E+01
  0.2357143E+00  0.9109193E+05  0.1395601E+01 -0.1090772E-01 -0.1749978E-03 -0.1796357E+06 -0.1901006E+01
  0.2666667E+00  0.9118028E+05  0.2371581E+01 -0.1716614E-02  0.2711732E-04 -0.1796898E+06 -0.3215579E+01
  0.2976190E+00  0.9142001E+05  0.3963220E+01 -0.6562500E-02 -0.6967969E-04 -0.1797039E+06 -0.5343671E+01
  0.3285715E+00  0.9153845E+05  0.6523126E+01  0.1486073E-01  0.2261773E-03 -0.1798719E+06 -0.8745477E+01
  0.3595238E+00  0.9167278E+05  0.1065190E+02 -0.8912749E-02 -0.3995262E-03 -0.1799976E+06 -0.1419432E+02
  0.3904762E+00  0.9191862E+05  0.1726817E+02  0.1172321E-03 -0.1496375E-03 -0.1800489E+06 -0.2283812E+02
  0.4214286E+00  0.9222765E+05  0.2761444E+02  0.8653543E-02  0.8514524E-04 -0.1801663E+06 -0.3622142E+02
  0.4523810E+00  0.9241655E+05  0.4373793E+02 -0.3069426E-02 -0.2079308E-03 -0.1804435E+06 -0.5695116E+02
  0.4833333E+00  0.9270766E+05  0.6753972E+02  0.1569024E-01  0.1846105E-02 -0.1805748E+06 -0.8712449E+02
  0.5142857E+00  0.9311612E+05  0.1026186E+03  0.1691183E-02 -0.3349185E-03 -0.1807231E+06 -0.1310548E+03
  0.5452381E+00  0.9350271E+05  0.1520981E+03 -0.7556099E-03 -0.2329350E-03 -0.1810216E+06 -0.1923086E+03
  0.5761905E+00  0.9383309E+05  0.2199541E+03 -0.7679836E-02 -0.2269864E-02 -0.1813412E+06 -0.2752379E+03
  0.6071429E+00  0.9423607E+05  0.3121647E+03 -0.1053036E-01 -0.2151847E-02 -0.1816171E+06 -0.3862828E+03
  0.6380953E+00  0.9476223E+05  0.4332290E+03 -0.6360865E-02 -0.1916647E-02 -0.1818454E+06 -0.5293624E+03
  0.6690477E+00  0.9532901E+05  0.5906953E+03 -0.7412187E-02 -0.2662182E-02 -0.1821462E+06 -0.7123452E+03
  0.7000000E+00  0.9582662E+05  0.7927289E+03 -0.7672991E-02 -0.1232147E-02 -0.1825710E+06 -0.9438016E+03
  0.7309524E+00  0.9633541E+05  0.1046717E+04 -0.2087521E-02 -0.4386902E-04 -0.1829740E+06 -0.1229308E+04
  0.7619048E+00  0.9692412E+05  0.1363225E+04  0.1453972E-01  0.2603531E-02 -0.1832706E+06 -0.1577150E+04
  0.7928572E+00  0.9758472E+05  0.1753232E+04  0.7929071E-02  0.4004478E-02 -0.1835455E+06 -0.1996275E+04
  0.8238096E+00  0.9826118E+05  0.2227970E+04  0.5297357E-02  0.1563072E-02 -0.1838439E+06 -0.2495240E+04
  0.8547620E+00  0.9891995E+05  0.2799049E+04  0.1221043E-01  0.9136200E-03 -0.1841594E+06 -0.3081701E+04
  0.8857143E+00  0.9954992E+05  0.3478966E+04  0.5857406E-03 -0.2590179E-02 -0.1844723E+06 -0.3762996E+04
  0.9166667E+00  0.1001476E+06  0.4279653E+04 -0.5126953E-02  0.8888245E-03 -0.1847571E+06 -0.4544910E+04
  0.9476191E+00  0.1007446E+06  0.5213148E+04  0.2286518E-02  0.4653931E-03 -0.1849214E+06 -0.5429848E+04
  0.9785714E+00  0.1013533E+06  0.6291514E+04 -0.5738196E-02 -0.4146576E-02 -0.1849573E+06 -0.6419533E+04
  0.1009524E+01  0.1019594E+06  0.7525795E+04  0.2660212E-02 -0.1243591E-02 -0.1849392E+06 -0.7515933E+04
  0.1040476E+01  0.1025094E+06  0.8924538E+04 -0.1173216E-02 -0.8392334E-04 -0.1848587E+06 -0.8716329E+04
  0.1071429E+01  0.1029457E+06  0.1049414E+05 -0.1794434E-02 -0.6614685E-02 -0.1847162E+06 -0.1001586E+05
  0.1102381E+01  0.1032983E+06  0.1223976E+05  0.9356966E-02  0.1335144E-02 -0.1845207E+06 -0.1140476E+05
  0.1133333E+01  0.1035179E+06  0.1415986E+05  0.4416073E-02  0.1045227E-02 -0.1841909E+06 -0.1286617E+05
  0.1164286E+01  0.1036428E+06  0.1625049E+05 -0.7339196E-02  0.1106262E-02 -0.1837280E+06 -0.1438284E+05
  0.1195238E+01  0.1036491E+06  0.1850182E+05  0.8885357E-02 -0.4119873E-03 -0.1830787E+06 -0.1592894E+05
  0.1226190E+01  0.1035312E+06  0.2090530E+05 -0.6371359E-02 -0.9002686E-03 -0.1823281E+06 -0.1749034E+05
  0.1257143E+01  0.1032602E+06  0.2345542E+05  0.7136952E-02 -0.2593994E-03 -0.1814834E+06 -0.1905008E+05
  0.1288095E+01  0.1029015E+06  0.2610385E+05  0.1421521E-03  0.2593994E-03 -0.1805208E+06 -0.2054671E+05
  0.1319048E+01  0.1023498E+06  0.2885378E+05 -0.3886860E-02  0.8453369E-02 -0.1794587E+06 -0.2198523E+05
  0.1350000E+01  0.1016624E+06  0.3166685E+05  0.5108869E-02 -0.8239746E-03 -0.1783105E+06 -0.2332575E+05
  0.1380952E+01  0.1008296E+06  0.3451166E+05 -0.7071660E-03 -0.2532959E-02 -0.1770705E+06 -0.2453576E+05
  0.1411905E+01  0.9965184E+05  0.3722557E+05  0.5360389E-02  0.2868652E-02 -0.1758778E+06 -0.2553778E+05
  0.1442857E+01  0.9854191E+05  0.4004621E+05  0.4272461E-02 -0.5950928E-02 -0.1745791E+06 -0.2643997E+05
  0.1473810E+01  0.9732031E+05  0.4280477E+05 -0.6998829E-02  0.2655029E-02 -0.1732290E+06 -0.2713720E+05
  0.1504762E+01  0.9598183E+05  0.4547768E+05  0.4056134E-04 -0.3997803E-02 -0.1718884E+06 -0.2764211E+05
  0.1535714E+01  0.9456506E+05  0.4803734E+05  0.1085006E-01 -0.2075195E-02 -0.1705664E+06 -0.2793924E+05
  0.1566667E+01  0.9307256E+05  0.5045701E+05  0.3038771E-02  0.4425049E-02 -0.1692734E+06 -0.2802288E+05
  0.1597619E+01  0.9152420E+05  0.5271961E+05  0.4317032E-02  0.3967285E-02 -0.1680213E+06 -0.2787943E+05
  0.1628572E+01  0.8993531E+05  0.5481463E+05  0.2623441E-03  0.3387451E-02 -0.1668611E+06 -0.2755008E+05
  0.1659524E+01  0.8830679E+05  0.5672448E+05  0.9157901E-02  0.1831055E-02 -0.1657532E+06 -0.2701526E+05
  0.1690476E+01  0.8669595E+05  0.5844322E+05  0.2419055E-02  0.1953125E-02 -0.1647399E+06 -0.2628488E+05
  0.1721429E+01  0.8508841E+05  0.5996639E+05  0.4573838E-02 -0.4577637E-02 -0.1638195E+06 -0.2539746E+05
  0.1752381E+01  0.8348287E+05  0.6128666E+05 -0.9055760E-03 -0.5126953E-02 -0.1629646E+06 -0.2433938E+05
  0.1783333E+01  0.8192884E+05  0.6241533E+05 -0.1779717E-02  0.6774902E-02 -0.1622296E+06 -0.2315650E+05
  0.1814286E+01  0.8041040E+05  0.6334045E+05  0.5147138E-02  0.2380371E-02 -0.1615677E+06 -0.2183633E+05
  0.1845238E+01  0.7894512E+05  0.6409480E+05 -0.9261593E-03 -0.1220703E-02 -0.1610225E+06 -0.2041911E+05
  0.1876190E+01  0.7753657E+05  0.6468329E+05  0.2569983E-02 -0.2258301E-02 -0.1605991E+06 -0.1896321E+05
  0.1907143E+01  0.7615445E+05  0.6508791E+05 -0.1600173E-03 -0.3417969E-02 -0.1602076E+06 -0.1737876E+05
  0.1938095E+01  0.7486977E+05  0.6536166E+05  0.5621383E-02  0.4577637E-02 -0.1599632E+06 -0.1581507E+05
  0.1969048E+01  0.7364664E+05  0.6547078E+05 -0.4169137E-02 -0.7995605E-02 -0.1597646E+06 -0.1416302E+05
  0.2000000E+01  0.7247694E+05  0.6545394E+05 -0.3921509E-02  0.1208496E-01 -0.1596517E+06 -0.1253055E+05
Zone t="Motion of body    1 in DoF   2",I=    64,F=POINT
  0.5000000E-01 -0.6942749E-02 -0.1668930E-05  0.4958022E+05  0.1379881E+03  0.5409241E-01  0.5865097E-04
  0.8095238E-01 -0.5796096E-02 -0.1263618E-04  0.4895493E+05  0.2287346E+03 -0.4241046E-02 -0.1902580E-03
  0.1119048E+00  0.5181495E-02 -0.5316734E-04  0.4863868E+05  0.3274042E+03 -0.2522570E-02  0.2813339E-04
  0.1428571E+00 -0.6835937E-02  0.7629395E-05  0.4844729E+05  0.4377800E+03  0.1100159E-01 -0.6484985E-04
  0.1738095E+00 -0.4389515E-03  0.7820129E-04  0.4840601E+05  0.5643613E+03  0.5794159E-02 -0.3452301E-03
  0.2047619E+00  0.1281738E-01  0.1249313E-03  0.4843468E+05  0.7131174E+03 -0.1974771E-01  0.1029968E-03
  0.2357143E+00 -0.6085020E-02  0.1621246E-04  0.4855461E+05  0.8921379E+03 -0.5372943E-02 -0.2384186E-03
  0.2666667E+00 -0.1716614E-02 -0.2031326E-03  0.4872810E+05  0.1108100E+04 -0.8583069E-02 -0.7629395E-05
  0.2976190E+00 -0.4562988E-02 -0.1335144E-03  0.4893333E+05  0.1376702E+04 -0.6870117E-02 -0.2841949E-03
  0.3285715E+00 -0.3390105E-02 -0.6294250E-04  0.4918100E+05  0.1705447E+04  0.1922607E-01 -0.7133484E-03
  0.3595238E+00 -0.2673825E-02 -0.1144409E-04  0.4940988E+05  0.2113082E+04 -0.8148799E-02  0.3356934E-03
  0.3904762E+00 -0.6486846E-02 -0.1678467E-03  0.4961188E+05  0.2612375E+04 -0.9378572E-03 -0.2670288E-04
  0.4214286E+00 -0.1231048E-02  0.5798340E-03  0.4968962E+05  0.3198512E+04  0.1339670E-01 -0.1502991E-02
  0.4523810E+00  0.2664666E-02  0.5798340E-03  0.4972468E+05  0.3900976E+04 -0.8027729E-02  0.1281738E-02
  0.4833333E+00  0.1325936E-02 -0.2326965E-03  0.4957803E+05  0.4660539E+04 -0.1610065E-01  0.1419067E-02
  0.5142857E+00 -0.9494358E-03 -0.4577637E-03  0.4927474E+05  0.5513812E+04 -0.1578437E-01  0.7324219E-03
  0.5452381E+00 -0.5541139E-02  0.1731873E-02  0.4887435E+05  0.6411904E+04 -0.8507608E-02 -0.1388550E-02
  0.5761905E+00 -0.1573042E-01 -0.1907349E-03  0.4838149E+05  0.7337666E+04  0.1483003E-01  0.1098633E-02
  0.6071429E+00 -0.9047563E-03 -0.2899170E-03  0.4775753E+05  0.8314004E+04 -0.6333294E-02 -0.6362915E-02
  0.6380953E+00 -0.5595648E-02  0.7858276E-03  0.4708362E+05  0.9283752E+04  0.2486955E-02 -0.3967285E-03
  0.6690477E+00 -0.5610456E-02 -0.1480103E-02  0.4633980E+05  0.1026570E+05  0.2983120E-01 -0.1464844E-02
  0.7000000E+00  0.1351493E-02 -0.1098633E-02  0.4553038E+05  0.1126288E+05  0.9852817E-02 -0.1556396E-02
  0.7309524E+00  0.1344364E-01  0.7934570E-03  0.4471703E+05  0.1224491E+05  0.7264575E-02 -0.1525879E-03
  0.7619048E+00  0.5327224E-02 -0.1113892E-02  0.4385322E+05  0.1321681E+05 -0.2451324E-01 -0.7781982E-02
  0.7928572E+00  0.1054643E-01 -0.1480103E-02  0.4293099E+05  0.1417437E+05 -0.1785965E-01  0.4272461E-03
  0.8238096E+00 -0.4334202E-02  0.1098633E-02  0.4198114E+05  0.1510717E+05  0.8075692E-02  0.1434326E-02
  0.8547620E+00 -0.9639814E-03 -0.1525879E-03  0.4103452E+05  0.1600576E+05 -0.1535230E-01  0.6134033E-02
  0.8857143E+00 -0.6201959E-03  0.1907349E-02  0.4009202E+05  0.1686364E+05 -0.4961567E-02  0.3051758E-04
  0.9166667E+00 -0.1464844E-02 -0.2166748E-02  0.3914839E+05  0.1767761E+05  0.1098633E-01 -0.3692627E-02
  0.9476191E+00  0.2576358E-03 -0.2136230E-02  0.3818824E+05  0.1844566E+05  0.4186582E-02 -0.7751465E-02
  0.9785714E+00  0.6237169E-04  0.2014160E-02  0.3722677E+05  0.1916148E+05 -0.4366018E-02 -0.6103516E-03
  0.1009524E+01 -0.8252702E-02 -0.1525879E-02  0.3627685E+05  0.1981870E+05 -0.1650540E-01  0.2929688E-02
  0.1040476E+01  0.5866079E-03 -0.3784180E-02  0.3534500E+05  0.2041421E+05 -0.2757057E-02  0.1727295E-01
  0.1071429E+01  0.3104655E-02 -0.2044678E-02  0.3443271E+05  0.2094865E+05  0.4899089E-02 -0.1074219E-01
  0.1102381E+01  0.1799416E-02  0.1464844E-02  0.3355985E+05  0.2141454E+05  0.1661000E-02  0.1123047E-01
  0.1133333E+01 -0.2154182E-03  0.6713867E-03  0.3271801E+05  0.2181524E+05 -0.9963091E-02  0.6774902E-02
  0.1164286E+01  0.4718055E-03  0.6713867E-03  0.3191563E+05  0.2214971E+05 -0.8387653E-03 -0.4150391E-02
  0.1195238E+01 -0.1506425E-02  0.3509521E-02  0.3114099E+05  0.2242126E+05  0.4085221E-03 -0.2197266E-02
  0.1226190E+01 -0.3782995E-02  0.2014160E-02  0.3039571E+05  0.2262895E+05  0.4031876E-02  0.1104736E-01
  0.1257143E+01 -0.2451810E-02 -0.1373291E-02  0.2967886E+05  0.2278039E+05 -0.1344854E-01 -0.8544922E-02
  0.1288095E+01  0.2155974E-02  0.4943848E-02  0.2901911E+05  0.2284751E+05 -0.9334655E-02  0.3173828E-02
  0.1319048E+01  0.7889399E-02 -0.4577637E-02  0.2838996E+05  0.2286830E+05 -0.1656543E-01 -0.2136230E-02
  0.1350000E+01  0.3526476E-02  0.2380371E-02  0.2780808E+05  0.2282995E+05  0.9720414E-02  0.2563477E-02
  0.1380952E+01  0.4198798E-02  0.1342773E-02  0.2727115E+05  0.2273425E+05  0.3138049E-02  0.1037598E-02
  0.1411905E+01 -0.3890605E-03 -0.9155273E-04  0.2678813E+05  0.2266930E+05  0.9510368E-03 -0.7934570E-02
  0.1442857E+01 -0.1395953E-02 -0.2166748E-02  0.2632949E+05  0.2248059E+05 -0.8798731E-02  0.3112793E-02
  0.1473810E+01  0.3230229E-02  0.4150391E-02  0.2591421E+05  0.2224050E+05  0.1822180E-02 -0.4821777E-02
  0.1504762E+01  0.2595925E-02 -0.2075195E-02  0.2554063E+05  0.2196197E+05  0.2056460E-01  0.3479004E-02
  0.1535714E+01 -0.7948764E-03  0.2136230E-02  0.2521205E+05  0.2164189E+05  0.8266714E-02  0.5493164E-03
  0.1566667E+01 -0.1135643E-01  0.1983643E-02  0.2492959E+05  0.2128740E+05 -0.4830868E-02 -0.7934570E-03
  0.1597619E+01 -0.1528153E-03  0.4730225E-02  0.2468914E+05  0.2090032E+05 -0.3896790E-02 -0.1220703E-03
  0.1628572E+01  0.4028855E-02  0.2990723E-02  0.2449044E+05  0.2049205E+05 -0.1173053E-01 -0.2136230E-02
  0.1659524E+01  0.8955617E-02 -0.1983643E-02  0.2432654E+05  0.2007871E+05 -0.1342423E-01  0.1647949E-02
  0.1690476E+01 -0.5686585E-02  0.3967285E-03  0.2420896E+05  0.1964970E+05  0.2780108E-01  0.4455566E-02
  0.1721429E+01  0.7268502E-03  0.7324219E-03  0.2412974E+05  0.1922278E+05  0.4609294E-03 -0.6896973E-02
  0.1752381E+01  0.1863397E-02 -0.3082275E-02  0.2407895E+05  0.1880327E+05  0.3030197E-02  0.2441406E-03
  0.1783333E+01 -0.9138161E-02 -0.5187988E-02  0.2406782E+05  0.1839017E+05  0.5886755E-02 -0.1647949E-02
  0.1814286E+01 -0.4491130E-02  0.6103516E-04  0.2409011E+05  0.1799856E+05 -0.2758597E-02  0.2624512E-02
  0.1845238E+01 -0.1356162E-02  0.3479004E-02  0.2413963E+05  0.1763762E+05 -0.7111580E-02  0.3479004E-02
  0.1876190E+01  0.8799751E-02  0.2441406E-03  0.2421217E+05  0.1731802E+05 -0.3676052E-02 -0.2258301E-02
  0.1907143E+01 -0.4224456E-02 -0.1831055E-03  0.2428984E+05  0.1705074E+05  0.8640933E-02 -0.1098633E-02
  0.1938095E+01 -0.9778372E-02 -0.2166748E-02  0.2438908E+05  0.1683846E+05  0.4755344E-02 -0.1037598E-02
  0.1969048E+01 -0.1782345E-02 -0.4791260E-02  0.2449723E+05  0.1668137E+05  0.7656333E-02  0.5187988E-02
  0.2000000E+01 -0.2380371E-02  0.2624512E-02  0.2459673E+05  0.1658549E+05  0.4547119E-02  0.3051758E-03
Zone t="Motion of body    1 in DoF   3",I=    64,F=POINT
  0.5000000E-01 -0.1770214E+06 -0.1041041E-01 -0.3461838E-02  0.4062437E-04  0.7540193E+06  0.1541626E-01
  0.8095238E-01 -0.1775747E+06 -0.4502797E-01  0.1600995E-01  0.1161598E-03  0.7541037E+06  0.6284226E-01
  0.1119048E+00 -0.1777050E+06 -0.1249205E+00  0.1739380E-01 -0.2970599E-04  0.7541136E+06  0.1714278E+00
  0.1428571E+00 -0.1777275E+06 -0.2802056E+00  0.1558781E-01  0.2285759E-03  0.7541911E+06  0.3844417E+00
  0.1738095E+00 -0.1777992E+06 -0.5552177E+00  0.4949178E-02 -0.2483884E-04  0.7542599E+06  0.7605302E+00
  0.2047619E+00 -0.1777812E+06 -0.1018789E+01 -0.9901801E-02 -0.8632196E-04  0.7543445E+06  0.1394835E+01
  0.2357143E+00 -0.1779244E+06 -0.1779139E+01  0.9855790E-02  0.1724502E-03  0.7542840E+06  0.2423940E+01
  0.2666667E+00 -0.1779498E+06 -0.3009308E+01 -0.8783340E-02 -0.3854446E-03  0.7544414E+06  0.4079318E+01
  0.2976190E+00 -0.1779632E+06 -0.5003893E+01 -0.1463745E-01 -0.6128028E-03  0.7545661E+06  0.6747254E+01
  0.3285715E+00 -0.1781245E+06 -0.8182750E+01 -0.1243425E-01 -0.3613532E-06  0.7545009E+06  0.1097038E+02
  0.3595238E+00 -0.1782196E+06 -0.1327386E+02  0.3291351E-01  0.1868375E-02  0.7546319E+06  0.1768622E+02
  0.3904762E+00 -0.1782531E+06 -0.2136525E+02 -0.9075723E-02  0.3468841E-03  0.7548058E+06  0.2825450E+02
  0.4214286E+00 -0.1783667E+06 -0.3389428E+02 -0.1069925E-01  0.3367513E-03  0.7548955E+06  0.4445258E+02
  0.4523810E+00 -0.1786148E+06 -0.5323708E+02 -0.4739058E-02  0.5172789E-03  0.7550067E+06  0.6935389E+02
  0.4833333E+00 -0.1787064E+06 -0.8144238E+02 -0.6336080E-01 -0.3867388E-02  0.7553306E+06  0.1050581E+03
  0.5142857E+00 -0.1788446E+06 -0.1225725E+03 -0.4005433E-02  0.6589890E-03  0.7554996E+06  0.1565115E+03
  0.5452381E+00 -0.1791371E+06 -0.1797839E+03 -0.4778533E-02  0.2235174E-02  0.7555884E+06  0.2273192E+03
  0.5761905E+00 -0.1794179E+06 -0.2570670E+03  0.5495717E-01  0.8707047E-02  0.7557873E+06  0.3216606E+03
  0.6071429E+00 -0.1796461E+06 -0.3606858E+03  0.4016741E-01  0.1067805E-01  0.7562048E+06  0.4465238E+03
  0.6380953E+00 -0.1798507E+06 -0.4944377E+03  0.6160593E-01  0.1275492E-01  0.7564701E+06  0.6040872E+03
  0.6690477E+00 -0.1801407E+06 -0.6653269E+03  0.4831606E-01  0.8035660E-02  0.7566192E+06  0.8022373E+03
  0.7000000E+00 -0.1805353E+06 -0.8805029E+03  0.3041403E-01  0.1196289E-01  0.7567853E+06  0.1048493E+04
  0.7309524E+00 -0.1808855E+06 -0.1145708E+04  0.3053000E-02  0.3623962E-03  0.7570539E+06  0.1345639E+04
  0.7619048E+00 -0.1811359E+06 -0.1469785E+04 -0.2238035E-01 -0.1919746E-02  0.7574414E+06  0.1700286E+04
  0.7928572E+00 -0.1813801E+06 -0.1860553E+04 -0.2853599E-01 -0.4105568E-02  0.7576608E+06  0.2117868E+04
  0.8238096E+00 -0.1816556E+06 -0.2324975E+04 -0.9839934E-02 -0.3007889E-02  0.7577567E+06  0.2602841E+04
  0.8547620E+00 -0.1819442E+06 -0.2869412E+04  0.1852540E-01  0.5096436E-02  0.7578228E+06  0.3158222E+04
  0.8857143E+00 -0.1822189E+06 -0.3499855E+04  0.2222369E-02 -0.3026962E-02  0.7578124E+06  0.3785795E+04
  0.9166667E+00 -0.1824541E+06 -0.4222320E+04  0.4914717E-02  0.3993988E-02  0.7578627E+06  0.4484734E+04
  0.9476191E+00 -0.1825780E+06 -0.5041756E+04  0.3957125E-02  0.1441956E-02  0.7579088E+06  0.5250259E+04
  0.9785714E+00 -0.1825888E+06 -0.5960412E+04 -0.4272461E-02 -0.4234314E-02  0.7578755E+06  0.6076946E+04
  0.1009524E+01 -0.1825559E+06 -0.6976907E+04  0.1727626E-01  0.1591110E-01  0.7577139E+06  0.6958875E+04
  0.1040476E+01 -0.1824668E+06 -0.8085990E+04  0.8483817E-02  0.1628876E-02  0.7573391E+06  0.7885495E+04
  0.1071429E+01 -0.1823152E+06 -0.9280899E+04 -0.3581746E-02  0.1370239E-01  0.7569021E+06  0.8846920E+04
  0.1102381E+01 -0.1821065E+06 -0.1055022E+05 -0.3972558E-02 -0.6881714E-02  0.7563516E+06  0.9826058E+04
  0.1133333E+01 -0.1817656E+06 -0.1188467E+05  0.5035400E-02  0.2220154E-02  0.7558123E+06  0.1080459E+05
  0.1164286E+01 -0.1813010E+06 -0.1327138E+05  0.5982756E-02 -0.3379822E-02  0.7552634E+06  0.1175751E+05
  0.1195238E+01 -0.1806672E+06 -0.1468793E+05 -0.1648770E-01  0.1068115E-03  0.7545762E+06  0.1265641E+05
  0.1226190E+01 -0.1799406E+06 -0.1611246E+05 -0.2267930E-01 -0.1482391E-01  0.7538484E+06  0.1348738E+05
  0.1257143E+01 -0.1791225E+06 -0.1751451E+05 -0.2239401E-01 -0.6866455E-03  0.7530246E+06  0.1422992E+05
  0.1288095E+01 -0.1782050E+06 -0.1887060E+05 -0.1974137E-01  0.6866455E-03  0.7520775E+06  0.1485691E+05
  0.1319048E+01 -0.1771972E+06 -0.2016082E+05  0.9942725E-02  0.1539612E-01  0.7511444E+06  0.1535676E+05
  0.1350000E+01 -0.1761141E+06 -0.2135930E+05 -0.2739800E-01  0.1235962E-02  0.7501964E+06  0.1570429E+05
  0.1380952E+01 -0.1749474E+06 -0.2243466E+05 -0.1896089E-01 -0.1379395E-01  0.7492093E+06  0.1588618E+05
  0.1411905E+01 -0.1743760E+06 -0.2372337E+05  0.1050463E-01  0.7369995E-02  0.7481440E+06  0.1617960E+05
  0.1442857E+01 -0.1731559E+06 -0.2453794E+05 -0.3701389E-03 -0.1284790E-01  0.7473331E+06  0.1607660E+05
  0.1473810E+01 -0.1718794E+06 -0.2515237E+05 -0.3861780E-02  0.6759644E-02  0.7464109E+06  0.1576491E+05
  0.1504762E+01 -0.1706152E+06 -0.2559035E+05  0.8487460E-02  0.1586914E-01  0.7456763E+06  0.1532102E+05
  0.1535714E+01 -0.1693619E+06 -0.2582735E+05 -0.4789130E-02 -0.9826660E-02  0.7450146E+06  0.1472923E+05
  0.1566667E+01 -0.1681355E+06 -0.2586516E+05  0.8122870E-02  0.1057434E-01  0.7445166E+06  0.1405364E+05
  0.1597619E+01 -0.1669458E+06 -0.2567594E+05 -0.2519542E-01 -0.8392334E-02  0.7439543E+06  0.1319524E+05
  0.1628572E+01 -0.1658433E+06 -0.2530788E+05 -0.2422935E-01  0.3036499E-02  0.7436134E+06  0.1229261E+05
  0.1659524E+01 -0.1647978E+06 -0.2475696E+05 -0.1629297E-01  0.2059937E-02  0.7433642E+06  0.1129967E+05
  0.1690476E+01 -0.1638306E+06 -0.2399795E+05 -0.4260425E-02  0.1022339E-01  0.7430989E+06  0.1017204E+05
  0.1721429E+01 -0.1629523E+06 -0.2309947E+05 -0.1707212E-01 -0.4043579E-02  0.7430333E+06  0.9086201E+04
  0.1752381E+01 -0.1621400E+06 -0.2205041E+05  0.1205113E-01  0.5187988E-03  0.7430348E+06  0.7968376E+04
  0.1783333E+01 -0.1614295E+06 -0.2086174E+05 -0.2053519E-01 -0.5264282E-02  0.7430856E+06  0.6801612E+04
  0.1814286E+01 -0.1607925E+06 -0.1955584E+05 -0.6307767E-02 -0.3387451E-02  0.7432680E+06  0.5765323E+04
  0.1845238E+01 -0.1602658E+06 -0.1812340E+05 -0.2298860E-02 -0.8087158E-03  0.7434104E+06  0.4637674E+04
  0.1876190E+01 -0.1598534E+06 -0.1664566E+05 -0.1244327E-01 -0.1602173E-02  0.7437172E+06  0.3679140E+04
  0.1907143E+01 -0.1594862E+06 -0.1508361E+05  0.1051313E-01  0.4211426E-02  0.7440240E+06  0.2699011E+04
  0.1938095E+01 -0.1592440E+06 -0.1348488E+05  0.2361926E-02  0.5569458E-02  0.7443966E+06  0.1806386E+04
  0.1969048E+01 -0.1590466E+06 -0.1180248E+05  0.4060646E-02 -0.7781982E-03  0.7447519E+06  0.9156678E+03
  0.2000000E+01 -0.1589331E+06 -0.1014490E+05  0.8117676E-02  0.5752563E-02  0.7451961E+06  0.1653887E+03
