VARIABLES="w (rad/s)"
"abs(F   1   1)" "angle(F   1   1)"
"abs(F   1   2)" "angle(F   1   2)"
"abs(F   1   3)" "angle(F   1   3)"
Zone t="Diffraction force - beta =   0.000 deg",I=    64,F=POINT
  0.5000000E-01  0.2968022E+03 -0.1570795E+01  0.1978505E+03 -0.3104111E+01  0.2228731E+02 -0.1570755E+01
  0.8095238E-01  0.4851423E+03 -0.1570793E+01  0.5137043E+03 -0.3102828E+01  0.3216562E+02 -0.1570671E+01
  0.1119048E+00  0.6829329E+03 -0.1570789E+01  0.9767504E+03 -0.3101218E+01  0.3598381E+02 -0.1570485E+01
  0.1428571E+00  0.8844433E+03 -0.1570783E+01  0.1587753E+04 -0.3099154E+01  0.3406789E+02 -0.1570048E+01
  0.1738095E+00  0.1093917E+04 -0.1570774E+01  0.2350037E+04 -0.3096556E+01  0.2901671E+02 -0.1569016E+01
  0.2047619E+00  0.1314951E+04 -0.1570762E+01  0.3259993E+04 -0.3093188E+01  0.8157994E+01 -0.1558904E+01
  0.2357143E+00  0.1553089E+04 -0.1570744E+01  0.4326927E+04 -0.3088976E+01  0.1743963E+02  0.1560816E+01
  0.2666667E+00  0.1807279E+04 -0.1570718E+01  0.5550213E+04 -0.3083819E+01  0.5851667E+02  0.1565631E+01
  0.2976190E+00  0.2081103E+04 -0.1570679E+01  0.6930919E+04 -0.3077293E+01  0.1221883E+03  0.1566531E+01
  0.3285715E+00  0.2387907E+04 -0.1570621E+01  0.8474781E+04 -0.3069462E+01  0.2066694E+03  0.1566509E+01
  0.3595238E+00  0.2724551E+04 -0.1570536E+01  0.1017589E+05 -0.3059907E+01  0.3072630E+03  0.1565922E+01
  0.3904762E+00  0.3085117E+04 -0.1570406E+01  0.1203133E+05 -0.3048491E+01  0.4561978E+03  0.1565264E+01
  0.4214286E+00  0.3505031E+04 -0.1570220E+01  0.1403562E+05 -0.3035738E+01  0.6440399E+03  0.1564273E+01
  0.4523810E+00  0.3967146E+04 -0.1569947E+01  0.1615581E+05 -0.3020705E+01  0.8652507E+03  0.1562768E+01
  0.4833333E+00  0.4445125E+04 -0.1569565E+01  0.1841975E+05 -0.3005698E+01  0.1137617E+04  0.1560950E+01
  0.5142857E+00  0.4986999E+04 -0.1569043E+01  0.2073217E+05 -0.2988900E+01  0.1492906E+04  0.1558908E+01
  0.5452381E+00  0.5576769E+04 -0.1568355E+01  0.2316315E+05 -0.2972279E+01  0.1919026E+04  0.1556531E+01
  0.5761905E+00  0.6190094E+04 -0.1567460E+01  0.2566808E+05 -0.2955882E+01  0.2397954E+04  0.1553649E+01
  0.6071429E+00  0.6829944E+04 -0.1566307E+01  0.2818606E+05 -0.2938534E+01  0.2951065E+04  0.1550320E+01
  0.6380953E+00  0.7471004E+04 -0.1564863E+01  0.3081230E+05 -0.2922537E+01  0.3631926E+04  0.1546975E+01
  0.6690477E+00  0.8196710E+04 -0.1563136E+01  0.3344947E+05 -0.2906343E+01  0.4428726E+04  0.1543431E+01
  0.7000000E+00  0.8945861E+04 -0.1561033E+01  0.3607338E+05 -0.2889642E+01  0.5296696E+04  0.1539363E+01
  0.7309524E+00  0.9682737E+04 -0.1558489E+01  0.3875896E+05 -0.2873885E+01  0.6273189E+04  0.1535038E+01
  0.7619048E+00  0.1041040E+05 -0.1555434E+01  0.4145280E+05 -0.2858409E+01  0.7373614E+04  0.1530505E+01
  0.7928572E+00  0.1114907E+05 -0.1551840E+01  0.4404358E+05 -0.2842276E+01  0.8565587E+04  0.1525559E+01
  0.8238096E+00  0.1195530E+05 -0.1547848E+01  0.4664568E+05 -0.2826702E+01  0.1001881E+05  0.1521147E+01
  0.8547620E+00  0.1274569E+05 -0.1543234E+01  0.4924451E+05 -0.2811852E+01  0.1158171E+05  0.1516547E+01
  0.8857143E+00  0.1352879E+05 -0.1537972E+01  0.5174484E+05 -0.2796878E+01  0.1326713E+05  0.1511855E+01
  0.9166667E+00  0.1431357E+05 -0.1532059E+01  0.5413183E+05 -0.2781796E+01  0.1505674E+05  0.1507031E+01
  0.9476191E+00  0.1503745E+05 -0.1525323E+01  0.5645409E+05 -0.2767219E+01  0.1707123E+05  0.1502686E+01
  0.9785714E+00  0.1569927E+05 -0.1517705E+01  0.5870594E+05 -0.2753384E+01  0.1927664E+05  0.1498632E+01
  0.1009524E+01  0.1632452E+05 -0.1509435E+01  0.6086718E+05 -0.2740146E+01  0.2174681E+05  0.1495125E+01
  0.1040476E+01  0.1699674E+05 -0.1501130E+01  0.6279308E+05 -0.2726071E+01  0.2429625E+05  0.1491677E+01
  0.1071429E+01  0.1760173E+05 -0.1492099E+01  0.6461411E+05 -0.2712572E+01  0.2710662E+05  0.1489252E+01
  0.1102381E+01  0.1808915E+05 -0.1482201E+01  0.6632465E+05 -0.2699825E+01  0.3013118E+05  0.1487627E+01
  0.1133333E+01  0.1847057E+05 -0.1471505E+01  0.6789208E+05 -0.2687835E+01  0.3337853E+05  0.1486877E+01
  0.1164286E+01  0.1875241E+05 -0.1460500E+01  0.6931798E+05 -0.2676562E+01  0.3690463E+05  0.1486902E+01
  0.1195238E+01  0.1898057E+05 -0.1450247E+01  0.7044894E+05 -0.2664288E+01  0.4043704E+05  0.1487266E+01
  0.1226190E+01  0.1909316E+05 -0.1439914E+01  0.7141391E+05 -0.2652623E+01  0.4421879E+05  0.1488901E+01
  0.1257143E+01  0.1901104E+05 -0.1429151E+01  0.7223580E+05 -0.2641472E+01  0.4823512E+05  0.1491910E+01
  0.1288095E+01  0.1879789E+05 -0.1418927E+01  0.7285405E+05 -0.2631727E+01  0.5246671E+05  0.1495880E+01
  0.1319048E+01  0.1841408E+05 -0.1410375E+01  0.7330731E+05 -0.2622715E+01  0.5692000E+05  0.1500545E+01
  0.1350000E+01  0.1786597E+05 -0.1403397E+01  0.7354880E+05 -0.2613961E+01  0.6148621E+05  0.1506418E+01
  0.1380952E+01  0.1715611E+05 -0.1398885E+01  0.7349664E+05 -0.2604657E+01  0.6591848E+05  0.1512895E+01
  0.1411905E+01  0.1620261E+05 -0.1396362E+01  0.7320970E+05 -0.2596015E+01  0.7045259E+05  0.1520237E+01
  0.1442857E+01  0.1513285E+05 -0.1400905E+01  0.7278498E+05 -0.2588511E+01  0.7519621E+05  0.1528465E+01
  0.1473810E+01  0.1386762E+05 -0.1412288E+01  0.7216590E+05 -0.2582119E+01  0.7996767E+05  0.1537653E+01
  0.1504762E+01  0.1242249E+05 -0.1433990E+01  0.7136640E+05 -0.2577170E+01  0.8477062E+05  0.1547402E+01
  0.1535714E+01  0.1081196E+05 -0.1472291E+01  0.7039873E+05 -0.2573706E+01  0.8961377E+05  0.1557916E+01
  0.1566667E+01  0.9118971E+04 -0.1542967E+01  0.6914920E+05 -0.2570243E+01  0.9411479E+05  0.1568143E+01
  0.1597619E+01  0.7376704E+04 -0.1667000E+01  0.6767178E+05 -0.2567254E+01  0.9826244E+05  0.1579054E+01
  0.1628572E+01  0.5765189E+04 -0.1893137E+01  0.6604527E+05 -0.2566026E+01  0.1023057E+06  0.1590204E+01
  0.1659524E+01  0.4680456E+04 -0.2294585E+01  0.6431285E+05 -0.2566733E+01  0.1062437E+06  0.1601628E+01
  0.1690476E+01  0.4747436E+04 -0.2830079E+01  0.6247929E+05 -0.2569458E+01  0.1099506E+06  0.1613147E+01
  0.1721429E+01  0.6109128E+04  0.3030445E+01  0.6055494E+05 -0.2574619E+01  0.1133895E+06  0.1624629E+01
  0.1752381E+01  0.8254601E+04  0.2788254E+01  0.5857538E+05 -0.2582477E+01  0.1165778E+06  0.1635863E+01
  0.1783333E+01  0.1079777E+05  0.2652888E+01  0.5656289E+05 -0.2592774E+01  0.1195154E+06  0.1646978E+01
  0.1814286E+01  0.1358686E+05  0.2573767E+01  0.5436628E+05 -0.2603554E+01  0.1214911E+06  0.1657662E+01
  0.1845238E+01  0.1651487E+05  0.2523861E+01  0.5216479E+05 -0.2616800E+01  0.1229541E+06  0.1667947E+01
  0.1876190E+01  0.1952431E+05  0.2490750E+01  0.5000787E+05 -0.2632432E+01  0.1240171E+06  0.1678021E+01
  0.1907143E+01  0.2257824E+05  0.2467472E+01  0.4792618E+05 -0.2649900E+01  0.1247512E+06  0.1687903E+01
  0.1938095E+01  0.2566422E+05  0.2449949E+01  0.4592388E+05 -0.2668860E+01  0.1250220E+06  0.1697249E+01
  0.1969048E+01  0.2877443E+05  0.2435931E+01  0.4399211E+05 -0.2688734E+01  0.1248236E+06  0.1705998E+01
  0.2000000E+01  0.3188539E+05  0.2423795E+01  0.4211733E+05 -0.2709274E+01  0.1241547E+06  0.1713975E+01
