VARIABLES="w (rad/s)"
"abs(F   1   1)" "angle(F   1   1)"
"abs(F   1   2)" "angle(F   1   2)"
"abs(F   1   3)" "angle(F   1   3)"
Zone t="Diffraction force - beta =   0.000 deg",I=    64,F=POINT
  0.5000000E-01  0.1535043E+04 -0.1570787E+01  0.2149179E+06 -0.1471208E-04  0.1973190E+04  0.1570778E+01
  0.8095238E-01  0.2507982E+04 -0.1570804E+01  0.2146000E+06 -0.3959046E-04  0.3225129E+04  0.1570804E+01
  0.1119048E+00  0.3501636E+04 -0.1570790E+01  0.2141322E+06 -0.7865034E-04  0.4498448E+04  0.1570811E+01
  0.1428571E+00  0.4530060E+04 -0.1570794E+01  0.2135150E+06 -0.1349383E-03  0.5808273E+04  0.1570817E+01
  0.1738095E+00  0.5596792E+04 -0.1570788E+01  0.2127469E+06 -0.2130475E-03  0.7165927E+04  0.1570801E+01
  0.2047619E+00  0.6724146E+04 -0.1570790E+01  0.2118280E+06 -0.3196154E-03  0.8588717E+04  0.1570803E+01
  0.2357143E+00  0.7913274E+04 -0.1570781E+01  0.2107562E+06 -0.4644999E-03  0.1008987E+05  0.1570814E+01
  0.2666667E+00  0.9198985E+04 -0.1570770E+01  0.2095303E+06 -0.6597463E-03  0.1168718E+05  0.1570822E+01
  0.2976190E+00  0.1058577E+05 -0.1570767E+01  0.2081524E+06 -0.9257003E-03  0.1341137E+05  0.1570827E+01
  0.3285715E+00  0.1209498E+05 -0.1570753E+01  0.2066181E+06 -0.1283353E-02  0.1527963E+05  0.1570840E+01
  0.3595238E+00  0.1375642E+05 -0.1570732E+01  0.2049311E+06 -0.1765898E-02  0.1730867E+05  0.1570865E+01
  0.3904762E+00  0.1559999E+05 -0.1570699E+01  0.2030935E+06 -0.2410806E-02  0.1953771E+05  0.1570891E+01
  0.4214286E+00  0.1762414E+05 -0.1570651E+01  0.2011165E+06 -0.3243202E-02  0.2197508E+05  0.1570940E+01
  0.4523810E+00  0.1984155E+05 -0.1570583E+01  0.1989949E+06 -0.4327680E-02  0.2462796E+05  0.1571007E+01
  0.4833333E+00  0.2226341E+05 -0.1570492E+01  0.1967522E+06 -0.5640616E-02  0.2749002E+05  0.1571103E+01
  0.5142857E+00  0.2489713E+05 -0.1570361E+01  0.1943946E+06 -0.7256945E-02  0.3055792E+05  0.1571237E+01
  0.5452381E+00  0.2770093E+05 -0.1570183E+01  0.1919211E+06 -0.9157374E-02  0.3380877E+05  0.1571410E+01
  0.5761905E+00  0.3064466E+05 -0.1569955E+01  0.1893414E+06 -0.1135221E-01  0.3720093E+05  0.1571637E+01
  0.6071429E+00  0.3377390E+05 -0.1569656E+01  0.1866696E+06 -0.1390547E-01  0.4071411E+05  0.1571937E+01
  0.6380953E+00  0.3702982E+05 -0.1569284E+01  0.1839071E+06 -0.1676874E-01  0.4432985E+05  0.1572309E+01
  0.6690477E+00  0.4041094E+05 -0.1568822E+01  0.1810614E+06 -0.2000226E-01  0.4803373E+05  0.1572772E+01
  0.7000000E+00  0.4389865E+05 -0.1568251E+01  0.1781362E+06 -0.2364743E-01  0.5179728E+05  0.1573343E+01
  0.7309524E+00  0.4745597E+05 -0.1567561E+01  0.1751366E+06 -0.2768914E-01  0.5558942E+05  0.1574033E+01
  0.7619048E+00  0.5114487E+05 -0.1566729E+01  0.1720786E+06 -0.3216778E-01  0.5942422E+05  0.1574865E+01
  0.7928572E+00  0.5493803E+05 -0.1565740E+01  0.1689768E+06 -0.3711075E-01  0.6325336E+05  0.1575854E+01
  0.8238096E+00  0.5882111E+05 -0.1564571E+01  0.1658313E+06 -0.4252922E-01  0.6712695E+05  0.1577022E+01
  0.8547620E+00  0.6273641E+05 -0.1563205E+01  0.1626452E+06 -0.4843911E-01  0.7094417E+05  0.1578389E+01
  0.8857143E+00  0.6670612E+05 -0.1561617E+01  0.1594219E+06 -0.5485557E-01  0.7476284E+05  0.1579976E+01
  0.9166667E+00  0.7073434E+05 -0.1559791E+01  0.1561737E+06 -0.6180086E-01  0.7849766E+05  0.1581802E+01
  0.9476191E+00  0.7484058E+05 -0.1557705E+01  0.1529183E+06 -0.6928834E-01  0.8221033E+05  0.1583888E+01
  0.9785714E+00  0.7897664E+05 -0.1555338E+01  0.1496661E+06 -0.7733333E-01  0.8581905E+05  0.1586256E+01
  0.1009524E+01  0.8316270E+05 -0.1552669E+01  0.1464149E+06 -0.8593765E-01  0.8939141E+05  0.1588926E+01
  0.1040476E+01  0.8734873E+05 -0.1549680E+01  0.1431728E+06 -0.9511494E-01  0.9281866E+05  0.1591918E+01
  0.1071429E+01  0.9156121E+05 -0.1546354E+01  0.1399319E+06 -0.1048612E+00  0.9615272E+05  0.1595243E+01
  0.1102381E+01  0.9572426E+05 -0.1542672E+01  0.1367029E+06 -0.1151989E+00  0.9938197E+05  0.1598924E+01
  0.1133333E+01  0.9981328E+05 -0.1538626E+01  0.1335024E+06 -0.1261446E+00  0.1023892E+06  0.1602965E+01
  0.1164286E+01  0.1039107E+06 -0.1534215E+01  0.1303194E+06 -0.1377012E+00  0.1052767E+06  0.1607373E+01
  0.1195238E+01  0.1079576E+06 -0.1529439E+01  0.1271804E+06 -0.1498861E+00  0.1079368E+06  0.1612151E+01
  0.1226190E+01  0.1119862E+06 -0.1524299E+01  0.1240744E+06 -0.1626827E+00  0.1104279E+06  0.1617296E+01
  0.1257143E+01  0.1158985E+06 -0.1518784E+01  0.1210165E+06 -0.1762421E+00  0.1127464E+06  0.1622821E+01
  0.1288095E+01  0.1197423E+06 -0.1512934E+01  0.1180066E+06 -0.1901479E+00  0.1148408E+06  0.1628680E+01
  0.1319048E+01  0.1234070E+06 -0.1506735E+01  0.1150423E+06 -0.2048184E+00  0.1166526E+06  0.1634883E+01
  0.1350000E+01  0.1269525E+06 -0.1500224E+01  0.1121098E+06 -0.2200892E+00  0.1182815E+06  0.1641394E+01
  0.1380952E+01  0.1302839E+06 -0.1493436E+01  0.1092257E+06 -0.2359840E+00  0.1195549E+06  0.1648163E+01
  0.1411905E+01  0.1329768E+06 -0.1487186E+01  0.1065212E+06 -0.2512839E+00  0.1204147E+06  0.1654382E+01
  0.1442857E+01  0.1359385E+06 -0.1480079E+01  0.1037314E+06 -0.2683725E+00  0.1211855E+06  0.1661451E+01
  0.1473810E+01  0.1386555E+06 -0.1472854E+01  0.1010007E+06 -0.2861479E+00  0.1216459E+06  0.1668651E+01
  0.1504762E+01  0.1411159E+06 -0.1465602E+01  0.9834503E+05 -0.3045707E+00  0.1217399E+06  0.1675868E+01
  0.1535714E+01  0.1433663E+06 -0.1458368E+01  0.9573524E+05 -0.3236379E+00  0.1216103E+06  0.1683093E+01
  0.1566667E+01  0.1453630E+06 -0.1451231E+01  0.9318530E+05 -0.3433293E+00  0.1212192E+06  0.1690214E+01
  0.1597619E+01  0.1470465E+06 -0.1444292E+01  0.9070353E+05 -0.3636592E+00  0.1204586E+06  0.1697109E+01
  0.1628572E+01  0.1484717E+06 -0.1437638E+01  0.8826686E+05 -0.3845919E+00  0.1194487E+06  0.1703714E+01
  0.1659524E+01  0.1496208E+06 -0.1431374E+01  0.8588076E+05 -0.4061359E+00  0.1181942E+06  0.1709918E+01
  0.1690476E+01  0.1504468E+06 -0.1425559E+01  0.8355539E+05 -0.4283810E+00  0.1166674E+06  0.1715705E+01
  0.1721429E+01  0.1509643E+06 -0.1420342E+01  0.8129588E+05 -0.4512470E+00  0.1148343E+06  0.1720857E+01
  0.1752381E+01  0.1511884E+06 -0.1415782E+01  0.7909595E+05 -0.4747805E+00  0.1127609E+06  0.1725354E+01
  0.1783333E+01  0.1511565E+06 -0.1411943E+01  0.7694480E+05 -0.4989803E+00  0.1105368E+06  0.1729173E+01
  0.1814286E+01  0.1508469E+06 -0.1408949E+01  0.7484895E+05 -0.5237640E+00  0.1081024E+06  0.1732103E+01
  0.1845238E+01  0.1502548E+06 -0.1406901E+01  0.7281243E+05 -0.5491701E+00  0.1054438E+06  0.1734042E+01
  0.1876190E+01  0.1494328E+06 -0.1405854E+01  0.7082361E+05 -0.5752224E+00  0.1026687E+06  0.1735013E+01
  0.1907143E+01  0.1483905E+06 -0.1405874E+01  0.6888380E+05 -0.6018865E+00  0.9979013E+05  0.1734892E+01
  0.1938095E+01  0.1471226E+06 -0.1406977E+01  0.6700284E+05 -0.6292832E+00  0.9682502E+05  0.1733759E+01
  0.1969048E+01  0.1456462E+06 -0.1409255E+01  0.6518072E+05 -0.6573528E+00  0.9376575E+05  0.1731444E+01
  0.2000000E+01  0.1439658E+06 -0.1412796E+01  0.6342655E+05 -0.6859156E+00  0.9058832E+05  0.1727693E+01
