VARIABLES="w (rad/s)"
"abs(F   1   1)" "angle(F   1   1)"
"abs(F   1   2)" "angle(F   1   2)"
"abs(F   1   3)" "angle(F   1   3)"
Zone t="Diffraction force - beta =   0.000 deg",I=    64,F=POINT
  0.5000000E-01  0.1083584E+04 -0.1570807E+01  0.2233936E+06 -0.1678346E-04  0.4451482E+03 -0.1570815E+01
  0.8095238E-01  0.1767707E+04 -0.1570788E+01  0.2230722E+06 -0.4516943E-04  0.7223144E+03 -0.1570828E+01
  0.1119048E+00  0.2467862E+04 -0.1570796E+01  0.2225998E+06 -0.8975228E-04  0.1009441E+04 -0.1570789E+01
  0.1428571E+00  0.3190259E+04 -0.1570792E+01  0.2219751E+06 -0.1540210E-03  0.1306906E+04 -0.1570791E+01
  0.1738095E+00  0.3944104E+04 -0.1570794E+01  0.2211983E+06 -0.2432733E-03  0.1622240E+04 -0.1570786E+01
  0.2047619E+00  0.4736363E+04 -0.1570788E+01  0.2202663E+06 -0.3650759E-03  0.1953404E+04 -0.1570800E+01
  0.2357143E+00  0.5578691E+04 -0.1570787E+01  0.2191783E+06 -0.5307936E-03  0.2311866E+04 -0.1570782E+01
  0.2666667E+00  0.6484266E+04 -0.1570781E+01  0.2179328E+06 -0.7543254E-03  0.2701428E+04 -0.1570779E+01
  0.2976190E+00  0.7462781E+04 -0.1570772E+01  0.2165257E+06 -0.1058923E-02  0.3123554E+04 -0.1570773E+01
  0.3285715E+00  0.8532052E+04 -0.1570761E+01  0.2149559E+06 -0.1469045E-02  0.3594135E+04 -0.1570763E+01
  0.3595238E+00  0.9709881E+04 -0.1570747E+01  0.2132283E+06 -0.2022720E-02  0.4120647E+04 -0.1570744E+01
  0.3904762E+00  0.1100558E+05 -0.1570722E+01  0.2113359E+06 -0.2763408E-02  0.4699567E+04 -0.1570725E+01
  0.4214286E+00  0.1243659E+05 -0.1570686E+01  0.2092879E+06 -0.3720497E-02  0.5350888E+04 -0.1570687E+01
  0.4523810E+00  0.1400982E+05 -0.1570632E+01  0.2070901E+06 -0.4968710E-02  0.6081224E+04 -0.1570632E+01
  0.4833333E+00  0.1572937E+05 -0.1570560E+01  0.2047574E+06 -0.6481310E-02  0.6889384E+04 -0.1570561E+01
  0.5142857E+00  0.1758178E+05 -0.1570457E+01  0.2022855E+06 -0.8344885E-02  0.7761240E+04 -0.1570455E+01
  0.5452381E+00  0.1956284E+05 -0.1570319E+01  0.1996795E+06 -0.1053977E-01  0.8718634E+04 -0.1570320E+01
  0.5761905E+00  0.2166418E+05 -0.1570141E+01  0.1969622E+06 -0.1307855E-01  0.9755831E+04 -0.1570142E+01
  0.6071429E+00  0.2387322E+05 -0.1569913E+01  0.1941385E+06 -0.1603632E-01  0.1086749E+05 -0.1569914E+01
  0.6380953E+00  0.2617196E+05 -0.1569629E+01  0.1911881E+06 -0.1935277E-01  0.1203249E+05 -0.1569628E+01
  0.6690477E+00  0.2855002E+05 -0.1569276E+01  0.1881319E+06 -0.2310458E-01  0.1325786E+05 -0.1569276E+01
  0.7000000E+00  0.3100338E+05 -0.1568844E+01  0.1849912E+06 -0.2734406E-01  0.1455878E+05 -0.1568841E+01
  0.7309524E+00  0.3353662E+05 -0.1568324E+01  0.1817584E+06 -0.3204798E-01  0.1594140E+05 -0.1568322E+01
  0.7619048E+00  0.3613566E+05 -0.1567704E+01  0.1784471E+06 -0.3726647E-01  0.1738732E+05 -0.1567701E+01
  0.7928572E+00  0.3878348E+05 -0.1566971E+01  0.1750613E+06 -0.4302875E-01  0.1887602E+05 -0.1566965E+01
  0.8238096E+00  0.4147658E+05 -0.1566114E+01  0.1715987E+06 -0.4935248E-01  0.2042075E+05 -0.1566105E+01
  0.8547620E+00  0.4420896E+05 -0.1565121E+01  0.1680745E+06 -0.5626212E-01  0.2203193E+05 -0.1565110E+01
  0.8857143E+00  0.4697984E+05 -0.1563985E+01  0.1645056E+06 -0.6378345E-01  0.2371325E+05 -0.1563970E+01
  0.9166667E+00  0.4978061E+05 -0.1562694E+01  0.1609005E+06 -0.7193536E-01  0.2546066E+05 -0.1562675E+01
  0.9476191E+00  0.5260667E+05 -0.1561241E+01  0.1572623E+06 -0.8073203E-01  0.2726700E+05 -0.1561217E+01
  0.9785714E+00  0.5543853E+05 -0.1559618E+01  0.1535920E+06 -0.9018619E-01  0.2911338E+05 -0.1559584E+01
  0.1009524E+01  0.5826211E+05 -0.1557822E+01  0.1498892E+06 -0.1003120E+00  0.3099142E+05 -0.1557776E+01
  0.1040476E+01  0.6106950E+05 -0.1555853E+01  0.1461642E+06 -0.1111261E+00  0.3290439E+05 -0.1555793E+01
  0.1071429E+01  0.6385438E+05 -0.1553715E+01  0.1424260E+06 -0.1226628E+00  0.3485869E+05 -0.1553640E+01
  0.1102381E+01  0.6660720E+05 -0.1551418E+01  0.1386841E+06 -0.1349430E+00  0.3685495E+05 -0.1551326E+01
  0.1133333E+01  0.6931916E+05 -0.1548973E+01  0.1349486E+06 -0.1479741E+00  0.3888598E+05 -0.1548863E+01
  0.1164286E+01  0.7197576E+05 -0.1546398E+01  0.1312163E+06 -0.1617730E+00  0.4093921E+05 -0.1546265E+01
  0.1195238E+01  0.7456392E+05 -0.1543712E+01  0.1274939E+06 -0.1763483E+00  0.4299311E+05 -0.1543551E+01
  0.1226190E+01  0.7706320E+05 -0.1540942E+01  0.1237748E+06 -0.1917129E+00  0.4503711E+05 -0.1540743E+01
  0.1257143E+01  0.7945334E+05 -0.1538104E+01  0.1200638E+06 -0.2080190E+00  0.4705428E+05 -0.1537855E+01
  0.1288095E+01  0.8174380E+05 -0.1535297E+01  0.1163480E+06 -0.2248614E+00  0.4906077E+05 -0.1534991E+01
  0.1319048E+01  0.8390054E+05 -0.1532516E+01  0.1126464E+06 -0.2426963E+00  0.5102378E+05 -0.1532143E+01
  0.1350000E+01  0.8591568E+05 -0.1529838E+01  0.1089621E+06 -0.2614907E+00  0.5294657E+05 -0.1529394E+01
  0.1380952E+01  0.8778458E+05 -0.1527326E+01  0.1052962E+06 -0.2812247E+00  0.5481312E+05 -0.1526805E+01
  0.1411905E+01  0.8945054E+05 -0.1525143E+01  0.1017176E+06 -0.3008797E+00  0.5657021E+05 -0.1524544E+01
  0.1442857E+01  0.9099688E+05 -0.1523158E+01  0.9809498E+05 -0.3225760E+00  0.5831214E+05 -0.1522470E+01
  0.1473810E+01  0.9236375E+05 -0.1521553E+01  0.9449630E+05 -0.3453800E+00  0.5996576E+05 -0.1520774E+01
  0.1504762E+01  0.9354641E+05 -0.1520416E+01  0.9091680E+05 -0.3693686E+00  0.6152277E+05 -0.1519544E+01
  0.1535714E+01  0.9453700E+05 -0.1519834E+01  0.8735716E+05 -0.3946466E+00  0.6297152E+05 -0.1518870E+01
  0.1566667E+01  0.9533173E+05 -0.1519899E+01  0.8382355E+05 -0.4213165E+00  0.6430667E+05 -0.1518848E+01
  0.1597619E+01  0.9592865E+05 -0.1520697E+01  0.8031499E+05 -0.4495153E+00  0.6551511E+05 -0.1519571E+01
  0.1628572E+01  0.9632666E+05 -0.1522318E+01  0.7683255E+05 -0.4794011E+00  0.6659205E+05 -0.1521137E+01
  0.1659524E+01  0.9652977E+05 -0.1524862E+01  0.7336721E+05 -0.5111412E+00  0.6753627E+05 -0.1523643E+01
  0.1690476E+01  0.9654097E+05 -0.1528408E+01  0.6993279E+05 -0.5452876E+00  0.6833575E+05 -0.1527189E+01
  0.1721429E+01  0.9636277E+05 -0.1533043E+01  0.6653867E+05 -0.5819517E+00  0.6899537E+05 -0.1531860E+01
  0.1752381E+01  0.9600787E+05 -0.1538854E+01  0.6318441E+05 -0.6215256E+00  0.6950980E+05 -0.1537772E+01
  0.1783333E+01  0.9547799E+05 -0.1545923E+01  0.5987104E+05 -0.6645255E+00  0.6988435E+05 -0.1544999E+01
  0.1814286E+01  0.9479098E+05 -0.1554318E+01  0.5661430E+05 -0.7115460E+00  0.7011798E+05 -0.1553643E+01
  0.1845238E+01  0.9395144E+05 -0.1564103E+01  0.5343594E+05 -0.7632059E+00  0.7021260E+05 -0.1563772E+01
  0.1876190E+01  0.9297384E+05 -0.1575341E+01  0.5035326E+05 -0.8203550E+00  0.7017287E+05 -0.1575482E+01
  0.1907143E+01  0.9187015E+05 -0.1588107E+01  0.4737964E+05 -0.8839828E+00  0.7000698E+05 -0.1588858E+01
  0.1938095E+01  0.9064995E+05 -0.1602442E+01  0.4456011E+05 -0.9553773E+00  0.6971596E+05 -0.1603982E+01
  0.1969048E+01  0.8932942E+05 -0.1618375E+01  0.4196462E+05 -0.1035151E+01  0.6930527E+05 -0.1620923E+01
  0.2000000E+01  0.8791773E+05 -0.1635972E+01  0.3961403E+05 -0.1124325E+01  0.6878380E+05 -0.1639745E+01
