VARIABLES="w (rad/s)"
"A   1   1" "B   1   1"
"A   1   2" "B   1   2"
"A   1   3" "B   1   3"
Zone t="Motion of body    1 in DoF   1",I=    64,F=POINT
  0.5000000E-01  0.2412042E+05  0.1549793E-02 -0.3070831E-02 -0.7247960E-05 -0.4945265E+04  0.1816171E-02
  0.8095238E-01  0.2417991E+05  0.6758667E-02 -0.4476659E-02 -0.2216604E-04 -0.5102473E+04  0.7969651E-02
  0.1119048E+00  0.2428551E+05  0.1898155E-01 -0.1653306E-02 -0.4244677E-05 -0.5248670E+04  0.2232467E-01
  0.1428571E+00  0.2428851E+05  0.4280001E-01  0.1335144E-03 -0.9393843E-05 -0.5215270E+04  0.5015723E-01
  0.1738095E+00  0.2439020E+05  0.8541382E-01 -0.7023223E-03 -0.3202586E-05 -0.5245305E+04  0.9964328E-01
  0.2047619E+00  0.2439809E+05  0.1578291E+00  0.2906267E-02  0.6055785E-04 -0.5198021E+04  0.1831973E+00
  0.2357143E+00  0.2448650E+05  0.2785205E+00 -0.3981157E-02 -0.6263098E-04 -0.5255887E+04  0.3215911E+00
  0.2666667E+00  0.2457530E+05  0.4763078E+00 -0.2889633E-02 -0.7379428E-04 -0.5230468E+04  0.5469514E+00
  0.2976190E+00  0.2456489E+05  0.8000586E+00  0.2102051E-02  0.8760020E-04 -0.5129912E+04  0.9144646E+00
  0.3285715E+00  0.2463260E+05  0.1327300E+01 -0.8359161E-03  0.1289882E-04 -0.5169118E+04  0.1505394E+01
  0.3595238E+00  0.2482805E+05  0.2187881E+01 -0.1909875E-02 -0.6599352E-04 -0.5163971E+04  0.2459958E+01
  0.3904762E+00  0.2486310E+05  0.3576306E+01  0.4103125E-03 -0.3159046E-04 -0.5066893E+04  0.3991096E+01
  0.4214286E+00  0.2487921E+05  0.5767136E+01  0.3331071E-02  0.2733767E-03 -0.4964922E+04  0.6386550E+01
  0.4523810E+00  0.2510237E+05  0.9237428E+01  0.1686498E-04  0.8232892E-04 -0.5073600E+04  0.1010656E+02
  0.4833333E+00  0.2524343E+05  0.1442427E+02  0.2699227E-02  0.4288256E-03 -0.4979389E+04  0.1561264E+02
  0.5142857E+00  0.2535532E+05  0.2214713E+02 -0.2848307E-02 -0.1262128E-03 -0.4866236E+04  0.2372198E+02
  0.5452381E+00  0.2540416E+05  0.3317477E+02 -0.2518700E-03  0.7575750E-04 -0.4816011E+04  0.3514819E+02
  0.5761905E+00  0.2567678E+05  0.4862053E+02  0.1271145E-02  0.1517534E-03 -0.4811637E+04  0.5079893E+02
  0.6071429E+00  0.2590651E+05  0.6992393E+02  0.3644157E-02  0.1039028E-02 -0.4790452E+04  0.7200356E+02
  0.6380953E+00  0.2603631E+05  0.9826443E+02  0.2463042E-02  0.7742643E-03 -0.4638071E+04  0.9982928E+02
  0.6690477E+00  0.2616280E+05  0.1357386E+03 -0.5633262E-02 -0.1533985E-02 -0.4465842E+04  0.1360687E+03
  0.7000000E+00  0.2642709E+05  0.1847388E+03  0.3836495E-02  0.1020432E-02 -0.4534953E+04  0.1822101E+03
  0.7309524E+00  0.2670639E+05  0.2475205E+03  0.1523891E-02  0.3690720E-03 -0.4480787E+04  0.2400349E+03
  0.7619048E+00  0.2700750E+05  0.3274017E+03  0.4005432E-04  0.1130104E-03 -0.4358556E+04  0.3119657E+03
  0.7928572E+00  0.2728784E+05  0.4278202E+03  0.9237753E-03  0.3657341E-03 -0.4258267E+04  0.4000570E+03
  0.8238096E+00  0.2748868E+05  0.5524076E+03  0.2185623E-02  0.2238274E-02 -0.4112500E+04  0.5069795E+03
  0.8547620E+00  0.2767259E+05  0.7052242E+03 -0.1892260E-02 -0.8172989E-03 -0.3997141E+04  0.6351549E+03
  0.8857143E+00  0.2808243E+05  0.8908542E+03 -0.8786109E-03 -0.1756668E-02 -0.3973582E+04  0.7880624E+03
  0.9166667E+00  0.2848261E+05  0.1115121E+04 -0.1448198E-02 -0.1478195E-02 -0.3988832E+04  0.9651804E+03
  0.9476191E+00  0.2883084E+05  0.1383237E+04 -0.1932269E-03 -0.2574921E-03 -0.3923726E+04  0.1169614E+04
  0.9785714E+00  0.2914932E+05  0.1701457E+04 -0.2541647E-02 -0.2178192E-02 -0.3840261E+04  0.1403404E+04
  0.1009524E+01  0.2947325E+05  0.2076810E+04  0.1511484E-03  0.9269714E-03 -0.3731344E+04  0.1671038E+04
  0.1040476E+01  0.2979184E+05  0.2516349E+04 -0.3519648E-02 -0.3768921E-02 -0.3687054E+04  0.1970837E+04
  0.1071429E+01  0.3004113E+05  0.3023240E+04  0.1053874E-02  0.2418518E-02 -0.3677384E+04  0.2306065E+04
  0.1102381E+01  0.3038487E+05  0.3596560E+04 -0.3709566E-02 -0.2925873E-02 -0.3757466E+04  0.2683165E+04
  0.1133333E+01  0.3069634E+05  0.4249250E+04  0.5654728E-03 -0.7400513E-03 -0.3834037E+04  0.3083321E+04
  0.1164286E+01  0.3100332E+05  0.4988524E+04 -0.2096913E-03  0.1296997E-02 -0.3893710E+04  0.3518453E+04
  0.1195238E+01  0.3128590E+05  0.5820375E+04 -0.1557491E-02 -0.3845215E-02 -0.4003936E+04  0.3976836E+04
  0.1226190E+01  0.3148979E+05  0.6745138E+04 -0.1244406E-02 -0.2204895E-02 -0.4175096E+04  0.4453883E+04
  0.1257143E+01  0.3163478E+05  0.7752076E+04 -0.8253618E-03 -0.3509521E-03 -0.4357762E+04  0.4966931E+04
  0.1288095E+01  0.3179970E+05  0.8836883E+04  0.1208293E-02  0.2426147E-02 -0.4586981E+04  0.5487280E+04
  0.1319048E+01  0.3188405E+05  0.1001609E+05 -0.1203076E-02 -0.1358032E-02 -0.4870300E+04  0.6000549E+04
  0.1350000E+01  0.3192704E+05  0.1128555E+05  0.1424154E-02  0.6469727E-02 -0.5132284E+04  0.6520456E+04
  0.1380952E+01  0.3191803E+05  0.1263701E+05 -0.4198798E-03  0.3601074E-02 -0.5473465E+04  0.7022328E+04
  0.1411905E+01  0.3174340E+05  0.1403374E+05 -0.1426555E-02 -0.1373291E-02 -0.5842604E+04  0.7530194E+04
  0.1442857E+01  0.3158014E+05  0.1548510E+05 -0.2749604E-03 -0.1129150E-02 -0.6268096E+04  0.7980638E+04
  0.1473810E+01  0.3133880E+05  0.1698777E+05  0.4141319E-03  0.6225586E-02 -0.6703282E+04  0.8382979E+04
  0.1504762E+01  0.3100685E+05  0.1852753E+05 -0.3244907E-03 -0.1251221E-02 -0.7168599E+04  0.8704342E+04
  0.1535714E+01  0.3063722E+05  0.2007254E+05  0.0000000E+00  0.5187988E-03 -0.7635511E+04  0.9015679E+04
  0.1566667E+01  0.3024261E+05  0.2160580E+05 -0.4480240E-03 -0.3387451E-02 -0.8096252E+04  0.9313966E+04
  0.1597619E+01  0.2979084E+05  0.2314580E+05  0.6876688E-03 -0.1037598E-02 -0.8612285E+04  0.9472678E+04
  0.1628572E+01  0.2925262E+05  0.2466211E+05  0.3372995E-03 -0.5493164E-03 -0.9141163E+04  0.9544934E+04
  0.1659524E+01  0.2866782E+05  0.2612724E+05 -0.5332914E-03  0.2960205E-02 -0.9665616E+04  0.9540674E+04
  0.1690476E+01  0.2804691E+05  0.2752620E+05  0.5596321E-03  0.2471924E-02 -0.1016389E+05  0.9475907E+04
  0.1721429E+01  0.2737144E+05  0.2886397E+05 -0.1063683E-02 -0.3875732E-02 -0.1062200E+05  0.9290719E+04
  0.1752381E+01  0.2667447E+05  0.3013532E+05 -0.2612238E-03 -0.3692627E-02 -0.1108890E+05  0.9004577E+04
  0.1783333E+01  0.2600406E+05  0.3132131E+05 -0.1180774E-02  0.4791260E-02 -0.1151437E+05  0.8763954E+04
  0.1814286E+01  0.2533854E+05  0.3242480E+05 -0.1051295E-02 -0.5187988E-03 -0.1191315E+05  0.8464253E+04
  0.1845238E+01  0.2467448E+05  0.3345882E+05 -0.2745401E-02  0.3845215E-02 -0.1234122E+05  0.8008770E+04
  0.1876190E+01  0.2399388E+05  0.3440435E+05 -0.6018314E-03  0.2807617E-02 -0.1275161E+05  0.7459103E+04
  0.1907143E+01  0.2332702E+05  0.3526392E+05 -0.9521028E-03  0.2136230E-02 -0.1313129E+05  0.6846502E+04
  0.1938095E+01  0.2265916E+05  0.3602160E+05 -0.2361926E-03  0.1037598E-02 -0.1343811E+05  0.6171874E+04
  0.1969048E+01  0.2201546E+05  0.3669617E+05  0.9221697E-03 -0.2471924E-02 -0.1371487E+05  0.5440654E+04
  0.2000000E+01  0.2140555E+05  0.3731438E+05 -0.5416870E-03 -0.1647949E-02 -0.1398931E+05  0.4615910E+04
Zone t="Motion of body    1 in DoF   2",I=    64,F=POINT
  0.5000000E-01  0.1907349E-02 -0.4768372E-05  0.8017469E+05  0.1439083E+03  0.5798340E-02  0.7629395E-05
  0.8095238E-01 -0.8010864E-03 -0.3337860E-05  0.7959186E+05  0.2386525E+03  0.7539637E-03 -0.2670288E-04
  0.1119048E+00 -0.2727103E-03 -0.1192093E-04  0.7925567E+05  0.3418363E+03 -0.8726729E-02  0.2288818E-04
  0.1428571E+00  0.2536774E-02  0.2527237E-04  0.7907312E+05  0.4574094E+03 -0.1281738E-02  0.2861023E-04
  0.1738095E+00 -0.6145320E-03  0.6675720E-05  0.7906899E+05  0.5903165E+03  0.7725546E-02 -0.5531311E-04
  0.2047619E+00  0.4098582E-03 -0.0000000E+00  0.7912192E+05  0.7467997E+03 -0.3875023E-02  0.2670288E-04
  0.2357143E+00 -0.1003381E-02  0.4959106E-04  0.7922181E+05  0.9355768E+03 -0.1812559E-02 -0.4577637E-04
  0.2666667E+00 -0.4577636E-03  0.3242493E-04  0.7950071E+05  0.1164048E+04  0.4577636E-02 -0.1602173E-03
  0.2976190E+00 -0.5126953E-03 -0.5912781E-04  0.7967203E+05  0.1448775E+04 -0.1045898E-01 -0.1373291E-03
  0.3285715E+00 -0.6037172E-03  0.1335144E-04  0.8002542E+05  0.1798550E+04  0.5944293E-02  0.7629395E-05
  0.3595238E+00  0.1315692E-02 -0.8010864E-04  0.8022288E+05  0.2233351E+04 -0.8827866E-02 -0.2746582E-03
  0.3904762E+00  0.4298512E-03  0.8010864E-04  0.8052784E+05  0.2768113E+04  0.6252381E-03 -0.4119873E-03
  0.4214286E+00  0.7241459E-04  0.1945496E-03  0.8062230E+05  0.3398184E+04  0.3475900E-02 -0.2746582E-03
  0.4523810E+00 -0.5059493E-03 -0.2288818E-04  0.8065854E+05  0.4155650E+04  0.3777755E-02 -0.2441406E-03
  0.4833333E+00 -0.4419787E-03  0.7629395E-04  0.8061548E+05  0.4977694E+04 -0.1086005E-01 -0.3051758E-03
  0.5142857E+00  0.0000000E+00 -0.2365112E-03  0.8025099E+05  0.5906473E+04  0.4747179E-03  0.7629395E-03
  0.5452381E+00 -0.3358266E-03 -0.4043579E-03  0.7994866E+05  0.6887930E+04  0.2238844E-02  0.3967285E-03
  0.5761905E+00 -0.9003946E-03  0.2365112E-03  0.7935695E+05  0.7908553E+04 -0.2118575E-02 -0.1831055E-02
  0.6071429E+00  0.2412684E-02 -0.4272461E-03  0.7869313E+05  0.8991489E+04 -0.8042279E-02  0.1068115E-02
  0.6380953E+00 -0.2104346E-02 -0.2899170E-03  0.7815380E+05  0.1006412E+05 -0.1339130E-02  0.6103516E-03
  0.6690477E+00 -0.6842019E-03 -0.1983643E-03  0.7724397E+05  0.1116904E+05 -0.5473615E-03 -0.2197266E-02
  0.7000000E+00 -0.9591238E-03  0.4730225E-03  0.7636493E+05  0.1229818E+05  0.8021763E-02 -0.3051758E-03
  0.7309524E+00 -0.5010052E-03  0.1831055E-03  0.7558230E+05  0.1340665E+05 -0.1336014E-02  0.5493164E-03
  0.7619048E+00 -0.2002716E-03 -0.1220703E-03  0.7458412E+05  0.1451983E+05  0.9613036E-03  0.4882812E-03
  0.7928572E+00 -0.1539625E-03 -0.2136230E-03  0.7353954E+05  0.1562633E+05 -0.2155476E-02 -0.1342773E-02
  0.8238096E+00 -0.1407689E-02 -0.4577637E-03  0.7255066E+05  0.1670685E+05 -0.5038046E-02 -0.3662109E-03
  0.8547620E+00 -0.1428121E-02 -0.9460449E-03  0.7160060E+05  0.1774785E+05  0.9425595E-02 -0.1525879E-02
  0.8857143E+00  0.1447124E-02 -0.3662109E-03  0.7041298E+05  0.1877247E+05 -0.5512853E-02 -0.3051758E-02
  0.9166667E+00 -0.6658381E-03  0.2746582E-03  0.6931838E+05  0.1974826E+05 -0.3995028E-02 -0.1220703E-03
  0.9476191E+00 -0.2350927E-02  0.3356934E-03  0.6825164E+05  0.2066522E+05  0.5152717E-03 -0.0000000E+00
  0.9785714E+00  0.1528107E-02  0.7019043E-03  0.6726268E+05  0.2151077E+05  0.6736143E-02  0.2441406E-03
  0.1009524E+01  0.8464310E-03  0.3051758E-04  0.6611519E+05  0.2232203E+05  0.1692862E-02  0.2075195E-02
  0.1040476E+01 -0.1466520E-03 -0.1281738E-02  0.6497217E+05  0.2307270E+05 -0.3519648E-02 -0.3173828E-02
  0.1071429E+01  0.5696615E-03 -0.1037598E-02  0.6390215E+05  0.2374881E+05 -0.6152344E-02 -0.4028320E-02
  0.1102381E+01  0.1384167E-02  0.1098633E-02  0.6290851E+05  0.2433854E+05 -0.2879066E-02 -0.1708984E-02
  0.1133333E+01 -0.1844518E-02  0.1831055E-03  0.6199686E+05  0.2483606E+05 -0.9262983E-02  0.3662109E-03
  0.1164286E+01  0.2096913E-03 -0.1281738E-02  0.6093391E+05  0.2529573E+05  0.1467839E-02  0.1220703E-03
  0.1195238E+01 -0.1787284E-03  0.6103516E-03  0.5990251E+05  0.2567828E+05  0.1429828E-02  0.7324219E-02
  0.1226190E+01  0.1879053E-02  0.2075195E-02  0.5897296E+05  0.2598438E+05  0.3982100E-03 -0.3295898E-02
  0.1257143E+01  0.2791665E-03  0.2380371E-02  0.5811727E+05  0.2622623E+05 -0.7379705E-02 -0.8422852E-02
  0.1288095E+01  0.4738404E-03 -0.2441406E-03  0.5733720E+05  0.2633643E+05  0.1137217E-02  0.4272461E-02
  0.1319048E+01  0.1156803E-04 -0.7934570E-03  0.5659548E+05  0.2640030E+05 -0.2406151E-02 -0.1220703E-02
  0.1350000E+01  0.6047001E-03 -0.7324219E-03  0.5574495E+05  0.2641676E+05 -0.7595486E-02  0.2807617E-02
  0.1380952E+01  0.1767915E-03  0.6103516E-04  0.5496665E+05  0.2636036E+05 -0.5126953E-02 -0.7812500E-02
  0.1411905E+01 -0.3782533E-03  0.2441406E-03  0.5426766E+05  0.2622686E+05  0.5014558E-02 -0.1318359E-01
  0.1442857E+01  0.1903572E-02  0.4516602E-02  0.5365537E+05  0.2603461E+05 -0.2368889E-02 -0.5004883E-02
  0.1473810E+01 -0.8269696E-03  0.4272461E-03  0.5311909E+05  0.2576241E+05  0.3975666E-02 -0.1037598E-01
  0.1504762E+01  0.1136351E-02  0.2441406E-03  0.5267173E+05  0.2542651E+05  0.1622453E-03 -0.8911133E-02
  0.1535714E+01  0.4818938E-03 -0.1220703E-02  0.5215382E+05  0.2505811E+05  0.6359011E-03  0.1708984E-02
  0.1566667E+01  0.1051882E-02 -0.7324219E-03  0.5160927E+05  0.2463736E+05  0.6233377E-03 -0.5004883E-02
  0.1597619E+01 -0.5682819E-03  0.4882812E-03  0.5114231E+05  0.2418903E+05 -0.3361936E-02  0.2929688E-02
  0.1628572E+01 -0.1920733E-02 -0.2685547E-02  0.5075954E+05  0.2371451E+05 -0.5996436E-03  0.2319336E-02
  0.1659524E+01  0.9194679E-04 -0.2075195E-02  0.5043223E+05  0.2318816E+05  0.5737480E-02  0.7324219E-03
  0.1690476E+01  0.1281738E-02 -0.7934570E-03  0.5016902E+05  0.2261033E+05 -0.7221060E-03  0.8178711E-02
  0.1721429E+01 -0.1063683E-03  0.8544922E-03  0.4997498E+05  0.2198792E+05  0.6240275E-02  0.7568359E-02
  0.1752381E+01  0.4440805E-03  0.4333496E-02  0.4982738E+05  0.2136446E+05 -0.6965969E-02 -0.1257324E-01
  0.1783333E+01  0.3422532E-04  0.3051758E-03  0.4955617E+05  0.2067731E+05 -0.3422532E-02  0.3173828E-02
  0.1814286E+01  0.2186693E-03  0.1220703E-02  0.4931347E+05  0.1993891E+05 -0.1211091E-02  0.5126953E-02
  0.1845238E+01  0.8434665E-03  0.2319336E-02  0.4913568E+05  0.1922638E+05  0.0000000E+00 -0.7507324E-02
  0.1876190E+01  0.4229086E-03 -0.7019043E-03  0.4902209E+05  0.1852667E+05 -0.2862766E-02  0.4150391E-02
  0.1907143E+01 -0.1600173E-03 -0.2746582E-03  0.4895240E+05  0.1779628E+05  0.3840415E-03 -0.1202393E-01
  0.1938095E+01  0.2676849E-03 -0.9155273E-03  0.4892684E+05  0.1704166E+05 -0.5920560E-02 -0.5493164E-03
  0.1969048E+01 -0.3099730E-04  0.7934570E-03  0.4895085E+05  0.1627550E+05 -0.8679244E-03 -0.7934570E-03
  0.2000000E+01  0.3662109E-03  0.1983643E-02  0.4901828E+05  0.1553593E+05 -0.1098633E-02 -0.2746582E-02
Zone t="Motion of body    1 in DoF   3",I=    64,F=POINT
  0.5000000E-01 -0.4789488E+04  0.1819010E-02 -0.1983643E-02 -0.1376437E-05  0.2062492E+06  0.2077796E-02
  0.8095238E-01 -0.4906147E+04  0.8098080E-02  0.3864064E-02  0.2040541E-04  0.2073664E+06  0.9513573E-02
  0.1119048E+00 -0.5090128E+04  0.2276199E-01 -0.3817944E-02 -0.1135978E-04  0.2078232E+06  0.2682143E-01
  0.1428571E+00 -0.5031087E+04  0.5108829E-01  0.6408691E-03  0.3656349E-04  0.2078150E+06  0.5967362E-01
  0.1738095E+00 -0.5059654E+04  0.1016054E+00  0.3950563E-02  0.5188794E-04  0.2081317E+06  0.1183075E+00
  0.2047619E+00 -0.5008872E+04  0.1866092E+00 -0.5738014E-02 -0.5707378E-04  0.2080885E+06  0.2168091E+00
  0.2357143E+00 -0.5096219E+04  0.3281074E+00  0.1087535E-01  0.1697391E-03  0.2079598E+06  0.3783022E+00
  0.2666667E+00 -0.5049287E+04  0.5583752E+00  0.2861023E-02  0.1433892E-03  0.2083778E+06  0.6401650E+00
  0.2976190E+00 -0.4971799E+04  0.9324701E+00 -0.2030274E-01 -0.3963206E-03  0.2078456E+06  0.1065003E+01
  0.3285715E+00 -0.4945749E+04  0.1536347E+01 -0.1030963E-01 -0.1726672E-03  0.2083571E+06  0.1741459E+01
  0.3595238E+00 -0.5041391E+04  0.2514951E+01 -0.1273250E-02 -0.1729205E-03  0.2079220E+06  0.2825296E+01
  0.3904762E+00 -0.4913638E+04  0.4076734E+01  0.1094167E-02  0.1760945E-03  0.2081162E+06  0.4546943E+01
  0.4214286E+00 -0.4745966E+04  0.6515078E+01 -0.3258656E-02 -0.6386787E-03  0.2078688E+06  0.7210462E+01
  0.4523810E+00 -0.4929625E+04  0.1034327E+02  0.8499948E-02  0.1222938E-03  0.2080488E+06  0.1130888E+02
  0.4833333E+00 -0.4803466E+04  0.1597735E+02 -0.1881566E-01 -0.1276553E-02  0.2084262E+06  0.1728766E+02
  0.5142857E+00 -0.4750469E+04  0.2427011E+02  0.3679064E-02  0.7967055E-03  0.2078414E+06  0.2600556E+02
  0.5452381E+00 -0.4549485E+04  0.3592937E+02  0.5037399E-02  0.9928346E-03  0.2084860E+06  0.3805407E+02
  0.5761905E+00 -0.4637158E+04  0.5206118E+02 -0.3707507E-02 -0.2317429E-03  0.2080555E+06  0.5432538E+02
  0.6071429E+00 -0.4670690E+04  0.7392432E+02  0.7036994E-02  0.9047985E-03  0.2081816E+06  0.7614938E+02
  0.6380953E+00 -0.4403174E+04  0.1023507E+03  0.9565211E-03 -0.2145767E-04  0.2089674E+06  0.1040859E+03
  0.6690477E+00 -0.4242352E+04  0.1393262E+03  0.1459631E-01  0.3767014E-02  0.2080481E+06  0.1399437E+03
  0.7000000E+00 -0.4327729E+04  0.1871934E+03  0.9940010E-02  0.2995253E-02  0.2083511E+06  0.1843294E+03
  0.7309524E+00 -0.4216432E+04  0.2469529E+03 -0.3674038E-02  0.8282661E-03  0.2090511E+06  0.2389331E+03
  0.7619048E+00 -0.4142189E+04  0.3213338E+03  0.7209777E-03  0.1702309E-03  0.2086560E+06  0.3060241E+03
  0.7928572E+00 -0.4091113E+04  0.4124994E+03 -0.1616607E-02  0.1064777E-02  0.2084299E+06  0.3866482E+03
  0.8238096E+00 -0.3864537E+04  0.5219990E+03 -0.6816180E-02 -0.4101753E-02  0.2087011E+06  0.4815788E+03
  0.8547620E+00 -0.3602342E+04  0.6527781E+03  0.1156778E-01  0.4229546E-02  0.2093110E+06  0.5904484E+03
  0.8857143E+00 -0.3663067E+04  0.8135552E+03 -0.5926317E-02 -0.2165794E-02  0.2087176E+06  0.7154625E+03
  0.9166667E+00 -0.3734808E+04  0.1000786E+04 -0.9321732E-02 -0.5334854E-02  0.2087248E+06  0.8595695E+03
  0.9476191E+00 -0.3647883E+04  0.1214775E+04  0.1288179E-02  0.7152557E-03  0.2089774E+06  0.1024279E+04
  0.9785714E+00 -0.3484522E+04  0.1457028E+04  0.7609346E-02  0.4007339E-02  0.2095833E+06  0.1205904E+04
  0.1009524E+01 -0.3382613E+04  0.1734515E+04  0.8343391E-02  0.7535934E-02  0.2091048E+06  0.1407489E+04
  0.1040476E+01 -0.3349156E+04  0.2046123E+04  0.2111788E-02  0.3635406E-02  0.2086817E+06  0.1627006E+04
  0.1071429E+01 -0.3274914E+04  0.2392309E+04  0.2734375E-02  0.1190186E-02  0.2086740E+06  0.1854903E+04
  0.1102381E+01 -0.3312016E+04  0.2791034E+04  0.1051967E-01  0.4749298E-02  0.2089683E+06  0.2073976E+04
  0.1133333E+01 -0.3318888E+04  0.3213035E+04 -0.1357135E-01 -0.7350922E-02  0.2095447E+06  0.2319918E+04
  0.1164286E+01 -0.3401801E+04  0.3674679E+04  0.2516296E-02  0.2651215E-02  0.2089570E+06  0.2580256E+04
  0.1195238E+01 -0.3540687E+04  0.4161229E+04  0.4391613E-02  0.2166748E-02  0.2084169E+06  0.2849566E+04
  0.1226190E+01 -0.3691560E+04  0.4666235E+04 -0.2190155E-02  0.6042480E-02  0.2083449E+06  0.3116834E+04
  0.1257143E+01 -0.3839208E+04  0.5210549E+04 -0.4952170E-02  0.1449585E-03  0.2083821E+06  0.3350852E+04
  0.1288095E+01 -0.4027340E+04  0.5764381E+04  0.1611057E-02  0.2059937E-02  0.2086081E+06  0.3563279E+04
  0.1319048E+01 -0.4261364E+04  0.6318979E+04 -0.2961417E-02  0.4539490E-02  0.2088126E+06  0.3779439E+04
  0.1350000E+01 -0.4546969E+04  0.6883770E+04 -0.8318866E-02 -0.9346008E-02  0.2080529E+06  0.3979924E+04
  0.1380952E+01 -0.4914397E+04  0.7434942E+04  0.1414332E-02  0.2166748E-02  0.2075060E+06  0.4149251E+04
  0.1411905E+01 -0.5279044E+04  0.7954963E+04  0.3371858E-02  0.3181458E-02  0.2073385E+06  0.4241819E+04
  0.1442857E+01 -0.5698785E+04  0.8463314E+04 -0.7106668E-02  0.4058838E-02  0.2073147E+06  0.4344571E+04
  0.1473810E+01 -0.6100156E+04  0.8898943E+04 -0.1573701E-02  0.4348755E-02  0.2073866E+06  0.4400262E+04
  0.1504762E+01 -0.6507841E+04  0.9251949E+04 -0.4056134E-03 -0.2365112E-02  0.2077257E+06  0.4463648E+04
  0.1535714E+01 -0.6977102E+04  0.9616080E+04 -0.2384629E-02 -0.4745483E-02  0.2074226E+06  0.4411958E+04
  0.1566667E+01 -0.7494873E+04  0.9977525E+04  0.4207530E-02 -0.7553101E-02  0.2066990E+06  0.4224520E+04
  0.1597619E+01 -0.8064248E+04  0.1022529E+05 -0.1031503E-01 -0.4272461E-03  0.2063298E+06  0.4141822E+04
  0.1628572E+01 -0.8612175E+04  0.1037548E+05  0.2848307E-02  0.5599976E-02  0.2063144E+06  0.4039159E+04
  0.1659524E+01 -0.9148481E+04  0.1043791E+05  0.3530757E-02 -0.1220703E-03  0.2064101E+06  0.3911276E+04
  0.1690476E+01 -0.9638159E+04  0.1041571E+05 -0.4765900E-02 -0.3051758E-03  0.2065739E+06  0.3720532E+04
  0.1721429E+01 -0.1006445E+05  0.1025436E+05  0.3900172E-02  0.1672363E-01  0.2068939E+06  0.3614448E+04
  0.1752381E+01 -0.1049535E+05  0.1002108E+05 -0.1671833E-02 -0.7431030E-02  0.2073422E+06  0.3521541E+04
  0.1783333E+01 -0.1097017E+05  0.9845161E+04 -0.4107039E-03 -0.5897522E-02  0.2068971E+06  0.3092971E+04
  0.1814286E+01 -0.1143144E+05  0.9609572E+04 -0.2422183E-02 -0.1800537E-02  0.2063862E+06  0.2587287E+04
  0.1845238E+01 -0.1193175E+05  0.9249806E+04  0.8335434E-02  0.9490967E-02  0.2063058E+06  0.2312167E+04
  0.1876190E+01 -0.1238624E+05  0.8778396E+04 -0.3643520E-02  0.3623962E-02  0.2065345E+06  0.2200758E+04
  0.1907143E+01 -0.1279967E+05  0.8211745E+04  0.3456373E-02  0.4867554E-02  0.2068599E+06  0.2142030E+04
  0.1938095E+01 -0.1310592E+05  0.7578400E+04 -0.1524229E-01  0.2258301E-02  0.2071690E+06  0.2150222E+04
  0.1969048E+01 -0.1336123E+05  0.6855547E+04 -0.6819406E-02 -0.3883362E-02  0.2075954E+06  0.2230280E+04
  0.2000000E+01 -0.1360442E+05  0.6041875E+04 -0.9765625E-03 -0.2822876E-02  0.2082322E+06  0.2523314E+04
