VARIABLES="w (rad/s)"
"abs(F   1   1)" "angle(F   1   1)"
"abs(F   1   2)" "angle(F   1   2)"
"abs(F   1   3)" "angle(F   1   3)"
Zone t="Diffraction force - beta =   0.000 deg",I=    64,F=POINT
  0.5000000E-01  0.1986917E+04 -0.1570777E+01  0.3852038E+06 -0.2553713E-04  0.4824047E+03  0.1570849E+01
  0.8095238E-01  0.3240315E+04 -0.1570788E+01  0.3845003E+06 -0.6869745E-04  0.7884995E+03  0.1570770E+01
  0.1119048E+00  0.4517332E+04 -0.1570790E+01  0.3834659E+06 -0.1364086E-03  0.1095693E+04  0.1570778E+01
  0.1428571E+00  0.5847541E+04 -0.1570794E+01  0.3821034E+06 -0.2338544E-03  0.1417665E+04  0.1570802E+01
  0.1738095E+00  0.7243137E+04 -0.1570788E+01  0.3804089E+06 -0.3689162E-03  0.1768201E+04  0.1570808E+01
  0.2047619E+00  0.8720012E+04 -0.1570783E+01  0.3783774E+06 -0.5528672E-03  0.2133639E+04  0.1570815E+01
  0.2357143E+00  0.1028204E+05 -0.1570778E+01  0.3760080E+06 -0.8024880E-03  0.2528916E+04  0.1570827E+01
  0.2666667E+00  0.1198717E+05 -0.1570770E+01  0.3732993E+06 -0.1138184E-02  0.2965759E+04  0.1570812E+01
  0.2976190E+00  0.1384408E+05 -0.1570758E+01  0.3702436E+06 -0.1594319E-02  0.3444830E+04  0.1570848E+01
  0.3285715E+00  0.1585262E+05 -0.1570740E+01  0.3668501E+06 -0.2206202E-02  0.3964082E+04  0.1570857E+01
  0.3595238E+00  0.1809272E+05 -0.1570713E+01  0.3631119E+06 -0.3029284E-02  0.4557168E+04  0.1570876E+01
  0.3904762E+00  0.2061531E+05 -0.1570669E+01  0.3590394E+06 -0.4126364E-02  0.5228744E+04  0.1570922E+01
  0.4214286E+00  0.2338098E+05 -0.1570608E+01  0.3546693E+06 -0.5536654E-02  0.5980276E+04  0.1570991E+01
  0.4523810E+00  0.2641357E+05 -0.1570516E+01  0.3499787E+06 -0.7367649E-02  0.6799344E+04  0.1571075E+01
  0.4833333E+00  0.2983188E+05 -0.1570383E+01  0.3450567E+06 -0.9572597E-02  0.7765493E+04  0.1571217E+01
  0.5142857E+00  0.3352757E+05 -0.1570200E+01  0.3398551E+06 -0.1227462E-01  0.8803526E+04  0.1571387E+01
  0.5452381E+00  0.3749875E+05 -0.1569953E+01  0.3344817E+06 -0.1543796E-01  0.9927117E+04  0.1571640E+01
  0.5761905E+00  0.4169008E+05 -0.1569627E+01  0.3288789E+06 -0.1906869E-01  0.1114700E+05  0.1571970E+01
  0.6071429E+00  0.4624038E+05 -0.1569199E+01  0.3230887E+06 -0.2327403E-01  0.1249097E+05  0.1572397E+01
  0.6380953E+00  0.5109761E+05 -0.1568657E+01  0.3171625E+06 -0.2794896E-01  0.1397049E+05  0.1572935E+01
  0.6690477E+00  0.5610686E+05 -0.1567972E+01  0.3110588E+06 -0.3319931E-01  0.1549410E+05  0.1573620E+01
  0.7000000E+00  0.6129136E+05 -0.1567117E+01  0.3048259E+06 -0.3908369E-01  0.1708940E+05  0.1574478E+01
  0.7309524E+00  0.6679025E+05 -0.1566068E+01  0.2985245E+06 -0.4555784E-01  0.1883194E+05  0.1575532E+01
  0.7619048E+00  0.7258655E+05 -0.1564784E+01  0.2921007E+06 -0.5268340E-01  0.2073199E+05  0.1576815E+01
  0.7928572E+00  0.7860262E+05 -0.1563230E+01  0.2855650E+06 -0.6047524E-01  0.2271602E+05  0.1578373E+01
  0.8238096E+00  0.8489730E+05 -0.1561366E+01  0.2790706E+06 -0.6897746E-01  0.2479808E+05  0.1580243E+01
  0.8547620E+00  0.9134035E+05 -0.1559147E+01  0.2725251E+06 -0.7818967E-01  0.2701612E+05  0.1582468E+01
  0.8857143E+00  0.9794453E+05 -0.1556527E+01  0.2659386E+06 -0.8811063E-01  0.2932538E+05  0.1585098E+01
  0.9166667E+00  0.1047740E+06 -0.1553454E+01  0.2592684E+06 -0.9873983E-01  0.3174179E+05  0.1588182E+01
  0.9476191E+00  0.1120263E+06 -0.1549879E+01  0.2527393E+06 -0.1101546E+00  0.3434277E+05  0.1591765E+01
  0.9785714E+00  0.1195875E+06 -0.1545739E+01  0.2462403E+06 -0.1223318E+00  0.3716946E+05  0.1595916E+01
  0.1009524E+01  0.1272672E+06 -0.1540971E+01  0.2397559E+06 -0.1352641E+00  0.4009780E+05  0.1600713E+01
  0.1040476E+01  0.1351006E+06 -0.1535514E+01  0.2332891E+06 -0.1489372E+00  0.4306405E+05  0.1606202E+01
  0.1071429E+01  0.1430249E+06 -0.1529308E+01  0.2268716E+06 -0.1633912E+00  0.4614129E+05  0.1612449E+01
  0.1102381E+01  0.1512146E+06 -0.1522318E+01  0.2206442E+06 -0.1786680E+00  0.4934336E+05  0.1619481E+01
  0.1133333E+01  0.1595357E+06 -0.1514466E+01  0.2144761E+06 -0.1947596E+00  0.5277279E+05  0.1627394E+01
  0.1164286E+01  0.1679474E+06 -0.1505709E+01  0.2083564E+06 -0.2116474E+00  0.5627563E+05  0.1636211E+01
  0.1195238E+01  0.1766310E+06 -0.1495987E+01  0.2023101E+06 -0.2293182E+00  0.5992296E+05  0.1645972E+01
  0.1226190E+01  0.1853664E+06 -0.1485258E+01  0.1963134E+06 -0.2477864E+00  0.6370766E+05  0.1656743E+01
  0.1257143E+01  0.1940047E+06 -0.1473511E+01  0.1905862E+06 -0.2673878E+00  0.6745143E+05  0.1668625E+01
  0.1288095E+01  0.2029728E+06 -0.1460723E+01  0.1850127E+06 -0.2873643E+00  0.7142444E+05  0.1681558E+01
  0.1319048E+01  0.2115812E+06 -0.1446894E+01  0.1794989E+06 -0.3084715E+00  0.7543538E+05  0.1695554E+01
  0.1350000E+01  0.2198467E+06 -0.1432050E+01  0.1740940E+06 -0.3304125E+00  0.7933555E+05  0.1710596E+01
  0.1380952E+01  0.2278701E+06 -0.1416246E+01  0.1687915E+06 -0.3531513E+00  0.8321521E+05  0.1726662E+01
  0.1411905E+01  0.2351778E+06 -0.1399434E+01  0.1636135E+06 -0.3765882E+00  0.8690465E+05  0.1743701E+01
  0.1442857E+01  0.2423803E+06 -0.1382046E+01  0.1587002E+06 -0.4011835E+00  0.9055670E+05  0.1761407E+01
  0.1473810E+01  0.2492605E+06 -0.1364162E+01  0.1539875E+06 -0.4265877E+00  0.9407208E+05  0.1779438E+01
  0.1504762E+01  0.2558023E+06 -0.1345768E+01  0.1494117E+06 -0.4529912E+00  0.9772570E+05  0.1798028E+01
  0.1535714E+01  0.2614896E+06 -0.1327092E+01  0.1449708E+06 -0.4802805E+00  0.1010430E+06  0.1816906E+01
  0.1566667E+01  0.2664099E+06 -0.1308344E+01  0.1406811E+06 -0.5082760E+00  0.1041364E+06  0.1836190E+01
  0.1597619E+01  0.2705614E+06 -0.1289819E+01  0.1365506E+06 -0.5369823E+00  0.1069470E+06  0.1855163E+01
  0.1628572E+01  0.2737714E+06 -0.1271677E+01  0.1325696E+06 -0.5664544E+00  0.1094021E+06  0.1873850E+01
  0.1659524E+01  0.2761892E+06 -0.1254386E+01  0.1288989E+06 -0.5963916E+00  0.1114645E+06  0.1891585E+01
  0.1690476E+01  0.2777938E+06 -0.1238094E+01  0.1254895E+06 -0.6266172E+00  0.1130920E+06  0.1908343E+01
  0.1721429E+01  0.2786916E+06 -0.1223059E+01  0.1222674E+06 -0.6570969E+00  0.1145813E+06  0.1923636E+01
  0.1752381E+01  0.2787665E+06 -0.1209312E+01  0.1192047E+06 -0.6877070E+00  0.1158656E+06  0.1938131E+01
  0.1783333E+01  0.2779846E+06 -0.1197264E+01  0.1162894E+06 -0.7181157E+00  0.1167074E+06  0.1950769E+01
  0.1814286E+01  0.2764237E+06 -0.1186996E+01  0.1135170E+06 -0.7480395E+00  0.1171568E+06  0.1961812E+01
  0.1845238E+01  0.2741939E+06 -0.1178676E+01  0.1108608E+06 -0.7770401E+00  0.1172759E+06  0.1971006E+01
  0.1876190E+01  0.2713789E+06 -0.1172473E+01  0.1082876E+06 -0.8051750E+00  0.1171361E+06  0.1977861E+01
  0.1907143E+01  0.2681228E+06 -0.1168541E+01  0.1058867E+06 -0.8319497E+00  0.1166776E+06  0.1982448E+01
  0.1938095E+01  0.2645706E+06 -0.1166996E+01  0.1036362E+06 -0.8567656E+00  0.1159290E+06  0.1984221E+01
  0.1969048E+01  0.2606562E+06 -0.1167756E+01  0.1013889E+06 -0.8798250E+00  0.1149547E+06  0.1983672E+01
  0.2000000E+01  0.2565438E+06 -0.1170635E+01  0.9909670E+05 -0.9018382E+00  0.1140869E+06  0.1981711E+01
