VARIABLES="w (rad/s)"
"abs(F   1   1)" "angle(F   1   1)"
"abs(F   1   2)" "angle(F   1   2)"
"abs(F   1   3)" "angle(F   1   3)"
Zone t="Diffraction force - beta =   0.000 deg",I=    64,F=POINT
  0.5000000E-01  0.1767327E+04 -0.1570793E+01  0.4300702E+03 -0.3097425E+01  0.2216221E+04  0.1570798E+01
  0.8095238E-01  0.2887086E+04 -0.1570789E+01  0.1116303E+04 -0.3095984E+01  0.3611890E+04  0.1570802E+01
  0.1119048E+00  0.4037816E+04 -0.1570780E+01  0.2117953E+04 -0.3094115E+01  0.5059935E+04  0.1570807E+01
  0.1428571E+00  0.5218251E+04 -0.1570768E+01  0.3437869E+04 -0.3091796E+01  0.6542926E+04  0.1570815E+01
  0.1738095E+00  0.6471187E+04 -0.1570751E+01  0.5081573E+04 -0.3088925E+01  0.8136778E+04  0.1570827E+01
  0.2047619E+00  0.7797893E+04 -0.1570725E+01  0.7033030E+04 -0.3085154E+01  0.9807220E+04  0.1570845E+01
  0.2357143E+00  0.9178831E+04 -0.1570687E+01  0.9320134E+04 -0.3080530E+01  0.1156866E+05  0.1570870E+01
  0.2666667E+00  0.1072028E+05 -0.1570633E+01  0.1192519E+05 -0.3074877E+01  0.1354303E+05  0.1570907E+01
  0.2976190E+00  0.1237890E+05 -0.1570551E+01  0.1486216E+05 -0.3067789E+01  0.1565188E+05  0.1570963E+01
  0.3285715E+00  0.1417626E+05 -0.1570430E+01  0.1811396E+05 -0.3059304E+01  0.1799674E+05  0.1571045E+01
  0.3595238E+00  0.1622119E+05 -0.1570249E+01  0.2169111E+05 -0.3049074E+01  0.2063305E+05  0.1571168E+01
  0.3904762E+00  0.1849807E+05 -0.1569979E+01  0.2554124E+05 -0.3036851E+01  0.2359897E+05  0.1571353E+01
  0.4214286E+00  0.2093904E+05 -0.1569582E+01  0.2968837E+05 -0.3023519E+01  0.2681652E+05  0.1571624E+01
  0.4523810E+00  0.2374881E+05 -0.1569003E+01  0.3398768E+05 -0.3007572E+01  0.3050047E+05  0.1572021E+01
  0.4833333E+00  0.2685857E+05 -0.1568204E+01  0.3854303E+05 -0.2992125E+01  0.3460348E+05  0.1572571E+01
  0.5142857E+00  0.3024303E+05 -0.1567094E+01  0.4312734E+05 -0.2974864E+01  0.3899884E+05  0.1573338E+01
  0.5452381E+00  0.3377930E+05 -0.1565605E+01  0.4785198E+05 -0.2957979E+01  0.4376673E+05  0.1574365E+01
  0.5761905E+00  0.3768587E+05 -0.1563684E+01  0.5271461E+05 -0.2941939E+01  0.4901656E+05  0.1575694E+01
  0.6071429E+00  0.4201052E+05 -0.1561232E+01  0.5743243E+05 -0.2924584E+01  0.5474657E+05  0.1577408E+01
  0.6380953E+00  0.4646628E+05 -0.1558163E+01  0.6230996E+05 -0.2909238E+01  0.6071533E+05  0.1579556E+01
  0.6690477E+00  0.5105299E+05 -0.1554338E+01  0.6717551E+05 -0.2894222E+01  0.6692395E+05  0.1582239E+01
  0.7000000E+00  0.5592148E+05 -0.1549661E+01  0.7182045E+05 -0.2878349E+01  0.7356053E+05  0.1585529E+01
  0.7309524E+00  0.6114061E+05 -0.1544078E+01  0.7654535E+05 -0.2863975E+01  0.8063512E+05  0.1589480E+01
  0.7619048E+00  0.6665541E+05 -0.1537430E+01  0.8129391E+05 -0.2850615E+01  0.8821141E+05  0.1594205E+01
  0.7928572E+00  0.7241566E+05 -0.1529577E+01  0.8561186E+05 -0.2836121E+01  0.9584744E+05  0.1599860E+01
  0.8238096E+00  0.7835790E+05 -0.1520362E+01  0.8989461E+05 -0.2822490E+01  0.1040809E+06  0.1606484E+01
  0.8547620E+00  0.8423724E+05 -0.1509554E+01  0.9413248E+05 -0.2810081E+01  0.1122954E+06  0.1614268E+01
  0.8857143E+00  0.9039021E+05 -0.1497212E+01  0.9818791E+05 -0.2798189E+01  0.1209180E+06  0.1623163E+01
  0.9166667E+00  0.9698924E+05 -0.1483365E+01  0.1018421E+06 -0.2785738E+01  0.1298021E+06  0.1633279E+01
  0.9476191E+00  0.1038341E+06 -0.1467784E+01  0.1053404E+06 -0.2773935E+01  0.1393912E+06  0.1644674E+01
  0.9785714E+00  0.1106228E+06 -0.1450190E+01  0.1086853E+06 -0.2763191E+01  0.1488273E+06  0.1657620E+01
  0.1009524E+01  0.1174202E+06 -0.1430514E+01  0.1119271E+06 -0.2753785E+01  0.1585896E+06  0.1672104E+01
  0.1040476E+01  0.1241014E+06 -0.1408680E+01  0.1145488E+06 -0.2743071E+01  0.1677104E+06  0.1688349E+01
  0.1071429E+01  0.1307482E+06 -0.1384702E+01  0.1169598E+06 -0.2732974E+01  0.1773473E+06  0.1706122E+01
  0.1102381E+01  0.1370392E+06 -0.1358488E+01  0.1191759E+06 -0.2723731E+01  0.1866229E+06  0.1725443E+01
  0.1133333E+01  0.1431950E+06 -0.1330518E+01  0.1212073E+06 -0.2715498E+01  0.1955468E+06  0.1745988E+01
  0.1164286E+01  0.1490906E+06 -0.1300556E+01  0.1230870E+06 -0.2708549E+01  0.2045497E+06  0.1767982E+01
  0.1195238E+01  0.1544914E+06 -0.1268678E+01  0.1243180E+06 -0.2700262E+01  0.2123038E+06  0.1791494E+01
  0.1226190E+01  0.1594042E+06 -0.1234967E+01  0.1252661E+06 -0.2692384E+01  0.2197122E+06  0.1816275E+01
  0.1257143E+01  0.1634988E+06 -0.1199111E+01  0.1260189E+06 -0.2684923E+01  0.2265268E+06  0.1842309E+01
  0.1288095E+01  0.1669106E+06 -0.1162670E+01  0.1265250E+06 -0.2678769E+01  0.2321603E+06  0.1868373E+01
  0.1319048E+01  0.1693954E+06 -0.1124846E+01  0.1268587E+06 -0.2673326E+01  0.2369028E+06  0.1894976E+01
  0.1350000E+01  0.1709622E+06 -0.1086028E+01  0.1269910E+06 -0.2668915E+01  0.2407466E+06  0.1921820E+01
  0.1380952E+01  0.1714552E+06 -0.1046674E+01  0.1264461E+06 -0.2663078E+01  0.2423847E+06  0.1948671E+01
  0.1411905E+01  0.1705971E+06 -0.1006201E+01  0.1256656E+06 -0.2657712E+01  0.2427374E+06  0.1975280E+01
  0.1442857E+01  0.1692370E+06 -0.9670038E+00  0.1247335E+06 -0.2652859E+01  0.2427536E+06  0.2000080E+01
  0.1473810E+01  0.1666161E+06 -0.9277843E+00  0.1235921E+06 -0.2648754E+01  0.2409778E+06  0.2023796E+01
  0.1504762E+01  0.1628505E+06 -0.8887503E+00  0.1222704E+06 -0.2645462E+01  0.2376984E+06  0.2046170E+01
  0.1535714E+01  0.1581278E+06 -0.8501643E+00  0.1208094E+06 -0.2642943E+01  0.2335685E+06  0.2066709E+01
  0.1566667E+01  0.1524938E+06 -0.8127782E+00  0.1190678E+06 -0.2640746E+01  0.2281039E+06  0.2084494E+01
  0.1597619E+01  0.1459458E+06 -0.7770247E+00  0.1168428E+06 -0.2637766E+01  0.2207599E+06  0.2099124E+01
  0.1628572E+01  0.1387201E+06 -0.7426171E+00  0.1144875E+06 -0.2635396E+01  0.2129156E+06  0.2110900E+01
  0.1659524E+01  0.1309094E+06 -0.7097712E+00  0.1120091E+06 -0.2633280E+01  0.2048599E+06  0.2119306E+01
  0.1690476E+01  0.1223359E+06 -0.6781134E+00  0.1093966E+06 -0.2631806E+01  0.1956960E+06  0.2123519E+01
  0.1721429E+01  0.1131894E+06 -0.6478826E+00  0.1066654E+06 -0.2631049E+01  0.1857835E+06  0.2123173E+01
  0.1752381E+01  0.1036290E+06 -0.6189861E+00  0.1038354E+06 -0.2630826E+01  0.1756772E+06  0.2118384E+01
  0.1783333E+01  0.9371207E+05 -0.5912166E+00  0.1009141E+06 -0.2631242E+01  0.1653875E+06  0.2108422E+01
  0.1814286E+01  0.8352061E+05 -0.5656283E+00  0.9776605E+05 -0.2631744E+01  0.1545845E+06  0.2091125E+01
  0.1845238E+01  0.7307289E+05 -0.5424317E+00  0.9440667E+05 -0.2632213E+01  0.1432455E+06  0.2064982E+01
  0.1876190E+01  0.6253709E+05 -0.5211009E+00  0.9102080E+05 -0.2633313E+01  0.1323289E+06  0.2030910E+01
  0.1907143E+01  0.5206822E+05 -0.5030910E+00  0.8760142E+05 -0.2634664E+01  0.1222306E+06  0.1988028E+01
  0.1938095E+01  0.4146352E+05 -0.4868251E+00  0.8415058E+05 -0.2636548E+01  0.1123270E+06  0.1933142E+01
  0.1969048E+01  0.3085936E+05 -0.4747396E+00  0.8066780E+05 -0.2639064E+01  0.1029878E+06  0.1864331E+01
  0.2000000E+01  0.2028455E+05 -0.4700027E+00  0.7716941E+05 -0.2642184E+01  0.9442405E+05  0.1779837E+01
