VARIABLES="w (rad/s)"
"abs(F   1   1)" "angle(F   1   1)"
"abs(F   1   2)" "angle(F   1   2)"
"abs(F   1   3)" "angle(F   1   3)"
Zone t="Diffraction force - beta =   0.000 deg",I=    64,F=POINT
  0.5000000E-01  0.1047889E+04 -0.1570795E+01  0.1618587E+03 -0.3107957E+01  0.1365470E+04  0.1570797E+01
  0.8095238E-01  0.1712562E+04 -0.1570793E+01  0.4207873E+03 -0.3106880E+01  0.2228161E+04  0.1570799E+01
  0.1119048E+00  0.2401008E+04 -0.1570789E+01  0.8005338E+03 -0.3105509E+01  0.3121330E+04  0.1570802E+01
  0.1428571E+00  0.3108142E+04 -0.1570783E+01  0.1300700E+04 -0.3103708E+01  0.4044033E+04  0.1570807E+01
  0.1738095E+00  0.3853327E+04 -0.1570775E+01  0.1919430E+04 -0.3101359E+01  0.5011066E+04  0.1570814E+01
  0.2047619E+00  0.4629993E+04 -0.1570763E+01  0.2662770E+04 -0.3098461E+01  0.6027040E+04  0.1570824E+01
  0.2357143E+00  0.5470324E+04 -0.1570746E+01  0.3531588E+04 -0.3094809E+01  0.7120749E+04  0.1570838E+01
  0.2666667E+00  0.6379045E+04 -0.1570720E+01  0.4516481E+04 -0.3090250E+01  0.8297631E+04  0.1570859E+01
  0.2976190E+00  0.7343438E+04 -0.1570682E+01  0.5637806E+04 -0.3084638E+01  0.9569470E+04  0.1570890E+01
  0.3285715E+00  0.8436365E+04 -0.1570625E+01  0.6865779E+04 -0.3077713E+01  0.1099229E+05  0.1570937E+01
  0.3595238E+00  0.9634221E+04 -0.1570540E+01  0.8228838E+04 -0.3069439E+01  0.1255349E+05  0.1571007E+01
  0.3904762E+00  0.1095027E+05 -0.1570412E+01  0.9694628E+04 -0.3059467E+01  0.1427729E+05  0.1571113E+01
  0.4214286E+00  0.1243131E+05 -0.1570225E+01  0.1126597E+05 -0.3048338E+01  0.1622167E+05  0.1571267E+01
  0.4523810E+00  0.1409573E+05 -0.1569951E+01  0.1294011E+05 -0.3035408E+01  0.1837431E+05  0.1571494E+01
  0.4833333E+00  0.1588362E+05 -0.1569567E+01  0.1466538E+05 -0.3022160E+01  0.2071704E+05  0.1571810E+01
  0.5142857E+00  0.1782028E+05 -0.1569033E+01  0.1650698E+05 -0.3008215E+01  0.2326928E+05  0.1572252E+01
  0.5452381E+00  0.1998305E+05 -0.1568323E+01  0.1832730E+05 -0.2993579E+01  0.2609234E+05  0.1572840E+01
  0.5761905E+00  0.2228365E+05 -0.1567396E+01  0.2023486E+05 -0.2979620E+01  0.2910430E+05  0.1573609E+01
  0.6071429E+00  0.2471734E+05 -0.1566192E+01  0.2216844E+05 -0.2965188E+01  0.3226234E+05  0.1574610E+01
  0.6380953E+00  0.2724823E+05 -0.1564682E+01  0.2409052E+05 -0.2951266E+01  0.3559022E+05  0.1575866E+01
  0.6690477E+00  0.2992858E+05 -0.1562800E+01  0.2608243E+05 -0.2937950E+01  0.3915058E+05  0.1577428E+01
  0.7000000E+00  0.3284768E+05 -0.1560497E+01  0.2805317E+05 -0.2924357E+01  0.4289941E+05  0.1579358E+01
  0.7309524E+00  0.3587053E+05 -0.1557700E+01  0.2997548E+05 -0.2910817E+01  0.4683138E+05  0.1581701E+01
  0.7619048E+00  0.3897656E+05 -0.1554322E+01  0.3192957E+05 -0.2897923E+01  0.5091207E+05  0.1584531E+01
  0.7928572E+00  0.4218266E+05 -0.1550287E+01  0.3391670E+05 -0.2885861E+01  0.5509690E+05  0.1587919E+01
  0.8238096E+00  0.4555948E+05 -0.1545537E+01  0.3572976E+05 -0.2872646E+01  0.5951562E+05  0.1591914E+01
  0.8547620E+00  0.4909072E+05 -0.1539995E+01  0.3753623E+05 -0.2860095E+01  0.6406623E+05  0.1596595E+01
  0.8857143E+00  0.5282626E+05 -0.1533584E+01  0.3934595E+05 -0.2848293E+01  0.6893995E+05  0.1602017E+01
  0.9166667E+00  0.5663676E+05 -0.1526171E+01  0.4115553E+05 -0.2837545E+01  0.7381119E+05  0.1608322E+01
  0.9476191E+00  0.6060100E+05 -0.1517706E+01  0.4273204E+05 -0.2825418E+01  0.7891451E+05  0.1615533E+01
  0.9785714E+00  0.6456919E+05 -0.1508030E+01  0.4426764E+05 -0.2813953E+01  0.8403848E+05  0.1623782E+01
  0.1009524E+01  0.6861924E+05 -0.1497105E+01  0.4576679E+05 -0.2803204E+01  0.8931129E+05  0.1633098E+01
  0.1040476E+01  0.7274288E+05 -0.1484859E+01  0.4724525E+05 -0.2793516E+01  0.9467687E+05  0.1643553E+01
  0.1071429E+01  0.7708793E+05 -0.1471370E+01  0.4856223E+05 -0.2783610E+01  0.1001659E+06  0.1655141E+01
  0.1102381E+01  0.8157036E+05 -0.1456498E+01  0.4971397E+05 -0.2773165E+01  0.1058523E+06  0.1667949E+01
  0.1133333E+01  0.8597637E+05 -0.1440007E+01  0.5078993E+05 -0.2763358E+01  0.1113907E+06  0.1682205E+01
  0.1164286E+01  0.9038072E+05 -0.1421916E+01  0.5181243E+05 -0.2754277E+01  0.1170080E+06  0.1697834E+01
  0.1195238E+01  0.9471372E+05 -0.1402153E+01  0.5278680E+05 -0.2746183E+01  0.1225498E+06  0.1714917E+01
  0.1226190E+01  0.9893842E+05 -0.1380711E+01  0.5364812E+05 -0.2738591E+01  0.1278703E+06  0.1733508E+01
  0.1257143E+01  0.1029855E+06 -0.1357567E+01  0.5424461E+05 -0.2729455E+01  0.1330083E+06  0.1753536E+01
  0.1288095E+01  0.1069922E+06 -0.1332985E+01  0.5476777E+05 -0.2721381E+01  0.1380836E+06  0.1774828E+01
  0.1319048E+01  0.1105978E+06 -0.1306670E+01  0.5520134E+05 -0.2713669E+01  0.1425607E+06  0.1797597E+01
  0.1350000E+01  0.1141343E+06 -0.1279199E+01  0.5557862E+05 -0.2706654E+01  0.1470524E+06  0.1821267E+01
  0.1380952E+01  0.1173688E+06 -0.1250345E+01  0.5589668E+05 -0.2700573E+01  0.1510554E+06  0.1846159E+01
  0.1411905E+01  0.1200339E+06 -0.1219705E+01  0.5610902E+05 -0.2694916E+01  0.1544077E+06  0.1872488E+01
  0.1442857E+01  0.1225090E+06 -0.1188326E+01  0.5602489E+05 -0.2687920E+01  0.1573552E+06  0.1899530E+01
  0.1473810E+01  0.1244356E+06 -0.1155802E+01  0.5588504E+05 -0.2681445E+01  0.1597532E+06  0.1927332E+01
  0.1504762E+01  0.1257654E+06 -0.1122311E+01  0.5566155E+05 -0.2675565E+01  0.1612962E+06  0.1955857E+01
  0.1535714E+01  0.1265620E+06 -0.1088267E+01  0.5536762E+05 -0.2670121E+01  0.1622033E+06  0.1984634E+01
  0.1566667E+01  0.1269099E+06 -0.1054193E+01  0.5500571E+05 -0.2665278E+01  0.1626431E+06  0.2013103E+01
  0.1597619E+01  0.1265746E+06 -0.1019749E+01  0.5459530E+05 -0.2661170E+01  0.1620938E+06  0.2041678E+01
  0.1628572E+01  0.1256494E+06 -0.9851547E+00  0.5410801E+05 -0.2657668E+01  0.1607985E+06  0.2070132E+01
  0.1659524E+01  0.1241932E+06 -0.9508811E+00  0.5334313E+05 -0.2653034E+01  0.1588054E+06  0.2097903E+01
  0.1690476E+01  0.1221357E+06 -0.9168571E+00  0.5253233E+05 -0.2648761E+01  0.1562322E+06  0.2124881E+01
  0.1721429E+01  0.1194740E+06 -0.8834355E+00  0.5166441E+05 -0.2645069E+01  0.1528834E+06  0.2150772E+01
  0.1752381E+01  0.1161978E+06 -0.8507155E+00  0.5073802E+05 -0.2641964E+01  0.1486587E+06  0.2175424E+01
  0.1783333E+01  0.1124992E+06 -0.8187271E+00  0.4977271E+05 -0.2638932E+01  0.1441035E+06  0.2198762E+01
  0.1814286E+01  0.1083608E+06 -0.7875355E+00  0.4877004E+05 -0.2636368E+01  0.1391294E+06  0.2220638E+01
  0.1845238E+01  0.1036968E+06 -0.7572738E+00  0.4773515E+05 -0.2634571E+01  0.1333920E+06  0.2240743E+01
  0.1876190E+01  0.9867678E+05 -0.7281795E+00  0.4667088E+05 -0.2633513E+01  0.1272386E+06  0.2258726E+01
  0.1907143E+01  0.9339558E+05 -0.7005404E+00  0.4539891E+05 -0.2632127E+01  0.1207167E+06  0.2274160E+01
  0.1938095E+01  0.8785079E+05 -0.6740850E+00  0.4409995E+05 -0.2630852E+01  0.1140081E+06  0.2287163E+01
  0.1969048E+01  0.8196079E+05 -0.6482252E+00  0.4279541E+05 -0.2629747E+01  0.1069736E+06  0.2297972E+01
  0.2000000E+01  0.7580195E+05 -0.6234526E+00  0.4147368E+05 -0.2629217E+01  0.9960751E+05  0.2305663E+01
