VARIABLES="w (rad/s)"
"abs(F   1   1)" "angle(F   1   1)"
"abs(F   1   2)" "angle(F   1   2)"
"abs(F   1   3)" "angle(F   1   3)"
Zone t="Diffraction force - beta =   0.000 deg",I=    64,F=POINT
  0.5000000E-01  0.3229976E+04 -0.1570798E+01  0.6371627E+06 -0.4204944E-04  0.2849777E+04 -0.1570794E+01
  0.8095238E-01  0.5265690E+04 -0.1570792E+01  0.6356898E+06 -0.1130658E-03  0.4625330E+04 -0.1570794E+01
  0.1119048E+00  0.7358614E+04 -0.1570789E+01  0.6335296E+06 -0.2243669E-03  0.6426440E+04 -0.1570799E+01
  0.1428571E+00  0.9514656E+04 -0.1570789E+01  0.6306811E+06 -0.3842661E-03  0.8288894E+04 -0.1570797E+01
  0.1738095E+00  0.1178354E+05 -0.1570784E+01  0.6271377E+06 -0.6054484E-03  0.1020362E+05 -0.1570788E+01
  0.2047619E+00  0.1416366E+05 -0.1570779E+01  0.6228956E+06 -0.9060743E-03  0.1221239E+05 -0.1570782E+01
  0.2357143E+00  0.1670582E+05 -0.1570770E+01  0.6179530E+06 -0.1313025E-02  0.1431216E+05 -0.1570772E+01
  0.2666667E+00  0.1946510E+05 -0.1570757E+01  0.6122858E+06 -0.1858492E-02  0.1654410E+05 -0.1570759E+01
  0.2976190E+00  0.2242696E+05 -0.1570737E+01  0.6059218E+06 -0.2597758E-02  0.1895576E+05 -0.1570738E+01
  0.3285715E+00  0.2567312E+05 -0.1570707E+01  0.5988249E+06 -0.3585471E-02  0.2152531E+05 -0.1570708E+01
  0.3595238E+00  0.2934218E+05 -0.1570662E+01  0.5910514E+06 -0.4909819E-02  0.2430339E+05 -0.1570662E+01
  0.3904762E+00  0.3332486E+05 -0.1570594E+01  0.5825583E+06 -0.6667972E-02  0.2735731E+05 -0.1570596E+01
  0.4214286E+00  0.3771651E+05 -0.1570497E+01  0.5734959E+06 -0.8916184E-02  0.3069473E+05 -0.1570498E+01
  0.4523810E+00  0.4266132E+05 -0.1570353E+01  0.5638278E+06 -0.1182619E-01  0.3418991E+05 -0.1570353E+01
  0.4833333E+00  0.4806692E+05 -0.1570151E+01  0.5536394E+06 -0.1530453E-01  0.3801127E+05 -0.1570152E+01
  0.5142857E+00  0.5389919E+05 -0.1569871E+01  0.5430859E+06 -0.1955439E-01  0.4209213E+05 -0.1569872E+01
  0.5452381E+00  0.6007550E+05 -0.1569495E+01  0.5320701E+06 -0.2449219E-01  0.4634180E+05 -0.1569497E+01
  0.5761905E+00  0.6686847E+05 -0.1569006E+01  0.5207812E+06 -0.3012965E-01  0.5063636E+05 -0.1569008E+01
  0.6071429E+00  0.7403762E+05 -0.1568372E+01  0.5092128E+06 -0.3663057E-01  0.5504093E+05 -0.1568375E+01
  0.6380953E+00  0.8143222E+05 -0.1567575E+01  0.4972449E+06 -0.4378248E-01  0.5955354E+05 -0.1567583E+01
  0.6690477E+00  0.8914223E+05 -0.1566583E+01  0.4852348E+06 -0.5178355E-01  0.6418329E+05 -0.1566597E+01
  0.7000000E+00  0.9715285E+05 -0.1565361E+01  0.4730537E+06 -0.6071339E-01  0.6860955E+05 -0.1565378E+01
  0.7309524E+00  0.1057044E+06 -0.1563885E+01  0.4605946E+06 -0.7043379E-01  0.7284116E+05 -0.1563905E+01
  0.7619048E+00  0.1144916E+06 -0.1562109E+01  0.4481462E+06 -0.8107648E-01  0.7719671E+05 -0.1562144E+01
  0.7928572E+00  0.1234729E+06 -0.1559994E+01  0.4356963E+06 -0.9266920E-01  0.8142670E+05 -0.1560053E+01
  0.8238096E+00  0.1325573E+06 -0.1557500E+01  0.4231745E+06 -0.1052032E+00  0.8548508E+05 -0.1557595E+01
  0.8547620E+00  0.1417788E+06 -0.1554595E+01  0.4105890E+06 -0.1186684E+00  0.8929512E+05 -0.1554732E+01
  0.8857143E+00  0.1513711E+06 -0.1551262E+01  0.3982790E+06 -0.1331543E+00  0.9300052E+05 -0.1551416E+01
  0.9166667E+00  0.1614111E+06 -0.1547469E+01  0.3859248E+06 -0.1486077E+00  0.9611623E+05 -0.1547645E+01
  0.9476191E+00  0.1714031E+06 -0.1543153E+01  0.3736723E+06 -0.1650261E+00  0.9908430E+05 -0.1543424E+01
  0.9785714E+00  0.1813503E+06 -0.1538282E+01  0.3614742E+06 -0.1823725E+00  0.1017332E+06 -0.1538724E+01
  0.1009524E+01  0.1912940E+06 -0.1532857E+01  0.3496010E+06 -0.2007521E+00  0.1042286E+06 -0.1533525E+01
  0.1040476E+01  0.2012031E+06 -0.1526872E+01  0.3379356E+06 -0.2201280E+00  0.1063021E+06 -0.1527821E+01
  0.1071429E+01  0.2108562E+06 -0.1520336E+01  0.3263945E+06 -0.2404986E+00  0.1078491E+06 -0.1521634E+01
  0.1102381E+01  0.2203065E+06 -0.1513289E+01  0.3149897E+06 -0.2618449E+00  0.1089063E+06 -0.1514928E+01
  0.1133333E+01  0.2298183E+06 -0.1505866E+01  0.3037157E+06 -0.2841412E+00  0.1090892E+06 -0.1507629E+01
  0.1164286E+01  0.2390552E+06 -0.1498043E+01  0.2928886E+06 -0.3074635E+00  0.1092269E+06 -0.1500283E+01
  0.1195238E+01  0.2478183E+06 -0.1489864E+01  0.2823013E+06 -0.3317766E+00  0.1089096E+06 -0.1492744E+01
  0.1226190E+01  0.2559652E+06 -0.1481429E+01  0.2718797E+06 -0.3570932E+00  0.1078501E+06 -0.1485335E+01
  0.1257143E+01  0.2633534E+06 -0.1472857E+01  0.2616638E+06 -0.3836538E+00  0.1062669E+06 -0.1478021E+01
  0.1288095E+01  0.2702683E+06 -0.1464480E+01  0.2516452E+06 -0.4106313E+00  0.1040343E+06 -0.1470596E+01
  0.1319048E+01  0.2764539E+06 -0.1456419E+01  0.2418560E+06 -0.4388420E+00  0.1011141E+06 -0.1463568E+01
  0.1350000E+01  0.2818119E+06 -0.1448812E+01  0.2325683E+06 -0.4679972E+00  0.9835054E+05 -0.1457815E+01
  0.1380952E+01  0.2862941E+06 -0.1441827E+01  0.2234987E+06 -0.4980919E+00  0.9509239E+05 -0.1452775E+01
  0.1411905E+01  0.2896346E+06 -0.1435401E+01  0.2146783E+06 -0.5288707E+00  0.9125873E+05 -0.1449167E+01
  0.1442857E+01  0.2922167E+06 -0.1430398E+01  0.2060223E+06 -0.5610643E+00  0.8685424E+05 -0.1447044E+01
  0.1473810E+01  0.2938452E+06 -0.1426762E+01  0.1975615E+06 -0.5941325E+00  0.8218836E+05 -0.1445982E+01
  0.1504762E+01  0.2944152E+06 -0.1424498E+01  0.1892699E+06 -0.6281892E+00  0.7714034E+05 -0.1448311E+01
  0.1535714E+01  0.2940687E+06 -0.1424112E+01  0.1813877E+06 -0.6631695E+00  0.7228751E+05 -0.1452556E+01
  0.1566667E+01  0.2929061E+06 -0.1425851E+01  0.1739045E+06 -0.6988985E+00  0.6771873E+05 -0.1457731E+01
  0.1597619E+01  0.2909963E+06 -0.1429807E+01  0.1666222E+06 -0.7355073E+00  0.6287942E+05 -0.1465596E+01
  0.1628572E+01  0.2882609E+06 -0.1436028E+01  0.1595265E+06 -0.7732884E+00  0.5787200E+05 -0.1477118E+01
  0.1659524E+01  0.2847425E+06 -0.1444690E+01  0.1526365E+06 -0.8119256E+00  0.5295221E+05 -0.1492438E+01
  0.1690476E+01  0.2805694E+06 -0.1456004E+01  0.1459596E+06 -0.8514035E+00  0.4820186E+05 -0.1508455E+01
  0.1721429E+01  0.2758854E+06 -0.1470062E+01  0.1394279E+06 -0.8916728E+00  0.4346860E+05 -0.1526139E+01
  0.1752381E+01  0.2707002E+06 -0.1487034E+01  0.1330994E+06 -0.9329246E+00  0.3880031E+05 -0.1548203E+01
  0.1783333E+01  0.2651783E+06 -0.1507536E+01  0.1272200E+06 -0.9741710E+00  0.3527308E+05 -0.1562582E+01
  0.1814286E+01  0.2594025E+06 -0.1531303E+01  0.1215491E+06 -0.1015810E+01  0.3205514E+05 -0.1569756E+01
  0.1845238E+01  0.2534831E+06 -0.1558301E+01  0.1159833E+06 -0.1058407E+01  0.2884197E+05 -0.1572042E+01
  0.1876190E+01  0.2473973E+06 -0.1588687E+01  0.1105651E+06 -0.1101951E+01  0.2571433E+05 -0.1570199E+01
  0.1907143E+01  0.2412055E+06 -0.1622642E+01  0.1053155E+06 -0.1146039E+01  0.2287195E+05 -0.1555084E+01
  0.1938095E+01  0.2350804E+06 -0.1660067E+01  0.1001685E+06 -0.1190959E+01  0.2022760E+05 -0.1516464E+01
  0.1969048E+01  0.2290988E+06 -0.1701043E+01  0.9509968E+05 -0.1237071E+01  0.1784470E+05 -0.1445222E+01
  0.2000000E+01  0.2233041E+06 -0.1745657E+01  0.9018544E+05 -0.1283583E+01  0.1583779E+05 -0.1335261E+01
