VARIABLES="w (rad/s)"
"A   1   1" "B   1   1"
"A   1   2" "B   1   2"
"A   1   3" "B   1   3"
Zone t="Motion of body    1 in DoF   1",I=    64,F=POINT
  0.5000000E-01  0.9459292E+05  0.1257058E-01  0.4539490E-02  0.5992666E-04  0.2007095E+04  0.3412911E-03
  0.8095238E-01  0.9485681E+05  0.5529223E-01  0.1531489E-02 -0.4014310E-04  0.1999436E+04  0.1491473E-02
  0.1119048E+00  0.9486716E+05  0.1550916E+00  0.6442780E-02  0.8048463E-04  0.1980152E+04  0.4176929E-02
  0.1428571E+00  0.9499372E+05  0.3491629E+00 -0.1791763E-01 -0.1957364E-03  0.2008645E+04  0.9477789E-02
  0.1738095E+00  0.9527288E+05  0.6952978E+00 -0.1294907E-02 -0.3450504E-04  0.2002640E+04  0.1893300E-01
  0.2047619E+00  0.9551500E+05  0.1282598E+01  0.8197163E-03  0.2254359E-04  0.2030351E+04  0.3520178E-01
  0.2357143E+00  0.9556160E+05  0.2257108E+01  0.2230095E-01  0.5373424E-03  0.2026822E+04  0.6215663E-01
  0.2666667E+00  0.9599261E+05  0.3853053E+01  0.5636215E-02 -0.5155522E-04  0.2050268E+04  0.1069826E+00
  0.2976190E+00  0.9630358E+05  0.6461351E+01  0.7305908E-02 -0.4314631E-04  0.2074253E+04  0.1809541E+00
  0.3285715E+00  0.9650991E+05  0.1068382E+02  0.9752355E-03 -0.8499622E-04  0.2090834E+04  0.3019396E+00
  0.3595238E+00  0.9702855E+05  0.1754763E+02  0.2291850E-02  0.2777427E-03  0.2125740E+04  0.5013072E+00
  0.3904762E+00  0.9763194E+05  0.2862196E+02 -0.5236369E-02 -0.6624982E-03  0.2180875E+04  0.8291451E+00
  0.4214286E+00  0.9790045E+05  0.4599640E+02 -0.9757865E-02 -0.5335808E-03  0.2168515E+04  0.1341945E+01
  0.4523810E+00  0.9843607E+05  0.7333553E+02  0.1765763E-01  0.1443148E-02  0.2214619E+04  0.2168713E+01
  0.4833333E+00  0.9930220E+05  0.1141421E+03  0.1240697E-01  0.1571774E-02  0.2266568E+04  0.3423021E+01
  0.5142857E+00  0.1000299E+06  0.1746418E+03  0.2284580E-01  0.2279788E-02  0.2319568E+04  0.5315443E+01
  0.5452381E+00  0.1005322E+06  0.2606086E+03  0.1975780E-01  0.1325488E-02  0.2327949E+04  0.8018158E+01
  0.5761905E+00  0.1013173E+06  0.3799842E+03 -0.6408691E-02 -0.5331039E-03  0.2370464E+04  0.1185740E+02
  0.6071429E+00  0.1024342E+06  0.5442703E+03  0.1161104E-01  0.3188133E-02  0.2458997E+04  0.1730106E+02
  0.6380953E+00  0.1035765E+06  0.7622902E+03  0.4830431E-02  0.4607439E-03  0.2528587E+04  0.2463910E+02
  0.6690477E+00  0.1044300E+06  0.1048199E+04  0.7070086E-03  0.2046347E-02  0.2553077E+04  0.3432909E+02
  0.7000000E+00  0.1053559E+06  0.1419421E+04 -0.1177107E-02 -0.7996559E-03  0.2613932E+04  0.4728769E+02
  0.7309524E+00  0.1066422E+06  0.1893173E+04 -0.6993197E-02 -0.1004219E-02  0.2691426E+04  0.6416653E+02
  0.7619048E+00  0.1080841E+06  0.2491845E+04 -0.5567550E-02 -0.2205372E-02  0.2777938E+04  0.8599215E+02
  0.7928572E+00  0.1095326E+06  0.3239122E+04  0.2386419E-02  0.6305218E-02  0.2886669E+04  0.1141205E+03
  0.8238096E+00  0.1109265E+06  0.4160553E+04 -0.5038046E-02 -0.3372192E-02  0.2970346E+04  0.1493377E+03
  0.8547620E+00  0.1121409E+06  0.5281829E+04  0.2588469E-01  0.1702404E-01  0.3024520E+04  0.1926764E+03
  0.8857143E+00  0.1134747E+06  0.6634896E+04 -0.4065729E-02  0.2341270E-02  0.3109380E+04  0.2465252E+03
  0.9166667E+00  0.1149670E+06  0.8251315E+04 -0.2130682E-02 -0.2126694E-02  0.3224720E+04  0.3129240E+03
  0.9476191E+00  0.1165675E+06  0.1016430E+05  0.7729075E-02  0.7808685E-02  0.3349268E+04  0.3938194E+03
  0.9785714E+00  0.1181100E+06  0.1240476E+05  0.1743289E-01  0.5678177E-02  0.3467245E+04  0.4905524E+03
  0.1009524E+01  0.1195254E+06  0.1500364E+05  0.1172912E-01  0.1755905E-01  0.3577341E+04  0.6055943E+03
  0.1040476E+01  0.1206428E+06  0.1798278E+05 -0.2141119E-02 -0.6027222E-03  0.3673854E+04  0.7413072E+03
  0.1071429E+01  0.1215613E+06  0.2136690E+05  0.2312826E-01  0.7026672E-02  0.3764119E+04  0.8999484E+03
  0.1102381E+01  0.1223398E+06  0.2516230E+05  0.1226372E-01  0.6935120E-02  0.3849376E+04  0.1081784E+04
  0.1133333E+01  0.1229628E+06  0.2937067E+05  0.1653335E-01  0.2122879E-01  0.3934723E+04  0.1288027E+04
  0.1164286E+01  0.1233819E+06  0.3398898E+05  0.6264528E-02  0.1014709E-02  0.4013207E+04  0.1521436E+04
  0.1195238E+01  0.1234571E+06  0.3899951E+05  0.4493744E-02  0.4280090E-02  0.4088605E+04  0.1785450E+04
  0.1226190E+01  0.1232202E+06  0.4437897E+05  0.1523153E-01  0.1060486E-01  0.4155805E+04  0.2079314E+04
  0.1257143E+01  0.1225987E+06  0.5010700E+05  0.8569197E-02  0.7476807E-03  0.4204445E+04  0.2400742E+04
  0.1288095E+01  0.1216945E+06  0.5601776E+05 -0.4098719E-02  0.9658813E-02  0.4233468E+04  0.2742901E+04
  0.1319048E+01  0.1203574E+06  0.6213727E+05  0.1133667E-02  0.3135681E-02  0.4226008E+04  0.3104190E+04
  0.1350000E+01  0.1186730E+06  0.6836812E+05  0.1035337E-01  0.3236389E-01  0.4207181E+04  0.3490434E+04
  0.1380952E+01  0.1166010E+06  0.7463380E+05 -0.3049653E-02 -0.1007080E-01  0.4176485E+04  0.3899135E+04
  0.1411905E+01  0.1137731E+06  0.8046475E+05  0.7694752E-02 -0.1983643E-03  0.4064965E+04  0.4290069E+04
  0.1442857E+01  0.1111215E+06  0.8650920E+05 -0.1006778E-01  0.8041382E-02  0.4003310E+04  0.4720331E+04
  0.1473810E+01  0.1082205E+06  0.9233734E+05 -0.5073116E-02 -0.8056641E-02  0.3912663E+04  0.5149931E+04
  0.1504762E+01  0.1050685E+06  0.9788305E+05 -0.3001539E-02  0.5737305E-02  0.3798796E+04  0.5580863E+04
  0.1535714E+01  0.1017465E+06  0.1030931E+06 -0.3398097E-02 -0.1068115E-03  0.3670708E+04  0.6008712E+04
  0.1566667E+01  0.9828885E+05  0.1079188E+06 -0.3662109E-02 -0.3067017E-02  0.3532899E+04  0.6433487E+04
  0.1597619E+01  0.9474635E+05  0.1123211E+06  0.6800280E-02  0.1904297E-01  0.3386729E+04  0.6850665E+04
  0.1628572E+01  0.9117088E+05  0.1162794E+06 -0.1517848E-02  0.6286621E-02  0.3223888E+04  0.7256096E+04
  0.1659524E+01  0.8761677E+05  0.1197777E+06  0.1011415E-01  0.1264954E-01  0.3058202E+04  0.7649950E+04
  0.1690476E+01  0.8412349E+05  0.1228184E+06  0.9748432E-03 -0.4653931E-02  0.2877052E+04  0.8023358E+04
  0.1721429E+01  0.8069314E+05  0.1254045E+06  0.4697934E-02  0.1190186E-02  0.2693836E+04  0.8374175E+04
  0.1752381E+01  0.7734402E+05  0.1275622E+06  0.3430740E-02  0.4211426E-02  0.2502323E+04  0.8697242E+04
  0.1783333E+01  0.7412548E+05  0.1293119E+06  0.1042161E-01 -0.1708984E-02  0.2315551E+04  0.9006769E+04
  0.1814286E+01  0.7100166E+05  0.1306740E+06  0.1211091E-02  0.2593994E-03  0.2127020E+04  0.9307222E+04
  0.1845238E+01  0.6802890E+05  0.1316687E+06  0.2001166E-02 -0.9017944E-02  0.1943783E+04  0.9591039E+04
  0.1876190E+01  0.6521864E+05  0.1323291E+06 -0.3822443E-02 -0.3402710E-02  0.1763209E+04  0.9859229E+04
  0.1907143E+01  0.6257554E+05  0.1326784E+06  0.3520380E-02 -0.4425049E-02  0.1589590E+04  0.1011499E+05
  0.1938095E+01  0.6009034E+05  0.1327452E+06 -0.1228201E-02  0.4608154E-02  0.1414022E+04  0.1034995E+05
  0.1969048E+01  0.5775735E+05  0.1325450E+06 -0.1286388E-02 -0.4531860E-02  0.1241482E+04  0.1056059E+05
  0.2000000E+01  0.5556273E+05  0.1321191E+06  0.6149292E-02  0.4470825E-02  0.1074260E+04  0.1075305E+05
Zone t="Motion of body    1 in DoF   2",I=    64,F=POINT
  0.5000000E-01  0.8468628E-02  0.5340576E-04  0.1641885E+06  0.5003642E+03  0.5798340E-02  0.7629395E-05
  0.8095238E-01  0.1194561E-01  0.9799004E-04  0.1617784E+06  0.8291268E+03  0.6879918E-02  0.7867813E-05
  0.1119048E+00 -0.1051639E-01  0.1579523E-03  0.1604767E+06  0.1186229E+04  0.8863084E-02  0.3528595E-04
  0.1428571E+00  0.9746552E-02 -0.8177757E-04  0.1597360E+06  0.1584838E+04  0.7423400E-02  0.6389618E-04
  0.1738095E+00 -0.7045171E-02  0.1263618E-04  0.1594768E+06  0.2041319E+04  0.7111013E-02  0.6532669E-04
  0.2047619E+00  0.1732582E-02  0.2593994E-03  0.1595468E+06  0.2576396E+04  0.7191148E-02  0.7724762E-04
  0.2357143E+00  0.2236568E-01 -0.2651215E-03  0.1598429E+06  0.3218740E+04  0.8868593E-02  0.9059906E-04
  0.2666667E+00  0.3547668E-02 -0.3232956E-03  0.1603855E+06  0.3991649E+04  0.9269713E-02  0.1506805E-03
  0.2976190E+00  0.1640625E-02 -0.7457733E-03  0.1609965E+06  0.4949625E+04  0.8356933E-02  0.1106262E-03
  0.3285715E+00 -0.7360706E-02 -0.9260178E-03  0.1617782E+06  0.6118344E+04  0.9148638E-02  0.4158020E-03
  0.3595238E+00  0.7024095E-02  0.8010864E-03  0.1623930E+06  0.7561528E+04  0.7766824E-02  0.2269745E-03
  0.3904762E+00  0.2461875E-02 -0.2956390E-03  0.1630326E+06  0.9322888E+04  0.1215307E-01  0.1583099E-03
  0.4214286E+00 -0.7965604E-02  0.3738403E-03  0.1631094E+06  0.1137815E+05  0.4779363E-02  0.4272461E-03
  0.4523810E+00  0.6729126E-02 -0.1621246E-02  0.1630158E+06  0.1383075E+05  0.9680497E-02  0.4768372E-03
  0.4833333E+00  0.1426960E-01  0.5245209E-03  0.1622992E+06  0.1646133E+05  0.7071659E-02  0.8430481E-03
  0.5142857E+00  0.3159841E-02  0.6332397E-03  0.1610491E+06  0.1939988E+05  0.6171333E-02  0.9918213E-03
  0.5452381E+00 -0.8115810E-02 -0.1453400E-02  0.1594840E+06  0.2246905E+05  0.5373226E-02  0.1693726E-02
  0.5761905E+00 -0.2330433E-02 -0.1148224E-02  0.1574783E+06  0.2560991E+05  0.8156516E-02  0.8010864E-03
  0.6071429E+00  0.1618509E-01  0.1331329E-02  0.1551069E+06  0.2890023E+05  0.4574046E-02  0.9613037E-03
  0.6380953E+00  0.9756515E-02  0.1449585E-03  0.1526482E+06  0.3212249E+05  0.7747821E-02  0.7934570E-03
  0.6690477E+00 -0.4264859E-02 -0.3356934E-02  0.1498940E+06  0.3536448E+05  0.6613952E-02  0.1800537E-02
  0.7000000E+00  0.1004900E-01  0.8663177E-02  0.1469510E+06  0.3863217E+05  0.6801060E-02  0.8773804E-03
  0.7309524E+00  0.1999846E-01 -0.2475739E-02  0.1439924E+06  0.4181076E+05  0.9059843E-02  0.9307861E-03
  0.7619048E+00 -0.7910728E-02 -0.1964569E-02  0.1408824E+06  0.4492793E+05  0.3925323E-02  0.7858276E-03
  0.7928572E+00  0.6389445E-02 -0.6301880E-02  0.1376542E+06  0.4796936E+05  0.4310951E-02  0.1983643E-02
  0.8238096E+00  0.8335003E-02 -0.6050110E-02  0.1344167E+06  0.5089830E+05  0.9853826E-02  0.1998901E-02
  0.8547620E+00 -0.2606320E-02  0.3883362E-02  0.1311685E+06  0.5369207E+05  0.5176937E-02 -0.8087158E-03
  0.8857143E+00 -0.6184732E-02  0.9971619E-02  0.1279032E+06  0.5634152E+05  0.6477602E-02  0.2441406E-02
  0.9166667E+00  0.2230557E-02  0.5241394E-02  0.1246758E+06  0.5882923E+05  0.5859375E-02  0.4272461E-03
  0.9476191E+00 -0.1075630E-01  0.6866455E-04  0.1214766E+06  0.6114291E+05  0.3703515E-02  0.1327515E-02
  0.9785714E+00  0.2134671E-01  0.1210022E-01  0.1183053E+06  0.6327261E+05  0.4272461E-02  0.2532959E-02
  0.1009524E+01  0.2433489E-02 -0.2593994E-03  0.1151830E+06  0.6521135E+05  0.4957667E-02  0.5950928E-03
  0.1040476E+01  0.1138019E-01 -0.1449585E-02  0.1121310E+06  0.6695494E+05  0.6394026E-02  0.2014160E-02
  0.1071429E+01 -0.1139323E-03  0.2716064E-02  0.1091919E+06  0.6849090E+05  0.5098470E-02  0.9002686E-03
  0.1102381E+01  0.2491500E-02 -0.2532959E-02  0.1063773E+06  0.6981360E+05  0.7031566E-02 -0.2136230E-03
  0.1133333E+01  0.9101419E-02 -0.6187439E-02  0.1036538E+06  0.7094023E+05  0.6193273E-02  0.8850098E-03
  0.1164286E+01  0.8649767E-03  0.3776550E-02  0.1010453E+06  0.7186962E+05  0.5583032E-02  0.2593994E-03
  0.1195238E+01  0.6268262E-02 -0.1324463E-01  0.9853223E+05  0.7261326E+05  0.4672472E-02  0.1296997E-02
  0.1226190E+01  0.2439036E-02 -0.1335144E-02  0.9616884E+05  0.7315880E+05  0.5500275E-02  0.1953125E-02
  0.1257143E+01  0.1000144E-01 -0.9292603E-02  0.9394799E+05  0.7354515E+05  0.5534779E-02  0.1373291E-03
  0.1288095E+01  0.8197439E-02  0.5203247E-02  0.9182095E+05  0.7368361E+05  0.4951632E-02  0.3662109E-03
  0.1319048E+01  0.2625944E-02  0.3311157E-02  0.8983011E+05  0.7369060E+05  0.6131058E-02  0.1159668E-02
  0.1350000E+01 -0.1857051E-01  0.9468079E-02  0.8795309E+05  0.7353657E+05  0.4295066E-02 -0.1953125E-02
  0.1380952E+01 -0.4640777E-03 -0.1574707E-01  0.8619830E+05  0.7321484E+05  0.6298197E-02  0.4119873E-03
  0.1411905E+01 -0.2033922E-01 -0.7171631E-03  0.8457909E+05  0.7288456E+05  0.5879137E-02 -0.5035400E-03
  0.1442857E+01  0.3743691E-02 -0.1419067E-02  0.8309873E+05  0.7229074E+05  0.4314763E-02 -0.1388550E-02
  0.1473810E+01 -0.9607860E-02 -0.2371597E-01  0.8172719E+05  0.7157206E+05  0.3250935E-02  0.1312256E-02
  0.1504762E+01 -0.5830692E-02 -0.9155273E-02  0.8046728E+05  0.7073298E+05  0.3812766E-02 -0.2502441E-02
  0.1535714E+01  0.9250375E-02  0.6599426E-03  0.7931680E+05  0.6978741E+05  0.4809002E-02 -0.2304077E-02
  0.1566667E+01 -0.2727103E-03 -0.7839203E-02  0.7825147E+05  0.6875016E+05  0.4636074E-02 -0.1266479E-02
  0.1597619E+01 -0.7210972E-02 -0.1408386E-01  0.7729526E+05  0.6761650E+05  0.4469847E-02 -0.2929688E-02
  0.1628572E+01  0.7308156E-03  0.2368927E-02  0.7645306E+05  0.6642010E+05  0.5996436E-02 -0.9460449E-03
  0.1659524E+01  0.1501491E-01  0.1354599E-01  0.7571171E+05  0.6514188E+05  0.5443250E-02  0.5035400E-03
  0.1690476E+01 -0.6137901E-02 -0.6706238E-02  0.7504870E+05  0.6379741E+05  0.6643375E-02 -0.1182556E-02
  0.1721429E+01  0.6559380E-03  0.5401611E-02  0.7446022E+05  0.6239236E+05  0.3651979E-02 -0.2136230E-02
  0.1752381E+01  0.1393194E-03 -0.1602173E-02  0.7395759E+05  0.6094243E+05  0.4632370E-02  0.3738403E-03
  0.1783333E+01  0.7940275E-02 -0.7144928E-02  0.7352340E+05  0.5945417E+05  0.5270700E-02 -0.2738953E-02
  0.1814286E+01  0.3364143E-04  0.1779556E-01  0.7313720E+05  0.5794456E+05  0.5079855E-02  0.3051758E-04
  0.1845238E+01 -0.2365014E-02  0.3032684E-02  0.7283053E+05  0.5639198E+05  0.5490801E-02 -0.2441406E-02
  0.1876190E+01  0.8149123E-02 -0.8327484E-02  0.7258484E+05  0.5484074E+05  0.5074903E-02 -0.2593994E-02
  0.1907143E+01  0.3504378E-02 -0.1226807E-01  0.7239752E+05  0.5325418E+05  0.5824629E-02 -0.1663208E-02
  0.1938095E+01 -0.4345943E-02 -0.6294250E-02  0.7225722E+05  0.5163605E+05  0.5889068E-02 -0.1800537E-02
  0.1969048E+01  0.5052560E-02 -0.1398087E-01  0.7214765E+05  0.5000586E+05  0.6044473E-02 -0.2166748E-02
  0.2000000E+01  0.2761841E-02 -0.8470535E-02  0.7208003E+05  0.4835888E+05  0.5279541E-02 -0.1983643E-02
Zone t="Motion of body    1 in DoF   3",I=    64,F=POINT
  0.5000000E-01  0.2054243E+04  0.3503679E-03  0.1583099E-02 -0.3844755E-05  0.4484417E+04  0.8598987E-05
  0.8095238E-01  0.2045484E+04  0.1542401E-02  0.2267781E-02 -0.6822242E-05  0.4481461E+04  0.4125588E-04
  0.1119048E+00  0.2018780E+04  0.4340185E-02  0.6689924E-02  0.3563382E-04  0.4422770E+04  0.1265694E-03
  0.1428571E+00  0.2055545E+04  0.9797472E-02  0.1443291E-01  0.1385354E-03  0.4471479E+04  0.2495506E-03
  0.1738095E+00  0.2042636E+04  0.1963223E-01  0.6639141E-03 -0.1270494E-04  0.4444324E+04  0.5663542E-03
  0.2047619E+00  0.2072867E+04  0.3642582E-01 -0.2426547E-02 -0.9774058E-04  0.4442002E+04  0.1015661E-02
  0.2357143E+00  0.2069800E+04  0.6445594E-01  0.7711468E-02  0.8529809E-04  0.4452765E+04  0.1802166E-02
  0.2666667E+00  0.2090949E+04  0.1108741E+00  0.1001358E-01  0.1839391E-03  0.4438781E+04  0.3054349E-02
  0.2976190E+00  0.2118000E+04  0.1873854E+00  0.7953187E-02  0.1178967E-03  0.4453496E+04  0.5175186E-02
  0.3285715E+00  0.2135473E+04  0.3127607E+00  0.1390872E-01  0.4973374E-03  0.4449099E+04  0.8783196E-02
  0.3595238E+00  0.2171895E+04  0.5186447E+00 -0.5528027E-02 -0.4097985E-03  0.4462563E+04  0.1481436E-01
  0.3904762E+00  0.2229955E+04  0.8552935E+00  0.8123211E-02  0.4844023E-03  0.4456350E+04  0.2471778E-01
  0.4214286E+00  0.2215448E+04  0.1390481E+01  0.8477032E-02  0.3912011E-03  0.4465684E+04  0.4046635E-01
  0.4523810E+00  0.2262207E+04  0.2241960E+01 -0.6851397E-02 -0.9317831E-03  0.4453578E+04  0.6626783E-01
  0.4833333E+00  0.2316009E+04  0.3534908E+01  0.3985701E-03 -0.4563788E-03  0.4472705E+04  0.1059551E+00
  0.5142857E+00  0.2370715E+04  0.5478273E+01 -0.1108911E-02 -0.5633803E-03  0.4472500E+04  0.1665610E+00
  0.5452381E+00  0.2376966E+04  0.8293357E+01  0.6800490E-02  0.8840635E-03  0.4461955E+04  0.2554257E+00
  0.5761905E+00  0.2421363E+04  0.1227050E+02  0.9738826E-02  0.1207639E-02  0.4479717E+04  0.3833088E+00
  0.6071429E+00  0.2510814E+04  0.1782001E+02  0.8149090E-02  0.1428373E-02  0.4473788E+04  0.5669098E+00
  0.6380953E+00  0.2583509E+04  0.2536705E+02 -0.3814128E-02 -0.1942907E-02  0.4485541E+04  0.8198674E+00
  0.6690477E+00  0.2607337E+04  0.3547911E+02  0.5285460E-02  0.1822710E-03  0.4493407E+04  0.1162705E+01
  0.7000000E+00  0.2668705E+04  0.4883586E+02  0.9672982E-02  0.1907289E-02  0.4483780E+04  0.1626224E+01
  0.7309524E+00  0.2748290E+04  0.6625517E+02  0.2291055E-02 -0.7345378E-03  0.4487827E+04  0.2243857E+01
  0.7619048E+00  0.2836263E+04  0.8872889E+02  0.4916667E-02  0.2696216E-03  0.4508749E+04  0.3063063E+01
  0.7928572E+00  0.2947250E+04  0.1173718E+03  0.1000757E-02 -0.1108974E-02  0.4516215E+04  0.4136979E+01
  0.8238096E+00  0.3029999E+04  0.1536322E+03  0.7691355E-02  0.8016825E-03  0.4506611E+04  0.5513448E+01
  0.8547620E+00  0.3089375E+04  0.1991262E+03  0.8760627E-02  0.3764540E-02  0.4519938E+04  0.7260622E+01
  0.8857143E+00  0.3176400E+04  0.2549110E+03  0.7020273E-02  0.1726568E-02  0.4534071E+04  0.9457653E+01
  0.9166667E+00  0.3292895E+04  0.3228167E+03  0.1111533E-01  0.5301595E-02  0.4535360E+04  0.1223670E+02
  0.9476191E+00  0.3414404E+04  0.4052348E+03  0.4947413E-02  0.1169920E-02  0.4530438E+04  0.1564682E+02
  0.9785714E+00  0.3538158E+04  0.5047835E+03  0.6205983E-02  0.7499456E-03  0.4548955E+04  0.1997097E+02
  0.1009524E+01  0.3652259E+04  0.6233370E+03 -0.2902049E-02 -0.9046197E-02  0.4573272E+04  0.2520985E+02
  0.1040476E+01  0.3748453E+04  0.7631171E+03  0.3981601E-02 -0.5854368E-03  0.4581566E+04  0.3155853E+02
  0.1071429E+01  0.3839439E+04  0.9272244E+03  0.4681905E-02  0.6668568E-03  0.4573290E+04  0.3904620E+02
  0.1102381E+01  0.3924464E+04  0.1115533E+04  0.3169741E-02 -0.2630234E-02  0.4570606E+04  0.4793812E+02
  0.1133333E+01  0.4020090E+04  0.1330756E+04  0.2140718E-02 -0.2051592E-02  0.4589468E+04  0.5814092E+02
  0.1164286E+01  0.4101332E+04  0.1573176E+04  0.3754785E-02 -0.7429123E-03  0.4612562E+04  0.7047104E+02
  0.1195238E+01  0.4173857E+04  0.1844386E+04  0.1032795E-01  0.1206946E-01  0.4623907E+04  0.8460589E+02
  0.1226190E+01  0.4240269E+04  0.2145934E+04  0.2488812E-02 -0.6429434E-02  0.4623497E+04  0.1007358E+03
  0.1257143E+01  0.4289259E+04  0.2476361E+04  0.4011501E-02  0.1075745E-02  0.4620858E+04  0.1181343E+03
  0.1288095E+01  0.4319733E+04  0.2829839E+04  0.1634749E-02 -0.2682209E-02  0.4629149E+04  0.1373445E+03
  0.1319048E+01  0.4317665E+04  0.3211005E+04  0.6165762E-02  0.2905369E-02  0.4649323E+04  0.1605964E+03
  0.1350000E+01  0.4295072E+04  0.3613202E+04  0.1927129E-02 -0.4381657E-02  0.4662111E+04  0.1855968E+03
  0.1380952E+01  0.4256372E+04  0.4031242E+04  0.3530305E-02 -0.5045414E-02  0.4670262E+04  0.2122445E+03
  0.1411905E+01  0.3975491E+04  0.4304028E+04  0.4025695E-02 -0.8869171E-04  0.4631225E+04  0.2302588E+03
  0.1442857E+01  0.3908729E+04  0.4729842E+04  0.3759554E-02  0.2004623E-02  0.4617634E+04  0.2550091E+03
  0.1473810E+01  0.3817623E+04  0.5164096E+04  0.5797847E-02 -0.1043320E-02  0.4612815E+04  0.2839125E+03
  0.1504762E+01  0.3708575E+04  0.5608161E+04  0.3123223E-02 -0.4774094E-02  0.4622057E+04  0.3166378E+03
  0.1535714E+01  0.3579174E+04  0.6042421E+04  0.3909798E-02 -0.4484177E-02  0.4644997E+04  0.3545381E+03
  0.1566667E+01  0.3439781E+04  0.6468904E+04  0.4860086E-02 -0.2075195E-02  0.4652424E+04  0.3907502E+03
  0.1597619E+01  0.3292181E+04  0.6879100E+04  0.1977048E-02  0.4521370E-02  0.4657296E+04  0.4259437E+03
  0.1628572E+01  0.3127235E+04  0.7282397E+04  0.3316779E-02 -0.2662659E-02  0.4639064E+04  0.4563898E+03
  0.1659524E+01  0.2955656E+04  0.7668598E+04  0.3953712E-02 -0.4220009E-02  0.4615273E+04  0.4822791E+03
  0.1690476E+01  0.2765921E+04  0.8041875E+04  0.5135979E-02 -0.4793167E-02  0.4597231E+04  0.5105999E+03
  0.1721429E+01  0.2581877E+04  0.8402591E+04  0.2996041E-02 -0.1647949E-02  0.4592617E+04  0.5466199E+03
  0.1752381E+01  0.2389833E+04  0.8748889E+04  0.4697675E-02 -0.3823280E-02  0.4602351E+04  0.5917967E+03
  0.1783333E+01  0.2196227E+04  0.9061730E+04  0.3713447E-02  0.1840591E-02  0.4616117E+04  0.6438719E+03
  0.1814286E+01  0.2002219E+04  0.9356749E+04  0.5504578E-02 -0.4884720E-02  0.4611714E+04  0.6838591E+03
  0.1845238E+01  0.1815830E+04  0.9625140E+04  0.5759553E-02 -0.1686096E-02  0.4609160E+04  0.7231127E+03
  0.1876190E+01  0.1633541E+04  0.9885351E+04  0.5514077E-02 -0.5550385E-02  0.4586797E+04  0.7440845E+03
  0.1907143E+01  0.1459545E+04  0.1012694E+05  0.1064115E-02 -0.2682686E-02  0.4560263E+04  0.7535135E+03
  0.1938095E+01  0.1278567E+04  0.1035099E+05  0.5975672E-02 -0.2143860E-02  0.4537217E+04  0.7645989E+03
  0.1969048E+01  0.1104336E+04  0.1056960E+05  0.4885949E-02 -0.4602432E-02  0.4528788E+04  0.7909256E+03
  0.2000000E+01  0.9364225E+03  0.1077901E+05  0.3574371E-02 -0.3434181E-02  0.4529373E+04  0.8383371E+03
