VARIABLES="w (rad/s)"
"A   1   1" "B   1   1"
"A   1   2" "B   1   2"
"A   1   3" "B   1   3"
Zone t="Motion of body    1 in DoF   1",I=    64,F=POINT
  0.5000000E-01  0.6410997E+05  0.5781724E-02  0.3662109E-02  0.2448913E-04  0.8492337E+03  0.1045579E-03
  0.8095238E-01  0.6442132E+05  0.2540858E-01 -0.8953318E-03  0.1173076E-04  0.8387910E+03  0.4497999E-03
  0.1119048E+00  0.6445876E+05  0.7138744E-01  0.8692640E-02  0.1017740E-03  0.8412296E+03  0.1270521E-02
  0.1428571E+00  0.6478267E+05  0.1609090E+00 -0.1138878E-01 -0.1073270E-03  0.8544371E+03  0.2884527E-02
  0.1738095E+00  0.6470997E+05  0.3201470E+00  0.3621349E-03  0.3174233E-04  0.8509756E+03  0.5750082E-02
  0.2047619E+00  0.6495691E+05  0.5911671E+00 -0.7247038E-02 -0.9168766E-04  0.8571080E+03  0.1068334E-01
  0.2357143E+00  0.6509146E+05  0.1041446E+01 -0.3867872E-02 -0.1223665E-04  0.8707960E+03  0.1902546E-01
  0.2666667E+00  0.6514455E+05  0.1777021E+01 -0.1945495E-02 -0.1515727E-05  0.8664860E+03  0.3263698E-01
  0.2976190E+00  0.6544968E+05  0.2984081E+01  0.1192017E-02  0.1120893E-03  0.8803096E+03  0.5536599E-01
  0.3285715E+00  0.6565005E+05  0.4940860E+01  0.4609149E-02  0.2293950E-03  0.8944929E+03  0.9279187E-01
  0.3595238E+00  0.6577297E+05  0.8114027E+01  0.7692551E-02  0.5002860E-03  0.9013072E+03  0.1541076E+00
  0.3904762E+00  0.6609228E+05  0.1324309E+02 -0.1150829E-01 -0.6935969E-03  0.9183029E+03  0.2550655E+00
  0.4214286E+00  0.6655458E+05  0.2134058E+02 -0.1002942E-01 -0.3870428E-03  0.9551348E+03  0.4190231E+00
  0.4523810E+00  0.6670526E+05  0.3403513E+02 -0.6408691E-02 -0.5685762E-03  0.9435115E+03  0.6735801E+00
  0.4833333E+00  0.6700907E+05  0.5297700E+02 -0.2441932E-01 -0.1332596E-02  0.9662784E+03  0.1067045E+01
  0.5142857E+00  0.6757036E+05  0.8120063E+02 -0.5103217E-02  0.5699694E-04  0.9915042E+03  0.1662807E+01
  0.5452381E+00  0.6807645E+05  0.1214738E+03  0.3792042E-02  0.3390908E-03  0.1024810E+04  0.2537259E+01
  0.5761905E+00  0.6838695E+05  0.1772675E+03  0.1408853E-01  0.2582252E-02  0.1026995E+04  0.3752750E+01
  0.6071429E+00  0.6883546E+05  0.2540314E+03  0.2890194E-02  0.8909106E-03  0.1040814E+04  0.5460472E+01
  0.6380953E+00  0.6949089E+05  0.3562875E+03 -0.2235868E-02  0.1286864E-03  0.1081448E+04  0.7829584E+01
  0.6690477E+00  0.7024462E+05  0.4913217E+03 -0.3751707E-02  0.4756451E-03  0.1126564E+04  0.1104280E+02
  0.7000000E+00  0.7088726E+05  0.6669767E+03 -0.9002685E-02 -0.1875758E-02  0.1146091E+04  0.1524781E+02
  0.7309524E+00  0.7137352E+05  0.8906353E+03 -0.1582341E-01 -0.4540920E-02  0.1162112E+04  0.2072928E+02
  0.7619048E+00  0.7209260E+05  0.1174352E+04  0.7289886E-02  0.3078222E-02  0.1198400E+04  0.2791410E+02
  0.7928572E+00  0.7296851E+05  0.1530152E+04 -0.1645475E-01 -0.3762722E-02  0.1239185E+04  0.3713733E+02
  0.8238096E+00  0.7388278E+05  0.1971066E+04  0.1046506E-01  0.6468296E-02  0.1288571E+04  0.4894672E+02
  0.8547620E+00  0.7481641E+05  0.2511682E+04 -0.1474534E-01 -0.5850792E-02  0.1348046E+04  0.6397140E+02
  0.8857143E+00  0.7568252E+05  0.3167326E+04 -0.4427510E-02  0.1222134E-02  0.1384712E+04  0.8238375E+02
  0.9166667E+00  0.7645069E+05  0.3954169E+04 -0.2679998E-02  0.1409531E-02  0.1410349E+04  0.1048138E+03
  0.9476191E+00  0.7729834E+05  0.4891141E+04 -0.7857893E-02 -0.1175880E-02  0.1455152E+04  0.1325184E+03
  0.9785714E+00  0.7825365E+05  0.5997688E+04 -0.4210089E-02  0.7438660E-03  0.1515032E+04  0.1664181E+03
  0.1009524E+01  0.7927144E+05  0.7293420E+04  0.6544726E-02  0.5300522E-02  0.1580295E+04  0.2074937E+03
  0.1040476E+01  0.8025794E+05  0.8796538E+04 -0.4018264E-02 -0.3833771E-02  0.1641873E+04  0.2562580E+03
  0.1071429E+01  0.8117987E+05  0.1052586E+05 -0.7661947E-02 -0.3105164E-02  0.1702654E+04  0.3140534E+03
  0.1102381E+01  0.8193612E+05  0.1249521E+05  0.4124817E-02 -0.1049042E-03  0.1755801E+04  0.3819230E+03
  0.1133333E+01  0.8255581E+05  0.1471888E+05 -0.4577637E-02  0.1457214E-02  0.1802310E+04  0.4609420E+03
  0.1164286E+01  0.8306578E+05  0.1720418E+05  0.6159683E-02  0.6107330E-02  0.1851623E+04  0.5518548E+03
  0.1195238E+01  0.8350691E+05  0.1995272E+05 -0.4876733E-02  0.6286621E-02  0.1897877E+04  0.6548858E+03
  0.1226190E+01  0.8383326E+05  0.2296315E+05  0.7341996E-02  0.4074097E-02  0.1939922E+04  0.7704390E+03
  0.1257143E+01  0.8396114E+05  0.2624383E+05 -0.3459237E-02 -0.1316833E-01  0.1980443E+04  0.9020092E+03
  0.1288095E+01  0.8396300E+05  0.2974066E+05 -0.1113525E-01 -0.1710892E-01  0.2025080E+04  0.1048731E+04
  0.1319048E+01  0.8373459E+05  0.3347739E+05  0.7449814E-02  0.9574890E-03  0.2063906E+04  0.1211451E+04
  0.1350000E+01  0.8330041E+05  0.3740043E+05  0.1412851E-02  0.7133484E-02  0.2093575E+04  0.1387424E+04
  0.1380952E+01  0.8265325E+05  0.4146812E+05  0.2961257E-02 -0.7164001E-02  0.2109526E+04  0.1575017E+04
  0.1411905E+01  0.8141461E+05  0.4539318E+05 -0.1966917E-02 -0.6034851E-02  0.2067937E+04  0.1756575E+04
  0.1442857E+01  0.8032084E+05  0.4961197E+05 -0.4737779E-02  0.5950928E-03  0.2064138E+04  0.1966715E+04
  0.1473810E+01  0.7898991E+05  0.5384932E+05 -0.1070531E-01  0.1548767E-02  0.2054627E+04  0.2189486E+04
  0.1504762E+01  0.7748312E+05  0.5805195E+05 -0.3447714E-02 -0.1548767E-02  0.2039167E+04  0.2420510E+04
  0.1535714E+01  0.7580988E+05  0.6216481E+05  0.8147483E-03  0.7293701E-02  0.2015855E+04  0.2658535E+04
  0.1566667E+01  0.7398606E+05  0.6614474E+05 -0.8570894E-03 -0.6179810E-02  0.1976491E+04  0.2896664E+04
  0.1597619E+01  0.7201018E+05  0.6994981E+05 -0.8977898E-03  0.1945496E-02  0.1927623E+04  0.3137411E+04
  0.1628572E+01  0.6991681E+05  0.7355000E+05 -0.2679657E-02 -0.1495361E-02  0.1867333E+04  0.3377666E+04
  0.1659524E+01  0.6774992E+05  0.7691344E+05 -0.2942297E-02 -0.6332397E-02  0.1803625E+04  0.3617529E+04
  0.1690476E+01  0.6550648E+05  0.8001402E+05 -0.3574425E-02 -0.1074219E-01  0.1737923E+04  0.3856824E+04
  0.1721429E+01  0.6324106E+05  0.8283718E+05 -0.2756712E-02 -0.3784180E-02  0.1663981E+04  0.4091681E+04
  0.1752381E+01  0.6097034E+05  0.8536848E+05 -0.2133328E-02 -0.1257324E-01  0.1584530E+04  0.4321731E+04
  0.1783333E+01  0.5872003E+05  0.8760894E+05  0.5476052E-03 -0.3639221E-02  0.1500492E+04  0.4545031E+04
  0.1814286E+01  0.5650662E+05  0.8955850E+05 -0.8914978E-03  0.5546570E-02  0.1408385E+04  0.4756690E+04
  0.1845238E+01  0.5433018E+05  0.9122249E+05 -0.1868857E-02  0.8514404E-02  0.1315165E+04  0.4957530E+04
  0.1876190E+01  0.5221453E+05  0.9261760E+05 -0.2602514E-02  0.6187439E-02  0.1218627E+04  0.5145463E+04
  0.1907143E+01  0.5018003E+05  0.9375599E+05 -0.1904206E-02  0.9254456E-02  0.1123365E+04  0.5326046E+04
  0.1938095E+01  0.4820221E+05  0.9464925E+05 -0.2794945E-02  0.1161194E-01  0.1028053E+04  0.5503693E+04
  0.1969048E+01  0.4631637E+05  0.9530933E+05 -0.6974392E-03 -0.9613037E-03  0.9340632E+03  0.5673112E+04
  0.2000000E+01  0.4452625E+05  0.9575620E+05 -0.1091003E-02 -0.2685547E-02  0.8409311E+03  0.5834989E+04
Zone t="Motion of body    1 in DoF   2",I=    64,F=POINT
  0.5000000E-01  0.1527786E-01  0.3951788E-04  0.1105328E+06  0.2971638E+03  0.1106262E-02  0.1341105E-04
  0.8095238E-01 -0.1011961E-01  0.2026558E-05  0.1092198E+06  0.4926850E+03  0.1908471E-02  0.2419949E-04
  0.1119048E+00  0.2965724E-02  0.1239777E-04  0.1084770E+06  0.7054575E+03  0.3067991E-02  0.2706051E-04
  0.1428571E+00  0.1028061E-01  0.6055832E-04  0.1080802E+06  0.9434987E+03  0.1976013E-02  0.3862381E-04
  0.1738095E+00 -0.4685807E-02 -0.1311302E-05  0.1079649E+06  0.1216920E+04  0.2238652E-02  0.6222725E-04
  0.2047619E+00 -0.5402676E-02  0.2014637E-04  0.1080643E+06  0.1538370E+04  0.3912283E-02  0.9965897E-04
  0.2357143E+00 -0.8739124E-03  0.2574921E-04  0.1083185E+06  0.1925516E+04  0.1650723E-02  0.1015663E-03
  0.2666667E+00  0.4577636E-03  0.3151894E-03  0.1087161E+06  0.2393313E+04  0.5435944E-03  0.1087189E-03
  0.2976190E+00  0.1457336E-01 -0.2603531E-03  0.1092002E+06  0.2975032E+04  0.2409668E-02  0.8487701E-04
  0.3285715E+00  0.1387389E-01 -0.3867149E-03  0.1097378E+06  0.3688279E+04  0.2368429E-02  0.1468658E-03
  0.3595238E+00  0.1614905E-01  0.8535385E-04  0.1102560E+06  0.4572484E+04  0.1315692E-02  0.1697540E-03
  0.3904762E+00  0.1076582E-01 -0.0000000E+00  0.1107572E+06  0.5657762E+04  0.3399732E-02  0.4482269E-03
  0.4214286E+00 -0.1555103E-01  0.2536774E-03  0.1109497E+06  0.6931612E+04  0.1520706E-02  0.2174377E-03
  0.4523810E+00 -0.7875944E-02  0.1316071E-03  0.1110156E+06  0.8459274E+04  0.3069426E-02  0.2288818E-03
  0.4833333E+00  0.1497992E-01  0.1400948E-02  0.1107380E+06  0.1011266E+05  0.2872861E-02  0.5588531E-03
  0.5142857E+00  0.1149707E-01 -0.1554489E-02  0.1101544E+06  0.1197086E+05  0.3590054E-02  0.5359650E-03
  0.5452381E+00 -0.4547652E-02  0.1964569E-03  0.1093027E+06  0.1393147E+05  0.4449703E-02  0.4959106E-03
  0.5761905E+00  0.1271145E-02 -0.1068115E-02  0.1082335E+06  0.1595650E+05 -0.2118576E-03  0.7400513E-03
  0.6071429E+00 -0.8544921E-02 -0.1523972E-02  0.1069193E+06  0.1809565E+05  0.3820082E-02  0.9689331E-03
  0.6380953E+00  0.1213586E-01 -0.4692078E-03  0.1055227E+06  0.2022046E+05  0.2271737E-02  0.9536743E-03
  0.6690477E+00 -0.1596471E-03 -0.6084442E-03  0.1039641E+06  0.2238016E+05  0.3489430E-02  0.8354187E-03
  0.7000000E+00 -0.6212507E-03  0.1628876E-02  0.1022299E+06  0.2458149E+05  0.2463204E-02  0.1426697E-02
  0.7309524E+00  0.3851477E-02 -0.4747391E-02  0.1004548E+06  0.2675451E+05  0.1753518E-02  0.1468658E-02
  0.7619048E+00 -0.2663612E-02  0.2815247E-02  0.9862427E+05  0.2891003E+05  0.2463341E-02  0.1625061E-02
  0.7928572E+00 -0.4474537E-02 -0.1258850E-03  0.9668901E+05  0.3104359E+05  0.1943777E-02  0.1213074E-02
  0.8238096E+00  0.1018723E-03  0.5027771E-02  0.9467852E+05  0.3313637E+05  0.2907990E-02  0.2349854E-02
  0.8547620E+00 -0.3248974E-02 -0.6431580E-02  0.9265824E+05  0.3516511E+05  0.1856557E-02  0.2380371E-02
  0.8857143E+00  0.9311553E-02  0.7057190E-03  0.9062181E+05  0.3711750E+05  0.3066524E-02  0.1861572E-02
  0.9166667E+00 -0.3911799E-03  0.8811951E-03  0.8857126E+05  0.3898515E+05  0.2879750E-02  0.2288818E-02
  0.9476191E+00 -0.5088307E-02  0.6786346E-02  0.8649560E+05  0.4076392E+05  0.8534187E-03  0.2960205E-02
  0.9785714E+00 -0.8435772E-02  0.3612518E-02  0.8443699E+05  0.4244046E+05  0.1871151E-02  0.2212524E-02
  0.1009524E+01  0.5909902E-02 -0.2883911E-02  0.8240861E+05  0.4400433E+05  0.2660212E-02  0.2670288E-02
  0.1040476E+01 -0.4120920E-02 -0.1869202E-02  0.8039970E+05  0.4545346E+05  0.1290537E-02  0.2975464E-02
  0.1071429E+01  0.1409912E-02 -0.1476288E-02  0.7842127E+05  0.4677922E+05  0.2250163E-02  0.2799988E-02
  0.1102381E+01 -0.5176783E-02 -0.2750397E-02  0.7647427E+05  0.4798427E+05  0.2076250E-02  0.4341125E-02
  0.1133333E+01  0.7795446E-02  0.6713867E-02  0.7459172E+05  0.4905891E+05  0.2773509E-02  0.4837036E-02
  0.1164286E+01  0.1834799E-02  0.1220703E-02  0.7278731E+05  0.4999536E+05  0.2437662E-02  0.2700806E-02
  0.1195238E+01 -0.1169395E-01 -0.1674652E-02  0.7103852E+05  0.5080758E+05  0.9702401E-03  0.3532410E-02
  0.1226190E+01 -0.1095077E-02 -0.1525879E-03  0.6935842E+05  0.5149169E+05  0.1095077E-02  0.3890991E-02
  0.1257143E+01  0.3641302E-04 -0.8720398E-02  0.6774063E+05  0.5209025E+05  0.1383695E-02  0.2601624E-02
  0.1288095E+01 -0.2404740E-02 -0.1415253E-02  0.6617570E+05  0.5250431E+05  0.2108590E-02  0.3875732E-02
  0.1319048E+01  0.4962687E-02  0.3364563E-02  0.6470021E+05  0.5282797E+05  0.7403542E-03  0.3746033E-02
  0.1350000E+01 -0.2294470E-02  0.3082275E-02  0.6330699E+05  0.5302582E+05  0.2396195E-02  0.5073547E-02
  0.1380952E+01  0.2331438E-02  0.5760193E-03  0.6198866E+05  0.5310505E+05  0.1016551E-02  0.4852295E-02
  0.1411905E+01 -0.1061271E-01  0.5332947E-02  0.6073341E+05  0.5314419E+05  0.1145567E-02  0.6202698E-02
  0.1442857E+01  0.4885834E-02  0.2613068E-02  0.5955255E+05  0.5302953E+05  0.2326588E-03  0.4493713E-02
  0.1473810E+01 -0.4451918E-03  0.4577637E-02  0.5844116E+05  0.5281750E+05  0.9525034E-03  0.4531860E-02
  0.1504762E+01  0.5972657E-02  0.6298065E-02  0.5741369E+05  0.5251366E+05  0.5881394E-03  0.5119324E-02
  0.1535714E+01  0.6120548E-02 -0.1422882E-02  0.5646772E+05  0.5211645E+05  0.9141078E-03  0.6240845E-02
  0.1566667E+01 -0.3662109E-02  0.2841949E-02  0.5558907E+05  0.5163874E+05  0.9934446E-03  0.5912781E-02
  0.1597619E+01  0.8939695E-02  0.1628876E-02  0.5477180E+05  0.5108440E+05 -0.5348535E-03  0.7308960E-02
  0.1628572E+01  0.1292982E-02  0.2964020E-02  0.5402158E+05  0.5046018E+05  0.6745991E-03  0.4699707E-02
  0.1659524E+01 -0.2363032E-02 -0.2136230E-02  0.5333000E+05  0.4977369E+05 -0.4597339E-03  0.6698608E-02
  0.1690476E+01 -0.6354533E-02 -0.2021790E-02  0.5269050E+05  0.4902831E+05 -0.6137901E-03  0.6874084E-02
  0.1721429E+01  0.2570568E-03  0.6526947E-02  0.5212212E+05  0.4822986E+05 -0.6913941E-03  0.6156921E-02
  0.1752381E+01 -0.8185014E-03  0.1548767E-02  0.5161659E+05  0.4738495E+05 -0.4353731E-03  0.5348206E-02
  0.1783333E+01  0.1463133E-02  0.4547119E-02  0.5116680E+05  0.4648980E+05  0.8556330E-04  0.6683350E-02
  0.1814286E+01  0.2666083E-02  0.4058838E-02  0.5076175E+05  0.4556464E+05 -0.1513864E-03  0.6278992E-02
  0.1845238E+01  0.4060216E-02  0.3143311E-02  0.5040437E+05  0.4459889E+05 -0.4300025E-03  0.6607056E-02
  0.1876190E+01  0.2911563E-02  0.8350372E-02  0.5009188E+05  0.4360190E+05 -0.9434114E-03  0.6874084E-02
  0.1907143E+01 -0.3752405E-02  0.1928329E-02  0.4982059E+05  0.4258359E+05 -0.3680397E-03  0.5676270E-02
  0.1938095E+01 -0.4660867E-02  0.4356384E-02  0.4957481E+05  0.4154809E+05 -0.7715624E-03  0.6141663E-02
  0.1969048E+01 -0.5502020E-03  0.8956909E-02  0.4937721E+05  0.4048650E+05 -0.3874663E-03  0.7801056E-02
  0.2000000E+01  0.4806519E-03 -0.3501892E-02  0.4921572E+05  0.3942405E+05 -0.7171631E-03  0.6355286E-02
Zone t="Motion of body    1 in DoF   3",I=    64,F=POINT
  0.5000000E-01  0.8286270E+03  0.1044640E-03 -0.8618832E-02 -0.9197772E-05  0.2199755E+04  0.2604742E-05
  0.8095238E-01  0.8167043E+03  0.4518549E-03 -0.4859531E-02  0.1071117E-05  0.2215072E+04  0.7809207E-05
  0.1119048E+00  0.8219187E+03  0.1277859E-02 -0.2220032E-02  0.2020795E-04  0.2227757E+04  0.2880562E-04
  0.1428571E+00  0.8339096E+03  0.2884674E-02 -0.1101160E-01 -0.4963376E-04  0.2228389E+04  0.4950301E-04
  0.1738095E+00  0.8307535E+03  0.5769174E-02 -0.2940975E-02  0.4388102E-04  0.2231019E+04  0.1057835E-03
  0.2047619E+00  0.8357440E+03  0.1073525E-01 -0.9734131E-02 -0.6687487E-04  0.2228850E+04  0.2158992E-03
  0.2357143E+00  0.8511005E+03  0.1907036E-01 -0.2690517E-03  0.8431938E-04  0.2229382E+04  0.3529536E-03
  0.2666667E+00  0.8454949E+03  0.3284283E-01 -0.5868673E-02 -0.7697578E-05  0.2228191E+04  0.6073098E-03
  0.2976190E+00  0.8582971E+03  0.5566927E-01 -0.3133850E-02  0.8427697E-04  0.2224543E+04  0.1009080E-02
  0.3285715E+00  0.8742507E+03  0.9323222E-01 -0.7932496E-02 -0.8465929E-04  0.2230874E+04  0.1710407E-02
  0.3595238E+00  0.8811824E+03  0.1549836E+00 -0.1949664E-02  0.1757852E-03  0.2228107E+04  0.2919362E-02
  0.3904762E+00  0.8990604E+03  0.2563978E+00 -0.5751702E-02 -0.7557258E-04  0.2235204E+04  0.4955440E-02
  0.4214286E+00  0.9374097E+03  0.4188283E+00 -0.6451687E-02 -0.4041335E-04  0.2232668E+04  0.8207908E-02
  0.4523810E+00  0.9241208E+03  0.6780769E+00 -0.5419982E-02 -0.1569558E-04  0.2237245E+04  0.1335100E-01
  0.4833333E+00  0.9471919E+03  0.1071952E+01 -0.3078066E-02  0.1736414E-03  0.2230856E+04  0.2157701E-01
  0.5142857E+00  0.9723778E+03  0.1668862E+01 -0.1242055E-01 -0.8585576E-03  0.2238489E+04  0.3409931E-01
  0.5452381E+00  0.1007371E+04  0.2538092E+01 -0.1023222E-01 -0.8153897E-03  0.2243477E+04  0.5284407E-01
  0.5761905E+00  0.1007336E+04  0.3773223E+01 -0.2664771E-02  0.4707985E-03  0.2233058E+04  0.7985084E-01
  0.6071429E+00  0.1021549E+04  0.5505126E+01 -0.3763535E-02  0.4315916E-03  0.2242295E+04  0.1183655E+00
  0.6380953E+00  0.1062206E+04  0.7863956E+01 -0.5111409E-02  0.1134854E-03  0.2240275E+04  0.1729374E+00
  0.6690477E+00  0.1108421E+04  0.1105373E+02 -0.7911084E-02 -0.4821289E-03  0.2241788E+04  0.2484805E+00
  0.7000000E+00  0.1127967E+04  0.1532005E+02 -0.4618508E-02  0.6643757E-03  0.2249156E+04  0.3507921E+00
  0.7309524E+00  0.1143643E+04  0.2089591E+02 -0.9315565E-03  0.1872089E-02  0.2248213E+04  0.4867989E+00
  0.7619048E+00  0.1178902E+04  0.2812067E+02  0.2523422E-02  0.3094941E-02  0.2242311E+04  0.6662028E+00
  0.7928572E+00  0.1220934E+04  0.3743167E+02 -0.7986806E-03  0.2179116E-02  0.2250300E+04  0.9073622E+00
  0.8238096E+00  0.1270627E+04  0.4924727E+02 -0.1699414E-02  0.2110101E-02  0.2258856E+04  0.1225669E+01
  0.8547620E+00  0.1330740E+04  0.6412875E+02 -0.2418879E-02  0.1896456E-02  0.2258414E+04  0.1633267E+01
  0.8857143E+00  0.1365852E+04  0.8278813E+02 -0.8051780E-02 -0.2010167E-02  0.2253306E+04  0.2154140E+01
  0.9166667E+00  0.1393945E+04  0.1059697E+03 -0.6134033E-02 -0.5172938E-03  0.2262388E+04  0.2810501E+01
  0.9476191E+00  0.1438959E+04  0.1340696E+03  0.1489457E-02  0.5419582E-02  0.2267329E+04  0.3624547E+01
  0.9785714E+00  0.1498803E+04  0.1680145E+03 -0.3750098E-02  0.1223117E-02  0.2267323E+04  0.4659353E+01
  0.1009524E+01  0.1561327E+04  0.2089385E+03 -0.2834032E-03  0.4853070E-02  0.2263500E+04  0.5910256E+01
  0.1040476E+01  0.1625192E+04  0.2581415E+03  0.5059493E-03  0.5207658E-02  0.2271990E+04  0.7524518E+01
  0.1071429E+01  0.1688067E+04  0.3164648E+03 -0.7555136E-02 -0.1616299E-02  0.2285708E+04  0.9464234E+01
  0.1102381E+01  0.1740521E+04  0.3850893E+03 -0.5405170E-02  0.8694530E-03  0.2289094E+04  0.1182312E+02
  0.1133333E+01  0.1786331E+04  0.4656671E+03 -0.4022262E-02  0.2746940E-02  0.2284963E+04  0.1463215E+02
  0.1164286E+01  0.1835151E+04  0.5577975E+03 -0.7535782E-04  0.7629275E-02  0.2282174E+04  0.1790813E+02
  0.1195238E+01  0.1884038E+04  0.6633575E+03 -0.3839470E-02  0.3322721E-02  0.2286622E+04  0.2164017E+02
  0.1226190E+01  0.1930198E+04  0.7825291E+03 -0.1907052E-02  0.7224321E-02  0.2298825E+04  0.2632460E+02
  0.1257143E+01  0.1971202E+04  0.9173911E+03 -0.1890443E-02  0.9149909E-02  0.2304703E+04  0.3160898E+02
  0.1288095E+01  0.2013698E+04  0.1064826E+04 -0.1119448E-02  0.7283330E-02  0.2310717E+04  0.3772353E+02
  0.1319048E+01  0.2053249E+04  0.1229309E+04 -0.5491924E-02  0.3025293E-02  0.2309167E+04  0.4434485E+02
  0.1350000E+01  0.2082253E+04  0.1406920E+04 -0.4430700E-02  0.1737595E-02  0.2309317E+04  0.5187234E+02
  0.1380952E+01  0.2100808E+04  0.1599772E+04 -0.5740199E-02  0.3448009E-02  0.2313625E+04  0.6016384E+02
  0.1411905E+01  0.1957913E+04  0.1726062E+04 -0.5598148E-02  0.2082348E-02  0.2307543E+04  0.6703407E+02
  0.1442857E+01  0.1953853E+04  0.1936035E+04 -0.5454262E-02  0.2892256E-02  0.2313415E+04  0.7741373E+02
  0.1473810E+01  0.1942278E+04  0.2154707E+04 -0.4827225E-02  0.7744789E-02  0.2317969E+04  0.8854965E+02
  0.1504762E+01  0.1925935E+04  0.2380411E+04 -0.4989044E-02  0.7027626E-02  0.2314899E+04  0.9990375E+02
  0.1535714E+01  0.1901009E+04  0.2612097E+04 -0.5437451E-02  0.3263950E-02  0.2308336E+04  0.1101368E+03
  0.1566667E+01  0.1862006E+04  0.2849158E+04 -0.5407942E-02 -0.9365082E-03  0.2306369E+04  0.1222439E+03
  0.1597619E+01  0.1816842E+04  0.3092561E+04 -0.5849960E-02  0.4224777E-03  0.2309612E+04  0.1369672E+03
  0.1628572E+01  0.1759457E+04  0.3337161E+04 -0.4801834E-02  0.3390789E-02  0.2320387E+04  0.1530617E+03
  0.1659524E+01  0.1696715E+04  0.3577411E+04 -0.6365017E-02  0.3242970E-02  0.2328497E+04  0.1709335E+03
  0.1690476E+01  0.1632107E+04  0.3809788E+04 -0.6568908E-02  0.2269745E-03  0.2332566E+04  0.1869686E+03
  0.1721429E+01  0.1559171E+04  0.4038146E+04 -0.5723945E-02  0.3922939E-02  0.2332019E+04  0.2025415E+03
  0.1752381E+01  0.1479516E+04  0.4263781E+04 -0.4536588E-02  0.5876541E-02  0.2319500E+04  0.2138051E+03
  0.1783333E+01  0.1392212E+04  0.4480099E+04 -0.7103893E-02  0.4065037E-02  0.2308836E+04  0.2261607E+03
  0.1814286E+01  0.1298314E+04  0.4693214E+04 -0.6839722E-02  0.4756927E-02  0.2304275E+04  0.2407314E+03
  0.1845238E+01  0.1207008E+04  0.4901362E+04 -0.5443253E-02  0.7300854E-02  0.2305197E+04  0.2590944E+03
  0.1876190E+01  0.1111318E+04  0.5099838E+04 -0.7764846E-02  0.5675316E-02  0.2311976E+04  0.2816248E+03
  0.1907143E+01  0.1013346E+04  0.5282021E+04 -0.6940749E-02  0.3535748E-02  0.2318354E+04  0.3073895E+03
  0.1938095E+01  0.9164161E+03  0.5454191E+04 -0.5176554E-02  0.6222248E-02  0.2317496E+04  0.3267122E+03
  0.1969048E+01  0.8218599E+03  0.5613526E+04 -0.6555929E-02  0.3377914E-02  0.2317627E+04  0.3467851E+03
  0.2000000E+01  0.7290488E+03  0.5769840E+04 -0.7827759E-02  0.9580135E-02  0.2308798E+04  0.3576923E+03
