VARIABLES="w (rad/s)"
"A   1   1" "B   1   1"
"A   1   2" "B   1   2"
"A   1   3" "B   1   3"
Zone t="Motion of body    1 in DoF   1",I=    64,F=POINT
  0.5000000E-01  0.1838677E+05  0.1191217E-02 -0.1335144E-02 -0.7552033E-05  0.1433249E+03  0.2288350E-02
  0.8095238E-01  0.1840787E+05  0.5198847E-02 -0.3722696E-02 -0.1795017E-04  0.1556808E+03  0.1004960E-01
  0.1119048E+00  0.1856553E+05  0.1460195E-01 -0.3119124E-02 -0.2676688E-04  0.6695657E+02  0.2814706E-01
  0.1428571E+00  0.1858431E+05  0.3292791E-01  0.3417969E-02  0.4054181E-04  0.4644442E+02  0.6332533E-01
  0.1738095E+00  0.1863489E+05  0.6567188E-01  0.1426592E-03  0.1005793E-04  0.8314960E+02  0.1258832E+00
  0.2047619E+00  0.1862855E+05  0.1213865E+00 -0.1210945E-02 -0.2590916E-04  0.7292047E+02  0.2316457E+00
  0.2357143E+00  0.1870231E+05  0.2141784E+00 -0.1925844E-02 -0.4692608E-04  0.1024934E+03  0.4072534E+00
  0.2666667E+00  0.1877056E+05  0.3662411E+00 -0.1301765E-02  0.3853813E-05  0.1551766E+03  0.6932086E+00
  0.2976190E+00  0.1874726E+05  0.6150643E+00  0.3845215E-04  0.5056895E-04  0.1928752E+03  0.1159472E+01
  0.3285715E+00  0.1884438E+05  0.1020818E+01  0.3181126E-02  0.1313239E-03  0.1978180E+03  0.1911917E+01
  0.3595238E+00  0.1893694E+05  0.1681180E+01  0.7639499E-03  0.3280118E-04  0.3002696E+03  0.3129555E+01
  0.3904762E+00  0.1892308E+05  0.2746604E+01 -0.3516964E-03 -0.1116842E-04  0.3816575E+03  0.5083944E+01
  0.4214286E+00  0.1904178E+05  0.4433205E+01 -0.2625029E-02 -0.7163733E-04  0.3663551E+03  0.8139736E+01
  0.4523810E+00  0.1918808E+05  0.7096358E+01 -0.1652768E-02 -0.2370477E-03  0.4496893E+03  0.1292169E+02
  0.4833333E+00  0.1923335E+05  0.1107081E+02  0.3504260E-02  0.5105138E-03  0.5875925E+03  0.2000113E+02
  0.5142857E+00  0.1927262E+05  0.1698375E+02  0.5844964E-02  0.7220805E-03  0.6978166E+03  0.3044359E+02
  0.5452381E+00  0.1945378E+05  0.2546395E+02 -0.4197833E-03  0.1562238E-03  0.6815345E+03  0.4517069E+02
  0.5761905E+00  0.1958762E+05  0.3727162E+02 -0.1244663E-02 -0.6997585E-04  0.8215389E+03  0.6545032E+02
  0.6071429E+00  0.1973297E+05  0.5356120E+02  0.1093247E-02  0.2900362E-03  0.9689752E+03  0.9307011E+02
  0.6380953E+00  0.1977280E+05  0.7519779E+02  0.4124997E-02  0.7740259E-03  0.1131073E+04  0.1293589E+03
  0.6690477E+00  0.1994315E+05  0.1037787E+03  0.1071916E-02  0.3199577E-03  0.1185465E+04  0.1765511E+03
  0.7000000E+00  0.2018161E+05  0.1411612E+03  0.3182547E-02  0.1002789E-02  0.1284417E+04  0.2371335E+03
  0.7309524E+00  0.2036000E+05  0.1889454E+03 -0.8350086E-03  0.7629395E-05  0.1444059E+04  0.3133330E+03
  0.7619048E+00  0.2051325E+05  0.2495551E+03 -0.1301765E-02 -0.5021095E-03  0.1635933E+04  0.4083059E+03
  0.7928572E+00  0.2067573E+05  0.3257011E+03 -0.1366418E-02 -0.5421638E-03  0.1854877E+04  0.5257428E+03
  0.8238096E+00  0.2085109E+05  0.4197327E+03  0.1111334E-02  0.1197815E-02  0.1934312E+04  0.6686527E+03
  0.8547620E+00  0.2110349E+05  0.5344644E+03 -0.1945814E-02 -0.9613037E-03  0.2047203E+04  0.8401448E+03
  0.8857143E+00  0.2134789E+05  0.6740262E+03  0.2101775E-02  0.1133919E-02  0.2206050E+04  0.1043386E+04
  0.9166667E+00  0.2161947E+05  0.8424763E+03  0.4527699E-02  0.4304886E-02  0.2392641E+04  0.1282898E+04
  0.9476191E+00  0.2185277E+05  0.1043631E+04  0.1465304E-02  0.7896423E-03  0.2528236E+04  0.1561260E+04
  0.9785714E+00  0.2205113E+05  0.1281874E+04  0.2494868E-03  0.1945496E-03  0.2694700E+04  0.1882857E+04
  0.1009524E+01  0.2221189E+05  0.1561778E+04 -0.1556828E-02 -0.2052307E-02  0.2834992E+04  0.2250410E+04
  0.1040476E+01  0.2245355E+05  0.1883395E+04 -0.7479251E-03 -0.4196167E-03  0.2921642E+04  0.2674743E+04
  0.1071429E+01  0.2273712E+05  0.2251961E+04  0.1224772E-02  0.1293182E-02  0.2945094E+04  0.3145371E+04
  0.1102381E+01  0.2295917E+05  0.2673812E+04 -0.2186983E-02 -0.5283356E-02  0.2972832E+04  0.3664370E+04
  0.1133333E+01  0.2315635E+05  0.3153763E+04 -0.9963092E-03 -0.2593994E-03  0.2987087E+04  0.4233313E+04
  0.1164286E+01  0.2331045E+05  0.3695521E+04 -0.2568719E-02 -0.2449036E-02  0.2966641E+04  0.4846954E+04
  0.1195238E+01  0.2348148E+05  0.4293335E+04 -0.1455360E-02  0.6408691E-03  0.2927902E+04  0.5527241E+04
  0.1226190E+01  0.2366406E+05  0.4945137E+04 -0.1269294E-02 -0.2182007E-02  0.2811833E+04  0.6250442E+04
  0.1257143E+01  0.2377038E+05  0.5662396E+04 -0.2427534E-04  0.1228333E-02  0.2631261E+04  0.7008376E+04
  0.1288095E+01  0.2385614E+05  0.6441356E+04 -0.9713728E-03 -0.1312256E-02  0.2418663E+04  0.7780205E+04
  0.1319048E+01  0.2387600E+05  0.7283049E+04 -0.3701771E-03  0.1174927E-02  0.2180686E+04  0.8582521E+04
  0.1350000E+01  0.2387357E+05  0.8159596E+04 -0.1808449E-03 -0.5950928E-03  0.1862144E+04  0.9416292E+04
  0.1380952E+01  0.2384978E+05  0.9087157E+04 -0.4419787E-04 -0.3646851E-02  0.1543209E+04  0.1025876E+05
  0.1411905E+01  0.2371489E+05  0.1005969E+05 -0.2809881E-03 -0.4531860E-02  0.1183625E+04  0.1109838E+05
  0.1442857E+01  0.2358714E+05  0.1107718E+05 -0.2961112E-03  0.4425049E-03  0.6952108E+03  0.1189043E+05
  0.1473810E+01  0.2341082E+05  0.1209976E+05 -0.1449462E-03  0.1663208E-02  0.1756079E+03  0.1268282E+05
  0.1504762E+01  0.2318416E+05  0.1313780E+05 -0.3042100E-03 -0.1861572E-02 -0.3580013E+03  0.1341508E+05
  0.1535714E+01  0.2290294E+05  0.1418801E+05  0.1251930E-02  0.3631592E-02 -0.9294319E+03  0.1408525E+05
  0.1566667E+01  0.2258456E+05  0.1523859E+05  0.8376101E-03 -0.2136230E-03 -0.1518803E+04  0.1468296E+05
  0.1597619E+01  0.2226818E+05  0.1625554E+05  0.1910191E-04  0.3356934E-02 -0.2122478E+04  0.1530436E+05
  0.1628572E+01  0.2191383E+05  0.1725530E+05  0.1873886E-04  0.1251221E-02 -0.2743855E+04  0.1579798E+05
  0.1659524E+01  0.2151965E+05  0.1823194E+05  0.1838936E-03 -0.3967285E-03 -0.3422896E+04  0.1617996E+05
  0.1690476E+01  0.2108810E+05  0.1916117E+05  0.5054742E-03  0.4760742E-02 -0.4080110E+04  0.1648439E+05
  0.1721429E+01  0.2064785E+05  0.2004041E+05 -0.6204819E-03 -0.6713867E-03 -0.4735204E+04  0.1670472E+05
  0.1752381E+01  0.2018084E+05  0.2086888E+05 -0.1306119E-03  0.9765625E-03 -0.5358083E+04  0.1680729E+05
  0.1783333E+01  0.1970123E+05  0.2163948E+05  0.3593659E-03 -0.3356934E-03 -0.5992169E+04  0.1679311E+05
  0.1814286E+01  0.1925300E+05  0.2234956E+05  0.3280039E-03 -0.1007080E-02 -0.6615378E+04  0.1676184E+05
  0.1845238E+01  0.1880944E+05  0.2299294E+05  0.1157699E-03 -0.1831055E-03 -0.7183901E+04  0.1667670E+05
  0.1876190E+01  0.1837527E+05  0.2357290E+05  0.8132857E-05  0.1220703E-03 -0.7748596E+04  0.1650823E+05
  0.1907143E+01  0.1798037E+05  0.2412157E+05 -0.1600173E-03 -0.2441406E-02 -0.8375133E+04  0.1615523E+05
  0.1938095E+01  0.1756038E+05  0.2458947E+05 -0.6928315E-03 -0.1373291E-02 -0.8906224E+04  0.1573427E+05
  0.1969048E+01  0.1716238E+05  0.2500320E+05  0.7051885E-03  0.1281738E-02 -0.9415125E+04  0.1522266E+05
  0.2000000E+01  0.1679899E+05  0.2538782E+05  0.1983643E-03 -0.8239746E-03 -0.9908855E+04  0.1461279E+05
Zone t="Motion of body    1 in DoF   2",I=    64,F=POINT
  0.5000000E-01  0.4959106E-03  0.6437302E-05  0.7411410E+05  0.1333050E+03  0.1434326E-01 -0.1049042E-04
  0.8095238E-01 -0.1413682E-03  0.9775162E-05  0.7342646E+05  0.2211033E+03  0.4900764E-02  0.1907349E-05
  0.1119048E+00 -0.1090841E-02  0.1049042E-04  0.7307954E+05  0.3167730E+03  0.1281738E-01 -0.5531311E-04
  0.1428571E+00  0.4539489E-03  0.1430511E-05  0.7292250E+05  0.4240098E+03 -0.8758545E-02  0.2098083E-04
  0.1738095E+00 -0.3511612E-03  0.7629395E-05  0.7295057E+05  0.5474407E+03 -0.2809289E-02 -0.7629395E-04
  0.2047619E+00 -0.5961573E-03  0.2193451E-04  0.7293698E+05  0.6928986E+03  0.9836596E-02 -0.1144409E-04
  0.2357143E+00  0.6473425E-04  0.2861023E-04  0.7309758E+05  0.8685111E+03 -0.4919803E-02 -0.1373291E-03
  0.2666667E+00 -0.8583068E-04  0.7438660E-04  0.7329195E+05  0.1081382E+04  0.1029968E-01 -0.2365112E-03
  0.2976190E+00  0.3076172E-03 -0.1907349E-05  0.7353608E+05  0.1346771E+04  0.3281250E-02  0.2288818E-04
  0.3285715E+00 -0.5572775E-03 -0.4577637E-04  0.7381432E+05  0.1673450E+04  0.4829738E-02  0.4577637E-04
  0.3595238E+00 -0.2291850E-02 -0.1907349E-05  0.7410123E+05  0.2079697E+04 -0.1120460E-01  0.6103516E-04
  0.3904762E+00  0.1172321E-03 -0.9155273E-04  0.7432467E+05  0.2580387E+04 -0.4064048E-02 -0.3051758E-04
  0.4214286E+00  0.5793167E-03  0.1907349E-04  0.7452881E+05  0.3170908E+04  0.5793167E-03 -0.2288818E-03
  0.4523810E+00  0.6745990E-03  0.1220703E-03  0.7452109E+05  0.3882297E+04  0.5396793E-03  0.3967285E-03
  0.4833333E+00  0.9470972E-03  0.2288818E-03  0.7452824E+05  0.4656015E+04  0.2525593E-02  0.6408691E-03
  0.5142857E+00  0.2017551E-02  0.2288818E-04  0.7420923E+05  0.5531384E+04  0.1661513E-02 -0.4577637E-03
  0.5452381E+00 -0.1399278E-03 -0.2441406E-03  0.7387630E+05  0.6460786E+04  0.9850915E-02 -0.2136230E-03
  0.5761905E+00 -0.1059288E-03  0.4501343E-03  0.7348116E+05  0.7426437E+04  0.7415014E-02 -0.1708984E-02
  0.6071429E+00  0.7036994E-03  0.1220703E-03  0.7281583E+05  0.8456701E+04  0.9047563E-02 -0.8544922E-03
  0.6380953E+00  0.1913042E-03 -0.7629395E-04  0.7224122E+05  0.9483140E+04 -0.8417386E-02  0.5493164E-03
  0.6690477E+00  0.4561346E-03 -0.1068115E-03  0.7156668E+05  0.1053557E+05 -0.4743800E-02  0.5493164E-03
  0.7000000E+00 -0.1525879E-02  0.3051758E-04  0.7070892E+05  0.1162159E+05  0.7324218E-02 -0.9765625E-03
  0.7309524E+00 -0.6262565E-03  0.1983643E-03  0.6992405E+05  0.1269595E+05  0.1002010E-02 -0.4882812E-03
  0.7619048E+00 -0.1602173E-03  0.7324219E-03  0.6914546E+05  0.1376661E+05  0.1794433E-01  0.4272461E-03
  0.7928572E+00  0.7698127E-04 -0.4882812E-03  0.6812531E+05  0.1484393E+05  0.1539625E-02  0.2197266E-02
  0.8238096E+00  0.1000200E-02 -0.2441406E-03  0.6716284E+05  0.1590474E+05 -0.2963557E-02 -0.1770020E-02
  0.8547620E+00 -0.4998422E-03  0.1525879E-03  0.6624259E+05  0.1693305E+05 -0.5141234E-02 -0.4760742E-02
  0.8857143E+00 -0.3169890E-02  0.4272461E-03  0.6528166E+05  0.1793340E+05 -0.2480784E-02 -0.3662109E-03
  0.9166667E+00  0.2663352E-03  0.2441406E-03  0.6420100E+05  0.1890664E+05 -0.7990057E-03 -0.3295898E-02
  0.9476191E+00 -0.2898403E-03 -0.1525879E-03  0.6316419E+05  0.1983552E+05  0.7471439E-02  0.3662109E-02
  0.9785714E+00 -0.9979471E-03  0.4882812E-03  0.6216960E+05  0.2070441E+05 -0.2494868E-02 -0.4638672E-02
  0.1009524E+01 -0.5441342E-03  0.1220703E-03  0.6122803E+05  0.2150759E+05 -0.1547759E-01  0.2441406E-02
  0.1040476E+01  0.1085225E-02 -0.6103516E-04  0.6012192E+05  0.2228175E+05 -0.1407859E-02 -0.7812500E-02
  0.1071429E+01  0.1737467E-02  0.2136230E-03  0.5905817E+05  0.2299546E+05  0.9114584E-02 -0.5004883E-02
  0.1102381E+01 -0.5398249E-03 -0.1037598E-02  0.5807346E+05  0.2363806E+05  0.7972799E-02  0.4638672E-02
  0.1133333E+01  0.2140718E-02  0.5798340E-03  0.5713596E+05  0.2419822E+05  0.1701804E-01 -0.1831055E-02
  0.1164286E+01 -0.1441628E-03 -0.9155273E-03  0.5628082E+05  0.2467504E+05  0.6290740E-02  0.9887695E-02
  0.1195238E+01 -0.1404295E-02  0.7934570E-03  0.5527430E+05  0.2512039E+05  0.6332093E-02 -0.3173828E-02
  0.1226190E+01 -0.4977624E-04 -0.4272461E-03  0.5431435E+05  0.2549337E+05  0.4778520E-02  0.4150391E-02
  0.1257143E+01 -0.1942028E-03  0.2441406E-03  0.5343570E+05  0.2581313E+05  0.6991299E-02  0.2197266E-02
  0.1288095E+01 -0.3672263E-03 -0.1220703E-02  0.5261838E+05  0.2601154E+05 -0.5686085E-02  0.3662109E-03
  0.1319048E+01 -0.8271144E-03  0.1464844E-02  0.5187439E+05  0.2614194E+05 -0.3886860E-02 -0.1342773E-02
  0.1350000E+01  0.1356337E-03 -0.3662109E-03  0.5117882E+05  0.2621304E+05  0.7957175E-02 -0.4516602E-02
  0.1380952E+01 -0.1651895E-02  0.1403809E-02  0.5038782E+05  0.2624381E+05 -0.6894868E-02 -0.5737305E-02
  0.1411905E+01 -0.6322233E-03 -0.1892090E-02  0.4962786E+05  0.2618490E+05 -0.2766652E-02  0.1220703E-02
  0.1442857E+01  0.8328126E-04  0.2380371E-02  0.4896400E+05  0.2609626E+05 -0.1692064E-02  0.4150391E-02
  0.1473810E+01 -0.1047301E-02  0.1098633E-02  0.4836776E+05  0.2593764E+05  0.2484791E-02 -0.2197266E-02
  0.1504762E+01  0.1723857E-03  0.2075195E-02  0.4783879E+05  0.2569835E+05  0.1460208E-02 -0.6347656E-02
  0.1535714E+01 -0.1001047E-02 -0.1647949E-02  0.4738709E+05  0.2539790E+05 -0.6517986E-02 -0.4638672E-02
  0.1566667E+01 -0.1071362E-02  0.1831055E-03  0.4691269E+05  0.2505283E+05 -0.2181682E-02 -0.6225586E-02
  0.1597619E+01 -0.1905416E-02 -0.2746582E-02  0.4637934E+05  0.2466997E+05 -0.1253085E-01 -0.4394531E-02
  0.1628572E+01 -0.6652296E-03 -0.1098633E-02  0.4589767E+05  0.2422742E+05 -0.5996436E-02 -0.1025391E-01
  0.1659524E+01  0.5700701E-03  0.2258301E-02  0.4549657E+05  0.2377144E+05 -0.1471149E-02 -0.7812500E-02
  0.1690476E+01 -0.6318428E-04 -0.7934570E-03  0.4515274E+05  0.2326911E+05 -0.2599582E-02  0.4760742E-02
  0.1721429E+01  0.9129948E-03 -0.2319336E-02  0.4486717E+05  0.2271674E+05  0.1418244E-02 -0.4028320E-02
  0.1752381E+01  0.7662566E-03  0.1525879E-02  0.4464759E+05  0.2210853E+05  0.4597540E-02 -0.3173828E-02
  0.1783333E+01 -0.7615134E-03  0.1129150E-02  0.4448833E+05  0.2149004E+05  0.1369013E-02 -0.1391602E-01
  0.1814286E+01 -0.8494460E-03 -0.1647949E-02  0.4424972E+05  0.2081142E+05 -0.8073942E-03 -0.1086426E-01
  0.1845238E+01  0.1323085E-03  0.3662109E-03  0.4399939E+05  0.2007736E+05 -0.2646169E-03  0.5004883E-02
  0.1876190E+01  0.4717057E-03  0.1922607E-02  0.4379138E+05  0.1931227E+05  0.1223182E-01  0.5065918E-02
  0.1907143E+01 -0.7680829E-03  0.2563477E-02  0.4365367E+05  0.1857865E+05  0.0000000E+00  0.1013184E-01
  0.1938095E+01 -0.1732079E-03 -0.1007080E-02  0.4356591E+05  0.1781422E+05  0.5290713E-02 -0.2624512E-02
  0.1969048E+01 -0.2634770E-03 -0.1281738E-02  0.4352479E+05  0.1704583E+05 -0.4091644E-02 -0.7446289E-02
  0.2000000E+01  0.1983643E-03 -0.3387451E-02  0.4353462E+05  0.1625463E+05  0.7690430E-02  0.3112793E-02
Zone t="Motion of body    1 in DoF   3",I=    64,F=POINT
  0.5000000E-01  0.3697955E+03  0.2292179E-02  0.1358032E-01  0.3459956E-04  0.2463646E+06  0.4365829E-02
  0.8095238E-01  0.4008587E+03  0.1013061E-01  0.2092249E-01  0.6613132E-04  0.2461549E+06  0.1951532E-01
  0.1119048E+00  0.1922953E+03  0.2848710E-01  0.1213561E-01  0.3759580E-04  0.2460795E+06  0.5496152E-01
  0.1428571E+00  0.2146176E+03  0.6406617E-01 -0.2990722E-02 -0.5554990E-04  0.2462762E+06  0.1229263E+00
  0.1738095E+00  0.2544453E+03  0.1274086E+00 -0.1264180E-01 -0.1311707E-03  0.2467736E+06  0.2441588E+00
  0.2047619E+00  0.2314464E+03  0.2343338E+00  0.6855809E-02  0.3736326E-04  0.2463208E+06  0.4473815E+00
  0.2357143E+00  0.2487549E+03  0.4121899E+00  0.1035748E-02  0.9038486E-05  0.2464537E+06  0.7826631E+00
  0.2666667E+00  0.2787801E+03  0.7019330E+00  0.2380371E-01  0.3019627E-03  0.2464175E+06  0.1327808E+01
  0.2976190E+00  0.3726527E+03  0.1173416E+01  0.4306640E-02  0.2492014E-03  0.2464422E+06  0.2210134E+01
  0.3285715E+00  0.3278564E+03  0.1936859E+01  0.5015497E-02  0.2493076E-03  0.2464978E+06  0.3626809E+01
  0.3595238E+00  0.4310303E+03  0.3171319E+01 -0.1935340E-01 -0.6398782E-03  0.2466044E+06  0.5903332E+01
  0.3904762E+00  0.5303287E+03  0.5146840E+01 -0.1469310E-01 -0.4987717E-03  0.2463735E+06  0.9529136E+01
  0.4214286E+00  0.5550120E+03  0.8250435E+01  0.1115185E-01  0.3505647E-03  0.2470916E+06  0.1514005E+02
  0.4523810E+00  0.5286887E+03  0.1311213E+02  0.7825349E-02  0.8486509E-03  0.2464675E+06  0.2387284E+02
  0.4833333E+00  0.7510754E+03  0.2027683E+02  0.1894194E-02 -0.3030896E-03  0.2472284E+06  0.3663712E+02
  0.5142857E+00  0.8748831E+03  0.3084311E+02  0.8188884E-02  0.1292229E-03  0.2466066E+06  0.5529326E+02
  0.5452381E+00  0.8217130E+03  0.4586408E+02  0.1186587E-01  0.7721186E-03  0.2470027E+06  0.8129887E+02
  0.5761905E+00  0.9817127E+03  0.6646907E+02  0.1959682E-01  0.2340674E-02  0.2475295E+06  0.1167095E+03
  0.6071429E+00  0.1062101E+04  0.9455168E+02  0.3015854E-02  0.1059771E-02  0.2469703E+06  0.1644680E+03
  0.6380953E+00  0.1332290E+04  0.1312070E+03 -0.1358260E-01 -0.2771616E-02  0.2474738E+06  0.2260124E+03
  0.6690477E+00  0.1413846E+04  0.1793280E+03  0.1094723E-01  0.1841545E-02  0.2479328E+06  0.3047026E+03
  0.7000000E+00  0.1414586E+04  0.2414192E+03  0.5841936E-02  0.1304150E-02  0.2475588E+06  0.4051402E+03
  0.7309524E+00  0.1590495E+04  0.3191265E+03 -0.6680069E-02 -0.2178192E-02  0.2479753E+06  0.5292701E+03
  0.7619048E+00  0.1855905E+04  0.4155359E+03  0.2323150E-01  0.4565239E-02  0.2487549E+06  0.6810984E+03
  0.7928572E+00  0.2055819E+04  0.5346227E+03  0.2155476E-02  0.4682541E-03  0.2480379E+06  0.8658099E+03
  0.8238096E+00  0.2164652E+04  0.6805590E+03 -0.6668002E-02 -0.2580643E-02  0.2483194E+06  0.1084012E+04
  0.8547620E+00  0.2303213E+04  0.8569169E+03 -0.6569355E-02 -0.3255844E-02  0.2489891E+06  0.1341622E+04
  0.8857143E+00  0.2473687E+04  0.1065731E+04 -0.1722766E-01 -0.6334305E-02  0.2494173E+06  0.1644591E+04
  0.9166667E+00  0.2598812E+04  0.1312104E+04 -0.6392045E-02 -0.2405167E-02  0.2488293E+06  0.1997177E+04
  0.9476191E+00  0.2731335E+04  0.1597850E+04  0.5152717E-03 -0.3005981E-02  0.2489497E+06  0.2396992E+04
  0.9785714E+00  0.2961919E+04  0.1924490E+04 -0.4989735E-03 -0.2746582E-02  0.2493427E+06  0.2845584E+04
  0.1009524E+01  0.3212942E+04  0.2294462E+04 -0.1185003E-01 -0.6549835E-02  0.2501016E+06  0.3340926E+04
  0.1040476E+01  0.3288170E+04  0.2730262E+04 -0.1173216E-02 -0.7019043E-03  0.2494975E+06  0.3882052E+04
  0.1071429E+01  0.3260838E+04  0.3221888E+04  0.8772787E-02  0.6507874E-02  0.2492224E+06  0.4484167E+04
  0.1102381E+01  0.3300293E+04  0.3759605E+04  0.9855266E-02  0.4707336E-02  0.2492938E+06  0.5139655E+04
  0.1133333E+01  0.3368562E+04  0.4341888E+04  0.1260197E-01  0.1998901E-02  0.2495482E+06  0.5830954E+04
  0.1164286E+01  0.3432407E+04  0.4964434E+04  0.8387653E-02  0.8026123E-02  0.2501288E+06  0.6560125E+04
  0.1195238E+01  0.3382051E+04  0.5664438E+04  0.1205140E-01  0.3356934E-03  0.2493446E+06  0.7310450E+04
  0.1226190E+01  0.3227657E+04  0.6423496E+04  0.7366884E-02  0.5111694E-02  0.2486806E+06  0.8092525E+04
  0.1257143E+01  0.3045637E+04  0.7217600E+04  0.7768110E-03 -0.2227783E-02  0.2484260E+06  0.8894129E+04
  0.1288095E+01  0.2860617E+04  0.8017062E+04 -0.8339591E-02 -0.1141357E-01  0.2483018E+06  0.9703065E+04
  0.1319048E+01  0.2674036E+04  0.8831174E+04  0.6478099E-03  0.1312256E-02  0.2483022E+06  0.1047743E+05
  0.1350000E+01  0.2393557E+04  0.9700532E+04  0.6510417E-02  0.1005554E-01  0.2483768E+06  0.1119679E+05
  0.1380952E+01  0.2047920E+04  0.1059130E+05 -0.3801017E-02  0.7064819E-02  0.2473445E+06  0.1192690E+05
  0.1411905E+01  0.1671035E+04  0.1142962E+05 -0.5014558E-02 -0.5493164E-02  0.2463123E+06  0.1258283E+05
  0.1442857E+01  0.1177222E+04  0.1226996E+05 -0.2961111E-02  0.1251221E-02  0.2458190E+06  0.1322700E+05
  0.1473810E+01  0.6590654E+03  0.1310897E+05  0.9773512E-02  0.6500244E-02  0.2454382E+06  0.1374680E+05
  0.1504762E+01  0.1482889E+03  0.1387847E+05 -0.1460208E-02  0.2166748E-02  0.2451445E+06  0.1422029E+05
  0.1535714E+01 -0.3851046E+03  0.1456903E+05 -0.7630813E-02 -0.1022339E-01  0.2450944E+06  0.1459206E+05
  0.1566667E+01 -0.9546083E+03  0.1520967E+05  0.1558344E-02 -0.7324219E-03  0.2446900E+06  0.1493370E+05
  0.1597619E+01 -0.1603828E+04  0.1588204E+05 -0.3361936E-02 -0.7995605E-02  0.2435763E+06  0.1498745E+05
  0.1628572E+01 -0.2269333E+04  0.1644436E+05  0.1499109E-03  0.2227783E-02  0.2425840E+06  0.1507875E+05
  0.1659524E+01 -0.2978542E+04  0.1690124E+05  0.4413446E-03  0.5676270E-02  0.2421454E+06  0.1513977E+05
  0.1690476E+01 -0.3648357E+04  0.1726265E+05 -0.6932218E-02 -0.2136230E-02  0.2418082E+06  0.1511437E+05
  0.1721429E+01 -0.4305517E+04  0.1752482E+05  0.4680207E-02  0.1617432E-02  0.2416295E+06  0.1499803E+05
  0.1752381E+01 -0.4910786E+04  0.1764797E+05  0.5851414E-02  0.1284790E-01  0.2416181E+06  0.1486268E+05
  0.1783333E+01 -0.5509232E+04  0.1766252E+05 -0.5886755E-02  0.7354736E-02  0.2418947E+06  0.1473226E+05
  0.1814286E+01 -0.6156189E+04  0.1768136E+05  0.1345657E-03  0.4699707E-02  0.2415099E+06  0.1432131E+05
  0.1845238E+01 -0.6769639E+04  0.1766243E+05 -0.1190776E-02  0.7415771E-02  0.2407012E+06  0.1371308E+05
  0.1876190E+01 -0.7379415E+04  0.1755088E+05  0.5855657E-02 -0.4272461E-03  0.2400064E+06  0.1302155E+05
  0.1907143E+01 -0.8079326E+04  0.1726696E+05 -0.5248567E-02  0.7446289E-02  0.2400114E+06  0.1272410E+05
  0.1938095E+01 -0.8638366E+04  0.1690163E+05  0.1083337E-01 -0.8392334E-03  0.2399927E+06  0.1242298E+05
  0.1969048E+01 -0.9163448E+04  0.1643412E+05 -0.4711589E-02  0.8422852E-02  0.2401482E+06  0.1220029E+05
  0.2000000E+01 -0.9652926E+04  0.1582801E+05  0.7934570E-02  0.4852295E-02  0.2404340E+06  0.1203115E+05
