VARIABLES="w (rad/s)"
"abs(F   1   1)" "angle(F   1   1)"
"abs(F   1   2)" "angle(F   1   2)"
"abs(F   1   3)" "angle(F   1   3)"
Zone t="Diffraction force - beta =   0.000 deg",I=    64,F=POINT
  0.5000000E-01  0.3700073E+03 -0.1570801E+01  0.1181419E+06 -0.8117608E-05  0.3319206E+01 -0.1572065E+01
  0.8095238E-01  0.6031428E+03 -0.1570809E+01  0.1180247E+06 -0.2185401E-04  0.5416186E+01 -0.1571562E+01
  0.1119048E+00  0.8426088E+03 -0.1570789E+01  0.1178518E+06 -0.4344589E-04  0.7558689E+01 -0.1571382E+01
  0.1428571E+00  0.1089251E+04 -0.1570797E+01  0.1176236E+06 -0.7460722E-04  0.9770598E+01 -0.1571252E+01
  0.1738095E+00  0.1349391E+04 -0.1570794E+01  0.1173396E+06 -0.1179447E-03  0.1213744E+02 -0.1571160E+01
  0.2047619E+00  0.1621249E+04 -0.1570800E+01  0.1169991E+06 -0.1771774E-03  0.1461416E+02 -0.1571071E+01
  0.2357143E+00  0.1913379E+04 -0.1570799E+01  0.1166019E+06 -0.2579002E-03  0.1727468E+02 -0.1571026E+01
  0.2666667E+00  0.2228048E+04 -0.1570795E+01  0.1161472E+06 -0.3670394E-03  0.2026380E+02 -0.1570999E+01
  0.2976190E+00  0.2566920E+04 -0.1570794E+01  0.1156346E+06 -0.5160227E-03  0.2343994E+02 -0.1570980E+01
  0.3285715E+00  0.2942161E+04 -0.1570786E+01  0.1150629E+06 -0.7171923E-03  0.2695329E+02 -0.1570948E+01
  0.3595238E+00  0.3356689E+04 -0.1570780E+01  0.1144334E+06 -0.9893415E-03  0.3101452E+02 -0.1570916E+01
  0.3904762E+00  0.3813012E+04 -0.1570773E+01  0.1137444E+06 -0.1354489E-02  0.3550788E+02 -0.1570891E+01
  0.4214286E+00  0.4317708E+04 -0.1570763E+01  0.1129994E+06 -0.1827896E-02  0.4034280E+02 -0.1570865E+01
  0.4523810E+00  0.4880992E+04 -0.1570746E+01  0.1121973E+06 -0.2446689E-02  0.4598177E+02 -0.1570836E+01
  0.4833333E+00  0.5497949E+04 -0.1570721E+01  0.1113436E+06 -0.3199915E-02  0.5233170E+02 -0.1570791E+01
  0.5142857E+00  0.6161434E+04 -0.1570686E+01  0.1104376E+06 -0.4130581E-02  0.5923305E+02 -0.1570757E+01
  0.5452381E+00  0.6879587E+04 -0.1570640E+01  0.1094809E+06 -0.5231514E-02  0.6658932E+02 -0.1570695E+01
  0.5761905E+00  0.7650182E+04 -0.1570578E+01  0.1084784E+06 -0.6510347E-02  0.7499226E+02 -0.1570629E+01
  0.6071429E+00  0.8467281E+04 -0.1570498E+01  0.1074295E+06 -0.8005419E-02  0.8423402E+02 -0.1570545E+01
  0.6380953E+00  0.9313844E+04 -0.1570398E+01  0.1063333E+06 -0.9690284E-02  0.9296572E+02 -0.1570438E+01
  0.6690477E+00  0.1019729E+05 -0.1570271E+01  0.1051954E+06 -0.1160620E-01  0.1028404E+03 -0.1570309E+01
  0.7000000E+00  0.1113195E+05 -0.1570114E+01  0.1040166E+06 -0.1377871E-01  0.1137950E+03 -0.1570147E+01
  0.7309524E+00  0.1210614E+05 -0.1569920E+01  0.1027980E+06 -0.1620029E-01  0.1252869E+03 -0.1569951E+01
  0.7619048E+00  0.1311218E+05 -0.1569686E+01  0.1015445E+06 -0.1889972E-01  0.1376801E+03 -0.1569715E+01
  0.7928572E+00  0.1414411E+05 -0.1569400E+01  0.1002558E+06 -0.2189436E-01  0.1501436E+03 -0.1569426E+01
  0.8238096E+00  0.1520209E+05 -0.1569060E+01  0.9893465E+05 -0.2519754E-01  0.1627653E+03 -0.1569082E+01
  0.8547620E+00  0.1630200E+05 -0.1568657E+01  0.9758455E+05 -0.2882180E-01  0.1765673E+03 -0.1568678E+01
  0.8857143E+00  0.1743994E+05 -0.1568181E+01  0.9620946E+05 -0.3278172E-01  0.1917895E+03 -0.1568201E+01
  0.9166667E+00  0.1861477E+05 -0.1567626E+01  0.9480951E+05 -0.3708784E-01  0.2081761E+03 -0.1567645E+01
  0.9476191E+00  0.1981853E+05 -0.1566980E+01  0.9338974E+05 -0.4175249E-01  0.2250034E+03 -0.1566995E+01
  0.9785714E+00  0.2104209E+05 -0.1566233E+01  0.9195185E+05 -0.4678539E-01  0.2418300E+03 -0.1566247E+01
  0.1009524E+01  0.2227649E+05 -0.1565376E+01  0.9049973E+05 -0.5219911E-01  0.2588348E+03 -0.1565386E+01
  0.1040476E+01  0.2353803E+05 -0.1564398E+01  0.8903120E+05 -0.5800174E-01  0.2774716E+03 -0.1564409E+01
  0.1071429E+01  0.2483740E+05 -0.1563289E+01  0.8755080E+05 -0.6420148E-01  0.2972798E+03 -0.1563302E+01
  0.1102381E+01  0.2616806E+05 -0.1562039E+01  0.8606310E+05 -0.7080790E-01  0.3180274E+03 -0.1562055E+01
  0.1133333E+01  0.2752416E+05 -0.1560636E+01  0.8457102E+05 -0.7782685E-01  0.3395472E+03 -0.1560652E+01
  0.1164286E+01  0.2889670E+05 -0.1559067E+01  0.8307800E+05 -0.8526663E-01  0.3625591E+03 -0.1559082E+01
  0.1195238E+01  0.3028843E+05 -0.1557321E+01  0.8158112E+05 -0.9312785E-01  0.3868861E+03 -0.1557336E+01
  0.1226190E+01  0.3169061E+05 -0.1555385E+01  0.8008245E+05 -0.1014115E+00  0.4115019E+03 -0.1555396E+01
  0.1257143E+01  0.3308216E+05 -0.1553249E+01  0.7858791E+05 -0.1102265E+00  0.4351836E+03 -0.1553252E+01
  0.1288095E+01  0.3449890E+05 -0.1550905E+01  0.7709321E+05 -0.1192845E+00  0.4599631E+03 -0.1550904E+01
  0.1319048E+01  0.3591991E+05 -0.1548350E+01  0.7560608E+05 -0.1288867E+00  0.4860967E+03 -0.1548351E+01
  0.1350000E+01  0.3735361E+05 -0.1545577E+01  0.7412785E+05 -0.1389348E+00  0.5142762E+03 -0.1545597E+01
  0.1380952E+01  0.3880300E+05 -0.1542582E+01  0.7265472E+05 -0.1494202E+00  0.5439146E+03 -0.1542622E+01
  0.1411905E+01  0.4017695E+05 -0.1539491E+01  0.7120793E+05 -0.1602285E+00  0.5698729E+03 -0.1539533E+01
  0.1442857E+01  0.4162520E+05 -0.1536050E+01  0.6975989E+05 -0.1716068E+00  0.6005751E+03 -0.1536098E+01
  0.1473810E+01  0.4306337E+05 -0.1532372E+01  0.6832544E+05 -0.1834323E+00  0.6318681E+03 -0.1532426E+01
  0.1504762E+01  0.4448807E+05 -0.1528457E+01  0.6690421E+05 -0.1957052E+00  0.6640245E+03 -0.1528507E+01
  0.1535714E+01  0.4588668E+05 -0.1524306E+01  0.6550066E+05 -0.2084325E+00  0.6966192E+03 -0.1524337E+01
  0.1566667E+01  0.4725353E+05 -0.1519925E+01  0.6411038E+05 -0.2216044E+00  0.7292851E+03 -0.1519916E+01
  0.1597619E+01  0.4858979E+05 -0.1515323E+01  0.6273353E+05 -0.2352275E+00  0.7623667E+03 -0.1515256E+01
  0.1628572E+01  0.4989456E+05 -0.1510526E+01  0.6137056E+05 -0.2493002E+00  0.7964868E+03 -0.1510455E+01
  0.1659524E+01  0.5117254E+05 -0.1505575E+01  0.6002452E+05 -0.2638371E+00  0.8303636E+03 -0.1505497E+01
  0.1690476E+01  0.5241498E+05 -0.1500484E+01  0.5869785E+05 -0.2788319E+00  0.8648859E+03 -0.1500451E+01
  0.1721429E+01  0.5361554E+05 -0.1495279E+01  0.5739085E+05 -0.2942851E+00  0.8994104E+03 -0.1495319E+01
  0.1752381E+01  0.5477007E+05 -0.1489986E+01  0.5610395E+05 -0.3101947E+00  0.9344760E+03 -0.1490024E+01
  0.1783333E+01  0.5586217E+05 -0.1484627E+01  0.5484070E+05 -0.3265694E+00  0.9701177E+03 -0.1484615E+01
  0.1814286E+01  0.5689449E+05 -0.1479240E+01  0.5359526E+05 -0.3433902E+00  0.1005843E+04 -0.1479197E+01
  0.1845238E+01  0.5786301E+05 -0.1473864E+01  0.5236849E+05 -0.3606607E+00  0.1041628E+04 -0.1473772E+01
  0.1876190E+01  0.5876226E+05 -0.1468555E+01  0.5115926E+05 -0.3783796E+00  0.1077410E+04 -0.1468471E+01
  0.1907143E+01  0.5959200E+05 -0.1463387E+01  0.4997079E+05 -0.3965484E+00  0.1111858E+04 -0.1463308E+01
  0.1938095E+01  0.6034389E+05 -0.1458404E+01  0.4880393E+05 -0.4151672E+00  0.1145458E+04 -0.1458354E+01
  0.1969048E+01  0.6101323E+05 -0.1453653E+01  0.4765785E+05 -0.4342453E+00  0.1177153E+04 -0.1453684E+01
  0.2000000E+01  0.6160247E+05 -0.1449191E+01  0.4653346E+05 -0.4537732E+00  0.1208424E+04 -0.1449239E+01
