VARIABLES="w (rad/s)"
"abs(F   1   1)" "angle(F   1   1)"
"abs(F   1   2)" "angle(F   1   2)"
"abs(F   1   3)" "angle(F   1   3)"
Zone t="Diffraction force - beta =   0.000 deg",I=    64,F=POINT
  0.5000000E-01  0.2044555E+04 -0.1570786E+01  0.4841311E+06 -0.3442634E-04  0.3647706E+04 -0.1570779E+01
  0.8095238E-01  0.3333699E+04 -0.1570792E+01  0.4832528E+06 -0.9261799E-04  0.5940052E+04 -0.1570790E+01
  0.1119048E+00  0.4652413E+04 -0.1570787E+01  0.4819644E+06 -0.1839343E-03  0.8289396E+04 -0.1570798E+01
  0.1428571E+00  0.6014043E+04 -0.1570792E+01  0.4802632E+06 -0.3153620E-03  0.1072511E+05 -0.1570789E+01
  0.1738095E+00  0.7430985E+04 -0.1570786E+01  0.4781442E+06 -0.4976005E-03  0.1325869E+05 -0.1570790E+01
  0.2047619E+00  0.8923403E+04 -0.1570787E+01  0.4756008E+06 -0.7458429E-03  0.1594122E+05 -0.1570787E+01
  0.2357143E+00  0.1050833E+05 -0.1570775E+01  0.4726283E+06 -0.1082804E-02  0.1879302E+05 -0.1570778E+01
  0.2666667E+00  0.1220603E+05 -0.1570772E+01  0.4692157E+06 -0.1536151E-02  0.2185292E+05 -0.1570770E+01
  0.2976190E+00  0.1404752E+05 -0.1570758E+01  0.4653594E+06 -0.2152266E-02  0.2519486E+05 -0.1570757E+01
  0.3285715E+00  0.1605750E+05 -0.1570737E+01  0.4610492E+06 -0.2979039E-02  0.2884750E+05 -0.1570738E+01
  0.3595238E+00  0.1825784E+05 -0.1570711E+01  0.4562955E+06 -0.4091288E-02  0.3284896E+05 -0.1570707E+01
  0.3904762E+00  0.2068687E+05 -0.1570665E+01  0.4510853E+06 -0.5574525E-02  0.3729864E+05 -0.1570663E+01
  0.4214286E+00  0.2337066E+05 -0.1570601E+01  0.4454812E+06 -0.7480877E-02  0.4223406E+05 -0.1570601E+01
  0.4523810E+00  0.2631034E+05 -0.1570510E+01  0.4394558E+06 -0.9956675E-02  0.4764627E+05 -0.1570509E+01
  0.4833333E+00  0.2950744E+05 -0.1570383E+01  0.4330910E+06 -0.1293904E-01  0.5355077E+05 -0.1570383E+01
  0.5142857E+00  0.3296870E+05 -0.1570208E+01  0.4264036E+06 -0.1659604E-01  0.5999972E+05 -0.1570208E+01
  0.5452381E+00  0.3666675E+05 -0.1569977E+01  0.4194104E+06 -0.2087569E-01  0.6691354E+05 -0.1569978E+01
  0.5761905E+00  0.4056267E+05 -0.1569680E+01  0.4121425E+06 -0.2579153E-01  0.7422061E+05 -0.1569679E+01
  0.6071429E+00  0.4463991E+05 -0.1569300E+01  0.4046465E+06 -0.3148278E-01  0.8190145E+05 -0.1569300E+01
  0.6380953E+00  0.4888255E+05 -0.1568832E+01  0.3968958E+06 -0.3781892E-01  0.8995879E+05 -0.1568832E+01
  0.6690477E+00  0.5327561E+05 -0.1568260E+01  0.3889525E+06 -0.4493916E-01  0.9835630E+05 -0.1568260E+01
  0.7000000E+00  0.5779636E+05 -0.1567568E+01  0.3808385E+06 -0.5292195E-01  0.1070578E+06 -0.1567568E+01
  0.7309524E+00  0.6241357E+05 -0.1566748E+01  0.3725327E+06 -0.6170416E-01  0.1159733E+06 -0.1566747E+01
  0.7619048E+00  0.6711702E+05 -0.1565785E+01  0.3641090E+06 -0.7137537E-01  0.1251201E+06 -0.1565782E+01
  0.7928572E+00  0.7190052E+05 -0.1564669E+01  0.3555963E+06 -0.8198396E-01  0.1345164E+06 -0.1564665E+01
  0.8238096E+00  0.7674668E+05 -0.1563393E+01  0.3470004E+06 -0.9355227E-01  0.1441110E+06 -0.1563388E+01
  0.8547620E+00  0.8163309E+05 -0.1561950E+01  0.3383261E+06 -0.1060934E+00  0.1538636E+06 -0.1561942E+01
  0.8857143E+00  0.8654083E+05 -0.1560339E+01  0.3295912E+06 -0.1196223E+00  0.1637371E+06 -0.1560329E+01
  0.9166667E+00  0.9143370E+05 -0.1558563E+01  0.3208322E+06 -0.1341702E+00  0.1736470E+06 -0.1558549E+01
  0.9476191E+00  0.9629523E+05 -0.1556632E+01  0.3120842E+06 -0.1497670E+00  0.1835830E+06 -0.1556614E+01
  0.9785714E+00  0.1011080E+06 -0.1554564E+01  0.3033588E+06 -0.1664352E+00  0.1935131E+06 -0.1554541E+01
  0.1009524E+01  0.1058428E+06 -0.1552383E+01  0.2946630E+06 -0.1842016E+00  0.2034002E+06 -0.1552354E+01
  0.1040476E+01  0.1104782E+06 -0.1550122E+01  0.2859922E+06 -0.2030844E+00  0.2131836E+06 -0.1550086E+01
  0.1071429E+01  0.1149819E+06 -0.1547822E+01  0.2773585E+06 -0.2230901E+00  0.2228124E+06 -0.1547776E+01
  0.1102381E+01  0.1193222E+06 -0.1545534E+01  0.2687608E+06 -0.2442361E+00  0.2322126E+06 -0.1545475E+01
  0.1133333E+01  0.1234688E+06 -0.1543315E+01  0.2602211E+06 -0.2665500E+00  0.2412953E+06 -0.1543240E+01
  0.1164286E+01  0.1273916E+06 -0.1541239E+01  0.2517399E+06 -0.2900842E+00  0.2500112E+06 -0.1541145E+01
  0.1195238E+01  0.1310680E+06 -0.1539392E+01  0.2433314E+06 -0.3148805E+00  0.2583172E+06 -0.1539279E+01
  0.1226190E+01  0.1344684E+06 -0.1537867E+01  0.2349884E+06 -0.3409951E+00  0.2661514E+06 -0.1537732E+01
  0.1257143E+01  0.1375692E+06 -0.1536730E+01  0.2267209E+06 -0.3687921E+00  0.2734548E+06 -0.1536573E+01
  0.1288095E+01  0.1403571E+06 -0.1536214E+01  0.2185137E+06 -0.3974776E+00  0.2801932E+06 -0.1536035E+01
  0.1319048E+01  0.1428074E+06 -0.1536312E+01  0.2103934E+06 -0.4280338E+00  0.2863149E+06 -0.1536114E+01
  0.1350000E+01  0.1449136E+06 -0.1537194E+01  0.2023356E+06 -0.4602528E+00  0.2917858E+06 -0.1536977E+01
  0.1380952E+01  0.1466607E+06 -0.1538985E+01  0.1943436E+06 -0.4942178E+00  0.2965715E+06 -0.1538754E+01
  0.1411905E+01  0.1483084E+06 -0.1541127E+01  0.1866786E+06 -0.5255095E+00  0.3013260E+06 -0.1540887E+01
  0.1442857E+01  0.1493807E+06 -0.1544930E+01  0.1788268E+06 -0.5633787E+00  0.3048077E+06 -0.1544699E+01
  0.1473810E+01  0.1500924E+06 -0.1550001E+01  0.1710622E+06 -0.6037517E+00  0.3075815E+06 -0.1549795E+01
  0.1504762E+01  0.1504593E+06 -0.1556448E+01  0.1634061E+06 -0.6469315E+00  0.3096286E+06 -0.1556288E+01
  0.1535714E+01  0.1504837E+06 -0.1564380E+01  0.1558789E+06 -0.6933374E+00  0.3109722E+06 -0.1564296E+01
  0.1566667E+01  0.1501886E+06 -0.1573910E+01  0.1484900E+06 -0.7433316E+00  0.3116152E+06 -0.1573943E+01
  0.1597619E+01  0.1495865E+06 -0.1585127E+01  0.1412700E+06 -0.7974592E+00  0.3115925E+06 -0.1585325E+01
  0.1628572E+01  0.1487021E+06 -0.1598120E+01  0.1342725E+06 -0.8563579E+00  0.3109409E+06 -0.1598541E+01
  0.1659524E+01  0.1475648E+06 -0.1612979E+01  0.1275482E+06 -0.9210222E+00  0.3097101E+06 -0.1613707E+01
  0.1690476E+01  0.1461849E+06 -0.1629774E+01  0.1211758E+06 -0.9918063E+00  0.3079448E+06 -0.1630876E+01
  0.1721429E+01  0.1446036E+06 -0.1648555E+01  0.1152617E+06 -0.1069509E+01  0.3056836E+06 -0.1650142E+01
  0.1752381E+01  0.1428367E+06 -0.1669358E+01  0.1099094E+06 -0.1154658E+01  0.3029721E+06 -0.1671558E+01
  0.1783333E+01  0.1409172E+06 -0.1692240E+01  0.1052450E+06 -0.1247422E+01  0.2998692E+06 -0.1695200E+01
  0.1814286E+01  0.1388661E+06 -0.1717253E+01  0.1014492E+06 -0.1347413E+01  0.2964414E+06 -0.1721124E+01
  0.1845238E+01  0.1367117E+06 -0.1744386E+01  0.9859427E+05 -0.1453507E+01  0.2927228E+06 -0.1749377E+01
  0.1876190E+01  0.1344734E+06 -0.1773640E+01  0.9679995E+05 -0.1563532E+01  0.2887720E+06 -0.1779961E+01
  0.1907143E+01  0.1321779E+06 -0.1805045E+01  0.9608384E+05 -0.1675339E+01  0.2846388E+06 -0.1812945E+01
  0.1938095E+01  0.1298414E+06 -0.1838582E+01  0.9646298E+05 -0.1785504E+01  0.2803819E+06 -0.1848318E+01
  0.1969048E+01  0.1274897E+06 -0.1874261E+01  0.9784207E+05 -0.1891079E+01  0.2760598E+06 -0.1886108E+01
  0.2000000E+01  0.1251441E+06 -0.1912037E+01  0.1000606E+06 -0.1990071E+01  0.2717181E+06 -0.1926309E+01
