VARIABLES="w (rad/s)"
"A   1   1" "B   1   1"
"A   1   2" "B   1   2"
"A   1   3" "B   1   3"
Zone t="Motion of body    1 in DoF   1",I=    64,F=POINT
  0.5000000E-01  0.1198322E+06  0.2333271E-01  0.1548767E-01  0.4143064E-04 -0.3641657E+05  0.2126437E-01
  0.8095238E-01  0.1203382E+06  0.1028837E+00  0.7822373E-02  0.7152976E-04 -0.3726420E+05  0.9346213E-01
  0.1119048E+00  0.1210479E+06  0.2889947E+00  0.7772243E-02  0.7301196E-04 -0.3763252E+05  0.2610247E+00
  0.1428571E+00  0.1214766E+06  0.6520404E+00 -0.1922607E-02  0.3227964E-04 -0.3787195E+05  0.5849419E+00
  0.1738095E+00  0.1214532E+06  0.1298412E+01 -0.3116555E-01 -0.5825590E-03 -0.3765493E+05  0.1160131E+01
  0.2047619E+00  0.1221864E+06  0.2402030E+01  0.1982223E-01  0.5532801E-03 -0.3809809E+05  0.2124409E+01
  0.2357143E+00  0.1226039E+06  0.4237079E+01 -0.4207727E-02  0.7844716E-04 -0.3767425E+05  0.3722107E+01
  0.2666667E+00  0.1226008E+06  0.7234427E+01  0.3175735E-01  0.9959191E-03 -0.3744277E+05  0.6305464E+01
  0.2976190E+00  0.1236545E+06  0.1217669E+02 -0.1261230E-01 -0.7020682E-03 -0.3774229E+05  0.1047504E+02
  0.3285715E+00  0.1245039E+06  0.2021298E+02 -0.5804973E-02 -0.3416538E-03 -0.3770378E+05  0.1715885E+02
  0.3595238E+00  0.1248805E+06  0.3325325E+02 -0.7215083E-02 -0.4286170E-03 -0.3706161E+05  0.2792293E+02
  0.3904762E+00  0.1255754E+06  0.5437136E+02 -0.2180518E-01 -0.1665473E-02 -0.3732390E+05  0.4494326E+02
  0.4214286E+00  0.1270061E+06  0.8787434E+02  0.2063816E-01  0.1611948E-02 -0.3737753E+05  0.7130648E+02
  0.4523810E+00  0.1280995E+06  0.1406757E+03  0.1052374E-01  0.1086473E-02 -0.3693650E+05  0.1122604E+03
  0.4833333E+00  0.1285706E+06  0.2193188E+03 -0.6945379E-03 -0.1054764E-02 -0.3644199E+05  0.1720621E+03
  0.5142857E+00  0.1303165E+06  0.3372447E+03 -0.2848307E-02 -0.5440712E-03 -0.3671882E+05  0.2587497E+03
  0.5452381E+00  0.1321288E+06  0.5063634E+03 -0.1007480E-01 -0.1597881E-02 -0.3671276E+05  0.3792971E+03
  0.5761905E+00  0.1334912E+06  0.7416025E+03  0.6302762E-02  0.2448082E-02 -0.3596492E+05  0.5434828E+03
  0.6071429E+00  0.1348055E+06  0.1065676E+04 -0.2111098E-02  0.7743835E-03 -0.3553404E+05  0.7630829E+03
  0.6380953E+00  0.1364916E+06  0.1497868E+04  0.1721738E-01  0.3566742E-02 -0.3556235E+05  0.1044585E+04
  0.6690477E+00  0.1390080E+06  0.2072547E+04 -0.6659565E-02 -0.6092072E-02 -0.3563869E+05  0.1401731E+04
  0.7000000E+00  0.1414988E+06  0.2824389E+04 -0.1168387E-01 -0.5062103E-02 -0.3552829E+05  0.1850312E+04
  0.7309524E+00  0.1435005E+06  0.3783943E+04  0.8183084E-02 -0.2593994E-03 -0.3506666E+05  0.2402304E+04
  0.7619048E+00  0.1453886E+06  0.4998142E+04  0.1898575E-01  0.1094055E-01 -0.3463552E+05  0.3071944E+04
  0.7928572E+00  0.1478404E+06  0.6521987E+04  0.1439550E-01  0.7942200E-02 -0.3452987E+05  0.3874961E+04
  0.8238096E+00  0.1508925E+06  0.8411487E+04  0.7779336E-02  0.5210876E-02 -0.3529451E+05  0.4802588E+04
  0.8547620E+00  0.1538026E+06  0.1072737E+05 -0.7497633E-02 -0.1046753E-01 -0.3565837E+05  0.5863409E+04
  0.8857143E+00  0.1565990E+06  0.1353602E+05  0.1150808E-01  0.3005981E-02 -0.3577196E+05  0.7073019E+04
  0.9166667E+00  0.1592882E+06  0.1690445E+05  0.9121981E-02 -0.2792358E-02 -0.3607064E+05  0.8426489E+04
  0.9476191E+00  0.1614700E+06  0.2087934E+05 -0.4508627E-02  0.4638672E-02 -0.3669786E+05  0.9895912E+04
  0.9785714E+00  0.1633822E+06  0.2552116E+05  0.4864992E-02  0.1614380E-01 -0.3738006E+05  0.1148230E+05
  0.1009524E+01  0.1654660E+06  0.3087251E+05  0.1003625E-01  0.1263428E-01 -0.3869109E+05  0.1316536E+05
  0.1040476E+01  0.1676095E+06  0.3699425E+05  0.1102823E-01  0.1309204E-01 -0.4000031E+05  0.1491592E+05
  0.1071429E+01  0.1693128E+06  0.4392453E+05 -0.1139323E-03 -0.2212524E-01 -0.4209816E+05  0.1653638E+05
  0.1102381E+01  0.1702405E+06  0.5162515E+05  0.1107333E-02 -0.1525879E-02 -0.4406320E+05  0.1807271E+05
  0.1133333E+01  0.1704526E+06  0.6006781E+05  0.4200655E-02  0.1965332E-01 -0.4614851E+05  0.1942369E+05
  0.1164286E+01  0.1702262E+06  0.6915541E+05  0.9436109E-02  0.1721191E-01 -0.4869102E+05  0.2060615E+05
  0.1195238E+01  0.1695468E+06  0.7883581E+05  0.1205140E-01 -0.4943848E-02 -0.5111202E+05  0.2160859E+05
  0.1226190E+01  0.1681943E+06  0.8906656E+05  0.5873597E-02 -0.1770020E-02 -0.5412331E+05  0.2199645E+05
  0.1257143E+01  0.1657219E+06  0.9960519E+05  0.7768110E-03 -0.6469727E-02 -0.5692583E+05  0.2197082E+05
  0.1288095E+01  0.1627117E+06  0.1103283E+06  0.5780853E-02  0.3015137E-01 -0.5985279E+05  0.2132110E+05
  0.1319048E+01  0.1590404E+06  0.1210276E+06 -0.6293011E-02 -0.1281738E-01 -0.6289361E+05  0.2018355E+05
  0.1350000E+01  0.1547598E+06  0.1316257E+06 -0.1198098E-01 -0.4370117E-01 -0.6566775E+05  0.1840221E+05
  0.1380952E+01  0.1499938E+06  0.1419373E+06  0.3535830E-03 -0.2355957E-01 -0.6790313E+05  0.1634685E+05
  0.1411905E+01  0.1444773E+06  0.1519034E+06  0.7781210E-03 -0.2404785E-01 -0.7026866E+05  0.1353872E+05
  0.1442857E+01  0.1388473E+06  0.1612324E+06  0.5160795E-02 -0.2893066E-01 -0.7261408E+05  0.1010525E+05
  0.1473810E+01  0.1328681E+06  0.1699453E+06  0.1863594E-02  0.1135254E-01 -0.7455641E+05  0.5923586E+04
  0.1504762E+01  0.1266476E+06  0.1779621E+06  0.2555364E-02  0.1293945E-01 -0.7606720E+05  0.1225056E+04
  0.1535714E+01  0.1203580E+06  0.1852476E+06 -0.5166696E-02  0.3222656E-01 -0.7742227E+05 -0.4053979E+04
  0.1566667E+01  0.1142371E+06  0.1917965E+06 -0.5493164E-02  0.2917480E-01 -0.7821995E+05 -0.8947156E+04
  0.1597619E+01  0.1082032E+06  0.1976242E+06  0.1470847E-02  0.1257324E-01 -0.7853823E+05 -0.1399771E+05
  0.1628572E+01  0.1023389E+06  0.2029099E+06  0.2005058E-02 -0.2746582E-01 -0.7901206E+05 -0.1987505E+05
  0.1659524E+01  0.9652643E+05  0.2075294E+06 -0.2133165E-02  0.8422852E-02 -0.7924728E+05 -0.2608656E+05
  0.1690476E+01  0.9078059E+05  0.2114898E+06 -0.1040284E-01  0.3564453E-01 -0.7894226E+05 -0.3268058E+05
  0.1721429E+01  0.8514933E+05  0.2147546E+06 -0.2517384E-02  0.1623535E-01 -0.7810245E+05 -0.3927939E+05
  0.1752381E+01  0.7975386E+05  0.2175121E+06 -0.2499042E-02 -0.4882812E-02 -0.7713698E+05 -0.4604609E+05
  0.1783333E+01  0.7458145E+05  0.2197562E+06  0.6575540E-02 -0.3527832E-01 -0.7590653E+05 -0.5287935E+05
  0.1814286E+01  0.6966409E+05  0.2217024E+06  0.5449911E-02 -0.4028320E-02 -0.7435769E+05 -0.5892980E+05
  0.1845238E+01  0.6499288E+05  0.2233422E+06 -0.5614840E-02 -0.1184082E-01 -0.7275802E+05 -0.6494621E+05
  0.1876190E+01  0.6049532E+05  0.2246899E+06  0.1110135E-01 -0.6225586E-02 -0.7105420E+05 -0.7165286E+05
  0.1907143E+01  0.5598278E+05  0.2254143E+06  0.4800518E-03  0.4638672E-02 -0.6881661E+05 -0.7836130E+05
  0.1938095E+01  0.5151583E+05  0.2256620E+06 -0.2047002E-03  0.9826660E-02 -0.6623877E+05 -0.8489605E+05
  0.1969048E+01  0.4717895E+05  0.2253144E+06 -0.4649595E-02  0.3430176E-01 -0.6330329E+05 -0.9086935E+05
  0.2000000E+01  0.4298793E+05  0.2243030E+06  0.3097534E-02 -0.7324219E-03 -0.6004136E+05 -0.9619462E+05
Zone t="Motion of body    1 in DoF   2",I=    64,F=POINT
  0.5000000E-01 -0.3051758E-03  0.2384186E-04  0.3839130E+06  0.1056082E+04  0.3662109E-02  0.4577637E-04
  0.8095238E-01 -0.1130946E-02 -0.3242493E-04  0.3794625E+06  0.1747950E+04 -0.2714269E-01  0.3814697E-03
  0.1119048E+00  0.3408878E-02 -0.2002716E-03  0.3763758E+06  0.2496688E+04  0.3490692E-01  0.3662109E-03
  0.1428571E+00 -0.7476806E-02 -0.1869202E-03  0.3745235E+06  0.3327865E+04  0.5468750E-01  0.1266479E-02
  0.1738095E+00  0.5267417E-03  0.1220703E-03  0.3737922E+06  0.4273917E+04  0.6039972E-01  0.3967285E-03
  0.2047619E+00  0.8346203E-02  0.4196167E-04  0.3733249E+06  0.5376115E+04  0.3815407E-01 -0.2441406E-03
  0.2357143E+00  0.6991299E-02 -0.9155273E-04  0.3735189E+06  0.6689441E+04  0.1967921E-01  0.9155273E-03
  0.2666667E+00 -0.6637573E-02 -0.2822876E-03  0.3741050E+06  0.8256412E+04  0.5493164E-01  0.1373291E-02
  0.2976190E+00  0.5126953E-02  0.3051758E-03  0.3747200E+06  0.1018394E+05  0.5414062E-01  0.2502441E-02
  0.3285715E+00 -0.5387015E-02 -0.4577637E-04  0.3756511E+06  0.1251193E+05  0.7876188E-01  0.1281738E-02
  0.3595238E+00 -0.4413933E-02 -0.5950928E-03  0.3761685E+06  0.1535958E+05  0.3531146E-01  0.4760742E-02
  0.3904762E+00  0.7190239E-02 -0.9002686E-03  0.3765576E+06  0.1880066E+05  0.8628286E-01 -0.9765625E-03
  0.4214286E+00 -0.7241459E-03  0.3356934E-03  0.3759876E+06  0.2275503E+05  0.3591763E-01  0.4638672E-02
  0.4523810E+00 -0.1497610E-01 -0.1525879E-03  0.3746344E+06  0.2742934E+05  0.5828536E-01  0.1220703E-02
  0.4833333E+00 -0.6313982E-03  0.1831055E-03  0.3726161E+06  0.3233081E+05  0.5758351E-01 -0.1464844E-02
  0.5142857E+00 -0.8307563E-02 -0.2258301E-02  0.3687784E+06  0.3774908E+05  0.3987630E-01  0.1049805E-01
  0.5452381E+00  0.1679133E-02  0.8544922E-03  0.3647738E+06  0.4327790E+05  0.1791075E-02  0.5371094E-02
  0.5761905E+00 -0.7838729E-02 -0.4333496E-02  0.3600227E+06  0.4879637E+05  0.1864346E-01  0.1318359E-01
  0.6071429E+00 -0.1045496E-01  0.6103516E-04  0.3542250E+06  0.5449632E+05  0.6272978E-01  0.4882812E-03
  0.6380953E+00  0.3347824E-02  0.6103516E-03  0.3487939E+06  0.5984937E+05  0.3826084E-01 -0.6103516E-02
  0.6690477E+00  0.1094723E-02  0.1586914E-02  0.3427043E+06  0.6511330E+05  0.6130449E-01  0.1342773E-01
  0.7000000E+00  0.3836495E-02 -0.6225586E-02  0.3361448E+06  0.7030344E+05  0.6835937E-01  0.1586914E-01
  0.7309524E+00 -0.7932582E-02 -0.2380371E-02  0.3300157E+06  0.7509304E+05  0.3072832E-01  0.1806641E-01
  0.7619048E+00 -0.3604889E-02  0.7080078E-02  0.3237409E+06  0.7960652E+05  0.2947998E-01  0.1074219E-01
  0.7928572E+00  0.3387176E-02  0.2807617E-02  0.3169317E+06  0.8388743E+05  0.5542652E-01  0.3271484E-01
  0.8238096E+00 -0.1311374E-01 -0.1708984E-02  0.3105240E+06  0.8780762E+05  0.6875451E-01  0.2929688E-02
  0.8547620E+00  0.2856241E-02  0.1708984E-02  0.3045040E+06  0.9126662E+05  0.1370996E-01  0.1757812E-01
  0.8857143E+00 -0.6477602E-02  0.3784180E-02  0.2982572E+06  0.9437580E+05  0.4079511E-01 -0.7324219E-02
  0.9166667E+00  0.8256392E-02 -0.7568359E-02  0.2921678E+06  0.9706999E+05  0.5539773E-01  0.4736328E-01
  0.9476191E+00  0.8437573E-02  0.7080078E-02  0.2863607E+06  0.9933567E+05 -0.6183260E-02  0.2539062E-01
  0.9785714E+00  0.6237169E-04 -0.2075195E-02  0.2809612E+06  0.1010920E+06  0.5089530E-01  0.2392578E-01
  0.1009524E+01 -0.6831907E-02 -0.4882812E-02  0.2758029E+06  0.1024358E+06  0.3385724E-01  0.3710938E-01
  0.1040476E+01  0.4106255E-03  0.1696777E-01  0.2704625E+06  0.1034617E+06 -0.9385726E-02 -0.1708984E-01
  0.1071429E+01  0.5126953E-03  0.5981445E-02  0.2655792E+06  0.1040820E+06  0.3554688E-01 -0.2978516E-01
  0.1102381E+01  0.6090333E-03 -0.3295898E-02  0.2611920E+06  0.1042326E+06  0.3454880E-01  0.9277344E-02
  0.1133333E+01 -0.3473619E-02  0.1147461E-01  0.2572156E+06  0.1039061E+06 -0.8616728E-03 -0.3173828E-01
  0.1164286E+01 -0.8807035E-02 -0.1220703E-02  0.2535668E+06  0.1032392E+06 -0.1006518E-01 -0.9765625E-02
  0.1195238E+01  0.2910720E-02 -0.1098633E-01  0.2497270E+06  0.1023135E+06  0.8170443E-02  0.3564453E-01
  0.1226190E+01 -0.4330533E-02 -0.4028320E-02  0.2463690E+06  0.1010796E+06  0.4858162E-01  0.2734375E-01
  0.1257143E+01  0.2439672E-02 -0.1123047E-01  0.2434696E+06  0.9961969E+05  0.1087535E-01  0.2636719E-01
  0.1288095E+01 -0.7433371E-02 -0.2465820E-01  0.2409464E+06  0.9762352E+05  0.2729321E-01  0.4394531E-01
  0.1319048E+01 -0.3991153E-02 -0.8056641E-02  0.2388993E+06  0.9544543E+05  0.1998956E-01  0.1416016E-01
  0.1350000E+01  0.6668656E-02  0.4882812E-03  0.2368853E+06  0.9309845E+05  0.7884838E-01 -0.2685547E-01
  0.1380952E+01  0.6872769E-02  0.1220703E-03  0.2348278E+06  0.9048196E+05  0.9193158E-02  0.1953125E-01
  0.1411905E+01  0.2074989E-02 -0.6835938E-02  0.2331435E+06  0.8767138E+05  0.3389149E-01 -0.1953125E-02
  0.1442857E+01  0.6937461E-02 -0.4882812E-02  0.2318647E+06  0.8489348E+05  0.5888382E-01  0.6298828E-01
  0.1473810E+01  0.3520121E-03 -0.6347656E-02  0.2309085E+06  0.8191999E+05  0.1391483E-01 -0.3173828E-01
  0.1504762E+01  0.8335355E-02  0.3051758E-02  0.2303006E+06  0.7883008E+05  0.3115111E-01  0.6835938E-02
  0.1535714E+01 -0.2185910E-02 -0.6469727E-02  0.2299692E+06  0.7570844E+05  0.3942587E-01  0.9765625E-02
  0.1566667E+01  0.9739652E-03  0.8178711E-02  0.2293785E+06  0.7249272E+05  0.1558344E-01  0.8789062E-02
  0.1597619E+01  0.1795580E-02 -0.1086426E-01  0.2289140E+06  0.6916102E+05  0.2934054E-01  0.1513672E-01
  0.1628572E+01 -0.1649020E-02  0.7690430E-02  0.2287103E+06  0.6595829E+05  0.1499109E-01  0.5249023E-01
  0.1659524E+01 -0.2206723E-03  0.1135254E-01  0.2287393E+06  0.6286886E+05  0.3589603E-01 -0.7812500E-02
  0.1690476E+01 -0.1985792E-02 -0.1660156E-01  0.2289396E+06  0.5978799E+05  0.4621479E-02  0.7324219E-02
  0.1721429E+01 -0.2375559E-02 -0.1367188E-01  0.2293087E+06  0.5669527E+05  0.1361515E-01  0.7592773E-01
  0.1752381E+01 -0.6931140E-02 -0.3662109E-03  0.2298104E+06  0.5363252E+05 -0.6687331E-02 -0.1123047E-01
  0.1783333E+01 -0.2635350E-02 -0.3295898E-02  0.2303446E+06  0.5069280E+05  0.6352220E-01 -0.2050781E-01
  0.1814286E+01  0.3296860E-02  0.9399414E-02  0.2307735E+06  0.4774300E+05  0.1722441E-01  0.1538086E-01
  0.1845238E+01 -0.6284652E-02 -0.5615234E-02  0.2312637E+06  0.4487609E+05  0.1323085E-01  0.3222656E-01
  0.1876190E+01 -0.9759429E-03 -0.6713867E-02  0.2318332E+06  0.4221024E+05  0.1977911E-01 -0.2490234E-01
  0.1907143E+01 -0.1920207E-03  0.4882812E-03  0.2324920E+06  0.3973489E+05 -0.8704940E-02  0.8056641E-02
  0.1938095E+01  0.6298468E-04 -0.1037598E-01  0.2331849E+06  0.3735583E+05  0.3275203E-01 -0.9277344E-02
  0.1969048E+01 -0.8431265E-02 -0.2026367E-01  0.2339180E+06  0.3501640E+05  0.3570889E-01  0.2429199E-01
  0.2000000E+01  0.3967285E-02 -0.1147461E-01  0.2346497E+06  0.3274041E+05  0.4541016E-01 -0.3051758E-02
Zone t="Motion of body    1 in DoF   3",I=    64,F=POINT
  0.5000000E-01 -0.3984301E+05  0.2009629E-01  0.7324219E-02 -0.4398247E-04  0.1077546E+07  0.1847395E-01
  0.8095238E-01 -0.3980377E+05  0.8892164E-01 -0.6408691E-01 -0.2566946E-03  0.1089381E+07  0.8074906E-01
  0.1119048E+00 -0.4059916E+05  0.2489916E+00  0.6517775E-01  0.6792240E-03  0.1089987E+07  0.2259208E+00
  0.1428571E+00 -0.4088262E+05  0.5594673E+00 -0.3717041E-01 -0.7138820E-03  0.1090613E+07  0.5025641E+00
  0.1738095E+00 -0.4018452E+05  0.1106790E+01  0.2809289E-02 -0.1055561E-03  0.1092602E+07  0.9864614E+00
  0.2047619E+00 -0.4108294E+05  0.2033181E+01  0.2682708E-02 -0.2143998E-03  0.1091614E+07  0.1795531E+01
  0.2357143E+00 -0.4066668E+05  0.3559290E+01  0.3469756E-01  0.1325123E-02  0.1090706E+07  0.3122322E+01
  0.2666667E+00 -0.4001959E+05  0.6018551E+01  0.1876831E-01  0.1699626E-03  0.1091453E+07  0.5240207E+01
  0.2976190E+00 -0.4075804E+05  0.1002503E+02  0.1017188E+00  0.2814025E-02  0.1090880E+07  0.8613829E+01
  0.3285715E+00 -0.4080362E+05  0.1643217E+02  0.7207455E-01  0.2505124E-02  0.1091668E+07  0.1394202E+02
  0.3595238E+00 -0.3989217E+05  0.2667610E+02 -0.3870679E-01 -0.2017796E-02  0.1090455E+07  0.2238159E+02
  0.3904762E+00 -0.4022370E+05  0.4298507E+02  0.1425543E+00  0.8780658E-02  0.1091008E+07  0.3548495E+02
  0.4214286E+00 -0.4040874E+05  0.6831577E+02 -0.3794524E-01 -0.3865004E-02  0.1092459E+07  0.5534953E+02
  0.4523810E+00 -0.4028145E+05  0.1075075E+03 -0.9984066E-01 -0.9912252E-02  0.1090104E+07  0.8580492E+02
  0.4833333E+00 -0.3880177E+05  0.1642205E+03  0.1414332E-01 -0.9562969E-03  0.1093847E+07  0.1288871E+03
  0.5142857E+00 -0.3993980E+05  0.2478383E+03 -0.2753364E-01 -0.4133463E-02  0.1090512E+07  0.1898051E+03
  0.5452381E+00 -0.4002823E+05  0.3639453E+03  0.3582151E-02  0.3056049E-02  0.1092070E+07  0.2724608E+03
  0.5761905E+00 -0.3902585E+05  0.5201618E+03 -0.1135556E+00 -0.2742958E-01  0.1092103E+07  0.3816109E+03
  0.6071429E+00 -0.3854922E+05  0.7294030E+03  0.3337546E-01  0.6851196E-02  0.1090158E+07  0.5241467E+03
  0.6380953E+00 -0.3822417E+05  0.9989579E+03 -0.5586083E-01 -0.1430893E-01  0.1093123E+07  0.6948513E+03
  0.6690477E+00 -0.3872505E+05  0.1345209E+04  0.9925489E-01  0.2642250E-01  0.1092907E+07  0.9078022E+03
  0.7000000E+00 -0.3902721E+05  0.1779295E+04  0.8928571E-01  0.2994537E-01  0.1091339E+07  0.1168579E+04
  0.7309524E+00 -0.3810800E+05  0.2303742E+04  0.3072832E-01  0.1186371E-02  0.1092882E+07  0.1469472E+04
  0.7619048E+00 -0.3708214E+05  0.2936645E+04 -0.2243042E-01 -0.6168365E-02  0.1093964E+07  0.1816255E+04
  0.7928572E+00 -0.3726154E+05  0.3708792E+04  0.3879856E-01  0.1599884E-01  0.1090712E+07  0.2202063E+04
  0.8238096E+00 -0.3834028E+05  0.4627905E+04  0.6401283E-01  0.2456284E-01  0.1092381E+07  0.2614336E+04
  0.8547620E+00 -0.3849791E+05  0.5655723E+04 -0.1228184E-01  0.8834839E-02  0.1094969E+07  0.3077311E+04
  0.8857143E+00 -0.3858450E+05  0.6818858E+04 -0.4410282E-02 -0.1700592E-01  0.1093872E+07  0.3589240E+04
  0.9166667E+00 -0.3904232E+05  0.8118517E+04  0.4154829E-01  0.2338409E-01  0.1090964E+07  0.4108769E+04
  0.9476191E+00 -0.3924854E+05  0.9518497E+04  0.7213803E-02  0.2015686E-01  0.1091223E+07  0.4623737E+04
  0.9785714E+00 -0.3928285E+05  0.1098624E+05 -0.9979471E-02 -0.2690125E-01  0.1092317E+07  0.5077277E+04
  0.1009524E+01 -0.4032361E+05  0.1259487E+05 -0.3288989E-01 -0.2110291E-01  0.1093588E+07  0.5366425E+04
  0.1040476E+01 -0.4203819E+05  0.1430811E+05 -0.4035863E-01 -0.5892944E-01  0.1089847E+07  0.5674517E+04
  0.1071429E+01 -0.4420406E+05  0.1594251E+05  0.1731771E-01  0.3385925E-01  0.1089496E+07  0.5944338E+04
  0.1102381E+01 -0.4591017E+05  0.1740945E+05  0.2923360E-01  0.2510071E-01  0.1089791E+07  0.6136878E+04
  0.1133333E+01 -0.4749871E+05  0.1859939E+05 -0.3834444E-01 -0.5569458E-01  0.1091420E+07  0.6228390E+04
  0.1164286E+01 -0.4972698E+05  0.1971266E+05 -0.3732505E-01 -0.9826660E-02  0.1092661E+07  0.5897900E+04
  0.1195238E+01 -0.5236405E+05  0.2073190E+05 -0.1021305E-01  0.2401733E-01  0.1089326E+07  0.5469453E+04
  0.1226190E+01 -0.5545719E+05  0.2125345E+05 -0.2389260E-02 -0.3540039E-02  0.1088407E+07  0.5141879E+04
  0.1257143E+01 -0.5794982E+05  0.2132235E+05 -0.1747825E-01  0.8895874E-02  0.1088609E+07  0.4684451E+04
  0.1288095E+01 -0.6061671E+05  0.2060205E+05 -0.1705826E-01 -0.5786133E-01  0.1090082E+07  0.4230921E+04
  0.1319048E+01 -0.6329462E+05  0.1945214E+05  0.2295098E-01 -0.1451111E-01  0.1093052E+07  0.3381523E+04
  0.1350000E+01 -0.6584026E+05  0.1783953E+05  0.1106771E+00  0.9178162E-01  0.1093626E+07  0.2763745E+04
  0.1380952E+01 -0.6814776E+05  0.1593635E+05  0.1980065E-01  0.2310181E-01  0.1090538E+07  0.1723105E+04
  0.1411905E+01 -0.7050591E+05  0.1274747E+05  0.2420821E-01  0.2532959E-01  0.1090031E+07  0.9230720E+03
  0.1442857E+01 -0.7277084E+05  0.9600277E+04  0.4670096E-01  0.5396271E-01  0.1091628E+07  0.3282509E+03
  0.1473810E+01 -0.7446122E+05  0.5698688E+04  0.1325222E-01  0.3797150E-01  0.1093916E+07  0.6946122E+03
  0.1504762E+01 -0.7560417E+05  0.1120947E+04 -0.1622453E-02  0.4335213E-01  0.1096746E+07  0.1207075E+04
  0.1535714E+01 -0.7647130E+05 -0.3944210E+04  0.4514898E-01 -0.2185154E-01  0.1101023E+07  0.2280216E+04
  0.1566667E+01 -0.7729917E+05 -0.8500116E+04  0.4176363E-01 -0.8507919E-01  0.1100104E+07  0.1714718E+04
  0.1597619E+01 -0.7779028E+05 -0.1313083E+05 -0.1191959E-01  0.1212311E-01  0.1097614E+07  0.9726337E+03
  0.1628572E+01 -0.7856775E+05 -0.1844914E+05  0.1888877E-01 -0.1123047E-01  0.1098216E+07  0.1659912E+04
  0.1659524E+01 -0.7889712E+05 -0.2421438E+05  0.2765759E-01 -0.1846313E-01  0.1100496E+07  0.3442820E+04
  0.1690476E+01 -0.7857942E+05 -0.3028585E+05  0.1935244E-01 -0.3350830E-01  0.1102827E+07  0.6900135E+04
  0.1721429E+01 -0.7749909E+05 -0.3646040E+05  0.1361515E-01 -0.4304504E-01  0.1104673E+07  0.1081335E+05
  0.1752381E+01 -0.7618831E+05 -0.4305556E+05 -0.1643969E-01 -0.2006531E-01  0.1107492E+07  0.1506887E+05
  0.1783333E+01 -0.7467854E+05 -0.4929868E+05  0.3367772E-01  0.4205322E-01  0.1110014E+07  0.1983484E+05
  0.1814286E+01 -0.7336889E+05 -0.5471536E+05 -0.8343074E-02  0.1747131E-01  0.1107971E+07  0.2069924E+05
  0.1845238E+01 -0.7205073E+05 -0.6028029E+05  0.1270161E-01  0.1977539E-01  0.1106094E+07  0.2069507E+05
  0.1876190E+01 -0.7079981E+05 -0.6654904E+05 -0.8328046E-02 -0.2923584E-01  0.1106146E+07  0.2418397E+05
  0.1907143E+01 -0.6891627E+05 -0.7269468E+05  0.5632608E-02  0.8712769E-02  0.1106426E+07  0.3056746E+05
  0.1938095E+01 -0.6646473E+05 -0.7876240E+05  0.5038775E-03 -0.1643372E-01  0.1106588E+07  0.3789677E+05
  0.1969048E+01 -0.6348567E+05 -0.8428802E+05 -0.7439352E-02 -0.1502991E-01  0.1106280E+07  0.4505734E+05
  0.2000000E+01 -0.6007350E+05 -0.8921406E+05  0.3955078E-01  0.1097107E-01  0.1105341E+07  0.5196519E+05
