VARIABLES="w (rad/s)"
"abs(F   1   1)" "angle(F   1   1)"
"abs(F   1   2)" "angle(F   1   2)"
"abs(F   1   3)" "angle(F   1   3)"
Zone t="Diffraction force - beta =   0.000 deg",I=    64,F=POINT
  0.5000000E-01  0.1624367E+04 -0.1570794E+01  0.4247863E+03 -0.3075287E+01  0.4421497E+03  0.1570796E+01
  0.8095238E-01  0.2655762E+04 -0.1570790E+01  0.1096354E+04 -0.3072637E+01  0.7278927E+03  0.1570796E+01
  0.1119048E+00  0.3703075E+04 -0.1570784E+01  0.2079643E+04 -0.3069650E+01  0.1013232E+04  0.1570796E+01
  0.1428571E+00  0.4786905E+04 -0.1570774E+01  0.3373240E+04 -0.3065886E+01  0.1301653E+04  0.1570794E+01
  0.1738095E+00  0.5907988E+04 -0.1570760E+01  0.4991073E+04 -0.3061321E+01  0.1589601E+04  0.1570793E+01
  0.2047619E+00  0.7090297E+04 -0.1570739E+01  0.6934077E+04 -0.3055576E+01  0.1886955E+04  0.1570790E+01
  0.2357143E+00  0.8326183E+04 -0.1570709E+01  0.9223646E+04 -0.3048459E+01  0.2211714E+04  0.1570787E+01
  0.2666667E+00  0.9668093E+04 -0.1570665E+01  0.1186903E+05 -0.3039865E+01  0.2497812E+04  0.1570778E+01
  0.2976190E+00  0.1110607E+05 -0.1570600E+01  0.1486919E+05 -0.3028990E+01  0.2840190E+04  0.1570766E+01
  0.3285715E+00  0.1265231E+05 -0.1570503E+01  0.1826686E+05 -0.3016211E+01  0.3213014E+04  0.1570746E+01
  0.3595238E+00  0.1436554E+05 -0.1570360E+01  0.2204094E+05 -0.3000701E+01  0.3542199E+04  0.1570705E+01
  0.3904762E+00  0.1625702E+05 -0.1570145E+01  0.2619996E+05 -0.2982365E+01  0.3898574E+04  0.1570640E+01
  0.4214286E+00  0.1831578E+05 -0.1569833E+01  0.3068276E+05 -0.2961870E+01  0.4309980E+04  0.1570534E+01
  0.4523810E+00  0.2055175E+05 -0.1569374E+01  0.3555783E+05 -0.2938483E+01  0.4722161E+04  0.1570356E+01
  0.4833333E+00  0.2299710E+05 -0.1568744E+01  0.4065207E+05 -0.2914612E+01  0.5108853E+04  0.1570061E+01
  0.5142857E+00  0.2565100E+05 -0.1567873E+01  0.4598524E+05 -0.2888725E+01  0.5478585E+04  0.1569590E+01
  0.5452381E+00  0.2842016E+05 -0.1566715E+01  0.5157023E+05 -0.2863245E+01  0.5933753E+04  0.1568922E+01
  0.5761905E+00  0.3131128E+05 -0.1565217E+01  0.5734494E+05 -0.2838360E+01  0.6339547E+04  0.1567912E+01
  0.6071429E+00  0.3437834E+05 -0.1563303E+01  0.6324734E+05 -0.2812693E+01  0.6624020E+04  0.1566339E+01
  0.6380953E+00  0.3754606E+05 -0.1560936E+01  0.6929322E+05 -0.2788480E+01  0.6900075E+04  0.1564111E+01
  0.6690477E+00  0.4078583E+05 -0.1558021E+01  0.7546891E+05 -0.2764760E+01  0.7180234E+04  0.1561028E+01
  0.7000000E+00  0.4405057E+05 -0.1554460E+01  0.8176577E+05 -0.2741263E+01  0.7432869E+04  0.1556777E+01
  0.7309524E+00  0.4732995E+05 -0.1550203E+01  0.8815664E+05 -0.2718754E+01  0.7599583E+04  0.1550839E+01
  0.7619048E+00  0.5069784E+05 -0.1545187E+01  0.9457470E+05 -0.2696586E+01  0.7637762E+04  0.1542384E+01
  0.7928572E+00  0.5409769E+05 -0.1539323E+01  0.1009806E+06 -0.2674591E+01  0.7562894E+04  0.1530436E+01
  0.8238096E+00  0.5747411E+05 -0.1532525E+01  0.1073946E+06 -0.2653218E+01  0.7528963E+04  0.1514960E+01
  0.8547620E+00  0.6072507E+05 -0.1524680E+01  0.1138301E+06 -0.2632761E+01  0.7471317E+04  0.1494562E+01
  0.8857143E+00  0.6389156E+05 -0.1515760E+01  0.1202529E+06 -0.2613176E+01  0.7361068E+04  0.1467591E+01
  0.9166667E+00  0.6695493E+05 -0.1505740E+01  0.1266163E+06 -0.2594192E+01  0.7122333E+04  0.1430467E+01
  0.9476191E+00  0.6990838E+05 -0.1494614E+01  0.1328532E+06 -0.2575491E+01  0.6846809E+04  0.1381568E+01
  0.9785714E+00  0.7266889E+05 -0.1482316E+01  0.1389484E+06 -0.2557104E+01  0.6533334E+04  0.1316775E+01
  0.1009524E+01  0.7524620E+05 -0.1468895E+01  0.1449143E+06 -0.2539395E+01  0.6300413E+04  0.1237436E+01
  0.1040476E+01  0.7751482E+05 -0.1454267E+01  0.1507490E+06 -0.2522536E+01  0.6130375E+04  0.1140812E+01
  0.1071429E+01  0.7944819E+05 -0.1438483E+01  0.1564394E+06 -0.2506609E+01  0.6120677E+04  0.1035068E+01
  0.1102381E+01  0.8097407E+05 -0.1421556E+01  0.1619720E+06 -0.2491518E+01  0.6324854E+04  0.9334300E+00
  0.1133333E+01  0.8204615E+05 -0.1403591E+01  0.1673037E+06 -0.2476957E+01  0.6635913E+04  0.8308254E+00
  0.1164286E+01  0.8270052E+05 -0.1384863E+01  0.1724427E+06 -0.2463151E+01  0.7129123E+04  0.7453463E+00
  0.1195238E+01  0.8283988E+05 -0.1365391E+01  0.1773490E+06 -0.2449821E+01  0.7752893E+04  0.6754952E+00
  0.1226190E+01  0.8246855E+05 -0.1345435E+01  0.1820183E+06 -0.2437158E+01  0.8534970E+04  0.6321992E+00
  0.1257143E+01  0.8152804E+05 -0.1324885E+01  0.1864850E+06 -0.2424830E+01  0.9485972E+04  0.6194339E+00
  0.1288095E+01  0.7997315E+05 -0.1304632E+01  0.1905678E+06 -0.2413434E+01  0.1051222E+05  0.6259661E+00
  0.1319048E+01  0.7781920E+05 -0.1284328E+01  0.1944428E+06 -0.2402573E+01  0.1164365E+05  0.6522124E+00
  0.1350000E+01  0.7506116E+05 -0.1264586E+01  0.1980385E+06 -0.2392406E+01  0.1286697E+05  0.6949607E+00
  0.1380952E+01  0.7166512E+05 -0.1245602E+01  0.2013261E+06 -0.2382964E+01  0.1417952E+05  0.7502179E+00
  0.1411905E+01  0.6728295E+05 -0.1229210E+01  0.2023764E+06 -0.2370196E+01  0.1577477E+05  0.8368543E+00
  0.1442857E+01  0.6279697E+05 -0.1213060E+01  0.2050277E+06 -0.2361499E+01  0.1734130E+05  0.9078004E+00
  0.1473810E+01  0.5774474E+05 -0.1199272E+01  0.2073652E+06 -0.2353309E+01  0.1909047E+05  0.9871338E+00
  0.1504762E+01  0.5214550E+05 -0.1188808E+01  0.2093776E+06 -0.2345514E+01  0.2100915E+05  0.1070133E+01
  0.1535714E+01  0.4608174E+05 -0.1183531E+01  0.2110674E+06 -0.2338374E+01  0.2317864E+05  0.1157061E+01
  0.1566667E+01  0.3957179E+05 -0.1185985E+01  0.2124144E+06 -0.2331737E+01  0.2558417E+05  0.1244128E+01
  0.1597619E+01  0.3268032E+05 -0.1201180E+01  0.2134099E+06 -0.2325601E+01  0.2826799E+05  0.1330333E+01
  0.1628572E+01  0.2549802E+05 -0.1240418E+01  0.2140347E+06 -0.2320163E+01  0.3124715E+05  0.1414366E+01
  0.1659524E+01  0.1817697E+05 -0.1333406E+01  0.2142940E+06 -0.2315296E+01  0.3450977E+05  0.1494925E+01
  0.1690476E+01  0.1117001E+05 -0.1583178E+01  0.2142019E+06 -0.2310968E+01  0.3812693E+05  0.1571823E+01
  0.1721429E+01  0.6779713E+04 -0.2387013E+01  0.2137404E+06 -0.2306999E+01  0.4203612E+05  0.1644099E+01
  0.1752381E+01  0.1024933E+05  0.2960595E+01  0.2129188E+06 -0.2303669E+01  0.4628207E+05  0.1711870E+01
  0.1783333E+01  0.1759402E+05  0.2652575E+01  0.2117455E+06 -0.2300868E+01  0.5079697E+05  0.1775073E+01
  0.1814286E+01  0.2576617E+05  0.2539562E+01  0.2102104E+06 -0.2298440E+01  0.5559847E+05  0.1833924E+01
  0.1845238E+01  0.3419704E+05  0.2487640E+01  0.2082829E+06 -0.2296588E+01  0.6067350E+05  0.1888457E+01
  0.1876190E+01  0.4272487E+05  0.2461047E+01  0.2059462E+06 -0.2295435E+01  0.6598170E+05  0.1938943E+01
  0.1907143E+01  0.5127119E+05  0.2447221E+01  0.2032365E+06 -0.2294887E+01  0.7144044E+05  0.1985998E+01
  0.1938095E+01  0.5974797E+05  0.2440603E+01  0.2001957E+06 -0.2294809E+01  0.7706228E+05  0.2029888E+01
  0.1969048E+01  0.6812132E+05  0.2437832E+01  0.1967760E+06 -0.2295363E+01  0.8284853E+05  0.2070538E+01
  0.2000000E+01  0.7632834E+05  0.2437642E+01  0.1930145E+06 -0.2296305E+01  0.8875715E+05  0.2108441E+01
