VARIABLES="w (rad/s)"
"abs(F   1   1)" "angle(F   1   1)"
"abs(F   1   2)" "angle(F   1   2)"
"abs(F   1   3)" "angle(F   1   3)"
Zone t="Diffraction force - beta =   0.000 deg",I=    64,F=POINT
  0.5000000E-01  0.5843381E+04 -0.1570799E+01  0.4535538E+06 -0.3075100E-04  0.9735068E+04  0.1570791E+01
  0.8095238E-01  0.9536627E+04 -0.1570795E+01  0.4521362E+06 -0.8261709E-04  0.1590179E+05  0.1570798E+01
  0.1119048E+00  0.1330934E+05 -0.1570787E+01  0.4500560E+06 -0.1637294E-03  0.2220165E+05  0.1570801E+01
  0.1428571E+00  0.1720044E+05 -0.1570785E+01  0.4473134E+06 -0.2800897E-03  0.2870432E+05  0.1570808E+01
  0.1738095E+00  0.2126454E+05 -0.1570776E+01  0.4439074E+06 -0.4403685E-03  0.3549048E+05  0.1570814E+01
  0.2047619E+00  0.2553881E+05 -0.1570765E+01  0.4398520E+06 -0.6577374E-03  0.4264502E+05  0.1570826E+01
  0.2357143E+00  0.3006709E+05 -0.1570749E+01  0.4351373E+06 -0.9508963E-03  0.5024585E+05  0.1570842E+01
  0.2666667E+00  0.3495347E+05 -0.1570724E+01  0.4297720E+06 -0.1341670E-02  0.5843267E+05  0.1570867E+01
  0.2976190E+00  0.4023369E+05 -0.1570691E+01  0.4237754E+06 -0.1869990E-02  0.6729882E+05  0.1570903E+01
  0.3285715E+00  0.4596704E+05 -0.1570638E+01  0.4171452E+06 -0.2571480E-02  0.7697280E+05  0.1570955E+01
  0.3595238E+00  0.5234677E+05 -0.1570561E+01  0.4099261E+06 -0.3508854E-02  0.8768389E+05  0.1571032E+01
  0.3904762E+00  0.5931867E+05 -0.1570443E+01  0.4021357E+06 -0.4745394E-02  0.9945238E+05  0.1571149E+01
  0.4214286E+00  0.6701458E+05 -0.1570273E+01  0.3938207E+06 -0.6318155E-02  0.1124553E+06  0.1571320E+01
  0.4523810E+00  0.7549880E+05 -0.1570023E+01  0.3850750E+06 -0.8354389E-02  0.1267951E+06  0.1571571E+01
  0.4833333E+00  0.8479222E+05 -0.1569675E+01  0.3758321E+06 -0.1076018E-01  0.1425104E+06  0.1571918E+01
  0.5142857E+00  0.9482051E+05 -0.1569192E+01  0.3663915E+06 -0.1369929E-01  0.1595374E+06  0.1572401E+01
  0.5452381E+00  0.1054441E+06 -0.1568549E+01  0.3565437E+06 -0.1709453E-01  0.1776684E+06  0.1573044E+01
  0.5761905E+00  0.1168499E+06 -0.1567713E+01  0.3464605E+06 -0.2093638E-01  0.1969698E+06  0.1573880E+01
  0.6071429E+00  0.1288265E+06 -0.1566633E+01  0.3362446E+06 -0.2537319E-01  0.2172904E+06  0.1574960E+01
  0.6380953E+00  0.1412608E+06 -0.1565286E+01  0.3256720E+06 -0.3021420E-01  0.2385451E+06  0.1576308E+01
  0.6690477E+00  0.1541651E+06 -0.1563613E+01  0.3150811E+06 -0.3560448E-01  0.2605721E+06  0.1577983E+01
  0.7000000E+00  0.1673802E+06 -0.1561558E+01  0.3044435E+06 -0.4161574E-01  0.2831737E+06  0.1580040E+01
  0.7309524E+00  0.1811971E+06 -0.1559085E+01  0.2935698E+06 -0.4814136E-01  0.3067984E+06  0.1582512E+01
  0.7619048E+00  0.1953925E+06 -0.1556123E+01  0.2826987E+06 -0.5523637E-01  0.3308930E+06  0.1585476E+01
  0.7928572E+00  0.2098510E+06 -0.1552608E+01  0.2719848E+06 -0.6297217E-01  0.3556466E+06  0.1588995E+01
  0.8238096E+00  0.2243726E+06 -0.1548478E+01  0.2612148E+06 -0.7133995E-01  0.3804978E+06  0.1593132E+01
  0.8547620E+00  0.2390581E+06 -0.1543684E+01  0.2503489E+06 -0.8033546E-01  0.4057376E+06  0.1597936E+01
  0.8857143E+00  0.2539981E+06 -0.1538181E+01  0.2397933E+06 -0.8993217E-01  0.4312176E+06  0.1603446E+01
  0.9166667E+00  0.2691671E+06 -0.1531941E+01  0.2293633E+06 -0.1001959E+00  0.4570301E+06  0.1609681E+01
  0.9476191E+00  0.2841940E+06 -0.1524882E+01  0.2190405E+06 -0.1111141E+00  0.4824775E+06  0.1616751E+01
  0.9785714E+00  0.2991079E+06 -0.1516961E+01  0.2087487E+06 -0.1227410E+00  0.5078886E+06  0.1624690E+01
  0.1009524E+01  0.3137391E+06 -0.1508156E+01  0.1986822E+06 -0.1349575E+00  0.5325420E+06  0.1633525E+01
  0.1040476E+01  0.3280686E+06 -0.1498457E+01  0.1890627E+06 -0.1478306E+00  0.5569024E+06  0.1643264E+01
  0.1071429E+01  0.3416618E+06 -0.1487904E+01  0.1796017E+06 -0.1613878E+00  0.5797634E+06  0.1653862E+01
  0.1102381E+01  0.3546259E+06 -0.1476554E+01  0.1702915E+06 -0.1757733E+00  0.6016970E+06  0.1665269E+01
  0.1133333E+01  0.3669370E+06 -0.1464574E+01  0.1611237E+06 -0.1909148E+00  0.6221671E+06  0.1677273E+01
  0.1164286E+01  0.3784560E+06 -0.1452011E+01  0.1522699E+06 -0.2065154E+00  0.6407962E+06  0.1689844E+01
  0.1195238E+01  0.3890016E+06 -0.1438883E+01  0.1439514E+06 -0.2224703E+00  0.6580009E+06  0.1703037E+01
  0.1226190E+01  0.3980757E+06 -0.1425392E+01  0.1358242E+06 -0.2391646E+00  0.6724961E+06  0.1716608E+01
  0.1257143E+01  0.4055426E+06 -0.1411707E+01  0.1279387E+06 -0.2567305E+00  0.6840467E+06  0.1730385E+01
  0.1288095E+01  0.4119498E+06 -0.1398147E+01  0.1202325E+06 -0.2751718E+00  0.6940936E+06  0.1744095E+01
  0.1319048E+01  0.4166335E+06 -0.1385055E+01  0.1127324E+06 -0.2945903E+00  0.7004576E+06  0.1757232E+01
  0.1350000E+01  0.4198478E+06 -0.1372520E+01  0.1056985E+06 -0.3136933E+00  0.7041002E+06  0.1769821E+01
  0.1380952E+01  0.4214955E+06 -0.1360730E+01  0.9907245E+05 -0.3328567E+00  0.7052572E+06  0.1781752E+01
  0.1411905E+01  0.4209499E+06 -0.1350003E+01  0.9268177E+05 -0.3527818E+00  0.7028134E+06  0.1792635E+01
  0.1442857E+01  0.4190091E+06 -0.1340731E+01  0.8651781E+05 -0.3733678E+00  0.6972896E+06  0.1802003E+01
  0.1473810E+01  0.4158192E+06 -0.1333040E+01  0.8058442E+05 -0.3949603E+00  0.6901112E+06  0.1809905E+01
  0.1504762E+01  0.4111357E+06 -0.1327183E+01  0.7485670E+05 -0.4177163E+00  0.6801406E+06  0.1815971E+01
  0.1535714E+01  0.4050791E+06 -0.1323360E+01  0.6931839E+05 -0.4419148E+00  0.6675788E+06  0.1819972E+01
  0.1566667E+01  0.3979625E+06 -0.1321703E+01  0.6426793E+05 -0.4629776E+00  0.6530754E+06  0.1821687E+01
  0.1597619E+01  0.3898636E+06 -0.1322370E+01  0.5943490E+05 -0.4847936E+00  0.6371489E+06  0.1821197E+01
  0.1628572E+01  0.3807987E+06 -0.1325584E+01  0.5478599E+05 -0.5076627E+00  0.6195082E+06  0.1818140E+01
  0.1659524E+01  0.3707945E+06 -0.1331475E+01  0.5034543E+05 -0.5318164E+00  0.6000339E+06  0.1812280E+01
  0.1690476E+01  0.3602656E+06 -0.1339858E+01  0.4614589E+05 -0.5575357E+00  0.5800364E+06  0.1804169E+01
  0.1721429E+01  0.3492772E+06 -0.1350972E+01  0.4212778E+05 -0.5849674E+00  0.5593999E+06  0.1793379E+01
  0.1752381E+01  0.3378219E+06 -0.1365177E+01  0.3828498E+05 -0.6151087E+00  0.5378074E+06  0.1779223E+01
  0.1783333E+01  0.3261006E+06 -0.1382262E+01  0.3466365E+05 -0.6472233E+00  0.5158397E+06  0.1762123E+01
  0.1814286E+01  0.3142667E+06 -0.1402267E+01  0.3132421E+05 -0.6780655E+00  0.4937016E+06  0.1741831E+01
  0.1845238E+01  0.3023184E+06 -0.1425215E+01  0.2821670E+05 -0.7132351E+00  0.4716501E+06  0.1718823E+01
  0.1876190E+01  0.2903123E+06 -0.1451484E+01  0.2532022E+05 -0.7532065E+00  0.4495800E+06  0.1692337E+01
  0.1907143E+01  0.2782860E+06 -0.1481375E+01  0.2265324E+05 -0.7986683E+00  0.4275034E+06  0.1661863E+01
  0.1938095E+01  0.2664277E+06 -0.1514708E+01  0.2024871E+05 -0.8481321E+00  0.4059225E+06  0.1627989E+01
  0.1969048E+01  0.2547844E+06 -0.1551682E+01  0.1807965E+05 -0.9034630E+00  0.3849199E+06  0.1590542E+01
  0.2000000E+01  0.2433886E+06 -0.1592833E+01  0.1613381E+05 -0.9641907E+00  0.3644650E+06  0.1548603E+01
