VARIABLES="w (rad/s)"
"A   1   1" "B   1   1"
"A   1   2" "B   1   2"
"A   1   3" "B   1   3"
Zone t="Motion of body    1 in DoF   1",I=    64,F=POINT
  0.5000000E-01  0.1434302E+06  0.2312155E-01  0.4730225E-02  0.2163835E-04 -0.2857815E+06 -0.3860673E-01
  0.8095238E-01  0.1442063E+06  0.1018772E+00 -0.2356137E-03  0.2783013E-04 -0.2875091E+06 -0.1700923E+00
  0.1119048E+00  0.1444813E+06  0.2855102E+00 -0.1090841E-02 -0.9573996E-06 -0.2880692E+06 -0.4762869E+00
  0.1428571E+00  0.1446536E+06  0.6426297E+00 -0.1148224E-01 -0.1689112E-03 -0.2884121E+06 -0.1072554E+01
  0.1738095E+00  0.1450349E+06  0.1278561E+01  0.6584272E-03 -0.2050092E-03 -0.2888682E+06 -0.2133903E+01
  0.2047619E+00  0.1453958E+06  0.2358413E+01 -0.1132699E-01 -0.1922846E-03 -0.2894781E+06 -0.3938689E+01
  0.2357143E+00  0.1456318E+06  0.4149823E+01 -0.5826083E-03 -0.3133714E-04 -0.2900169E+06 -0.6935822E+01
  0.2666667E+00  0.1462485E+06  0.7078236E+01  0.8926392E-02  0.1586452E-03 -0.2908823E+06 -0.1183272E+02
  0.2976190E+00  0.1467868E+06  0.1186635E+02  0.1215088E-01  0.5360395E-03 -0.2917121E+06 -0.1985126E+02
  0.3285715E+00  0.1471258E+06  0.1960750E+02 -0.1239942E-01 -0.7873178E-03 -0.2924851E+06 -0.3283633E+02
  0.3595238E+00  0.1481325E+06  0.3220291E+02  0.9973790E-02  0.2122819E-03 -0.2938553E+06 -0.5394554E+02
  0.3904762E+00  0.1487509E+06  0.5244297E+02 -0.1719405E-02  0.1206398E-03 -0.2949141E+06 -0.8793303E+02
  0.4214286E+00  0.1494949E+06  0.8428771E+02  0.3186242E-02  0.2703071E-03 -0.2961385E+06 -0.1414574E+03
  0.4523810E+00  0.1504623E+06  0.1343478E+03 -0.2698396E-02 -0.5135536E-03 -0.2976781E+06 -0.2256485E+03
  0.4833333E+00  0.1516730E+06  0.2089326E+03 -0.1831055E-01 -0.2224922E-02 -0.2995567E+06 -0.3511941E+03
  0.5142857E+00  0.1529010E+06  0.3195918E+03  0.1139323E-01  0.1992464E-02 -0.3016870E+06 -0.5378062E+03
  0.5452381E+00  0.1538627E+06  0.4767490E+03 -0.1679133E-03 -0.1879215E-02 -0.3035904E+06 -0.8034701E+03
  0.5761905E+00  0.1554736E+06  0.6952983E+03 -0.8262444E-02 -0.7276535E-03 -0.3059298E+06 -0.1172249E+04
  0.6071429E+00  0.1571538E+06  0.9955145E+03 -0.7589900E-02 -0.3808022E-02 -0.3085272E+06 -0.1679513E+04
  0.6380953E+00  0.1587691E+06  0.1393451E+04 -0.1386956E-02  0.3833771E-03 -0.3113765E+06 -0.2353816E+04
  0.6690477E+00  0.1605375E+06  0.1917104E+04 -0.2828035E-02  0.6885529E-03 -0.3143355E+06 -0.3241712E+04
  0.7000000E+00  0.1621762E+06  0.2595647E+04  0.1089913E-02  0.2508163E-02 -0.3171304E+06 -0.4393520E+04
  0.7309524E+00  0.1644249E+06  0.3463016E+04 -0.5845060E-02 -0.3929138E-03 -0.3208835E+06 -0.5865595E+04
  0.7619048E+00  0.1668339E+06  0.4560226E+04  0.3204345E-03 -0.6752014E-03 -0.3245137E+06 -0.7725921E+04
  0.7928572E+00  0.1692464E+06  0.5931202E+04 -0.4310951E-02 -0.9689331E-03 -0.3285975E+06 -0.1005781E+05
  0.8238096E+00  0.1714033E+06  0.7619833E+04 -0.1333600E-02 -0.3585815E-03 -0.3322106E+06 -0.1293234E+05
  0.8547620E+00  0.1736047E+06  0.9679564E+04 -0.7283415E-02  0.5264282E-03 -0.3360391E+06 -0.1644488E+05
  0.8857143E+00  0.1760669E+06  0.1216910E+05  0.6477602E-02  0.6706238E-02 -0.3400242E+06 -0.2068111E+05
  0.9166667E+00  0.1787564E+06  0.1514354E+05 -0.1464844E-02 -0.6103516E-04 -0.3443532E+06 -0.2573301E+05
  0.9476191E+00  0.1812023E+06  0.1866212E+05 -0.1803451E-02  0.5493164E-03 -0.3481472E+06 -0.3171087E+05
  0.9785714E+00  0.1835529E+06  0.2279275E+05  0.1684036E-02 -0.1327515E-02 -0.3520297E+06 -0.3874480E+05
  0.1009524E+01  0.1856768E+06  0.2758594E+05  0.4232155E-02  0.6851196E-02 -0.3552173E+06 -0.4688988E+05
  0.1040476E+01  0.1876344E+06  0.3310128E+05 -0.2522414E-02  0.8544922E-03 -0.3585416E+06 -0.5628911E+05
  0.1071429E+01  0.1889841E+06  0.3933041E+05 -0.3987630E-02  0.1068115E-02 -0.3605984E+06 -0.6687827E+05
  0.1102381E+01  0.1899492E+06  0.4630512E+05  0.2823700E-02  0.9765625E-03 -0.3622635E+06 -0.7875641E+05
  0.1133333E+01  0.1905980E+06  0.5399234E+05 -0.3769818E-02 -0.8361816E-02 -0.3630411E+06 -0.9176395E+05
  0.1164286E+01  0.1908596E+06  0.6239200E+05  0.2201759E-02  0.1464844E-02 -0.3627320E+06 -0.1058734E+06
  0.1195238E+01  0.1906152E+06  0.7150711E+05 -0.6689550E-02 -0.2075195E-02 -0.3620203E+06 -0.1212553E+06
  0.1226190E+01  0.1894315E+06  0.8116594E+05 -0.1742169E-02  0.2349854E-02 -0.3596050E+06 -0.1375023E+06
  0.1257143E+01  0.1872772E+06  0.9124792E+05 -0.5292025E-02 -0.7385254E-02 -0.3554764E+06 -0.1543930E+06
  0.1288095E+01  0.1848298E+06  0.1017143E+06  0.3790723E-03 -0.5310059E-02 -0.3512737E+06 -0.1720120E+06
  0.1319048E+01  0.1814793E+06  0.1122056E+06 -0.1526981E-02 -0.2075195E-02 -0.3448564E+06 -0.1893271E+06
  0.1350000E+01  0.1775935E+06  0.1227245E+06  0.3029152E-02  0.2746582E-02 -0.3375340E+06 -0.2065710E+06
  0.1380952E+01  0.1731251E+06  0.1331257E+06 -0.1414332E-02 -0.2319336E-02 -0.3295967E+06 -0.2236802E+06
  0.1411905E+01  0.1675740E+06  0.1429858E+06  0.2809881E-02 -0.8422852E-02 -0.3200082E+06 -0.2398422E+06
  0.1442857E+01  0.1617076E+06  0.1523082E+06  0.1184445E-02 -0.1019287E-01 -0.3094102E+06 -0.2547094E+06
  0.1473810E+01  0.1557156E+06  0.1610567E+06 -0.9939165E-03 -0.0000000E+00 -0.2991389E+06 -0.2687881E+06
  0.1504762E+01  0.1493952E+06  0.1689860E+06 -0.6489814E-03 -0.3601074E-02 -0.2881292E+06 -0.2812729E+06
  0.1535714E+01  0.1428639E+06  0.1760105E+06 -0.5961573E-03 -0.6713867E-03 -0.2765391E+06 -0.2919589E+06
  0.1566667E+01  0.1364078E+06  0.1822130E+06  0.4558157E-02 -0.1159668E-02 -0.2652488E+06 -0.3010824E+06
  0.1597619E+01  0.1300473E+06  0.1875338E+06  0.1318032E-02 -0.7934570E-03 -0.2544255E+06 -0.3088568E+06
  0.1628572E+01  0.1237489E+06  0.1918500E+06 -0.1517848E-02 -0.7324219E-03 -0.2436433E+06 -0.3147580E+06
  0.1659524E+01  0.1174644E+06  0.1951196E+06  0.1912493E-02 -0.1403809E-02 -0.2327237E+06 -0.3185654E+06
  0.1690476E+01  0.1114963E+06  0.1977050E+06  0.2996740E-02 -0.5493164E-02 -0.2227109E+06 -0.3215851E+06
  0.1721429E+01  0.1058977E+06  0.1995692E+06 -0.1418244E-03 -0.3173828E-02 -0.2134665E+06 -0.3234573E+06
  0.1752381E+01  0.1005363E+06  0.2004495E+06 -0.1637003E-02 -0.3356934E-02 -0.2043057E+06 -0.3230801E+06
  0.1783333E+01  0.9557748E+05  0.2007511E+06 -0.3148730E-02  0.4028320E-02 -0.1958812E+06 -0.3216947E+06
  0.1814286E+01  0.9108280E+05  0.2006613E+06  0.1480223E-02 -0.1770020E-02 -0.1884461E+06 -0.3196578E+06
  0.1845238E+01  0.8689534E+05  0.2002213E+06 -0.1868857E-02  0.5859375E-02 -0.1817532E+06 -0.3174378E+06
  0.1876190E+01  0.8301504E+05  0.1992869E+06  0.5042371E-03  0.4943848E-02 -0.1755215E+06 -0.3141792E+06
  0.1907143E+01  0.7936148E+05  0.1977526E+06  0.7200777E-03 -0.6103516E-03 -0.1695455E+06 -0.3094959E+06
  0.1938095E+01  0.7603298E+05  0.1960211E+06 -0.1385663E-02 -0.3906250E-02 -0.1642800E+06 -0.3048843E+06
  0.1969048E+01  0.7304330E+05  0.1942879E+06  0.1084905E-02  0.1129150E-02 -0.1597456E+06 -0.3007092E+06
  0.2000000E+01  0.7030030E+05  0.1922475E+06  0.1266479E-02 -0.2471924E-02 -0.1555318E+06 -0.2956541E+06
Zone t="Motion of body    1 in DoF   2",I=    64,F=POINT
  0.5000000E-01  0.4577637E-03  0.3051758E-04  0.1324059E+06  0.2789975E+03  0.1647949E-01 -0.7247925E-04
  0.8095238E-01  0.9613037E-02 -0.4482269E-04  0.1310880E+06  0.4614946E+03 -0.7539637E-02  0.1335144E-03
  0.1119048E+00 -0.1159019E-02  0.5531311E-04  0.1302188E+06  0.6584968E+03  0.2836187E-01  0.4577637E-04
  0.1428571E+00  0.3204346E-03 -0.4577637E-04  0.1297604E+06  0.8769155E+03  0.2563476E-01 -0.7629395E-05
  0.1738095E+00  0.6145320E-02 -0.4386902E-04  0.1296189E+06  0.1124319E+04  0.5618579E-02  0.1525879E-04
  0.2047619E+00 -0.5216377E-03 -0.1792908E-03  0.1293470E+06  0.1412091E+04  0.2980787E-01  0.4730225E-03
  0.2357143E+00 -0.2200965E-02 -0.1869202E-03  0.1293484E+06  0.1753822E+04  0.1346472E-01  0.9918213E-04
  0.2666667E+00  0.1716614E-02 -0.4501343E-03  0.1294622E+06  0.2159438E+04  0.5035400E-02  0.6103516E-04
  0.2976190E+00  0.8203125E-03  0.4959106E-04  0.1295076E+06  0.2657760E+04  0.2748047E-01 -0.1068115E-03
  0.3285715E+00  0.3715183E-02  0.6103516E-04  0.1296803E+06  0.3256434E+04 -0.6687329E-02  0.3967285E-03
  0.3595238E+00  0.5856949E-02 -0.5340576E-03  0.1296988E+06  0.3987258E+04  0.1358133E-02 -0.1281738E-02
  0.3904762E+00 -0.2891726E-02 -0.6103516E-04  0.1296554E+06  0.4865239E+04 -0.8753334E-02 -0.9155273E-04
  0.4214286E+00  0.2534510E-02 -0.7324219E-03  0.1294769E+06  0.5869346E+04  0.3475900E-02  0.1220703E-02
  0.4523810E+00 -0.2698396E-03  0.7629395E-04  0.1288643E+06  0.7057855E+04  0.9714226E-02 -0.5798340E-03
  0.4833333E+00  0.2778152E-02 -0.3814697E-03  0.1284901E+06  0.8285097E+04 -0.1060749E-01  0.1770020E-02
  0.5142857E+00  0.1780192E-03  0.9307861E-03  0.1271182E+06  0.9639475E+04  0.3323025E-02 -0.2319336E-02
  0.5452381E+00  0.1399278E-02  0.1251221E-02  0.1260341E+06  0.1100528E+05  0.1432860E-01 -0.3906250E-02
  0.5761905E+00  0.5773118E-02  0.9155273E-03  0.1246719E+06  0.1234562E+05  0.6779442E-02 -0.1953125E-02
  0.6071429E+00  0.1166130E-01  0.1373291E-02  0.1229003E+06  0.1372256E+05 -0.2211627E-01 -0.7324219E-03
  0.6380953E+00 -0.1099999E-02  0.7324219E-03  0.1216072E+06  0.1497826E+05  0.4973909E-02 -0.1464844E-02
  0.6690477E+00 -0.6750792E-02 -0.4882812E-03  0.1198302E+06  0.1618742E+05  0.1532612E-01  0.3051758E-02
  0.7000000E+00  0.1177107E-02  0.5493164E-03  0.1178825E+06  0.1735549E+05 -0.9765624E-02 -0.2807617E-02
  0.7309524E+00 -0.5845060E-03 -0.1953125E-02  0.1163774E+06  0.1839599E+05 -0.6680069E-02  0.6835938E-02
  0.7619048E+00  0.3965377E-02  0.4882812E-03  0.1147394E+06  0.1932734E+05 -0.1281738E-02  0.2563477E-02
  0.7928572E+00 -0.5003783E-03  0.1892090E-02  0.1127618E+06  0.2017510E+05  0.9853602E-02 -0.6225586E-02
  0.8238096E+00  0.2444934E-02  0.4272461E-03  0.1110442E+06  0.2089796E+05 -0.7112536E-02  0.8544922E-03
  0.8547620E+00 -0.7140603E-02  0.3662109E-03  0.1097318E+06  0.2147589E+05  0.2741992E-01 -0.6591797E-02
  0.8857143E+00  0.4272461E-02  0.1342773E-02  0.1079903E+06  0.2192125E+05 -0.1598727E-01  0.1281738E-01
  0.9166667E+00  0.3295898E-02  0.1098633E-02  0.1063598E+06  0.2224874E+05 -0.1065341E-02 -0.1257324E-01
  0.9476191E+00 -0.5796806E-03 -0.9155273E-03  0.1049030E+06  0.2243831E+05  0.5152717E-03 -0.1318359E-01
  0.9785714E+00  0.3149770E-02 -0.1953125E-02  0.1038239E+06  0.2250140E+05  0.0000000E+00  0.2343750E-01
  0.1009524E+01 -0.9673497E-03 -0.3540039E-02  0.1027311E+06  0.2240180E+05 -0.4353074E-02  0.1049805E-01
  0.1040476E+01  0.4443555E-02  0.3295898E-02  0.1013203E+06  0.2219454E+05 -0.4692863E-03 -0.1037598E-01
  0.1071429E+01  0.5967204E-02 -0.6042480E-02  0.1001549E+06  0.2186062E+05 -0.1367188E-02  0.9155273E-02
  0.1102381E+01  0.7197666E-03  0.2502441E-02  0.9929903E+05  0.2146246E+05 -0.3986400E-02 -0.1696777E-01
  0.1133333E+01 -0.1568514E-02  0.2441406E-03  0.9876488E+05  0.2098661E+05  0.1723346E-01 -0.6347656E-02
  0.1164286E+01 -0.2267287E-02 -0.8178711E-02  0.9820361E+05  0.2036259E+05  0.4613209E-02  0.1953125E-02
  0.1195238E+01 -0.1423444E-02 -0.1037598E-02  0.9731048E+05  0.1961245E+05  0.1307271E-01  0.1953125E-02
  0.1226190E+01 -0.3930768E-02  0.6713867E-03  0.9667705E+05  0.1881758E+05 -0.9158829E-02 -0.1989746E-01
  0.1257143E+01  0.2518567E-02 -0.1220703E-03  0.9623093E+05  0.1800126E+05 -0.3884055E-03 -0.7324219E-03
  0.1288095E+01 -0.3968413E-03  0.3845215E-02  0.9607862E+05  0.1724424E+05  0.1402568E-01  0.3662109E-02
  0.1319048E+01  0.3146505E-02  0.3479004E-02  0.9615620E+05  0.1650057E+05  0.1665797E-01 -0.1257324E-01
  0.1350000E+01 -0.4464609E-02 -0.3051758E-02  0.9596738E+05  0.1552739E+05 -0.2170139E-02  0.1281738E-01
  0.1380952E+01  0.2386685E-02 -0.5798340E-02  0.9565991E+05  0.1447555E+05  0.7425243E-02 -0.9765625E-03
  0.1411905E+01  0.7348921E-03  0.7202148E-02  0.9552711E+05  0.1348211E+05  0.1556242E-01 -0.1159668E-01
  0.1442857E+01  0.2326588E-02  0.4760742E-02  0.9551823E+05  0.1250048E+05  0.6429842E-02 -0.2075195E-02
  0.1473810E+01 -0.4762517E-03  0.1403809E-02  0.9568716E+05  0.1173926E+05  0.5632194E-02  0.4638672E-02
  0.1504762E+01 -0.2109190E-02  0.2258301E-02  0.9598438E+05  0.1106825E+05  0.1135717E-01  0.7324219E-02
  0.1535714E+01  0.9737236E-03 -0.1159668E-02  0.9641179E+05  0.1049904E+05  0.5405160E-02  0.5859375E-02
  0.1566667E+01 -0.2240120E-02 -0.4272461E-02  0.9644010E+05  0.9369336E+04  0.1558344E-02  0.1354980E-01
  0.1597619E+01  0.1795580E-02  0.3906250E-02  0.9655815E+05  0.8420860E+04  0.3361936E-02  0.1647949E-02
  0.1628572E+01  0.1068115E-02  0.4760742E-02  0.9676347E+05  0.7584699E+04  0.4497327E-02 -0.1196289E-01
  0.1659524E+01 -0.1507927E-02 -0.6469727E-02  0.9702176E+05  0.6797206E+04  0.5590365E-02  0.8056641E-02
  0.1690476E+01 -0.2527371E-03  0.5920410E-02  0.9731679E+05  0.6241892E+04  0.2888424E-03 -0.6896973E-02
  0.1721429E+01 -0.1170052E-02 -0.3112793E-02  0.9765170E+05  0.5822243E+04  0.5956626E-02 -0.8483887E-02
  0.1752381E+01  0.1114555E-02  0.3662109E-03  0.9802191E+05  0.5479221E+04 -0.1114555E-01  0.2319336E-02
  0.1783333E+01  0.1471689E-02  0.1098633E-02  0.9837484E+05  0.5039554E+04 -0.7666472E-02  0.9063721E-02
  0.1814286E+01  0.3364143E-04  0.3662109E-03  0.9861905E+05  0.4237762E+04  0.1076526E-02 -0.1373291E-02
  0.1845238E+01 -0.1984627E-03  0.1708984E-02  0.9888532E+05  0.3702252E+04  0.1587702E-02 -0.4730225E-02
  0.1876190E+01 -0.6506286E-04  0.1464844E-02  0.9917068E+05  0.3273695E+04 -0.2082011E-02  0.2792358E-02
  0.1907143E+01 -0.3776408E-02 -0.4272461E-02  0.9947143E+05  0.2880876E+04  0.1792193E-01  0.4302979E-02
  0.1938095E+01 -0.1763571E-02 -0.3753662E-02  0.9973489E+05  0.2593045E+04  0.1562020E-01  0.5798340E-02
  0.1969048E+01  0.2851752E-02 -0.8544922E-03  0.9998974E+05  0.2411301E+04  0.4959568E-03  0.2807617E-02
  0.2000000E+01 -0.8239746E-03 -0.1373291E-02  0.1002431E+06  0.2240854E+04  0.1464844E-01  0.1525879E-04
Zone t="Motion of body    1 in DoF   3",I=    64,F=POINT
  0.5000000E-01 -0.2851159E+06 -0.3820681E-01 -0.4180908E-01 -0.1718496E-03  0.9023779E+06  0.6376996E-01
  0.8095238E-01 -0.2868686E+06 -0.1686226E+00  0.1291163E-01  0.1554147E-03  0.9072114E+06  0.2812352E+00
  0.1119048E+00 -0.2874604E+06 -0.4726922E+00  0.4377000E-01  0.1754100E-03  0.9078922E+06  0.7883998E+00
  0.1428571E+00 -0.2877792E+06 -0.1064248E+01  0.5009460E-01  0.4190989E-03  0.9088357E+06  0.1776731E+01
  0.1738095E+00 -0.2881574E+06 -0.2118370E+01 -0.3081439E-01 -0.6083082E-03  0.9094839E+06  0.3536607E+01
  0.2047619E+00 -0.2888754E+06 -0.3909268E+01  0.5469744E-01  0.6897897E-03  0.9105318E+06  0.6529732E+01
  0.2357143E+00 -0.2893760E+06 -0.6881556E+01  0.1411207E-01  0.4118830E-03  0.9113949E+06  0.1150420E+02
  0.2666667E+00 -0.2902622E+06 -0.1174399E+02 -0.4268646E-01 -0.7716864E-03  0.9129448E+06  0.1963767E+02
  0.2976190E+00 -0.2910904E+06 -0.1970159E+02  0.5455078E-01  0.1729205E-02  0.9139939E+06  0.3295998E+02
  0.3285715E+00 -0.2918507E+06 -0.3257863E+02 -0.5758534E-02 -0.2134740E-03  0.9159887E+06  0.5455881E+02
  0.3595238E+00 -0.2932413E+06 -0.5354716E+02 -0.2283361E-01 -0.1272798E-02  0.9173464E+06  0.8969826E+02
  0.3904762E+00 -0.2943048E+06 -0.8727532E+02  0.8518869E-02  0.1745641E-02  0.9193182E+06  0.1463260E+03
  0.4214286E+00 -0.2954154E+06 -0.1404038E+03  0.5648337E-02  0.3150702E-03  0.9211744E+06  0.2356352E+03
  0.4523810E+00 -0.2970550E+06 -0.2239934E+03  0.3116648E-01  0.1064777E-02  0.9232662E+06  0.3761942E+03
  0.4833333E+00 -0.2987810E+06 -0.3487004E+03  0.4192484E-01  0.3990889E-02  0.9271598E+06  0.5861341E+03
  0.5142857E+00 -0.3010444E+06 -0.5338685E+03 -0.1661513E-01 -0.5418777E-02  0.9300318E+06  0.8984081E+03
  0.5452381E+00 -0.3028887E+06 -0.7971839E+03  0.4858292E-01  0.6217480E-02  0.9343868E+06  0.1343532E+04
  0.5761905E+00 -0.3052028E+06 -0.1163693E+04  0.2298654E-01  0.1335144E-02  0.9370312E+06  0.1961871E+04
  0.6071429E+00 -0.3078640E+06 -0.1667875E+04  0.2302102E-01  0.8466721E-02  0.9406317E+06  0.2813857E+04
  0.6380953E+00 -0.3106064E+06 -0.2336866E+04 -0.1626086E-01 -0.6160736E-02  0.9467776E+06  0.3947619E+04
  0.6690477E+00 -0.3135359E+06 -0.3218084E+04 -0.3147329E-01 -0.1016426E-01  0.9510764E+06  0.5441809E+04
  0.7000000E+00 -0.3163282E+06 -0.4360602E+04  0.1124791E-01  0.2861023E-02  0.9554206E+06  0.7381237E+04
  0.7309524E+00 -0.3201090E+06 -0.5821469E+04  0.1436215E-01  0.2006531E-02  0.9625966E+06  0.9859748E+04
  0.7619048E+00 -0.3236370E+06 -0.7672840E+04  0.4486084E-02 -0.2639771E-02  0.9676861E+06  0.1299875E+05
  0.7928572E+00 -0.3278365E+06 -0.9987001E+04  0.3479553E-01  0.7240295E-02  0.9742453E+06  0.1693546E+05
  0.8238096E+00 -0.3313704E+06 -0.1284037E+05 -0.1637365E-01 -0.1620483E-01  0.9803432E+06  0.2179427E+05
  0.8547620E+00 -0.3350234E+06 -0.1632302E+05  0.2227868E-01 -0.1159668E-02  0.9878147E+06  0.2773536E+05
  0.8857143E+00 -0.3389912E+06 -0.2052797E+05 -0.1640074E-01 -0.1657104E-01  0.9933481E+06  0.3488616E+05
  0.9166667E+00 -0.3434748E+06 -0.2554343E+05 -0.3995028E-03 -0.4272461E-02  0.1000204E+07  0.4339744E+05
  0.9476191E+00 -0.3472620E+06 -0.3148657E+05 -0.1346147E-01 -0.3509521E-02  0.1006020E+07  0.5349714E+05
  0.9785714E+00 -0.3510822E+06 -0.3847038E+05 -0.8420179E-02  0.1049805E-01  0.1013362E+07  0.6539839E+05
  0.1009524E+01 -0.3541032E+06 -0.4658003E+05 -0.4534452E-02 -0.5157471E-02  0.1018050E+07  0.7918447E+05
  0.1040476E+01 -0.3575158E+06 -0.5589464E+05  0.9855012E-02  0.1342773E-01  0.1023069E+07  0.9505680E+05
  0.1071429E+01 -0.3595118E+06 -0.6640457E+05  0.2802734E-01 -0.2227783E-02  0.1025769E+07  0.1129241E+06
  0.1102381E+01 -0.3611512E+06 -0.7815830E+05  0.7972799E-02 -0.1324463E-01  0.1029082E+07  0.1329552E+06
  0.1133333E+01 -0.3618818E+06 -0.9106825E+05 -0.1055549E-01 -0.4333496E-02  0.1030633E+07  0.1548085E+06
  0.1164286E+01 -0.3615247E+06 -0.1051393E+06  0.7234351E-02 -0.3356934E-02  0.1028829E+07  0.1784134E+06
  0.1195238E+01 -0.3609791E+06 -0.1203883E+06  0.2686033E-01  0.6103516E-02  0.1026456E+07  0.2041101E+06
  0.1226190E+01 -0.3586114E+06 -0.1365088E+06 -0.7964199E-03  0.5737305E-02  0.1021525E+07  0.2312262E+06
  0.1257143E+01 -0.3544423E+06 -0.1532611E+06  0.1971158E-01  0.2087402E-01  0.1013580E+07  0.2592874E+06
  0.1288095E+01 -0.3503091E+06 -0.1706850E+06  0.1734256E-01  0.2929688E-02  0.1007693E+07  0.2887525E+06
  0.1319048E+01 -0.3437970E+06 -0.1879291E+06  0.3451901E-01  0.1843262E-01  0.9960548E+06  0.3172318E+06
  0.1350000E+01 -0.3365083E+06 -0.2051313E+06 -0.1944083E-01 -0.2331543E-01  0.9821083E+06  0.3452850E+06
  0.1380952E+01 -0.3287842E+06 -0.2220807E+06  0.1529246E-01  0.1684570E-01  0.9677105E+06  0.3730372E+06
  0.1411905E+01 -0.3192448E+06 -0.2379924E+06  0.6743716E-02 -0.9155273E-02  0.9509574E+06  0.3991025E+06
  0.1442857E+01 -0.3086363E+06 -0.2527748E+06  0.1895111E-01  0.1367188E-01  0.9315309E+06  0.4224708E+06
  0.1473810E+01 -0.2985487E+06 -0.2667072E+06  0.7785680E-02 -0.1110840E-01  0.9152879E+06  0.4451670E+06
  0.1504762E+01 -0.2875867E+06 -0.2790735E+06  0.3082662E-02 -0.5126953E-02  0.8971899E+06  0.4648906E+06
  0.1535714E+01 -0.2758417E+06 -0.2896817E+06  0.1144622E-01  0.1757812E-01  0.8771948E+06  0.4811282E+06
  0.1566667E+01 -0.2646875E+06 -0.2987684E+06 -0.1636261E-01 -0.1696777E-01  0.8565591E+06  0.4935462E+06
  0.1597619E+01 -0.2541316E+06 -0.3064827E+06 -0.7640765E-03 -0.1306152E-01  0.8382673E+06  0.5044551E+06
  0.1628572E+01 -0.2435224E+06 -0.3123391E+06 -0.7945278E-02  0.8544922E-02  0.8199846E+06  0.5121016E+06
  0.1659524E+01 -0.2325628E+06 -0.3160944E+06 -0.5737480E-02  0.4272461E-02  0.8006799E+06  0.5153432E+06
  0.1690476E+01 -0.2227132E+06 -0.3191048E+06  0.7943166E-02  0.9887695E-02  0.7848902E+06  0.5188642E+06
  0.1721429E+01 -0.2136549E+06 -0.3210308E+06  0.9502237E-02  0.1586914E-02  0.7711922E+06  0.5212501E+06
  0.1752381E+01 -0.2043900E+06 -0.3206343E+06 -0.9334399E-02  0.2929688E-02  0.7560118E+06  0.5180779E+06
  0.1783333E+01 -0.1958416E+06 -0.3192279E+06  0.2464223E-02 -0.2197266E-02  0.7418680E+06  0.5128195E+06
  0.1814286E+01 -0.1885340E+06 -0.3172202E+06 -0.1897376E-01 -0.6713867E-02  0.7286861E+06  0.5046636E+06
  0.1845238E+01 -0.1820710E+06 -0.3151196E+06  0.2249244E-02 -0.1098633E-01  0.7183672E+06  0.4990004E+06
  0.1876190E+01 -0.1759828E+06 -0.3119498E+06 -0.1405358E-01  0.3845215E-02  0.7085364E+06  0.4912005E+06
  0.1907143E+01 -0.1699348E+06 -0.3071562E+06  0.1869002E-01  0.1312256E-01  0.6984418E+06  0.4791978E+06
  0.1938095E+01 -0.1647518E+06 -0.3025998E+06  0.1158918E-01  0.6774902E-02  0.6904665E+06  0.4692169E+06
  0.1969048E+01 -0.1603654E+06 -0.2987165E+06  0.6075471E-02 -0.3173828E-02  0.6846729E+06  0.4629830E+06
  0.2000000E+01 -0.1561745E+06 -0.2938032E+06  0.1550293E-01 -0.5004883E-02  0.6788911E+06  0.4539657E+06
