VARIABLES="w (rad/s)"
"abs(F   1   1)" "angle(F   1   1)"
"abs(F   1   2)" "angle(F   1   2)"
"abs(F   1   3)" "angle(F   1   3)"
Zone t="Diffraction force - beta =   0.000 deg",I=    64,F=POINT
  0.5000000E-01  0.6645005E+02 -0.1570796E+01  0.1781343E+02 -0.3119168E+01  0.4986278E+00 -0.1570797E+01
  0.8095238E-01  0.1085827E+03 -0.1570796E+01  0.4648462E+02 -0.3118471E+01  0.8112504E+00 -0.1570796E+01
  0.1119048E+00  0.1513315E+03 -0.1570796E+01  0.8870367E+02 -0.3117526E+01  0.1138026E+01 -0.1570796E+01
  0.1428571E+00  0.1964843E+03 -0.1570795E+01  0.1446286E+03 -0.3116274E+01  0.1483395E+01 -0.1570796E+01
  0.1738095E+00  0.2426479E+03 -0.1570794E+01  0.2143525E+03 -0.3114624E+01  0.1823044E+01 -0.1570795E+01
  0.2047619E+00  0.2927958E+03 -0.1570793E+01  0.2981069E+03 -0.3112514E+01  0.2194743E+01 -0.1570794E+01
  0.2357143E+00  0.3449858E+03 -0.1570792E+01  0.3961615E+03 -0.3109807E+01  0.2616509E+01 -0.1570793E+01
  0.2666667E+00  0.4012657E+03 -0.1570789E+01  0.5089176E+03 -0.3106457E+01  0.3015460E+01 -0.1570789E+01
  0.2976190E+00  0.4642721E+03 -0.1570786E+01  0.6366786E+03 -0.3102211E+01  0.3514782E+01 -0.1570786E+01
  0.3285715E+00  0.5312862E+03 -0.1570781E+01  0.7797618E+03 -0.3097029E+01  0.4049328E+01 -0.1570778E+01
  0.3595238E+00  0.6051074E+03 -0.1570773E+01  0.9385501E+03 -0.3090683E+01  0.4604674E+01 -0.1570769E+01
  0.3904762E+00  0.6891844E+03 -0.1570761E+01  0.1112984E+04 -0.3083021E+01  0.5249135E+01 -0.1570752E+01
  0.4214286E+00  0.7821343E+03 -0.1570743E+01  0.1302605E+04 -0.3074304E+01  0.6049532E+01 -0.1570731E+01
  0.4523810E+00  0.8825143E+03 -0.1570717E+01  0.1508029E+04 -0.3064110E+01  0.6852197E+01 -0.1570698E+01
  0.4833333E+00  0.9930489E+03 -0.1570680E+01  0.1727326E+04 -0.3053494E+01  0.7695774E+01 -0.1570651E+01
  0.5142857E+00  0.1117044E+04 -0.1570629E+01  0.1960953E+04 -0.3041877E+01  0.8746492E+01 -0.1570586E+01
  0.5452381E+00  0.1248970E+04 -0.1570560E+01  0.2207784E+04 -0.3029957E+01  0.9889379E+01 -0.1570500E+01
  0.5761905E+00  0.1385698E+04 -0.1570468E+01  0.2468230E+04 -0.3017961E+01  0.1109190E+02 -0.1570385E+01
  0.6071429E+00  0.1533251E+04 -0.1570348E+01  0.2741610E+04 -0.3005464E+01  0.1230198E+02 -0.1570231E+01
  0.6380953E+00  0.1691649E+04 -0.1570196E+01  0.3027646E+04 -0.2993214E+01  0.1378608E+02 -0.1570046E+01
  0.6690477E+00  0.1858885E+04 -0.1570005E+01  0.3326119E+04 -0.2980782E+01  0.1550387E+02 -0.1569818E+01
  0.7000000E+00  0.2028132E+04 -0.1569765E+01  0.3635844E+04 -0.2968029E+01  0.1685880E+02 -0.1569512E+01
  0.7309524E+00  0.2199458E+04 -0.1569468E+01  0.3957691E+04 -0.2955335E+01  0.1823892E+02 -0.1569130E+01
  0.7619048E+00  0.2383689E+04 -0.1569107E+01  0.4291263E+04 -0.2942544E+01  0.2011643E+02 -0.1568694E+01
  0.7928572E+00  0.2579204E+04 -0.1568673E+01  0.4634677E+04 -0.2929587E+01  0.2203595E+02 -0.1568165E+01
  0.8238096E+00  0.2781899E+04 -0.1568153E+01  0.4987058E+04 -0.2916493E+01  0.2405564E+02 -0.1567532E+01
  0.8547620E+00  0.2987644E+04 -0.1567533E+01  0.5347895E+04 -0.2903309E+01  0.2624590E+02 -0.1566788E+01
  0.8857143E+00  0.3195367E+04 -0.1566795E+01  0.5718513E+04 -0.2890150E+01  0.2823669E+02 -0.1565875E+01
  0.9166667E+00  0.3406280E+04 -0.1565926E+01  0.6097391E+04 -0.2876989E+01  0.3014537E+02 -0.1564781E+01
  0.9476191E+00  0.3628378E+04 -0.1564919E+01  0.6482711E+04 -0.2863785E+01  0.3233732E+02 -0.1563531E+01
  0.9785714E+00  0.3859455E+04 -0.1563755E+01  0.6872870E+04 -0.2850510E+01  0.3496241E+02 -0.1562146E+01
  0.1009524E+01  0.4100731E+04 -0.1562421E+01  0.7269016E+04 -0.2837288E+01  0.3787984E+02 -0.1560591E+01
  0.1040476E+01  0.4348804E+04 -0.1560895E+01  0.7669981E+04 -0.2824123E+01  0.4082837E+02 -0.1558800E+01
  0.1071429E+01  0.4599708E+04 -0.1559151E+01  0.8074456E+04 -0.2810996E+01  0.4371799E+02 -0.1556724E+01
  0.1102381E+01  0.4849836E+04 -0.1557160E+01  0.8481804E+04 -0.2797926E+01  0.4629449E+02 -0.1554263E+01
  0.1133333E+01  0.5097673E+04 -0.1554896E+01  0.8891442E+04 -0.2784933E+01  0.4896528E+02 -0.1551477E+01
  0.1164286E+01  0.5354971E+04 -0.1552363E+01  0.9304431E+04 -0.2772117E+01  0.5214408E+02 -0.1548473E+01
  0.1195238E+01  0.5623440E+04 -0.1549548E+01  0.9718812E+04 -0.2759432E+01  0.5555447E+02 -0.1545166E+01
  0.1226190E+01  0.5900263E+04 -0.1546425E+01  0.1013279E+05 -0.2746832E+01  0.5912201E+02 -0.1541509E+01
  0.1257143E+01  0.6177835E+04 -0.1542954E+01  0.1054517E+05 -0.2733929E+01  0.6263601E+02 -0.1537391E+01
  0.1288095E+01  0.6470123E+04 -0.1539147E+01  0.1095575E+05 -0.2721864E+01  0.6675567E+02 -0.1533037E+01
  0.1319048E+01  0.6759605E+04 -0.1534937E+01  0.1136433E+05 -0.2709573E+01  0.7102288E+02 -0.1528267E+01
  0.1350000E+01  0.7052201E+04 -0.1530316E+01  0.1177129E+05 -0.2697504E+01  0.7553031E+02 -0.1523090E+01
  0.1380952E+01  0.7341267E+04 -0.1525234E+01  0.1217655E+05 -0.2685712E+01  0.7937060E+02 -0.1517061E+01
  0.1411905E+01  0.7585691E+04 -0.1519681E+01  0.1257116E+05 -0.2673946E+01  0.8100320E+02 -0.1509499E+01
  0.1442857E+01  0.7867909E+04 -0.1513620E+01  0.1296772E+05 -0.2662442E+01  0.8471672E+02 -0.1502131E+01
  0.1473810E+01  0.8155796E+04 -0.1507093E+01  0.1335932E+05 -0.2651085E+01  0.8889191E+02 -0.1494394E+01
  0.1504762E+01  0.8446550E+04 -0.1500078E+01  0.1374507E+05 -0.2639870E+01  0.9365569E+02 -0.1486419E+01
  0.1535714E+01  0.8742135E+04 -0.1492577E+01  0.1412522E+05 -0.2628852E+01  0.9874585E+02 -0.1478028E+01
  0.1566667E+01  0.9040791E+04 -0.1484572E+01  0.1449928E+05 -0.2618059E+01  0.1041671E+03 -0.1469182E+01
  0.1597619E+01  0.9337030E+04 -0.1476019E+01  0.1486599E+05 -0.2607435E+01  0.1092448E+03 -0.1459447E+01
  0.1628572E+01  0.9629062E+04 -0.1466894E+01  0.1522462E+05 -0.2596969E+01  0.1145189E+03 -0.1449179E+01
  0.1659524E+01  0.9914698E+04 -0.1457171E+01  0.1557517E+05 -0.2586691E+01  0.1196179E+03 -0.1438088E+01
  0.1690476E+01  0.1019334E+05 -0.1446841E+01  0.1591747E+05 -0.2576612E+01  0.1247778E+03 -0.1426313E+01
  0.1721429E+01  0.1045583E+05 -0.1435815E+01  0.1625016E+05 -0.2566651E+01  0.1298734E+03 -0.1413720E+01
  0.1752381E+01  0.1070612E+05 -0.1424127E+01  0.1657493E+05 -0.2556970E+01  0.1347667E+03 -0.1400204E+01
  0.1783333E+01  0.1094417E+05 -0.1411779E+01  0.1689143E+05 -0.2547566E+01  0.1396832E+03 -0.1385962E+01
  0.1814286E+01  0.1117045E+05 -0.1398817E+01  0.1719915E+05 -0.2538434E+01  0.1448132E+03 -0.1371415E+01
  0.1845238E+01  0.1138788E+05 -0.1385335E+01  0.1749752E+05 -0.2529506E+01  0.1495253E+03 -0.1355876E+01
  0.1876190E+01  0.1159351E+05 -0.1371327E+01  0.1778522E+05 -0.2520735E+01  0.1545205E+03 -0.1340206E+01
  0.1907143E+01  0.1178280E+05 -0.1356755E+01  0.1806220E+05 -0.2512133E+01  0.1590388E+03 -0.1323609E+01
  0.1938095E+01  0.1195727E+05 -0.1341678E+01  0.1832808E+05 -0.2503713E+01  0.1636441E+03 -0.1306517E+01
  0.1969048E+01  0.1211169E+05 -0.1326046E+01  0.1858205E+05 -0.2495384E+01  0.1682792E+03 -0.1288924E+01
  0.2000000E+01  0.1224258E+05 -0.1309831E+01  0.1882459E+05 -0.2487245E+01  0.1728137E+03 -0.1270801E+01
