VARIABLES="w (rad/s)"
"A   1   1" "B   1   1"
"A   1   2" "B   1   2"
"A   1   3" "B   1   3"
Zone t="Motion of body    1 in DoF   1",I=    64,F=POINT
  0.5000000E-01  0.2243564E+05  0.7153018E-03 -0.2861023E-03 -0.1981184E-05  0.2073595E+03  0.8774329E-05
  0.8095238E-01  0.2246456E+05  0.3083975E-02 -0.2073400E-02 -0.1772308E-04  0.2100245E+03  0.3870339E-04
  0.1119048E+00  0.2245031E+05  0.8682027E-02 -0.3766811E-02 -0.2201620E-04  0.2063762E+03  0.1089246E-03
  0.1428571E+00  0.2251099E+05  0.1956596E-01 -0.5741119E-03 -0.1373858E-04  0.2098810E+03  0.2474737E-03
  0.1738095E+00  0.2253752E+05  0.3900078E-01 -0.7039684E-02 -0.5211910E-04  0.2068737E+03  0.4923771E-03
  0.2047619E+00  0.2259959E+05  0.7210111E-01 -0.1015330E-02  0.3643101E-05  0.2103437E+03  0.9130035E-03
  0.2357143E+00  0.2258020E+05  0.1270486E+00  0.1375603E-03 -0.5114416E-05  0.2095275E+03  0.1612760E-02
  0.2666667E+00  0.2266082E+05  0.2173334E+00  0.9012222E-03  0.4661561E-05  0.2102788E+03  0.2775807E-02
  0.2976190E+00  0.2272202E+05  0.3653392E+00  0.3576050E-02 -0.7175142E-05  0.2142280E+03  0.4711220E-02
  0.3285715E+00  0.2272507E+05  0.6055320E+00 -0.2890877E-02 -0.1336375E-03  0.2134674E+03  0.7857805E-02
  0.3595238E+00  0.2279001E+05  0.9970313E+00  0.3278618E-02  0.5883491E-04  0.2147336E+03  0.1302415E-01
  0.3904762E+00  0.2288846E+05  0.1631083E+01  0.1817098E-02 -0.3471226E-04  0.2185669E+03  0.2153015E-01
  0.4214286E+00  0.2293142E+05  0.2631253E+01 -0.4077846E-02 -0.2890960E-03  0.2223405E+03  0.3514659E-01
  0.4523810E+00  0.2298000E+05  0.4207646E+01  0.6366529E-03 -0.1362218E-03  0.2225588E+03  0.5666462E-01
  0.4833333E+00  0.2310267E+05  0.6572032E+01 -0.5074862E-02 -0.4188493E-03  0.2281743E+03  0.8980737E-01
  0.5142857E+00  0.2324206E+05  0.1009905E+02 -0.2058347E-02 -0.3421772E-03  0.2362408E+03  0.1403086E+00
  0.5452381E+00  0.2327365E+05  0.1512955E+02 -0.6016894E-03 -0.1281612E-03  0.2322416E+03  0.2112974E+00
  0.5761905E+00  0.2335112E+05  0.2214955E+02 -0.4257013E-02 -0.6129891E-03  0.2368869E+03  0.3138897E+00
  0.6071429E+00  0.2351675E+05  0.3187287E+02 -0.8733412E-03 -0.2157018E-03  0.2422505E+03  0.4580212E+00
  0.6380953E+00  0.2367666E+05  0.4485711E+02 -0.2480977E-02 -0.7823408E-03  0.2492746E+03  0.6553087E+00
  0.6690477E+00  0.2379366E+05  0.6202234E+02 -0.4681082E-02 -0.1199603E-02  0.2530243E+03  0.9190501E+00
  0.7000000E+00  0.2387804E+05  0.8443526E+02 -0.2920968E-02 -0.8022487E-03  0.2521988E+03  0.1263606E+01
  0.7309524E+00  0.2402904E+05  0.1132754E+03 -0.4983957E-02 -0.1542628E-02  0.2570217E+03  0.1720719E+01
  0.7619048E+00  0.2422988E+05  0.1500857E+03  0.9813308E-03 -0.1187027E-03  0.2657403E+03  0.2322964E+01
  0.7928572E+00  0.2445129E+05  0.1965350E+03 -0.3271704E-03 -0.3330708E-03  0.2749518E+03  0.3099459E+01
  0.8238096E+00  0.2465084E+05  0.2544200E+03 -0.3116365E-02 -0.1762390E-02  0.2806484E+03  0.4075863E+01
  0.8547620E+00  0.2479742E+05  0.3256793E+03 -0.4217418E-02 -0.1659334E-02  0.2823457E+03  0.5287246E+01
  0.8857143E+00  0.2496534E+05  0.4129207E+03  0.1042274E-02  0.9945631E-03  0.2885594E+03  0.6821172E+01
  0.9166667E+00  0.2519431E+05  0.5190512E+03  0.2625899E-02  0.9576082E-03  0.2965313E+03  0.8725853E+01
  0.9476191E+00  0.2545361E+05  0.6470463E+03 -0.3985304E-03 -0.9834766E-03  0.3045604E+03  0.1106664E+02
  0.9785714E+00  0.2571982E+05  0.8001719E+03  0.1095403E-02 -0.1571178E-03  0.3147706E+03  0.1395187E+02
  0.1009524E+01  0.2599225E+05  0.9820798E+03 -0.9220052E-03 -0.1080990E-02  0.3267382E+03  0.1748689E+02
  0.1040476E+01  0.2625704E+05  0.1196515E+04 -0.2757057E-02 -0.1076698E-02  0.3368100E+03  0.2172645E+02
  0.1071429E+01  0.2649217E+05  0.1447220E+04  0.1502482E-02 -0.2863407E-03  0.3421033E+03  0.2670278E+02
  0.1102381E+01  0.2672142E+05  0.1738572E+04  0.2629916E-03 -0.1764297E-04  0.3485515E+03  0.3261154E+02
  0.1133333E+01  0.2697259E+05  0.2075271E+04 -0.1272314E-02 -0.8282661E-03  0.3581342E+03  0.3965763E+02
  0.1164286E+01  0.2725287E+05  0.2462144E+04  0.3145370E-02  0.1811981E-03  0.3705856E+03  0.4800403E+02
  0.1195238E+01  0.2755092E+05  0.2904051E+04 -0.9766233E-03 -0.1850605E-02  0.3844734E+03  0.5784201E+02
  0.1226190E+01  0.2784539E+05  0.3405400E+04 -0.5102065E-03 -0.1296997E-02  0.3971404E+03  0.6919517E+02
  0.1257143E+01  0.2809699E+05  0.3970802E+04 -0.1838857E-02 -0.6179810E-02  0.4081758E+03  0.8225084E+02
  0.1288095E+01  0.2837950E+05  0.4604540E+04 -0.2582430E-02 -0.2515793E-02  0.4215868E+03  0.9736668E+02
  0.1319048E+01  0.2858906E+05  0.5309384E+04  0.1457572E-02  0.2670288E-03  0.4323040E+03  0.1145805E+03
  0.1350000E+01  0.2876860E+05  0.6089309E+04 -0.4577637E-03 -0.6122589E-03  0.4417713E+03  0.1341124E+03
  0.1380952E+01  0.2892261E+05  0.6946107E+04  0.1591123E-02 -0.5302429E-03  0.4522466E+03  0.1561252E+03
  0.1411905E+01  0.2892125E+05  0.7833869E+04 -0.2782863E-02 -0.4875183E-02  0.4505647E+03  0.1786159E+03
  0.1442857E+01  0.2903063E+05  0.8838231E+04 -0.6133731E-03 -0.2655029E-02  0.4596978E+03  0.2053098E+03
  0.1473810E+01  0.2911353E+05  0.9918649E+04  0.1154393E-02 -0.2172470E-02  0.4687958E+03  0.2349081E+03
  0.1504762E+01  0.2914646E+05  0.1107263E+05  0.1003893E-02 -0.2117157E-02  0.4777348E+03  0.2678178E+03
  0.1535714E+01  0.2913288E+05  0.1229675E+05 -0.8296522E-03 -0.1529694E-02  0.4860802E+03  0.3038497E+03
  0.1566667E+01  0.2907292E+05  0.1358698E+05  0.2532309E-03  0.1121521E-02  0.4940799E+03  0.3431487E+03
  0.1597619E+01  0.2896121E+05  0.1493369E+05  0.2325658E-02  0.4201889E-02  0.5012331E+03  0.3852820E+03
  0.1628572E+01  0.2880071E+05  0.1632680E+05  0.2267402E-02 -0.2254486E-02  0.5055702E+03  0.4299181E+03
  0.1659524E+01  0.2857880E+05  0.1775520E+05  0.1287255E-03 -0.1373291E-03  0.5072447E+03  0.4765724E+03
  0.1690476E+01  0.2830632E+05  0.1921075E+05 -0.1985792E-03 -0.1541138E-02  0.5072615E+03  0.5256720E+03
  0.1721429E+01  0.2797757E+05  0.2068314E+05 -0.2725688E-02  0.3643036E-02  0.5062472E+03  0.5776025E+03
  0.1752381E+01  0.2759069E+05  0.2216037E+05  0.1262582E-03 -0.5039215E-02  0.5042831E+03  0.6321540E+03
  0.1783333E+01  0.2715977E+05  0.2362946E+05  0.2994716E-03 -0.3585815E-03  0.5012942E+03  0.6883658E+03
  0.1814286E+01  0.2668844E+05  0.2507647E+05 -0.1795611E-02 -0.9815216E-02  0.4973149E+03  0.7463812E+03
  0.1845238E+01  0.2617716E+05  0.2648965E+05 -0.5333685E-03 -0.2006531E-02  0.4910729E+03  0.8049198E+03
  0.1876190E+01  0.2563021E+05  0.2785930E+05  0.8173521E-03  0.4329681E-02  0.4823109E+03  0.8634206E+03
  0.1907143E+01  0.2504577E+05  0.2917533E+05 -0.3960427E-03 -0.2582550E-02  0.4717535E+03  0.9225024E+03
  0.1938095E+01  0.2443358E+05  0.3043085E+05  0.2865803E-02  0.3356934E-03  0.4593806E+03  0.9814555E+03
  0.1969048E+01  0.2380410E+05  0.3161752E+05  0.1673854E-02  0.1689911E-02  0.4465628E+03  0.1040273E+04
  0.2000000E+01  0.2315289E+05  0.3272958E+05  0.7057190E-03  0.1190186E-02  0.4331368E+03  0.1099194E+04
Zone t="Motion of body    1 in DoF   2",I=    64,F=POINT
  0.5000000E-01  0.3414154E-02  0.2555549E-05  0.3799926E+05  0.7293871E+02 -0.2861023E-03  0.1341105E-06
  0.8095238E-01  0.1072042E-02 -0.3457069E-05  0.3775766E+05  0.1210714E+03  0.6479375E-03 -0.5364418E-06
  0.1119048E+00 -0.4580680E-02 -0.4097819E-05  0.3761639E+05  0.1736599E+03 -0.1533995E-03  0.1460314E-05
  0.1428571E+00  0.1602173E-02  0.1227856E-04  0.3754875E+05  0.2327831E+03 -0.4205703E-03 -0.1072884E-05
  0.1738095E+00 -0.3171424E-02  0.4738569E-05  0.3755429E+05  0.3011317E+03 -0.2743447E-04  0.7152557E-06
  0.2047619E+00  0.1583543E-02  0.1227856E-04  0.3762353E+05  0.3819793E+03 -0.3632834E-03 -0.2086163E-05
  0.2357143E+00 -0.3321676E-02  0.7092953E-05  0.3773453E+05  0.4800432E+03 -0.2508452E-03  0.1132488E-05
  0.2666667E+00 -0.2431869E-03 -0.1484156E-04  0.3788790E+05  0.5995719E+03 -0.5006790E-04  0.4410744E-05
  0.2976190E+00 -0.7023926E-02  0.3457069E-04  0.3806907E+05  0.7492590E+03  0.2563476E-03  0.3695488E-05
  0.3285715E+00 -0.6368056E-02  0.5173683E-04  0.3828130E+05  0.9346681E+03  0.4643979E-04  0.1060963E-04
  0.3595238E+00  0.1443016E-02  0.4398823E-04  0.3848927E+05  0.1166589E+04 -0.3183125E-03 -0.9536743E-05
  0.3904762E+00 -0.1592403E-02  0.2121925E-03  0.3870373E+05  0.1454382E+04 -0.1758482E-03 -0.6914139E-05
  0.4214286E+00  0.4661689E-03  0.1666546E-03  0.3884420E+05  0.1796587E+04 -0.2262956E-03  0.8344650E-05
  0.4523810E+00 -0.8053026E-03 -0.6937981E-04  0.3897273E+05  0.2211354E+04 -0.2529747E-03  0.6198883E-05
  0.4833333E+00 -0.3354303E-02 -0.2491474E-03  0.3899796E+05  0.2668960E+04 -0.1657420E-03  0.1239777E-04
  0.5142857E+00 -0.3823704E-02 -0.9775162E-05  0.3895636E+05  0.3190098E+04 -0.2373590E-03 -0.1239777E-04
  0.5452381E+00 -0.3057422E-02  0.6809235E-03  0.3885029E+05  0.3750942E+04 -0.4407724E-03  0.2861023E-04
  0.5761905E+00 -0.5329541E-02  0.2717972E-04  0.3868174E+05  0.4343309E+04  0.2714425E-03  0.2956390E-04
  0.6071429E+00 -0.1495361E-02  0.2942085E-03  0.3844910E+05  0.4980249E+04  0.1193776E-03  0.1907349E-04
  0.6380953E+00  0.3485324E-02 -0.1811981E-03  0.3818045E+05  0.5630352E+04  0.5141300E-03  0.5722046E-05
  0.6690477E+00  0.1225862E-02 -0.3285408E-03  0.3786839E+05  0.6307224E+04 -0.1539454E-03  0.1296997E-03
  0.7000000E+00  0.5885533E-03 -0.5826950E-03  0.3750970E+05  0.7012948E+04  0.1198905E-03  0.1621246E-04
  0.7309524E+00 -0.2943405E-02  0.6952286E-03  0.3712659E+05  0.7730608E+04  0.5218804E-04  0.8201599E-04
  0.7619048E+00  0.1612186E-02  0.1583099E-03  0.3670821E+05  0.8463864E+04  0.1502037E-04  0.3051758E-04
  0.7928572E+00  0.1929343E-02  0.1001358E-03  0.3625635E+05  0.9209636E+04  0.3271704E-03  0.4386902E-04
  0.8238096E+00  0.1898528E-02 -0.3223419E-03  0.3577371E+05  0.9962919E+04  0.2593112E-03  0.5722046E-04
  0.8547620E+00 -0.3788982E-02 -0.6513596E-03  0.3526463E+05  0.1071890E+05 -0.4105847E-03  0.9918213E-04
  0.8857143E+00 -0.2411873E-02 -0.4062653E-03  0.3474260E+05  0.1147304E+05 -0.1722766E-03  0.1049042E-03
  0.9166667E+00 -0.3054532E-02  0.5636215E-03  0.3420525E+05  0.1222137E+05  0.1664595E-04  0.6103516E-04
  0.9476191E+00  0.1376741E-02  0.2603531E-03  0.3364289E+05  0.1296145E+05 -0.3220448E-03  0.2422333E-03
  0.9785714E+00  0.3017231E-02 -0.5636215E-03  0.3305999E+05  0.1368916E+05 -0.3898231E-04  0.5149841E-04
  0.1009524E+01 -0.5063471E-03 -0.3051758E-04  0.3246847E+05  0.1440006E+05 -0.5516916E-03  0.4215240E-03
  0.1040476E+01  0.2031130E-02 -0.9346008E-03  0.3187479E+05  0.1508935E+05 -0.2933039E-04  0.2479553E-04
  0.1071429E+01 -0.1463318E-02 -0.8621216E-03  0.3127409E+05  0.1575605E+05 -0.3631592E-03  0.1010895E-03
  0.1102381E+01 -0.4256312E-03 -0.8144379E-03  0.3067141E+05  0.1639668E+05  0.1937833E-03 -0.2117157E-03
  0.1133333E+01 -0.4961350E-02  0.4081726E-03  0.3006330E+05  0.1701084E+05 -0.4644955E-03  0.2155304E-03
  0.1164286E+01  0.4226591E-02  0.4024506E-03  0.2946397E+05  0.1759442E+05 -0.3276427E-04 -0.3623962E-04
  0.1195238E+01  0.9032169E-03  0.1651764E-02  0.2887121E+05  0.1814477E+05 -0.4212885E-03  0.1621246E-03
  0.1226190E+01 -0.9395267E-03 -0.1983643E-03  0.2828352E+05  0.1866186E+05 -0.1555508E-03  0.4196167E-03
  0.1257143E+01 -0.1083287E-02  0.5149841E-03  0.2770449E+05  0.1915917E+05  0.8496371E-04  0.1945496E-03
  0.1288095E+01  0.2487662E-03  0.1110077E-02  0.2712606E+05  0.1959062E+05  0.3553803E-04 -0.2098083E-04
  0.1319048E+01 -0.5234536E-03 -0.5435944E-03  0.2656005E+05  0.2000116E+05  0.0000000E+00  0.3700256E-03
  0.1350000E+01 -0.6216544E-03 -0.2172470E-02  0.2601175E+05  0.2037298E+05  0.5086263E-04  0.1144409E-04
  0.1380952E+01 -0.1441956E-02  0.1037598E-02  0.2548305E+05  0.2070169E+05 -0.4198798E-03  0.1487732E-03
  0.1411905E+01 -0.2323556E-02 -0.3456116E-02  0.2496561E+05  0.2100916E+05  0.1188796E-03  0.1335144E-03
  0.1442857E+01  0.5763592E-03  0.1937866E-02  0.2446608E+05  0.2126786E+05 -0.1004663E-03  0.2460480E-03
  0.1473810E+01 -0.2251842E-02 -0.1693726E-02  0.2398181E+05  0.2149004E+05 -0.4503684E-03  0.8392334E-04
  0.1504762E+01  0.5272974E-03 -0.2937317E-03  0.2350943E+05  0.2167946E+05 -0.1064735E-03  0.5531311E-03
  0.1535714E+01  0.6855809E-03 -0.1213074E-02  0.2305737E+05  0.2183176E+05  0.1192315E-03  0.3414154E-03
  0.1566667E+01 -0.1753137E-03  0.9899139E-03  0.2262527E+05  0.2194833E+05 -0.4869826E-05  0.1087189E-03
  0.1597619E+01 -0.9718097E-03 -0.8373260E-03  0.2221342E+05  0.2202730E+05 -0.2960796E-03 -0.9536743E-04
  0.1628572E+01  0.5809048E-03  0.3200531E-02  0.2181827E+05  0.2207477E+05 -0.1405415E-04  0.2403259E-03
  0.1659524E+01 -0.3135385E-02 -0.7228851E-03  0.2144226E+05  0.2208935E+05 -0.1195308E-03  0.7247925E-04
  0.1690476E+01  0.6882573E-03  0.3477097E-02  0.2108360E+05  0.2207324E+05 -0.2391976E-03  0.4425049E-03
  0.1721429E+01  0.7401463E-03  0.1695633E-02  0.2074019E+05  0.2202969E+05 -0.1285284E-03  0.5950928E-03
  0.1752381E+01 -0.1162446E-02  0.5416870E-03  0.2041411E+05  0.2195712E+05 -0.1088433E-03  0.3414154E-03
  0.1783333E+01  0.3165842E-03  0.4177094E-02  0.2010938E+05  0.2185731E+05  0.1711266E-04  0.5340576E-03
  0.1814286E+01 -0.3010908E-02  0.2441406E-02  0.1982403E+05  0.2173085E+05 -0.2018486E-03  0.1392365E-03
  0.1845238E+01  0.1844049E-02  0.7991791E-03  0.1955752E+05  0.2157714E+05  0.1199046E-03  0.2861023E-03
  0.1876190E+01 -0.1423250E-03  0.1075745E-02  0.1930544E+05  0.2140311E+05  0.3253143E-04  0.3108978E-03
  0.1907143E+01 -0.1300140E-02 -0.2529144E-02  0.1907041E+05  0.2120608E+05 -0.8000864E-05  0.1449585E-03
  0.1938095E+01 -0.6337833E-03  0.4379272E-02  0.1885069E+05  0.2098860E+05 -0.1810810E-03  0.2136230E-03
  0.1969048E+01  0.4068396E-03 -0.3175735E-02  0.1864722E+05  0.2075218E+05 -0.6586926E-04  0.5035400E-03
  0.2000000E+01 -0.1384735E-02  0.2367020E-02  0.1845303E+05  0.2050035E+05 -0.1602173E-03  0.4596710E-03
Zone t="Motion of body    1 in DoF   3",I=    64,F=POINT
  0.5000000E-01  0.2024225E+03  0.8722226E-05 -0.2802014E-02 -0.5230936E-05  0.3882100E+03  0.2810860E-06
  0.8095238E-01  0.2056194E+03  0.3898344E-04 -0.1410000E-02 -0.3603274E-05  0.3870699E+03  0.3714555E-06
  0.1119048E+00  0.2011388E+03  0.1086843E-03 -0.9869768E-03 -0.3167846E-05  0.3821887E+03  0.9309553E-06
  0.1428571E+00  0.2054107E+03  0.2474028E-03 -0.1538753E-02 -0.6819962E-05  0.3842472E+03  0.3270793E-05
  0.1738095E+00  0.2014913E+03  0.4944401E-03 -0.2099423E-02 -0.1545656E-04  0.3832151E+03  0.7102331E-05
  0.2047619E+00  0.2055533E+03  0.9153583E-03 -0.1858334E-02 -0.1477943E-04  0.3859037E+03  0.1119881E-04
  0.2357143E+00  0.2045944E+03  0.1619188E-02 -0.2465970E-02 -0.2924675E-04  0.3851310E+03  0.2116103E-04
  0.2666667E+00  0.2049049E+03  0.2793247E-02 -0.7456540E-03 -0.4663800E-05  0.3844475E+03  0.3982024E-04
  0.2976190E+00  0.2090860E+03  0.4731394E-02 -0.4053497E-03  0.2350471E-05  0.3839454E+03  0.6194308E-04
  0.3285715E+00  0.2085228E+03  0.7904474E-02 -0.2106480E-02 -0.4916747E-04  0.3852874E+03  0.1038923E-03
  0.3595238E+00  0.2091759E+03  0.1311926E-01 -0.2135346E-03  0.6351675E-05  0.3830961E+03  0.1729652E-03
  0.3904762E+00  0.2133347E+03  0.2166216E-01 -0.1523407E-02 -0.3895883E-04  0.3847260E+03  0.2771263E-03
  0.4214286E+00  0.2176516E+03  0.3529385E-01 -0.2837181E-02 -0.1268670E-03  0.3849500E+03  0.4606125E-03
  0.4523810E+00  0.2176175E+03  0.5703705E-01 -0.2470719E-02 -0.1362134E-03  0.3849395E+03  0.7651694E-03
  0.4833333E+00  0.2234460E+03  0.9012367E-01 -0.1377237E-02 -0.8403325E-04  0.3859134E+03  0.1235685E-02
  0.5142857E+00  0.2319137E+03  0.1400829E+00 -0.1290639E-02 -0.8194399E-04  0.3852800E+03  0.1941952E-02
  0.5452381E+00  0.2274260E+03  0.2126069E+00 -0.1780581E-02 -0.1209271E-03  0.3861952E+03  0.2950650E-02
  0.5761905E+00  0.2322134E+03  0.3152487E+00 -0.1870305E-02 -0.1837644E-03  0.3853350E+03  0.4464965E-02
  0.6071429E+00  0.2374333E+03  0.4595671E+00 -0.1574684E-02 -0.1205143E-03  0.3854529E+03  0.6602482E-02
  0.6380953E+00  0.2449588E+03  0.6558650E+00 -0.1715760E-02 -0.1821831E-03  0.3874411E+03  0.9566516E-02
  0.6690477E+00  0.2484702E+03  0.9202050E+00 -0.1000645E-02 -0.8607912E-04  0.3858972E+03  0.1361907E-01
  0.7000000E+00  0.2473310E+03  0.1272716E+01 -0.1369885E-02 -0.1572266E-03  0.3857452E+03  0.1909577E-01
  0.7309524E+00  0.2523313E+03  0.1733702E+01 -0.2234300E-02 -0.4738821E-03  0.3870809E+03  0.2638641E-01
  0.7619048E+00  0.2610146E+03  0.2332369E+01 -0.6333589E-03 -0.6212620E-04  0.3866545E+03  0.3611837E-01
  0.7928572E+00  0.2703842E+03  0.3103263E+01 -0.2863944E-02 -0.6687609E-03  0.3867314E+03  0.4894261E-01
  0.8238096E+00  0.2763473E+03  0.4087235E+01 -0.1707518E-02 -0.4484495E-03  0.3883164E+03  0.6548727E-01
  0.8547620E+00  0.2777539E+03  0.5327218E+01 -0.2202987E-02 -0.7058000E-03  0.3882927E+03  0.8657758E-01
  0.8857143E+00  0.2839173E+03  0.6872225E+01 -0.1727612E-02 -0.4923902E-03  0.3873620E+03  0.1135908E+00
  0.9166667E+00  0.2918676E+03  0.8788095E+01 -0.2392335E-02 -0.7766616E-03  0.3870043E+03  0.1474871E+00
  0.9476191E+00  0.3000708E+03  0.1115479E+02 -0.1781310E-02 -0.5708877E-03  0.3886436E+03  0.1904981E+00
  0.9785714E+00  0.3103360E+03  0.1404169E+02 -0.9940489E-03 -0.2083667E-03  0.3897395E+03  0.2452988E+00
  0.1009524E+01  0.3224882E+03  0.1754789E+02 -0.1886521E-02 -0.7231347E-03  0.3901358E+03  0.3126745E+00
  0.1040476E+01  0.3322477E+03  0.2178543E+02 -0.1251125E-02 -0.3622174E-03  0.3891395E+03  0.3954844E+00
  0.1071429E+01  0.3376875E+03  0.2691300E+02 -0.2740606E-02 -0.1430396E-02  0.3892611E+03  0.4973806E+00
  0.1102381E+01  0.3445911E+03  0.3298582E+02 -0.1596117E-02 -0.8198693E-03  0.3908814E+03  0.6209946E+00
  0.1133333E+01  0.3541642E+03  0.4012055E+02 -0.1779725E-02 -0.9981096E-03  0.3914474E+03  0.7649022E+00
  0.1164286E+01  0.3666204E+03  0.4847437E+02 -0.1059924E-02 -0.3350750E-03  0.3914473E+03  0.9450496E+00
  0.1195238E+01  0.3799565E+03  0.5824556E+02 -0.1710686E-02 -0.7349253E-03  0.3907652E+03  0.1154214E+01
  0.1226190E+01  0.3926868E+03  0.6966607E+02 -0.8407519E-03 -0.1091659E-03  0.3913253E+03  0.1414501E+01
  0.1257143E+01  0.4046344E+03  0.8298289E+02 -0.1727342E-02 -0.1203611E-02  0.3932924E+03  0.1719333E+01
  0.1288095E+01  0.4180201E+03  0.9814817E+02 -0.1019497E-02 -0.6854087E-03  0.3946803E+03  0.2082216E+01
  0.1319048E+01  0.4285126E+03  0.1155414E+03 -0.1901496E-03  0.5833805E-03  0.3951703E+03  0.2505040E+01
  0.1350000E+01  0.4378515E+03  0.1354788E+03 -0.2340387E-02 -0.2240509E-02  0.3944698E+03  0.2994335E+01
  0.1380952E+01  0.4482598E+03  0.1577482E+03 -0.1029672E-02 -0.4257262E-03  0.3940250E+03  0.3545289E+01
  0.1411905E+01  0.4215725E+03  0.1734401E+03 -0.2161447E-03  0.1503617E-02  0.3914222E+03  0.3935581E+01
  0.1442857E+01  0.4316833E+03  0.2000211E+03 -0.8837067E-03 -0.1416802E-03  0.3928280E+03  0.4613101E+01
  0.1473810E+01  0.4409191E+03  0.2292548E+03 -0.9395618E-03 -0.2612174E-03  0.3946498E+03  0.5441683E+01
  0.1504762E+01  0.4494374E+03  0.2615183E+03 -0.1342327E-02 -0.5778372E-03  0.3952634E+03  0.6336306E+01
  0.1535714E+01  0.4575483E+03  0.2967520E+03 -0.1246341E-02 -0.6570220E-03  0.3960889E+03  0.7368958E+01
  0.1566667E+01  0.4656705E+03  0.3352480E+03 -0.1082928E-02  0.1101494E-03  0.3957415E+03  0.8467723E+01
  0.1597619E+01  0.4726978E+03  0.3761547E+03 -0.1434434E-02 -0.5171299E-03  0.3956682E+03  0.9644462E+01
  0.1628572E+01  0.4772883E+03  0.4203304E+03 -0.6699144E-03  0.7979274E-03  0.3960028E+03  0.1096410E+02
  0.1659524E+01  0.4799844E+03  0.4674204E+03 -0.1247603E-02 -0.1331091E-02  0.3970240E+03  0.1243371E+02
  0.1690476E+01  0.4802637E+03  0.5167289E+03 -0.2027538E-02 -0.2417207E-02  0.3986857E+03  0.1422661E+02
  0.1721429E+01  0.4791751E+03  0.5685898E+03 -0.9611929E-03 -0.3896356E-03  0.3993619E+03  0.1602321E+02
  0.1752381E+01  0.4767967E+03  0.6222028E+03 -0.1843805E-02 -0.2794385E-02  0.4000363E+03  0.1794526E+02
  0.1783333E+01  0.4736219E+03  0.6771255E+03 -0.1208582E-02  0.4700422E-03  0.4000173E+03  0.1991311E+02
  0.1814286E+01  0.4693427E+03  0.7336703E+03 -0.1181129E-02  0.9703636E-04  0.3987937E+03  0.2173045E+02
  0.1845238E+01  0.4627549E+03  0.7909212E+03 -0.1170620E-02 -0.1198649E-02  0.3980171E+03  0.2359249E+02
  0.1876190E+01  0.4543944E+03  0.8495458E+03 -0.1018640E-02  0.1626015E-03  0.3980643E+03  0.2587748E+02
  0.1907143E+01  0.4446757E+03  0.9095657E+03 -0.1492161E-02 -0.1412749E-02  0.3987746E+03  0.2841666E+02
  0.1938095E+01  0.4329125E+03  0.9695945E+03 -0.1300043E-02  0.2577305E-03  0.4003243E+03  0.3117389E+02
  0.1969048E+01  0.4202454E+03  0.1028438E+04 -0.1442343E-02 -0.6796122E-03  0.4018157E+03  0.3427600E+02
  0.2000000E+01  0.4070685E+03  0.1086317E+04 -0.1304626E-02  0.2708435E-03  0.4023184E+03  0.3706924E+02
