VARIABLES="w (rad/s)"
"A   1   1" "B   1   1"
"A   1   2" "B   1   2"
"A   1   3" "B   1   3"
Zone t="Motion of body    1 in DoF   1",I=    64,F=POINT
  0.5000000E-01  0.1242264E+05  0.1418631E-03 -0.1811981E-02 -0.3743761E-05 -0.1307880E+05 -0.1313419E-03
  0.8095238E-01  0.1250274E+05  0.5716464E-03 -0.8246478E-04 -0.1697281E-05 -0.1318058E+05 -0.5557922E-03
  0.1119048E+00  0.1254751E+05  0.1621503E-02  0.6732535E-03  0.1563733E-05 -0.1323709E+05 -0.1556260E-02
  0.1428571E+00  0.1258571E+05  0.3632721E-02  0.1154900E-02 -0.2530371E-05 -0.1326255E+05 -0.3490690E-02
  0.1738095E+00  0.1259239E+05  0.7184389E-02 -0.1097379E-04  0.2320376E-05 -0.1326632E+05 -0.6816415E-02
  0.2047619E+00  0.1261814E+05  0.1335227E-01 -0.2235590E-03  0.5198039E-05 -0.1327575E+05 -0.1268041E-01
  0.2357143E+00  0.1261160E+05  0.2355177E-01  0.1221859E-02  0.5206559E-05 -0.1327942E+05 -0.2239052E-01
  0.2666667E+00  0.1263384E+05  0.4023192E-01  0.1502037E-03 -0.1072459E-04 -0.1328393E+05 -0.3818893E-01
  0.2976190E+00  0.1264729E+05  0.6755754E-01 -0.1986694E-03 -0.4249508E-05 -0.1329276E+05 -0.6401902E-01
  0.3285715E+00  0.1265405E+05  0.1119303E+00  0.4353730E-03  0.2196338E-04 -0.1329797E+05 -0.1058546E+00
  0.3595238E+00  0.1266774E+05  0.1839972E+00 -0.8170020E-03 -0.3231759E-04 -0.1329682E+05 -0.1735059E+00
  0.3904762E+00  0.1268310E+05  0.3003509E+00  0.8597024E-03  0.3749039E-05 -0.1330727E+05 -0.2824689E+00
  0.4214286E+00  0.1269970E+05  0.4841748E+00 -0.1176737E-03 -0.2407935E-04 -0.1331966E+05 -0.4542802E+00
  0.4523810E+00  0.1271064E+05  0.7734753E+00  0.1070926E-02  0.3528036E-04 -0.1332284E+05 -0.7236671E+00
  0.4833333E+00  0.1275028E+05  0.1206463E+01  0.2123076E-02  0.9626709E-04 -0.1333889E+05 -0.1124302E+01
  0.5142857E+00  0.1277909E+05  0.1850239E+01 -0.3708733E-04 -0.6048195E-04 -0.1335447E+05 -0.1718093E+01
  0.5452381E+00  0.1281198E+05  0.2771028E+01  0.2798555E-03  0.2036430E-04 -0.1336771E+05 -0.2563115E+01
  0.5761905E+00  0.1281327E+05  0.4048182E+01  0.3694266E-02  0.2213269E-03 -0.1337698E+05 -0.3732779E+01
  0.6071429E+00  0.1284745E+05  0.5812370E+01  0.2261891E-02  0.1845770E-03 -0.1339272E+05 -0.5336889E+01
  0.6380953E+00  0.1290259E+05  0.8168264E+01 -0.1506521E-02 -0.1747981E-03 -0.1342081E+05 -0.7464765E+01
  0.6690477E+00  0.1293296E+05  0.1127409E+02  0.4105211E-03  0.3541261E-04 -0.1343810E+05 -0.1025722E+02
  0.7000000E+00  0.1295623E+05  0.1532556E+02 -0.1111712E-02 -0.3806353E-03 -0.1346020E+05 -0.1388557E+02
  0.7309524E+00  0.1299760E+05  0.2052508E+02 -0.1471703E-02 -0.2163202E-03 -0.1348477E+05 -0.1850574E+02
  0.7619048E+00  0.1303854E+05  0.2713086E+02 -0.5707740E-03 -0.2080500E-03 -0.1350595E+05 -0.2433426E+02
  0.7928572E+00  0.1309499E+05  0.3545451E+02  0.1154719E-03 -0.6458163E-04 -0.1354102E+05 -0.3162964E+02
  0.8238096E+00  0.1314787E+05  0.4581186E+02  0.2426412E-02  0.4187226E-03 -0.1356441E+05 -0.4062912E+02
  0.8547620E+00  0.1320584E+05  0.5858630E+02 -0.3570301E-03 -0.8463860E-05 -0.1360208E+05 -0.5166460E+02
  0.8857143E+00  0.1324029E+05  0.7414426E+02 -0.1188709E-02 -0.4832149E-03 -0.1362823E+05 -0.6502666E+02
  0.9166667E+00  0.1329040E+05  0.9303140E+02  0.8822354E-03  0.2973080E-03 -0.1366499E+05 -0.8112023E+02
  0.9476191E+00  0.1334974E+05  0.1157743E+03 -0.8051120E-03 -0.5531311E-03 -0.1369103E+05 -0.1002740E+03
  0.9785714E+00  0.1343216E+05  0.1430424E+03 -0.1146080E-02 -0.8118153E-03 -0.1373500E+05 -0.1230364E+03
  0.1009524E+01  0.1350005E+05  0.1753397E+03 -0.2267226E-03  0.5745888E-04 -0.1377321E+05 -0.1497925E+03
  0.1040476E+01  0.1356847E+05  0.2134254E+03 -0.3739625E-03 -0.2019405E-03 -0.1381245E+05 -0.1810635E+03
  0.1071429E+01  0.1363877E+05  0.2580661E+03 -0.1417033E-02 -0.5943775E-03 -0.1385260E+05 -0.2173713E+03
  0.1102381E+01  0.1370836E+05  0.3100559E+03 -0.3668041E-03 -0.7293224E-03 -0.1389079E+05 -0.2592330E+03
  0.1133333E+01  0.1378267E+05  0.3703034E+03  0.1682955E-03 -0.3521442E-03 -0.1393763E+05 -0.3073348E+03
  0.1164286E+01  0.1385364E+05  0.4396592E+03  0.2398344E-02  0.5764961E-03 -0.1397516E+05 -0.3620617E+03
  0.1195238E+01  0.1393097E+05  0.5192405E+03 -0.5106527E-03 -0.8301735E-03 -0.1401190E+05 -0.4241134E+03
  0.1226190E+01  0.1402244E+05  0.6102958E+03  0.1231962E-02  0.4210472E-03 -0.1405927E+05 -0.4943604E+03
  0.1257143E+01  0.1409897E+05  0.7132723E+03 -0.6311590E-03 -0.9026527E-03 -0.1409158E+05 -0.5728260E+03
  0.1288095E+01  0.1420635E+05  0.8306735E+03  0.1717671E-02  0.8964539E-03 -0.1414035E+05 -0.6610771E+03
  0.1319048E+01  0.1429663E+05  0.9622944E+03  0.3933132E-03 -0.1840591E-03 -0.1418613E+05 -0.7591335E+03
  0.1350000E+01  0.1437560E+05  0.1109455E+04  0.3390842E-04 -0.3690720E-03 -0.1422003E+05 -0.8672878E+03
  0.1380952E+01  0.1445097E+05  0.1273558E+04 -0.9171059E-03 -0.6513596E-03 -0.1425395E+05 -0.9864839E+03
  0.1411905E+01  0.1444116E+05  0.1441635E+04 -0.2485664E-03  0.2489090E-03 -0.1426707E+05 -0.1108706E+04
  0.1442857E+01  0.1450984E+05  0.1640581E+04  0.9517858E-04 -0.5016327E-03 -0.1428618E+05 -0.1249218E+04
  0.1473810E+01  0.1458874E+05  0.1860006E+04  0.5901380E-03 -0.2670288E-04 -0.1430850E+05 -0.1401887E+04
  0.1504762E+01  0.1467259E+05  0.2100832E+04 -0.7808057E-03 -0.8697510E-03 -0.1433470E+05 -0.1567219E+04
  0.1535714E+01  0.1474632E+05  0.2363483E+04  0.1599689E-02  0.8468628E-03 -0.1435440E+05 -0.1745085E+04
  0.1566667E+01  0.1480689E+05  0.2648219E+04 -0.6038584E-03 -0.5664825E-03 -0.1435864E+05 -0.1934394E+04
  0.1597619E+01  0.1486659E+05  0.2956833E+04  0.9168918E-03  0.9498596E-03 -0.1436617E+05 -0.2136858E+04
  0.1628572E+01  0.1492392E+05  0.3289734E+04  0.3654078E-03 -0.4768372E-03 -0.1437372E+05 -0.2351976E+04
  0.1659524E+01  0.1496197E+05  0.3645396E+04 -0.9930254E-03 -0.2628326E-02 -0.1435850E+05 -0.2576475E+04
  0.1690476E+01  0.1499748E+05  0.4025680E+04  0.5596321E-03  0.1106262E-02 -0.1434198E+05 -0.2812222E+04
  0.1721429E+01  0.1502377E+05  0.4429515E+04  0.2393287E-03  0.5340576E-04 -0.1432160E+05 -0.3058062E+04
  0.1752381E+01  0.1503170E+05  0.4856174E+04  0.5311552E-03  0.1144409E-02 -0.1429519E+05 -0.3313588E+04
  0.1783333E+01  0.1502429E+05  0.5304048E+04  0.1694153E-02  0.2983093E-02 -0.1425582E+05 -0.3575739E+04
  0.1814286E+01  0.1499781E+05  0.5770949E+04  0.9503703E-03  0.9231567E-03 -0.1419728E+05 -0.3841431E+04
  0.1845238E+01  0.1496743E+05  0.6258650E+04  0.4796182E-03  0.8926392E-03 -0.1413993E+05 -0.4114011E+04
  0.1876190E+01  0.1493080E+05  0.6764871E+04 -0.2033214E-03 -0.1266479E-02 -0.1408103E+05 -0.4391258E+04
  0.1907143E+01  0.1487187E+05  0.7283909E+04 -0.2640285E-03  0.1602173E-03 -0.1399940E+05 -0.4665573E+04
  0.1938095E+01  0.1480573E+05  0.7817663E+04  0.6613391E-03 -0.6637573E-03 -0.1391636E+05 -0.4941248E+04
  0.1969048E+01  0.1472717E+05  0.8361773E+04  0.4494608E-03  0.1419067E-02 -0.1382660E+05 -0.5213929E+04
  0.2000000E+01  0.1463801E+05  0.8914641E+04  0.1373291E-02  0.2365112E-03 -0.1373606E+05 -0.5483963E+04
Zone t="Motion of body    1 in DoF   2",I=    64,F=POINT
  0.5000000E-01  0.1907349E-04  0.2086163E-06  0.6184279E+04  0.1031463E+02  0.6771088E-03 -0.3561378E-05
  0.8095238E-01  0.5890341E-03 -0.3516674E-05  0.6158231E+04  0.1713480E+02 -0.1295875E-03  0.2428889E-05
  0.1119048E+00  0.1704439E-03 -0.3516674E-05  0.6147953E+04  0.2460533E+02  0.1095102E-02  0.5573034E-05
  0.1428571E+00 -0.6675720E-04  0.7152557E-06  0.6142819E+04  0.3303688E+02  0.1241684E-02  0.1430511E-05
  0.1738095E+00 -0.9437456E-03  0.3695488E-05  0.6151702E+04  0.4282343E+02  0.1069944E-02 -0.1311302E-05
  0.2047619E+00  0.1639433E-02  0.3218651E-05  0.6165482E+04  0.5445049E+02 -0.6706770E-03 -0.4291534E-05
  0.2357143E+00  0.1456521E-03  0.2622604E-05  0.6190384E+04  0.6862249E+02  0.1246134E-02 -0.1710653E-04
  0.2666667E+00  0.5722046E-04 -0.1192093E-05  0.6221090E+04  0.8599523E+02  0.1029968E-02 -0.1096725E-04
  0.2976190E+00 -0.1794434E-03 -0.1311302E-04  0.6253897E+04  0.1078664E+03 -0.7690430E-04  0.2861023E-05
  0.3285715E+00  0.1160995E-02  0.1764297E-04  0.6297038E+04  0.1351379E+03 -0.3274005E-02  0.8940697E-05
  0.3595238E+00 -0.1846212E-02 -0.2574921E-04  0.6340187E+04  0.1694713E+03 -0.6366249E-04  0.3790855E-04
  0.3904762E+00  0.2754956E-02  0.2622604E-04  0.6379495E+04  0.2123777E+03 -0.3165268E-02 -0.4804134E-04
  0.4214286E+00 -0.1774157E-02 -0.7247925E-04  0.6415396E+04  0.2638938E+03  0.4073320E-03  0.9226799E-04
  0.4523810E+00  0.1180548E-03 -0.7438660E-04  0.6452611E+04  0.3268252E+03 -0.2571909E-03 -0.3576279E-05
  0.4833333E+00 -0.4893336E-03  0.7343292E-04  0.6474502E+04  0.3971544E+03 -0.4893336E-03 -0.1866817E-03
  0.5142857E+00 -0.6082323E-03 -0.4673004E-04  0.6482675E+04  0.4781023E+03  0.1049572E-02  0.2565384E-03
  0.5452381E+00  0.8675521E-03 -0.1373291E-03  0.6487724E+04  0.5664277E+03  0.4897472E-04 -0.4291534E-04
  0.5761905E+00  0.1853753E-03  0.4196167E-04  0.6483210E+04  0.6611678E+03 -0.9003946E-03  0.1573563E-04
  0.6071429E+00  0.1244040E-02  0.1907349E-05  0.6468009E+04  0.7644133E+03 -0.1269172E-02 -0.4196167E-04
  0.6380953E+00 -0.9804341E-03 -0.9536743E-05  0.6448025E+04  0.8719561E+03 -0.1781521E-02  0.1163483E-03
  0.6690477E+00  0.7298153E-03  0.2021790E-03  0.6420062E+04  0.9858816E+03 -0.2685492E-02 -0.3728867E-03
  0.7000000E+00  0.4359654E-04  0.1068115E-03  0.6387774E+04  0.1106651E+04 -0.9427751E-03 -0.4768372E-04
  0.7309524E+00  0.1607392E-02  0.8010864E-04  0.6353365E+04  0.1232115E+04  0.7045385E-03 -0.3290176E-03
  0.7619048E+00  0.1181602E-02 -0.3356934E-03  0.6309258E+04  0.1363017E+04 -0.1617193E-02  0.2012253E-03
  0.7928572E+00 -0.4811329E-03 -0.2174377E-03  0.6258530E+04  0.1499013E+04 -0.8323600E-03 -0.2584457E-03
  0.8238096E+00 -0.1370645E-02 -0.1296997E-03  0.6201806E+04  0.1639511E+04 -0.2486609E-02  0.1277924E-03
  0.8547620E+00  0.2856241E-03  0.1144409E-03  0.6143232E+04  0.1783632E+04 -0.2097552E-02  0.1907349E-04
  0.8857143E+00 -0.1205937E-03  0.7629395E-05  0.6079484E+04  0.1931160E+04  0.1326530E-02  0.5149841E-04
  0.9166667E+00  0.6658381E-04  0.2212524E-03  0.6012788E+04  0.2081357E+04  0.1277577E-02 -0.1506805E-03
  0.9476191E+00  0.1078850E-02  0.7400513E-03  0.5938746E+04  0.2233935E+04  0.9782111E-03 -0.2498627E-03
  0.9785714E+00  0.1091505E-03  0.6484985E-03  0.5860537E+04  0.2387928E+04  0.6432081E-03 -0.2002716E-03
  0.1009524E+01  0.3778710E-03 -0.4653931E-03  0.5776670E+04  0.2543022E+04 -0.3325265E-03  0.4634857E-03
  0.1040476E+01 -0.6012731E-03 -0.2593994E-03  0.5690281E+04  0.2698323E+04 -0.1466520E-02  0.6408691E-03
  0.1071429E+01  0.2563477E-03  0.9078979E-03  0.5601957E+04  0.2853182E+04  0.3916423E-03 -0.1201630E-02
  0.1102381E+01 -0.1661000E-03  0.8087158E-03  0.5512246E+04  0.3007093E+04  0.1384167E-04 -0.4596710E-03
  0.1133333E+01  0.1117482E-02 -0.1296997E-03  0.5420437E+04  0.3159465E+04 -0.1672857E-02 -0.3051758E-04
  0.1164286E+01 -0.1729953E-02 -0.1144409E-03  0.5325676E+04  0.3310263E+04  0.7208139E-04  0.4577637E-03
  0.1195238E+01  0.8936422E-03 -0.7934570E-03  0.5228210E+04  0.3458822E+04  0.1046838E-02  0.2250671E-03
  0.1226190E+01  0.9208606E-03  0.7629395E-04  0.5129649E+04  0.3604241E+04 -0.2227487E-02 -0.6637573E-03
  0.1257143E+01 -0.4612316E-03  0.1220703E-03  0.5027783E+04  0.3749441E+04 -0.2306158E-03 -0.1388550E-02
  0.1288095E+01  0.1622903E-02  0.6103516E-04  0.4928008E+04  0.3884748E+04 -0.1344522E-02 -0.1045227E-02
  0.1319048E+01  0.8328985E-03 -0.1373291E-03  0.4827400E+04  0.4018563E+04 -0.8618186E-03  0.4119873E-03
  0.1350000E+01  0.7459852E-03  0.8697510E-03  0.4726405E+04  0.4147928E+04 -0.5368833E-03  0.8544922E-03
  0.1380952E+01 -0.1657420E-03  0.3814697E-03  0.4627374E+04  0.4272006E+04 -0.6408691E-03 -0.6904602E-03
  0.1411905E+01  0.5187474E-03  0.9155273E-04  0.4516128E+04  0.4383792E+04  0.4214822E-03 -0.2403259E-03
  0.1442857E+01 -0.8248811E-03 -0.6713867E-03  0.4417698E+04  0.4498197E+04 -0.8724704E-03 -0.4882812E-03
  0.1473810E+01  0.2381258E-03  0.2441406E-03  0.4320908E+04  0.4606850E+04  0.2898923E-03 -0.6065369E-03
  0.1504762E+01 -0.3042100E-03 -0.1144409E-02  0.4224721E+04  0.4709737E+04 -0.6946129E-03  0.2746582E-03
  0.1535714E+01  0.3179506E-03 -0.9918213E-03  0.4129799E+04  0.4807366E+04 -0.1594721E-02 -0.5950928E-03
  0.1566667E+01 -0.4869826E-04  0.2136230E-03  0.4034312E+04  0.4899665E+04 -0.7548230E-03  0.2723694E-02
  0.1597619E+01  0.8118313E-03 -0.1159668E-02  0.3942006E+04  0.4985646E+04 -0.2292229E-03  0.2174377E-03
  0.1628572E+01  0.4403633E-03  0.1083374E-02  0.3851824E+04  0.5064923E+04  0.9369431E-04  0.8773804E-03
  0.1659524E+01  0.1838936E-04 -0.9918213E-03  0.3762841E+04  0.5138755E+04  0.3103204E-03  0.7247925E-03
  0.1690476E+01  0.1534475E-03  0.1770020E-02  0.3677460E+04  0.5205610E+04 -0.6070204E-03  0.1281738E-02
  0.1721429E+01 -0.7179862E-03 -0.5493164E-03  0.3594357E+04  0.5265958E+04  0.8952667E-03 -0.3524780E-02
  0.1752381E+01  0.4963253E-03 -0.4577637E-04  0.3514020E+04  0.5320555E+04 -0.3765977E-03 -0.7095337E-03
  0.1783333E+01 -0.1711266E-04  0.9613037E-03  0.3435858E+04  0.5369776E+04 -0.9411963E-04  0.4959106E-03
  0.1814286E+01  0.3364143E-03  0.1525879E-03  0.3358944E+04  0.5414056E+04  0.2544133E-03 -0.1434326E-02
  0.1845238E+01  0.4796182E-03 -0.7171631E-03  0.3285923E+04  0.5452404E+04 -0.1213517E-02  0.5111694E-03
  0.1876190E+01 -0.3090486E-03  0.5798340E-03  0.3215170E+04  0.5484897E+04 -0.3253143E-04 -0.1983643E-03
  0.1907143E+01  0.1368148E-02  0.2136230E-03  0.3145554E+04  0.5513275E+04 -0.6920747E-03 -0.3433228E-03
  0.1938095E+01  0.1086486E-02  0.4272461E-03  0.3079280E+04  0.5535986E+04 -0.3700350E-03  0.1525879E-04
  0.1969048E+01  0.2712264E-03  0.1220703E-03  0.3015222E+04  0.5553125E+04 -0.3661556E-03  0.7629395E-05
  0.2000000E+01  0.1091003E-02 -0.6408691E-03  0.2953979E+04  0.5564545E+04 -0.5245209E-03 -0.2395630E-02
Zone t="Motion of body    1 in DoF   3",I=    64,F=POINT
  0.5000000E-01 -0.1304987E+05 -0.1332512E-03  0.1144409E-02  0.2258965E-05  0.2520638E+05  0.1189978E-03
  0.8095238E-01 -0.1315594E+05 -0.5522216E-03 -0.4329401E-03 -0.8691295E-06  0.2533142E+05  0.5549247E-03
  0.1119048E+00 -0.1321527E+05 -0.1551627E-02  0.2194465E-03  0.1393079E-05  0.2537661E+05  0.1468305E-02
  0.1428571E+00 -0.1324444E+05 -0.3474799E-02  0.2553463E-03 -0.4077128E-05  0.2538282E+05  0.3342375E-02
  0.1738095E+00 -0.1324731E+05 -0.6777974E-02 -0.1371723E-02 -0.1087314E-04  0.2538735E+05  0.6392778E-02
  0.2047619E+00 -0.1325909E+05 -0.1262366E-01  0.7451967E-04 -0.1137276E-05  0.2538672E+05  0.1195484E-01
  0.2357143E+00 -0.1326135E+05 -0.2227639E-01  0.2144322E-03  0.3226611E-05  0.2539201E+05  0.2118273E-01
  0.2666667E+00 -0.1326641E+05 -0.3800086E-01 -0.6598234E-03 -0.2378802E-05  0.2539310E+05  0.3608862E-01
  0.2976190E+00 -0.1327582E+05 -0.6369750E-01 -0.1111908E-02 -0.1800654E-04  0.2539668E+05  0.6035275E-01
  0.3285715E+00 -0.1328077E+05 -0.1053042E+00  0.9346007E-03  0.2986687E-04  0.2539812E+05  0.9959584E-01
  0.3595238E+00 -0.1327810E+05 -0.1726450E+00  0.1756024E-02  0.5084276E-04  0.2540392E+05  0.1627843E+00
  0.3904762E+00 -0.1328973E+05 -0.2810574E+00 -0.1440979E-03  0.1616986E-04  0.2540477E+05  0.2643023E+00
  0.4214286E+00 -0.1330217E+05 -0.4519109E+00  0.1317040E-02  0.8703256E-04  0.2540973E+05  0.4240519E+00
  0.4523810E+00 -0.1330338E+05 -0.7199088E+00 -0.3541645E-03  0.5610753E-04  0.2541925E+05  0.6736152E+00
  0.4833333E+00 -0.1332047E+05 -0.1119100E+01 -0.5149841E-03  0.3009103E-05  0.2542763E+05  0.1042792E+01
  0.5142857E+00 -0.1333637E+05 -0.1710250E+01  0.1001358E-03  0.6625429E-04  0.2543630E+05  0.1587937E+01
  0.5452381E+00 -0.1335004E+05 -0.2552191E+01  0.9375160E-03  0.1082905E-03  0.2544231E+05  0.2360651E+01
  0.5761905E+00 -0.1335731E+05 -0.3714335E+01 -0.4313287E-02 -0.3319867E-03  0.2545204E+05  0.3425132E+01
  0.6071429E+00 -0.1337267E+05 -0.5311823E+01 -0.3816941E-03  0.1667812E-04  0.2546522E+05  0.4877872E+01
  0.6380953E+00 -0.1340265E+05 -0.7432693E+01  0.1784510E-02  0.3069863E-03  0.2547792E+05  0.6792489E+01
  0.6690477E+00 -0.1341959E+05 -0.1021256E+02  0.9664352E-03  0.1269430E-03  0.2548993E+05  0.9291491E+01
  0.7000000E+00 -0.1344057E+05 -0.1381695E+02 -0.3269740E-03 -0.4477799E-04  0.2550589E+05  0.1251954E+02
  0.7309524E+00 -0.1346486E+05 -0.1841406E+02  0.6340846E-03  0.1576990E-03  0.2552136E+05  0.1660326E+02
  0.7619048E+00 -0.1348560E+05 -0.2421618E+02 -0.9738206E-03 -0.1878738E-03  0.2553654E+05  0.2172066E+02
  0.7928572E+00 -0.1352126E+05 -0.3147667E+02  0.2362363E-02  0.3809929E-03  0.2555899E+05  0.2808069E+02
  0.8238096E+00 -0.1354481E+05 -0.4044674E+02  0.1366014E-03 -0.1590550E-03  0.2557440E+05  0.3587059E+02
  0.8547620E+00 -0.1358290E+05 -0.5142409E+02  0.1535230E-02  0.3787279E-03  0.2559518E+05  0.4534831E+02
  0.8857143E+00 -0.1360757E+05 -0.6468651E+02  0.8376952E-03  0.2807379E-03  0.2561224E+05  0.5673296E+02
  0.9166667E+00 -0.1364299E+05 -0.8066007E+02  0.5201860E-03  0.1108050E-03  0.2563946E+05  0.7033420E+02
  0.9476191E+00 -0.1366872E+05 -0.9974294E+02 -0.2314697E-03  0.1091957E-03  0.2565829E+05  0.8638874E+02
  0.9785714E+00 -0.1371401E+05 -0.1224208E+03  0.1816576E-02  0.9902716E-03  0.2567952E+05  0.1052949E+03
  0.1009524E+01 -0.1375224E+05 -0.1490373E+03  0.5516916E-03  0.4551411E-03  0.2570188E+05  0.1273148E+03
  0.1040476E+01 -0.1379112E+05 -0.1801304E+03 -0.7387594E-03  0.7879734E-04  0.2572710E+05  0.1528075E+03
  0.1071429E+01 -0.1383075E+05 -0.2162141E+03  0.2912394E-02  0.1832485E-02  0.2575013E+05  0.1821111E+03
  0.1102381E+01 -0.1386827E+05 -0.2578145E+03  0.5052208E-03  0.8280277E-03  0.2577241E+05  0.2155549E+03
  0.1133333E+01 -0.1391424E+05 -0.3055100E+03 -0.6294250E-03 -0.5364418E-03  0.2579620E+05  0.2535664E+03
  0.1164286E+01 -0.1395078E+05 -0.3598681E+03 -0.6290739E-03 -0.6198883E-04  0.2581849E+05  0.2963579E+03
  0.1195238E+01 -0.1398719E+05 -0.4215912E+03  0.6223580E-03  0.2346039E-03  0.2583941E+05  0.3443398E+03
  0.1226190E+01 -0.1403460E+05 -0.4914042E+03  0.9644147E-04  0.5431175E-03  0.2586317E+05  0.3980058E+03
  0.1257143E+01 -0.1406737E+05 -0.5694674E+03  0.3004074E-03  0.8797646E-03  0.2587815E+05  0.4572548E+03
  0.1288095E+01 -0.1411661E+05 -0.6573743E+03 -0.1978284E-02 -0.1599312E-02  0.2589656E+05  0.5230496E+03
  0.1319048E+01 -0.1416182E+05 -0.7546588E+03 -0.1159695E-02 -0.2255440E-03  0.2591695E+05  0.5952078E+03
  0.1350000E+01 -0.1419503E+05 -0.8620018E+03 -0.2740931E-03 -0.4816055E-03  0.2592857E+05  0.6737360E+03
  0.1380952E+01 -0.1422775E+05 -0.9800808E+03  0.3314840E-04  0.1535416E-03  0.2594186E+05  0.7591045E+03
  0.1411905E+01 -0.1428397E+05 -0.1108325E+04 -0.8888952E-03 -0.7095337E-03  0.2596187E+05  0.8523603E+03
  0.1442857E+01 -0.1430303E+05 -0.1249004E+04  0.1049608E-02 -0.1716614E-04  0.2596449E+05  0.9510574E+03
  0.1473810E+01 -0.1432592E+05 -0.1402039E+04  0.2070660E-04  0.3805161E-03  0.2596631E+05  0.1056663E+04
  0.1504762E+01 -0.1435254E+05 -0.1567457E+04  0.1239656E-02  0.1533508E-02  0.2596448E+05  0.1169029E+04
  0.1535714E+01 -0.1437242E+05 -0.1745298E+04 -0.4769258E-03 -0.8907318E-03  0.2596359E+05  0.1288145E+04
  0.1566667E+01 -0.1437745E+05 -0.1934910E+04  0.6233377E-03  0.3032684E-03  0.2594667E+05  0.1412563E+04
  0.1597619E+01 -0.1438515E+05 -0.2137266E+04 -0.7784029E-03 -0.9498596E-03  0.2593599E+05  0.1543554E+04
  0.1628572E+01 -0.1439208E+05 -0.2351539E+04 -0.1536587E-02 -0.1255035E-02  0.2592154E+05  0.1679937E+04
  0.1659524E+01 -0.1437767E+05 -0.2576596E+04  0.2537731E-02  0.3398895E-02  0.2589416E+05  0.1819754E+04
  0.1690476E+01 -0.1436160E+05 -0.2812782E+04  0.1909068E-02  0.3208160E-02  0.2586625E+05  0.1963740E+04
  0.1721429E+01 -0.1434096E+05 -0.3057935E+04  0.9927710E-03  0.4119873E-03  0.2582943E+05  0.2110083E+04
  0.1752381E+01 -0.1431334E+05 -0.3311529E+04 -0.4005432E-03 -0.1144409E-03  0.2579321E+05  0.2258889E+04
  0.1783333E+01 -0.1427326E+05 -0.3572271E+04  0.9326400E-03  0.1430511E-02  0.2575019E+05  0.2407927E+04
  0.1814286E+01 -0.1421534E+05 -0.3838432E+04  0.2102589E-04 -0.8888245E-03  0.2569531E+05  0.2554743E+04
  0.1845238E+01 -0.1415803E+05 -0.4110707E+04  0.1612510E-03  0.1041412E-02  0.2564418E+05  0.2701664E+04
  0.1876190E+01 -0.1409838E+05 -0.4386042E+04  0.3212479E-03 -0.2670288E-03  0.2558807E+05  0.2845659E+04
  0.1907143E+01 -0.1401786E+05 -0.4661331E+04  0.2040220E-03  0.1426697E-02  0.2551954E+05  0.2983542E+04
  0.1938095E+01 -0.1393560E+05 -0.4937351E+04  0.2480022E-03 -0.1144409E-02  0.2545238E+05  0.3117789E+04
  0.1969048E+01 -0.1384632E+05 -0.5209270E+04 -0.4455862E-03 -0.4005432E-03  0.2537721E+05  0.3244482E+04
  0.2000000E+01 -0.1375531E+05 -0.5476238E+04  0.5989075E-03 -0.1419067E-02  0.2530073E+05  0.3363445E+04
