VARIABLES="w (rad/s)"
"A   1   1" "B   1   1"
"A   1   2" "B   1   2"
"A   1   3" "B   1   3"
Zone t="Motion of body    1 in DoF   1",I=    64,F=POINT
  0.5000000E-01  0.1989701E+06  0.3496017E-01 -0.4440308E-01 -0.1824433E-03 -0.2957664E+06 -0.4084355E-01
  0.8095238E-01  0.1995746E+06  0.1541569E+00  0.1390120E-01  0.7514516E-04 -0.2962998E+06 -0.1799951E+00
  0.1119048E+00  0.1997400E+06  0.4323414E+00  0.2454392E-02 -0.9147078E-04 -0.2967514E+06 -0.5053107E+00
  0.1428571E+00  0.2003996E+06  0.9755753E+00 -0.1068115E-03 -0.7641967E-04 -0.2974549E+06 -0.1141589E+01
  0.1738095E+00  0.2007470E+06  0.1942784E+01 -0.1145663E-01 -0.1980290E-03 -0.2977780E+06 -0.2274070E+01
  0.2047619E+00  0.2015512E+06  0.3590603E+01 -0.2205782E-01 -0.4887152E-03 -0.2988248E+06 -0.4208584E+01
  0.2357143E+00  0.2019306E+06  0.6329135E+01 -0.4311301E-01 -0.1314588E-02 -0.2994525E+06 -0.7428406E+01
  0.2666667E+00  0.2028773E+06  0.1082121E+02 -0.2826690E-01 -0.1113147E-02 -0.3005610E+06 -0.1271557E+02
  0.2976190E+00  0.2040663E+06  0.1819838E+02 -0.1999512E-01 -0.1201168E-02 -0.3019432E+06 -0.2141542E+02
  0.3285715E+00  0.2046921E+06  0.3015562E+02 -0.2582052E-01 -0.1720056E-02 -0.3028151E+06 -0.3555321E+02
  0.3595238E+00  0.2061681E+06  0.4968111E+02 -0.2809638E-01 -0.1568586E-02 -0.3046900E+06 -0.5868450E+02
  0.3904762E+00  0.2074575E+06  0.8123084E+02 -0.2008577E-01 -0.1644969E-02 -0.3062865E+06 -0.9614169E+02
  0.4214286E+00  0.2091266E+06  0.1311860E+03 -0.1824847E-01 -0.2267838E-02 -0.3082188E+06 -0.1555607E+03
  0.4523810E+00  0.2103426E+06  0.2098018E+03 -0.3649581E-01 -0.3313303E-02 -0.3099832E+06 -0.2494304E+03
  0.4833333E+00  0.2125459E+06  0.3279684E+03 -0.1881566E-01 -0.2187014E-02 -0.3123401E+06 -0.3905837E+03
  0.5142857E+00  0.2149355E+06  0.5045398E+03 -0.1263936E-01 -0.9901524E-03 -0.3156331E+06 -0.6026743E+03
  0.5452381E+00  0.2168448E+06  0.7569625E+03 -0.1561594E-01 -0.2816200E-02 -0.3181101E+06 -0.9066635E+03
  0.5761905E+00  0.2192827E+06  0.1109940E+04 -0.4925688E-02 -0.3384590E-02 -0.3212000E+06 -0.1332985E+04
  0.6071429E+00  0.2222610E+06  0.1599646E+04 -0.3583840E-01 -0.8969307E-02 -0.3249003E+06 -0.1926081E+04
  0.6380953E+00  0.2253879E+06  0.2255365E+04 -0.2544346E-01 -0.7492065E-02 -0.3286971E+06 -0.2722527E+04
  0.6690477E+00  0.2288523E+06  0.3127261E+04 -0.1058232E-01 -0.5956650E-02 -0.3331478E+06 -0.3786256E+04
  0.7000000E+00  0.2319791E+06  0.4267165E+04 -0.2162388E-01 -0.4737854E-02 -0.3371178E+06 -0.5181261E+04
  0.7309524E+00  0.2353773E+06  0.5734207E+04 -0.2738828E-01 -0.1197815E-01 -0.3416957E+06 -0.6985978E+04
  0.7619048E+00  0.2399876E+06  0.7621837E+04 -0.2803802E-01 -0.1491547E-01 -0.3471626E+06 -0.9305366E+04
  0.7928572E+00  0.2446256E+06  0.1000879E+05 -0.2371023E-01 -0.1111603E-01 -0.3533115E+06 -0.1226069E+05
  0.8238096E+00  0.2489167E+06  0.1298278E+05  0.9483381E-02  0.5790710E-02 -0.3587484E+06 -0.1595015E+05
  0.8547620E+00  0.2533334E+06  0.1665607E+05 -0.1942244E-01 -0.9918213E-02 -0.3641982E+06 -0.2051683E+05
  0.8857143E+00  0.2581746E+06  0.2116301E+05 -0.9027297E-02 -0.4653931E-02 -0.3705493E+06 -0.2615018E+05
  0.9166667E+00  0.2626727E+06  0.2660337E+05 -0.1864346E-01 -0.1190186E-01 -0.3766970E+06 -0.3298418E+05
  0.9476191E+00  0.2674505E+06  0.3314349E+05 -0.9983389E-02 -0.1412964E-01 -0.3828034E+06 -0.4119735E+05
  0.9785714E+00  0.2722104E+06  0.4093096E+05 -0.6611399E-02 -0.3051758E-02 -0.3888142E+06 -0.5100526E+05
  0.1009524E+01  0.2767351E+06  0.5009146E+05 -0.1487300E-01 -0.1300049E-01 -0.3942609E+06 -0.6254300E+05
  0.1040476E+01  0.2806732E+06  0.6073682E+05 -0.2475485E-01 -0.2490234E-01 -0.3998820E+06 -0.7609272E+05
  0.1071429E+01  0.2834723E+06  0.7287317E+05 -0.7519532E-02 -0.1812744E-01 -0.4035832E+06 -0.9154099E+05
  0.1102381E+01  0.2853188E+06  0.8657470E+05 -0.1605633E-01  0.4699707E-02 -0.4064042E+06 -0.1090982E+06
  0.1133333E+01  0.2860445E+06  0.1017904E+06 -0.3662109E-02 -0.0000000E+00 -0.4074402E+06 -0.1285648E+06
  0.1164286E+01  0.2858374E+06  0.1184749E+06 -0.1614623E-01 -0.2911377E-01 -0.4070840E+06 -0.1498885E+06
  0.1195238E+01  0.2847734E+06  0.1366222E+06 -0.7455529E-02 -0.1324463E-01 -0.4062682E+06 -0.1732757E+06
  0.1226190E+01  0.2817695E+06  0.1557676E+06 -0.1572929E-01 -0.2166748E-01 -0.4024944E+06 -0.1979291E+06
  0.1257143E+01  0.2767820E+06  0.1755993E+06 -0.2621737E-02 -0.7141113E-02 -0.3962200E+06 -0.2235950E+06
  0.1288095E+01  0.2705915E+06  0.1958970E+06 -0.9761112E-02 -0.1922607E-01 -0.3885748E+06 -0.2500386E+06
  0.1319048E+01  0.2625398E+06  0.2159933E+06 -0.4719758E-02 -0.1452637E-01 -0.3777272E+06 -0.2758314E+06
  0.1350000E+01  0.2533367E+06  0.2357168E+06 -0.8590133E-02 -0.3076172E-01 -0.3658165E+06 -0.3014012E+06
  0.1380952E+01  0.2430929E+06  0.2546954E+06 -0.5613130E-02 -0.7324219E-02 -0.3528807E+06 -0.3262164E+06
  0.1411905E+01  0.2309508E+06  0.2719411E+06 -0.6095281E-02 -0.1171875E-01 -0.3373733E+06 -0.3488267E+06
  0.1442857E+01  0.2184061E+06  0.2877166E+06 -0.2411191E-02 -0.1257324E-01 -0.3209698E+06 -0.3694297E+06
  0.1473810E+01  0.2054073E+06  0.3017452E+06 -0.3230229E-02  0.5615234E-02 -0.3042395E+06 -0.3880668E+06
  0.1504762E+01  0.1922091E+06  0.3137411E+06 -0.6773743E-02 -0.2563477E-01 -0.2868776E+06 -0.4036773E+06
  0.1535714E+01  0.1792494E+06  0.3237288E+06  0.3914766E-02 -0.2197266E-02 -0.2693981E+06 -0.4159303E+06
  0.1566667E+01  0.1666842E+06  0.3321309E+06 -0.1967410E-02 -0.9277344E-02 -0.2531354E+06 -0.4271233E+06
  0.1597619E+01  0.1543462E+06  0.3384938E+06 -0.1562536E-01 -0.1843262E-01 -0.2371618E+06 -0.4357060E+06
  0.1628572E+01  0.1424258E+06  0.3428425E+06  0.2061275E-03 -0.4882812E-03 -0.2214870E+06 -0.4413403E+06
  0.1659524E+01  0.1310443E+06  0.3453696E+06 -0.6620169E-03 -0.9643555E-02 -0.2063121E+06 -0.4442712E+06
  0.1690476E+01  0.1204099E+06  0.3466555E+06 -0.6832928E-02 -0.1342773E-01 -0.1923311E+06 -0.4459351E+06
  0.1721429E+01  0.1104524E+06  0.3465635E+06 -0.1346446E-01 -0.8056641E-02 -0.1791769E+06 -0.4457491E+06
  0.1752381E+01  0.1013044E+06  0.3451282E+06 -0.7464472E-02 -0.6713867E-02 -0.1668039E+06 -0.4428023E+06
  0.1783333E+01  0.9297148E+05  0.3427994E+06 -0.2243898E-02 -0.1672363E-01 -0.1555695E+06 -0.4387154E+06
  0.1814286E+01  0.8540417E+05  0.3402515E+06  0.1995883E-02 -0.2624512E-01 -0.1457692E+06 -0.4353029E+06
  0.1845238E+01  0.7830695E+05  0.3366913E+06 -0.3677762E-02 -0.2075195E-02 -0.1365438E+06 -0.4304362E+06
  0.1876190E+01  0.7182494E+05  0.3322772E+06 -0.4249418E-02 -0.7568359E-02 -0.1280046E+06 -0.4241042E+06
  0.1907143E+01  0.6585627E+05  0.3270009E+06 -0.5686614E-02  0.4272461E-03 -0.1200015E+06 -0.4162528E+06
  0.1938095E+01  0.6039144E+05  0.3214165E+06 -0.6745266E-02 -0.1373291E-01 -0.1127828E+06 -0.4084702E+06
  0.1969048E+01  0.5542695E+05  0.3154484E+06 -0.3797169E-03 -0.2203369E-01 -0.1062309E+06 -0.4002023E+06
  0.2000000E+01  0.5098455E+05  0.3090064E+06 -0.5401611E-02 -0.7812500E-02 -0.1003542E+06 -0.3907178E+06
Zone t="Motion of body    1 in DoF   2",I=    64,F=POINT
  0.5000000E-01  0.1770020E-01 -0.1907349E-05  0.2281053E+06  0.5555683E+03  0.4455566E-01  0.8583069E-04
  0.8095238E-01  0.4080828E-01 -0.7438660E-04  0.2251477E+06  0.9192381E+03 -0.3769818E-01  0.4043579E-03
  0.1119048E+00  0.1568084E-01 -0.1869202E-03  0.2235891E+06  0.1312234E+04  0.6108710E-01  0.3471375E-03
  0.1428571E+00  0.1388550E-01 -0.1144409E-03  0.2225942E+06  0.1748281E+04  0.4187011E-01  0.6637573E-03
  0.1738095E+00  0.2370338E-01 -0.1373291E-03  0.2221270E+06  0.2243246E+04 -0.2106967E-02  0.6179810E-03
  0.2047619E+00  0.1371162E-01  0.2555847E-03  0.2221746E+06  0.2819230E+04  0.1371162E-01  0.8697510E-03
  0.2357143E+00  0.1657197E-01  0.1220703E-03  0.2218779E+06  0.3504758E+04  0.3107244E-02  0.7324219E-03
  0.2666667E+00  0.3238678E-01  0.4806519E-03  0.2223885E+06  0.4319730E+04  0.9155273E-03  0.1190186E-02
  0.2976190E+00  0.1138184E-01 -0.1296997E-03  0.2223437E+06  0.5322527E+04  0.5742188E-02  0.3356934E-03
  0.3285715E+00  0.2182670E-01  0.3585815E-03  0.2230471E+06  0.6528773E+04  0.3417968E-01  0.4882812E-03
  0.3595238E+00  0.1629760E-01  0.5950928E-03  0.2228244E+06  0.8005222E+04  0.4074400E-01  0.2685547E-02
  0.3904762E+00  0.2751048E-01  0.9002686E-03  0.2233049E+06  0.9779682E+04  0.5252000E-01  0.1281738E-02
  0.4214286E+00  0.1404843E-01  0.4882812E-03  0.2224408E+06  0.1181993E+05  0.6140757E-01  0.2990723E-02
  0.4523810E+00  0.2644428E-01 -0.5645752E-03  0.2218149E+06  0.1422698E+05  0.4641242E-01  0.6103516E-02
  0.4833333E+00  0.3434806E-01  0.6103516E-04  0.2203725E+06  0.1673786E+05  0.3990436E-01  0.2807617E-02
  0.5142857E+00  0.3346761E-01 -0.9155273E-04  0.2182995E+06  0.1950394E+05  0.3180610E-01  0.6103516E-02
  0.5452381E+00  0.2160485E-01  0.1525879E-03  0.2164778E+06  0.2230167E+05  0.2328398E-01  0.1025391E-01
  0.5761905E+00  0.1864346E-01 -0.3784180E-02  0.2133177E+06  0.2509199E+05  0.6609955E-01  0.5737305E-02
  0.6071429E+00  0.3046013E-01  0.7385254E-02  0.2103525E+06  0.2794465E+05  0.1367187E-01  0.9033203E-02
  0.6380953E+00  0.2209564E-01 -0.4394531E-02  0.2075342E+06  0.3058213E+05 -0.4591301E-02  0.8056641E-02
  0.6690477E+00  0.3384519E-01 -0.4882812E-03  0.2038970E+06  0.3317026E+05 -0.7298153E-02 -0.1220703E-02
  0.7000000E+00  0.2092634E-01 -0.2990723E-02  0.2004944E+06  0.3566559E+05  0.1953125E-01  0.2587891E-01
  0.7309524E+00  0.2479975E-01  0.3051758E-03  0.1974934E+06  0.3791227E+05 -0.1336014E-01 -0.2441406E-03
  0.7619048E+00  0.3012085E-01  0.4272461E-02  0.1936380E+06  0.4003719E+05 -0.1922607E-02 -0.1831055E-02
  0.7928572E+00  0.3187025E-01 -0.6530762E-02  0.1901171E+06  0.4196507E+05 -0.1601210E-01  0.1831055E-01
  0.8238096E+00  0.2378254E-01 -0.3173828E-02  0.1870769E+06  0.4363759E+05 -0.2370845E-02  0.1464844E-01
  0.8547620E+00  0.2477789E-01 -0.2685547E-02  0.1837486E+06  0.4508316E+05 -0.5712482E-03  0.1269531E-01
  0.8857143E+00  0.3369731E-01  0.4028320E-02  0.1801760E+06  0.4632763E+05  0.2039756E-01  0.7812500E-02
  0.9166667E+00  0.3022905E-01 -0.1220703E-02  0.1771420E+06  0.4728917E+05  0.5859375E-02 -0.1220703E-02
  0.9476191E+00  0.3059425E-01  0.1281738E-01  0.1745059E+06  0.4797521E+05  0.3606902E-02  0.5126953E-02
  0.9785714E+00  0.2900284E-01  0.4638672E-02  0.1718625E+06  0.4839721E+05  0.5987682E-02 -0.2929688E-02
  0.1009524E+01  0.3821031E-01  0.1708984E-02  0.1688179E+06  0.4859796E+05 -0.3772664E-01 -0.9765625E-03
  0.1040476E+01  0.2466686E-01  0.2563477E-02  0.1662755E+06  0.4860033E+05 -0.3754291E-02  0.2490234E-01
  0.1071429E+01  0.3164469E-01  0.8056641E-02  0.1640775E+06  0.4832212E+05  0.5924480E-02  0.1757812E-01
  0.1102381E+01  0.3369061E-01  0.6469727E-02  0.1624351E+06  0.4782267E+05 -0.5758133E-02 -0.3906250E-02
  0.1133333E+01  0.2940458E-01 -0.1953125E-02  0.1605558E+06  0.4707754E+05  0.1292509E-01  0.1757812E-01
  0.1164286E+01  0.2454699E-01  0.5859375E-02  0.1584789E+06  0.4611049E+05 -0.1677531E-02  0.2441406E-02
  0.1195238E+01  0.3009021E-01  0.2087402E-01  0.1569008E+06  0.4510378E+05  0.2451133E-02 -0.2343750E-01
  0.1226190E+01  0.3524780E-01  0.3491211E-01  0.1556361E+06  0.4389879E+05 -0.1831766E-01 -0.6005859E-01
  0.1257143E+01  0.3362135E-01  0.2294922E-01  0.1547901E+06  0.4262062E+05 -0.1631303E-01 -0.4882812E-01
  0.1288095E+01  0.3245807E-01  0.3039551E-01  0.1543710E+06  0.4120630E+05  0.0000000E+00 -0.4174805E-01
  0.1319048E+01  0.2809876E-01  0.3222656E-01  0.1531683E+06  0.3945431E+05 -0.5922833E-02 -0.6079102E-01
  0.1350000E+01  0.2777100E-01  0.3918457E-01  0.1522703E+06  0.3768869E+05 -0.5425347E-02 -0.4479980E-01
  0.1380952E+01  0.2202159E-01  0.3344727E-01  0.1517166E+06  0.3602602E+05  0.1520407E-01 -0.3405762E-01
  0.1411905E+01  0.1811293E-01  0.2429199E-01  0.1513933E+06  0.3429023E+05 -0.1037495E-02 -0.2246094E-01
  0.1442857E+01  0.2631159E-01  0.3369141E-01  0.1513748E+06  0.3260226E+05 -0.6768255E-02 -0.1989746E-01
  0.1473810E+01  0.1679305E-01  0.2673340E-01  0.1516339E+06  0.3106018E+05  0.9939165E-03 -0.3784180E-02
  0.1504762E+01  0.2683133E-01  0.4626465E-01  0.1516605E+06  0.2922673E+05  0.0000000E+00 -0.2905273E-01
  0.1535714E+01  0.1697061E-01  0.1660156E-01  0.1514810E+06  0.2708292E+05 -0.6359011E-03 -0.2087402E-01
  0.1566667E+01  0.1390822E-01  0.2661133E-01  0.1515600E+06  0.2528126E+05  0.8415059E-02 -0.4028320E-01
  0.1597619E+01  0.1104090E-01  0.9643555E-02  0.1517583E+06  0.2361611E+05  0.1833784E-02 -0.3222656E-01
  0.1628572E+01  0.1101845E-01  0.2575684E-01  0.1521001E+06  0.2199405E+05  0.1019394E-01 -0.2709961E-01
  0.1659524E+01  0.1169563E-01  0.2270508E-01  0.1525795E+06  0.2050827E+05  0.1118073E-01 -0.2709961E-01
  0.1690476E+01  0.8665272E-02  0.3491211E-01  0.1531472E+06  0.1927265E+05  0.2772887E-01 -0.3442383E-01
  0.1721429E+01  0.1148778E-01  0.3295898E-01  0.1537343E+06  0.1803367E+05  0.2723029E-01 -0.3631592E-01
  0.1752381E+01  0.8881611E-02  0.2148438E-01  0.1541076E+06  0.1627371E+05  0.1476786E-01 -0.1428223E-01
  0.1783333E+01  0.1553830E-01  0.3747559E-01  0.1545608E+06  0.1465352E+05  0.1505914E-01 -0.5877686E-01
  0.1814286E+01  0.5348987E-02  0.2563477E-01  0.1550380E+06  0.1344488E+05  0.2126138E-01 -0.1770020E-01
  0.1845238E+01  0.7343120E-02  0.3021240E-01  0.1555501E+06  0.1236395E+05  0.2090474E-01 -0.4827881E-01
  0.1876190E+01  0.2797703E-02  0.2905273E-01  0.1561026E+06  0.1134748E+05  0.2186112E-01 -0.3973389E-01
  0.1907143E+01  0.4608497E-02  0.1226807E-01  0.1566790E+06  0.1040211E+05  0.3021126E-01 -0.1770020E-01
  0.1938095E+01  0.8062040E-02  0.1751709E-01  0.1572272E+06  0.9582975E+04  0.3980632E-01 -0.2349854E-01
  0.1969048E+01  0.6974393E-02  0.1635742E-01  0.1577756E+06  0.8747885E+04  0.7439352E-02 -0.2709961E-01
  0.2000000E+01  0.7019043E-02  0.2642822E-01  0.1582864E+06  0.7852872E+04  0.2880859E-01 -0.3619385E-01
Zone t="Motion of body    1 in DoF   3",I=    64,F=POINT
  0.5000000E-01 -0.2951712E+06 -0.4056419E-01  0.1667786E+00  0.6788948E-03  0.7924078E+06  0.4767456E-01
  0.8095238E-01 -0.2957626E+06 -0.1787825E+00  0.1347710E+00  0.1081722E-02  0.7937557E+06  0.2092624E+00
  0.1119048E+00 -0.2961548E+06 -0.5009903E+00  0.7922234E-01  0.6637229E-03  0.7944646E+06  0.5855163E+00
  0.1428571E+00 -0.2968782E+06 -0.1131348E+01  0.1036072E+00  0.1324590E-02  0.7953342E+06  0.1323156E+01
  0.1738095E+00 -0.2971233E+06 -0.2255167E+01  0.1286128E+00  0.1516113E-02  0.7953148E+06  0.2640319E+01
  0.2047619E+00 -0.2980855E+06 -0.4173131E+01  0.1383085E+00  0.2851143E-02  0.7977807E+06  0.4892918E+01
  0.2357143E+00 -0.2988251E+06 -0.7363048E+01  0.1896714E+00  0.5814370E-02  0.7978698E+06  0.8639445E+01
  0.2666667E+00 -0.2997754E+06 -0.1260469E+02  0.2007294E+00  0.6862208E-02  0.7999181E+06  0.1480988E+02
  0.2976190E+00 -0.3013919E+06 -0.2123157E+02  0.1622168E+00  0.6679013E-02  0.8007724E+06  0.2499092E+02
  0.3285715E+00 -0.3019676E+06 -0.3524500E+02  0.1570594E+00  0.7640958E-02  0.8030528E+06  0.4156300E+02
  0.3595238E+00 -0.3041186E+06 -0.5816788E+02  0.2806243E+00  0.1507190E-01  0.8042694E+06  0.6871602E+02
  0.3904762E+00 -0.3054893E+06 -0.9530428E+02  0.1120739E+00  0.1025558E-01  0.8073244E+06  0.1127984E+03
  0.4214286E+00 -0.3076124E+06 -0.1542453E+03  0.2111609E+00  0.1646364E-01  0.8083481E+06  0.1829058E+03
  0.4523810E+00 -0.3092108E+06 -0.2471989E+03  0.1826814E+00  0.1844752E-01  0.8113836E+06  0.2938782E+03
  0.4833333E+00 -0.3116301E+06 -0.3873856E+03  0.1586072E+00  0.2231884E-01  0.8130495E+06  0.4613262E+03
  0.5142857E+00 -0.3150452E+06 -0.5973796E+03  0.1726786E+00  0.2846050E-01  0.8177714E+06  0.7135629E+03
  0.5452381E+00 -0.3171246E+06 -0.8986550E+03  0.2141455E+00  0.4132128E-01  0.8224708E+06  0.1076401E+04
  0.5761905E+00 -0.3204543E+06 -0.1320889E+04  0.1397201E+00  0.2842140E-01  0.8247779E+06  0.1586337E+04
  0.6071429E+00 -0.3241254E+06 -0.1908968E+04  0.1956284E+00  0.4897213E-01  0.8295118E+06  0.2298482E+04
  0.6380953E+00 -0.3277446E+06 -0.2699238E+04  0.1464434E+00  0.3930473E-01  0.8347388E+06  0.3258329E+04
  0.6690477E+00 -0.3323945E+06 -0.3752779E+04  0.1097460E+00  0.3300858E-01  0.8396300E+06  0.4543749E+04
  0.7000000E+00 -0.3361782E+06 -0.5134962E+04  0.1300049E+00  0.4143143E-01  0.8448513E+06  0.6235522E+04
  0.7309524E+00 -0.3404235E+06 -0.6920649E+04  0.1791928E+00  0.6515884E-01  0.8520603E+06  0.8431866E+04
  0.7619048E+00 -0.3462153E+06 -0.9223873E+04  0.1820068E+00  0.7846069E-01  0.8567782E+06  0.1126016E+05
  0.7928572E+00 -0.3523923E+06 -0.1214771E+05  0.1251715E+00  0.5759430E-01  0.8651494E+06  0.1488024E+05
  0.8238096E+00 -0.3575504E+06 -0.1580702E+05  0.4971366E-01  0.4138184E-01  0.8729834E+06  0.1942067E+05
  0.8547620E+00 -0.3628926E+06 -0.2033873E+05  0.1473820E+00  0.7901001E-01  0.8792664E+06  0.2505449E+05
  0.8857143E+00 -0.3693272E+06 -0.2591018E+05  0.1144606E+00  0.6628418E-01  0.8867694E+06  0.3201819E+05
  0.9166667E+00 -0.3753463E+06 -0.3265660E+05  0.1235795E+00  0.5760193E-01  0.8951369E+06  0.4049177E+05
  0.9476191E+00 -0.3813089E+06 -0.4080205E+05  0.1396386E+00  0.1059265E+00  0.9035939E+06  0.5071443E+05
  0.9785714E+00 -0.3872494E+06 -0.5054107E+05  0.1101484E+00  0.7598877E-01  0.9115552E+06  0.6297929E+05
  0.1009524E+01 -0.3928945E+06 -0.6201212E+05  0.1105197E+00  0.1076965E+00  0.9165558E+06  0.7741787E+05
  0.1040476E+01 -0.3985146E+06 -0.7538830E+05  0.8470618E-01  0.9509277E-01  0.9247279E+06  0.9444698E+05
  0.1071429E+01 -0.4020192E+06 -0.9069055E+05  0.8636068E-01  0.8697510E-01  0.9295152E+06  0.1139353E+06
  0.1102381E+01 -0.4044875E+06 -0.1080500E+06  0.1003244E+00  0.4663086E-01  0.9350999E+06  0.1362115E+06
  0.1133333E+01 -0.4053834E+06 -0.1273222E+06  0.1181569E+00  0.1079102E+00  0.9361184E+06  0.1608476E+06
  0.1164286E+01 -0.4051525E+06 -0.1484458E+06  0.9436110E-01  0.9918213E-01  0.9339496E+06  0.1877877E+06
  0.1195238E+01 -0.4045557E+06 -0.1715176E+06  0.8660670E-01  0.6555176E-01  0.9339331E+06  0.2174963E+06
  0.1226190E+01 -0.4008159E+06 -0.1959373E+06  0.8551559E-01  0.4882812E-01  0.9292580E+06  0.2489489E+06
  0.1257143E+01 -0.3944048E+06 -0.2213380E+06  0.6894198E-01  0.2697754E-01  0.9220991E+06  0.2818727E+06
  0.1288095E+01 -0.3866375E+06 -0.2475443E+06  0.6861209E-01  0.1030273E+00  0.9145200E+06  0.3161485E+06
  0.1319048E+01 -0.3759712E+06 -0.2731702E+06  0.5830289E-01  0.8508301E-01  0.8980302E+06  0.3488200E+06
  0.1350000E+01 -0.3642820E+06 -0.2984541E+06  0.5145038E-01  0.3637695E-01  0.8819031E+06  0.3814932E+06
  0.1380952E+01 -0.3516746E+06 -0.3229208E+06  0.9688174E-01  0.1134033E+00  0.8663069E+06  0.4135199E+06
  0.1411905E+01 -0.3361913E+06 -0.3452066E+06  0.4547685E-01  0.6433105E-01  0.8465792E+06  0.4427213E+06
  0.1442857E+01 -0.3197691E+06 -0.3655975E+06  0.4923905E-01  0.1094971E+00  0.8257002E+06  0.4694895E+06
  0.1473810E+01 -0.3030323E+06 -0.3839803E+06  0.5665324E-01  0.7458496E-01  0.8059934E+06  0.4943199E+06
  0.1504762E+01 -0.2857751E+06 -0.3994348E+06  0.8339411E-01  0.1241455E+00  0.7831484E+06  0.5143577E+06
  0.1535714E+01 -0.2685545E+06 -0.4118119E+06  0.5882085E-01  0.5407715E-01  0.7573204E+06  0.5284638E+06
  0.1566667E+01 -0.2526705E+06 -0.4227485E+06  0.4939952E-01  0.3942871E-01  0.7367568E+06  0.5431603E+06
  0.1597619E+01 -0.2370414E+06 -0.4310159E+06  0.8068647E-01  0.6311035E-01  0.7169612E+06  0.5546120E+06
  0.1628572E+01 -0.2215383E+06 -0.4364375E+06  0.4872104E-01  0.3271484E-01  0.6966930E+06  0.5616951E+06
  0.1659524E+01 -0.2063496E+06 -0.4393395E+06  0.5560942E-01  0.4064941E-01  0.6767967E+06  0.5651506E+06
  0.1690476E+01 -0.1924258E+06 -0.4410629E+06  0.8491967E-01  0.5456543E-01  0.6601095E+06  0.5684131E+06
  0.1721429E+01 -0.1792767E+06 -0.4409765E+06  0.6835938E-01  0.3051758E-01  0.6442831E+06  0.5693202E+06
  0.1752381E+01 -0.1669914E+06 -0.4380552E+06  0.8219844E-01  0.2575684E-01  0.6257577E+06  0.5623244E+06
  0.1783333E+01 -0.1558585E+06 -0.4340010E+06  0.8679542E-01  0.2087402E-01  0.6090557E+06  0.5538899E+06
  0.1814286E+01 -0.1464946E+06 -0.4306142E+06  0.5705586E-01  0.4992676E-01  0.5969912E+06  0.5497058E+06
  0.1845238E+01 -0.1375959E+06 -0.4258128E+06  0.7938508E-01  0.4943848E-02  0.5858301E+06  0.5438682E+06
  0.1876190E+01 -0.1292106E+06 -0.4194577E+06  0.5152978E-01  0.8483887E-02  0.5748956E+06  0.5349541E+06
  0.1907143E+01 -0.1211506E+06 -0.4114886E+06  0.7476007E-01  0.2136230E-02  0.5641359E+06  0.5232385E+06
  0.1938095E+01 -0.1139659E+06 -0.4038488E+06  0.9120182E-01  0.3204346E-01  0.5557507E+06  0.5146875E+06
  0.1969048E+01 -0.1073637E+06 -0.3958443E+06  0.5430727E-01  0.1867676E-01  0.5483994E+06  0.5064132E+06
  0.2000000E+01 -0.1014632E+06 -0.3864853E+06  0.9716797E-01  0.2941895E-01  0.5406184E+06  0.4926629E+06
