VARIABLES="w (rad/s)"
"abs(F   1   1)" "angle(F   1   1)"
"abs(F   1   2)" "angle(F   1   2)"
"abs(F   1   3)" "angle(F   1   3)"
Zone t="Diffraction force - beta =   0.000 deg",I=    64,F=POINT
  0.5000000E-01  0.2296879E+04 -0.1570788E+01  0.5323039E+06 -0.3808376E-04  0.5175839E+04 -0.1570793E+01
  0.8095238E-01  0.3745452E+04 -0.1570795E+01  0.5312832E+06 -0.1024451E-03  0.8428945E+04 -0.1570787E+01
  0.1119048E+00  0.5224664E+04 -0.1570791E+01  0.5297854E+06 -0.2034227E-03  0.1175695E+05 -0.1570798E+01
  0.1428571E+00  0.6753245E+04 -0.1570789E+01  0.5278089E+06 -0.3487195E-03  0.1520837E+05 -0.1570793E+01
  0.1738095E+00  0.8342377E+04 -0.1570782E+01  0.5253471E+06 -0.5501022E-03  0.1879817E+05 -0.1570787E+01
  0.2047619E+00  0.1001659E+05 -0.1570784E+01  0.5223934E+06 -0.8243166E-03  0.2259740E+05 -0.1570781E+01
  0.2357143E+00  0.1179070E+05 -0.1570777E+01  0.5189396E+06 -0.1196340E-02  0.2662126E+05 -0.1570775E+01
  0.2666667E+00  0.1369307E+05 -0.1570766E+01  0.5149761E+06 -0.1696581E-02  0.3095821E+05 -0.1570767E+01
  0.2976190E+00  0.1575527E+05 -0.1570752E+01  0.5104978E+06 -0.2376036E-02  0.3567762E+05 -0.1570751E+01
  0.3285715E+00  0.1799779E+05 -0.1570730E+01  0.5054898E+06 -0.3287104E-02  0.4081010E+05 -0.1570729E+01
  0.3595238E+00  0.2045894E+05 -0.1570698E+01  0.4999705E+06 -0.4512004E-02  0.4646769E+05 -0.1570696E+01
  0.3904762E+00  0.2317384E+05 -0.1570649E+01  0.4939221E+06 -0.6144045E-02  0.5274589E+05 -0.1570648E+01
  0.4214286E+00  0.2616424E+05 -0.1570578E+01  0.4874177E+06 -0.8239686E-02  0.5966888E+05 -0.1570579E+01
  0.4523810E+00  0.2943541E+05 -0.1570474E+01  0.4804259E+06 -0.1095922E-01  0.6725265E+05 -0.1570476E+01
  0.4833333E+00  0.3299843E+05 -0.1570337E+01  0.4730576E+06 -0.1423145E-01  0.7557157E+05 -0.1570335E+01
  0.5142857E+00  0.3684794E+05 -0.1570144E+01  0.4653198E+06 -0.1824020E-01  0.8461173E+05 -0.1570144E+01
  0.5452381E+00  0.4094431E+05 -0.1569891E+01  0.4572248E+06 -0.2292491E-01  0.9424653E+05 -0.1569890E+01
  0.5761905E+00  0.4525721E+05 -0.1569566E+01  0.4488242E+06 -0.2829912E-01  0.1044271E+06 -0.1569567E+01
  0.6071429E+00  0.4976896E+05 -0.1569154E+01  0.4401892E+06 -0.3451711E-01  0.1151560E+06 -0.1569155E+01
  0.6380953E+00  0.5445403E+05 -0.1568650E+01  0.4312624E+06 -0.4142842E-01  0.1263584E+06 -0.1568651E+01
  0.6690477E+00  0.5929286E+05 -0.1568038E+01  0.4221042E+06 -0.4918160E-01  0.1380063E+06 -0.1568037E+01
  0.7000000E+00  0.6424121E+05 -0.1567303E+01  0.4127656E+06 -0.5786381E-01  0.1499550E+06 -0.1567302E+01
  0.7309524E+00  0.6928798E+05 -0.1566439E+01  0.4032270E+06 -0.6740557E-01  0.1622202E+06 -0.1566437E+01
  0.7619048E+00  0.7442224E+05 -0.1565436E+01  0.3935715E+06 -0.7790209E-01  0.1748055E+06 -0.1565433E+01
  0.7928572E+00  0.7962217E+05 -0.1564287E+01  0.3838262E+06 -0.8940054E-01  0.1876490E+06 -0.1564283E+01
  0.8238096E+00  0.8486643E+05 -0.1562989E+01  0.3739799E+06 -0.1019162E+00  0.2006964E+06 -0.1562983E+01
  0.8547620E+00  0.9011860E+05 -0.1561543E+01  0.3640331E+06 -0.1154602E+00  0.2138542E+06 -0.1561535E+01
  0.8857143E+00  0.9535248E+05 -0.1559956E+01  0.3540412E+06 -0.1300593E+00  0.2270574E+06 -0.1559944E+01
  0.9166667E+00  0.1005477E+06 -0.1558243E+01  0.3440297E+06 -0.1457444E+00  0.2402766E+06 -0.1558228E+01
  0.9476191E+00  0.1056764E+06 -0.1556427E+01  0.3340585E+06 -0.1625524E+00  0.2534461E+06 -0.1556406E+01
  0.9785714E+00  0.1107048E+06 -0.1554536E+01  0.3241226E+06 -0.1805013E+00  0.2664974E+06 -0.1554511E+01
  0.1009524E+01  0.1156147E+06 -0.1552614E+01  0.3142047E+06 -0.1995949E+00  0.2793718E+06 -0.1552582E+01
  0.1040476E+01  0.1203654E+06 -0.1550707E+01  0.3043072E+06 -0.2198572E+00  0.2919763E+06 -0.1550667E+01
  0.1071429E+01  0.1249169E+06 -0.1548876E+01  0.2944309E+06 -0.2412935E+00  0.3041944E+06 -0.1548824E+01
  0.1102381E+01  0.1292413E+06 -0.1547191E+01  0.2846113E+06 -0.2639488E+00  0.3159286E+06 -0.1547125E+01
  0.1133333E+01  0.1333048E+06 -0.1545736E+01  0.2748637E+06 -0.2878588E+00  0.3271177E+06 -0.1545655E+01
  0.1164286E+01  0.1370783E+06 -0.1544609E+01  0.2651649E+06 -0.3130816E+00  0.3376787E+06 -0.1544510E+01
  0.1195238E+01  0.1405330E+06 -0.1543912E+01  0.2555583E+06 -0.3396659E+00  0.3475324E+06 -0.1543797E+01
  0.1226190E+01  0.1436456E+06 -0.1543764E+01  0.2460077E+06 -0.3676889E+00  0.3566120E+06 -0.1543634E+01
  0.1257143E+01  0.1464070E+06 -0.1544261E+01  0.2365395E+06 -0.3975508E+00  0.3648726E+06 -0.1544120E+01
  0.1288095E+01  0.1487769E+06 -0.1545621E+01  0.2271180E+06 -0.4283895E+00  0.3722300E+06 -0.1545469E+01
  0.1319048E+01  0.1507635E+06 -0.1547886E+01  0.2177719E+06 -0.4613264E+00  0.3786540E+06 -0.1547730E+01
  0.1350000E+01  0.1523463E+06 -0.1551220E+01  0.2084919E+06 -0.4961904E+00  0.3840908E+06 -0.1551068E+01
  0.1380952E+01  0.1535318E+06 -0.1555762E+01  0.1992987E+06 -0.5331305E+00  0.3885445E+06 -0.1555632E+01
  0.1411905E+01  0.1547505E+06 -0.1560488E+01  0.1904085E+06 -0.5670613E+00  0.3933743E+06 -0.1560388E+01
  0.1442857E+01  0.1552053E+06 -0.1567595E+01  0.1813234E+06 -0.6087531E+00  0.3960207E+06 -0.1567558E+01
  0.1473810E+01  0.1552820E+06 -0.1576260E+01  0.1723472E+06 -0.6535950E+00  0.3976779E+06 -0.1576318E+01
  0.1504762E+01  0.1549968E+06 -0.1586599E+01  0.1634792E+06 -0.7021748E+00  0.3983667E+06 -0.1586798E+01
  0.1535714E+01  0.1543695E+06 -0.1598731E+01  0.1547526E+06 -0.7549621E+00  0.3981361E+06 -0.1599121E+01
  0.1566667E+01  0.1534251E+06 -0.1612736E+01  0.1462135E+06 -0.8128414E+00  0.3970203E+06 -0.1613390E+01
  0.1597619E+01  0.1521845E+06 -0.1628713E+01  0.1379041E+06 -0.8765901E+00  0.3950800E+06 -0.1629705E+01
  0.1628572E+01  0.1506789E+06 -0.1646741E+01  0.1299354E+06 -0.9471788E+00  0.3923849E+06 -0.1648176E+01
  0.1659524E+01  0.1489333E+06 -0.1666891E+01  0.1224191E+06 -0.1026003E+01  0.3889948E+06 -0.1668878E+01
  0.1690476E+01  0.1469828E+06 -0.1689217E+01  0.1155067E+06 -0.1113941E+01  0.3849776E+06 -0.1691903E+01
  0.1721429E+01  0.1448592E+06 -0.1713776E+01  0.1093947E+06 -0.1211577E+01  0.3804354E+06 -0.1717332E+01
  0.1752381E+01  0.1425858E+06 -0.1740618E+01  0.1041983E+06 -0.1319256E+01  0.3754193E+06 -0.1745245E+01
  0.1783333E+01  0.1401832E+06 -0.1769760E+01  0.1001310E+06 -0.1436225E+01  0.3699904E+06 -0.1775660E+01
  0.1814286E+01  0.1376918E+06 -0.1801193E+01  0.9742894E+05 -0.1559932E+01  0.3642307E+06 -0.1808648E+01
  0.1845238E+01  0.1351220E+06 -0.1834936E+01  0.9615145E+05 -0.1687179E+01  0.3581951E+06 -0.1844221E+01
  0.1876190E+01  0.1325145E+06 -0.1871026E+01  0.9629958E+05 -0.1813827E+01  0.3520010E+06 -0.1882479E+01
  0.1907143E+01  0.1298795E+06 -0.1909476E+01  0.9777859E+05 -0.1935721E+01  0.3457108E+06 -0.1923418E+01
  0.1938095E+01  0.1272536E+06 -0.1950254E+01  0.1004025E+06 -0.2049373E+01  0.3394178E+06 -0.1967078E+01
  0.1969048E+01  0.1246507E+06 -0.1993255E+01  0.1038786E+06 -0.2152035E+01  0.3331449E+06 -0.2013419E+01
  0.2000000E+01  0.1220814E+06 -0.2038484E+01  0.1079226E+06 -0.2244142E+01  0.3269606E+06 -0.2062410E+01
