VARIABLES="w (rad/s)"
"abs(F   1   1)" "angle(F   1   1)"
"abs(F   1   2)" "angle(F   1   2)"
"abs(F   1   3)" "angle(F   1   3)"
Zone t="Diffraction force - beta =   0.000 deg",I=    64,F=POINT
  0.5000000E-01  0.8451583E+03 -0.1570795E+01  0.5614896E+03 -0.3082122E+01  0.1467948E+04 -0.1570794E+01
  0.8095238E-01  0.1379474E+04 -0.1570791E+01  0.1452177E+04 -0.3079857E+01  0.2387388E+04 -0.1570790E+01
  0.1119048E+00  0.1924170E+04 -0.1570786E+01  0.2758313E+04 -0.3077245E+01  0.3330135E+04 -0.1570784E+01
  0.1428571E+00  0.2483415E+04 -0.1570779E+01  0.4475572E+04 -0.3073873E+01  0.4295062E+04 -0.1570775E+01
  0.1738095E+00  0.3064255E+04 -0.1570768E+01  0.6625705E+04 -0.3069782E+01  0.5307653E+04 -0.1570762E+01
  0.2047619E+00  0.3670809E+04 -0.1570752E+01  0.9203393E+04 -0.3064579E+01  0.6357366E+04 -0.1570743E+01
  0.2357143E+00  0.4310501E+04 -0.1570729E+01  0.1224248E+05 -0.3058150E+01  0.7465246E+04 -0.1570714E+01
  0.2666667E+00  0.4996109E+04 -0.1570695E+01  0.1574874E+05 -0.3050336E+01  0.8672026E+04 -0.1570673E+01
  0.2976190E+00  0.5730224E+04 -0.1570645E+01  0.1972043E+05 -0.3040449E+01  0.9948061E+04 -0.1570611E+01
  0.3285715E+00  0.6522634E+04 -0.1570570E+01  0.2421512E+05 -0.3028800E+01  0.1132315E+05 -0.1570519E+01
  0.3595238E+00  0.7394137E+04 -0.1570459E+01  0.2920678E+05 -0.3014684E+01  0.1287413E+05 -0.1570383E+01
  0.3904762E+00  0.8337946E+04 -0.1570292E+01  0.3468358E+05 -0.2997859E+01  0.1452545E+05 -0.1570177E+01
  0.4214286E+00  0.9373453E+04 -0.1570048E+01  0.4059512E+05 -0.2979108E+01  0.1632908E+05 -0.1569878E+01
  0.4523810E+00  0.1049345E+05 -0.1569691E+01  0.4702228E+05 -0.2957717E+01  0.1830284E+05 -0.1569438E+01
  0.4833333E+00  0.1171567E+05 -0.1569200E+01  0.5376848E+05 -0.2935964E+01  0.2050448E+05 -0.1568834E+01
  0.5142857E+00  0.1301105E+05 -0.1568519E+01  0.6080220E+05 -0.2912246E+01  0.2279619E+05 -0.1567994E+01
  0.5452381E+00  0.1437771E+05 -0.1567614E+01  0.6820257E+05 -0.2888994E+01  0.2521702E+05 -0.1566876E+01
  0.5761905E+00  0.1578308E+05 -0.1566442E+01  0.7585589E+05 -0.2866244E+01  0.2770218E+05 -0.1565422E+01
  0.6071429E+00  0.1723740E+05 -0.1564939E+01  0.8368421E+05 -0.2842781E+01  0.3031779E+05 -0.1563560E+01
  0.6380953E+00  0.1873015E+05 -0.1563081E+01  0.9172588E+05 -0.2820713E+01  0.3300630E+05 -0.1561254E+01
  0.6690477E+00  0.2023179E+05 -0.1560789E+01  0.9994456E+05 -0.2799038E+01  0.3567518E+05 -0.1558391E+01
  0.7000000E+00  0.2172561E+05 -0.1557991E+01  0.1083363E+06 -0.2777589E+01  0.3833085E+05 -0.1554883E+01
  0.7309524E+00  0.2320507E+05 -0.1554650E+01  0.1168915E+06 -0.2757215E+01  0.4099061E+05 -0.1550690E+01
  0.7619048E+00  0.2466807E+05 -0.1550701E+01  0.1254814E+06 -0.2737069E+01  0.4363564E+05 -0.1545722E+01
  0.7928572E+00  0.2609030E+05 -0.1546073E+01  0.1340602E+06 -0.2717024E+01  0.4619655E+05 -0.1539872E+01
  0.8238096E+00  0.2746748E+05 -0.1540722E+01  0.1426840E+06 -0.2697626E+01  0.4866062E+05 -0.1533062E+01
  0.8547620E+00  0.2876642E+05 -0.1534582E+01  0.1513746E+06 -0.2679212E+01  0.5095842E+05 -0.1525189E+01
  0.8857143E+00  0.2996337E+05 -0.1527606E+01  0.1600467E+06 -0.2661528E+01  0.5303594E+05 -0.1516158E+01
  0.9166667E+00  0.3103285E+05 -0.1519755E+01  0.1686439E+06 -0.2644358E+01  0.5487796E+05 -0.1505920E+01
  0.9476191E+00  0.3198137E+05 -0.1511057E+01  0.1771130E+06 -0.2627561E+01  0.5649513E+05 -0.1494484E+01
  0.9785714E+00  0.3278353E+05 -0.1501509E+01  0.1854366E+06 -0.2611225E+01  0.5782335E+05 -0.1481787E+01
  0.1009524E+01  0.3340225E+05 -0.1491103E+01  0.1935894E+06 -0.2595347E+01  0.5874314E+05 -0.1467689E+01
  0.1040476E+01  0.3381147E+05 -0.1479854E+01  0.2015903E+06 -0.2580262E+01  0.5920869E+05 -0.1452112E+01
  0.1071429E+01  0.3398780E+05 -0.1467824E+01  0.2094216E+06 -0.2566053E+01  0.5915836E+05 -0.1434983E+01
  0.1102381E+01  0.3389842E+05 -0.1455085E+01  0.2170666E+06 -0.2552734E+01  0.5854353E+05 -0.1416251E+01
  0.1133333E+01  0.3352161E+05 -0.1441776E+01  0.2244664E+06 -0.2540058E+01  0.5729642E+05 -0.1395829E+01
  0.1164286E+01  0.3283175E+05 -0.1428067E+01  0.2316064E+06 -0.2527943E+01  0.5536782E+05 -0.1373613E+01
  0.1195238E+01  0.3181444E+05 -0.1414192E+01  0.2384564E+06 -0.2516316E+01  0.5271350E+05 -0.1349402E+01
  0.1226190E+01  0.3045583E+05 -0.1400496E+01  0.2450052E+06 -0.2505272E+01  0.4929764E+05 -0.1322920E+01
  0.1257143E+01  0.2874398E+05 -0.1387210E+01  0.2513143E+06 -0.2494611E+01  0.4508651E+05 -0.1293296E+01
  0.1288095E+01  0.2665562E+05 -0.1375563E+01  0.2571087E+06 -0.2484869E+01  0.4002548E+05 -0.1260331E+01
  0.1319048E+01  0.2419428E+05 -0.1365905E+01  0.2626349E+06 -0.2475628E+01  0.3410930E+05 -0.1220857E+01
  0.1350000E+01  0.2135412E+05 -0.1360041E+01  0.2677875E+06 -0.2466964E+01  0.2731885E+05 -0.1169886E+01
  0.1380952E+01  0.1813479E+05 -0.1360800E+01  0.2725370E+06 -0.2459016E+01  0.1966993E+05 -0.1091873E+01
  0.1411905E+01  0.1519012E+05 -0.1363431E+01  0.2728872E+06 -0.2445241E+01  0.1303356E+05 -0.9540738E+00
  0.1442857E+01  0.1140347E+05 -0.1395016E+01  0.2767869E+06 -0.2437777E+01  0.5155570E+04 -0.3560476E+00
  0.1473810E+01  0.7338738E+04 -0.1491501E+01  0.2802616E+06 -0.2430789E+01  0.7841668E+04  0.1388790E+01
  0.1504762E+01  0.3350944E+04 -0.1912635E+01  0.2832912E+06 -0.2424352E+01  0.1804778E+05  0.1723194E+01
  0.1535714E+01  0.3354381E+04  0.2770958E+01  0.2858724E+06 -0.2418300E+01  0.2948390E+05  0.1833966E+01
  0.1566667E+01  0.7914656E+04  0.2326858E+01  0.2880082E+06 -0.2412598E+01  0.4172390E+05  0.1897444E+01
  0.1597619E+01  0.1318132E+05  0.2225434E+01  0.2896708E+06 -0.2407356E+01  0.5469130E+05  0.1942932E+01
  0.1628572E+01  0.1876963E+05  0.2190734E+01  0.2908263E+06 -0.2402723E+01  0.6832589E+05  0.1979456E+01
  0.1659524E+01  0.2460327E+05  0.2178719E+01  0.2914675E+06 -0.2398656E+01  0.8255899E+05  0.2010638E+01
  0.1690476E+01  0.3063265E+05  0.2176807E+01  0.2915932E+06 -0.2395091E+01  0.9733052E+05  0.2038218E+01
  0.1721429E+01  0.3682630E+05  0.2179954E+01  0.2911808E+06 -0.2392101E+01  0.1125699E+06  0.2063136E+01
  0.1752381E+01  0.4314130E+05  0.2186130E+01  0.2902652E+06 -0.2389500E+01  0.1281605E+06  0.2086337E+01
  0.1783333E+01  0.4954655E+05  0.2194167E+01  0.2888462E+06 -0.2387285E+01  0.1440052E+06  0.2108349E+01
  0.1814286E+01  0.5600601E+05  0.2203204E+01  0.2869133E+06 -0.2385510E+01  0.1600535E+06  0.2129132E+01
  0.1845238E+01  0.6248818E+05  0.2212587E+01  0.2844653E+06 -0.2384111E+01  0.1762460E+06  0.2148637E+01
  0.1876190E+01  0.6896670E+05  0.2222014E+01  0.2814633E+06 -0.2383269E+01  0.1925038E+06  0.2166969E+01
  0.1907143E+01  0.7541491E+05  0.2231183E+01  0.2778912E+06 -0.2383006E+01  0.2087426E+06  0.2184181E+01
  0.1938095E+01  0.8178938E+05  0.2240166E+01  0.2737791E+06 -0.2383206E+01  0.2248727E+06  0.2200493E+01
  0.1969048E+01  0.8805572E+05  0.2248890E+01  0.2691604E+06 -0.2383836E+01  0.2408010E+06  0.2215984E+01
  0.2000000E+01  0.9419197E+05  0.2257087E+01  0.2639600E+06 -0.2385065E+01  0.2564589E+06  0.2230509E+01
