VARIABLES="w (rad/s)"
"abs(F   1   1)" "angle(F   1   1)"
"abs(F   1   2)" "angle(F   1   2)"
"abs(F   1   3)" "angle(F   1   3)"
Zone t="Diffraction force - beta =   0.000 deg",I=    64,F=POINT
  0.5000000E-01  0.7474564E+03 -0.1570796E+01  0.3278927E+02 -0.3088528E+01  0.1721536E+04  0.1570797E+01
  0.8095238E-01  0.1226671E+04 -0.1570794E+01  0.8503963E+02 -0.3086631E+01  0.2820020E+04  0.1570798E+01
  0.1119048E+00  0.1716728E+04 -0.1570792E+01  0.1615922E+03 -0.3084282E+01  0.3935908E+04  0.1570800E+01
  0.1428571E+00  0.2219985E+04 -0.1570789E+01  0.2626605E+03 -0.3081305E+01  0.5080968E+04  0.1570803E+01
  0.1738095E+00  0.2742373E+04 -0.1570785E+01  0.3889777E+03 -0.3077595E+01  0.6268867E+04  0.1570807E+01
  0.2047619E+00  0.3295432E+04 -0.1570778E+01  0.5412769E+03 -0.3072945E+01  0.7512919E+04  0.1570813E+01
  0.2357143E+00  0.3876411E+04 -0.1570769E+01  0.7199496E+03 -0.3067024E+01  0.8820543E+04  0.1570822E+01
  0.2666667E+00  0.4497058E+04 -0.1570755E+01  0.9270602E+03 -0.3059903E+01  0.1021759E+05  0.1570835E+01
  0.2976190E+00  0.5174588E+04 -0.1570735E+01  0.1162704E+04 -0.3050881E+01  0.1171471E+05  0.1570854E+01
  0.3285715E+00  0.5916647E+04 -0.1570705E+01  0.1428725E+04 -0.3040108E+01  0.1334581E+05  0.1570882E+01
  0.3595238E+00  0.6713408E+04 -0.1570660E+01  0.1725056E+04 -0.3026977E+01  0.1510645E+05  0.1570925E+01
  0.3904762E+00  0.7605730E+04 -0.1570593E+01  0.2053936E+04 -0.3011471E+01  0.1704703E+05  0.1570989E+01
  0.4214286E+00  0.8588669E+04 -0.1570494E+01  0.2409124E+04 -0.2993895E+01  0.1916684E+05  0.1571081E+01
  0.4523810E+00  0.9670713E+04 -0.1570350E+01  0.2795970E+04 -0.2973626E+01  0.2147429E+05  0.1571217E+01
  0.4833333E+00  0.1081907E+05 -0.1570149E+01  0.3207058E+04 -0.2952925E+01  0.2394725E+05  0.1571405E+01
  0.5142857E+00  0.1208832E+05 -0.1569872E+01  0.3641677E+04 -0.2930363E+01  0.2660942E+05  0.1571666E+01
  0.5452381E+00  0.1345728E+05 -0.1569503E+01  0.4099063E+04 -0.2907740E+01  0.2945213E+05  0.1572013E+01
  0.5761905E+00  0.1487224E+05 -0.1569023E+01  0.4576349E+04 -0.2885309E+01  0.3238702E+05  0.1572464E+01
  0.6071429E+00  0.1636522E+05 -0.1568403E+01  0.5074491E+04 -0.2862298E+01  0.3543953E+05  0.1573046E+01
  0.6380953E+00  0.1791856E+05 -0.1567630E+01  0.5592366E+04 -0.2840247E+01  0.3857814E+05  0.1573771E+01
  0.6690477E+00  0.1954515E+05 -0.1566672E+01  0.6125509E+04 -0.2818157E+01  0.4180226E+05  0.1574670E+01
  0.7000000E+00  0.2124059E+05 -0.1565496E+01  0.6673065E+04 -0.2795795E+01  0.4508617E+05  0.1575773E+01
  0.7309524E+00  0.2295569E+05 -0.1564074E+01  0.7239960E+04 -0.2774158E+01  0.4840833E+05  0.1577105E+01
  0.7619048E+00  0.2468254E+05 -0.1562363E+01  0.7820998E+04 -0.2752723E+01  0.5173584E+05  0.1578702E+01
  0.7928572E+00  0.2648169E+05 -0.1560336E+01  0.8411422E+04 -0.2731232E+01  0.5507821E+05  0.1580597E+01
  0.8238096E+00  0.2837718E+05 -0.1557966E+01  0.9011935E+04 -0.2709960E+01  0.5851399E+05  0.1582817E+01
  0.8547620E+00  0.3025548E+05 -0.1555187E+01  0.9617641E+04 -0.2688749E+01  0.6187172E+05  0.1585413E+01
  0.8857143E+00  0.3217086E+05 -0.1551970E+01  0.1023325E+05 -0.2668015E+01  0.6525694E+05  0.1588413E+01
  0.9166667E+00  0.3410454E+05 -0.1548272E+01  0.1085491E+05 -0.2647605E+01  0.6855341E+05  0.1591865E+01
  0.9476191E+00  0.3608184E+05 -0.1544058E+01  0.1148231E+05 -0.2627661E+01  0.7190929E+05  0.1595784E+01
  0.9785714E+00  0.3802354E+05 -0.1539259E+01  0.1210841E+05 -0.2607776E+01  0.7512697E+05  0.1600238E+01
  0.1009524E+01  0.4001185E+05 -0.1533867E+01  0.1273416E+05 -0.2588166E+01  0.7830526E+05  0.1605249E+01
  0.1040476E+01  0.4203802E+05 -0.1527842E+01  0.1335611E+05 -0.2568790E+01  0.8142780E+05  0.1610852E+01
  0.1071429E+01  0.4409922E+05 -0.1521153E+01  0.1397576E+05 -0.2549870E+01  0.8450136E+05  0.1617076E+01
  0.1102381E+01  0.4614778E+05 -0.1513736E+01  0.1459220E+05 -0.2531418E+01  0.8751734E+05  0.1623954E+01
  0.1133333E+01  0.4812554E+05 -0.1505520E+01  0.1520015E+05 -0.2513148E+01  0.9030760E+05  0.1631555E+01
  0.1164286E+01  0.5007473E+05 -0.1496496E+01  0.1580707E+05 -0.2495582E+01  0.9298594E+05  0.1639880E+01
  0.1195238E+01  0.5198283E+05 -0.1486633E+01  0.1640539E+05 -0.2478387E+01  0.9552680E+05  0.1648944E+01
  0.1226190E+01  0.5389031E+05 -0.1475970E+01  0.1699649E+05 -0.2461677E+01  0.9790194E+05  0.1658757E+01
  0.1257143E+01  0.5578187E+05 -0.1464487E+01  0.1758197E+05 -0.2444993E+01  0.1001927E+06  0.1669297E+01
  0.1288095E+01  0.5766192E+05 -0.1452155E+01  0.1814290E+05 -0.2429192E+01  0.1023230E+06  0.1680637E+01
  0.1319048E+01  0.5940611E+05 -0.1438895E+01  0.1869048E+05 -0.2413066E+01  0.1041071E+06  0.1692807E+01
  0.1350000E+01  0.6109147E+05 -0.1424745E+01  0.1922934E+05 -0.2397658E+01  0.1057844E+06  0.1705741E+01
  0.1380952E+01  0.6268060E+05 -0.1409718E+01  0.1975173E+05 -0.2382677E+01  0.1071870E+06  0.1719446E+01
  0.1411905E+01  0.6375755E+05 -0.1394221E+01  0.2019387E+05 -0.2367197E+01  0.1080402E+06  0.1733208E+01
  0.1442857E+01  0.6517683E+05 -0.1377637E+01  0.2068853E+05 -0.2353481E+01  0.1090308E+06  0.1748189E+01
  0.1473810E+01  0.6637822E+05 -0.1360064E+01  0.2116902E+05 -0.2340024E+01  0.1096890E+06  0.1763925E+01
  0.1504762E+01  0.6739373E+05 -0.1341656E+01  0.2162905E+05 -0.2326772E+01  0.1099682E+06  0.1780288E+01
  0.1535714E+01  0.6825545E+05 -0.1322530E+01  0.2207401E+05 -0.2313933E+01  0.1099350E+06  0.1797228E+01
  0.1566667E+01  0.6900966E+05 -0.1302781E+01  0.2250540E+05 -0.2301608E+01  0.1097531E+06  0.1814634E+01
  0.1597619E+01  0.6957781E+05 -0.1282479E+01  0.2291094E+05 -0.2289331E+01  0.1091603E+06  0.1832464E+01
  0.1628572E+01  0.7001695E+05 -0.1261775E+01  0.2329946E+05 -0.2277600E+01  0.1083337E+06  0.1850600E+01
  0.1659524E+01  0.7031315E+05 -0.1240710E+01  0.2366767E+05 -0.2266494E+01  0.1073238E+06  0.1868860E+01
  0.1690476E+01  0.7036363E+05 -0.1219101E+01  0.2401890E+05 -0.2255679E+01  0.1060348E+06  0.1887349E+01
  0.1721429E+01  0.7017392E+05 -0.1197138E+01  0.2434774E+05 -0.2245013E+01  0.1043827E+06  0.1905910E+01
  0.1752381E+01  0.6972163E+05 -0.1174932E+01  0.2464974E+05 -0.2234477E+01  0.1022984E+06  0.1924385E+01
  0.1783333E+01  0.6910580E+05 -0.1152681E+01  0.2493963E+05 -0.2224650E+01  0.1000601E+06  0.1942715E+01
  0.1814286E+01  0.6833297E+05 -0.1130472E+01  0.2521374E+05 -0.2215436E+01  0.9770938E+05  0.1960737E+01
  0.1845238E+01  0.6731218E+05 -0.1108471E+01  0.2545534E+05 -0.2206146E+01  0.9492256E+05  0.1978215E+01
  0.1876190E+01  0.6614544E+05 -0.1086794E+01  0.2568056E+05 -0.2197399E+01  0.9202872E+05  0.1995158E+01
  0.1907143E+01  0.6482492E+05 -0.1065530E+01  0.2588212E+05 -0.2189238E+01  0.8902491E+05  0.2011227E+01
  0.1938095E+01  0.6333860E+05 -0.1044566E+01  0.2606843E+05 -0.2181608E+01  0.8596451E+05  0.2026577E+01
  0.1969048E+01  0.6160455E+05 -0.1023848E+01  0.2623201E+05 -0.2173760E+01  0.8263188E+05  0.2041165E+01
  0.2000000E+01  0.5970465E+05 -0.1003808E+01  0.2636898E+05 -0.2166159E+01  0.7913523E+05  0.2054466E+01
