VARIABLES="w (rad/s)"
"A   1   1" "B   1   1"
"A   1   2" "B   1   2"
"A   1   3" "B   1   3"
Zone t="Motion of body    1 in DoF   1",I=    64,F=POINT
  0.5000000E-01  0.4756255E+05  0.1804546E-02  0.4997253E-02  0.1259222E-04 -0.1095791E+06 -0.3997554E-02
  0.8095238E-01  0.4793684E+05  0.7613322E-02 -0.2120523E-03 -0.2440451E-05 -0.1102902E+06 -0.1660836E-01
  0.1119048E+00  0.4812029E+05  0.2138934E-01  0.2641881E-02  0.1448259E-04 -0.1104912E+06 -0.4617149E-01
  0.1428571E+00  0.4819048E+05  0.4799190E-01 -0.2910614E-02 -0.1818108E-04 -0.1105679E+06 -0.1035861E+00
  0.1738095E+00  0.4822512E+05  0.9539466E-01 -0.1097379E-03 -0.1288136E-05 -0.1106428E+06 -0.2054413E+00
  0.2047619E+00  0.4832583E+05  0.1761514E+00  0.7265668E-03  0.4694681E-05 -0.1107350E+06 -0.3788743E+00
  0.2357143E+00  0.4834624E+05  0.3095304E+00 -0.4563765E-02 -0.4680594E-04 -0.1107553E+06 -0.6645294E+00
  0.2666667E+00  0.4836231E+05  0.5263771E+00 -0.1087189E-02 -0.2911431E-04 -0.1108378E+06 -0.1127461E+01
  0.2976190E+00  0.4845388E+05  0.8810227E+00  0.5639648E-03  0.3130082E-04 -0.1108894E+06 -0.1881368E+01
  0.3285715E+00  0.4857820E+05  0.1454504E+01  0.1439633E-02  0.7772353E-04 -0.1110348E+06 -0.3094912E+01
  0.3595238E+00  0.4857951E+05  0.2379441E+01  0.4774687E-02  0.2304735E-03 -0.1110632E+06 -0.5046166E+01
  0.3904762E+00  0.4869615E+05  0.3866436E+01  0.1875714E-02  0.8419156E-06 -0.1112117E+06 -0.8165027E+01
  0.4214286E+00  0.4881968E+05  0.6200015E+01  0.1955194E-02  0.5611405E-04 -0.1113588E+06 -0.1303407E+02
  0.4523810E+00  0.4896763E+05  0.9855035E+01 -0.3541645E-03  0.6769598E-04 -0.1115148E+06 -0.2061851E+02
  0.4833333E+00  0.4898831E+05  0.1525368E+02  0.1357506E-02  0.4920363E-04 -0.1115992E+06 -0.3177262E+02
  0.5142857E+00  0.4915347E+05  0.2325272E+02  0.1424154E-02  0.4146397E-03 -0.1117834E+06 -0.4816953E+02
  0.5452381E+00  0.4937632E+05  0.3461206E+02  0.3386252E-02  0.4198998E-03 -0.1120842E+06 -0.7128438E+02
  0.5761905E+00  0.4949550E+05  0.5024454E+02  0.7150192E-03  0.3179014E-03 -0.1122644E+06 -0.1028919E+03
  0.6071429E+00  0.4966011E+05  0.7161449E+02  0.1708984E-02  0.4169047E-03 -0.1124971E+06 -0.1457654E+03
  0.6380953E+00  0.4983377E+05  0.9981072E+02  0.1195651E-02  0.8689761E-03 -0.1127467E+06 -0.2018622E+03
  0.6690477E+00  0.5006401E+05  0.1367734E+03  0.1710505E-02  0.3257990E-03 -0.1130546E+06 -0.2747004E+03
  0.7000000E+00  0.5034088E+05  0.1846680E+03 -0.1351493E-02  0.3623962E-04 -0.1133827E+06 -0.3681093E+03
  0.7309524E+00  0.5056581E+05  0.2453161E+03  0.1795269E-02  0.5384684E-03 -0.1137178E+06 -0.4854769E+03
  0.7619048E+00  0.5074342E+05  0.3213830E+03  0.2763748E-02  0.8697510E-03 -0.1140201E+06 -0.6314355E+03
  0.7928572E+00  0.5099841E+05  0.4161812E+03 -0.5196236E-03  0.7264614E-03 -0.1143325E+06 -0.8110181E+03
  0.8238096E+00  0.5137002E+05  0.5333893E+03  0.6482780E-03  0.1017809E-02 -0.1148079E+06 -0.1030408E+04
  0.8547620E+00  0.5165960E+05  0.6757793E+03  0.3034756E-02  0.1308918E-02 -0.1151638E+06 -0.1294082E+04
  0.8857143E+00  0.5197462E+05  0.8479499E+03  0.3342167E-02  0.1629829E-02 -0.1156002E+06 -0.1609513E+04
  0.9166667E+00  0.5228325E+05  0.1054003E+04  0.5593040E-02  0.2866268E-02 -0.1159436E+06 -0.1981669E+04
  0.9476191E+00  0.5263767E+05  0.1299144E+04  0.2672972E-02  0.1897812E-02 -0.1164265E+06 -0.2419660E+04
  0.9785714E+00  0.5292643E+05  0.1587089E+04 -0.1372177E-02 -0.1726151E-03 -0.1167885E+06 -0.2927499E+04
  0.1009524E+01  0.5326603E+05  0.1924748E+04  0.3295035E-02  0.2127647E-02 -0.1171783E+06 -0.3514227E+04
  0.1040476E+01  0.5364370E+05  0.2317943E+04 -0.2023797E-02 -0.3814697E-05 -0.1175772E+06 -0.4186972E+04
  0.1071429E+01  0.5405716E+05  0.2772848E+04 -0.9114583E-03 -0.1148224E-02 -0.1179998E+06 -0.4953344E+04
  0.1102381E+01  0.5445912E+05  0.3294667E+04 -0.9135499E-03  0.1033783E-02 -0.1184467E+06 -0.5820976E+04
  0.1133333E+01  0.5478622E+05  0.3887121E+04 -0.5654728E-02 -0.2660751E-02 -0.1187423E+06 -0.6789825E+04
  0.1164286E+01  0.5509829E+05  0.4557842E+04 -0.2804621E-02 -0.2651215E-02 -0.1190280E+06 -0.7870194E+04
  0.1195238E+01  0.5538680E+05  0.5311676E+04 -0.1531958E-02 -0.8583069E-03 -0.1192751E+06 -0.9064655E+04
  0.1226190E+01  0.5568873E+05  0.6155211E+04 -0.2215043E-02 -0.1678467E-02 -0.1194645E+06 -0.1037442E+05
  0.1257143E+01  0.5599893E+05  0.7093169E+04 -0.3471374E-02 -0.5481720E-02 -0.1196750E+06 -0.1180719E+05
  0.1288095E+01  0.5631570E+05  0.8134085E+04 -0.2203358E-02 -0.3189087E-02 -0.1198504E+06 -0.1336702E+05
  0.1319048E+01  0.5652999E+05  0.9269896E+04 -0.4835438E-02 -0.8392334E-03 -0.1198205E+06 -0.1503169E+05
  0.1350000E+01  0.5672876E+05  0.1051238E+05  0.3142180E-02  0.3776550E-02 -0.1198191E+06 -0.1682504E+05
  0.1380952E+01  0.5687232E+05  0.1185730E+05 -0.2165696E-02  0.8926392E-03 -0.1196913E+06 -0.1872096E+05
  0.1411905E+01  0.5669123E+05  0.1320514E+05 -0.2334363E-02 -0.2136230E-02 -0.1192783E+06 -0.2059491E+05
  0.1442857E+01  0.5677499E+05  0.1474557E+05 -0.8460319E-03  0.1754761E-02 -0.1190376E+06 -0.2267156E+05
  0.1473810E+01  0.5672984E+05  0.1637474E+05 -0.1656528E-03  0.4882812E-03 -0.1186633E+06 -0.2482397E+05
  0.1504762E+01  0.5657961E+05  0.1808256E+05  0.9329108E-03  0.1708984E-02 -0.1181051E+06 -0.2701047E+05
  0.1535714E+01  0.5635773E+05  0.1986685E+05 -0.4371820E-02 -0.6927490E-02 -0.1174343E+06 -0.2923081E+05
  0.1566667E+01  0.5611066E+05  0.2173192E+05 -0.2843978E-02 -0.4043579E-02 -0.1167750E+06 -0.3150371E+05
  0.1597619E+01  0.5576927E+05  0.2364323E+05 -0.1986599E-02 -0.9460449E-03 -0.1159223E+06 -0.3373954E+05
  0.1628572E+01  0.5538958E+05  0.2560591E+05 -0.3560384E-02 -0.4394531E-02 -0.1150228E+06 -0.3596555E+05
  0.1659524E+01  0.5496965E+05  0.2760638E+05  0.1213698E-02 -0.4577637E-03 -0.1141008E+06 -0.3816203E+05
  0.1690476E+01  0.5444620E+05  0.2961697E+05 -0.7943166E-03 -0.1617432E-02 -0.1131169E+06 -0.4030942E+05
  0.1721429E+01  0.5382067E+05  0.3161062E+05 -0.2765576E-02  0.2746582E-03 -0.1120081E+06 -0.4234115E+05
  0.1752381E+01  0.5307869E+05  0.3355231E+05  0.9055760E-03 -0.1220703E-02 -0.1107214E+06 -0.4417946E+05
  0.1783333E+01  0.5230778E+05  0.3546983E+05 -0.2019294E-02 -0.1708984E-02 -0.1094675E+06 -0.4593600E+05
  0.1814286E+01  0.5151658E+05  0.3735088E+05  0.1009243E-03 -0.3112793E-02 -0.1082587E+06 -0.4759407E+05
  0.1845238E+01  0.5062939E+05  0.3911443E+05  0.1323085E-03 -0.3662109E-03 -0.1068708E+06 -0.4895706E+05
  0.1876190E+01  0.4973637E+05  0.4081056E+05 -0.8783486E-03 -0.3387451E-02 -0.1055377E+06 -0.5019364E+05
  0.1907143E+01  0.4883360E+05  0.4241429E+05 -0.1792193E-02 -0.5096436E-02 -0.1042365E+06 -0.5124289E+05
  0.1938095E+01  0.4792089E+05  0.4393013E+05 -0.1385663E-02  0.2014160E-02 -0.1030173E+06 -0.5217418E+05
  0.1969048E+01  0.4693423E+05  0.4529309E+05 -0.2324797E-02 -0.2502441E-02 -0.1017422E+06 -0.5286615E+05
  0.2000000E+01  0.4592894E+05  0.4650482E+05 -0.1556396E-02 -0.2319336E-02 -0.1004523E+06 -0.5327848E+05
Zone t="Motion of body    1 in DoF   2",I=    64,F=POINT
  0.5000000E-01 -0.3814697E-02 -0.1311302E-05  0.1305658E+05  0.3477955E+02  0.2226830E-02 -0.1302361E-04
  0.8095238E-01  0.1602173E-02  0.5483627E-05  0.1291545E+05  0.5770128E+02 -0.1085001E-01 -0.4577637E-04
  0.1119048E+00  0.1022664E-02  0.3266335E-04  0.1284002E+05  0.8269821E+02 -0.7073423E-03  0.1078844E-04
  0.1428571E+00  0.2136230E-03 -0.3910065E-04  0.1280288E+05  0.1107571E+03  0.2142906E-02  0.5054474E-04
  0.1738095E+00 -0.5179627E-02 -0.3623962E-04  0.1280348E+05  0.1430844E+03  0.9645958E-02 -0.4926324E-04
  0.2047619E+00 -0.2608188E-02  0.6198883E-05  0.1283098E+05  0.1812528E+03 -0.1327382E-02 -0.1070499E-03
  0.2357143E+00  0.2524636E-02  0.4673004E-04  0.1287053E+05  0.2274280E+03 -0.6878014E-04  0.5602837E-05
  0.2666667E+00  0.1888275E-02  0.1335144E-04  0.1293830E+05  0.2834796E+03  0.9666680E-02  0.2053380E-03
  0.2976190E+00 -0.2358398E-02  0.3814697E-05  0.1301298E+05  0.3535767E+03  0.1659851E-02  0.4075766E-03
  0.3285715E+00 -0.1439633E-02  0.1716614E-04  0.1310092E+05  0.4400102E+03 -0.7090775E-02 -0.7081032E-04
  0.3595238E+00 -0.1103483E-02 -0.2803802E-03  0.1318647E+05  0.5479172E+03  0.1795813E-02  0.3216267E-03
  0.3904762E+00 -0.3868661E-02 -0.2288818E-04  0.1327685E+05  0.6812030E+03 -0.7063237E-02 -0.9775162E-04
  0.4214286E+00 -0.4272460E-02  0.5340576E-04  0.1332736E+05  0.8391959E+03  0.6612357E-02  0.7858276E-03
  0.4523810E+00 -0.3372995E-03  0.1068115E-03  0.1336870E+05  0.1030070E+04 -0.4161433E-02 -0.9949207E-03
  0.4833333E+00  0.1894194E-02  0.3852844E-03  0.1336974E+05  0.1239620E+04  0.5051185E-03 -0.1619577E-02
  0.5142857E+00 -0.2373590E-03 -0.6866455E-04  0.1333287E+05  0.1477472E+04  0.4902946E-02 -0.4768372E-06
  0.5452381E+00 -0.4869486E-02  0.1220703E-03  0.1326713E+05  0.1731752E+04  0.6566111E-02  0.8349419E-03
  0.5761905E+00  0.2489326E-02 -0.5340576E-04  0.1317041E+05  0.1998641E+04  0.2025888E-02 -0.1401901E-03
  0.6071429E+00  0.0000000E+00  0.5722046E-03  0.1304891E+05  0.2283843E+04 -0.1182780E-01  0.1800537E-02
  0.6380953E+00 -0.3730432E-02  0.4577637E-03  0.1291198E+05  0.2573797E+04  0.4364127E-02 -0.5311966E-03
  0.6690477E+00  0.5017481E-03  0.1281738E-02  0.1275056E+05  0.2873377E+04  0.8717872E-02  0.4491806E-03
  0.7000000E+00  0.8719308E-04  0.1983643E-03  0.1256669E+05  0.3183504E+04  0.1455034E-02 -0.3471375E-03
  0.7309524E+00 -0.6262565E-03 -0.1922607E-02  0.1237826E+05  0.3496763E+04 -0.3340034E-03  0.2269745E-03
  0.7619048E+00  0.1882553E-02  0.1663208E-02  0.1217649E+05  0.3814269E+04 -0.4155635E-02 -0.3433228E-03
  0.7928572E+00 -0.2424910E-02  0.1113892E-02  0.1195682E+05  0.4135200E+04 -0.7096711E-03 -0.3687859E-02
  0.8238096E+00 -0.5038046E-02  0.5645752E-03  0.1172650E+05  0.4456475E+04 -0.5207061E-02  0.2025604E-02
  0.8547620E+00 -0.3213271E-03  0.6408691E-03  0.1148241E+05  0.4776345E+04  0.6890682E-02 -0.2874374E-02
  0.8857143E+00  0.5168300E-03 -0.5187988E-03  0.1123557E+05  0.5092223E+04  0.4242313E-02 -0.1220703E-03
  0.9166667E+00  0.3728693E-02  0.1770020E-02  0.1098160E+05  0.5402962E+04 -0.3570557E-02  0.3242493E-03
  0.9476191E+00  0.3800128E-02 -0.1617432E-02  0.1072480E+05  0.5706108E+04 -0.1429074E-01  0.8296967E-03
  0.9785714E+00  0.5925311E-02  0.9155273E-03  0.1045976E+05  0.6001631E+04  0.7835444E-03 -0.3963470E-02
  0.1009524E+01  0.6045935E-03 -0.4882812E-03  0.1019216E+05  0.6287253E+04  0.8528548E-02 -0.9498596E-03
  0.1040476E+01  0.2874379E-02 -0.5798340E-03  0.9920809E+04  0.6561428E+04  0.9932005E-02 -0.3356934E-02
  0.1071429E+01  0.2563477E-02 -0.2288818E-02  0.9650836E+04  0.6822346E+04  0.3044128E-02 -0.2542496E-02
  0.1102381E+01  0.1107333E-02 -0.3479004E-02  0.9384148E+04  0.7068916E+04 -0.3609214E-02  0.5474091E-03
  0.1133333E+01 -0.1454073E-02  0.1159668E-02  0.9116071E+04  0.7301699E+04  0.0000000E+00  0.9670258E-03
  0.1164286E+01  0.1467839E-02 -0.1159668E-02  0.8857029E+04  0.7518792E+04  0.7935506E-02  0.9803772E-03
  0.1195238E+01 -0.3114981E-02 -0.7934570E-03  0.8601007E+04  0.7719938E+04  0.8361937E-02 -0.8640289E-03
  0.1226190E+01  0.2837246E-02 -0.2014160E-02  0.8351487E+04  0.7904992E+04  0.2053270E-03 -0.1640320E-03
  0.1257143E+01 -0.1456521E-03  0.4882812E-03  0.8107588E+04  0.8077614E+04  0.2036095E-02  0.1602173E-03
  0.1288095E+01 -0.3316883E-03 -0.1281738E-02  0.7869939E+04  0.8225554E+04  0.2126359E-02  0.7835388E-02
  0.1319048E+01  0.1804613E-02  0.1770020E-02  0.7632934E+04  0.8362357E+04 -0.2628836E-02 -0.4020691E-02
  0.1350000E+01  0.8364077E-03  0.1831055E-02  0.7409500E+04  0.8481641E+04  0.4111396E-02  0.7324219E-03
  0.1380952E+01  0.1966805E-02 -0.1708984E-02  0.7192878E+04  0.8583670E+04 -0.8137933E-02 -0.2414703E-02
  0.1411905E+01 -0.2809881E-02  0.9765625E-03  0.6969159E+04  0.8663928E+04  0.2180360E-02 -0.6561279E-03
  0.1442857E+01  0.1628611E-02  0.6713867E-03  0.6773188E+04  0.8732151E+04 -0.2360958E-02 -0.1159668E-02
  0.1473810E+01 -0.1801474E-02  0.7934570E-03  0.6587168E+04  0.8787837E+04  0.2680210E-02  0.3532410E-02
  0.1504762E+01  0.1967225E-02 -0.7934570E-03  0.6406178E+04  0.8829051E+04 -0.2022997E-02 -0.7072449E-02
  0.1535714E+01 -0.2563476E-02 -0.3784180E-02  0.6235295E+04  0.8857747E+04  0.8597085E-02 -0.3356934E-03
  0.1566667E+01 -0.4441281E-02  0.5493164E-03  0.6076563E+04  0.8872689E+04  0.9960012E-02  0.2326965E-02
  0.1597619E+01  0.6685669E-03  0.2441406E-02  0.5921397E+04  0.8875605E+04  0.8117119E-02 -0.3280640E-03
  0.1628572E+01 -0.5996436E-03 -0.1892090E-02  0.5776970E+04  0.8866528E+04  0.5522109E-02 -0.1998901E-02
  0.1659524E+01 -0.2574510E-03  0.3051758E-02  0.5641679E+04  0.8842604E+04  0.3367551E-02 -0.5554199E-02
  0.1690476E+01 -0.2256581E-02  0.3662109E-03  0.5516342E+04  0.8810040E+04  0.5852444E-02 -0.4287720E-02
  0.1721429E+01  0.2659208E-03  0.3112793E-02  0.5397686E+04  0.8769751E+04 -0.4718986E-02 -0.2388000E-02
  0.1752381E+01  0.5050328E-03 -0.1037598E-02  0.5282409E+04  0.8718618E+04  0.4729240E-02 -0.1125336E-02
  0.1783333E+01 -0.2293097E-02 -0.3479004E-02  0.5179843E+04  0.8661499E+04 -0.7379835E-04 -0.9918213E-03
  0.1814286E+01 -0.2035306E-02  0.1220703E-03  0.5087360E+04  0.8594787E+04  0.4223050E-02 -0.3234863E-02
  0.1845238E+01 -0.7607737E-03  0.2136230E-02  0.4995523E+04  0.8520521E+04 -0.4134640E-05  0.1556396E-02
  0.1876190E+01 -0.1463914E-03  0.1342773E-02  0.4913622E+04  0.8441371E+04 -0.3791945E-03 -0.5805969E-02
  0.1907143E+01 -0.2320250E-02 -0.2258301E-02  0.4838617E+04  0.8351803E+04  0.6939749E-02  0.4631042E-02
  0.1938095E+01 -0.1070740E-02  0.4333496E-02  0.4772893E+04  0.8257479E+04  0.4070385E-02 -0.5661011E-02
  0.1969048E+01 -0.1270889E-02 -0.4577637E-02  0.4710330E+04  0.8165092E+04  0.5500083E-02 -0.1770020E-02
  0.2000000E+01 -0.2258301E-02 -0.1464844E-02  0.4651299E+04  0.8064107E+04  0.4530907E-02  0.2994537E-02
Zone t="Motion of body    1 in DoF   3",I=    64,F=POINT
  0.5000000E-01 -0.1093724E+06 -0.3989470E-02  0.2765656E-02  0.9486452E-05  0.4037763E+06  0.9025249E-02
  0.8095238E-01 -0.1101278E+06 -0.1651443E-01 -0.6373349E-02 -0.2816909E-04  0.4047880E+06  0.3640534E-01
  0.1119048E+00 -0.1103532E+06 -0.4594709E-01 -0.1568084E-02  0.3599242E-05  0.4049716E+06  0.9860295E-01
  0.1428571E+00 -0.1104310E+06 -0.1031276E+00  0.8464813E-02  0.8255418E-04  0.4050917E+06  0.2226782E+00
  0.1738095E+00 -0.1105078E+06 -0.2045247E+00  0.1334412E-01  0.1283042E-03  0.4051775E+06  0.4401228E+00
  0.2047619E+00 -0.1106063E+06 -0.3772472E+00 -0.3167086E-03 -0.1534098E-04  0.4052893E+06  0.8107234E+00
  0.2357143E+00 -0.1106221E+06 -0.6617129E+00  0.8820042E-02  0.5388679E-04  0.4053325E+06  0.1419892E+01
  0.2666667E+00 -0.1107002E+06 -0.1122054E+01  0.8769035E-02  0.3430317E-03  0.4054385E+06  0.2403265E+01
  0.2976190E+00 -0.1107526E+06 -0.1872932E+01  0.4075928E-02 -0.1860196E-03  0.4055255E+06  0.4000482E+01
  0.3285715E+00 -0.1109036E+06 -0.3081874E+01  0.6687329E-02 -0.2090074E-04  0.4057030E+06  0.6558238E+01
  0.3595238E+00 -0.1109202E+06 -0.5022547E+01 -0.3607541E-02 -0.1449995E-03  0.4057888E+06  0.1065072E+02
  0.3904762E+00 -0.1110734E+06 -0.8127907E+01  0.3321578E-02  0.1385696E-03  0.4059825E+06  0.1716364E+02
  0.4214286E+00 -0.1112194E+06 -0.1297601E+02  0.3294864E-02 -0.3667250E-03  0.4062051E+06  0.2727879E+02
  0.4523810E+00 -0.1113797E+06 -0.2053293E+02  0.2209312E-02  0.1074374E-04  0.4063826E+06  0.4296462E+02
  0.4833333E+00 -0.1114497E+06 -0.3162111E+02  0.1665313E-01  0.1144394E-02  0.4065634E+06  0.6586382E+02
  0.5142857E+00 -0.1116360E+06 -0.4795312E+02 -0.6230673E-03  0.4226863E-03  0.4068346E+06  0.9933247E+02
  0.5452381E+00 -0.1119442E+06 -0.7097858E+02 -0.3959956E-02 -0.8395910E-03  0.4072278E+06  0.1461835E+03
  0.5761905E+00 -0.1121163E+06 -0.1024231E+03 -0.5865806E-02 -0.1224458E-02  0.4075533E+06  0.2097419E+03
  0.6071429E+00 -0.1123469E+06 -0.1450812E+03 -0.9449678E-02 -0.1825094E-02  0.4078525E+06  0.2953340E+03
  0.6380953E+00 -0.1125924E+06 -0.2008861E+03 -0.5404344E-02 -0.9844303E-03  0.4082332E+06  0.4062812E+03
  0.6690477E+00 -0.1129004E+06 -0.2733871E+03  0.1220160E-01  0.2451301E-02  0.4087085E+06  0.5490685E+03
  0.7000000E+00 -0.1132346E+06 -0.3664816E+03 -0.5340576E-02 -0.8137226E-03  0.4091275E+06  0.7305408E+03
  0.7309524E+00 -0.1135633E+06 -0.4831873E+03  0.9185094E-03 -0.9102821E-03  0.4096258E+06  0.9561960E+03
  0.7619048E+00 -0.1138514E+06 -0.6280509E+03 -0.1361847E-02 -0.1322269E-02  0.4101108E+06  0.1233942E+04
  0.7928572E+00 -0.1141621E+06 -0.8067335E+03  0.1233625E-01  0.4024029E-02  0.4105460E+06  0.1572082E+04
  0.8238096E+00 -0.1146450E+06 -0.1025235E+04 -0.1444734E-01 -0.5671978E-02  0.4111343E+06  0.1980505E+04
  0.8547620E+00 -0.1149984E+06 -0.1287563E+04  0.4159401E-02  0.2783775E-02  0.4116019E+06  0.2465488E+04
  0.8857143E+00 -0.1154277E+06 -0.1600945E+04 -0.1243837E-01 -0.7863045E-02  0.4122263E+06  0.3038577E+04
  0.9166667E+00 -0.1157687E+06 -0.1971313E+04 -0.5276767E-02 -0.6198883E-03  0.4126496E+06  0.3706106E+04
  0.9476191E+00 -0.1162459E+06 -0.2406102E+04 -0.4991694E-03 -0.7057190E-03  0.4132112E+06  0.4481172E+04
  0.9785714E+00 -0.1165978E+06 -0.2910030E+04 -0.1730814E-02 -0.2164841E-02  0.4136458E+06  0.5367592E+04
  0.1009524E+01 -0.1169840E+06 -0.3493033E+04 -0.3022968E-04  0.4806519E-03  0.4141124E+06  0.6377239E+04
  0.1040476E+01 -0.1173834E+06 -0.4162202E+04  0.2757057E-02 -0.2403259E-03  0.4145214E+06  0.7517373E+04
  0.1071429E+01 -0.1178100E+06 -0.4925012E+04 -0.4756673E-02 -0.3543854E-02  0.4149057E+06  0.8796370E+04
  0.1102381E+01 -0.1182518E+06 -0.5786352E+04  0.4263233E-02  0.5050659E-02  0.4153264E+06  0.1022093E+05
  0.1133333E+01 -0.1185406E+06 -0.6748250E+04 -0.2154182E-02  0.4173279E-02  0.4155229E+06  0.1178470E+05
  0.1164286E+01 -0.1188168E+06 -0.7819439E+04  0.9383687E-02  0.4756927E-02  0.4157275E+06  0.1349930E+05
  0.1195238E+01 -0.1190524E+06 -0.9001753E+04  0.3395841E-02  0.5149841E-02  0.4158114E+06  0.1535934E+05
  0.1226190E+01 -0.1192418E+06 -0.1030250E+05  0.0000000E+00 -0.5645752E-03  0.4157699E+06  0.1736210E+05
  0.1257143E+01 -0.1194490E+06 -0.1172187E+05  0.1087535E-01  0.9162903E-02  0.4156797E+06  0.1950702E+05
  0.1288095E+01 -0.1196224E+06 -0.1327027E+05  0.8884507E-02  0.5958557E-02  0.4155809E+06  0.2179974E+05
  0.1319048E+01 -0.1195956E+06 -0.1492434E+05  0.4442125E-02  0.1976013E-02  0.4151307E+06  0.2418806E+05
  0.1350000E+01 -0.1195889E+06 -0.1669959E+05 -0.6736473E-02 -0.7034302E-02  0.4147691E+06  0.2670973E+05
  0.1380952E+01 -0.1194590E+06 -0.1857815E+05  0.9723532E-03 -0.4821777E-02  0.4141798E+06  0.2930965E+05
  0.1411905E+01 -0.1191882E+06 -0.2048842E+05  0.1080724E-02 -0.9155273E-03  0.4134298E+06  0.3192923E+05
  0.1442857E+01 -0.1189457E+06 -0.2254961E+05  0.1059655E-01  0.9124756E-02  0.4125932E+06  0.3464089E+05
  0.1473810E+01 -0.1185637E+06 -0.2467801E+05  0.3105989E-02  0.3997803E-02  0.4116863E+06  0.3738212E+05
  0.1504762E+01 -0.1180041E+06 -0.2684286E+05  0.9998370E-02  0.1144409E-01  0.4104850E+06  0.4006616E+05
  0.1535714E+01 -0.1173396E+06 -0.2904830E+05  0.6219908E-02  0.9368896E-02  0.4091801E+06  0.4271144E+05
  0.1566667E+01 -0.1166797E+06 -0.3129541E+05  0.5882750E-02  0.1153564E-01  0.4079226E+06  0.4532680E+05
  0.1597619E+01 -0.1158366E+06 -0.3351715E+05  0.9168918E-03  0.4882812E-03  0.4063676E+06  0.4777758E+05
  0.1628572E+01 -0.1149482E+06 -0.3573232E+05  0.8095189E-02  0.5981445E-02  0.4047904E+06  0.5012418E+05
  0.1659524E+01 -0.1140303E+06 -0.3790289E+05  0.4100827E-02  0.3356934E-03  0.4031383E+06  0.5230398E+05
  0.1690476E+01 -0.1130470E+06 -0.4001098E+05  0.4386794E-02  0.8789062E-02  0.4015268E+06  0.5433823E+05
  0.1721429E+01 -0.1119442E+06 -0.4200990E+05  0.1772805E-03  0.2349854E-02  0.3998279E+06  0.5614380E+05
  0.1752381E+01 -0.1106751E+06 -0.4383820E+05  0.6617671E-03  0.3479004E-02  0.3979059E+06  0.5757303E+05
  0.1783333E+01 -0.1094364E+06 -0.4558172E+05  0.1540139E-02  0.1708984E-02  0.3961566E+06  0.5887497E+05
  0.1814286E+01 -0.1082362E+06 -0.4720751E+05  0.6089098E-02  0.3479004E-02  0.3945032E+06  0.5995155E+05
  0.1845238E+01 -0.1068683E+06 -0.4857332E+05 -0.4597719E-02 -0.5615234E-02  0.3926211E+06  0.6056604E+05
  0.1876190E+01 -0.1055515E+06 -0.4980760E+05  0.7156914E-03 -0.1281738E-02  0.3909025E+06  0.6101484E+05
  0.1907143E+01 -0.1042620E+06 -0.5083692E+05  0.4272461E-02  0.5859375E-02  0.3891979E+06  0.6112043E+05
  0.1938095E+01 -0.1030492E+06 -0.5172242E+05  0.9447702E-03  0.3051758E-03  0.3876853E+06  0.6105536E+05
  0.1969048E+01 -0.1017871E+06 -0.5239131E+05  0.1797843E-02 -0.6103516E-04  0.3862478E+06  0.6078032E+05
  0.2000000E+01 -0.1005126E+06 -0.5279447E+05  0.2822876E-02  0.3662109E-03  0.3847692E+06  0.6004683E+05
