VARIABLES="w (rad/s)"
"abs(F   1   1)" "angle(F   1   1)"
"abs(F   1   2)" "angle(F   1   2)"
"abs(F   1   3)" "angle(F   1   3)"
Zone t="Diffraction force - beta =   0.000 deg",I=    64,F=POINT
  0.5000000E-01  0.1623453E+04 -0.1570793E+01  0.4470667E+03 -0.3078604E+01  0.3564731E+02 -0.1570793E+01
  0.8095238E-01  0.2650153E+04 -0.1570788E+01  0.1153955E+04 -0.3076126E+01  0.5766863E+02 -0.1570786E+01
  0.1119048E+00  0.3697738E+04 -0.1570780E+01  0.2186817E+04 -0.3073279E+01  0.7987414E+02 -0.1570776E+01
  0.1428571E+00  0.4773826E+04 -0.1570768E+01  0.3546762E+04 -0.3069764E+01  0.1043048E+03 -0.1570760E+01
  0.1738095E+00  0.5911522E+04 -0.1570750E+01  0.5240584E+04 -0.3065425E+01  0.1293204E+03 -0.1570738E+01
  0.2047619E+00  0.7100030E+04 -0.1570725E+01  0.7277038E+04 -0.3060051E+01  0.1574330E+03 -0.1570705E+01
  0.2357143E+00  0.8350867E+04 -0.1570687E+01  0.9662191E+04 -0.3053288E+01  0.1853558E+03 -0.1570656E+01
  0.2666667E+00  0.9724029E+04 -0.1570632E+01  0.1241039E+05 -0.3045159E+01  0.2185743E+03 -0.1570587E+01
  0.2976190E+00  0.1118625E+05 -0.1570550E+01  0.1552436E+05 -0.3034922E+01  0.2549359E+03 -0.1570485E+01
  0.3285715E+00  0.1277902E+05 -0.1570429E+01  0.1902537E+05 -0.3022822E+01  0.2939428E+03 -0.1570331E+01
  0.3595238E+00  0.1456894E+05 -0.1570248E+01  0.2288516E+05 -0.3008064E+01  0.3423033E+03 -0.1570108E+01
  0.3904762E+00  0.1653541E+05 -0.1569978E+01  0.2713872E+05 -0.2990786E+01  0.3956722E+03 -0.1569775E+01
  0.4214286E+00  0.1864282E+05 -0.1569581E+01  0.3168143E+05 -0.2971365E+01  0.4462049E+03 -0.1569267E+01
  0.4523810E+00  0.2103661E+05 -0.1569003E+01  0.3657448E+05 -0.2949053E+01  0.5162009E+03 -0.1568562E+01
  0.4833333E+00  0.2368576E+05 -0.1568207E+01  0.4166950E+05 -0.2926489E+01  0.5936244E+03 -0.1567594E+01
  0.5142857E+00  0.2649087E+05 -0.1567100E+01  0.4697373E+05 -0.2902012E+01  0.6771694E+03 -0.1566248E+01
  0.5452381E+00  0.2943559E+05 -0.1565621E+01  0.5247217E+05 -0.2877831E+01  0.7555325E+03 -0.1564389E+01
  0.5761905E+00  0.3265036E+05 -0.1563718E+01  0.5807428E+05 -0.2854026E+01  0.8583735E+03 -0.1562099E+01
  0.6071429E+00  0.3611079E+05 -0.1561285E+01  0.6377548E+05 -0.2829566E+01  0.9791243E+03 -0.1559256E+01
  0.6380953E+00  0.3967703E+05 -0.1558258E+01  0.6959632E+05 -0.2806830E+01  0.1095907E+04 -0.1555622E+01
  0.6690477E+00  0.4322566E+05 -0.1554480E+01  0.7544818E+05 -0.2784255E+01  0.1205923E+04 -0.1550971E+01
  0.7000000E+00  0.4698733E+05 -0.1549891E+01  0.8133376E+05 -0.2761684E+01  0.1343562E+04 -0.1545570E+01
  0.7309524E+00  0.5096874E+05 -0.1544439E+01  0.8724957E+05 -0.2740154E+01  0.1491148E+04 -0.1539156E+01
  0.7619048E+00  0.5506640E+05 -0.1537968E+01  0.9311704E+05 -0.2718925E+01  0.1655213E+04 -0.1531689E+01
  0.7928572E+00  0.5923692E+05 -0.1530348E+01  0.9892769E+05 -0.2698056E+01  0.1838822E+04 -0.1523125E+01
  0.8238096E+00  0.6335322E+05 -0.1521408E+01  0.1046785E+06 -0.2677777E+01  0.1997548E+04 -0.1512488E+01
  0.8547620E+00  0.6742348E+05 -0.1511049E+01  0.1103559E+06 -0.2658206E+01  0.2155785E+04 -0.1500070E+01
  0.8857143E+00  0.7159672E+05 -0.1499305E+01  0.1159002E+06 -0.2639053E+01  0.2349293E+04 -0.1486697E+01
  0.9166667E+00  0.7587688E+05 -0.1486143E+01  0.1213155E+06 -0.2620553E+01  0.2571747E+04 -0.1472235E+01
  0.9476191E+00  0.8013186E+05 -0.1471423E+01  0.1265427E+06 -0.2602476E+01  0.2789904E+04 -0.1455759E+01
  0.9785714E+00  0.8425405E+05 -0.1455001E+01  0.1315728E+06 -0.2584908E+01  0.3005374E+04 -0.1437225E+01
  0.1009524E+01  0.8813985E+05 -0.1436744E+01  0.1363920E+06 -0.2567827E+01  0.3221613E+04 -0.1416599E+01
  0.1040476E+01  0.9169647E+05 -0.1416535E+01  0.1410081E+06 -0.2551445E+01  0.3427601E+04 -0.1393458E+01
  0.1071429E+01  0.9496622E+05 -0.1394506E+01  0.1454152E+06 -0.2535852E+01  0.3639947E+04 -0.1368770E+01
  0.1102381E+01  0.9798298E+05 -0.1370935E+01  0.1495898E+06 -0.2520851E+01  0.3842449E+04 -0.1342210E+01
  0.1133333E+01  0.1006320E+06 -0.1345794E+01  0.1534899E+06 -0.2506257E+01  0.4033015E+04 -0.1313863E+01
  0.1164286E+01  0.1028263E+06 -0.1319086E+01  0.1571218E+06 -0.2492172E+01  0.4226845E+04 -0.1284049E+01
  0.1195238E+01  0.1044675E+06 -0.1290784E+01  0.1604740E+06 -0.2478631E+01  0.4413186E+04 -0.1252922E+01
  0.1226190E+01  0.1055233E+06 -0.1261053E+01  0.1635566E+06 -0.2465849E+01  0.4589403E+04 -0.1220913E+01
  0.1257143E+01  0.1059315E+06 -0.1229940E+01  0.1663832E+06 -0.2453426E+01  0.4721543E+04 -0.1186454E+01
  0.1288095E+01  0.1056573E+06 -0.1198412E+01  0.1688337E+06 -0.2441800E+01  0.4813651E+04 -0.1151005E+01
  0.1319048E+01  0.1046449E+06 -0.1165771E+01  0.1710131E+06 -0.2430493E+01  0.4872166E+04 -0.1113810E+01
  0.1350000E+01  0.1028492E+06 -0.1132302E+01  0.1728758E+06 -0.2419550E+01  0.4910458E+04 -0.1076253E+01
  0.1380952E+01  0.1002951E+06 -0.1098338E+01  0.1744365E+06 -0.2409414E+01  0.4920103E+04 -0.1039451E+01
  0.1411905E+01  0.9640659E+05 -0.1064239E+01  0.1755212E+06 -0.2399304E+01  0.4815106E+04 -0.9981137E+00
  0.1442857E+01  0.9235699E+05 -0.1029905E+01  0.1764558E+06 -0.2390209E+01  0.4729963E+04 -0.9600382E+00
  0.1473810E+01  0.8755441E+05 -0.9953263E+00  0.1770719E+06 -0.2381581E+01  0.4590411E+04 -0.9203812E+00
  0.1504762E+01  0.8203570E+05 -0.9605243E+00  0.1773775E+06 -0.2373433E+01  0.4395645E+04 -0.8792829E+00
  0.1535714E+01  0.7586917E+05 -0.9257374E+00  0.1773662E+06 -0.2365732E+01  0.4162620E+04 -0.8389547E+00
  0.1566667E+01  0.6907948E+05 -0.8905619E+00  0.1770417E+06 -0.2358438E+01  0.3889855E+04 -0.7997758E+00
  0.1597619E+01  0.6173155E+05 -0.8546767E+00  0.1764195E+06 -0.2351715E+01  0.3568781E+04 -0.7593397E+00
  0.1628572E+01  0.5389780E+05 -0.8176137E+00  0.1754860E+06 -0.2345609E+01  0.3200434E+04 -0.7168928E+00
  0.1659524E+01  0.4564797E+05 -0.7781737E+00  0.1742394E+06 -0.2340136E+01  0.2777668E+04 -0.6685736E+00
  0.1690476E+01  0.3703716E+05 -0.7335767E+00  0.1726844E+06 -0.2335188E+01  0.2302325E+04 -0.6113833E+00
  0.1721429E+01  0.2812935E+05 -0.6775056E+00  0.1708481E+06 -0.2330689E+01  0.1772882E+04 -0.5311852E+00
  0.1752381E+01  0.1902521E+05 -0.5917868E+00  0.1687236E+06 -0.2326744E+01  0.1216872E+04 -0.4029433E+00
  0.1783333E+01  0.9948847E+04 -0.3913002E+00  0.1663144E+06 -0.2323120E+01  0.6663559E+03 -0.9931631E-01
  0.1814286E+01  0.3567272E+04  0.9038317E+00  0.1636307E+06 -0.2320137E+01  0.3731073E+03  0.1137222E+01
  0.1845238E+01  0.1048114E+05  0.2080845E+01  0.1606822E+06 -0.2317820E+01  0.8312639E+03  0.2066336E+01
  0.1876190E+01  0.1981663E+05  0.2266475E+01  0.1574619E+06 -0.2316324E+01  0.1495538E+04  0.2295899E+01
  0.1907143E+01  0.2931833E+05  0.2343943E+01  0.1539764E+06 -0.2315582E+01  0.2219648E+04  0.2397142E+01
  0.1938095E+01  0.3879732E+05  0.2391294E+01  0.1502311E+06 -0.2315598E+01  0.2983856E+04  0.2459001E+01
  0.1969048E+01  0.4817451E+05  0.2425918E+01  0.1462430E+06 -0.2316407E+01  0.3783714E+04  0.2502947E+01
  0.2000000E+01  0.5740062E+05  0.2453686E+01  0.1420281E+06 -0.2318007E+01  0.4608093E+04  0.2537242E+01
