VARIABLES="w (rad/s)"
"abs(F   1   1)" "angle(F   1   1)"
"abs(F   1   2)" "angle(F   1   2)"
"abs(F   1   3)" "angle(F   1   3)"
Zone t="Diffraction force - beta =   0.000 deg",I=    64,F=POINT
  0.5000000E-01  0.4166727E+03 -0.1570795E+01  0.2473988E+03 -0.3094778E+01  0.4817296E+03 -0.1570795E+01
  0.8095238E-01  0.6797772E+03 -0.1570794E+01  0.6425206E+03 -0.3093156E+01  0.7834996E+03 -0.1570794E+01
  0.1119048E+00  0.9492707E+03 -0.1570792E+01  0.1221346E+04 -0.3091076E+01  0.1093903E+04 -0.1570791E+01
  0.1428571E+00  0.1226533E+04 -0.1570788E+01  0.1988088E+04 -0.3088514E+01  0.1414432E+04 -0.1570786E+01
  0.1738095E+00  0.1514870E+04 -0.1570783E+01  0.2941240E+04 -0.3085146E+01  0.1746951E+04 -0.1570780E+01
  0.2047619E+00  0.1817033E+04 -0.1570775E+01  0.4094778E+04 -0.3081041E+01  0.2097002E+04 -0.1570771E+01
  0.2357143E+00  0.2136975E+04 -0.1570765E+01  0.5442929E+04 -0.3075735E+01  0.2468425E+04 -0.1570757E+01
  0.2666667E+00  0.2479806E+04 -0.1570748E+01  0.7000699E+04 -0.3069296E+01  0.2864409E+04 -0.1570737E+01
  0.2976190E+00  0.2849273E+04 -0.1570725E+01  0.8779857E+04 -0.3061275E+01  0.3296267E+04 -0.1570707E+01
  0.3285715E+00  0.3251263E+04 -0.1570689E+01  0.1077291E+05 -0.3051535E+01  0.3767469E+04 -0.1570663E+01
  0.3595238E+00  0.3690936E+04 -0.1570636E+01  0.1298192E+05 -0.3039650E+01  0.4277396E+04 -0.1570595E+01
  0.3904762E+00  0.4171652E+04 -0.1570555E+01  0.1544232E+05 -0.3025692E+01  0.4837350E+04 -0.1570495E+01
  0.4214286E+00  0.4703783E+04 -0.1570438E+01  0.1809860E+05 -0.3009957E+01  0.5470443E+04 -0.1570348E+01
  0.4523810E+00  0.5282603E+04 -0.1570264E+01  0.2095237E+05 -0.2991557E+01  0.6149544E+04 -0.1570131E+01
  0.4833333E+00  0.5910091E+04 -0.1570024E+01  0.2398997E+05 -0.2972853E+01  0.6881156E+04 -0.1569829E+01
  0.5142857E+00  0.6583976E+04 -0.1569690E+01  0.2722397E+05 -0.2952776E+01  0.7678880E+04 -0.1569409E+01
  0.5452381E+00  0.7303293E+04 -0.1569244E+01  0.3061007E+05 -0.2932560E+01  0.8545575E+04 -0.1568851E+01
  0.5761905E+00  0.8056062E+04 -0.1568662E+01  0.3410445E+05 -0.2912284E+01  0.9442167E+04 -0.1568119E+01
  0.6071429E+00  0.8842973E+04 -0.1567911E+01  0.3774731E+05 -0.2891618E+01  0.1037975E+05 -0.1567172E+01
  0.6380953E+00  0.9646850E+04 -0.1566969E+01  0.4155867E+05 -0.2872222E+01  0.1133171E+05 -0.1565982E+01
  0.6690477E+00  0.1046491E+05 -0.1565797E+01  0.4546676E+05 -0.2852781E+01  0.1231150E+05 -0.1564499E+01
  0.7000000E+00  0.1130991E+05 -0.1564359E+01  0.4945400E+05 -0.2833034E+01  0.1334297E+05 -0.1562685E+01
  0.7309524E+00  0.1216783E+05 -0.1562625E+01  0.5353296E+05 -0.2813812E+01  0.1438225E+05 -0.1560489E+01
  0.7619048E+00  0.1302753E+05 -0.1560543E+01  0.5770945E+05 -0.2794995E+01  0.1541312E+05 -0.1557835E+01
  0.7928572E+00  0.1388637E+05 -0.1558069E+01  0.6197272E+05 -0.2776559E+01  0.1644526E+05 -0.1554675E+01
  0.8238096E+00  0.1473923E+05 -0.1555162E+01  0.6629774E+05 -0.2758461E+01  0.1748155E+05 -0.1550956E+01
  0.8547620E+00  0.1558444E+05 -0.1551784E+01  0.7065412E+05 -0.2740584E+01  0.1851247E+05 -0.1546624E+01
  0.8857143E+00  0.1641982E+05 -0.1547893E+01  0.7501693E+05 -0.2722866E+01  0.1954284E+05 -0.1541631E+01
  0.9166667E+00  0.1723932E+05 -0.1543452E+01  0.7939245E+05 -0.2705506E+01  0.2054710E+05 -0.1535899E+01
  0.9476191E+00  0.1803386E+05 -0.1538419E+01  0.8378438E+05 -0.2688700E+01  0.2151576E+05 -0.1529364E+01
  0.9785714E+00  0.1878513E+05 -0.1532740E+01  0.8818118E+05 -0.2672475E+01  0.2241414E+05 -0.1521922E+01
  0.1009524E+01  0.1948523E+05 -0.1526386E+01  0.9256742E+05 -0.2656771E+01  0.2324953E+05 -0.1513545E+01
  0.1040476E+01  0.2013461E+05 -0.1519356E+01  0.9691970E+05 -0.2641475E+01  0.2401858E+05 -0.1504212E+01
  0.1071429E+01  0.2072490E+05 -0.1511640E+01  0.1012244E+06 -0.2626551E+01  0.2472221E+05 -0.1493914E+01
  0.1102381E+01  0.2125280E+05 -0.1503254E+01  0.1054694E+06 -0.2611989E+01  0.2534463E+05 -0.1482627E+01
  0.1133333E+01  0.2169869E+05 -0.1494174E+01  0.1096278E+06 -0.2597648E+01  0.2583596E+05 -0.1470203E+01
  0.1164286E+01  0.2205014E+05 -0.1484400E+01  0.1137206E+06 -0.2583862E+01  0.2619727E+05 -0.1456629E+01
  0.1195238E+01  0.2230356E+05 -0.1473983E+01  0.1177438E+06 -0.2570772E+01  0.2640597E+05 -0.1441841E+01
  0.1226190E+01  0.2243710E+05 -0.1462916E+01  0.1216902E+06 -0.2558387E+01  0.2644046E+05 -0.1425756E+01
  0.1257143E+01  0.2244111E+05 -0.1451148E+01  0.1256027E+06 -0.2546428E+01  0.2628002E+05 -0.1408147E+01
  0.1288095E+01  0.2231270E+05 -0.1439170E+01  0.1292916E+06 -0.2535340E+01  0.2592833E+05 -0.1389581E+01
  0.1319048E+01  0.2203269E+05 -0.1426664E+01  0.1329177E+06 -0.2524440E+01  0.2534127E+05 -0.1369297E+01
  0.1350000E+01  0.2159542E+05 -0.1413905E+01  0.1364164E+06 -0.2513928E+01  0.2452707E+05 -0.1347483E+01
  0.1380952E+01  0.2100315E+05 -0.1401152E+01  0.1397813E+06 -0.2504008E+01  0.2347187E+05 -0.1324019E+01
  0.1411905E+01  0.2016299E+05 -0.1388991E+01  0.1409644E+06 -0.2490519E+01  0.2200948E+05 -0.1298432E+01
  0.1442857E+01  0.1927637E+05 -0.1376493E+01  0.1440035E+06 -0.2481111E+01  0.2051724E+05 -0.1270307E+01
  0.1473810E+01  0.1821462E+05 -0.1364697E+01  0.1468908E+06 -0.2472147E+01  0.1875746E+05 -0.1238971E+01
  0.1504762E+01  0.1697745E+05 -0.1354107E+01  0.1496203E+06 -0.2463613E+01  0.1671866E+05 -0.1202970E+01
  0.1535714E+01  0.1555821E+05 -0.1345340E+01  0.1521870E+06 -0.2455512E+01  0.1439659E+05 -0.1159519E+01
  0.1566667E+01  0.1396007E+05 -0.1339507E+01  0.1545837E+06 -0.2447936E+01  0.1179309E+05 -0.1102725E+01
  0.1597619E+01  0.1218560E+05 -0.1338500E+01  0.1568044E+06 -0.2440757E+01  0.8926244E+04 -0.1018030E+01
  0.1628572E+01  0.1023826E+05 -0.1345649E+01  0.1588428E+06 -0.2433914E+01  0.5852264E+04 -0.8556853E+00
  0.1659524E+01  0.8130023E+04 -0.1368524E+01  0.1606906E+06 -0.2427536E+01  0.2933153E+04 -0.3494184E+00
  0.1690476E+01  0.5883090E+04 -0.1427141E+01  0.1623472E+06 -0.2421483E+01  0.2987816E+04  0.1071947E+01
  0.1721429E+01  0.3569936E+04 -0.1596584E+01  0.1638068E+06 -0.2415772E+01  0.6442799E+04  0.1594658E+01
  0.1752381E+01  0.1689042E+04 -0.2336525E+01  0.1650687E+06 -0.2410414E+01  0.1062253E+05  0.1760056E+01
  0.1783333E+01  0.2686416E+04  0.2670047E+01  0.1661320E+06 -0.2405250E+01  0.1513374E+05  0.1845683E+01
  0.1814286E+01  0.5295133E+04  0.2360096E+01  0.1669792E+06 -0.2400570E+01  0.1991553E+05  0.1902452E+01
  0.1845238E+01  0.8210078E+04  0.2266651E+01  0.1676068E+06 -0.2396320E+01  0.2493383E+05  0.1945399E+01
  0.1876190E+01  0.1127791E+05  0.2228909E+01  0.1680054E+06 -0.2392505E+01  0.3017248E+05  0.1980341E+01
  0.1907143E+01  0.1445891E+05  0.2212729E+01  0.1681708E+06 -0.2389117E+01  0.3560766E+05  0.2010291E+01
  0.1938095E+01  0.1773116E+05  0.2206824E+01  0.1681039E+06 -0.2386157E+01  0.4121749E+05  0.2036777E+01
  0.1969048E+01  0.2107697E+05  0.2206642E+01  0.1678057E+06 -0.2383545E+01  0.4696382E+05  0.2061002E+01
  0.2000000E+01  0.2447758E+05  0.2209978E+01  0.1672957E+06 -0.2381211E+01  0.5282270E+05  0.2083591E+01
