VARIABLES="w (rad/s)"
"abs(F   1   1)" "angle(F   1   1)"
"abs(F   1   2)" "angle(F   1   2)"
"abs(F   1   3)" "angle(F   1   3)"
Zone t="Diffraction force - beta =   0.000 deg",I=    64,F=POINT
  0.5000000E-01  0.1179251E+04 -0.1570754E+01  0.2933159E+06 -0.1984987E-04  0.2471031E+03 -0.1570832E+01
  0.8095238E-01  0.1924075E+04 -0.1570805E+01  0.2929178E+06 -0.5342169E-04  0.3996361E+03 -0.1570814E+01
  0.1119048E+00  0.2685708E+04 -0.1570789E+01  0.2923322E+06 -0.1061541E-03  0.5584224E+03 -0.1570796E+01
  0.1428571E+00  0.3473563E+04 -0.1570795E+01  0.2915589E+06 -0.1821425E-03  0.7238569E+03 -0.1570810E+01
  0.1738095E+00  0.4295029E+04 -0.1570785E+01  0.2905960E+06 -0.2876767E-03  0.9018805E+03 -0.1570795E+01
  0.2047619E+00  0.5160085E+04 -0.1570783E+01  0.2894411E+06 -0.4316808E-03  0.1088473E+04 -0.1570798E+01
  0.2357143E+00  0.6078080E+04 -0.1570780E+01  0.2880897E+06 -0.6275392E-03  0.1290130E+04 -0.1570794E+01
  0.2666667E+00  0.7069235E+04 -0.1570781E+01  0.2865417E+06 -0.8917295E-03  0.1518286E+04 -0.1570792E+01
  0.2976190E+00  0.8140568E+04 -0.1570768E+01  0.2847928E+06 -0.1251544E-02  0.1760503E+04 -0.1570781E+01
  0.3285715E+00  0.9307064E+04 -0.1570760E+01  0.2828364E+06 -0.1735908E-02  0.2030023E+04 -0.1570768E+01
  0.3595238E+00  0.1060131E+05 -0.1570747E+01  0.2806795E+06 -0.2389394E-02  0.2346178E+04 -0.1570756E+01
  0.3904762E+00  0.1202621E+05 -0.1570724E+01  0.2783203E+06 -0.3263687E-02  0.2692525E+04 -0.1570726E+01
  0.4214286E+00  0.1359311E+05 -0.1570689E+01  0.2757690E+06 -0.4391636E-02  0.3072475E+04 -0.1570691E+01
  0.4523810E+00  0.1531915E+05 -0.1570637E+01  0.2730239E+06 -0.5861499E-02  0.3510204E+04 -0.1570639E+01
  0.4833333E+00  0.1722250E+05 -0.1570564E+01  0.2701176E+06 -0.7641672E-02  0.4020387E+04 -0.1570566E+01
  0.5142857E+00  0.1927076E+05 -0.1570464E+01  0.2670545E+06 -0.9831741E-02  0.4558511E+04 -0.1570465E+01
  0.5452381E+00  0.2145578E+05 -0.1570331E+01  0.2638244E+06 -0.1240732E-01  0.5145153E+04 -0.1570331E+01
  0.5761905E+00  0.2377947E+05 -0.1570155E+01  0.2604580E+06 -0.1538280E-01  0.5799424E+04 -0.1570159E+01
  0.6071429E+00  0.2623069E+05 -0.1569931E+01  0.2569835E+06 -0.1884288E-01  0.6508547E+04 -0.1569932E+01
  0.6380953E+00  0.2879623E+05 -0.1569649E+01  0.2533698E+06 -0.2271780E-01  0.7265865E+04 -0.1569651E+01
  0.6690477E+00  0.3145058E+05 -0.1569300E+01  0.2496321E+06 -0.2709194E-01  0.8059669E+04 -0.1569299E+01
  0.7000000E+00  0.3418579E+05 -0.1568867E+01  0.2457964E+06 -0.3202169E-01  0.8907957E+04 -0.1568869E+01
  0.7309524E+00  0.3702198E+05 -0.1568348E+01  0.2418643E+06 -0.3748110E-01  0.9830109E+04 -0.1568349E+01
  0.7619048E+00  0.3995391E+05 -0.1567722E+01  0.2378617E+06 -0.4352511E-01  0.1081853E+05 -0.1567722E+01
  0.7928572E+00  0.4295284E+05 -0.1566979E+01  0.2338012E+06 -0.5018448E-01  0.1184421E+05 -0.1566982E+01
  0.8238096E+00  0.4601336E+05 -0.1566107E+01  0.2296665E+06 -0.5747251E-01  0.1291305E+05 -0.1566108E+01
  0.8547620E+00  0.4912291E+05 -0.1565089E+01  0.2254649E+06 -0.6540830E-01  0.1404060E+05 -0.1565090E+01
  0.8857143E+00  0.5228756E+05 -0.1563915E+01  0.2212285E+06 -0.7401645E-01  0.1523312E+05 -0.1563917E+01
  0.9166667E+00  0.5550238E+05 -0.1562572E+01  0.2169773E+06 -0.8331929E-01  0.1649203E+05 -0.1562576E+01
  0.9476191E+00  0.5877143E+05 -0.1561048E+01  0.2127271E+06 -0.9333104E-01  0.1781521E+05 -0.1561056E+01
  0.9785714E+00  0.6207307E+05 -0.1559332E+01  0.2084774E+06 -0.1040558E+00  0.1919696E+05 -0.1559342E+01
  0.1009524E+01  0.6539786E+05 -0.1557415E+01  0.2042206E+06 -0.1154955E+00  0.2062710E+05 -0.1557426E+01
  0.1040476E+01  0.6872063E+05 -0.1555286E+01  0.1999638E+06 -0.1276595E+00  0.2208007E+05 -0.1555295E+01
  0.1071429E+01  0.7202246E+05 -0.1552943E+01  0.1957202E+06 -0.1405662E+00  0.2359205E+05 -0.1552949E+01
  0.1102381E+01  0.7532478E+05 -0.1550389E+01  0.1914949E+06 -0.1542237E+00  0.2515501E+05 -0.1550398E+01
  0.1133333E+01  0.7860216E+05 -0.1547629E+01  0.1873135E+06 -0.1686481E+00  0.2678403E+05 -0.1547646E+01
  0.1164286E+01  0.8185959E+05 -0.1544674E+01  0.1831757E+06 -0.1838422E+00  0.2846626E+05 -0.1544704E+01
  0.1195238E+01  0.8507493E+05 -0.1541532E+01  0.1790996E+06 -0.1998093E+00  0.3017441E+05 -0.1541578E+01
  0.1226190E+01  0.8821689E+05 -0.1538217E+01  0.1750825E+06 -0.2165426E+00  0.3191334E+05 -0.1538275E+01
  0.1257143E+01  0.9127404E+05 -0.1534728E+01  0.1711057E+06 -0.2342280E+00  0.3365499E+05 -0.1534792E+01
  0.1288095E+01  0.9425971E+05 -0.1531162E+01  0.1671832E+06 -0.2522304E+00  0.3543390E+05 -0.1531218E+01
  0.1319048E+01  0.9711523E+05 -0.1527483E+01  0.1633011E+06 -0.2711853E+00  0.3720624E+05 -0.1527519E+01
  0.1350000E+01  0.9984123E+05 -0.1523766E+01  0.1594735E+06 -0.2908870E+00  0.3898384E+05 -0.1523780E+01
  0.1380952E+01  0.1024284E+06 -0.1520061E+01  0.1557040E+06 -0.3113346E+00  0.4074577E+05 -0.1520060E+01
  0.1411905E+01  0.1044766E+06 -0.1517306E+01  0.1525959E+06 -0.3287166E+00  0.4223673E+05 -0.1517291E+01
  0.1442857E+01  0.1067552E+06 -0.1513840E+01  0.1489817E+06 -0.3504647E+00  0.4398124E+05 -0.1513819E+01
  0.1473810E+01  0.1088658E+06 -0.1510573E+01  0.1454446E+06 -0.3729697E+00  0.4569819E+05 -0.1510542E+01
  0.1504762E+01  0.1107848E+06 -0.1507562E+01  0.1419847E+06 -0.3962162E+00  0.4738191E+05 -0.1507516E+01
  0.1535714E+01  0.1125143E+06 -0.1504896E+01  0.1385904E+06 -0.4201722E+00  0.4901470E+05 -0.1504832E+01
  0.1566667E+01  0.1140410E+06 -0.1502659E+01  0.1352688E+06 -0.4448431E+00  0.5059384E+05 -0.1502575E+01
  0.1597619E+01  0.1153604E+06 -0.1500919E+01  0.1320170E+06 -0.4702542E+00  0.5210034E+05 -0.1500826E+01
  0.1628572E+01  0.1164578E+06 -0.1499767E+01  0.1288424E+06 -0.4964004E+00  0.5355027E+05 -0.1499658E+01
  0.1659524E+01  0.1173455E+06 -0.1499282E+01  0.1257310E+06 -0.5232635E+00  0.5491904E+05 -0.1499165E+01
  0.1690476E+01  0.1180227E+06 -0.1499557E+01  0.1226875E+06 -0.5508339E+00  0.5620596E+05 -0.1499431E+01
  0.1721429E+01  0.1184811E+06 -0.1500653E+01  0.1197169E+06 -0.5791196E+00  0.5740743E+05 -0.1500517E+01
  0.1752381E+01  0.1187321E+06 -0.1502654E+01  0.1168136E+06 -0.6081218E+00  0.5851458E+05 -0.1502508E+01
  0.1783333E+01  0.1187797E+06 -0.1505640E+01  0.1139817E+06 -0.6378117E+00  0.5953135E+05 -0.1505484E+01
  0.1814286E+01  0.1186357E+06 -0.1509677E+01  0.1112201E+06 -0.6682190E+00  0.6045552E+05 -0.1509506E+01
  0.1845238E+01  0.1183081E+06 -0.1514802E+01  0.1085337E+06 -0.6993988E+00  0.6127596E+05 -0.1514639E+01
  0.1876190E+01  0.1178005E+06 -0.1521085E+01  0.1059254E+06 -0.7312705E+00  0.6201043E+05 -0.1520910E+01
  0.1907143E+01  0.1171333E+06 -0.1528566E+01  0.1033790E+06 -0.7638465E+00  0.6264834E+05 -0.1528388E+01
  0.1938095E+01  0.1163215E+06 -0.1537298E+01  0.1008945E+06 -0.7971229E+00  0.6319642E+05 -0.1537127E+01
  0.1969048E+01  0.1153702E+06 -0.1547310E+01  0.9846721E+05 -0.8310381E+00  0.6365980E+05 -0.1547131E+01
  0.2000000E+01  0.1142910E+06 -0.1558604E+01  0.9610483E+05 -0.8656124E+00  0.6403335E+05 -0.1558432E+01
