VARIABLES="w (rad/s)"
"A   1   1" "B   1   1"
"A   1   2" "B   1   2"
"A   1   3" "B   1   3"
Zone t="Motion of body    1 in DoF   1",I=    64,F=POINT
  0.5000000E-01  0.6619027E+05  0.3830963E-02 -0.4539490E-02 -0.5153110E-05 -0.1074361E+06 -0.5596423E-02
  0.8095238E-01  0.6667190E+05  0.1670632E-01  0.4146800E-02  0.2510840E-04 -0.1081861E+06 -0.2418529E-01
  0.1119048E+00  0.6673578E+05  0.4684740E-01 -0.7806331E-02 -0.6684777E-04 -0.1082472E+06 -0.6740104E-01
  0.1428571E+00  0.6679852E+05  0.1053487E+00  0.2189636E-02  0.1355133E-04 -0.1083639E+06 -0.1514964E+00
  0.1738095E+00  0.6696655E+05  0.2095974E+00 -0.2414233E-02 -0.7245678E-04 -0.1084062E+06 -0.3007393E+00
  0.2047619E+00  0.6696678E+05  0.3862306E+00  0.7489226E-02  0.1237080E-03 -0.1084941E+06 -0.5537164E+00
  0.2357143E+00  0.6712632E+05  0.6792699E+00 -0.9645403E-02 -0.1019333E-03 -0.1085000E+06 -0.9702489E+00
  0.2666667E+00  0.6721487E+05  0.1156727E+01 -0.1544952E-02  0.4991703E-04 -0.1086006E+06 -0.1646780E+01
  0.2976190E+00  0.6727155E+05  0.1936179E+01 -0.1333008E-02 -0.1021009E-03 -0.1087303E+06 -0.2749521E+01
  0.3285715E+00  0.6739388E+05  0.3197143E+01  0.3065026E-02 -0.8962676E-04 -0.1087514E+06 -0.4520424E+01
  0.3595238E+00  0.6765423E+05  0.5242325E+01 -0.1188367E-02 -0.4342571E-04 -0.1089066E+06 -0.7375026E+01
  0.3904762E+00  0.6776596E+05  0.8522123E+01 -0.6916697E-02 -0.4308969E-03 -0.1090171E+06 -0.1193400E+02
  0.4214286E+00  0.6792837E+05  0.1367284E+02  0.8074226E-02  0.2650917E-03 -0.1091630E+06 -0.1904987E+02
  0.4523810E+00  0.6814161E+05  0.2174784E+02 -0.1841655E-01 -0.1505807E-02 -0.1093050E+06 -0.3013143E+02
  0.4833333E+00  0.6844860E+05  0.3374842E+02 -0.4924905E-02 -0.2464652E-03 -0.1094895E+06 -0.4644847E+02
  0.5142857E+00  0.6864556E+05  0.5147030E+02 -0.1050313E-01 -0.1302302E-02 -0.1097200E+06 -0.7042937E+02
  0.5452381E+00  0.6883902E+05  0.7660471E+02 -0.1130616E-01 -0.1334786E-02 -0.1099282E+06 -0.1041632E+03
  0.5761905E+00  0.6923578E+05  0.1114431E+03  0.1588932E-02 -0.8308887E-04 -0.1102093E+06 -0.1503777E+03
  0.6071429E+00  0.6958909E+05  0.1590827E+03  0.2161362E-02  0.1169562E-02 -0.1105010E+06 -0.2130518E+03
  0.6380953E+00  0.6995109E+05  0.2220555E+03  0.5404344E-02  0.4088879E-03 -0.1108028E+06 -0.2950399E+03
  0.6690477E+00  0.7028840E+05  0.3044947E+03  0.1094723E-02 -0.6418228E-03 -0.1111923E+06 -0.4014774E+03
  0.7000000E+00  0.7063757E+05  0.4111953E+03 -0.3008161E-02 -0.2808571E-03 -0.1114661E+06 -0.5375129E+03
  0.7309524E+00  0.7113280E+05  0.5470605E+03 -0.2505026E-03  0.1153946E-03 -0.1118233E+06 -0.7083945E+03
  0.7619048E+00  0.7171159E+05  0.7184293E+03 -0.4205703E-02 -0.2696514E-02 -0.1122808E+06 -0.9212441E+03
  0.7928572E+00  0.7218366E+05  0.9313665E+03  0.1416455E-01  0.5381584E-02 -0.1126713E+06 -0.1182694E+04
  0.8238096E+00  0.7266241E+05  0.1193578E+04 -0.1778134E-02 -0.1229286E-02 -0.1131577E+06 -0.1501106E+04
  0.8547620E+00  0.7314072E+05  0.1512769E+04 -0.6783572E-02 -0.1867294E-02 -0.1134972E+06 -0.1882160E+04
  0.8857143E+00  0.7374220E+05  0.1899061E+04 -0.8958385E-02 -0.5374908E-02 -0.1139515E+06 -0.2336543E+04
  0.9166667E+00  0.7433608E+05  0.2361352E+04  0.6924716E-02  0.2410889E-02 -0.1143413E+06 -0.2871550E+04
  0.9476191E+00  0.7498999E+05  0.2910960E+04  0.4122173E-02  0.1720428E-02 -0.1148419E+06 -0.3498576E+04
  0.9785714E+00  0.7560572E+05  0.3557429E+04  0.4677877E-02  0.8010864E-03 -0.1152123E+06 -0.4222238E+04
  0.1009524E+01  0.7625521E+05  0.4312960E+04 -0.3022968E-02  0.3231049E-02 -0.1156302E+06 -0.5053746E+04
  0.1040476E+01  0.7680010E+05  0.5186243E+04  0.5631436E-02  0.3353119E-02 -0.1160267E+06 -0.6000672E+04
  0.1071429E+01  0.7729470E+05  0.6187827E+04 -0.5753581E-02 -0.3967285E-02 -0.1162677E+06 -0.7063548E+04
  0.1102381E+01  0.7785190E+05  0.7331549E+04  0.6643999E-02  0.3341675E-02 -0.1165484E+06 -0.8254197E+04
  0.1133333E+01  0.7839813E+05  0.8625487E+04  0.4146800E-02  0.2349854E-02 -0.1166858E+06 -0.9568639E+04
  0.1164286E+01  0.7896384E+05  0.1008040E+05 -0.5085015E-02 -0.3494263E-02 -0.1168408E+06 -0.1101650E+05
  0.1195238E+01  0.7942826E+05  0.1170073E+05 -0.6178898E-02 -0.2822876E-02 -0.1169640E+06 -0.1259941E+05
  0.1226190E+01  0.7976639E+05  0.1348781E+05 -0.3782995E-02  0.2365112E-02 -0.1168659E+06 -0.1429642E+05
  0.1257143E+01  0.8001896E+05  0.1545258E+05 -0.9321732E-02 -0.9155273E-03 -0.1167665E+06 -0.1612454E+05
  0.1288095E+01  0.8021257E+05  0.1758153E+05 -0.4548868E-02 -0.9628296E-02 -0.1165118E+06 -0.1804068E+05
  0.1319048E+01  0.8026327E+05  0.1987655E+05  0.4164492E-02  0.9460449E-03 -0.1161240E+06 -0.2004746E+05
  0.1350000E+01  0.8023494E+05  0.2232623E+05 -0.1356337E-02 -0.2441406E-02 -0.1156599E+06 -0.2212616E+05
  0.1380952E+01  0.8006398E+05  0.2491908E+05 -0.2386685E-02 -0.1922607E-02 -0.1150788E+06 -0.2426294E+05
  0.1411905E+01  0.7923834E+05  0.2732507E+05  0.3544773E-02  0.9582520E-02 -0.1140925E+06 -0.2616669E+05
  0.1442857E+01  0.7884120E+05  0.3012488E+05 -0.1692064E-03 -0.3631592E-02 -0.1132940E+06 -0.2831923E+05
  0.1473810E+01  0.7830733E+05  0.3300786E+05 -0.2567618E-02 -0.3784180E-02 -0.1123785E+06 -0.3044424E+05
  0.1504762E+01  0.7761267E+05  0.3594339E+05 -0.2190312E-02  0.2014160E-02 -0.1113052E+06 -0.3249993E+05
  0.1535714E+01  0.7681476E+05  0.3890610E+05 -0.3894894E-02 -0.5493164E-03 -0.1101595E+06 -0.3446898E+05
  0.1566667E+01  0.7590896E+05  0.4187054E+05 -0.3662109E-02 -0.1171875E-01 -0.1089874E+06 -0.3634477E+05
  0.1597619E+01  0.7485128E+05  0.4479795E+05 -0.4660866E-02  0.3234863E-02 -0.1077171E+06 -0.3808546E+05
  0.1628572E+01  0.7364277E+05  0.4764657E+05 -0.1649020E-02 -0.1281738E-02 -0.1062840E+06 -0.3961802E+05
  0.1659524E+01  0.7238209E+05  0.5042458E+05 -0.1176919E-02 -0.3479004E-02 -0.1049184E+06 -0.4102475E+05
  0.1690476E+01  0.7106266E+05  0.5309500E+05 -0.5488006E-02 -0.1159668E-02 -0.1035694E+06 -0.4224825E+05
  0.1721429E+01  0.6961241E+05  0.5559800E+05 -0.7942168E-02 -0.1824951E-01 -0.1020831E+06 -0.4319970E+05
  0.1752381E+01  0.6814414E+05  0.5795004E+05 -0.1741492E-02 -0.3112793E-02 -0.1006712E+06 -0.4397177E+05
  0.1783333E+01  0.6665763E+05  0.6012129E+05 -0.8214077E-03 -0.4028320E-02 -0.9929500E+05 -0.4451682E+05
  0.1814286E+01  0.6514389E+05  0.6212198E+05 -0.1009243E-02 -0.0000000E+00 -0.9800584E+05 -0.4489770E+05
  0.1845238E+01  0.6360073E+05  0.6392233E+05 -0.1521547E-02  0.1403809E-02 -0.9674834E+05 -0.4506998E+05
  0.1876190E+01  0.6201736E+05  0.6549052E+05 -0.2082011E-02  0.1037598E-02 -0.9544655E+05 -0.4494503E+05
  0.1907143E+01  0.6048529E+05  0.6688422E+05 -0.4160449E-02 -0.1092529E-01 -0.9428662E+05 -0.4471202E+05
  0.1938095E+01  0.5901021E+05  0.6810229E+05 -0.2330433E-02 -0.4760742E-02 -0.9325426E+05 -0.4434750E+05
  0.1969048E+01  0.5754776E+05  0.6909369E+05 -0.7129379E-03 -0.4272461E-02 -0.9222383E+05 -0.4374694E+05
  0.2000000E+01  0.5612577E+05  0.6988895E+05  0.1190186E-02 -0.3417969E-02 -0.9125470E+05 -0.4298462E+05
Zone t="Motion of body    1 in DoF   2",I=    64,F=POINT
  0.5000000E-01 -0.6713867E-02  0.5960464E-05  0.4002131E+05  0.1132865E+03 -0.1144409E-02  0.8583069E-05
  0.8095238E-01  0.5277746E-02 -0.1573563E-04  0.3955296E+05  0.1879287E+03  0.1795376E-01 -0.5340576E-04
  0.1119048E+00 -0.8113131E-02 -0.6246567E-04  0.3929215E+05  0.2693106E+03 -0.5249673E-02  0.9393692E-04
  0.1428571E+00 -0.7690429E-02  0.2384186E-04  0.3918738E+05  0.3605723E+03  0.1319122E-01  0.3242493E-04
  0.1738095E+00  0.2809289E-02  0.1325607E-03  0.3916139E+05  0.4656974E+03  0.7374384E-02  0.1325607E-03
  0.2047619E+00  0.8420723E-02 -0.8392334E-04  0.3923861E+05  0.5896824E+03 -0.6408691E-02  0.4959106E-04
  0.2357143E+00 -0.9062795E-03 -0.1220703E-03  0.3938858E+05  0.7395383E+03  0.1229951E-01 -0.1754761E-03
  0.2666667E+00  0.8010864E-03 -0.9918213E-04  0.3955961E+05  0.9213281E+03  0.1613617E-01 -0.4196167E-04
  0.2976190E+00 -0.1004883E-01  0.1678467E-03  0.3979981E+05  0.1148279E+04  0.1656006E-01 -0.2479553E-04
  0.3285715E+00 -0.6315811E-02 -0.1945496E-03  0.4008127E+05  0.1427856E+04  0.2303413E-01 -0.4386902E-04
  0.3595238E+00 -0.4244166E-03  0.6866455E-04  0.4032571E+05  0.1776233E+04  0.5177883E-02  0.1640320E-03
  0.3904762E+00 -0.5314524E-02 -0.1678467E-03  0.4058451E+05  0.2205992E+04  0.1531833E-01  0.5111694E-03
  0.4214286E+00 -0.9413896E-03 -0.7019043E-03  0.4075862E+05  0.2713870E+04  0.7241459E-04  0.1712799E-02
  0.4523810E+00 -0.1268246E-01  0.5111694E-03  0.4085767E+05  0.3326493E+04  0.2603952E-01  0.1289368E-02
  0.4833333E+00  0.7576778E-03  0.4501343E-03  0.4081071E+05  0.3996748E+04  0.1041807E-01  0.8010864E-03
  0.5142857E+00 -0.8663602E-02  0.2746582E-03  0.4067173E+05  0.4755030E+04  0.4272461E-02  0.4348755E-03
  0.5452381E+00 -0.1220170E-01  0.1678467E-03  0.4045355E+05  0.5563119E+04 -0.1309724E-01  0.1609802E-02
  0.5761905E+00 -0.1906718E-02 -0.9155273E-03  0.4011598E+05  0.6408476E+04  0.1853754E-02  0.2746582E-03
  0.6071429E+00 -0.7036994E-02 -0.1022339E-02  0.3966222E+05  0.7309023E+04  0.3619025E-02 -0.1678467E-03
  0.6380953E+00  0.2582607E-02  0.1358032E-02  0.3919914E+05  0.8218377E+04  0.8799993E-02  0.9155273E-03
  0.6690477E+00  0.1642085E-02 -0.6103516E-04  0.3868150E+05  0.9153518E+04  0.2964875E-01  0.2410889E-02
  0.7000000E+00  0.4098075E-02 -0.2014160E-02  0.3807693E+05  0.1011935E+05  0.6103515E-03  0.3555298E-02
  0.7309524E+00 -0.2254523E-02  0.8850098E-03  0.3743885E+05  0.1109010E+05  0.1143962E-01  0.7019043E-03
  0.7619048E+00  0.4405975E-02  0.1831055E-03  0.3675644E+05  0.1206824E+05  0.4005432E-02  0.5737305E-02
  0.7928572E+00  0.5157745E-02  0.9765625E-03  0.3603163E+05  0.1305114E+05  0.7544165E-02  0.2075195E-02
  0.8238096E+00  0.3185823E-02 -0.3051758E-04  0.3529461E+05  0.1402922E+05  0.1363236E-01 -0.6195068E-02
  0.8547620E+00  0.5426858E-02 -0.2685547E-02  0.3453609E+05  0.1499776E+05 -0.4927016E-02  0.9368896E-02
  0.8857143E+00 -0.3376622E-02  0.3234863E-02  0.3375143E+05  0.1595097E+05  0.1481579E-01  0.1220703E-03
  0.9166667E+00 -0.2796520E-02  0.6713867E-03  0.3293659E+05  0.1688565E+05  0.2017489E-01  0.3753662E-02
  0.9476191E+00  0.1030543E-02 -0.3662109E-02  0.3210604E+05  0.1779383E+05 -0.3735719E-02  0.5126953E-02
  0.9785714E+00 -0.3180956E-02 -0.1220703E-03  0.3126684E+05  0.1867154E+05  0.1509395E-01  0.2502441E-02
  0.1009524E+01  0.6045936E-04 -0.7263184E-02  0.3043619E+05  0.1951094E+05  0.4655370E-02 -0.5340576E-02
  0.1040476E+01  0.1032430E-01  0.3845215E-02  0.2961083E+05  0.2031255E+05  0.1900610E-01  0.2136230E-03
  0.1071429E+01  0.1424154E-02  0.5432129E-02  0.2878575E+05  0.2107581E+05  0.1287435E-01 -0.7324219E-03
  0.1102381E+01  0.3432733E-02 -0.3417969E-02  0.2797295E+05  0.2179474E+05  0.1135017E-01  0.6713867E-02
  0.1133333E+01 -0.1077091E-02 -0.6103516E-04  0.2716240E+05  0.2247110E+05 -0.2585018E-02 -0.1220703E-02
  0.1164286E+01  0.3669598E-03  0.7934570E-03  0.2636673E+05  0.2309801E+05 -0.1572685E-02  0.1019287E-01
  0.1195238E+01 -0.5463984E-02 -0.2685547E-02  0.2558784E+05  0.2367830E+05  0.8578965E-02  0.1104736E-01
  0.1226190E+01  0.2488812E-03 -0.2929688E-02  0.2482037E+05  0.2421084E+05  0.1727236E-01  0.7324219E-02
  0.1257143E+01  0.2573187E-02  0.1586914E-02  0.2409044E+05  0.2470270E+05  0.3786954E-02 -0.4882812E-03
  0.1288095E+01 -0.2748274E-02 -0.5187988E-02  0.2337633E+05  0.2511512E+05  0.4075028E-02 -0.6469727E-02
  0.1319048E+01  0.3655499E-02  0.6530762E-02  0.2269424E+05  0.2549187E+05  0.4442125E-02 -0.9155273E-03
  0.1350000E+01  0.3074363E-02 -0.4272461E-02  0.2203880E+05  0.2581715E+05  0.1198098E-01  0.5310059E-02
  0.1380952E+01 -0.2342487E-02  0.1708984E-02  0.2141345E+05  0.2609854E+05  0.1193343E-02  0.5371094E-02
  0.1411905E+01  0.7003089E-02 -0.6103516E-03  0.2072724E+05  0.2632921E+05  0.3026026E-03  0.1092529E-01
  0.1442857E+01  0.3934048E-02 -0.2441406E-03  0.2015001E+05  0.2652943E+05 -0.3172620E-02  0.6652832E-02
  0.1473810E+01 -0.6791763E-02 -0.4760742E-02  0.1959484E+05  0.2668686E+05  0.7412961E-02  0.7751465E-02
  0.1504762E+01  0.0000000E+00  0.6713867E-02  0.1906553E+05  0.2680360E+05 -0.2352558E-02  0.6225586E-02
  0.1535714E+01 -0.7551326E-03 -0.4638672E-02  0.1856585E+05  0.2687511E+05  0.7312863E-02  0.2624512E-02
  0.1566667E+01 -0.3973778E-02 -0.2441406E-03  0.1809664E+05  0.2690400E+05 -0.2727103E-02  0.7873535E-02
  0.1597619E+01 -0.1222522E-02 -0.4150391E-02  0.1765475E+05  0.2690572E+05  0.8366637E-02  0.7873535E-02
  0.1628572E+01  0.5884003E-02 -0.2563477E-02  0.1722713E+05  0.2687765E+05 -0.1311720E-02  0.2380371E-02
  0.1659524E+01  0.2942297E-03  0.7324219E-03  0.1683495E+05  0.2681759E+05  0.9378573E-03  0.3784180E-02
  0.1690476E+01 -0.1444212E-03 -0.4760742E-02  0.1646751E+05  0.2671957E+05 -0.1606686E-02  0.1586914E-02
  0.1721429E+01 -0.4963855E-03 -0.1586914E-02  0.1611492E+05  0.2660201E+05 -0.5672977E-03  0.3051758E-03
  0.1752381E+01 -0.2263940E-02  0.4760742E-02  0.1579174E+05  0.2645564E+05  0.5311552E-02  0.6103516E-02
  0.1783333E+01  0.3662109E-02 -0.4516602E-02  0.1549082E+05  0.2627668E+05 -0.6947740E-02  0.5737305E-02
  0.1814286E+01  0.9083185E-03  0.2441406E-02  0.1521461E+05  0.2608188E+05 -0.1143808E-02  0.2929688E-02
  0.1845238E+01  0.1885396E-02 -0.4516602E-02  0.1495800E+05  0.2587632E+05 -0.5689264E-02  0.4211426E-02
  0.1876190E+01 -0.2147074E-02  0.7202148E-02  0.1470986E+05  0.2565213E+05  0.1312643E-01  0.1159668E-02
  0.1907143E+01 -0.2560276E-02  0.2441406E-02  0.1448905E+05  0.2541399E+05  0.2352254E-02 -0.1953125E-02
  0.1938095E+01 -0.3464158E-03 -0.8666992E-02  0.1429070E+05  0.2515356E+05  0.5763099E-02  0.7934570E-03
  0.1969048E+01 -0.2944743E-02 -0.7324219E-02  0.1410261E+05  0.2488040E+05  0.8229783E-02  0.7934570E-03
  0.2000000E+01 -0.3967285E-03  0.1831055E-02  0.1392947E+05  0.2459193E+05  0.2700806E-02 -0.2807617E-02
Zone t="Motion of body    1 in DoF   3",I=    64,F=POINT
  0.5000000E-01 -0.1072375E+06 -0.5589671E-02  0.1008034E-01  0.7223015E-04  0.3441713E+06  0.8450266E-02
  0.8095238E-01 -0.1080549E+06 -0.2404412E-01  0.4641589E-02  0.6374871E-04  0.3448804E+06  0.3502814E-01
  0.1119048E+00 -0.1081136E+06 -0.6708144E-01  0.1765799E-01  0.1784937E-03  0.3449602E+06  0.9633772E-01
  0.1428571E+00 -0.1082406E+06 -0.1507146E+00  0.3462029E-01  0.3057335E-03  0.3450058E+06  0.2165926E+00
  0.1738095E+00 -0.1082874E+06 -0.2994645E+00  0.2294619E-01  0.3845384E-03  0.3450609E+06  0.4290085E+00
  0.2047619E+00 -0.1083749E+06 -0.5508531E+00 -0.7079368E-03  0.4549976E-05  0.3451169E+06  0.7895635E+00
  0.2357143E+00 -0.1083711E+06 -0.9659749E+00  0.2008380E-01  0.3010435E-03  0.3452156E+06  0.1379719E+01
  0.2666667E+00 -0.1084772E+06 -0.1639040E+01  0.2154350E-01  0.5542636E-03  0.3452513E+06  0.2333576E+01
  0.2976190E+00 -0.1086088E+06 -0.2734921E+01  0.1626526E-01  0.6454848E-03  0.3453044E+06  0.3884351E+01
  0.3285715E+00 -0.1086116E+06 -0.4497710E+01  0.3044128E-01  0.1220953E-02  0.3454398E+06  0.6359749E+01
  0.3595238E+00 -0.1087786E+06 -0.7341827E+01  0.1955500E-01  0.1185998E-02  0.3455446E+06  0.1032713E+02
  0.3904762E+00 -0.1088854E+06 -0.1187654E+02  0.5420033E-01  0.3076375E-02  0.3456417E+06  0.1663008E+02
  0.4214286E+00 -0.1090216E+06 -0.1895548E+02  0.1196651E-01  0.8922815E-03  0.3457994E+06  0.2640833E+02
  0.4523810E+00 -0.1091608E+06 -0.2998926E+02  0.4529933E-01  0.3644913E-02  0.3459618E+06  0.4155734E+02
  0.4833333E+00 -0.1093548E+06 -0.4625381E+02  0.2853920E-01  0.3316402E-02  0.3460949E+06  0.6365748E+02
  0.5142857E+00 -0.1095828E+06 -0.7010163E+02  0.9687212E-02  0.6121397E-03  0.3462852E+06  0.9591975E+02
  0.5452381E+00 -0.1097724E+06 -0.1036346E+03  0.3573755E-01  0.6295085E-02  0.3465762E+06  0.1409222E+03
  0.5761905E+00 -0.1100635E+06 -0.1496919E+03  0.1332054E-01  0.2132893E-02  0.3468185E+06  0.2019872E+03
  0.6071429E+00 -0.1103587E+06 -0.2120966E+03  0.1352108E-01  0.2771854E-02  0.3470871E+06  0.2840968E+03
  0.6380953E+00 -0.1106587E+06 -0.2937087E+03  0.2520433E-01  0.5788326E-02  0.3473840E+06  0.3902358E+03
  0.6690477E+00 -0.1110402E+06 -0.3993615E+03  0.4971867E-02  0.4239082E-03  0.3477280E+06  0.5265670E+03
  0.7000000E+00 -0.1113009E+06 -0.5346768E+03  0.5907331E-02  0.1582623E-02  0.3480500E+06  0.6989794E+03
  0.7309524E+00 -0.1116624E+06 -0.7049323E+03  0.2567651E-02  0.5744934E-02  0.3483713E+06  0.9127785E+03
  0.7619048E+00 -0.1121315E+06 -0.9169492E+03  0.1383877E-01  0.9841919E-02  0.3486973E+06  0.1175708E+04
  0.7928572E+00 -0.1125183E+06 -0.1176924E+04 -0.1674343E-02  0.1543999E-02  0.3490342E+06  0.1494432E+04
  0.8238096E+00 -0.1129916E+06 -0.1492461E+04  0.7408892E-04  0.2228737E-02  0.3494599E+06  0.1877044E+04
  0.8547620E+00 -0.1133176E+06 -0.1871408E+04  0.9032862E-02  0.5535126E-02  0.3498079E+06  0.2328490E+04
  0.8857143E+00 -0.1137706E+06 -0.2323244E+04  0.8010864E-02  0.6887436E-02  0.3501392E+06  0.2858338E+04
  0.9166667E+00 -0.1141633E+06 -0.2855791E+04  0.1761142E-01  0.1200485E-01  0.3504032E+06  0.3472276E+04
  0.9476191E+00 -0.1146629E+06 -0.3478488E+04  0.5635784E-02  0.7999420E-02  0.3507590E+06  0.4179653E+04
  0.9785714E+00 -0.1150347E+06 -0.4198797E+04 -0.2557239E-02 -0.8926392E-03  0.3510035E+06  0.4982299E+04
  0.1009524E+01 -0.1154516E+06 -0.5024764E+04  0.1021763E-01  0.6973267E-02  0.3511697E+06  0.5886957E+04
  0.1040476E+01 -0.1158308E+06 -0.5960783E+04  0.7567242E-02  0.7453918E-02  0.3513798E+06  0.6897062E+04
  0.1071429E+01 -0.1160602E+06 -0.7015184E+04  0.3141683E-01  0.2515411E-01  0.3514682E+06  0.8008611E+04
  0.1102381E+01 -0.1163312E+06 -0.8195731E+04  0.5536666E-03  0.6103516E-03  0.3515478E+06  0.9226147E+04
  0.1133333E+01 -0.1164749E+06 -0.9506018E+04  0.1599480E-01  0.1539612E-01  0.3514849E+06  0.1054144E+05
  0.1164286E+01 -0.1166353E+06 -0.1094487E+05  0.1863632E-01  0.1721954E-01  0.3512585E+06  0.1195319E+05
  0.1195238E+01 -0.1167515E+06 -0.1251089E+05  0.1118329E-01  0.1200867E-01  0.3511086E+06  0.1346109E+05
  0.1226190E+01 -0.1166577E+06 -0.1419556E+05  0.1991050E-02  0.1106262E-01  0.3506874E+06  0.1503429E+05
  0.1257143E+01 -0.1165418E+06 -0.1599398E+05  0.9418834E-02  0.1306152E-01  0.3503045E+06  0.1667812E+05
  0.1288095E+01 -0.1162922E+06 -0.1789590E+05 -0.3861799E-02  0.5187988E-02  0.3497546E+06  0.1835690E+05
  0.1319048E+01 -0.1159025E+06 -0.1988208E+05  0.9694013E-02  0.8850098E-02  0.3491134E+06  0.2005449E+05
  0.1350000E+01 -0.1154305E+06 -0.2193347E+05  0.1446759E-02  0.6286621E-02  0.3483122E+06  0.2173759E+05
  0.1380952E+01 -0.1148439E+06 -0.2404066E+05 -0.2430883E-03  0.3692627E-02  0.3475288E+06  0.2340650E+05
  0.1411905E+01 -0.1144123E+06 -0.2624280E+05 -0.4279666E-02 -0.5798340E-03  0.3466104E+06  0.2511720E+05
  0.1442857E+01 -0.1136132E+06 -0.2839361E+05  0.1343076E-01  0.2487183E-01  0.3456066E+06  0.2666708E+05
  0.1473810E+01 -0.1126955E+06 -0.3050971E+05  0.6108446E-02  0.1870728E-01  0.3444581E+06  0.2810279E+05
  0.1504762E+01 -0.1116311E+06 -0.3257221E+05  0.1354749E-01  0.2722168E-01  0.3432565E+06  0.2941039E+05
  0.1535714E+01 -0.1104914E+06 -0.3454530E+05 -0.1043275E-01  0.5065918E-02  0.3419740E+06  0.3055491E+05
  0.1566667E+01 -0.1093164E+06 -0.3640951E+05  0.9953924E-02  0.1779175E-01  0.3406903E+06  0.3152532E+05
  0.1597619E+01 -0.1080491E+06 -0.3814901E+05  0.9207121E-02  0.1239014E-01  0.3394792E+06  0.3234061E+05
  0.1628572E+01 -0.1066319E+06 -0.3970819E+05 -0.1705237E-02  0.5798340E-02  0.3381083E+06  0.3289211E+05
  0.1659524E+01 -0.1052698E+06 -0.4111982E+05  0.1053710E-01  0.2239990E-01  0.3369272E+06  0.3331365E+05
  0.1690476E+01 -0.1039136E+06 -0.4232209E+05  0.5090848E-02  0.1831055E-01  0.3357249E+06  0.3349284E+05
  0.1721429E+01 -0.1024388E+06 -0.4331136E+05 -0.1010499E-02  0.3967285E-02  0.3345188E+06  0.3344723E+05
  0.1752381E+01 -0.1010286E+06 -0.4410331E+05  0.2734143E-02  0.1293945E-01  0.3334405E+06  0.3323791E+05
  0.1783333E+01 -0.9965010E+05 -0.4464265E+05  0.7127423E-02  0.3479004E-02  0.3323219E+06  0.3276529E+05
  0.1814286E+01 -0.9835821E+05 -0.4499576E+05 -0.1471812E-02  0.2746582E-02  0.3313688E+06  0.3216644E+05
  0.1845238E+01 -0.9710419E+05 -0.4515246E+05 -0.2435303E-02  0.8850098E-02  0.3305516E+06  0.3147240E+05
  0.1876190E+01 -0.9581870E+05 -0.4506052E+05  0.5324988E-02  0.2587891E-01  0.3296626E+06  0.3049245E+05
  0.1907143E+01 -0.9466840E+05 -0.4484091E+05  0.5734619E-02  0.1812744E-01  0.3290032E+06  0.2952166E+05
  0.1938095E+01 -0.9364034E+05 -0.4445320E+05  0.3024618E-02  0.1580811E-01  0.3284344E+06  0.2840832E+05
  0.1969048E+01 -0.9261914E+05 -0.4387571E+05  0.4250505E-02  0.1666260E-01  0.3278957E+06  0.2717678E+05
  0.2000000E+01 -0.9165824E+05 -0.4316198E+05  0.5294800E-02  0.6347656E-02  0.3274550E+06  0.2589384E+05
