VARIABLES="w (rad/s)"
"abs(F   1   1)" "angle(F   1   1)"
"abs(F   1   2)" "angle(F   1   2)"
"abs(F   1   3)" "angle(F   1   3)"
Zone t="Diffraction force - beta =   0.000 deg",I=    64,F=POINT
  0.5000000E-01  0.8431356E+03 -0.1570815E+01  0.2429506E+06 -0.1641578E-04  0.2491228E+03 -0.1570841E+01
  0.8095238E-01  0.1375640E+04 -0.1570813E+01  0.2426543E+06 -0.4418599E-04  0.4052770E+03 -0.1570822E+01
  0.1119048E+00  0.1920783E+04 -0.1570812E+01  0.2422182E+06 -0.8781863E-04  0.5646630E+03 -0.1570810E+01
  0.1428571E+00  0.2485827E+04 -0.1570797E+01  0.2416428E+06 -0.1507241E-03  0.7333055E+03 -0.1570806E+01
  0.1738095E+00  0.3072698E+04 -0.1570800E+01  0.2409250E+06 -0.2381393E-03  0.9079514E+03 -0.1570799E+01
  0.2047619E+00  0.3694334E+04 -0.1570799E+01  0.2400646E+06 -0.3574890E-03  0.1097608E+04 -0.1570804E+01
  0.2357143E+00  0.4352237E+04 -0.1570789E+01  0.2390584E+06 -0.5199299E-03  0.1295961E+04 -0.1570794E+01
  0.2666667E+00  0.5060195E+04 -0.1570783E+01  0.2379040E+06 -0.7392428E-03  0.1514059E+04 -0.1570791E+01
  0.2976190E+00  0.5832224E+04 -0.1570779E+01  0.2366012E+06 -0.1038174E-02  0.1757353E+04 -0.1570783E+01
  0.3285715E+00  0.6672064E+04 -0.1570775E+01  0.2351438E+06 -0.1441019E-02  0.2018319E+04 -0.1570776E+01
  0.3595238E+00  0.7594716E+04 -0.1570760E+01  0.2335344E+06 -0.1985007E-02  0.2310503E+04 -0.1570764E+01
  0.3904762E+00  0.8622173E+04 -0.1570744E+01  0.2317728E+06 -0.2713747E-02  0.2646380E+04 -0.1570746E+01
  0.4214286E+00  0.9756869E+04 -0.1570718E+01  0.2298700E+06 -0.3655165E-02  0.3015905E+04 -0.1570722E+01
  0.4523810E+00  0.1099654E+05 -0.1570677E+01  0.2278164E+06 -0.4883147E-02  0.3418862E+04 -0.1570684E+01
  0.4833333E+00  0.1235617E+05 -0.1570629E+01  0.2256365E+06 -0.6373166E-02  0.3874431E+04 -0.1570631E+01
  0.5142857E+00  0.1384331E+05 -0.1570556E+01  0.2233356E+06 -0.8208876E-02  0.4390011E+04 -0.1570558E+01
  0.5452381E+00  0.1542803E+05 -0.1570462E+01  0.2209135E+06 -0.1037181E-01  0.4931420E+04 -0.1570461E+01
  0.5761905E+00  0.1710159E+05 -0.1570334E+01  0.2183730E+06 -0.1287465E-01  0.5511644E+04 -0.1570335E+01
  0.6071429E+00  0.1887090E+05 -0.1570168E+01  0.2157335E+06 -0.1578937E-01  0.6148333E+04 -0.1570171E+01
  0.6380953E+00  0.2072720E+05 -0.1569963E+01  0.2129975E+06 -0.1906267E-01  0.6825251E+04 -0.1569964E+01
  0.6690477E+00  0.2266147E+05 -0.1569708E+01  0.2101700E+06 -0.2276609E-01  0.7538244E+04 -0.1569709E+01
  0.7000000E+00  0.2465788E+05 -0.1569390E+01  0.2072496E+06 -0.2694533E-01  0.8284863E+04 -0.1569391E+01
  0.7309524E+00  0.2671384E+05 -0.1569008E+01  0.2042378E+06 -0.3158180E-01  0.9068042E+04 -0.1569009E+01
  0.7619048E+00  0.2883672E+05 -0.1568547E+01  0.2011616E+06 -0.3672647E-01  0.9902632E+04 -0.1568547E+01
  0.7928572E+00  0.3102801E+05 -0.1567996E+01  0.1980346E+06 -0.4241016E-01  0.1078917E+05 -0.1567999E+01
  0.8238096E+00  0.3327600E+05 -0.1567350E+01  0.1948589E+06 -0.4864770E-01  0.1171081E+05 -0.1567351E+01
  0.8547620E+00  0.3556375E+05 -0.1566592E+01  0.1916281E+06 -0.5545329E-01  0.1266006E+05 -0.1566593E+01
  0.8857143E+00  0.3789387E+05 -0.1565713E+01  0.1883449E+06 -0.6284332E-01  0.1364303E+05 -0.1565715E+01
  0.9166667E+00  0.4025940E+05 -0.1564703E+01  0.1850240E+06 -0.7084098E-01  0.1467502E+05 -0.1564704E+01
  0.9476191E+00  0.4266597E+05 -0.1563552E+01  0.1816915E+06 -0.7946592E-01  0.1575345E+05 -0.1563554E+01
  0.9785714E+00  0.4510597E+05 -0.1562249E+01  0.1783550E+06 -0.8873304E-01  0.1687371E+05 -0.1562254E+01
  0.1009524E+01  0.4758011E+05 -0.1560787E+01  0.1750190E+06 -0.9865082E-01  0.1803558E+05 -0.1560793E+01
  0.1040476E+01  0.5007319E+05 -0.1559155E+01  0.1716817E+06 -0.1092216E+00  0.1923295E+05 -0.1559163E+01
  0.1071429E+01  0.5257833E+05 -0.1557347E+01  0.1683372E+06 -0.1204461E+00  0.2046053E+05 -0.1557355E+01
  0.1102381E+01  0.5507816E+05 -0.1555357E+01  0.1649956E+06 -0.1323365E+00  0.2170586E+05 -0.1555364E+01
  0.1133333E+01  0.5756729E+05 -0.1553185E+01  0.1616653E+06 -0.1449046E+00  0.2298395E+05 -0.1553190E+01
  0.1164286E+01  0.6004882E+05 -0.1550834E+01  0.1583540E+06 -0.1581648E+00  0.2429350E+05 -0.1550842E+01
  0.1195238E+01  0.6251762E+05 -0.1548312E+01  0.1550750E+06 -0.1721242E+00  0.2564246E+05 -0.1548326E+01
  0.1226190E+01  0.6496851E+05 -0.1545625E+01  0.1518292E+06 -0.1867848E+00  0.2702391E+05 -0.1545649E+01
  0.1257143E+01  0.6737584E+05 -0.1542769E+01  0.1486279E+06 -0.2023524E+00  0.2841437E+05 -0.1542803E+01
  0.1288095E+01  0.6976259E+05 -0.1539805E+01  0.1454759E+06 -0.2182139E+00  0.2982279E+05 -0.1539848E+01
  0.1319048E+01  0.7207219E+05 -0.1536698E+01  0.1423615E+06 -0.2349650E+00  0.3123561E+05 -0.1536745E+01
  0.1350000E+01  0.7432178E+05 -0.1533494E+01  0.1392750E+06 -0.2523731E+00  0.3264282E+05 -0.1533537E+01
  0.1380952E+01  0.7648862E+05 -0.1530220E+01  0.1362179E+06 -0.2704315E+00  0.3404700E+05 -0.1530250E+01
  0.1411905E+01  0.7826168E+05 -0.1527681E+01  0.1337004E+06 -0.2856654E+00  0.3522234E+05 -0.1527698E+01
  0.1442857E+01  0.8024476E+05 -0.1524435E+01  0.1307384E+06 -0.3048768E+00  0.3661273E+05 -0.1524439E+01
  0.1473810E+01  0.8212314E+05 -0.1521245E+01  0.1278289E+06 -0.3247859E+00  0.3797994E+05 -0.1521239E+01
  0.1504762E+01  0.8388670E+05 -0.1518166E+01  0.1249750E+06 -0.3453915E+00  0.3932979E+05 -0.1518153E+01
  0.1535714E+01  0.8553172E+05 -0.1515250E+01  0.1221776E+06 -0.3666900E+00  0.4065276E+05 -0.1515232E+01
  0.1566667E+01  0.8705518E+05 -0.1512562E+01  0.1194334E+06 -0.3886563E+00  0.4193882E+05 -0.1512536E+01
  0.1597619E+01  0.8843846E+05 -0.1510154E+01  0.1167456E+06 -0.4112966E+00  0.4318500E+05 -0.1510115E+01
  0.1628572E+01  0.8968458E+05 -0.1508102E+01  0.1141073E+06 -0.4345746E+00  0.4438436E+05 -0.1508052E+01
  0.1659524E+01  0.9078333E+05 -0.1506475E+01  0.1115204E+06 -0.4584993E+00  0.4553464E+05 -0.1506413E+01
  0.1690476E+01  0.9173490E+05 -0.1505343E+01  0.1089850E+06 -0.4830889E+00  0.4662609E+05 -0.1505270E+01
  0.1721429E+01  0.9253487E+05 -0.1504769E+01  0.1065040E+06 -0.5083549E+00  0.4765309E+05 -0.1504693E+01
  0.1752381E+01  0.9317523E+05 -0.1504820E+01  0.1040821E+06 -0.5342748E+00  0.4862155E+05 -0.1504733E+01
  0.1783333E+01  0.9366914E+05 -0.1505574E+01  0.1017017E+06 -0.5608299E+00  0.4951783E+05 -0.1505481E+01
  0.1814286E+01  0.9401359E+05 -0.1507096E+01  0.9937734E+05 -0.5880394E+00  0.5034417E+05 -0.1506998E+01
  0.1845238E+01  0.9420486E+05 -0.1509436E+01  0.9710905E+05 -0.6159068E+00  0.5109730E+05 -0.1509327E+01
  0.1876190E+01  0.9425544E+05 -0.1512667E+01  0.9488730E+05 -0.6443903E+00  0.5177540E+05 -0.1512555E+01
  0.1907143E+01  0.9416705E+05 -0.1516847E+01  0.9271647E+05 -0.6735106E+00  0.5238208E+05 -0.1516730E+01
  0.1938095E+01  0.9394789E+05 -0.1522029E+01  0.9060284E+05 -0.7032955E+00  0.5291779E+05 -0.1521901E+01
  0.1969048E+01  0.9360646E+05 -0.1528238E+01  0.8854184E+05 -0.7337562E+00  0.5337677E+05 -0.1528118E+01
  0.2000000E+01  0.9314555E+05 -0.1535526E+01  0.8653395E+05 -0.7648480E+00  0.5376754E+05 -0.1535400E+01
