VARIABLES="w (rad/s)"
"A   1   1" "B   1   1"
"A   1   2" "B   1   2"
"A   1   3" "B   1   3"
Zone t="Motion of body    1 in DoF   1",I=    64,F=POINT
  0.5000000E-01  0.7858316E+05  0.9671615E-02  0.1323700E-01  0.3221101E-04 -0.5681855E+05  0.1227996E-02
  0.8095238E-01  0.7876207E+05  0.4253282E-01 -0.4241046E-02 -0.6007066E-04 -0.5668098E+05  0.5439371E-02
  0.1119048E+00  0.7918617E+05  0.1194859E+00  0.2147593E-02  0.1411559E-04 -0.5707048E+05  0.1500892E-01
  0.1428571E+00  0.7912818E+05  0.2692805E+00  0.3898620E-02  0.2177199E-04 -0.5705194E+05  0.3309279E-01
  0.1738095E+00  0.7955435E+05  0.5370715E+00 -0.4477305E-02 -0.5385932E-04 -0.5722626E+05  0.6426046E-01
  0.2047619E+00  0.7949251E+05  0.9913723E+00 -0.2794487E-02 -0.1505846E-03 -0.5723510E+05  0.1145997E+00
  0.2357143E+00  0.7997312E+05  0.1750158E+01  0.1165217E-02 -0.4048459E-04 -0.5752639E+05  0.1940393E+00
  0.2666667E+00  0.8024625E+05  0.2991458E+01 -0.8583069E-02 -0.1496077E-03 -0.5764420E+05  0.3162131E+00
  0.2976190E+00  0.8025866E+05  0.5021237E+01  0.3947754E-02  0.2913922E-04 -0.5747618E+05  0.5088689E+00
  0.3285715E+00  0.8072573E+05  0.8332334E+01 -0.1996911E-02 -0.3635883E-04 -0.5788698E+05  0.7788848E+00
  0.3595238E+00  0.8139807E+05  0.1373140E+02 -0.4074399E-02 -0.2501905E-04 -0.5805370E+05  0.1186321E+01
  0.3904762E+00  0.8152963E+05  0.2242298E+02  0.1004289E-01  0.4222691E-03 -0.5803105E+05  0.1781397E+01
  0.4214286E+00  0.8190537E+05  0.3616228E+02  0.1126047E-01  0.1270115E-02 -0.5802789E+05  0.2610271E+01
  0.4523810E+00  0.8276928E+05  0.5792669E+02  0.2023797E-02  0.1522899E-03 -0.5858835E+05  0.3597201E+01
  0.4833333E+00  0.8337263E+05  0.9042574E+02  0.0000000E+00  0.2467632E-03 -0.5863395E+05  0.4811379E+01
  0.5142857E+00  0.8381123E+05  0.1387370E+03  0.6586711E-02  0.1505613E-02 -0.5878413E+05  0.6098520E+01
  0.5452381E+00  0.8438303E+05  0.2078697E+03 -0.1119422E-03 -0.1273632E-02 -0.5915696E+05  0.6943826E+01
  0.5761905E+00  0.8557616E+05  0.3048493E+03 -0.3707507E-02 -0.1823425E-02 -0.5957954E+05  0.6828404E+01
  0.6071429E+00  0.8646194E+05  0.4383419E+03 -0.6735408E-02 -0.2367496E-02 -0.5987990E+05  0.4937037E+01
  0.6380953E+00  0.8713554E+05  0.6158890E+03 -0.4782605E-02 -0.1627922E-02 -0.6009156E+05 -0.3749847E-01
  0.6690477E+00  0.8795736E+05  0.8507139E+03 -0.6659565E-02 -0.2802849E-02 -0.6024326E+05 -0.9227726E+01
  0.7000000E+00  0.8919372E+05  0.1158370E+04 -0.2049037E-02  0.3623962E-04 -0.6089658E+05 -0.2687696E+02
  0.7309524E+00  0.9055075E+05  0.1553628E+04  0.3715788E-02  0.9460449E-03 -0.6165441E+05 -0.5791593E+02
  0.7619048E+00  0.9187327E+05  0.2055957E+04 -0.6608963E-02 -0.2790451E-02 -0.6191638E+05 -0.1014750E+03
  0.7928572E+00  0.9308832E+05  0.2686727E+04 -0.1154719E-02 -0.2822876E-02 -0.6249698E+05 -0.1698548E+03
  0.8238096E+00  0.9415278E+05  0.3467783E+04  0.2296756E-02  0.5203247E-02 -0.6293901E+05 -0.2663388E+03
  0.8547620E+00  0.9537273E+05  0.4425647E+04 -0.6212324E-02 -0.7854462E-02 -0.6344435E+05 -0.3969643E+03
  0.8857143E+00  0.9720237E+05  0.5595925E+04  0.1199045E-01  0.6767273E-02 -0.6437860E+05 -0.5756965E+03
  0.9166667E+00  0.9890676E+05  0.7006984E+04  0.3928444E-02  0.1182556E-02 -0.6536890E+05 -0.8265323E+03
  0.9476191E+00  0.1004255E+06  0.8690138E+04  0.8373164E-03  0.4501343E-03 -0.6620470E+05 -0.1158891E+04
  0.9785714E+00  0.1018226E+06  0.1068175E+05  0.6237169E-04 -0.9704590E-02 -0.6708427E+05 -0.1597298E+04
  0.1009524E+01  0.1031362E+06  0.1301436E+05 -0.2357915E-02 -0.4165649E-02 -0.6760594E+05 -0.2127608E+04
  0.1040476E+01  0.1043894E+06  0.1571998E+05  0.1231877E-02 -0.3128052E-02 -0.6862177E+05 -0.2822252E+04
  0.1071429E+01  0.1054266E+06  0.1880631E+05 -0.7804362E-02 -0.1605225E-01 -0.6939887E+05 -0.3645900E+04
  0.1102381E+01  0.1066236E+06  0.2229950E+05 -0.4540066E-02 -0.1306152E-01 -0.7056945E+05 -0.4641849E+04
  0.1133333E+01  0.1076061E+06  0.2623637E+05  0.8078183E-03 -0.2716064E-02 -0.7163407E+05 -0.5881772E+04
  0.1164286E+01  0.1083376E+06  0.3061391E+05  0.0000000E+00 -0.7171631E-02 -0.7227567E+05 -0.7283135E+04
  0.1195238E+01  0.1088181E+06  0.3544291E+05  0.4953331E-02 -0.1831055E-03 -0.7334859E+05 -0.9026550E+04
  0.1226190E+01  0.1088343E+06  0.4065846E+05 -0.5176730E-02 -0.9124756E-02 -0.7414102E+05 -0.1100325E+05
  0.1257143E+01  0.1085041E+06  0.4621389E+05 -0.2184781E-02  0.3753662E-02 -0.7480340E+05 -0.1317585E+05
  0.1288095E+01  0.1080319E+06  0.5209032E+05  0.1753210E-02 -0.6347656E-02 -0.7572038E+05 -0.1572920E+05
  0.1319048E+01  0.1070702E+06  0.5822806E+05  0.3655499E-02 -0.3723145E-02 -0.7603356E+05 -0.1844142E+05
  0.1350000E+01  0.1057592E+06  0.6456536E+05  0.3390842E-02 -0.2014160E-02 -0.7613477E+05 -0.2134248E+05
  0.1380952E+01  0.1041375E+06  0.7104649E+05  0.2651872E-03  0.7690430E-02 -0.7650270E+05 -0.2466570E+05
  0.1411905E+01  0.1019608E+06  0.7744586E+05  0.2334363E-02  0.3845215E-02 -0.7647603E+05 -0.2802393E+05
  0.1442857E+01  0.9953521E+05  0.8377580E+05  0.3680239E-02 -0.7934570E-02 -0.7619888E+05 -0.3156867E+05
  0.1473810E+01  0.9679590E+05  0.8999175E+05  0.5383714E-03 -0.1727295E-01 -0.7589140E+05 -0.3545251E+05
  0.1504762E+01  0.9378839E+05  0.9596162E+05  0.1054595E-02 -0.1098633E-02 -0.7530662E+05 -0.3936282E+05
  0.1535714E+01  0.9064948E+05  0.1015613E+06  0.3696175E-02  0.3906250E-02 -0.7428816E+05 -0.4287434E+05
  0.1566667E+01  0.8743253E+05  0.1068580E+06 -0.2727103E-03 -0.1953125E-02 -0.7340154E+05 -0.4658930E+05
  0.1597619E+01  0.8408656E+05  0.1118067E+06  0.9168918E-03 -0.6652832E-02 -0.7250548E+05 -0.5055297E+05
  0.1628572E+01  0.8056735E+05  0.1162556E+06  0.7495545E-03  0.1330566E-01 -0.7127986E+05 -0.5430434E+05
  0.1659524E+01  0.7706172E+05  0.1202389E+06  0.1103362E-03 -0.3845215E-02 -0.6991869E+05 -0.5786621E+05
  0.1690476E+01  0.7360234E+05  0.1238242E+06  0.7221060E-02  0.2929688E-02 -0.6861347E+05 -0.6160330E+05
  0.1721429E+01  0.7016731E+05  0.1269847E+06 -0.4432014E-03  0.1892090E-02 -0.6718162E+05 -0.6537125E+05
  0.1752381E+01  0.6683569E+05  0.1296771E+06  0.2420674E-02 -0.1892090E-02 -0.6549599E+05 -0.6836645E+05
  0.1783333E+01  0.6370557E+05  0.1320163E+06  0.5903868E-03 -0.2075195E-02 -0.6384125E+05 -0.7096461E+05
  0.1814286E+01  0.6071020E+05  0.1340870E+06  0.1648430E-02 -0.3173828E-02 -0.6237995E+05 -0.7404976E+05
  0.1845238E+01  0.5782284E+05  0.1358141E+06  0.1372700E-02  0.1611328E-01 -0.6088700E+05 -0.7714023E+05
  0.1876190E+01  0.5502318E+05  0.1371992E+06  0.2944094E-02  0.6103516E-04 -0.5931025E+05 -0.7989950E+05
  0.1907143E+01  0.5236560E+05  0.1383956E+06  0.3448372E-02 -0.2380371E-02 -0.5772782E+05 -0.8252846E+05
  0.1938095E+01  0.4981098E+05  0.1393832E+06 -0.1714364E-02  0.9216309E-02 -0.5608305E+05 -0.8528612E+05
  0.1969048E+01  0.4737770E+05  0.1402068E+06  0.3050328E-02  0.1403809E-02 -0.5444202E+05 -0.8814501E+05
  0.2000000E+01  0.4510133E+05  0.1409381E+06 -0.1437843E-02  0.1831055E-02 -0.5284750E+05 -0.9090888E+05
Zone t="Motion of body    1 in DoF   2",I=    64,F=POINT
  0.5000000E-01 -0.1213074E-01 -0.1144409E-04  0.1734589E+06  0.3810935E+03 -0.7324219E-02  0.2670288E-04
  0.8095238E-01  0.3298591E-02  0.8583069E-05  0.1718645E+06  0.6311981E+03  0.2186495E-01  0.2670288E-04
  0.1119048E+00 -0.1840794E-02  0.7343292E-04  0.1708249E+06  0.9024543E+03  0.1581720E-01  0.3051758E-04
  0.1428571E+00  0.8010864E-02 -0.3528595E-04  0.1702169E+06  0.1204639E+04  0.1367187E-01 -0.1220703E-03
  0.1738095E+00  0.9656932E-03 -0.2288818E-04  0.1700002E+06  0.1549760E+04  0.1053484E-01 -0.0000000E+00
  0.2047619E+00  0.4396660E-02  0.7629395E-04  0.1700807E+06  0.1953473E+04  0.2563477E-01 -0.3814697E-04
  0.2357143E+00 -0.2136230E-02  0.4959106E-04  0.1700650E+06  0.2436911E+04 -0.1760772E-01 -0.1525879E-03
  0.2666667E+00  0.8525848E-02 -0.1754761E-03  0.1705852E+06  0.3016384E+04 -0.3616333E-01  0.9155273E-04
  0.2976190E+00  0.5332031E-02  0.1106262E-03  0.1707348E+06  0.3733392E+04  0.2296875E-01 -0.0000000E+00
  0.3285715E+00 -0.3622303E-02 -0.7629395E-05  0.1714231E+06  0.4604257E+04 -0.3715183E-02  0.3967285E-03
  0.3595238E+00  0.2206967E-02 -0.1373291E-03  0.1715056E+06  0.5677537E+04  0.1697667E-01  0.1251221E-02
  0.3904762E+00  0.1094167E-02 -0.5722046E-03  0.1720090E+06  0.6981583E+04 -0.2125810E-01 -0.7629395E-03
  0.4214286E+00 -0.1882779E-02  0.3814697E-04  0.1717416E+06  0.8496592E+04 -0.2317267E-01 -0.1831055E-03
  0.4523810E+00  0.2765856E-02 -0.2288818E-03  0.1714928E+06  0.1029911E+05 -0.1996813E-01 -0.3051758E-03
  0.4833333E+00  0.6882240E-02  0.6103516E-04  0.1708112E+06  0.1221453E+05  0.2525593E-02 -0.2807617E-02
  0.5142857E+00 -0.3560384E-02 -0.3662109E-03  0.1695764E+06  0.1434784E+05  0.4272461E-02  0.2807617E-02
  0.5452381E+00  0.7891926E-02 -0.2014160E-02  0.1685097E+06  0.1654928E+05  0.9403146E-02 -0.2624512E-02
  0.5761905E+00  0.2118575E-02  0.1342773E-02  0.1664791E+06  0.1879102E+05  0.1186402E-01  0.5126953E-02
  0.6071429E+00  0.5026424E-02 -0.3051758E-04  0.1645133E+06  0.2111856E+05  0.2010570E-01  0.1220703E-02
  0.6380953E+00 -0.1052173E-02  0.3356934E-03  0.1626945E+06  0.2334785E+05  0.6886952E-02  0.3540039E-02
  0.6690477E+00 -0.5473615E-02  0.8544922E-03  0.1602125E+06  0.2558262E+05 -0.1459631E-01  0.1342773E-02
  0.7000000E+00  0.1046317E-01 -0.7324219E-03  0.1578193E+06  0.2780224E+05  0.9765624E-02  0.6347656E-02
  0.7309524E+00 -0.3841039E-02  0.1037598E-02  0.1556967E+06  0.2989120E+05 -0.2738828E-01 -0.3784180E-02
  0.7619048E+00  0.2563476E-02  0.3051758E-04  0.1529513E+06  0.3192767E+05 -0.2178955E-01 -0.3051758E-02
  0.7928572E+00  0.6543408E-02  0.1037598E-02  0.1503521E+06  0.3386888E+05  0.1909135E-01  0.8544922E-02
  0.8238096E+00  0.7482980E-02 -0.1464844E-02  0.1479571E+06  0.3566607E+05  0.7705247E-02  0.3662109E-02
  0.8547620E+00  0.4212955E-02 -0.4943848E-02  0.1454939E+06  0.3732189E+05  0.7997476E-02  0.1269531E-01
  0.8857143E+00  0.7270074E-02  0.2075195E-02  0.1427351E+06  0.3886506E+05 -0.5512853E-03  0.8544922E-02
  0.9166667E+00  0.1697887E-02  0.1892090E-02  0.1402595E+06  0.4022809E+05 -0.5859375E-02 -0.1171875E-01
  0.9476191E+00  0.1255975E-02  0.7324219E-03  0.1379793E+06  0.4139521E+05  0.6698532E-02 -0.1220703E-01
  0.9785714E+00  0.7921205E-02 -0.3784180E-02  0.1357930E+06  0.4237177E+05  0.9480498E-02  0.8056641E-02
  0.1009524E+01  0.3234576E-02 -0.1770020E-02  0.1332570E+06  0.4322035E+05  0.8706148E-02  0.9033203E-02
  0.1040476E+01  0.7068625E-02  0.9765625E-03  0.1309779E+06  0.4389328E+05 -0.5631436E-02 -0.9277344E-02
  0.1071429E+01  0.2164714E-02  0.5493164E-03  0.1288949E+06  0.4435786E+05  0.1822917E-02  0.8544922E-02
  0.1102381E+01  0.7059250E-02 -0.1647949E-02  0.1271192E+06  0.4462841E+05 -0.3100533E-02  0.1220703E-01
  0.1133333E+01  0.4146800E-02 -0.4943848E-02  0.1253263E+06  0.4471183E+05  0.9909237E-02  0.1660156E-01
  0.1164286E+01  0.5137437E-02 -0.2685547E-02  0.1233282E+06  0.4464122E+05  0.7129505E-02 -0.1464844E-02
  0.1195238E+01  0.2489432E-02  0.2929688E-02  0.1216185E+06  0.4443756E+05 -0.1674941E-01  0.1147461E-01
  0.1226190E+01  0.6719793E-02  0.1159668E-02  0.1201060E+06  0.4405736E+05  0.1194630E-01 -0.5371094E-02
  0.1257143E+01  0.6942749E-02 -0.3845215E-02  0.1188701E+06  0.4357861E+05  0.1398260E-01 -0.8544922E-02
  0.1288095E+01  0.4086873E-03  0.4333496E-02  0.1178876E+06  0.4287341E+05 -0.3032579E-02 -0.6103516E-02
  0.1319048E+01  0.1613741E-02 -0.0000000E+00  0.1166256E+06  0.4205319E+05  0.1110531E-02 -0.4150391E-02
  0.1350000E+01  0.4415159E-02  0.4394531E-02  0.1154063E+06  0.4110412E+05  0.2893518E-02 -0.1367188E-01
  0.1380952E+01  0.3364563E-02 -0.1281738E-01  0.1144543E+06  0.4012227E+05 -0.1308257E-01  0.1025391E-01
  0.1411905E+01  0.2488366E-02  0.1342773E-01  0.1136524E+06  0.3902296E+05 -0.2420821E-02 -0.2587891E-01
  0.1442857E+01  0.5932799E-02  0.2441406E-03  0.1130636E+06  0.3786160E+05 -0.1489016E-01 -0.7324219E-02
  0.1473810E+01  0.7568260E-02  0.1757812E-01  0.1127247E+06  0.3668435E+05 -0.2319138E-02 -0.1831055E-01
  0.1504762E+01  0.2484382E-02  0.7446289E-02  0.1124021E+06  0.3540020E+05 -0.8436758E-02  0.4394531E-02
  0.1535714E+01  0.5961573E-04 -0.1831055E-03  0.1118108E+06  0.3391340E+05 -0.1716933E-01  0.1245117E-01
  0.1566667E+01  0.3993257E-02  0.1037598E-02  0.1114016E+06  0.3245332E+05 -0.1215509E-01  0.1489258E-01
  0.1597619E+01  0.8041905E-02  0.9277344E-02  0.1111567E+06  0.3109738E+05  0.1161396E-01 -0.5371094E-02
  0.1628572E+01  0.2061275E-02  0.1220703E-03  0.1110365E+06  0.2969716E+05 -0.6895902E-02 -0.1098633E-02
  0.1659524E+01  0.4560561E-02 -0.2319336E-02  0.1110265E+06  0.2828568E+05  0.7649973E-02  0.2197266E-02
  0.1690476E+01  0.4711742E-02  0.4638672E-02  0.1111585E+06  0.2699836E+05 -0.1068717E-01  0.2685547E-02
  0.1721429E+01  0.6293459E-02  0.3051758E-02  0.1113996E+06  0.2573727E+05  0.5389329E-02 -0.4882812E-03
  0.1752381E+01  0.1375779E-02  0.1226807E-01  0.1114445E+06  0.2422179E+05  0.8359163E-02 -0.1147461E-01
  0.1783333E+01  0.6691050E-02  0.6774902E-02  0.1114934E+06  0.2263607E+05  0.1505914E-01 -0.4394531E-02
  0.1814286E+01  0.1026063E-02  0.1159668E-02  0.1116483E+06  0.2126309E+05 -0.1399483E-01 -0.1440430E-01
  0.1845238E+01 -0.4796182E-03 -0.5065918E-02  0.1118590E+06  0.1997862E+05  0.2910786E-02  0.1586914E-02
  0.1876190E+01 -0.2602514E-02 -0.9094238E-02  0.1121376E+06  0.1873919E+05 -0.1353307E-01 -0.6591797E-02
  0.1907143E+01  0.3360363E-02 -0.1831055E-03  0.1124674E+06  0.1756646E+05  0.4608497E-02  0.9155273E-02
  0.1938095E+01  0.3495650E-02  0.2258301E-02  0.1128333E+06  0.1649704E+05 -0.1410857E-01 -0.2441406E-03
  0.1969048E+01  0.1456873E-02 -0.5981445E-02  0.1132201E+06  0.1546770E+05 -0.1884636E-01  0.5310059E-02
  0.2000000E+01  0.2716064E-02  0.3906250E-02  0.1136026E+06  0.1440696E+05  0.1147461E-01 -0.3540039E-02
Zone t="Motion of body    1 in DoF   3",I=    64,F=POINT
  0.5000000E-01 -0.5897318E+05  0.7670055E-03 -0.6256104E-02  0.9561950E-05  0.4394879E+06 -0.1096342E-04
  0.8095238E-01 -0.5868129E+05  0.3453909E-02  0.6012860E-01  0.2987351E-03  0.4401401E+06  0.6351616E-03
  0.1119048E+00 -0.5919684E+05  0.9693883E-02 -0.1145383E-01 -0.1080904E-03  0.4408274E+06  0.1900972E-02
  0.1428571E+00 -0.5906134E+05  0.2098668E-01  0.2584839E-01  0.3540003E-03  0.4407961E+06  0.3111810E-02
  0.1738095E+00 -0.5929410E+05  0.4017562E-01  0.3862773E-01  0.4577427E-03  0.4410901E+06  0.4417191E-02
  0.2047619E+00 -0.5914795E+05  0.7014349E-01  0.3055306E-01  0.4679113E-03  0.4417789E+06  0.9320520E-02
  0.2357143E+00 -0.5964297E+05  0.1181204E+00 -0.4557291E-01 -0.4626155E-03  0.4412466E+06  0.1147963E-01
  0.2666667E+00 -0.5964863E+05  0.1872516E+00  0.6408691E-02  0.4520628E-03  0.4424813E+06  0.1727511E-01
  0.2976190E+00 -0.5951947E+05  0.2893173E+00 -0.2050781E-02 -0.4822295E-04  0.4409560E+06  0.2457643E-01
  0.3285715E+00 -0.5983339E+05  0.4264925E+00  0.2786387E-02  0.6880076E-03  0.4427991E+06  0.3670065E-01
  0.3595238E+00 -0.6029291E+05  0.6151400E+00  0.1918363E-01  0.6980486E-03  0.4413460E+06  0.5036527E-01
  0.3904762E+00 -0.6006495E+05  0.8399070E+00 -0.5642774E-01 -0.2213617E-02  0.4422273E+06  0.7041241E-01
  0.4214286E+00 -0.6010573E+05  0.1077807E+01  0.1694501E-01  0.2076570E-03  0.4409774E+06  0.6926389E-01
  0.4523810E+00 -0.6080004E+05  0.1268159E+01 -0.2914268E-01 -0.1319643E-02  0.4417795E+06  0.7176444E-01
  0.4833333E+00 -0.6083874E+05  0.1151203E+01  0.5354256E-01  0.4339628E-02  0.4416723E+06  0.6388830E-01
  0.5142857E+00 -0.6100069E+05  0.5341378E+00 -0.1519097E-01 -0.5667517E-03  0.4412904E+06  0.5503572E-01
  0.5452381E+00 -0.6111257E+05 -0.1209075E+01  0.1141811E-01  0.2799354E-02  0.4435262E+06 -0.9820358E-01
  0.5761905E+00 -0.6190076E+05 -0.4707718E+01  0.4173594E-01  0.8381777E-02  0.4418201E+06 -0.1962129E+00
  0.6071429E+00 -0.6223305E+05 -0.1143629E+02  0.2814797E-02 -0.4726350E-03  0.4420985E+06  0.1754338E+00
  0.6380953E+00 -0.6219579E+05 -0.2306285E+02  0.3940867E-01  0.9976685E-02  0.4434276E+06  0.4385631E+00
  0.6690477E+00 -0.6243036E+05 -0.4100316E+02 -0.1459631E-02  0.4978180E-02  0.4418388E+06  0.8074093E+00
  0.7000000E+00 -0.6317208E+05 -0.6798179E+02  0.4708426E-01  0.1156044E-01  0.4424082E+06  0.5037472E+00
  0.7309524E+00 -0.6382840E+05 -0.1102826E+03 -0.2221123E-01 -0.6778479E-02  0.4448053E+06  0.3187394E+01
  0.7619048E+00 -0.6429975E+05 -0.1713722E+03 -0.2435303E-01 -0.1117826E-01  0.4428943E+06  0.9119323E+01
  0.7928572E+00 -0.6490448E+05 -0.2584476E+03  0.2155476E-02 -0.1283407E-02  0.4431145E+06  0.1922105E+02
  0.8238096E+00 -0.6509261E+05 -0.3804226E+03  0.1985583E-01  0.1139688E-01  0.4441323E+06  0.3438162E+02
  0.8547620E+00 -0.6548950E+05 -0.5409928E+03  0.1399558E-01  0.1205111E-01  0.4446032E+06  0.4865931E+02
  0.8857143E+00 -0.6671868E+05 -0.7451198E+03  0.1460906E-01  0.1089001E-01  0.4439443E+06  0.6432400E+02
  0.9166667E+00 -0.6782352E+05 -0.1023506E+04  0.2982954E-01  0.1600361E-01  0.4445443E+06  0.1108729E+03
  0.9476191E+00 -0.6857207E+05 -0.1397798E+04  0.9017254E-02 -0.2117157E-03  0.4457094E+06  0.1882059E+03
  0.9785714E+00 -0.6928919E+05 -0.1888073E+04 -0.6486656E-02  0.1022339E-02  0.4473340E+06  0.3049649E+03
  0.1009524E+01 -0.6986520E+05 -0.2493085E+04  0.4836748E-02 -0.9269714E-03  0.4456134E+06  0.4403889E+03
  0.1040476E+01 -0.7083629E+05 -0.3239666E+04 -0.1055894E-01  0.3326416E-02  0.4461080E+06  0.6297772E+03
  0.1071429E+01 -0.7150025E+05 -0.4138563E+04  0.5696615E-02  0.1130676E-01  0.4463498E+06  0.8374021E+03
  0.1102381E+01 -0.7261005E+05 -0.5192671E+04  0.1461680E-01  0.1393127E-01  0.4482028E+06  0.1054429E+04
  0.1133333E+01 -0.7358614E+05 -0.6502970E+04  0.1551011E-01  0.2241516E-01  0.4495108E+06  0.1452061E+04
  0.1164286E+01 -0.7433020E+05 -0.8023969E+04  0.1342024E-01  0.2659607E-01  0.4480528E+06  0.1874713E+04
  0.1195238E+01 -0.7540641E+05 -0.9823663E+04 -0.2634968E-01 -0.7598877E-02  0.4488314E+06  0.2514641E+04
  0.1226190E+01 -0.7608993E+05 -0.1188297E+05  0.2389260E-01  0.4623413E-02  0.4494901E+06  0.3263880E+04
  0.1257143E+01 -0.7661952E+05 -0.1413990E+05  0.2388694E-01  0.1133728E-01  0.4505438E+06  0.4010688E+04
  0.1288095E+01 -0.7735506E+05 -0.1675373E+05 -0.7581446E-02  0.4837036E-02  0.4531665E+06  0.5102487E+04
  0.1319048E+01 -0.7761471E+05 -0.1956249E+05 -0.4997391E-02 -0.2418518E-01  0.4527272E+06  0.6220734E+04
  0.1350000E+01 -0.7775284E+05 -0.2259226E+05  0.1085069E-02 -0.2960205E-02  0.4516520E+06  0.7372272E+04
  0.1380952E+01 -0.7809969E+05 -0.2588907E+05 -0.8485992E-02 -0.1165771E-01  0.4524423E+06  0.8969623E+04
  0.1411905E+01 -0.7796889E+05 -0.2936796E+05 -0.8818705E-02 -0.8544922E-03  0.4529568E+06  0.1052933E+05
  0.1442857E+01 -0.7753503E+05 -0.3296247E+05 -0.1353651E-01  0.2499390E-01  0.4534924E+06  0.1234499E+05
  0.1473810E+01 -0.7700643E+05 -0.3683209E+05  0.1490875E-01  0.1315308E-01  0.4552368E+06  0.1475938E+05
  0.1504762E+01 -0.7622995E+05 -0.4076875E+05 -0.9734721E-03  0.9765625E-02  0.4562388E+06  0.1717134E+05
  0.1535714E+01 -0.7521087E+05 -0.4435297E+05 -0.1732831E-01 -0.2484131E-01  0.4542500E+06  0.1860411E+05
  0.1566667E+01 -0.7435591E+05 -0.4805302E+05 -0.3740026E-02  0.9521484E-02  0.4536092E+06  0.2060312E+05
  0.1597619E+01 -0.7348138E+05 -0.5182466E+05  0.1879628E-01  0.1376343E-01  0.4538706E+06  0.2327224E+05
  0.1628572E+01 -0.7215612E+05 -0.5544881E+05 -0.1004403E-01  0.1144409E-01  0.4536634E+06  0.2581686E+05
  0.1659524E+01 -0.7066244E+05 -0.5896320E+05  0.1618263E-01 -0.5767822E-02  0.4534485E+06  0.2826616E+05
  0.1690476E+01 -0.6923205E+05 -0.6256699E+05 -0.1169812E-01 -0.1495361E-01  0.4543877E+06  0.3167977E+05
  0.1721429E+01 -0.6763579E+05 -0.6621116E+05  0.2552840E-02 -0.4180908E-02  0.4556253E+06  0.3578654E+05
  0.1752381E+01 -0.6590001E+05 -0.6912080E+05  0.6408692E-02 -0.3967285E-03  0.4539112E+06  0.3749216E+05
  0.1783333E+01 -0.6424684E+05 -0.7173864E+05  0.2902307E-01  0.1242065E-01  0.4514178E+06  0.3797693E+05
  0.1814286E+01 -0.6288056E+05 -0.7466969E+05 -0.1480223E-01  0.1834106E-01  0.4508218E+06  0.4069660E+05
  0.1845238E+01 -0.6150052E+05 -0.7748448E+05 -0.1058468E-01 -0.2090454E-01  0.4504313E+06  0.4396145E+05
  0.1876190E+01 -0.5990557E+05 -0.8003775E+05 -0.2029961E-01 -0.7598877E-02  0.4497500E+06  0.4667310E+05
  0.1907143E+01 -0.5825412E+05 -0.8254256E+05 -0.2560276E-02 -0.9399414E-02  0.4491005E+06  0.4935231E+05
  0.1938095E+01 -0.5655502E+05 -0.8510956E+05 -0.6298468E-02 -0.8789062E-02  0.4488560E+06  0.5335492E+05
  0.1969048E+01 -0.5484949E+05 -0.8781150E+05 -0.9175201E-02  0.1342773E-02  0.4489840E+06  0.5852485E+05
  0.2000000E+01 -0.5317111E+05 -0.9049265E+05  0.1586914E-01  0.1007080E-02  0.4488352E+06  0.6330785E+05
