VARIABLES="w (rad/s)"
"abs(F   1   1)" "angle(F   1   1)"
"abs(F   1   2)" "angle(F   1   2)"
"abs(F   1   3)" "angle(F   1   3)"
Zone t="Diffraction force - beta =   0.000 deg",I=    64,F=POINT
  0.5000000E-01  0.1714606E+04 -0.1570765E+01  0.3186650E+06 -0.2169179E-04  0.6209563E+03  0.1570810E+01
  0.8095238E-01  0.2799334E+04 -0.1570806E+01  0.3181833E+06 -0.5836965E-04  0.1018240E+04  0.1570831E+01
  0.1119048E+00  0.3908762E+04 -0.1570783E+01  0.3174754E+06 -0.1159584E-03  0.1417059E+04  0.1570817E+01
  0.1428571E+00  0.5053023E+04 -0.1570796E+01  0.3165402E+06 -0.1989132E-03  0.1825315E+04  0.1570819E+01
  0.1738095E+00  0.6247046E+04 -0.1570793E+01  0.3153773E+06 -0.3140411E-03  0.2245600E+04  0.1570837E+01
  0.2047619E+00  0.7501035E+04 -0.1570789E+01  0.3139816E+06 -0.4710395E-03  0.2685171E+04  0.1570827E+01
  0.2357143E+00  0.8836142E+04 -0.1570783E+01  0.3123515E+06 -0.6844365E-03  0.3139911E+04  0.1570816E+01
  0.2666667E+00  0.1027079E+05 -0.1570777E+01  0.3104867E+06 -0.9719516E-03  0.3624121E+04  0.1570822E+01
  0.2976190E+00  0.1182084E+05 -0.1570763E+01  0.3083776E+06 -0.1363301E-02  0.4138557E+04  0.1570833E+01
  0.3285715E+00  0.1351475E+05 -0.1570746E+01  0.3060257E+06 -0.1889470E-02  0.4684576E+04  0.1570842E+01
  0.3595238E+00  0.1538031E+05 -0.1570725E+01  0.3034413E+06 -0.2598812E-02  0.5276780E+04  0.1570872E+01
  0.3904762E+00  0.1743151E+05 -0.1570687E+01  0.3006093E+06 -0.3546408E-02  0.5922537E+04  0.1570905E+01
  0.4214286E+00  0.1970117E+05 -0.1570640E+01  0.2975512E+06 -0.4767780E-02  0.6600750E+04  0.1570957E+01
  0.4523810E+00  0.2219677E+05 -0.1570561E+01  0.2942798E+06 -0.6358025E-02  0.7332774E+04  0.1571029E+01
  0.4833333E+00  0.2493079E+05 -0.1570460E+01  0.2908206E+06 -0.8280311E-02  0.8110600E+04  0.1571132E+01
  0.5142857E+00  0.2787230E+05 -0.1570315E+01  0.2871676E+06 -0.1064270E-01  0.8943292E+04  0.1571280E+01
  0.5452381E+00  0.3100566E+05 -0.1570120E+01  0.2833400E+06 -0.1341729E-01  0.9791871E+04  0.1571469E+01
  0.5761905E+00  0.3434973E+05 -0.1569869E+01  0.2793668E+06 -0.1661745E-01  0.1063454E+05  0.1571725E+01
  0.6071429E+00  0.3786900E+05 -0.1569541E+01  0.2752658E+06 -0.2033267E-01  0.1149990E+05  0.1572050E+01
  0.6380953E+00  0.4152507E+05 -0.1569137E+01  0.2709999E+06 -0.2448573E-01  0.1237732E+05  0.1572458E+01
  0.6690477E+00  0.4530573E+05 -0.1568630E+01  0.2666033E+06 -0.2916762E-01  0.1322564E+05  0.1572964E+01
  0.7000000E+00  0.4921828E+05 -0.1568010E+01  0.2621179E+06 -0.3443884E-01  0.1404377E+05  0.1573584E+01
  0.7309524E+00  0.5327443E+05 -0.1567261E+01  0.2575330E+06 -0.4026658E-01  0.1482591E+05  0.1574336E+01
  0.7619048E+00  0.5744112E+05 -0.1566364E+01  0.2528697E+06 -0.4670535E-01  0.1555654E+05  0.1575231E+01
  0.7928572E+00  0.6169559E+05 -0.1565299E+01  0.2481307E+06 -0.5378509E-01  0.1627760E+05  0.1576297E+01
  0.8238096E+00  0.6599708E+05 -0.1564047E+01  0.2433265E+06 -0.6152711E-01  0.1694390E+05  0.1577549E+01
  0.8547620E+00  0.7038570E+05 -0.1562592E+01  0.2384683E+06 -0.6995068E-01  0.1753543E+05  0.1579004E+01
  0.8857143E+00  0.7486334E+05 -0.1560915E+01  0.2335857E+06 -0.7907705E-01  0.1802446E+05  0.1580682E+01
  0.9166667E+00  0.7941428E+05 -0.1559001E+01  0.2286994E+06 -0.8892420E-01  0.1846074E+05  0.1582603E+01
  0.9476191E+00  0.8399316E+05 -0.1556828E+01  0.2238280E+06 -0.9950599E-01  0.1880339E+05  0.1584782E+01
  0.9785714E+00  0.8861300E+05 -0.1554384E+01  0.2189466E+06 -0.1108132E+00  0.1908677E+05  0.1587232E+01
  0.1009524E+01  0.9321666E+05 -0.1551653E+01  0.2140657E+06 -0.1228658E+00  0.1927010E+05  0.1589958E+01
  0.1040476E+01  0.9781022E+05 -0.1548630E+01  0.2091981E+06 -0.1356755E+00  0.1936191E+05  0.1592974E+01
  0.1071429E+01  0.1023690E+06 -0.1545313E+01  0.2043661E+06 -0.1492662E+00  0.1934374E+05  0.1596292E+01
  0.1102381E+01  0.1068961E+06 -0.1541704E+01  0.1995837E+06 -0.1636490E+00  0.1918733E+05  0.1599922E+01
  0.1133333E+01  0.1113968E+06 -0.1537811E+01  0.1948624E+06 -0.1788189E+00  0.1892283E+05  0.1603853E+01
  0.1164286E+01  0.1158230E+06 -0.1533643E+01  0.1902022E+06 -0.1947815E+00  0.1852510E+05  0.1608077E+01
  0.1195238E+01  0.1201577E+06 -0.1529219E+01  0.1856090E+06 -0.2115175E+00  0.1801998E+05  0.1612553E+01
  0.1226190E+01  0.1243560E+06 -0.1524553E+01  0.1810696E+06 -0.2290197E+00  0.1743908E+05  0.1617257E+01
  0.1257143E+01  0.1283447E+06 -0.1519644E+01  0.1766000E+06 -0.2475094E+00  0.1671936E+05  0.1622138E+01
  0.1288095E+01  0.1322122E+06 -0.1514635E+01  0.1721849E+06 -0.2663617E+00  0.1590112E+05  0.1627061E+01
  0.1319048E+01  0.1358449E+06 -0.1509492E+01  0.1678396E+06 -0.2862145E+00  0.1494429E+05  0.1632072E+01
  0.1350000E+01  0.1392667E+06 -0.1504319E+01  0.1635663E+06 -0.3068609E+00  0.1385830E+05  0.1637125E+01
  0.1380952E+01  0.1424589E+06 -0.1499193E+01  0.1593750E+06 -0.3282790E+00  0.1266225E+05  0.1642125E+01
  0.1411905E+01  0.1448752E+06 -0.1495214E+01  0.1557205E+06 -0.3474389E+00  0.1154941E+05  0.1646038E+01
  0.1442857E+01  0.1475217E+06 -0.1490426E+01  0.1517390E+06 -0.3702831E+00  0.1015340E+05  0.1650612E+01
  0.1473810E+01  0.1498944E+06 -0.1485907E+01  0.1478359E+06 -0.3938839E+00  0.8695941E+04  0.1654843E+01
  0.1504762E+01  0.1519705E+06 -0.1481765E+01  0.1440155E+06 -0.4182284E+00  0.7167152E+04  0.1658467E+01
  0.1535714E+01  0.1537140E+06 -0.1478094E+01  0.1402801E+06 -0.4433296E+00  0.5540372E+04  0.1661232E+01
  0.1566667E+01  0.1551538E+06 -0.1475011E+01  0.1366171E+06 -0.4691831E+00  0.3859573E+04  0.1662845E+01
  0.1597619E+01  0.1562729E+06 -0.1472616E+01  0.1330449E+06 -0.4958064E+00  0.2133276E+04  0.1661141E+01
  0.1628572E+01  0.1570646E+06 -0.1470972E+01  0.1295616E+06 -0.5232294E+00  0.3948338E+03  0.1626399E+01
  0.1659524E+01  0.1575225E+06 -0.1470207E+01  0.1261747E+06 -0.5513941E+00  0.1396609E+04 -0.1455180E+01
  0.1690476E+01  0.1576734E+06 -0.1470396E+01  0.1228688E+06 -0.5803266E+00  0.3184434E+04 -0.1463196E+01
  0.1721429E+01  0.1575330E+06 -0.1471639E+01  0.1196432E+06 -0.6100293E+00  0.4956036E+04 -0.1466703E+01
  0.1752381E+01  0.1570977E+06 -0.1474022E+01  0.1165048E+06 -0.6404590E+00  0.6730969E+04 -0.1470096E+01
  0.1783333E+01  0.1563913E+06 -0.1477611E+01  0.1134455E+06 -0.6716443E+00  0.8484413E+04 -0.1474280E+01
  0.1814286E+01  0.1554348E+06 -0.1482480E+01  0.1104674E+06 -0.7035785E+00  0.1020582E+05 -0.1479500E+01
  0.1845238E+01  0.1542499E+06 -0.1488692E+01  0.1075696E+06 -0.7362536E+00  0.1189103E+05 -0.1485846E+01
  0.1876190E+01  0.1528515E+06 -0.1496246E+01  0.1047612E+06 -0.7697620E+00  0.1351434E+05 -0.1493778E+01
  0.1907143E+01  0.1512557E+06 -0.1505226E+01  0.1020322E+06 -0.8039513E+00  0.1510093E+05 -0.1502881E+01
  0.1938095E+01  0.1494864E+06 -0.1515635E+01  0.9937845E+05 -0.8388343E+00  0.1663160E+05 -0.1513415E+01
  0.1969048E+01  0.1475768E+06 -0.1527496E+01  0.9677691E+05 -0.8744826E+00  0.1808692E+05 -0.1525617E+01
  0.2000000E+01  0.1455362E+06 -0.1540844E+01  0.9423320E+05 -0.9108113E+00  0.1948575E+05 -0.1539077E+01
