VARIABLES="w (rad/s)"
"abs(F   1   1)" "angle(F   1   1)"
"abs(F   1   2)" "angle(F   1   2)"
"abs(F   1   3)" "angle(F   1   3)"
Zone t="Diffraction force - beta =   0.000 deg",I=    64,F=POINT
  0.5000000E-01  0.6606587E+03 -0.1570796E+01  0.3129685E+02 -0.3120988E+01  0.1487012E+04  0.1570797E+01
  0.8095238E-01  0.1086783E+04 -0.1570794E+01  0.8163496E+02 -0.3120412E+01  0.2446830E+04  0.1570798E+01
  0.1119048E+00  0.1520780E+04 -0.1570793E+01  0.1553941E+03 -0.3119603E+01  0.3421453E+04  0.1570800E+01
  0.1428571E+00  0.1967478E+04 -0.1570790E+01  0.2526320E+03 -0.3118538E+01  0.4424896E+04  0.1570803E+01
  0.1738095E+00  0.2435057E+04 -0.1570786E+01  0.3735197E+03 -0.3117188E+01  0.5467881E+04  0.1570807E+01
  0.2047619E+00  0.2924569E+04 -0.1570779E+01  0.5170649E+03 -0.3115406E+01  0.6564147E+04  0.1570813E+01
  0.2357143E+00  0.3446594E+04 -0.1570771E+01  0.6840913E+03 -0.3113161E+01  0.7726944E+04  0.1570822E+01
  0.2666667E+00  0.4007571E+04 -0.1570758E+01  0.8742881E+03 -0.3110429E+01  0.8972073E+04  0.1570835E+01
  0.2976190E+00  0.4614103E+04 -0.1570738E+01  0.1086265E+04 -0.3106919E+01  0.1032168E+05  0.1570855E+01
  0.3285715E+00  0.5277340E+04 -0.1570710E+01  0.1321028E+04 -0.3102733E+01  0.1178965E+05  0.1570884E+01
  0.3595238E+00  0.6004938E+04 -0.1570667E+01  0.1575752E+04 -0.3097578E+01  0.1339540E+05  0.1570927E+01
  0.3904762E+00  0.6812192E+04 -0.1570603E+01  0.1849938E+04 -0.3091433E+01  0.1516849E+05  0.1570992E+01
  0.4214286E+00  0.7704049E+04 -0.1570510E+01  0.2142333E+04 -0.3084575E+01  0.1713016E+05  0.1571087E+01
  0.4523810E+00  0.8687137E+04 -0.1570372E+01  0.2446136E+04 -0.3076397E+01  0.1927369E+05  0.1571226E+01
  0.4833333E+00  0.9767924E+04 -0.1570182E+01  0.2769688E+04 -0.3068390E+01  0.2162249E+05  0.1571419E+01
  0.5142857E+00  0.1092924E+05 -0.1569918E+01  0.3089879E+04 -0.3059248E+01  0.2415383E+05  0.1571687E+01
  0.5452381E+00  0.1218351E+05 -0.1569566E+01  0.3425748E+04 -0.3050314E+01  0.2686002E+05  0.1572043E+01
  0.5761905E+00  0.1350550E+05 -0.1569108E+01  0.3764760E+04 -0.3041479E+01  0.2969750E+05  0.1572507E+01
  0.6071429E+00  0.1490711E+05 -0.1568516E+01  0.4100471E+04 -0.3032109E+01  0.3269693E+05  0.1573107E+01
  0.6380953E+00  0.1638862E+05 -0.1567778E+01  0.4449905E+04 -0.3023594E+01  0.3584615E+05  0.1573854E+01
  0.6690477E+00  0.1790790E+05 -0.1566860E+01  0.4788862E+04 -0.3014823E+01  0.3908779E+05  0.1574782E+01
  0.7000000E+00  0.1950194E+05 -0.1565731E+01  0.5121631E+04 -0.3005820E+01  0.4244087E+05  0.1575924E+01
  0.7309524E+00  0.2117282E+05 -0.1564371E+01  0.5462026E+04 -0.2997415E+01  0.4589871E+05  0.1577303E+01
  0.7619048E+00  0.2287133E+05 -0.1562734E+01  0.5793131E+04 -0.2989004E+01  0.4942177E+05  0.1578959E+01
  0.7928572E+00  0.2464048E+05 -0.1560790E+01  0.6104867E+04 -0.2980308E+01  0.5308245E+05  0.1580923E+01
  0.8238096E+00  0.2644359E+05 -0.1558496E+01  0.6414370E+04 -0.2971874E+01  0.5678162E+05  0.1583241E+01
  0.8547620E+00  0.2832525E+05 -0.1555827E+01  0.6725737E+04 -0.2963917E+01  0.6060481E+05  0.1585938E+01
  0.8857143E+00  0.3022343E+05 -0.1552724E+01  0.7007021E+04 -0.2955657E+01  0.6440408E+05  0.1589074E+01
  0.9166667E+00  0.3220266E+05 -0.1549164E+01  0.7271859E+04 -0.2947402E+01  0.6834105E+05  0.1592672E+01
  0.9476191E+00  0.3419764E+05 -0.1545086E+01  0.7527317E+04 -0.2939379E+01  0.7225217E+05  0.1596794E+01
  0.9785714E+00  0.3626980E+05 -0.1540471E+01  0.7777752E+04 -0.2931758E+01  0.7627820E+05  0.1601458E+01
  0.1009524E+01  0.3834257E+05 -0.1535244E+01  0.8005894E+04 -0.2924165E+01  0.8029636E+05  0.1606731E+01
  0.1040476E+01  0.4044439E+05 -0.1529373E+01  0.8197889E+04 -0.2916292E+01  0.8435362E+05  0.1612643E+01
  0.1071429E+01  0.4259369E+05 -0.1522835E+01  0.8376509E+04 -0.2908594E+01  0.8843746E+05  0.1619228E+01
  0.1102381E+01  0.4477946E+05 -0.1515592E+01  0.8543291E+04 -0.2901133E+01  0.9247445E+05  0.1626541E+01
  0.1133333E+01  0.4702112E+05 -0.1507616E+01  0.8701240E+04 -0.2894011E+01  0.9655260E+05  0.1634595E+01
  0.1164286E+01  0.4923224E+05 -0.1498812E+01  0.8831500E+04 -0.2886934E+01  0.1005362E+06  0.1643473E+01
  0.1195238E+01  0.5143927E+05 -0.1489160E+01  0.8921524E+04 -0.2879681E+01  0.1044527E+06  0.1653201E+01
  0.1226190E+01  0.5369097E+05 -0.1478665E+01  0.8995529E+04 -0.2872513E+01  0.1084249E+06  0.1663764E+01
  0.1257143E+01  0.5584204E+05 -0.1467236E+01  0.9054352E+04 -0.2865307E+01  0.1121209E+06  0.1675265E+01
  0.1288095E+01  0.5814484E+05 -0.1454944E+01  0.9102503E+04 -0.2858586E+01  0.1159962E+06  0.1687654E+01
  0.1319048E+01  0.6035492E+05 -0.1441673E+01  0.9139620E+04 -0.2851840E+01  0.1197204E+06  0.1700971E+01
  0.1350000E+01  0.6249202E+05 -0.1427455E+01  0.9134780E+04 -0.2845248E+01  0.1231638E+06  0.1715260E+01
  0.1380952E+01  0.6460524E+05 -0.1412303E+01  0.9103559E+04 -0.2838712E+01  0.1264599E+06  0.1730502E+01
  0.1411905E+01  0.6656024E+05 -0.1396243E+01  0.9053182E+04 -0.2832231E+01  0.1295554E+06  0.1746536E+01
  0.1442857E+01  0.6852822E+05 -0.1379157E+01  0.8990819E+04 -0.2825710E+01  0.1323742E+06  0.1763737E+01
  0.1473810E+01  0.7047215E+05 -0.1361155E+01  0.8916897E+04 -0.2819268E+01  0.1350941E+06  0.1781849E+01
  0.1504762E+01  0.7235648E+05 -0.1342249E+01  0.8835272E+04 -0.2812963E+01  0.1376287E+06  0.1800851E+01
  0.1535714E+01  0.7409332E+05 -0.1322289E+01  0.8742907E+04 -0.2806550E+01  0.1398879E+06  0.1820862E+01
  0.1566667E+01  0.7563846E+05 -0.1301380E+01  0.8603086E+04 -0.2800982E+01  0.1416359E+06  0.1841853E+01
  0.1597619E+01  0.7710628E+05 -0.1279571E+01  0.8452403E+04 -0.2795231E+01  0.1432537E+06  0.1863704E+01
  0.1628572E+01  0.7848481E+05 -0.1256959E+01  0.8289571E+04 -0.2789456E+01  0.1447020E+06  0.1886287E+01
  0.1659524E+01  0.7959641E+05 -0.1233467E+01  0.8118474E+04 -0.2783641E+01  0.1455254E+06  0.1909790E+01
  0.1690476E+01  0.8060941E+05 -0.1209442E+01  0.7938997E+04 -0.2777853E+01  0.1461002E+06  0.1933844E+01
  0.1721429E+01  0.8148255E+05 -0.1185002E+01  0.7757618E+04 -0.2772181E+01  0.1463146E+06  0.1958335E+01
  0.1752381E+01  0.8215054E+05 -0.1159873E+01  0.7567789E+04 -0.2766335E+01  0.1461958E+06  0.1983439E+01
  0.1783333E+01  0.8260359E+05 -0.1134286E+01  0.7366730E+04 -0.2760937E+01  0.1456221E+06  0.2009036E+01
  0.1814286E+01  0.8277588E+05 -0.1108223E+01  0.7148589E+04 -0.2756534E+01  0.1444637E+06  0.2035120E+01
  0.1845238E+01  0.8281146E+05 -0.1081768E+01  0.6920600E+04 -0.2752003E+01  0.1431489E+06  0.2061537E+01
  0.1876190E+01  0.8268715E+05 -0.1055084E+01  0.6688156E+04 -0.2747467E+01  0.1415956E+06  0.2088083E+01
  0.1907143E+01  0.8226370E+05 -0.1028205E+01  0.6455941E+04 -0.2742939E+01  0.1394228E+06  0.2114891E+01
  0.1938095E+01  0.8167671E+05 -0.1001360E+01  0.6220725E+04 -0.2738466E+01  0.1369759E+06  0.2141678E+01
  0.1969048E+01  0.8092473E+05 -0.9747799E+00  0.5988965E+04 -0.2734101E+01  0.1342421E+06  0.2168201E+01
  0.2000000E+01  0.8002738E+05 -0.9484901E+00  0.5761779E+04 -0.2729637E+01  0.1312956E+06  0.2194371E+01
