VARIABLES="w (rad/s)"
"abs(F   1   1)" "angle(F   1   1)"
"abs(F   1   2)" "angle(F   1   2)"
"abs(F   1   3)" "angle(F   1   3)"
Zone t="Diffraction force - beta =   0.000 deg",I=    64,F=POINT
  0.5000000E-01  0.2807245E+03 -0.1570796E+01  0.7550574E+02 -0.3105824E+01  0.2413388E+01 -0.1570794E+01
  0.8095238E-01  0.4585077E+03 -0.1570795E+01  0.1965751E+03 -0.3104662E+01  0.3919077E+01 -0.1570792E+01
  0.1119048E+00  0.6392371E+03 -0.1570794E+01  0.3744496E+03 -0.3103139E+01  0.5497260E+01 -0.1570789E+01
  0.1428571E+00  0.8300685E+03 -0.1570791E+01  0.6092955E+03 -0.3101135E+01  0.7192723E+01 -0.1570786E+01
  0.1738095E+00  0.1024669E+04 -0.1570788E+01  0.9023328E+03 -0.3098572E+01  0.8810636E+01 -0.1570780E+01
  0.2047619E+00  0.1235594E+04 -0.1570784E+01  0.1254670E+04 -0.3095327E+01  0.1075646E+02 -0.1570774E+01
  0.2357143E+00  0.1453908E+04 -0.1570777E+01  0.1667420E+04 -0.3091189E+01  0.1277056E+02 -0.1570765E+01
  0.2666667E+00  0.1692131E+04 -0.1570768E+01  0.2143351E+04 -0.3086134E+01  0.1481440E+02 -0.1570751E+01
  0.2976190E+00  0.1953728E+04 -0.1570753E+01  0.2682308E+04 -0.3079719E+01  0.1735076E+02 -0.1570731E+01
  0.3285715E+00  0.2236402E+04 -0.1570732E+01  0.3288211E+04 -0.3071994E+01  0.2017034E+02 -0.1570702E+01
  0.3595238E+00  0.2544378E+04 -0.1570699E+01  0.3959279E+04 -0.3062537E+01  0.2286378E+02 -0.1570658E+01
  0.3904762E+00  0.2894143E+04 -0.1570650E+01  0.4699208E+04 -0.3051252E+01  0.2634917E+02 -0.1570591E+01
  0.4214286E+00  0.3281798E+04 -0.1570578E+01  0.5498242E+04 -0.3038455E+01  0.3050397E+02 -0.1570498E+01
  0.4523810E+00  0.3696985E+04 -0.1570472E+01  0.6364109E+04 -0.3023609E+01  0.3477789E+02 -0.1570357E+01
  0.4833333E+00  0.4163128E+04 -0.1570323E+01  0.7283006E+04 -0.3008327E+01  0.3962389E+02 -0.1570167E+01
  0.5142857E+00  0.4677299E+04 -0.1570117E+01  0.8252387E+04 -0.2991612E+01  0.4624787E+02 -0.1569912E+01
  0.5452381E+00  0.5223528E+04 -0.1569839E+01  0.9273764E+04 -0.2974741E+01  0.5230606E+02 -0.1569553E+01
  0.5761905E+00  0.5781208E+04 -0.1569471E+01  0.1033821E+05 -0.2957868E+01  0.5753450E+02 -0.1569057E+01
  0.6071429E+00  0.6394651E+04 -0.1568996E+01  0.1144666E+05 -0.2940433E+01  0.6545430E+02 -0.1568466E+01
  0.6380953E+00  0.7051481E+04 -0.1568399E+01  0.1259892E+05 -0.2923662E+01  0.7363120E+02 -0.1567717E+01
  0.6690477E+00  0.7732507E+04 -0.1567651E+01  0.1378380E+05 -0.2906718E+01  0.8311704E+02 -0.1566809E+01
  0.7000000E+00  0.8422929E+04 -0.1566716E+01  0.1500349E+05 -0.2889551E+01  0.9150087E+02 -0.1565619E+01
  0.7309524E+00  0.9129753E+04 -0.1565572E+01  0.1626138E+05 -0.2872786E+01  0.9947720E+02 -0.1564122E+01
  0.7619048E+00  0.9883660E+04 -0.1564194E+01  0.1754390E+05 -0.2855976E+01  0.1100008E+03 -0.1562416E+01
  0.7928572E+00  0.1067846E+05 -0.1562550E+01  0.1884804E+05 -0.2839126E+01  0.1226455E+03 -0.1560468E+01
  0.8238096E+00  0.1150411E+05 -0.1560598E+01  0.2017283E+05 -0.2822370E+01  0.1360286E+03 -0.1558169E+01
  0.8547620E+00  0.1233884E+05 -0.1558289E+01  0.2151417E+05 -0.2805756E+01  0.1484546E+03 -0.1555346E+01
  0.8857143E+00  0.1316502E+05 -0.1555561E+01  0.2286630E+05 -0.2789255E+01  0.1595748E+03 -0.1551874E+01
  0.9166667E+00  0.1401216E+05 -0.1552392E+01  0.2423246E+05 -0.2773023E+01  0.1733333E+03 -0.1548033E+01
  0.9476191E+00  0.1490746E+05 -0.1548769E+01  0.2560191E+05 -0.2756952E+01  0.1888477E+03 -0.1543739E+01
  0.9785714E+00  0.1583704E+05 -0.1544640E+01  0.2696912E+05 -0.2741029E+01  0.2050048E+03 -0.1538823E+01
  0.1009524E+01  0.1678642E+05 -0.1539945E+01  0.2832832E+05 -0.2725228E+01  0.2227390E+03 -0.1533339E+01
  0.1040476E+01  0.1774818E+05 -0.1534631E+01  0.2968036E+05 -0.2709666E+01  0.2427213E+03 -0.1527337E+01
  0.1071429E+01  0.1871948E+05 -0.1528648E+01  0.3102449E+05 -0.2694439E+01  0.2636551E+03 -0.1520614E+01
  0.1102381E+01  0.1967615E+05 -0.1521910E+01  0.3235696E+05 -0.2679535E+01  0.2809427E+03 -0.1512456E+01
  0.1133333E+01  0.2061626E+05 -0.1514362E+01  0.3367209E+05 -0.2664900E+01  0.2977281E+03 -0.1503196E+01
  0.1164286E+01  0.2157585E+05 -0.1506054E+01  0.3496856E+05 -0.2650549E+01  0.3177233E+03 -0.1493422E+01
  0.1195238E+01  0.2255241E+05 -0.1496964E+01  0.3624052E+05 -0.2636446E+01  0.3412435E+03 -0.1483288E+01
  0.1226190E+01  0.2354907E+05 -0.1487083E+01  0.3748900E+05 -0.2622698E+01  0.3672701E+03 -0.1472534E+01
  0.1257143E+01  0.2451576E+05 -0.1476246E+01  0.3871793E+05 -0.2608894E+01  0.3913382E+03 -0.1460275E+01
  0.1288095E+01  0.2551492E+05 -0.1464666E+01  0.3989192E+05 -0.2596017E+01  0.4180750E+03 -0.1447523E+01
  0.1319048E+01  0.2646281E+05 -0.1452033E+01  0.4104278E+05 -0.2583117E+01  0.4438326E+03 -0.1433386E+01
  0.1350000E+01  0.2736523E+05 -0.1438363E+01  0.4215506E+05 -0.2570472E+01  0.4697113E+03 -0.1418059E+01
  0.1380952E+01  0.2821060E+05 -0.1423606E+01  0.4323421E+05 -0.2558335E+01  0.4943714E+03 -0.1401211E+01
  0.1411905E+01  0.2883064E+05 -0.1407879E+01  0.4423961E+05 -0.2546396E+01  0.5067560E+03 -0.1380848E+01
  0.1442857E+01  0.2956700E+05 -0.1391110E+01  0.4524382E+05 -0.2535000E+01  0.5316660E+03 -0.1361991E+01
  0.1473810E+01  0.3026213E+05 -0.1373510E+01  0.4620507E+05 -0.2523882E+01  0.5561783E+03 -0.1342152E+01
  0.1504762E+01  0.3089262E+05 -0.1355020E+01  0.4712153E+05 -0.2513042E+01  0.5790371E+03 -0.1321191E+01
  0.1535714E+01  0.3145931E+05 -0.1335714E+01  0.4799181E+05 -0.2502506E+01  0.6024147E+03 -0.1299424E+01
  0.1566667E+01  0.3192997E+05 -0.1315461E+01  0.4881102E+05 -0.2492103E+01  0.6265574E+03 -0.1277004E+01
  0.1597619E+01  0.3230785E+05 -0.1294353E+01  0.4958419E+05 -0.2482095E+01  0.6500284E+03 -0.1253941E+01
  0.1628572E+01  0.3258732E+05 -0.1272436E+01  0.5031012E+05 -0.2472471E+01  0.6730778E+03 -0.1230369E+01
  0.1659524E+01  0.3275959E+05 -0.1249834E+01  0.5098787E+05 -0.2463242E+01  0.6944345E+03 -0.1206458E+01
  0.1690476E+01  0.3282296E+05 -0.1226704E+01  0.5161367E+05 -0.2454281E+01  0.7116933E+03 -0.1181120E+01
  0.1721429E+01  0.3275683E+05 -0.1202973E+01  0.5218752E+05 -0.2445602E+01  0.7243256E+03 -0.1154518E+01
  0.1752381E+01  0.3256729E+05 -0.1178777E+01  0.5270850E+05 -0.2437199E+01  0.7341543E+03 -0.1127167E+01
  0.1783333E+01  0.3224944E+05 -0.1154150E+01  0.5317579E+05 -0.2429029E+01  0.7422792E+03 -0.1099388E+01
  0.1814286E+01  0.3179140E+05 -0.1129015E+01  0.5358925E+05 -0.2421087E+01  0.7489719E+03 -0.1071731E+01
  0.1845238E+01  0.3120397E+05 -0.1103628E+01  0.5395105E+05 -0.2413527E+01  0.7531512E+03 -0.1044812E+01
  0.1876190E+01  0.3048952E+05 -0.1078179E+01  0.5425933E+05 -0.2406312E+01  0.7546117E+03 -0.1018207E+01
  0.1907143E+01  0.2964384E+05 -0.1052642E+01  0.5451415E+05 -0.2399456E+01  0.7517648E+03 -0.9915070E+00
  0.1938095E+01  0.2867029E+05 -0.1027058E+01  0.5471341E+05 -0.2392875E+01  0.7428815E+03 -0.9639543E+00
  0.1969048E+01  0.2756511E+05 -0.1001312E+01  0.5485711E+05 -0.2386544E+01  0.7297756E+03 -0.9359118E+00
  0.2000000E+01  0.2633376E+05 -0.9754113E+00  0.5494811E+05 -0.2380497E+01  0.7107488E+03 -0.9063687E+00
