VARIABLES="w (rad/s)"
"abs(F   1   1)" "angle(F   1   1)"
"abs(F   1   2)" "angle(F   1   2)"
"abs(F   1   3)" "angle(F   1   3)"
Zone t="Diffraction force - beta =   0.000 deg",I=    64,F=POINT
  0.5000000E-01  0.7873881E+03 -0.1570795E+01  0.8039388E+02 -0.3114949E+01  0.1265860E+04  0.1570797E+01
  0.8095238E-01  0.1293648E+04 -0.1570794E+01  0.2096301E+03 -0.3114177E+01  0.2080870E+04  0.1570799E+01
  0.1119048E+00  0.1809319E+04 -0.1570791E+01  0.3988382E+03 -0.3113094E+01  0.2911434E+04  0.1570801E+01
  0.1428571E+00  0.2347130E+04 -0.1570787E+01  0.6484951E+03 -0.3111689E+01  0.3773378E+04  0.1570805E+01
  0.1738095E+00  0.2902122E+04 -0.1570781E+01  0.9594186E+03 -0.3109914E+01  0.4664609E+04  0.1570811E+01
  0.2047619E+00  0.3492344E+04 -0.1570772E+01  0.1329068E+04 -0.3107575E+01  0.5611297E+04  0.1570819E+01
  0.2357143E+00  0.4120853E+04 -0.1570760E+01  0.1760192E+04 -0.3104633E+01  0.6618312E+04  0.1570831E+01
  0.2666667E+00  0.4794835E+04 -0.1570741E+01  0.2253591E+04 -0.3101069E+01  0.7697161E+04  0.1570849E+01
  0.2976190E+00  0.5532533E+04 -0.1570714E+01  0.2804146E+04 -0.3096474E+01  0.8876539E+04  0.1570875E+01
  0.3285715E+00  0.6334544E+04 -0.1570673E+01  0.3418296E+04 -0.3091022E+01  0.1016139E+05  0.1570914E+01
  0.3595238E+00  0.7232211E+04 -0.1570611E+01  0.4086216E+04 -0.3084286E+01  0.1158883E+05  0.1570973E+01
  0.3904762E+00  0.8218912E+04 -0.1570519E+01  0.4811160E+04 -0.3076285E+01  0.1315908E+05  0.1571061E+01
  0.4214286E+00  0.9325623E+04 -0.1570385E+01  0.5586898E+04 -0.3067328E+01  0.1490772E+05  0.1571190E+01
  0.4523810E+00  0.1052357E+05 -0.1570185E+01  0.6399611E+04 -0.3056702E+01  0.1682922E+05  0.1571380E+01
  0.4833333E+00  0.1186319E+05 -0.1569910E+01  0.7272162E+04 -0.3046305E+01  0.1893836E+05  0.1571644E+01
  0.5142857E+00  0.1333511E+05 -0.1569526E+01  0.8138502E+04 -0.3034375E+01  0.2126089E+05  0.1572011E+01
  0.5452381E+00  0.1489402E+05 -0.1569011E+01  0.9059589E+04 -0.3022819E+01  0.2373377E+05  0.1572503E+01
  0.5761905E+00  0.1656903E+05 -0.1568341E+01  0.9988807E+04 -0.3011283E+01  0.2638826E+05  0.1573144E+01
  0.6071429E+00  0.1835077E+05 -0.1567472E+01  0.1091954E+05 -0.2999105E+01  0.2917359E+05  0.1573976E+01
  0.6380953E+00  0.2023864E+05 -0.1566384E+01  0.1190520E+05 -0.2988207E+01  0.3212686E+05  0.1575017E+01
  0.6690477E+00  0.2224339E+05 -0.1565032E+01  0.1285479E+05 -0.2976723E+01  0.3524951E+05  0.1576313E+01
  0.7000000E+00  0.2428767E+05 -0.1563353E+01  0.1380145E+05 -0.2965055E+01  0.3844681E+05  0.1577920E+01
  0.7309524E+00  0.2642809E+05 -0.1561319E+01  0.1478934E+05 -0.2954367E+01  0.4182543E+05  0.1579862E+01
  0.7619048E+00  0.2872151E+05 -0.1558884E+01  0.1574707E+05 -0.2943507E+01  0.4532713E+05  0.1582202E+01
  0.7928572E+00  0.3110297E+05 -0.1555977E+01  0.1666470E+05 -0.2932278E+01  0.4899255E+05  0.1584990E+01
  0.8238096E+00  0.3353648E+05 -0.1552529E+01  0.1758959E+05 -0.2921546E+01  0.5272653E+05  0.1588297E+01
  0.8547620E+00  0.3605749E+05 -0.1548488E+01  0.1853765E+05 -0.2911723E+01  0.5657379E+05  0.1592176E+01
  0.8857143E+00  0.3870634E+05 -0.1543803E+01  0.1938703E+05 -0.2901026E+01  0.6062428E+05  0.1596671E+01
  0.9166667E+00  0.4139164E+05 -0.1538377E+01  0.2021744E+05 -0.2890621E+01  0.6475558E+05  0.1601866E+01
  0.9476191E+00  0.4418152E+05 -0.1532172E+01  0.2103095E+05 -0.2880625E+01  0.6894286E+05  0.1607828E+01
  0.9785714E+00  0.4708932E+05 -0.1525125E+01  0.2184612E+05 -0.2871432E+01  0.7327891E+05  0.1614609E+01
  0.1009524E+01  0.5009532E+05 -0.1517163E+01  0.2258987E+05 -0.2862123E+01  0.7770438E+05  0.1622286E+01
  0.1040476E+01  0.5318707E+05 -0.1508209E+01  0.2324813E+05 -0.2852277E+01  0.8230650E+05  0.1630899E+01
  0.1071429E+01  0.5626808E+05 -0.1498141E+01  0.2387846E+05 -0.2842967E+01  0.8682652E+05  0.1640600E+01
  0.1102381E+01  0.5942104E+05 -0.1486938E+01  0.2449264E+05 -0.2834202E+01  0.9150844E+05  0.1651365E+01
  0.1133333E+01  0.6258264E+05 -0.1474513E+01  0.2509312E+05 -0.2826272E+01  0.9615531E+05  0.1663311E+01
  0.1164286E+01  0.6585730E+05 -0.1460959E+01  0.2560046E+05 -0.2818122E+01  0.1008457E+06  0.1676384E+01
  0.1195238E+01  0.6921602E+05 -0.1446195E+01  0.2600785E+05 -0.2809355E+01  0.1056593E+06  0.1690611E+01
  0.1226190E+01  0.7253585E+05 -0.1430079E+01  0.2638260E+05 -0.2801147E+01  0.1103174E+06  0.1706182E+01
  0.1257143E+01  0.7572791E+05 -0.1412500E+01  0.2672268E+05 -0.2793140E+01  0.1147755E+06  0.1723149E+01
  0.1288095E+01  0.7911235E+05 -0.1393681E+01  0.2703996E+05 -0.2786110E+01  0.1195047E+06  0.1741321E+01
  0.1319048E+01  0.8228791E+05 -0.1373346E+01  0.2733800E+05 -0.2779752E+01  0.1237777E+06  0.1761011E+01
  0.1350000E+01  0.8546412E+05 -0.1351681E+01  0.2748414E+05 -0.2772539E+01  0.1280535E+06  0.1781967E+01
  0.1380952E+01  0.8853274E+05 -0.1328571E+01  0.2756965E+05 -0.2765277E+01  0.1322284E+06  0.1804249E+01
  0.1411905E+01  0.9105354E+05 -0.1304030E+01  0.2761380E+05 -0.2758524E+01  0.1356925E+06  0.1827738E+01
  0.1442857E+01  0.9365521E+05 -0.1278109E+01  0.2762448E+05 -0.2751988E+01  0.1390362E+06  0.1852718E+01
  0.1473810E+01  0.9615767E+05 -0.1251195E+01  0.2760899E+05 -0.2745794E+01  0.1422328E+06  0.1878601E+01
  0.1504762E+01  0.9838813E+05 -0.1223159E+01  0.2757075E+05 -0.2740240E+01  0.1448667E+06  0.1905643E+01
  0.1535714E+01  0.1003997E+06 -0.1194196E+01  0.2748801E+05 -0.2735207E+01  0.1470777E+06  0.1933643E+01
  0.1566667E+01  0.1022086E+06 -0.1164389E+01  0.2724523E+05 -0.2729319E+01  0.1490262E+06  0.1962369E+01
  0.1597619E+01  0.1036269E+06 -0.1133524E+01  0.2698383E+05 -0.2723658E+01  0.1504961E+06  0.1991987E+01
  0.1628572E+01  0.1046532E+06 -0.1101920E+01  0.2669102E+05 -0.2718401E+01  0.1513016E+06  0.2022319E+01
  0.1659524E+01  0.1052449E+06 -0.1069673E+01  0.2636696E+05 -0.2713386E+01  0.1513869E+06  0.2053274E+01
  0.1690476E+01  0.1055731E+06 -0.1037297E+01  0.2601772E+05 -0.2708495E+01  0.1511734E+06  0.2084223E+01
  0.1721429E+01  0.1055409E+06 -0.1004900E+01  0.2565148E+05 -0.2704046E+01  0.1503749E+06  0.2115172E+01
  0.1752381E+01  0.1050747E+06 -0.9724537E+00  0.2527605E+05 -0.2700159E+01  0.1488383E+06  0.2146226E+01
  0.1783333E+01  0.1042871E+06 -0.9402195E+00  0.2482430E+05 -0.2696577E+01  0.1468565E+06  0.2177004E+01
  0.1814286E+01  0.1032156E+06 -0.9083080E+00  0.2427816E+05 -0.2692659E+01  0.1445595E+06  0.2207258E+01
  0.1845238E+01  0.1016770E+06 -0.8762966E+00  0.2373292E+05 -0.2688894E+01  0.1416847E+06  0.2237485E+01
  0.1876190E+01  0.9980714E+05 -0.8450601E+00  0.2317137E+05 -0.2685491E+01  0.1382922E+06  0.2266888E+01
  0.1907143E+01  0.9754558E+05 -0.8144996E+00  0.2259556E+05 -0.2682355E+01  0.1342687E+06  0.2295617E+01
  0.1938095E+01  0.9505547E+05 -0.7845823E+00  0.2199977E+05 -0.2679230E+01  0.1300696E+06  0.2323527E+01
  0.1969048E+01  0.9233434E+05 -0.7554155E+00  0.2139973E+05 -0.2676402E+01  0.1256532E+06  0.2350547E+01
  0.2000000E+01  0.8930145E+05 -0.7271223E+00  0.2080171E+05 -0.2673963E+01  0.1207532E+06  0.2376587E+01
