VARIABLES="w (rad/s)"
"A   1   1" "B   1   1"
"A   1   2" "B   1   2"
"A   1   3" "B   1   3"
Zone t="Motion of body    1 in DoF   1",I=    64,F=POINT
  0.5000000E-01  0.5008881E+05  0.2426791E-02 -0.3681183E-02 -0.1668822E-04 -0.8052773E+05 -0.3706382E-02
  0.8095238E-01  0.5051548E+05  0.1072454E-01 -0.5277746E-02 -0.3725610E-04 -0.8125932E+05 -0.1648121E-01
  0.1119048E+00  0.5064164E+05  0.3015878E-01  0.1363551E-02 -0.3755413E-05 -0.8149606E+05 -0.4631732E-01
  0.1428571E+00  0.5082923E+05  0.6801656E-01 -0.5554199E-02 -0.7329037E-04 -0.8172746E+05 -0.1044481E+00
  0.1738095E+00  0.5085460E+05  0.1353280E+00 -0.5706369E-03 -0.1966173E-04 -0.8175618E+05 -0.2077079E+00
  0.2047619E+00  0.5096323E+05  0.2499114E+00 -0.1713952E-02 -0.5867193E-04 -0.8190870E+05 -0.3835076E+00
  0.2357143E+00  0.5106217E+05  0.4402167E+00 -0.6829463E-02 -0.1597754E-03 -0.8204050E+05 -0.6751850E+00
  0.2666667E+00  0.5113691E+05  0.7515113E+00 -0.2288818E-03 -0.9787828E-04 -0.8213142E+05 -0.1152155E+01
  0.2976190E+00  0.5127154E+05  0.1262109E+01  0.2819824E-02 -0.6123073E-04 -0.8231271E+05 -0.1934056E+01
  0.3285715E+00  0.5135735E+05  0.2090196E+01 -0.4876178E-02 -0.2717171E-03 -0.8244713E+05 -0.3202147E+01
  0.3595238E+00  0.5154844E+05  0.3438198E+01  0.8700541E-03 -0.2549738E-03 -0.8267777E+05 -0.5263370E+01
  0.3904762E+00  0.5169303E+05  0.5611731E+01 -0.3536503E-02 -0.3716797E-03 -0.8285712E+05 -0.8584844E+01
  0.4214286E+00  0.5192231E+05  0.9047218E+01  0.3765558E-02  0.5308539E-04 -0.8311154E+05 -0.1382596E+02
  0.4523810E+00  0.5203679E+05  0.1444225E+02 -0.3912674E-02 -0.6854087E-03 -0.8334413E+05 -0.2206577E+02
  0.4833333E+00  0.5228231E+05  0.2251294E+02  0.5051185E-03 -0.3600419E-03 -0.8361177E+05 -0.3435567E+02
  0.5142857E+00  0.5259573E+05  0.3454126E+02  0.2106561E-02 -0.3050864E-03 -0.8402741E+05 -0.5266144E+02
  0.5452381E+00  0.5282011E+05  0.5170155E+02 -0.3582151E-02 -0.1092970E-02 -0.8436623E+05 -0.7877048E+02
  0.5761905E+00  0.5310111E+05  0.7558989E+02 -0.1271145E-02 -0.6515980E-03 -0.8479109E+05 -0.1150830E+03
  0.6071429E+00  0.5341540E+05  0.1085336E+03 -0.7212919E-02 -0.1648426E-02 -0.8517011E+05 -0.1650232E+03
  0.6380953E+00  0.5377318E+05  0.1524631E+03  0.7699995E-02  0.1574159E-02 -0.8564484E+05 -0.2315359E+03
  0.6690477E+00  0.5420753E+05  0.2106403E+03 -0.1254370E-02 -0.9050369E-03 -0.8622334E+05 -0.3194705E+03
  0.7000000E+00  0.5454072E+05  0.2864247E+03 -0.2964565E-02 -0.1834154E-02 -0.8669331E+05 -0.4339377E+03
  0.7309524E+00  0.5492163E+05  0.3835910E+03 -0.7723829E-03 -0.1187325E-02 -0.8731416E+05 -0.5807193E+03
  0.7619048E+00  0.5545082E+05  0.5075918E+03 -0.5687713E-02 -0.3029823E-02 -0.8794895E+05 -0.7669454E+03
  0.7928572E+00  0.5599335E+05  0.6637379E+03 -0.2193966E-02 -0.2703190E-02 -0.8868551E+05 -0.1001339E+04
  0.8238096E+00  0.5649403E+05  0.8579370E+03 -0.3704446E-03 -0.1115799E-02 -0.8936062E+05 -0.1292270E+04
  0.8547620E+00  0.5702254E+05  0.1097494E+04 -0.2070775E-02 -0.2038956E-02 -0.9006245E+05 -0.1650309E+04
  0.8857143E+00  0.5764300E+05  0.1391192E+04 -0.4548104E-02 -0.3720284E-02 -0.9093324E+05 -0.2088693E+04
  0.9166667E+00  0.5821842E+05  0.1746544E+04  0.5659623E-03 -0.6523132E-03 -0.9178588E+05 -0.2618658E+04
  0.9476191E+00  0.5884148E+05  0.2174358E+04 -0.3220448E-03 -0.2649307E-02 -0.9259542E+05 -0.3253176E+04
  0.9785714E+00  0.5952965E+05  0.2686566E+04 -0.4054160E-03 -0.2412796E-02 -0.9348941E+05 -0.4010708E+04
  0.1009524E+01  0.6025821E+05  0.3294994E+04 -0.3688021E-02 -0.4707336E-02 -0.9439609E+05 -0.4906895E+04
  0.1040476E+01  0.6101245E+05  0.4013000E+04 -0.1437189E-02 -0.3322601E-02 -0.9542485E+05 -0.5963866E+04
  0.1071429E+01  0.6168746E+05  0.4850750E+04 -0.4842122E-03 -0.4528046E-02 -0.9628596E+05 -0.7191801E+04
  0.1102381E+01  0.6238325E+05  0.5826142E+04 -0.2131616E-02 -0.5153656E-02 -0.9726206E+05 -0.8621023E+04
  0.1133333E+01  0.6303802E+05  0.6950342E+04  0.1157873E-02 -0.1205444E-02 -0.9814156E+05 -0.1026204E+05
  0.1164286E+01  0.6375132E+05  0.8240410E+04  0.8911881E-03 -0.4013062E-02 -0.9901130E+05 -0.1213191E+05
  0.1195238E+01  0.6449107E+05  0.9713332E+04  0.2170274E-02  0.1663208E-02 -0.9995130E+05 -0.1426069E+05
  0.1226190E+01  0.6514304E+05  0.1137648E+05  0.3384785E-02  0.6866455E-03 -0.1007027E+06 -0.1665067E+05
  0.1257143E+01  0.6564409E+05  0.1323450E+05 -0.4855069E-03 -0.5477905E-02 -0.1012575E+06 -0.1931145E+05
  0.1288095E+01  0.6626960E+05  0.1533726E+05  0.7107606E-03 -0.1655579E-02 -0.1020164E+06 -0.2231428E+05
  0.1319048E+01  0.6668132E+05  0.1764706E+05  0.1850885E-02 -0.2670288E-02 -0.1023639E+06 -0.2558371E+05
  0.1350000E+01  0.6706511E+05  0.2019885E+05  0.2644857E-02  0.4730225E-03 -0.1027059E+06 -0.2918348E+05
  0.1380952E+01  0.6733692E+05  0.2298905E+05  0.9060564E-03 -0.2990723E-02 -0.1029611E+06 -0.3311457E+05
  0.1411905E+01  0.6721341E+05  0.2590647E+05  0.6916631E-03  0.9155273E-04 -0.1027157E+06 -0.3721673E+05
  0.1442857E+01  0.6710191E+05  0.2909955E+05 -0.2961112E-03 -0.1373291E-02 -0.1023640E+06 -0.4165338E+05
  0.1473810E+01  0.6690509E+05  0.3249624E+05  0.1905007E-02  0.1083374E-02 -0.1019272E+06 -0.4634998E+05
  0.1504762E+01  0.6650188E+05  0.3604840E+05  0.8517881E-03 -0.4577637E-02 -0.1011041E+06 -0.5119873E+05
  0.1535714E+01  0.6594629E+05  0.3974659E+05  0.1947447E-02 -0.1098633E-02 -0.1000234E+06 -0.5619340E+05
  0.1566667E+01  0.6526591E+05  0.4358196E+05  0.6622964E-03 -0.1403809E-02 -0.9882071E+05 -0.6134579E+05
  0.1597619E+01  0.6434854E+05  0.4748234E+05  0.8022803E-03  0.7629395E-03 -0.9736951E+05 -0.6657508E+05
  0.1628572E+01  0.6320847E+05  0.5138738E+05  0.9556820E-03 -0.1434326E-02 -0.9556453E+05 -0.7173401E+05
  0.1659524E+01  0.6184052E+05  0.5523726E+05 -0.9010785E-03 -0.1037598E-02 -0.9341850E+05 -0.7673293E+05
  0.1690476E+01  0.6037232E+05  0.5904309E+05  0.2762055E-02  0.2563477E-02 -0.9121802E+05 -0.8165241E+05
  0.1721429E+01  0.5876540E+05  0.6272063E+05  0.9395869E-03 -0.5615234E-02 -0.8881009E+05 -0.8631298E+05
  0.1752381E+01  0.5698557E+05  0.6619498E+05  0.9926506E-03  0.3570557E-02 -0.8610506E+05 -0.9058155E+05
  0.1783333E+01  0.5513195E+05  0.6948810E+05  0.2053519E-02  0.2014160E-02 -0.8333383E+05 -0.9454648E+05
  0.1814286E+01  0.5323934E+05  0.7259529E+05  0.1614788E-02  0.3784180E-02 -0.8058209E+05 -0.9823571E+05
  0.1845238E+01  0.5120934E+05  0.7539921E+05  0.3721176E-02  0.2197266E-02 -0.7771300E+05 -0.1015072E+06
  0.1876190E+01  0.4914738E+05  0.7788703E+05 -0.6506286E-04 -0.3051758E-03 -0.7478211E+05 -0.1042508E+06
  0.1907143E+01  0.4703232E+05  0.7999885E+05  0.1600173E-03  0.6103516E-03 -0.7176366E+05 -0.1063691E+06
  0.1938095E+01  0.4495403E+05  0.8185202E+05  0.2472149E-02  0.6103516E-03 -0.6888913E+05 -0.1081777E+06
  0.1969048E+01  0.4292698E+05  0.8343165E+05  0.4804581E-03  0.3814697E-02 -0.6615402E+05 -0.1096445E+06
  0.2000000E+01  0.4090168E+05  0.8461831E+05  0.9002686E-03  0.3051758E-04 -0.6338195E+05 -0.1104602E+06
Zone t="Motion of body    1 in DoF   2",I=    64,F=POINT
  0.5000000E-01  0.2441406E-02  0.4410744E-05  0.3295207E+05  0.4274114E+02  0.0000000E+00  0.8106232E-05
  0.8095238E-01 -0.6361568E-03  0.1358986E-04  0.3279424E+05  0.7082098E+02  0.9424546E-03  0.9536743E-06
  0.1119048E+00  0.1636262E-02  0.4053116E-05  0.3266963E+05  0.1013108E+03 -0.6545046E-02 -0.1287460E-04
  0.1428571E+00  0.2937317E-02  0.2527237E-04  0.3261783E+05  0.1353757E+03 -0.1089477E-01 -0.7724762E-04
  0.1738095E+00  0.1338802E-02  0.3385544E-04  0.3262856E+05  0.1743428E+03 -0.1755806E-02 -0.3242493E-04
  0.2047619E+00  0.2198330E-02 -0.4768372E-05  0.3260149E+05  0.2200775E+03 -0.3725983E-02  0.1144409E-04
  0.2357143E+00  0.8965694E-02 -0.4673004E-04  0.3262358E+05  0.2749883E+03 -0.1696038E-01 -0.2670288E-04
  0.2666667E+00  0.2403259E-02  0.3147125E-04  0.3268634E+05  0.3410504E+03 -0.3089905E-02 -0.1945496E-03
  0.2976190E+00  0.3332520E-02  0.1144409E-04  0.3271197E+05  0.4230990E+03 -0.1107422E-01 -0.3051758E-04
  0.3285715E+00  0.2902487E-02  0.5912781E-04  0.3279127E+05  0.5232338E+03 -0.1077403E-01  0.7629395E-05
  0.3595238E+00  0.4774687E-02  0.1831055E-03  0.3282653E+05  0.6471402E+03 -0.9167399E-02 -0.2021790E-03
  0.3904762E+00  0.1328631E-02  0.3051758E-04  0.3286868E+05  0.7985230E+03  0.2032024E-02  0.2632141E-03
  0.4214286E+00  0.4163838E-02  0.8392334E-04  0.3289018E+05  0.9755150E+03 -0.1100702E-01 -0.9155273E-04
  0.4523810E+00  0.4384894E-02 -0.2670288E-03  0.3283358E+05  0.1187748E+04 -0.1025391E-01  0.3662109E-03
  0.4833333E+00  0.3725249E-02  0.2098083E-03  0.3285277E+05  0.1414750E+04 -0.8713295E-02 -0.7629395E-05
  0.5142857E+00  0.1780192E-03 -0.2822876E-03  0.3265038E+05  0.1669888E+04 -0.7951525E-02  0.5340576E-03
  0.5452381E+00  0.3862006E-02  0.3051758E-04  0.3254163E+05  0.1936277E+04 -0.5597110E-02  0.1754761E-03
  0.5761905E+00  0.4343080E-02  0.6332397E-03  0.3234897E+05  0.2208262E+04 -0.1483003E-01  0.9155273E-03
  0.6071429E+00 -0.3769818E-03 -0.1525879E-04  0.3208406E+05  0.2494952E+04  0.0000000E+00  0.2746582E-03
  0.6380953E+00  0.5571735E-02 -0.1144409E-03  0.3193587E+05  0.2772964E+04 -0.9756515E-02 -0.2746582E-03
  0.6690477E+00  0.4242052E-02 -0.3051758E-03  0.3163571E+05  0.3053271E+04 -0.7480607E-02  0.9307861E-03
  0.7000000E+00  0.1220703E-02  0.4882812E-03  0.3131318E+05  0.3335266E+04 -0.1569475E-02 -0.2578735E-02
  0.7309524E+00  0.5740684E-02  0.9155273E-04  0.3109309E+05  0.3605914E+04 -0.1185712E-01 -0.1281738E-02
  0.7619048E+00  0.4806518E-03  0.6103516E-04  0.3079948E+05  0.3868588E+04 -0.5126953E-02 -0.7934570E-03
  0.7928572E+00  0.2482646E-02  0.3662109E-03  0.3043944E+05  0.4124172E+04 -0.5234726E-02  0.5187988E-03
  0.8238096E+00  0.1092811E-02  0.4119873E-03  0.3013026E+05  0.4365944E+04 -0.7853425E-02 -0.1708984E-02
  0.8547620E+00  0.5266195E-02  0.3356934E-03  0.2990446E+05  0.4587948E+04 -0.8568724E-02 -0.1831055E-02
  0.8857143E+00  0.3221573E-02  0.1617432E-02  0.2952843E+05  0.4794363E+04 -0.7304530E-02 -0.3540039E-02
  0.9166667E+00  0.4843972E-02 -0.7629395E-03  0.2918067E+05  0.4981929E+04 -0.9721235E-02  0.1403809E-02
  0.9476191E+00  0.4315400E-02 -0.4272461E-03  0.2887034E+05  0.5148757E+04 -0.7471439E-02  0.1922607E-02
  0.9785714E+00  0.6923258E-02 -0.3051758E-04  0.2863171E+05  0.5291162E+04 -0.1047844E-01 -0.2929688E-02
  0.1009524E+01  0.2977623E-02 -0.1220703E-03  0.2834036E+05  0.5406213E+04 -0.7738797E-02  0.1220703E-02
  0.1040476E+01  0.4751524E-02  0.2441406E-03  0.2799270E+05  0.5502240E+04 -0.5044828E-02 -0.2136230E-02
  0.1071429E+01  0.4728190E-02 -0.1342773E-02  0.2768341E+05  0.5569781E+04 -0.9912110E-02  0.5493164E-02
  0.1102381E+01  0.5508983E-02  0.1373291E-02  0.2744112E+05  0.5617075E+04 -0.1184847E-01 -0.4821777E-02
  0.1133333E+01  0.3931382E-02  0.6103516E-03  0.2726414E+05  0.5636441E+04 -0.4954618E-02 -0.3356934E-03
  0.1164286E+01  0.3656492E-02  0.2777100E-02  0.2703241E+05  0.5624365E+04 -0.1100879E-01 -0.3448486E-02
  0.1195238E+01  0.3651167E-02  0.3479004E-02  0.2675217E+05  0.5592811E+04 -0.6434224E-02 -0.2929688E-02
  0.1226190E+01  0.3123459E-02 -0.9460449E-03  0.2651661E+05  0.5537352E+04 -0.6670017E-02 -0.1861572E-02
  0.1257143E+01  0.4630522E-02 -0.1556396E-02  0.2632721E+05  0.5467456E+04 -0.5340576E-02 -0.1434326E-02
  0.1288095E+01  0.4181642E-02  0.3845215E-02  0.2620513E+05  0.5384428E+04 -0.8339591E-02 -0.1892090E-02
  0.1319048E+01  0.3857940E-02  0.1434326E-02  0.2614062E+05  0.5283438E+04 -0.7958808E-02 -0.4699707E-02
  0.1350000E+01  0.4402443E-02  0.2319336E-02  0.2595631E+05  0.5135316E+04 -0.7685909E-02 -0.2838135E-02
  0.1380952E+01  0.2585575E-02  0.2960205E-02  0.2578557E+05  0.4977975E+04 -0.7602034E-02 -0.8453369E-02
  0.1411905E+01  0.5631921E-02  0.2593994E-02  0.2565211E+05  0.4812459E+04 -0.8818705E-02 -0.7934570E-03
  0.1442857E+01  0.4550148E-02 -0.1007080E-02  0.2555557E+05  0.4637309E+04 -0.9983176E-02  0.6408691E-03
  0.1473810E+01  0.2744918E-02  0.1525879E-02  0.2551658E+05  0.4480587E+04 -0.9442207E-02 -0.1281738E-02
  0.1504762E+01  0.3523766E-02  0.3631592E-02  0.2552152E+05  0.4323214E+04 -0.7787777E-02 -0.3173828E-02
  0.1535714E+01  0.2744808E-02 -0.1312256E-02  0.2553881E+05  0.4152118E+04 -0.7948764E-02  0.1678467E-02
  0.1566667E+01  0.2649185E-02  0.2929688E-02  0.2543277E+05  0.3900457E+04 -0.5298371E-02 -0.4211426E-02
  0.1597619E+01  0.3915892E-02  0.3173828E-02  0.2538035E+05  0.3680602E+04 -0.1268367E-01 -0.4531860E-02
  0.1628572E+01  0.3822728E-02  0.2380371E-02  0.2534961E+05  0.3458762E+04 -0.7795367E-02 -0.8392334E-03
  0.1659524E+01  0.3153775E-02  0.1190186E-02  0.2533946E+05  0.3241851E+04 -0.5001905E-02 -0.7003784E-02
  0.1690476E+01  0.2477726E-02  0.9155273E-04  0.2536822E+05  0.3073696E+04 -0.7509903E-02  0.2426147E-02
  0.1721429E+01  0.4050860E-02  0.3631592E-02  0.2542382E+05  0.2926211E+04 -0.7942168E-02 -0.3952026E-02
  0.1752381E+01  0.2620946E-02  0.4394531E-02  0.2550641E+05  0.2797925E+04 -0.6130053E-02 -0.9597778E-02
  0.1783333E+01  0.3456757E-02  0.1281738E-02  0.2554669E+05  0.2600878E+04 -0.7940275E-02 -0.1663208E-02
  0.1814286E+01  0.2363310E-02  0.3601074E-02  0.2553379E+05  0.2337473E+04 -0.4844365E-02 -0.5203247E-02
  0.1845238E+01  0.3960985E-02  0.4608154E-02  0.2555876E+05  0.2137267E+04 -0.8996976E-02 -0.9109497E-02
  0.1876190E+01  0.2163340E-02  0.4394531E-02  0.2559294E+05  0.1943814E+04 -0.7287040E-02 -0.9002686E-02
  0.1907143E+01  0.2552276E-02  0.2777100E-02  0.2563661E+05  0.1761397E+04 -0.6400691E-02 -0.3013611E-02
  0.1938095E+01  0.1960398E-02  0.1678467E-02  0.2569184E+05  0.1632066E+04 -0.6298468E-02 -0.5920410E-02
  0.1969048E+01  0.1852089E-02  0.5065918E-02  0.2575830E+05  0.1537978E+04 -0.5703503E-02 -0.5714417E-02
  0.2000000E+01  0.1762390E-02  0.5523682E-02  0.2583455E+05  0.1464608E+04 -0.7934570E-02 -0.7232666E-02
Zone t="Motion of body    1 in DoF   3",I=    64,F=POINT
  0.5000000E-01 -0.8101946E+05 -0.3744803E-02  0.4501343E-02  0.3920343E-04  0.1675473E+06  0.5687855E-02
  0.8095238E-01 -0.8177690E+05 -0.1664486E-01  0.2250110E-02  0.6467884E-04  0.1689417E+06  0.2558009E-01
  0.1119048E+00 -0.8202834E+05 -0.4677822E-01 -0.6672879E-02  0.2719840E-04  0.1692793E+06  0.7185965E-01
  0.1428571E+00 -0.8226658E+05 -0.1055163E+00  0.6408691E-03  0.1093841E-03  0.1695442E+06  0.1619959E+00
  0.1738095E+00 -0.8227952E+05 -0.2097729E+00  0.2962922E-02  0.1036352E-03  0.1695982E+06  0.3218746E+00
  0.2047619E+00 -0.8244958E+05 -0.3873279E+00 -0.4825148E-02  0.1257411E-03  0.1698281E+06  0.5944510E+00
  0.2357143E+00 -0.8258400E+05 -0.6818603E+00  0.4741784E-02  0.3375066E-03  0.1700081E+06  0.1045848E+01
  0.2666667E+00 -0.8266787E+05 -0.1163552E+01 -0.6465911E-02  0.1515094E-03  0.1701403E+06  0.1783798E+01
  0.2976190E+00 -0.8285455E+05 -0.1953225E+01 -0.7536621E-02  0.3696047E-04  0.1703248E+06  0.2993421E+01
  0.3285715E+00 -0.8298912E+05 -0.3233084E+01  0.4876178E-02  0.6301962E-03  0.1706091E+06  0.4953541E+01
  0.3595238E+00 -0.8322223E+05 -0.5315278E+01 -0.8488332E-03  0.5366057E-03  0.1708479E+06  0.8137349E+01
  0.3904762E+00 -0.8340849E+05 -0.8669907E+01  0.5568527E-03  0.4866496E-03  0.1711233E+06  0.1326321E+02
  0.4214286E+00 -0.8365442E+05 -0.1396703E+02 -0.1183978E-01 -0.2831966E-03  0.1713591E+06  0.2134379E+02
  0.4523810E+00 -0.8389929E+05 -0.2227825E+02 -0.6526746E-02  0.4045963E-03  0.1717684E+06  0.3403710E+02
  0.4833333E+00 -0.8414077E+05 -0.3469864E+02 -0.2209894E-03  0.8396506E-03  0.1721101E+06  0.5295066E+02
  0.5142857E+00 -0.8458762E+05 -0.5319051E+02 -0.2054638E-01 -0.4646778E-03  0.1726080E+06  0.8109371E+02
  0.5452381E+00 -0.8492546E+05 -0.7954046E+02 -0.4141862E-02  0.1396477E-02  0.1732219E+06  0.1211860E+03
  0.5761905E+00 -0.8535023E+05 -0.1161723E+03 -0.3906124E-02  0.1327038E-02  0.1737824E+06  0.1768690E+03
  0.6071429E+00 -0.8573713E+05 -0.1666226E+03  0.1166130E-01  0.3245831E-02  0.1742077E+06  0.2533497E+03
  0.6380953E+00 -0.8620242E+05 -0.2337861E+03 -0.2042172E-01 -0.1488209E-02  0.1749568E+06  0.3550374E+03
  0.6690477E+00 -0.8679537E+05 -0.3225924E+03 -0.4264859E-02  0.1956463E-02  0.1756853E+06  0.4892657E+03
  0.7000000E+00 -0.8727312E+05 -0.4380813E+03 -0.4512242E-02  0.1633644E-02  0.1763196E+06  0.6637095E+03
  0.7309524E+00 -0.8789056E+05 -0.5858760E+03 -0.2484150E-02  0.3084183E-02  0.1774041E+06  0.8869685E+03
  0.7619048E+00 -0.8851947E+05 -0.7741035E+03  0.9402751E-02  0.7551193E-02  0.1780927E+06  0.1169627E+04
  0.7928572E+00 -0.8928077E+05 -0.1010647E+04 -0.1394323E-01 -0.1955032E-03  0.1791031E+06  0.1524701E+04
  0.8238096E+00 -0.8996151E+05 -0.1304208E+04 -0.7390369E-02  0.2055168E-02  0.1800745E+06  0.1964474E+04
  0.8547620E+00 -0.9064622E+05 -0.1665549E+04 -0.1731596E-01 -0.1932144E-02  0.1810748E+06  0.2504523E+04
  0.8857143E+00 -0.9153176E+05 -0.2107460E+04 -0.8157299E-02  0.1804352E-02  0.1822295E+06  0.3164079E+04
  0.9166667E+00 -0.9239796E+05 -0.2640706E+04  0.4244718E-03  0.5527496E-02  0.1834681E+06  0.3959316E+04
  0.9476191E+00 -0.9321188E+05 -0.3280677E+04 -0.8501982E-02  0.3108978E-02  0.1845593E+06  0.4908321E+04
  0.9785714E+00 -0.9410136E+05 -0.4044986E+04  0.1411160E-02  0.8419037E-02  0.1858092E+06  0.6038653E+04
  0.1009524E+01 -0.9500409E+05 -0.4950283E+04 -0.2569523E-03  0.5989075E-02  0.1869044E+06  0.7371870E+04
  0.1040476E+01 -0.9606181E+05 -0.6015138E+04  0.4733193E-02  0.1026917E-01  0.1883033E+06  0.8939260E+04
  0.1071429E+01 -0.9692579E+05 -0.7253418E+04 -0.1014709E-02  0.1020813E-01  0.1893725E+06  0.1075400E+05
  0.1102381E+01 -0.9790927E+05 -0.8690826E+04 -0.4976079E-02  0.5279541E-02  0.1908339E+06  0.1286027E+05
  0.1133333E+01 -0.9877111E+05 -0.1034151E+05 -0.1711901E-01 -0.6874084E-02  0.1920427E+06  0.1526964E+05
  0.1164286E+01 -0.9963352E+05 -0.1222660E+05 -0.1097603E-01  0.3883362E-02  0.1930466E+06  0.1800035E+05
  0.1195238E+01 -0.1006002E+06 -0.1436902E+05 -0.8323639E-02  0.2601624E-02  0.1942092E+06  0.2109495E+05
  0.1226190E+01 -0.1013607E+06 -0.1677840E+05 -0.7438438E-02  0.3082275E-02  0.1950328E+06  0.2455605E+05
  0.1257143E+01 -0.1019181E+06 -0.1945842E+05 -0.9285320E-02  0.2059937E-02  0.1956393E+06  0.2839271E+05
  0.1288095E+01 -0.1026840E+06 -0.2248088E+05 -0.4412639E-03  0.9323120E-02  0.1966599E+06  0.3270879E+05
  0.1319048E+01 -0.1030061E+06 -0.2577979E+05 -0.7432462E-02 -0.1525879E-03  0.1968415E+06  0.3737550E+05
  0.1350000E+01 -0.1033489E+06 -0.2940709E+05 -0.1141018E-01 -0.4425049E-02  0.1970007E+06  0.4248635E+05
  0.1380952E+01 -0.1036178E+06 -0.3335420E+05 -0.2237517E-02  0.4638672E-02  0.1971807E+06  0.4804435E+05
  0.1411905E+01 -0.1033955E+06 -0.3747825E+05 -0.6986878E-02  0.2014160E-02  0.1966916E+06  0.5384044E+05
  0.1442857E+01 -0.1030321E+06 -0.4193605E+05 -0.1124694E-01 -0.1190186E-02  0.1959082E+06  0.6002631E+05
  0.1473810E+01 -0.1025943E+06 -0.4664752E+05 -0.1248090E-01 -0.1556396E-02  0.1951840E+06  0.6653731E+05
  0.1504762E+01 -0.1017464E+06 -0.5152439E+05 -0.7290900E-02  0.1181030E-01  0.1937105E+06  0.7318271E+05
  0.1535714E+01 -0.1006333E+06 -0.5656051E+05 -0.8028252E-02  0.7629395E-03  0.1917806E+06  0.7996686E+05
  0.1566667E+01 -0.9943369E+05 -0.6174102E+05 -0.8872823E-02  0.6713867E-03  0.1896666E+06  0.8689206E+05
  0.1597619E+01 -0.9798741E+05 -0.6697883E+05 -0.4708621E-02  0.8911133E-02  0.1874380E+06  0.9390371E+05
  0.1628572E+01 -0.9616928E+05 -0.7214760E+05 -0.9687992E-02 -0.1556396E-02  0.1845966E+06  0.1007057E+06
  0.1659524E+01 -0.9399767E+05 -0.7716429E+05 -0.5038684E-02  0.2258301E-02  0.1812431E+06  0.1071749E+06
  0.1690476E+01 -0.9179571E+05 -0.8209157E+05 -0.1705975E-01 -0.8758545E-02  0.1780870E+06  0.1135272E+06
  0.1721429E+01 -0.8937566E+05 -0.8676384E+05 -0.7658519E-02  0.1647949E-02  0.1746142E+06  0.1194180E+06
  0.1752381E+01 -0.8662731E+05 -0.9105655E+05 -0.9160249E-02 -0.4638672E-02  0.1705514E+06  0.1246178E+06
  0.1783333E+01 -0.8382087E+05 -0.9504753E+05 -0.1358745E-01 -0.9582520E-02  0.1664303E+06  0.1293212E+06
  0.1814286E+01 -0.8107588E+05 -0.9873943E+05 -0.7619783E-02 -0.4455566E-02  0.1623624E+06  0.1335546E+06
  0.1845238E+01 -0.7821120E+05 -0.1019999E+06 -0.1286700E-01 -0.8605957E-02  0.1584030E+06  0.1372880E+06
  0.1876190E+01 -0.7527249E+05 -0.1047324E+06 -0.9206395E-02  0.6042480E-02  0.1542544E+06  0.1401431E+06
  0.1907143E+01 -0.7222414E+05 -0.1068599E+06 -0.7392798E-02  0.9155273E-03  0.1499522E+06  0.1420123E+06
  0.1938095E+01 -0.6934837E+05 -0.1086729E+06 -0.7936070E-02  0.8544922E-03  0.1460866E+06  0.1435780E+06
  0.1969048E+01 -0.6662016E+05 -0.1101322E+06 -0.6850403E-02 -0.8544922E-03  0.1425855E+06  0.1447752E+06
  0.2000000E+01 -0.6382246E+05 -0.1109328E+06 -0.1000977E-01 -0.3662109E-02  0.1388520E+06  0.1448682E+06
