VARIABLES="w (rad/s)"
"A   1   1" "B   1   1"
"A   1   2" "B   1   2"
"A   1   3" "B   1   3"
Zone t="Motion of body    1 in DoF   1",I=    64,F=POINT
  0.5000000E-01  0.3305978E+06  0.9310007E-01 -0.2090454E-01 -0.3790826E-04 -0.1283385E+07 -0.3617604E+00
  0.8095238E-01  0.3322664E+06  0.4084042E+00  0.3044128E-01  0.2683885E-03 -0.1288241E+07 -0.1583684E+01
  0.1119048E+00  0.3329749E+06  0.1144181E+01 -0.2727103E-03  0.1142761E-03 -0.1291139E+07 -0.4435840E+01
  0.1428571E+00  0.3337701E+06  0.2568927E+01  0.1805115E-01  0.3748909E-03 -0.1292472E+07 -0.9945851E+01
  0.1738095E+00  0.3343754E+06  0.5096637E+01  0.1536330E-01  0.3848784E-03 -0.1295310E+07 -0.1971873E+02
  0.2047619E+00  0.3351831E+06  0.9367332E+01  0.1475489E-01  0.6303564E-03 -0.1296761E+07 -0.3618599E+02
  0.2357143E+00  0.3359736E+06  0.1641885E+02  0.3961736E-01  0.1668945E-02 -0.1299871E+07 -0.6334800E+02
  0.2666667E+00  0.3372071E+06  0.2786176E+02 -0.1029968E-02  0.2177060E-04 -0.1303221E+07 -0.1072840E+03
  0.2976190E+00  0.3382818E+06  0.4645003E+02  0.1476562E-01  0.1734614E-02 -0.1306378E+07 -0.1785150E+03
  0.3285715E+00  0.3396858E+06  0.7633664E+02  0.2238398E-01  0.1750767E-02 -0.1311174E+07 -0.2927769E+03
  0.3595238E+00  0.3411959E+06  0.1244583E+03  0.1935340E-01  0.2817094E-02 -0.1315810E+07 -0.4762114E+03
  0.3904762E+00  0.3429152E+06  0.2013094E+03  0.3032405E-01  0.3568649E-02 -0.1320824E+07 -0.7681647E+03
  0.4214286E+00  0.3451396E+06  0.3212991E+03  0.6806971E-02  0.1874685E-02 -0.1327801E+07 -0.1222391E+04
  0.4523810E+00  0.3472182E+06  0.5081208E+03  0.1079358E-01  0.3069162E-02 -0.1335360E+07 -0.1928263E+04
  0.4833333E+00  0.3501903E+06  0.7838130E+03  0.9723531E-02  0.2228737E-02 -0.1344173E+07 -0.2963463E+04
  0.5142857E+00  0.3529089E+06  0.1188730E+04  0.1364814E-01  0.6362915E-02 -0.1352448E+07 -0.4478275E+04
  0.5452381E+00  0.3561278E+06  0.1759571E+04  0.1880629E-01  0.6025314E-02 -0.1362383E+07 -0.6603110E+04
  0.5761905E+00  0.3594154E+06  0.2541226E+04 -0.2754148E-02  0.1810074E-02 -0.1373709E+07 -0.9501609E+04
  0.6071429E+00  0.3632204E+06  0.3603965E+04 -0.4624310E-02  0.1209259E-02 -0.1385425E+07 -0.1341703E+05
  0.6380953E+00  0.3676799E+06  0.4999579E+04 -0.1243477E-02  0.5008698E-02 -0.1398560E+07 -0.1852075E+05
  0.6690477E+00  0.3716806E+06  0.6807493E+04  0.4470119E-02  0.6034851E-02 -0.1410728E+07 -0.2509652E+05
  0.7000000E+00  0.3761736E+06  0.9131444E+04  0.2781459E-01  0.1692963E-01 -0.1425507E+07 -0.3350862E+05
  0.7309524E+00  0.3810872E+06  0.1205508E+05  0.1903819E-01  0.1062012E-01 -0.1440525E+07 -0.4400234E+05
  0.7619048E+00  0.3861622E+06  0.1569425E+05 -0.8010864E-03  0.4127502E-02 -0.1455436E+07 -0.5695567E+05
  0.7928572E+00  0.3910697E+06  0.2016843E+05  0.1108530E-01  0.1055908E-01 -0.1469365E+07 -0.7275052E+05
  0.8238096E+00  0.3960167E+06  0.2560793E+05  0.9779736E-02  0.1615906E-01 -0.1482976E+07 -0.9178273E+05
  0.8547620E+00  0.4013725E+06  0.3215991E+05  0.1428121E-03  0.7217407E-02 -0.1498092E+07 -0.1145204E+06
  0.8857143E+00  0.4057482E+06  0.3990426E+05  0.2756426E-02  0.1657104E-01 -0.1509934E+07 -0.1411658E+06
  0.9166667E+00  0.4100003E+06  0.4899191E+05 -0.9321732E-02  0.5187988E-02 -0.1521325E+07 -0.1721502E+06
  0.9476191E+00  0.4137120E+06  0.5949011E+05  0.4379809E-02  0.7965088E-02 -0.1528958E+07 -0.2074278E+06
  0.9785714E+00  0.4173108E+06  0.7155491E+05  0.9106267E-02  0.1901245E-01 -0.1535345E+07 -0.2474530E+06
  0.1009524E+01  0.4196366E+06  0.8516633E+05 -0.7496960E-02  0.8972168E-02 -0.1538232E+07 -0.2921675E+06
  0.1040476E+01  0.4203788E+06  0.1002749E+06  0.2581075E-02  0.5950928E-02 -0.1534654E+07 -0.3409999E+06
  0.1071429E+01  0.4204688E+06  0.1170202E+06  0.1708984E-02 -0.3967285E-02 -0.1530115E+07 -0.3946269E+06
  0.1102381E+01  0.4187006E+06  0.1350762E+06 -0.2989800E-02  0.1892090E-01 -0.1518278E+07 -0.4513588E+06
  0.1133333E+01  0.4159785E+06  0.1544707E+06  0.8293601E-02  0.2026367E-01 -0.1503910E+07 -0.5114660E+06
  0.1164286E+01  0.4111706E+06  0.1746201E+06 -0.5451974E-02  0.5187988E-02 -0.1482774E+07 -0.5726795E+06
  0.1195238E+01  0.4042055E+06  0.1951477E+06 -0.2859655E-02  0.6103516E-02 -0.1453466E+07 -0.6331929E+06
  0.1226190E+01  0.3961848E+06  0.2161720E+06 -0.9955249E-04 -0.6896973E-02 -0.1422490E+07 -0.6943373E+06
  0.1257143E+01  0.3859050E+06  0.2367518E+06 -0.3884055E-03  0.8361816E-02 -0.1384122E+07 -0.7521400E+06
  0.1288095E+01  0.3747717E+06  0.2568772E+06 -0.1042449E-02  0.8544922E-02 -0.1343395E+07 -0.8067961E+06
  0.1319048E+01  0.3624888E+06  0.2761257E+06 -0.6107922E-02  0.4638672E-02 -0.1300755E+07 -0.8575970E+06
  0.1350000E+01  0.3487515E+06  0.2935583E+06 -0.7143374E-02 -0.9765625E-03 -0.1253853E+07 -0.9007971E+06
  0.1380952E+01  0.3339213E+06  0.3089254E+06 -0.3624226E-02  0.5554199E-02 -0.1203839E+07 -0.9355577E+06
  0.1411905E+01  0.3184549E+06  0.3220105E+06  0.4322895E-03 -0.2441406E-02 -0.1155490E+07 -0.9641178E+06
  0.1442857E+01  0.3032248E+06  0.3333686E+06 -0.5414604E-02  0.3051758E-03 -0.1107157E+07 -0.9849335E+06
  0.1473810E+01  0.2881017E+06  0.3424202E+06 -0.1043612E-01 -0.3784180E-02 -0.1060139E+07 -0.9977991E+06
  0.1504762E+01  0.2737386E+06  0.3495128E+06  0.1135717E-02  0.6835938E-02 -0.1016582E+07 -0.1004162E+07
  0.1535714E+01  0.2596987E+06  0.3542680E+06  0.7074400E-02  0.1647949E-02 -0.9757284E+06 -0.1003849E+07
  0.1566667E+01  0.2461292E+06  0.3564988E+06 -0.3038771E-02  0.4150391E-02 -0.9367229E+06 -0.9949423E+06
  0.1597619E+01  0.2332275E+06  0.3565638E+06  0.4355236E-02  0.2441406E-03 -0.9005266E+06 -0.9793878E+06
  0.1628572E+01  0.2215496E+06  0.3555557E+06 -0.2623441E-02  0.2075195E-02 -0.8696866E+06 -0.9627014E+06
  0.1659524E+01  0.2108075E+06  0.3526887E+06  0.1397591E-02 -0.1159668E-02 -0.8418678E+06 -0.9398760E+06
  0.1690476E+01  0.2009485E+06  0.3481901E+06 -0.2744003E-02  0.6103516E-04 -0.8169459E+06 -0.9123292E+06
  0.1721429E+01  0.1922565E+06  0.3428698E+06 -0.7020310E-02 -0.1770020E-02 -0.7960673E+06 -0.8831244E+06
  0.1752381E+01  0.1846759E+06  0.3370790E+06 -0.3831283E-02  0.2624512E-02 -0.7792083E+06 -0.8542728E+06
  0.1783333E+01  0.1776921E+06  0.3299486E+06  0.5133798E-02  0.1586914E-02 -0.7644736E+06 -0.8222832E+06
  0.1814286E+01  0.1714796E+06  0.3217036E+06 -0.1278374E-02  0.2044678E-02 -0.7519100E+06 -0.7862765E+06
  0.1845238E+01  0.1660240E+06  0.3129568E+06  0.3969254E-02 -0.2410889E-02 -0.7417478E+06 -0.7500098E+06
  0.1876190E+01  0.1613981E+06  0.3046442E+06 -0.1659103E-01 -0.1831055E-03 -0.7344352E+06 -0.7180022E+06
  0.1907143E+01  0.1575489E+06  0.2961834E+06  0.3840415E-02  0.4058838E-02 -0.7293412E+06 -0.6859524E+06
  0.1938095E+01  0.1541956E+06  0.2866231E+06  0.7306223E-02  0.9307861E-03 -0.7253763E+06 -0.6498591E+06
  0.1969048E+01  0.1515148E+06  0.2774885E+06 -0.3781670E-02 -0.3967285E-03 -0.7232873E+06 -0.6165956E+06
  0.2000000E+01  0.1494762E+06  0.2688274E+06  0.2258301E-02  0.8392334E-03 -0.7230704E+06 -0.5854402E+06
Zone t="Motion of body    1 in DoF   2",I=    64,F=POINT
  0.5000000E-01 -0.1251221E-01 -0.9059906E-04  0.1360584E+06  0.2852773E+03  0.1708984E-01  0.2288818E-03
  0.8095238E-01 -0.1244040E-01 -0.1029968E-03  0.1346599E+06  0.4705521E+03  0.8519790E-01  0.5874634E-03
  0.1119048E+00 -0.8863084E-02  0.5722046E-04  0.1336689E+06  0.6686033E+03  0.2072598E-01 -0.5340576E-04
  0.1428571E+00 -0.6088256E-02  0.2288818E-03  0.1330835E+06  0.8854894E+03  0.1623535E-01 -0.1899719E-02
  0.1738095E+00  0.1009588E-01  0.8773804E-04  0.1328150E+06  0.1126963E+04  0.5197185E-01 -0.4577637E-04
  0.2047619E+00 -0.3725983E-03 -0.1602173E-03  0.1323079E+06  0.1403843E+04 -0.1907703E-01  0.1220703E-03
  0.2357143E+00  0.0000000E+00 -0.2899170E-03  0.1321511E+06  0.1726490E+04  0.1967921E-01 -0.4272461E-03
  0.2666667E+00  0.4463196E-02 -0.4806519E-03  0.1319701E+06  0.2100626E+04  0.2655029E-01  0.1953125E-02
  0.2976190E+00 -0.5537109E-02 -0.4882812E-03  0.1318293E+06  0.2552332E+04  0.5906250E-01  0.3173828E-02
  0.3285715E+00 -0.8637801E-02 -0.5798340E-03  0.1316526E+06  0.3080310E+04  0.5647078E-01  0.1525879E-03
  0.3595238E+00 -0.5092999E-02  0.1052856E-02  0.1314355E+06  0.3709611E+04  0.6654853E-01 -0.9735107E-02
  0.3904762E+00  0.6565000E-02 -0.1602173E-02  0.1310185E+06  0.4446644E+04  0.2751048E-01  0.7171631E-02
  0.4214286E+00  0.1419326E-01 -0.6408691E-03  0.1306157E+06  0.5255745E+04  0.2317267E-01  0.2807617E-02
  0.4523810E+00 -0.4047594E-02  0.9460449E-03  0.1296454E+06  0.6196891E+04 -0.1187294E-01 -0.9826660E-02
  0.4833333E+00 -0.1641635E-02 -0.1892090E-02  0.1289722E+06  0.7106147E+04  0.2727640E-01  0.5249023E-02
  0.5142857E+00  0.2373589E-02  0.5187988E-03  0.1274656E+06  0.8074035E+04  0.5032010E-01  0.1068115E-01
  0.5452381E+00 -0.7835954E-02  0.1098633E-02  0.1261658E+06  0.8988479E+04  0.9313592E-01  0.1373291E-01
  0.5761905E+00  0.4343080E-02 -0.3234863E-02  0.1248762E+06  0.9809082E+04 -0.1271145E-01  0.1806641E-01
  0.6071429E+00  0.1507927E-02 -0.4272461E-03  0.1230770E+06  0.1061233E+05  0.5227481E-01 -0.2209473E-01
  0.6380953E+00 -0.6982604E-02 -0.1831055E-02  0.1217910E+06  0.1124195E+05  0.2984346E-01  0.3332520E-01
  0.6690477E+00  0.1733311E-02  0.2075195E-02  0.1203504E+06  0.1176471E+05  0.1824538E-01 -0.1086426E-01
  0.7000000E+00 -0.1421247E-01 -0.3173828E-02  0.1186404E+06  0.1221050E+05  0.3208705E-01  0.2685547E-02
  0.7309524E+00 -0.6095563E-02 -0.3906250E-02  0.1174215E+06  0.1250438E+05  0.6813670E-01  0.5981445E-02
  0.7619048E+00 -0.4285812E-02  0.6286621E-02  0.1164465E+06  0.1268137E+05  0.2691650E-01 -0.5859375E-02
  0.7928572E+00 -0.2886798E-02 -0.2441406E-02  0.1148957E+06  0.1271647E+05  0.2093890E-01 -0.5371094E-02
  0.8238096E+00 -0.4074890E-02  0.7324219E-03  0.1137217E+06  0.1265303E+05  0.4860233E-01 -0.8300781E-02
  0.8547620E+00 -0.3070459E-02  0.4516602E-02  0.1130178E+06  0.1251135E+05  0.4112987E-01 -0.3662109E-03
  0.8857143E+00  0.2549694E-02 -0.4516602E-02  0.1122154E+06  0.1222005E+05 -0.7717994E-02  0.5859375E-02
  0.9166667E+00  0.1131925E-02 -0.6103516E-02  0.1112631E+06  0.1180230E+05 -0.1065341E-02  0.1672363E-01
  0.9476191E+00 -0.1118300E-01  0.7324219E-03  0.1105614E+06  0.1133475E+05  0.7522966E-01 -0.1464844E-02
  0.9785714E+00 -0.1068115E-02  0.3417969E-02  0.1102279E+06  0.1086902E+05  0.3093636E-01 -0.1049805E-01
  0.1009524E+01  0.2349885E-02 -0.1220703E-02  0.1102423E+06  0.1042068E+05  0.4740014E-01 -0.2343750E-01
  0.1040476E+01 -0.9033762E-02  0.1342773E-02  0.1095703E+06  0.9623355E+04  0.6288437E-01 -0.7080078E-02
  0.1071429E+01 -0.1012573E-01 -0.4272461E-02  0.1092009E+06  0.8909617E+04  0.4648438E-01  0.1293945E-01
  0.1102381E+01  0.3460416E-03 -0.0000000E+00  0.1090996E+06  0.8240644E+04  0.3543466E-01 -0.7934570E-03
  0.1133333E+01 -0.4362219E-02 -0.7324219E-03  0.1092399E+06  0.7701103E+04  0.2757353E-01  0.1007080E-01
  0.1164286E+01 -0.3748232E-02 -0.3173828E-02  0.1096461E+06  0.7301402E+04  0.5451974E-01  0.2929688E-01
  0.1195238E+01 -0.4161819E-02 -0.8422852E-02  0.1094316E+06  0.6317239E+04  0.4902266E-01  0.3289795E-01
  0.1226190E+01 -0.4430086E-02  0.8544922E-03  0.1094518E+06  0.5578174E+04  0.2946754E-01  0.2075195E-02
  0.1257143E+01 -0.5874634E-02 -0.1586914E-02  0.1095742E+06  0.4911250E+04  0.4738547E-01 -0.2502441E-02
  0.1288095E+01 -0.4264564E-03  0.3173828E-02  0.1098559E+06  0.4427428E+04  0.1743733E-01 -0.4577637E-03
  0.1319048E+01 -0.5043663E-02 -0.2380371E-02  0.1102379E+06  0.4160183E+04  0.2591240E-01  0.1409912E-01
  0.1350000E+01 -0.2712674E-02  0.5859375E-02  0.1106438E+06  0.3889485E+04  0.3616898E-01 -0.5004883E-02
  0.1380952E+01 -0.3226445E-02  0.1770020E-02  0.1107785E+06  0.3034347E+04  0.3111530E-01 -0.1220703E-03
  0.1411905E+01 -0.8645789E-03 -0.2868652E-02  0.1109737E+06  0.2499125E+04  0.2213322E-01  0.1660156E-01
  0.1442857E+01 -0.1522857E-02  0.6103516E-03  0.1112135E+06  0.2025569E+04  0.2571937E-01 -0.1754761E-02
  0.1473810E+01 -0.6211979E-03 -0.8544922E-03  0.1115130E+06  0.1754130E+04  0.2186616E-01  0.1248169E-01
  0.1504762E+01 -0.7463286E-02 -0.7690430E-02  0.1117955E+06  0.1625197E+04  0.4283277E-01  0.2122498E-01
  0.1535714E+01 -0.1430777E-02 -0.3784180E-02  0.1120986E+06  0.1697472E+04  0.2670785E-01  0.5859375E-02
  0.1566667E+01 -0.1986889E-02  0.1159668E-02  0.1123798E+06  0.1448678E+04  0.1558344E-01  0.1922607E-02
  0.1597619E+01 -0.1910191E-03 -0.1892090E-02  0.1126198E+06  0.9653940E+03  0.2383919E-01  0.1142120E-01
  0.1628572E+01 -0.3223084E-02  0.1342773E-02  0.1128322E+06  0.7227055E+03  0.2038788E-01  0.1005554E-01
  0.1659524E+01 -0.6730505E-02 -0.1678467E-02  0.1130365E+06  0.4959511E+03  0.6002286E-01  0.5153656E-02
  0.1690476E+01 -0.3538320E-02 -0.6500244E-02  0.1132445E+06  0.4475881E+03  0.4159331E-01  0.6408691E-02
  0.1721429E+01 -0.3261962E-02  0.2136230E-03  0.1134166E+06  0.4300098E+03 -0.1134595E-02  0.2777100E-02
  0.1752381E+01  0.3134686E-03 -0.1373291E-02  0.1135651E+06  0.4597616E+03  0.1337466E-01  0.2616882E-02
  0.1783333E+01 -0.7289994E-02 -0.7324219E-03  0.1137048E+06  0.5629102E+03  0.4818925E-01  0.4035950E-02
  0.1814286E+01 -0.3263218E-02 -0.2136230E-02  0.1139037E+06  0.3855333E+03  0.2260704E-01  0.2098083E-02
  0.1845238E+01 -0.6946194E-02 -0.6103516E-04  0.1140679E+06  0.2293597E+03  0.7197580E-01 -0.1544952E-03
  0.1876190E+01 -0.3871240E-02 -0.1449585E-02  0.1141834E+06  0.2048456E+03  0.3227118E-01  0.1174927E-02
  0.1907143E+01 -0.5472591E-02 -0.5798340E-03  0.1142964E+06  0.1462250E+03  0.5427786E-01  0.3366470E-03
  0.1938095E+01 -0.2739834E-02 -0.1464844E-02  0.1143926E+06  0.1812275E+03  0.5341101E-01  0.1491547E-02
  0.1969048E+01 -0.6447438E-02 -0.2136230E-02  0.1144760E+06  0.2349095E+03  0.6844204E-01  0.2773285E-02
  0.2000000E+01 -0.1525879E-02 -0.7019043E-03  0.1145622E+06  0.2236048E+03  0.9765625E-03  0.1260757E-02
Zone t="Motion of body    1 in DoF   3",I=    64,F=POINT
  0.5000000E-01 -0.1285062E+07 -0.3619105E+00  0.1066589E+00  0.1139739E-03  0.6091008E+07  0.1407208E+01
  0.8095238E-01 -0.1289890E+07 -0.1586111E+01 -0.1932032E+00 -0.1811228E-02  0.6103520E+07  0.6149917E+01
  0.1119048E+00 -0.1292897E+07 -0.4440781E+01  0.5631467E-01 -0.8222088E-04  0.6114132E+07  0.1721653E+02
  0.1428571E+00 -0.1294274E+07 -0.9961791E+01 -0.1228332E+00 -0.2641201E-02  0.6117192E+07  0.3857069E+02
  0.1738095E+00 -0.1297020E+07 -0.1974293E+02  0.6847643E-02 -0.1330897E-02  0.6127216E+07  0.7639001E+02
  0.2047619E+00 -0.1298595E+07 -0.3624322E+02 -0.4590411E-01 -0.1591861E-02  0.6131038E+07  0.1400142E+03
  0.2357143E+00 -0.1301610E+07 -0.6343235E+02 -0.2149177E-01 -0.3900528E-02  0.6141378E+07  0.2447398E+03
  0.2666667E+00 -0.1305047E+07 -0.1074448E+03  0.7118225E-01  0.2985477E-02  0.6151279E+07  0.4137241E+03
  0.2976190E+00 -0.1308170E+07 -0.1787884E+03 -0.9679688E-01 -0.7011533E-02  0.6161292E+07  0.6871021E+03
  0.3285715E+00 -0.1313018E+07 -0.2931786E+03 -0.1224153E+00 -0.7583380E-02  0.6177520E+07  0.1124432E+04
  0.3595238E+00 -0.1317518E+07 -0.4768661E+03 -0.5585323E-01 -0.1244593E-01  0.6191488E+07  0.1824594E+04
  0.3904762E+00 -0.1322664E+07 -0.7693007E+03 -0.1195768E+00 -0.1606321E-01  0.6208176E+07  0.2935531E+04
  0.4214286E+00 -0.1329560E+07 -0.1224235E+04 -0.1622087E-01 -0.1216984E-01  0.6230095E+07  0.4657555E+04
  0.4523810E+00 -0.1337216E+07 -0.1930464E+04 -0.2253161E-01 -0.1380634E-01  0.6256442E+07  0.7326217E+04
  0.4833333E+00 -0.1346030E+07 -0.2967568E+04  0.4003064E-01 -0.2431870E-02  0.6284044E+07  0.1121971E+05
  0.5142857E+00 -0.1354384E+07 -0.4484791E+04 -0.4937066E-01 -0.1417160E-01  0.6310278E+07  0.1689506E+05
  0.5452381E+00 -0.1364358E+07 -0.6613315E+04 -0.1560474E+00 -0.4898453E-01  0.6342154E+07  0.2481759E+05
  0.5761905E+00 -0.1375425E+07 -0.9512514E+04 -0.1362244E+00 -0.3874969E-01  0.6379170E+07  0.3556659E+05
  0.6071429E+00 -0.1387370E+07 -0.1343342E+05 -0.5468749E-01 -0.2739716E-01  0.6416617E+07  0.5001257E+05
  0.6380953E+00 -0.1400582E+07 -0.1854928E+05  0.2104346E-01 -0.2746582E-02  0.6456865E+07  0.6871466E+05
  0.6690477E+00 -0.1412556E+07 -0.2513409E+05 -0.7261663E-01 -0.1669312E-01  0.6494406E+07  0.9265811E+05
  0.7000000E+00 -0.1427510E+07 -0.3354593E+05 -0.8265904E-01 -0.3488159E-01  0.6542828E+07  0.1231010E+06
  0.7309524E+00 -0.1442474E+07 -0.4404957E+05 -0.1202412E+00 -0.5151367E-01  0.6588556E+07  0.1607851E+06
  0.7619048E+00 -0.1457258E+07 -0.5701808E+05 -0.1518860E+00 -0.8062744E-01  0.6632692E+07  0.2069201E+06
  0.7928572E+00 -0.1471335E+07 -0.7283508E+05 -0.1539625E-02  0.2105713E-02  0.6672922E+07  0.2627230E+06
  0.8238096E+00 -0.1484992E+07 -0.9189898E+05 -0.1084662E+00 -0.8117676E-01  0.6711273E+07  0.3293803E+06
  0.8547620E+00 -0.1500155E+07 -0.1146596E+06 -0.2256430E-01 -0.6604004E-01  0.6752710E+07  0.4082938E+06
  0.8857143E+00 -0.1511707E+07 -0.1413013E+06 -0.4355154E-01 -0.3637695E-01  0.6782668E+07  0.4998529E+06
  0.9166667E+00 -0.1523200E+07 -0.1722583E+06  0.5593039E-01  0.4620361E-01  0.6811340E+07  0.6052712E+06
  0.9476191E+00 -0.1530844E+07 -0.2075773E+06 -0.1009932E+00 -0.5041504E-01  0.6823638E+07  0.7237586E+06
  0.9785714E+00 -0.1537306E+07 -0.2476944E+06 -0.2993841E-01 -0.1292725E+00  0.6828562E+07  0.8565519E+06
  0.1009524E+01 -0.1540079E+07 -0.2924168E+06 -0.5804098E-02 -0.6921387E-01  0.6824516E+07  0.1003118E+07
  0.1040476E+01 -0.1536406E+07 -0.3413220E+06  0.4739792E-01  0.2502441E-01  0.6794633E+07  0.1160615E+07
  0.1071429E+01 -0.1532033E+07 -0.3948842E+06 -0.3030599E-01 -0.9277344E-02  0.6765338E+07  0.1331519E+07
  0.1102381E+01 -0.1520081E+07 -0.4516677E+06  0.3255560E-01 -0.5432129E-01  0.6710832E+07  0.1509268E+07
  0.1133333E+01 -0.1505682E+07 -0.5116802E+06 -0.6053251E-01 -0.1733398E-01  0.6645512E+07  0.1694057E+07
  0.1164286E+01 -0.1484370E+07 -0.5727483E+06 -0.3564753E-01 -0.4443359E-01  0.6561926E+07  0.1878226E+07
  0.1195238E+01 -0.1454828E+07 -0.6332671E+06 -0.4217991E-01 -0.4663086E-01  0.6447108E+07  0.2054232E+07
  0.1226190E+01 -0.1424135E+07 -0.6943240E+06 -0.2458947E-01 -0.8056641E-02  0.6334928E+07  0.2229611E+07
  0.1257143E+01 -0.1385656E+07 -0.7519509E+06  0.4369562E-02 -0.3784180E-01  0.6198308E+07  0.2388362E+07
  0.1288095E+01 -0.1344954E+07 -0.8067023E+06  0.4548868E-02 -0.5859375E-02  0.6056644E+07  0.2533288E+07
  0.1319048E+01 -0.1302366E+07 -0.8572345E+06  0.1758341E-02  0.3710938E-01  0.5912540E+07  0.2661585E+07
  0.1350000E+01 -0.1255316E+07 -0.9002282E+06  0.5859375E-01  0.1171875E-01  0.5757878E+07  0.2761403E+07
  0.1380952E+01 -0.1205129E+07 -0.9349996E+06 -0.8132408E-02  0.7080078E-02  0.5593786E+07  0.2829524E+07
  0.1411905E+01 -0.1157385E+07 -0.9634106E+06 -0.6484342E-02  0.2197266E-02  0.5446798E+07  0.2882539E+07
  0.1442857E+01 -0.1109153E+07 -0.9841415E+06  0.1708984E-01 -0.8056641E-02  0.5298076E+07  0.2905026E+07
  0.1473810E+01 -0.1062049E+07 -0.9969639E+06  0.6025619E-01  0.1025391E-01  0.5158656E+07  0.2903942E+07
  0.1504762E+01 -0.1018581E+07 -0.1003118E+07 -0.3881720E-01 -0.2294922E-01  0.5029457E+07  0.2878865E+07
  0.1535714E+01 -0.9778829E+06 -0.1002642E+07 -0.6537858E-02 -0.5981445E-02  0.4916374E+07  0.2838150E+07
  0.1566667E+01 -0.9387584E+06 -0.9933892E+06 -0.9369546E-02 -0.1953125E-02  0.4808312E+07  0.2768000E+07
  0.1597619E+01 -0.9025082E+06 -0.9778162E+06 -0.2746855E-01 -0.2929688E-02  0.4710352E+07  0.2679094E+07
  0.1628572E+01 -0.8721234E+06 -0.9614606E+06  0.4094441E-02  0.3173828E-02  0.4634745E+07  0.2596917E+07
  0.1659524E+01 -0.8445032E+06 -0.9386605E+06  0.2313381E-01  0.3662109E-02  0.4567126E+07  0.2492838E+07
  0.1690476E+01 -0.8194900E+06 -0.9111658E+06  0.2241237E-01  0.2075195E-02  0.4510313E+07  0.2381561E+07
  0.1721429E+01 -0.7987029E+06 -0.8819033E+06  0.1019363E-01 -0.6591797E-02  0.4464925E+07  0.2263603E+07
  0.1752381E+01 -0.7821031E+06 -0.8529909E+06  0.5702517E-01 -0.4028320E-02  0.4433323E+07  0.2151809E+07
  0.1783333E+01 -0.7674678E+06 -0.8210124E+06 -0.3319856E-01 -0.8117676E-02  0.4409857E+07  0.2038403E+07
  0.1814286E+01 -0.7548270E+06 -0.7845951E+06 -0.1328836E-01 -0.6774902E-02  0.4390410E+07  0.1905006E+07
  0.1845238E+01 -0.7445984E+06 -0.7483350E+06 -0.4505103E-01 -0.6713867E-03  0.4377879E+07  0.1776831E+07
  0.1876190E+01 -0.7375096E+06 -0.7170207E+06  0.1049464E+00  0.2441406E-03  0.4374964E+07  0.1675247E+07
  0.1907143E+01 -0.7326481E+06 -0.6853401E+06  0.5651810E-01 -0.3906250E-02  0.4377782E+07  0.1570170E+07
  0.1938095E+01 -0.7285922E+06 -0.6492230E+06  0.3810573E-02  0.1129150E-02  0.4382138E+07  0.1455027E+07
  0.1969048E+01 -0.7265040E+06 -0.6158988E+06  0.1766846E-02  0.3082275E-02  0.4391286E+07  0.1353477E+07
  0.2000000E+01 -0.7265691E+06 -0.5847556E+06 -0.7641602E-01 -0.3417969E-02  0.4406070E+07  0.1253266E+07
