VARIABLES="w (rad/s)"
"abs(F   1   1)" "angle(F   1   1)"
"abs(F   1   2)" "angle(F   1   2)"
"abs(F   1   3)" "angle(F   1   3)"
Zone t="Diffraction force - beta =   0.000 deg",I=    64,F=POINT
  0.5000000E-01  0.3710735E+04 -0.1570803E+01  0.1661624E+06 -0.1127487E-04  0.1289806E+05  0.1570788E+01
  0.8095238E-01  0.6062375E+04 -0.1570786E+01  0.1655628E+06 -0.3027810E-04  0.2104432E+05  0.1570800E+01
  0.1119048E+00  0.8461686E+04 -0.1570800E+01  0.1646813E+06 -0.5996645E-04  0.2934272E+05  0.1570807E+01
  0.1428571E+00  0.1092530E+05 -0.1570791E+01  0.1635201E+06 -0.1025083E-03  0.3785037E+05  0.1570806E+01
  0.1738095E+00  0.1348633E+05 -0.1570781E+01  0.1620808E+06 -0.1609729E-03  0.4668104E+05  0.1570806E+01
  0.2047619E+00  0.1617538E+05 -0.1570775E+01  0.1603652E+06 -0.2401691E-03  0.5589692E+05  0.1570820E+01
  0.2357143E+00  0.1901270E+05 -0.1570764E+01  0.1583798E+06 -0.3467793E-03  0.6562324E+05  0.1570826E+01
  0.2666667E+00  0.2204554E+05 -0.1570751E+01  0.1561273E+06 -0.4884479E-03  0.7596757E+05  0.1570843E+01
  0.2976190E+00  0.2532252E+05 -0.1570728E+01  0.1536168E+06 -0.6797926E-03  0.8706602E+05  0.1570863E+01
  0.3285715E+00  0.2887166E+05 -0.1570697E+01  0.1508560E+06 -0.9330209E-03  0.9906827E+05  0.1570895E+01
  0.3595238E+00  0.3275643E+05 -0.1570645E+01  0.1478622E+06 -0.1271111E-02  0.1121454E+06  0.1570948E+01
  0.3904762E+00  0.3701373E+05 -0.1570572E+01  0.1446434E+06 -0.1715885E-02  0.1263794E+06  0.1571022E+01
  0.4214286E+00  0.4169118E+05 -0.1570464E+01  0.1412351E+06 -0.2280524E-02  0.1419486E+06  0.1571127E+01
  0.4523810E+00  0.4681956E+05 -0.1570309E+01  0.1376337E+06 -0.3012331E-02  0.1589374E+06  0.1571283E+01
  0.4833333E+00  0.5235480E+05 -0.1570095E+01  0.1339018E+06 -0.3874765E-02  0.1771677E+06  0.1571498E+01
  0.5142857E+00  0.5832883E+05 -0.1569797E+01  0.1300242E+06 -0.4928967E-02  0.1966189E+06  0.1571795E+01
  0.5452381E+00  0.6463991E+05 -0.1569404E+01  0.1260395E+06 -0.6146382E-02  0.2171028E+06  0.1572190E+01
  0.5761905E+00  0.7129024E+05 -0.1568894E+01  0.1219678E+06 -0.7526215E-02  0.2385585E+06  0.1572699E+01
  0.6071429E+00  0.7826457E+05 -0.1568239E+01  0.1177984E+06 -0.9124864E-02  0.2607783E+06  0.1573353E+01
  0.6380953E+00  0.8542912E+05 -0.1567429E+01  0.1135959E+06 -0.1087015E-01  0.2833747E+06  0.1574164E+01
  0.6690477E+00  0.9282536E+05 -0.1566428E+01  0.1093380E+06 -0.1282380E-01  0.3064499E+06  0.1575165E+01
  0.7000000E+00  0.1004417E+06 -0.1565204E+01  0.1050300E+06 -0.1501673E-01  0.3299530E+06  0.1576388E+01
  0.7309524E+00  0.1081376E+06 -0.1563736E+01  0.1007370E+06 -0.1739770E-01  0.3535126E+06  0.1577857E+01
  0.7619048E+00  0.1160062E+06 -0.1561986E+01  0.9644102E+05 -0.2001934E-01  0.3772056E+06  0.1579606E+01
  0.7928572E+00  0.1240503E+06 -0.1559920E+01  0.9214301E+05 -0.2290346E-01  0.4009241E+06  0.1581673E+01
  0.8238096E+00  0.1321147E+06 -0.1557500E+01  0.8787339E+05 -0.2604822E-01  0.4244634E+06  0.1584092E+01
  0.8547620E+00  0.1402298E+06 -0.1554695E+01  0.8367673E+05 -0.2943056E-01  0.4478016E+06  0.1586898E+01
  0.8857143E+00  0.1484034E+06 -0.1551463E+01  0.7952452E+05 -0.3312008E-01  0.4708649E+06  0.1590128E+01
  0.9166667E+00  0.1566788E+06 -0.1547772E+01  0.7541644E+05 -0.3714060E-01  0.4937830E+06  0.1593819E+01
  0.9476191E+00  0.1648752E+06 -0.1543589E+01  0.7138745E+05 -0.4148598E-01  0.5160608E+06  0.1598002E+01
  0.9785714E+00  0.1730004E+06 -0.1538878E+01  0.6748796E+05 -0.4605171E-01  0.5375384E+06  0.1602711E+01
  0.1009524E+01  0.1811221E+06 -0.1533603E+01  0.6367540E+05 -0.5100160E-01  0.5584804E+06  0.1607985E+01
  0.1040476E+01  0.1891688E+06 -0.1527734E+01  0.5995585E+05 -0.5637037E-01  0.5786007E+06  0.1613852E+01
  0.1071429E+01  0.1971535E+06 -0.1521240E+01  0.5632910E+05 -0.6222116E-01  0.5980768E+06  0.1620343E+01
  0.1102381E+01  0.2048615E+06 -0.1514099E+01  0.5284555E+05 -0.6831052E-01  0.6162594E+06  0.1627480E+01
  0.1133333E+01  0.2123985E+06 -0.1506279E+01  0.4950375E+05 -0.7471422E-01  0.6335298E+06  0.1635299E+01
  0.1164286E+01  0.2197280E+06 -0.1497782E+01  0.4628301E+05 -0.8160539E-01  0.6496811E+06  0.1643793E+01
  0.1195238E+01  0.2268101E+06 -0.1488637E+01  0.4318682E+05 -0.8903706E-01  0.6642866E+06  0.1652930E+01
  0.1226190E+01  0.2337016E+06 -0.1478823E+01  0.4020582E+05 -0.9712286E-01  0.6777476E+06  0.1662732E+01
  0.1257143E+01  0.2400263E+06 -0.1468365E+01  0.3736107E+05 -0.1058578E+00  0.6892881E+06  0.1673183E+01
  0.1288095E+01  0.2460778E+06 -0.1457219E+01  0.3468170E+05 -0.1142842E+00  0.6991784E+06  0.1684310E+01
  0.1319048E+01  0.2517184E+06 -0.1445422E+01  0.3214369E+05 -0.1233257E+00  0.7077832E+06  0.1696100E+01
  0.1350000E+01  0.2568179E+06 -0.1433054E+01  0.2973095E+05 -0.1330336E+00  0.7142725E+06  0.1708451E+01
  0.1380952E+01  0.2614856E+06 -0.1420121E+01  0.2744593E+05 -0.1434133E+00  0.7190482E+06  0.1721367E+01
  0.1411905E+01  0.2653452E+06 -0.1406840E+01  0.2527992E+05 -0.1546772E+00  0.7218379E+06  0.1734616E+01
  0.1442857E+01  0.2688268E+06 -0.1392972E+01  0.2324302E+05 -0.1668410E+00  0.7230243E+06  0.1748475E+01
  0.1473810E+01  0.2715511E+06 -0.1378914E+01  0.2134368E+05 -0.1785082E+00  0.7215732E+06  0.1762469E+01
  0.1504762E+01  0.2737283E+06 -0.1364645E+01  0.1956986E+05 -0.1906290E+00  0.7184290E+06  0.1776712E+01
  0.1535714E+01  0.2753846E+06 -0.1350191E+01  0.1791647E+05 -0.2032875E+00  0.7138649E+06  0.1791150E+01
  0.1566667E+01  0.2761748E+06 -0.1335927E+01  0.1637217E+05 -0.2166902E+00  0.7063981E+06  0.1805333E+01
  0.1597619E+01  0.2764413E+06 -0.1321687E+01  0.1493297E+05 -0.2308634E+00  0.6975611E+06  0.1819513E+01
  0.1628572E+01  0.2761616E+06 -0.1307632E+01  0.1358681E+05 -0.2464805E+00  0.6873652E+06  0.1833478E+01
  0.1659524E+01  0.2750600E+06 -0.1293893E+01  0.1234853E+05 -0.2624612E+00  0.6753448E+06  0.1847185E+01
  0.1690476E+01  0.2732458E+06 -0.1280767E+01  0.1119914E+05 -0.2786139E+00  0.6614083E+06  0.1860179E+01
  0.1721429E+01  0.2708158E+06 -0.1268378E+01  0.1013356E+05 -0.2955014E+00  0.6459477E+06  0.1872425E+01
  0.1752381E+01  0.2679616E+06 -0.1256546E+01  0.9169588E+04 -0.3112374E+00  0.6299056E+06  0.1884241E+01
  0.1783333E+01  0.2645869E+06 -0.1245585E+01  0.8278872E+04 -0.3283644E+00  0.6127596E+06  0.1895142E+01
  0.1814286E+01  0.2606385E+06 -0.1235785E+01  0.7461753E+04 -0.3456427E+00  0.5941730E+06  0.1904720E+01
  0.1845238E+01  0.2563602E+06 -0.1226872E+01  0.6710578E+04 -0.3641249E+00  0.5752387E+06  0.1913461E+01
  0.1876190E+01  0.2517965E+06 -0.1218949E+01  0.6019289E+04 -0.3854529E+00  0.5560948E+06  0.1921199E+01
  0.1907143E+01  0.2467834E+06 -0.1212245E+01  0.5395792E+04 -0.4054152E+00  0.5364596E+06  0.1927856E+01
  0.1938095E+01  0.2414844E+06 -0.1206927E+01  0.4824404E+04 -0.4268076E+00  0.5164403E+06  0.1933039E+01
  0.1969048E+01  0.2358553E+06 -0.1203261E+01  0.4298349E+04 -0.4513384E+00  0.4958787E+06  0.1936247E+01
  0.2000000E+01  0.2301239E+06 -0.1200692E+01  0.3825512E+04 -0.4740312E+00  0.4757288E+06  0.1938645E+01
