VARIABLES="w (rad/s)"
"abs(F   1   1)" "angle(F   1   1)"
"abs(F   1   2)" "angle(F   1   2)"
"abs(F   1   3)" "angle(F   1   3)"
Zone t="Diffraction force - beta =   0.000 deg",I=    64,F=POINT
  0.5000000E-01  0.2112927E+04 -0.1570794E+01  0.1495069E+06 -0.1023196E-04  0.4114894E+04  0.1570803E+01
  0.8095238E-01  0.3458898E+04 -0.1570791E+01  0.1491482E+06 -0.2750870E-04  0.6737686E+04  0.1570793E+01
  0.1119048E+00  0.4836394E+04 -0.1570796E+01  0.1486204E+06 -0.5457165E-04  0.9413251E+04  0.1570794E+01
  0.1428571E+00  0.6258611E+04 -0.1570792E+01  0.1479248E+06 -0.9348265E-04  0.1217366E+05  0.1570798E+01
  0.1738095E+00  0.7734773E+04 -0.1570790E+01  0.1470620E+06 -0.1472445E-03  0.1503596E+05  0.1570806E+01
  0.2047619E+00  0.9292525E+04 -0.1570787E+01  0.1460312E+06 -0.2203491E-03  0.1805534E+05  0.1570807E+01
  0.2357143E+00  0.1095331E+05 -0.1570781E+01  0.1448343E+06 -0.3193140E-03  0.2125930E+05  0.1570815E+01
  0.2666667E+00  0.1273034E+05 -0.1570771E+01  0.1434743E+06 -0.4518463E-03  0.2469161E+05  0.1570824E+01
  0.2976190E+00  0.1465620E+05 -0.1570758E+01  0.1419491E+06 -0.6316993E-03  0.2840741E+05  0.1570835E+01
  0.3285715E+00  0.1676368E+05 -0.1570739E+01  0.1402690E+06 -0.8718749E-03  0.3245013E+05  0.1570855E+01
  0.3595238E+00  0.1909155E+05 -0.1570709E+01  0.1384313E+06 -0.1194327E-02  0.3690073E+05  0.1570882E+01
  0.3904762E+00  0.2163836E+05 -0.1570666E+01  0.1364473E+06 -0.1622051E-02  0.4178616E+05  0.1570927E+01
  0.4214286E+00  0.2448010E+05 -0.1570602E+01  0.1343264E+06 -0.2170437E-02  0.4719135E+05  0.1570990E+01
  0.4523810E+00  0.2759594E+05 -0.1570508E+01  0.1320689E+06 -0.2882443E-02  0.5311003E+05  0.1571085E+01
  0.4833333E+00  0.3099762E+05 -0.1570378E+01  0.1297048E+06 -0.3733805E-02  0.5957661E+05  0.1571216E+01
  0.5142857E+00  0.3470395E+05 -0.1570195E+01  0.1272092E+06 -0.4777044E-02  0.6659423E+05  0.1571398E+01
  0.5452381E+00  0.3866101E+05 -0.1569950E+01  0.1246454E+06 -0.5993684E-02  0.7403968E+05  0.1571643E+01
  0.5761905E+00  0.4286743E+05 -0.1569629E+01  0.1219755E+06 -0.7383656E-02  0.8190895E+05  0.1571962E+01
  0.6071429E+00  0.4729480E+05 -0.1569213E+01  0.1192153E+06 -0.8994417E-02  0.9020048E+05  0.1572380E+01
  0.6380953E+00  0.5192720E+05 -0.1568690E+01  0.1164023E+06 -0.1077673E-01  0.9885625E+05  0.1572903E+01
  0.6690477E+00  0.5677972E+05 -0.1568034E+01  0.1135030E+06 -0.1277592E-01  0.1078196E+06  0.1573558E+01
  0.7000000E+00  0.6180123E+05 -0.1567221E+01  0.1105408E+06 -0.1501570E-01  0.1170498E+06  0.1574372E+01
  0.7309524E+00  0.6699777E+05 -0.1566231E+01  0.1075571E+06 -0.1747528E-01  0.1265884E+06  0.1575362E+01
  0.7619048E+00  0.7234997E+05 -0.1565032E+01  0.1045143E+06 -0.2018166E-01  0.1363256E+06  0.1576560E+01
  0.7928572E+00  0.7790091E+05 -0.1563595E+01  0.1014090E+06 -0.2314987E-01  0.1464162E+06  0.1577999E+01
  0.8238096E+00  0.8354385E+05 -0.1561885E+01  0.9833043E+05 -0.2637740E-01  0.1565679E+06  0.1579708E+01
  0.8547620E+00  0.8937938E+05 -0.1559869E+01  0.9522880E+05 -0.2988348E-01  0.1669944E+06  0.1581724E+01
  0.8857143E+00  0.9537398E+05 -0.1557507E+01  0.9209958E+05 -0.3367314E-01  0.1775645E+06  0.1584085E+01
  0.9166667E+00  0.1015085E+06 -0.1554761E+01  0.8893378E+05 -0.3776120E-01  0.1883800E+06  0.1586831E+01
  0.9476191E+00  0.1076894E+06 -0.1551591E+01  0.8584009E+05 -0.4211839E-01  0.1991576E+06  0.1590001E+01
  0.9785714E+00  0.1140451E+06 -0.1547951E+01  0.8275343E+05 -0.4680891E-01  0.2102496E+06  0.1593642E+01
  0.1009524E+01  0.1204692E+06 -0.1543803E+01  0.7966992E+05 -0.5181909E-01  0.2212570E+06  0.1597790E+01
  0.1040476E+01  0.1270758E+06 -0.1539099E+01  0.7658916E+05 -0.5718182E-01  0.2325094E+06  0.1602495E+01
  0.1071429E+01  0.1336972E+06 -0.1533792E+01  0.7353866E+05 -0.6286668E-01  0.2436263E+06  0.1607801E+01
  0.1102381E+01  0.1403599E+06 -0.1527837E+01  0.7058319E+05 -0.6882829E-01  0.2546438E+06  0.1613755E+01
  0.1133333E+01  0.1471267E+06 -0.1521184E+01  0.6765898E+05 -0.7517872E-01  0.2658040E+06  0.1620408E+01
  0.1164286E+01  0.1538767E+06 -0.1513801E+01  0.6476219E+05 -0.8192345E-01  0.2767226E+06  0.1627792E+01
  0.1195238E+01  0.1607473E+06 -0.1505646E+01  0.6189934E+05 -0.8911211E-01  0.2877571E+06  0.1635948E+01
  0.1226190E+01  0.1674912E+06 -0.1496677E+01  0.5906199E+05 -0.9680091E-01  0.2985332E+06  0.1644918E+01
  0.1257143E+01  0.1739669E+06 -0.1486950E+01  0.5637645E+05 -0.1046074E+00  0.3085854E+06  0.1654642E+01
  0.1288095E+01  0.1807159E+06 -0.1476255E+01  0.5373841E+05 -0.1128464E+00  0.3189978E+06  0.1665339E+01
  0.1319048E+01  0.1871902E+06 -0.1464757E+01  0.5116039E+05 -0.1215830E+00  0.3287306E+06  0.1676837E+01
  0.1350000E+01  0.1935812E+06 -0.1452384E+01  0.4863348E+05 -0.1308322E+00  0.3380034E+06  0.1689207E+01
  0.1380952E+01  0.1999024E+06 -0.1439110E+01  0.4616192E+05 -0.1406565E+00  0.3470412E+06  0.1702476E+01
  0.1411905E+01  0.2055955E+06 -0.1424944E+01  0.4374366E+05 -0.1511718E+00  0.3551954E+06  0.1716646E+01
  0.1442857E+01  0.2111196E+06 -0.1410028E+01  0.4146138E+05 -0.1615202E+00  0.3625349E+06  0.1731552E+01
  0.1473810E+01  0.2163491E+06 -0.1394292E+01  0.3926168E+05 -0.1724329E+00  0.3693316E+06  0.1747292E+01
  0.1504762E+01  0.2212870E+06 -0.1377821E+01  0.3713450E+05 -0.1839278E+00  0.3755715E+06  0.1763770E+01
  0.1535714E+01  0.2256352E+06 -0.1360790E+01  0.3507225E+05 -0.1961401E+00  0.3805034E+06  0.1780796E+01
  0.1566667E+01  0.2296075E+06 -0.1343242E+01  0.3307929E+05 -0.2090827E+00  0.3846866E+06  0.1798341E+01
  0.1597619E+01  0.2331207E+06 -0.1325278E+01  0.3115685E+05 -0.2228347E+00  0.3880726E+06  0.1816305E+01
  0.1628572E+01  0.2358999E+06 -0.1307103E+01  0.2929832E+05 -0.2375784E+00  0.3901470E+06  0.1834489E+01
  0.1659524E+01  0.2380249E+06 -0.1288908E+01  0.2755238E+05 -0.2518759E+00  0.3909007E+06  0.1852652E+01
  0.1690476E+01  0.2396089E+06 -0.1270706E+01  0.2589781E+05 -0.2664407E+00  0.3905997E+06  0.1870830E+01
  0.1721429E+01  0.2406710E+06 -0.1252562E+01  0.2432080E+05 -0.2816611E+00  0.3895408E+06  0.1888989E+01
  0.1752381E+01  0.2410419E+06 -0.1234843E+01  0.2281091E+05 -0.2977232E+00  0.3871823E+06  0.1906685E+01
  0.1783333E+01  0.2407628E+06 -0.1217658E+01  0.2136375E+05 -0.3148556E+00  0.3836748E+06  0.1923854E+01
  0.1814286E+01  0.2399571E+06 -0.1201105E+01  0.1998871E+05 -0.3328095E+00  0.3793512E+06  0.1940382E+01
  0.1845238E+01  0.2386328E+06 -0.1185292E+01  0.1868054E+05 -0.3517667E+00  0.3743008E+06  0.1956196E+01
  0.1876190E+01  0.2366017E+06 -0.1170554E+01  0.1743535E+05 -0.3719886E+00  0.3681498E+06  0.1970949E+01
  0.1907143E+01  0.2340375E+06 -0.1157017E+01  0.1626233E+05 -0.3921129E+00  0.3610926E+06  0.1984428E+01
  0.1938095E+01  0.2309690E+06 -0.1144785E+01  0.1516473E+05 -0.4119252E+00  0.3531817E+06  0.1996540E+01
  0.1969048E+01  0.2275832E+06 -0.1133609E+01  0.1414046E+05 -0.4320256E+00  0.3449846E+06  0.2007740E+01
  0.2000000E+01  0.2238821E+06 -0.1123701E+01  0.1317484E+05 -0.4527460E+00  0.3364637E+06  0.2017731E+01
