VARIABLES="w (rad/s)"
"A   1   1" "B   1   1"
"A   1   2" "B   1   2"
"A   1   3" "B   1   3"
Zone t="Motion of body    1 in DoF   1",I=    64,F=POINT
  0.5000000E-01  0.2009083E+06  0.1696733E-01  0.3620148E-01  0.9221093E-04 -0.4913807E+06 -0.3687482E-01
  0.8095238E-01  0.2024658E+06  0.7406819E-01  0.6408691E-02 -0.3049866E-04 -0.4939871E+06 -0.1602425E+00
  0.1119048E+00  0.2027984E+06  0.2078522E+00 -0.7158645E-03  0.3236788E-04 -0.4945302E+06 -0.4479353E+00
  0.1428571E+00  0.2032829E+06  0.4676430E+00 -0.9613037E-02 -0.1924372E-03 -0.4950330E+06 -0.1006581E+01
  0.1738095E+00  0.2033774E+06  0.9295634E+00  0.6013635E-02  0.1331738E-03 -0.4953029E+06 -0.1998855E+01
  0.2047619E+00  0.2037821E+06  0.1713872E+01  0.9463998E-02  0.1716334E-03 -0.4957890E+06 -0.3680039E+01
  0.2357143E+00  0.2040871E+06  0.3013700E+01  0.1443574E-01  0.1600021E-03 -0.4962998E+06 -0.6459017E+01
  0.2666667E+00  0.2044141E+06  0.5131505E+01 -0.1424789E-01 -0.1944220E-03 -0.4968498E+06 -0.1097668E+02
  0.2976190E+00  0.2049459E+06  0.8593631E+01  0.1763672E-01  0.3480017E-03 -0.4975705E+06 -0.1833791E+02
  0.3285715E+00  0.2053447E+06  0.1418549E+02  0.2712084E-01  0.1034115E-02 -0.4983281E+06 -0.3020149E+02
  0.3595238E+00  0.2059087E+06  0.2324314E+02 -0.1655225E-02 -0.1619533E-03 -0.4991314E+06 -0.4933569E+02
  0.3904762E+00  0.2065047E+06  0.3779453E+02  0.9105030E-02  0.3009662E-03 -0.4999603E+06 -0.7996507E+02
  0.4214286E+00  0.2073379E+06  0.6068811E+02  0.1969677E-01  0.2906173E-03 -0.5011589E+06 -0.1279260E+03
  0.4523810E+00  0.2079400E+06  0.9651177E+02 -0.2320621E-01 -0.1772404E-02 -0.5023684E+06 -0.2028461E+03
  0.4833333E+00  0.2088432E+06  0.1497676E+03 -0.1262796E-03  0.3315210E-03 -0.5037773E+06 -0.3135163E+03
  0.5142857E+00  0.2100508E+06  0.2288158E+03 -0.9524028E-02 -0.9097457E-03 -0.5054592E+06 -0.4767867E+03
  0.5452381E+00  0.2110877E+06  0.3410109E+03 -0.8143796E-02 -0.1200914E-02 -0.5072516E+06 -0.7076500E+03
  0.5761905E+00  0.2121343E+06  0.4960913E+03 -0.2505215E-01 -0.2978563E-02 -0.5090184E+06 -0.1024924E+04
  0.6071429E+00  0.2133715E+06  0.7088034E+03 -0.3362678E-01 -0.4191399E-02 -0.5110488E+06 -0.1457514E+04
  0.6380953E+00  0.2148836E+06  0.9910194E+03 -0.1406086E-01 -0.1740932E-02 -0.5133181E+06 -0.2026728E+04
  0.6690477E+00  0.2165543E+06  0.1362214E+04 -0.1970501E-01 -0.1765728E-02 -0.5158347E+06 -0.2769904E+04
  0.7000000E+00  0.2180280E+06  0.1843069E+04 -0.4490444E-02 -0.7438660E-04 -0.5183744E+06 -0.3728230E+04
  0.7309524E+00  0.2196886E+06  0.2455939E+04  0.9769601E-02  0.4441738E-02 -0.5212378E+06 -0.4940846E+04
  0.7619048E+00  0.2215529E+06  0.3230556E+04  0.1534080E-01  0.7873535E-02 -0.5240318E+06 -0.6457697E+04
  0.7928572E+00  0.2237020E+06  0.4200989E+04  0.1258644E-01  0.5152702E-02 -0.5272431E+06 -0.8341034E+04
  0.8238096E+00  0.2257464E+06  0.5398924E+04 -0.1563276E-01 -0.5664825E-03 -0.5302822E+06 -0.1064636E+05
  0.8547620E+00  0.2278770E+06  0.6864888E+04 -0.6355137E-02 -0.5348206E-02 -0.5335324E+06 -0.1344395E+05
  0.8857143E+00  0.2300926E+06  0.8643032E+04  0.2391200E-01  0.8800507E-02 -0.5368404E+06 -0.1680447E+05
  0.9166667E+00  0.2323319E+06  0.1077917E+05  0.1694558E-01  0.8163452E-02 -0.5402889E+06 -0.2080757E+05
  0.9476191E+00  0.2344791E+06  0.1331742E+05  0.1700396E-01  0.9262085E-02 -0.5433104E+06 -0.2550916E+05
  0.9785714E+00  0.2368435E+06  0.1632346E+05  0.9168639E-02  0.6069183E-02 -0.5464896E+06 -0.3101079E+05
  0.1009524E+01  0.2391456E+06  0.1984172E+05  0.8041094E-02  0.1082611E-01 -0.5493040E+06 -0.3736590E+05
  0.1040476E+01  0.2414728E+06  0.2393390E+05 -0.1296403E-01 -0.9025574E-02 -0.5521438E+06 -0.4467483E+05
  0.1071429E+01  0.2434303E+06  0.2862599E+05 -0.1013997E-01 -0.9361267E-02 -0.5544183E+06 -0.5296491E+05
  0.1102381E+01  0.2452005E+06  0.3397593E+05 -0.3820300E-02 -0.1777649E-02 -0.5563742E+06 -0.6230705E+05
  0.1133333E+01  0.2466830E+06  0.4000673E+05  0.6031710E-02  0.1405334E-01 -0.5576621E+06 -0.7268908E+05
  0.1164286E+01  0.2478571E+06  0.4673949E+05  0.8911882E-02  0.4730225E-03 -0.5582019E+06 -0.8409556E+05
  0.1195238E+01  0.2488260E+06  0.5420232E+05  0.9344945E-02  0.9460449E-02 -0.5581727E+06 -0.9652991E+05
  0.1226190E+01  0.2492598E+06  0.6236068E+05  0.1184675E-01  0.7171631E-03 -0.5572202E+06 -0.1099132E+06
  0.1257143E+01  0.2488809E+06  0.7111803E+05  0.7622459E-02  0.1904297E-01 -0.5548378E+06 -0.1240213E+06
  0.1288095E+01  0.2485435E+06  0.8063772E+05 -0.5449165E-02  0.1855469E-01 -0.5523846E+06 -0.1390694E+06
  0.1319048E+01  0.2471814E+06  0.9058256E+05 -0.1207703E-01 -0.1953125E-02 -0.5482679E+06 -0.1544655E+06
  0.1350000E+01  0.2452506E+06  0.1009591E+06  0.3571687E-02 -0.1730347E-01 -0.5432591E+06 -0.1701900E+06
  0.1380952E+01  0.2427418E+06  0.1116455E+06 -0.7027462E-02  0.9765625E-03 -0.5373499E+06 -0.1860011E+06
  0.1411905E+01  0.2385382E+06  0.1214041E+06 -0.8040584E-02  0.1303101E-01 -0.5296924E+06 -0.2002320E+06
  0.1442857E+01  0.2344398E+06  0.1319420E+06  0.9475557E-02  0.1770020E-01 -0.5213869E+06 -0.2149202E+06
  0.1473810E+01  0.2299665E+06  0.1423654E+06 -0.9525034E-03 -0.1129150E-01 -0.5127448E+06 -0.2290407E+06
  0.1504762E+01  0.2249602E+06  0.1523855E+06 -0.5881394E-02  0.3234863E-02 -0.5032978E+06 -0.2420020E+06
  0.1535714E+01  0.2194787E+06  0.1618645E+06 -0.7551326E-03  0.2258301E-02 -0.4932202E+06 -0.2536171E+06
  0.1566667E+01  0.2136981E+06  0.1707091E+06  0.4675033E-02  0.1953125E-02 -0.4828361E+06 -0.2637835E+06
  0.1597619E+01  0.2077313E+06  0.1788882E+06  0.1910191E-02  0.7141113E-02 -0.4724974E+06 -0.2726014E+06
  0.1628572E+01  0.2015207E+06  0.1862295E+06  0.7870322E-03  0.6103516E-02 -0.4621827E+06 -0.2799012E+06
  0.1659524E+01  0.1950551E+06  0.1924799E+06 -0.8201654E-02 -0.1263428E-01 -0.4515528E+06 -0.2850142E+06
  0.1690476E+01  0.1887257E+06  0.1979659E+06 -0.1588633E-02 -0.7751465E-02 -0.4415962E+06 -0.2889414E+06
  0.1721429E+01  0.1825796E+06  0.2025958E+06 -0.2623752E-02 -0.1220703E-03 -0.4321572E+06 -0.2913910E+06
  0.1752381E+01  0.1763630E+06  0.2060282E+06 -0.5572775E-03 -0.7324219E-03 -0.4227360E+06 -0.2916998E+06
  0.1783333E+01  0.1704786E+06  0.2087237E+06  0.1105478E-01  0.7324219E-02 -0.4141259E+06 -0.2909489E+06
  0.1814286E+01  0.1648658E+06  0.2105458E+06 -0.1009243E-03 -0.1074219E-01 -0.4060394E+06 -0.2887163E+06
  0.1845238E+01  0.1595839E+06  0.2117155E+06  0.8269279E-03 -0.1159668E-02 -0.3987718E+06 -0.2856870E+06
  0.1876190E+01  0.1545664E+06  0.2122000E+06 -0.3318206E-02 -0.1428223E-01 -0.3922087E+06 -0.2819208E+06
  0.1907143E+01  0.1497244E+06  0.2117013E+06  0.1680181E-02 -0.5310059E-02 -0.3858282E+06 -0.2762556E+06
  0.1938095E+01  0.1452777E+06  0.2108137E+06 -0.2314687E-02 -0.1892090E-02 -0.3803172E+06 -0.2704458E+06
  0.1969048E+01  0.1412260E+06  0.2095912E+06 -0.1160849E-01 -0.2197266E-02 -0.3755854E+06 -0.2644214E+06
  0.2000000E+01  0.1374696E+06  0.2078199E+06 -0.1296997E-02  0.8666992E-02 -0.3713290E+06 -0.2576262E+06
Zone t="Motion of body    1 in DoF   2",I=    64,F=POINT
  0.5000000E-01  0.0000000E+00  0.2312660E-04  0.4918593E+05  0.1419757E+03 -0.2410889E-01 -0.1064539E-03
  0.8095238E-01  0.3392837E-02  0.1955032E-04  0.4856038E+05  0.2354099E+03 -0.5937464E-02 -0.3159046E-04
  0.1119048E+00  0.6408691E-02 -0.7772446E-04  0.4823800E+05  0.3371092E+03 -0.1363551E-02  0.2918243E-03
  0.1428571E+00  0.1901245E-01 -0.8201599E-04  0.4806357E+05  0.4509550E+03  0.5020142E-02 -0.3592968E-03
  0.1738095E+00  0.6584272E-02 -0.2861023E-04  0.4802321E+05  0.5817333E+03  0.1817259E-01 -0.2989769E-03
  0.2047619E+00  0.5961573E-03 -0.1907349E-04  0.4807957E+05  0.7356275E+03 -0.1069357E-01 -0.3366470E-03
  0.2357143E+00 -0.1145796E-01 -0.1420975E-03  0.4822528E+05  0.9211086E+03  0.4919803E-02 -0.1683235E-03
  0.2666667E+00  0.9155273E-03  0.7629395E-04  0.4842567E+05  0.1145323E+04 -0.2474785E-01 -0.6065369E-03
  0.2976190E+00  0.1317627E-01 -0.1468658E-03  0.4866648E+05  0.1424563E+04  0.2791626E-01  0.1802444E-03
  0.3285715E+00  0.3993822E-02 -0.5378723E-03  0.4895828E+05  0.1767131E+04  0.2832827E-02 -0.5006790E-03
  0.3595238E+00 -0.9846466E-02 -0.6103516E-04  0.4922841E+05  0.2192626E+04 -0.2461616E-02  0.6771088E-03
  0.3904762E+00  0.2094548E-01 -0.4920959E-03  0.4948136E+05  0.2715346E+04  0.2430613E-01 -0.1680374E-02
  0.4214286E+00  0.9920798E-02 -0.4043579E-03  0.4960923E+05  0.3330208E+04 -0.2157955E-01 -0.4062653E-03
  0.4523810E+00 -0.4789653E-02 -0.2212524E-03  0.4968202E+05  0.4068999E+04  0.2792840E-01  0.1060486E-02
  0.4833333E+00 -0.1010237E-01  0.1831055E-02  0.4957212E+05  0.4871096E+04 -0.6692820E-02 -0.1647949E-02
  0.5142857E+00 -0.4331801E-02 -0.8010864E-03  0.4932013E+05  0.5774594E+04  0.3400167E-01 -0.1338959E-02
  0.5452381E+00  0.1791075E-02  0.1281738E-02  0.4895760E+05  0.6729975E+04  0.2672620E-01 -0.2346039E-02
  0.5761905E+00 -0.1244663E-01 -0.2212524E-02  0.4848325E+05  0.7720400E+04  0.5587743E-02  0.1777649E-02
  0.6071429E+00  0.1045496E-01  0.8239746E-03  0.4787773E+05  0.8768793E+04 -0.3822596E-01 -0.2250671E-02
  0.6380953E+00 -0.1386956E-02 -0.4119873E-03  0.4723136E+05  0.9816808E+04  0.3754345E-02  0.6698608E-02
  0.6690477E+00  0.2189446E-02  0.1556396E-02  0.4651717E+05  0.1088445E+05  0.7754288E-03  0.1464844E-02
  0.7000000E+00 -0.6713867E-02  0.4302979E-02  0.4572101E+05  0.1197577E+05 -0.1144409E-01  0.1121521E-02
  0.7309524E+00 -0.4509046E-02 -0.4394531E-02  0.4490806E+05  0.1305872E+05  0.4028916E-01  0.2731323E-02
  0.7619048E+00 -0.3604889E-02 -0.1617432E-02  0.4404311E+05  0.1413912E+05  0.8391379E-02 -0.4257202E-02
  0.7928572E+00 -0.6158501E-02  0.3265381E-02  0.4312998E+05  0.1521214E+05 -0.2093890E-01 -0.7675171E-02
  0.8238096E+00  0.4000802E-02  0.5554199E-02  0.4218263E+05  0.1626859E+05  0.1152083E-01 -0.1373291E-03
  0.8547620E+00  0.4355768E-02  0.2716064E-02  0.4122618E+05  0.1729751E+05 -0.1403128E-01  0.4302979E-02
  0.8857143E+00  0.3307712E-02 -0.1800537E-02  0.4027052E+05  0.1829353E+05 -0.1364431E-01 -0.1307678E-01
  0.9166667E+00  0.4993785E-02  0.6713867E-03  0.3930516E+05  0.1925130E+05 -0.6791548E-02  0.3433228E-02
  0.9476191E+00  0.1223770E-02  0.3967285E-03  0.3831605E+05  0.2017064E+05  0.6988372E-02  0.6881714E-02
  0.9785714E+00 -0.6050054E-02  0.3112793E-02  0.3732608E+05  0.2104256E+05  0.1001066E-01 -0.2319336E-02
  0.1009524E+01 -0.9854876E-02 -0.4028320E-02  0.3634764E+05  0.2186333E+05 -0.8766606E-02  0.8560181E-02
  0.1040476E+01  0.3988934E-02 -0.7324219E-03  0.3538879E+05  0.2262637E+05 -0.1088158E-01 -0.3631592E-02
  0.1071429E+01 -0.6266276E-03  0.2563477E-02  0.3444162E+05  0.2333413E+05  0.1122233E-01 -0.1922607E-01
  0.1102381E+01 -0.3709566E-02  0.9216309E-02  0.3352800E+05  0.2398072E+05  0.5951916E-02  0.5401611E-02
  0.1133333E+01  0.4900764E-02  0.2075195E-02  0.3263080E+05  0.2456826E+05 -0.2673878E-01 -0.3265381E-02
  0.1164286E+01 -0.1006518E-01  0.5065918E-02  0.3177298E+05  0.2509526E+05  0.2238455E-01  0.6805420E-02
  0.1195238E+01  0.1404295E-01 -0.2624512E-02  0.3094218E+05  0.2556153E+05 -0.9191749E-03  0.5493164E-03
  0.1226190E+01  0.6520688E-02  0.9765625E-03  0.3014239E+05  0.2597373E+05 -0.2202599E-01 -0.1376343E-01
  0.1257143E+01 -0.9224631E-02  0.1220703E-02  0.2936467E+05  0.2634482E+05 -0.1046267E-01  0.3051758E-02
  0.1288095E+01  0.9002968E-03 -0.2258301E-02  0.2863553E+05  0.2662314E+05  0.5129322E-02 -0.8300781E-02
  0.1319048E+01  0.1017987E-02 -0.8728027E-02  0.2793833E+05  0.2686609E+05  0.1978134E-02  0.1086426E-01
  0.1350000E+01 -0.7414641E-02 -0.3906250E-02  0.2729065E+05  0.2705306E+05 -0.1005950E-01  0.2218628E-01
  0.1380952E+01 -0.2386685E-02  0.2929688E-02  0.2668505E+05  0.2718110E+05 -0.2184480E-01  0.3051758E-04
  0.1411905E+01 -0.1020203E-01 -0.7934570E-03  0.2614383E+05  0.2736226E+05  0.5576534E-02  0.2316284E-01
  0.1442857E+01 -0.7402779E-03 -0.1281738E-02  0.2560136E+05  0.2742377E+05  0.4896409E-02  0.6042480E-02
  0.1473810E+01 -0.3644361E-02 -0.6958008E-02  0.2511160E+05  0.2744241E+05 -0.9369734E-02  0.1040649E-01
  0.1504762E+01  0.3447714E-03  0.1342773E-02  0.2465464E+05  0.2743129E+05  0.1375029E-01 -0.8575439E-02
  0.1535714E+01 -0.3417969E-02 -0.1647949E-02  0.2422940E+05  0.2739090E+05  0.1788472E-02  0.1187134E-01
  0.1566667E+01 -0.3895861E-03  0.5065918E-02  0.2383917E+05  0.2732379E+05  0.1322645E-01 -0.1071167E-01
  0.1597619E+01 -0.5673268E-02  0.2868652E-02  0.2348706E+05  0.2723049E+05  0.3954096E-02  0.4913330E-02
  0.1628572E+01 -0.8057711E-03  0.1770020E-02  0.2317027E+05  0.2712780E+05  0.2161528E-01 -0.8697510E-02
  0.1659524E+01  0.1232087E-02 -0.5187988E-02  0.2286553E+05  0.2701465E+05  0.1599874E-02 -0.2761841E-01
  0.1690476E+01  0.2707898E-02 -0.8850098E-02  0.2260652E+05  0.2689612E+05  0.8168824E-02 -0.1339722E-01
  0.1721429E+01  0.6453012E-02  0.2807617E-02  0.2237466E+05  0.2676491E+05 -0.1513976E-01  0.1361084E-01
  0.1752381E+01 -0.1271289E-02 -0.2441406E-02  0.2215238E+05  0.2665294E+05  0.5337674E-02  0.5706787E-02
  0.1783333E+01  0.2275984E-02 -0.4028320E-02  0.2196014E+05  0.2654405E+05 -0.1254358E-01  0.3387451E-02
  0.1814286E+01  0.7249727E-02 -0.1708984E-02  0.2178344E+05  0.2643883E+05  0.4661020E-01  0.3875732E-02
  0.1845238E+01  0.1356162E-02  0.6713867E-03  0.2162670E+05  0.2634429E+05 -0.1533124E-01  0.1467896E-01
  0.1876190E+01  0.8783486E-03 -0.1953125E-02  0.2147734E+05  0.2628456E+05  0.1804681E-01  0.1495361E-01
  0.1907143E+01 -0.2592280E-02 -0.2685547E-02  0.2131482E+05  0.2622672E+05  0.8880959E-02  0.1553345E-01
  0.1938095E+01  0.1858048E-02  0.1403809E-02  0.2116421E+05  0.2619930E+05 -0.1309294E-01 -0.3814697E-02
  0.1969048E+01 -0.2324797E-03 -0.1647949E-02  0.2101911E+05  0.2618336E+05  0.2298062E-01  0.4760742E-02
  0.2000000E+01 -0.6942749E-03  0.1831055E-03  0.2086553E+05  0.2617677E+05  0.8728027E-02  0.2990723E-02
Zone t="Motion of body    1 in DoF   3",I=    64,F=POINT
  0.5000000E-01 -0.4887071E+06 -0.3601329E-01 -0.5676270E-01 -0.1866943E-03  0.1664668E+07  0.7861719E-01
  0.8095238E-01 -0.4920519E+06 -0.1567519E+00  0.1083823E-02  0.3278212E-04  0.1668720E+07  0.3406440E+00
  0.1119048E+00 -0.4927005E+06 -0.4385262E+00  0.1346507E-01 -0.2696947E-04  0.1669469E+07  0.9460357E+00
  0.1428571E+00 -0.4933139E+06 -0.9852426E+00  0.1319122E-01  0.1659663E-04  0.1670131E+07  0.2118614E+01
  0.1738095E+00 -0.4935004E+06 -0.1955561E+01 -0.6711568E-01 -0.1270195E-02  0.1670691E+07  0.4205502E+01
  0.2047619E+00 -0.4940439E+06 -0.3601509E+01 -0.2086551E-01 -0.7548239E-03  0.1671394E+07  0.7736425E+01
  0.2357143E+00 -0.4945318E+06 -0.6319749E+01 -0.8201830E-01 -0.2062403E-02  0.1672172E+07  0.1354810E+02
  0.2666667E+00 -0.4950379E+06 -0.1073713E+02 -0.9135246E-01 -0.2134414E-02  0.1673128E+07  0.2296694E+02
  0.2976190E+00 -0.4957867E+06 -0.1794126E+02 -0.6298462E-01 -0.1629058E-02  0.1674186E+07  0.3828158E+02
  0.3285715E+00 -0.4964726E+06 -0.2953933E+02 -0.3557288E-01 -0.2509110E-02  0.1675416E+07  0.6288614E+02
  0.3595238E+00 -0.4972497E+06 -0.4826705E+02 -0.4396956E-01 -0.2210990E-02  0.1676708E+07  0.1024583E+03
  0.3904762E+00 -0.4980701E+06 -0.7823300E+02  0.2942527E-01  0.2465695E-02  0.1678129E+07  0.1655144E+03
  0.4214286E+00 -0.4992524E+06 -0.1251803E+03 -0.6959041E-01 -0.3789902E-02  0.1679975E+07  0.2638713E+03
  0.4523810E+00 -0.5003412E+06 -0.1983892E+03  0.3858707E-01  0.3165483E-02  0.1681963E+07  0.4169794E+03
  0.4833333E+00 -0.5017172E+06 -0.3066342E+03 -0.6092992E-02  0.8199215E-03  0.1684428E+07  0.6418874E+03
  0.5142857E+00 -0.5034687E+06 -0.4665663E+03  0.3210280E-01  0.1769066E-03  0.1687004E+07  0.9721653E+03
  0.5452381E+00 -0.5051838E+06 -0.6922587E+03 -0.6626979E-01 -0.8608103E-02  0.1689899E+07  0.1436554E+04
  0.5761905E+00 -0.5068531E+06 -0.1002340E+04  0.5508296E-01  0.4538059E-02  0.1692745E+07  0.2070806E+04
  0.6071429E+00 -0.5088088E+06 -0.1425234E+04 -0.3433048E-01 -0.6808281E-02  0.1696140E+07  0.2930859E+04
  0.6380953E+00 -0.5110795E+06 -0.1982358E+04  0.7872169E-01  0.1586199E-01  0.1699845E+07  0.4054055E+04
  0.6690477E+00 -0.5135995E+06 -0.2709967E+04  0.6235360E-01  0.2211094E-01  0.1703771E+07  0.5510342E+04
  0.7000000E+00 -0.5160016E+06 -0.3645613E+04 -0.7511684E-01 -0.1380920E-02  0.1707847E+07  0.7374641E+04
  0.7309524E+00 -0.5187430E+06 -0.4828658E+04 -0.5285604E-01 -0.8038521E-02  0.1712430E+07  0.9714250E+04
  0.7619048E+00 -0.5214827E+06 -0.6312419E+04 -0.9805297E-01 -0.4014397E-01  0.1716904E+07  0.1261808E+05
  0.7928572E+00 -0.5247054E+06 -0.8155231E+04 -0.1085436E-01  0.2475739E-02  0.1721836E+07  0.1619198E+05
  0.8238096E+00 -0.5276654E+06 -0.1040958E+05 -0.2963557E-03 -0.1047134E-01  0.1726446E+07  0.2052656E+05
  0.8547620E+00 -0.5308162E+06 -0.1314185E+05  0.2584898E-01  0.7869720E-02  0.1731224E+07  0.2573599E+05
  0.8857143E+00 -0.5340311E+06 -0.1642378E+05  0.1712430E-01  0.6061554E-02  0.1735952E+07  0.3193189E+05
  0.9166667E+00 -0.5373546E+06 -0.2032604E+05 -0.1589355E+00 -0.6189728E-01  0.1740860E+07  0.3923589E+05
  0.9476191E+00 -0.5402662E+06 -0.2491647E+05 -0.6041560E-01 -0.2394104E-01  0.1745017E+07  0.4772540E+05
  0.9785714E+00 -0.5434062E+06 -0.3029295E+05 -0.5850465E-01 -0.4469299E-01  0.1749188E+07  0.5754738E+05
  0.1009524E+01 -0.5462112E+06 -0.3651362E+05  0.4419579E-01  0.1729584E-01  0.1752619E+07  0.6875824E+05
  0.1040476E+01 -0.5490299E+06 -0.4365630E+05  0.7203545E-01  0.4125977E-01  0.1755588E+07  0.8148148E+05
  0.1071429E+01 -0.5511964E+06 -0.5174181E+05  0.1669108E-01  0.8163452E-02  0.1757708E+07  0.9572826E+05
  0.1102381E+01 -0.5530369E+06 -0.6083884E+05  0.4888876E-01 -0.5630493E-02  0.1759181E+07  0.1115606E+06
  0.1133333E+01 -0.5542249E+06 -0.7094691E+05 -0.3877528E-02  0.5767822E-02  0.1759240E+07  0.1288965E+06
  0.1164286E+01 -0.5547440E+06 -0.8207703E+05 -0.1535989E-01  0.4058838E-02  0.1758086E+07  0.1476637E+06
  0.1195238E+01 -0.5547580E+06 -0.9421835E+05  0.7348292E-01  0.1678467E-01  0.1755518E+07  0.1677731E+06
  0.1226190E+01 -0.5538418E+06 -0.1072828E+06 -0.9059276E-02 -0.7354736E-02  0.1751713E+07  0.1890640E+06
  0.1257143E+01 -0.5515035E+06 -0.1210429E+06 -0.1019565E-01 -0.2282715E-01  0.1745487E+07  0.2110519E+06
  0.1288095E+01 -0.5491329E+06 -0.1357292E+06 -0.2795658E-01 -0.6420898E-01  0.1738766E+07  0.2340179E+06
  0.1319048E+01 -0.5450964E+06 -0.1507458E+06  0.1420555E-01 -0.9704590E-02  0.1729682E+07  0.2569922E+06
  0.1350000E+01 -0.5401892E+06 -0.1660654E+06  0.2088759E-01  0.1403809E-01  0.1719222E+07  0.2798776E+06
  0.1380952E+01 -0.5343881E+06 -0.1814142E+06 -0.9502542E-02 -0.1470947E-01  0.1706981E+07  0.3021286E+06
  0.1411905E+01 -0.5277808E+06 -0.1959193E+06  0.2455404E-01  0.8605957E-02  0.1694282E+07  0.3230302E+06
  0.1442857E+01 -0.5196423E+06 -0.2102829E+06  0.2918810E-02  0.9216309E-02  0.1679060E+07  0.3424261E+06
  0.1473810E+01 -0.5111938E+06 -0.2240568E+06 -0.6501871E-02  0.9643555E-02  0.1663725E+07  0.3603211E+06
  0.1504762E+01 -0.5019779E+06 -0.2367456E+06 -0.1066763E-01 -0.3375244E-01  0.1647372E+07  0.3757965E+06
  0.1535714E+01 -0.4921656E+06 -0.2482047E+06  0.8783384E-02 -0.2319336E-01  0.1630606E+07  0.3886876E+06
  0.1566667E+01 -0.4820529E+06 -0.2582285E+06  0.2672561E-01 -0.1184082E-01  0.1613488E+07  0.3987479E+06
  0.1597619E+01 -0.4719500E+06 -0.2668101E+06 -0.1956036E-01  0.1306152E-01  0.1596611E+07  0.4061455E+06
  0.1628572E+01 -0.4618604E+06 -0.2739013E+06  0.7795367E-02  0.6469727E-02  0.1580760E+07  0.4112167E+06
  0.1659524E+01 -0.4514907E+06 -0.2789757E+06 -0.9599245E-02  0.5859375E-02  0.1564553E+07  0.4125437E+06
  0.1690476E+01 -0.4417714E+06 -0.2828012E+06 -0.3599698E-01 -0.1086426E-01  0.1550063E+07  0.4121678E+06
  0.1721429E+01 -0.4325517E+06 -0.2850800E+06  0.1198416E-01  0.2392578E-01  0.1536318E+07  0.4091779E+06
  0.1752381E+01 -0.4233634E+06 -0.2855406E+06 -0.1006583E-01  0.6469727E-02  0.1523360E+07  0.4033526E+06
  0.1783333E+01 -0.4149657E+06 -0.2849136E+06 -0.2741448E-01 -0.2197266E-01  0.1511984E+07  0.3961129E+06
  0.1814286E+01 -0.4070731E+06 -0.2827885E+06 -0.7182444E-02  0.1440430E-01  0.1501250E+07  0.3865081E+06
  0.1845238E+01 -0.3999733E+06 -0.2797366E+06 -0.1191603E-01 -0.1135254E-01  0.1491923E+07  0.3758046E+06
  0.1876190E+01 -0.3935641E+06 -0.2760036E+06  0.1615999E-01  0.4272461E-02  0.1484441E+07  0.3650432E+06
  0.1907143E+01 -0.3873366E+06 -0.2706267E+06 -0.1952411E-01  0.5004883E-02  0.1476917E+07  0.3511287E+06
  0.1938095E+01 -0.3819571E+06 -0.2650518E+06  0.1805692E-01 -0.6103516E-02  0.1471146E+07  0.3379412E+06
  0.1969048E+01 -0.3773397E+06 -0.2590850E+06 -0.1243767E-02  0.8178711E-02  0.1466476E+07  0.3244034E+06
  0.2000000E+01 -0.3731803E+06 -0.2524074E+06  0.1259995E-01  0.9765625E-02  0.1462476E+07  0.3100877E+06
