VARIABLES="w (rad/s)"
"A   1   1" "B   1   1"
"A   1   2" "B   1   2"
"A   1   3" "B   1   3"
Zone t="Motion of body    1 in DoF   1",I=    64,F=POINT
  0.5000000E-01  0.7034779E+05  0.5842636E-02 -0.1296997E-02  0.4411268E-06 -0.1353693E+04  0.1476201E-02
  0.8095238E-01  0.7073498E+05  0.2572583E-01  0.2544627E-01  0.9816297E-04 -0.1517369E+04  0.6448704E-02
  0.1119048E+00  0.7085672E+05  0.7226720E-01  0.1254467E-01  0.7731200E-04 -0.1550354E+04  0.1821216E-01
  0.1428571E+00  0.7103188E+05  0.1625401E+00  0.4699707E-02  0.1095324E-03 -0.1309656E+04  0.4142943E-01
  0.1738095E+00  0.7104599E+05  0.3232661E+00 -0.5355208E-02  0.1084167E-03 -0.1419045E+04  0.8279006E-01
  0.2047619E+00  0.7120717E+05  0.5959967E+00 -0.2235590E-02  0.1571598E-03 -0.1157580E+04  0.1544293E+00
  0.2357143E+00  0.7130450E+05  0.1048240E+01  0.4725601E-02  0.2587177E-03 -0.1204196E+04  0.2740166E+00
  0.2666667E+00  0.7134376E+05  0.1785545E+01  0.9498595E-02  0.2381969E-03 -0.1208542E+04  0.4721188E+00
  0.2976190E+00  0.7161332E+05  0.2992605E+01  0.7690430E-02  0.4663132E-03 -0.8271605E+03  0.8050095E+00
  0.3285715E+00  0.7175752E+05  0.4943379E+01  0.1207434E-02  0.7782876E-04 -0.8492102E+03  0.1346138E+01
  0.3595238E+00  0.7184866E+05  0.8099255E+01  0.2173013E-01  0.8594394E-03 -0.8819048E+03  0.2235382E+01
  0.3904762E+00  0.7206827E+05  0.1318068E+02  0.2313381E-01  0.1409158E-02 -0.6006209E+03  0.3711129E+01
  0.4214286E+00  0.7244653E+05  0.2117015E+02  0.2404164E-01  0.1409858E-02 -0.2554381E+03  0.6087256E+01
  0.4523810E+00  0.7266059E+05  0.3367979E+02  0.1726974E-01  0.2022743E-02 -0.2211576E+03  0.9842285E+01
  0.4833333E+00  0.7289894E+05  0.5224356E+02  0.1704775E-01  0.1957953E-02  0.1372407E+01  0.1559497E+02
  0.5142857E+00  0.7324529E+05  0.7972336E+02 -0.1352946E-01 -0.2807379E-03  0.3033096E+03  0.2432041E+02
  0.5452381E+00  0.7367453E+05  0.1187814E+03 -0.2798555E-02  0.2789497E-04  0.5846032E+03  0.3702770E+02
  0.5761905E+00  0.7403166E+05  0.1727297E+03 -0.7520943E-02 -0.2396107E-03  0.7034448E+03  0.5493555E+02
  0.6071429E+00  0.7435892E+05  0.2464157E+03  0.8544921E-02  0.3793240E-02  0.8992079E+03  0.8006603E+02
  0.6380953E+00  0.7483470E+05  0.3438403E+03  0.1616521E-01  0.2538681E-02  0.1321190E+04  0.1145014E+03
  0.6690477E+00  0.7540213E+05  0.4715515E+03  0.1268054E-01  0.2198219E-02  0.1696708E+04  0.1607742E+03
  0.7000000E+00  0.7592675E+05  0.6367199E+03  0.1081194E-01  0.2514839E-02  0.2001535E+04  0.2221115E+03
  0.7309524E+00  0.7643573E+05  0.8460464E+03 -0.1252513E-01 -0.2809525E-02  0.2283087E+04  0.3020036E+03
  0.7619048E+00  0.7697445E+05  0.1108803E+04  0.7770537E-02  0.2252579E-02  0.2646309E+04  0.4053815E+03
  0.7928572E+00  0.7756106E+05  0.1434929E+04  0.1408757E-01  0.8840561E-02  0.3109016E+04  0.5377324E+03
  0.8238096E+00  0.7825506E+05  0.1835546E+04  0.3704446E-03 -0.1541138E-02  0.3632220E+04  0.7051197E+03
  0.8547620E+00  0.7896234E+05  0.2321818E+04 -0.1370996E-01 -0.6290436E-02  0.4178006E+04  0.9145185E+03
  0.8857143E+00  0.7964980E+05  0.2906226E+04 -0.4134640E-02  0.9002686E-03  0.4615325E+04  0.1172478E+04
  0.9166667E+00  0.8026481E+05  0.3600851E+04  0.4394531E-02  0.4348755E-03  0.5041361E+04  0.1488216E+04
  0.9476191E+00  0.8090140E+05  0.4418494E+04  0.5667988E-02  0.6172180E-02  0.5513844E+04  0.1870728E+04
  0.9785714E+00  0.8153341E+05  0.5371089E+04  0.1621664E-02  0.6088257E-02  0.6107034E+04  0.2331116E+04
  0.1009524E+01  0.8218935E+05  0.6470812E+04  0.4957667E-02  0.4898071E-02  0.6745793E+04  0.2878429E+04
  0.1040476E+01  0.8281337E+05  0.7729264E+04  0.3871612E-02  0.4318237E-02  0.7342292E+04  0.3521945E+04
  0.1071429E+01  0.8338485E+05  0.9156109E+04 -0.5696615E-02 -0.3250122E-02  0.7920273E+04  0.4273698E+04
  0.1102381E+01  0.8389106E+05  0.1075961E+05  0.5979599E-02  0.1393127E-01  0.8449092E+04  0.5144219E+04
  0.1133333E+01  0.8428831E+05  0.1254449E+05  0.1529469E-01  0.3033447E-01  0.8935544E+04  0.6144503E+04
  0.1164286E+01  0.8457130E+05  0.1450854E+05 -0.1111364E-01  0.1861572E-02  0.9377301E+04  0.7279458E+04
  0.1195238E+01  0.8473160E+05  0.1664906E+05  0.1021305E-03  0.5249023E-02  0.9743951E+04  0.8550919E+04
  0.1226190E+01  0.8475435E+05  0.1895603E+05 -0.4977624E-02  0.8178711E-02  0.1011724E+05  0.9967182E+04
  0.1257143E+01  0.8468235E+05  0.2143924E+05 -0.5826083E-03 -0.1043701E-01  0.1040448E+05  0.1153342E+05
  0.1288095E+01  0.8448293E+05  0.2402608E+05  0.2843042E-03  0.1303101E-01  0.1067780E+05  0.1322674E+05
  0.1319048E+01  0.8414750E+05  0.2675404E+05 -0.1166058E-01  0.2319336E-02  0.1084048E+05  0.1506563E+05
  0.1350000E+01  0.8366858E+05  0.2957546E+05 -0.2622251E-02 -0.8789062E-02  0.1090613E+05  0.1703008E+05
  0.1380952E+01  0.8304767E+05  0.3246861E+05  0.4066204E-02  0.4882812E-02  0.1086160E+05  0.1910669E+05
  0.1411905E+01  0.8147765E+05  0.3483927E+05  0.1564888E-01  0.1879883E-01  0.9975564E+04  0.2092985E+05
  0.1442857E+01  0.8062083E+05  0.3776587E+05  0.7445080E-02 -0.9155273E-03  0.9779544E+04  0.2317927E+05
  0.1473810E+01  0.7962497E+05  0.4067765E+05 -0.3313055E-03 -0.2014160E-02  0.9509580E+04  0.2550562E+05
  0.1504762E+01  0.7851267E+05  0.4354713E+05  0.3893888E-02 -0.1843262E-01  0.9128608E+04  0.2788070E+05
  0.1535714E+01  0.7728813E+05  0.4633833E+05  0.0000000E+00  0.4882812E-02  0.8664088E+04  0.3028923E+05
  0.1566667E+01  0.7598088E+05  0.4903587E+05  0.1324593E-02  0.1489258E-01  0.8080516E+04  0.3270823E+05
  0.1597619E+01  0.7458752E+05  0.5162076E+05 -0.1069707E-02  0.1025391E-01  0.7395013E+04  0.3512445E+05
  0.1628572E+01  0.7311945E+05  0.5406789E+05  0.8245099E-02  0.8666992E-02  0.6662017E+04  0.3752835E+05
  0.1659524E+01  0.7163472E+05  0.5636432E+05 -0.8679777E-02 -0.7690430E-02  0.5828668E+04  0.3987999E+05
  0.1690476E+01  0.7011868E+05  0.5848805E+05  0.6137901E-02 -0.1379395E-01  0.4966255E+04  0.4218492E+05
  0.1721429E+01  0.6857905E+05  0.6044162E+05  0.3829260E-02 -0.6103516E-03  0.4065601E+04  0.4442357E+05
  0.1752381E+01  0.6705513E+05  0.6221190E+05  0.1184215E-01 -0.2441406E-02  0.3122134E+04  0.4657212E+05
  0.1783333E+01  0.6554394E+05  0.6379444E+05  0.1369013E-02 -0.3662109E-03  0.2161404E+04  0.4864280E+05
  0.1814286E+01  0.6405845E+05  0.6521757E+05 -0.7401114E-02  0.1599121E-01  0.1144200E+04  0.5061140E+05
  0.1845238E+01  0.6259554E+05  0.6646980E+05  0.7938508E-02 -0.1013184E-01  0.1121693E+03  0.5248683E+05
  0.1876190E+01  0.6114950E+05  0.6756052E+05  0.4424274E-02 -0.4882812E-02 -0.9133602E+03  0.5428733E+05
  0.1907143E+01  0.5976886E+05  0.6850115E+05 -0.3264352E-02 -0.1342773E-02 -0.1977339E+04  0.5596141E+05
  0.1938095E+01  0.5844177E+05  0.6927514E+05  0.3527142E-02  0.1818848E-01 -0.3019978E+04  0.5755040E+05
  0.1969048E+01  0.5714380E+05  0.6990634E+05  0.8059298E-03  0.5493164E-02 -0.4046324E+04  0.5904112E+05
  0.2000000E+01  0.5590994E+05  0.7040127E+05  0.2563477E-02 -0.2441406E-03 -0.5069495E+04  0.6040603E+05
Zone t="Motion of body    1 in DoF   2",I=    64,F=POINT
  0.5000000E-01 -0.3051758E-02  0.3242493E-04  0.1303184E+06  0.3867058E+03  0.1220703E-02  0.5149841E-04
  0.8095238E-01 -0.8670582E-02 -0.1907349E-05  0.1285792E+06  0.6413286E+03  0.1055549E-01 -0.4768372E-04
  0.1119048E+00  0.4499719E-02 -0.5722046E-05  0.1276781E+06  0.9187073E+03  0.1363551E-02 -0.1525879E-04
  0.1428571E+00  0.1666260E-01 -0.7629395E-05  0.1271681E+06  0.1229279E+04  0.3417969E-02  0.1487732E-03
  0.1738095E+00  0.1755806E-03 -0.2288818E-04  0.1271300E+06  0.1586632E+04 -0.6320901E-02 -0.1792908E-03
  0.2047619E+00  0.1490393E-01 -0.5340576E-04  0.1273145E+06  0.2007230E+04 -0.1192315E-02  0.3051758E-04
  0.2357143E+00  0.5437677E-02  0.2059937E-03  0.1276754E+06  0.2514548E+04 -0.9321732E-02 -0.1449585E-03
  0.2666667E+00 -0.4577636E-02 -0.2899170E-03  0.1283170E+06  0.3128755E+04  0.4119873E-02 -0.1907349E-03
  0.2976190E+00 -0.1989258E-01 -0.4920959E-03  0.1290116E+06  0.3893424E+04  0.6562500E-02  0.3051758E-04
  0.3285715E+00  0.1393194E-01  0.1144409E-03  0.1297769E+06  0.4832982E+04  0.3343665E-02  0.4577637E-04
  0.3595238E+00  0.1273250E-01 -0.4425049E-03  0.1305813E+06  0.5999206E+04 -0.2173013E-01 -0.1525879E-03
  0.3904762E+00 -0.9378572E-03 -0.4577637E-03  0.1313708E+06  0.7434042E+04  0.0000000E+00 -0.8544922E-03
  0.4214286E+00  0.1998642E-01 -0.5340576E-03  0.1316929E+06  0.9121714E+04 -0.1737950E-02  0.1831055E-03
  0.4523810E+00 -0.2698396E-02  0.2899170E-03  0.1319434E+06  0.1114747E+05 -0.2158717E-02 -0.2441406E-03
  0.4833333E+00  0.1288052E-01 -0.7629395E-04  0.1317806E+06  0.1335009E+05 -0.3030711E-02  0.5187988E-03
  0.5142857E+00 -0.2610948E-02 -0.1525879E-02  0.1311153E+06  0.1583202E+05 -0.1424154E-02 -0.4272461E-03
  0.5452381E+00 -0.3358266E-02  0.2136230E-03  0.1301303E+06  0.1846058E+05 -0.4925457E-02 -0.1831055E-02
  0.5761905E+00 -0.2754148E-02 -0.3021240E-02  0.1289193E+06  0.2118796E+05  0.0000000E+00  0.4272461E-03
  0.6071429E+00  0.7036994E-02 -0.6713867E-03  0.1274087E+06  0.2407539E+05  0.4021139E-02 -0.1342773E-02
  0.6380953E+00 -0.5930431E-02  0.2746582E-03  0.1257577E+06  0.2696937E+05 -0.1147825E-02  0.1464844E-02
  0.6690477E+00 -0.2554354E-02 -0.1770020E-02  0.1238213E+06  0.2993029E+05  0.7298153E-03 -0.6103516E-03
  0.7000000E+00  0.3662109E-02  0.2258301E-02  0.1217091E+06  0.3296200E+05 -0.1220703E-01 -0.1098633E-02
  0.7309524E+00  0.1052111E-01 -0.2441406E-03  0.1196100E+06  0.3597459E+05  0.7014072E-02 -0.2075195E-02
  0.7619048E+00 -0.5767822E-02  0.2807617E-02  0.1173963E+06  0.3899014E+05 -0.6408691E-03 -0.4760742E-02
  0.7928572E+00  0.3079251E-02  0.2990723E-02  0.1150158E+06  0.4200785E+05 -0.2155476E-02 -0.1953125E-02
  0.8238096E+00 -0.3556268E-02  0.2929688E-02  0.1125349E+06  0.4500016E+05 -0.3259912E-02 -0.1220703E-02
  0.8547620E+00  0.3855926E-02 -0.2136230E-02  0.1100144E+06  0.4793908E+05 -0.1142496E-01 -0.2929688E-02
  0.8857143E+00  0.5788495E-02 -0.3967285E-02  0.1074779E+06  0.5080374E+05 -0.8269279E-02 -0.3906250E-02
  0.9166667E+00  0.5459872E-02  0.1708984E-02  0.1049409E+06  0.5358408E+05  0.2130682E-02 -0.7324219E-03
  0.9476191E+00  0.1674633E-02 -0.1342773E-02  0.1023905E+06  0.5627245E+05 -0.1545815E-02  0.2441406E-02
  0.9785714E+00  0.1621664E-02 -0.2197266E-02  0.9982237E+05  0.5886496E+05  0.1746407E-02 -0.4394531E-02
  0.1009524E+01 -0.1088268E-02  0.7324219E-03  0.9724365E+05  0.6135607E+05  0.1934699E-02 -0.3173828E-02
  0.1040476E+01 -0.3285004E-02  0.2197266E-02  0.9466966E+05  0.6373765E+05 -0.4458220E-02  0.2441406E-03
  0.1071429E+01  0.1378581E-01 -0.7324219E-03  0.9212590E+05  0.6599171E+05 -0.4557292E-03 -0.5371094E-02
  0.1102381E+01 -0.7086933E-02 -0.2441406E-02  0.8964750E+05  0.6810071E+05  0.4429333E-03  0.2441406E-02
  0.1133333E+01  0.2692728E-02 -0.7812500E-02  0.8722885E+05  0.7006259E+05  0.4523782E-02 -0.8789062E-02
  0.1164286E+01 -0.4927746E-02  0.8544922E-03  0.8488700E+05  0.7187765E+05 -0.2725987E-02  0.2441406E-02
  0.1195238E+01 -0.1031518E-01  0.5981445E-02  0.8260839E+05  0.7355994E+05 -0.3063916E-02 -0.1220703E-02
  0.1226190E+01  0.1612750E-01  0.7324219E-03  0.8038937E+05  0.7511471E+05  0.4579415E-02 -0.3173828E-02
  0.1257143E+01  0.4078258E-02 -0.1611328E-01  0.7825806E+05  0.7657714E+05 -0.4855069E-02 -0.6835938E-02
  0.1288095E+01 -0.5875621E-02 -0.6713867E-02  0.7615317E+05  0.7782645E+05 -0.2463970E-02 -0.8789062E-02
  0.1319048E+01  0.0000000E+00 -0.1110840E-01  0.7414196E+05  0.7898222E+05 -0.3701771E-02 -0.9765625E-03
  0.1350000E+01 -0.2441406E-02  0.2929688E-02  0.7220336E+05  0.8000172E+05 -0.9403935E-02 -0.7324219E-03
  0.1380952E+01  0.1502728E-02 -0.3662109E-02  0.7035612E+05  0.8088003E+05 -0.1432011E-01 -0.9277344E-02
  0.1411905E+01  0.6484342E-02  0.2319336E-02  0.6804977E+05  0.8176918E+05 -0.5533305E-02  0.5126953E-02
  0.1442857E+01  0.9306350E-03 -0.6103516E-03  0.6635600E+05  0.8245384E+05  0.0000000E+00 -0.4882812E-03
  0.1473810E+01  0.6626111E-02 -0.1049805E-01  0.6473458E+05  0.8302754E+05 -0.2816097E-02 -0.1464844E-01
  0.1504762E+01 -0.2433680E-02 -0.5493164E-02  0.6318921E+05  0.8349372E+05 -0.6003078E-02 -0.2929688E-02
  0.1535714E+01  0.5961573E-02 -0.1342773E-02  0.6171334E+05  0.8385607E+05 -0.1589753E-02 -0.1123047E-01
  0.1566667E+01  0.8415059E-02 -0.3417969E-02  0.6031464E+05  0.8411673E+05 -0.3116689E-03 -0.1025391E-01
  0.1597619E+01  0.5959796E-02 -0.7446289E-02  0.5898967E+05  0.8429769E+05  0.4278828E-02 -0.4394531E-02
  0.1628572E+01 -0.4497327E-03 -0.2075195E-02  0.5772597E+05  0.8440296E+05 -0.4197505E-02  0.1464844E-02
  0.1659524E+01 -0.8091318E-03 -0.5737305E-02  0.5654056E+05  0.8440780E+05  0.2942297E-02 -0.1269531E-01
  0.1690476E+01 -0.1068717E-01 -0.2209473E-01  0.5541619E+05  0.8432893E+05 -0.1444212E-03 -0.1611328E-01
  0.1721429E+01  0.2340103E-02 -0.4516602E-02  0.5434819E+05  0.8417992E+05 -0.3829260E-02 -0.1855469E-01
  0.1752381E+01 -0.1393194E-02 -0.1831055E-01  0.5334268E+05  0.8393320E+05 -0.9473719E-02 -0.1171875E-01
  0.1783333E+01  0.2738026E-02 -0.3662109E-03  0.5239429E+05  0.8361277E+05  0.2327322E-02 -0.4882812E-02
  0.1814286E+01  0.1816637E-02 -0.2441406E-03  0.5150983E+05  0.8323726E+05  0.2825880E-02  0.8789062E-02
  0.1845238E+01 -0.5953881E-02 -0.5615234E-02  0.5067837E+05  0.8281015E+05 -0.3704637E-02 -0.5371094E-02
  0.1876190E+01  0.1301257E-02  0.5859375E-02  0.4989487E+05  0.8235954E+05 -0.4033897E-02 -0.0000000E+00
  0.1907143E+01  0.1280138E-02 -0.1391602E-01  0.4917122E+05  0.8184637E+05 -0.1536166E-02 -0.1123047E-01
  0.1938095E+01 -0.2771326E-02 -0.2246094E-01  0.4849192E+05  0.8126591E+05  0.2519387E-02 -0.8789062E-02
  0.1969048E+01  0.3285714E-02 -0.2197266E-02  0.4784728E+05  0.8066088E+05 -0.8679244E-03 -0.6347656E-02
  0.2000000E+01  0.9338379E-02 -0.1220703E-01  0.4724465E+05  0.7999474E+05 -0.1342773E-02 -0.4394531E-02
Zone t="Motion of body    1 in DoF   3",I=    64,F=POINT
  0.5000000E-01 -0.2283232E+04  0.1366726E-02 -0.1083374E-01 -0.4207165E-04  0.1489780E+06  0.5804863E-03
  0.8095238E-01 -0.2460688E+04  0.5972019E-02  0.3769818E-02 -0.5699439E-05  0.1491559E+06  0.1580157E-02
  0.1119048E+00 -0.2525602E+04  0.1687427E-01  0.8113131E-02  0.8979929E-05  0.1489043E+06  0.4167897E-02
  0.1428571E+00 -0.2261412E+04  0.3828490E-01  0.6942749E-02  0.2119748E-04  0.1493640E+06  0.9438286E-02
  0.1738095E+00 -0.2392654E+04  0.7681938E-01 -0.1114937E-01 -0.1917251E-03  0.1490548E+06  0.1930624E-01
  0.2047619E+00 -0.2088067E+04  0.1428974E+00  0.1132699E-01  0.1434393E-03  0.1496604E+06  0.3735812E-01
  0.2357143E+00 -0.2193347E+04  0.2544749E+00  0.6861831E-02  0.9066472E-04  0.1491899E+06  0.6723284E-01
  0.2666667E+00 -0.2179836E+04  0.4394463E+00  0.1316070E-01  0.2055108E-03  0.1492692E+06  0.1161424E+00
  0.2976190E+00 -0.1763970E+04  0.7460799E+00  0.3588867E-02 -0.2400577E-04  0.1499482E+06  0.2003846E+00
  0.3285715E+00 -0.1850456E+04  0.1252678E+01  0.2786387E-03 -0.1312513E-03  0.1494614E+06  0.3421999E+00
  0.3595238E+00 -0.1884499E+04  0.2087879E+01  0.1001623E-01  0.2297051E-03  0.1493372E+06  0.5763741E+00
  0.3904762E+00 -0.1569958E+04  0.3462681E+01  0.3954631E-01  0.2105702E-02  0.1498752E+06  0.9727141E+00
  0.4214286E+00 -0.1243346E+04  0.5667514E+01  0.8689750E-03 -0.3219992E-03  0.1501559E+06  0.1625777E+01
  0.4523810E+00 -0.1240234E+04  0.9197712E+01 -0.4115054E-02 -0.5434602E-03  0.1499071E+06  0.2693530E+01
  0.4833333E+00 -0.9730419E+03  0.1457354E+02 -0.7576778E-03 -0.4276335E-03  0.1504156E+06  0.4350172E+01
  0.5142857E+00 -0.6801863E+03  0.2270813E+02 -0.7832846E-02 -0.9875596E-03  0.1507087E+06  0.6918788E+01
  0.5452381E+00 -0.4420526E+03  0.3460408E+02 -0.5485168E-02 -0.1921296E-02  0.1507321E+06  0.1078545E+02
  0.5761905E+00 -0.3470811E+03  0.5154277E+02 -0.8050587E-02 -0.2249300E-02  0.1506005E+06  0.1639980E+02
  0.6071429E+00 -0.1293430E+03  0.7523907E+02 -0.3920611E-02 -0.1608253E-02  0.1509048E+06  0.2450790E+02
  0.6380953E+00  0.3053243E+03  0.1074708E+03 -0.1549564E-01 -0.5212188E-02  0.1514765E+06  0.3575412E+02
  0.6690477E+00  0.6421245E+03  0.1510741E+03 -0.1815416E-01 -0.5410671E-02  0.1516125E+06  0.5145964E+02
  0.7000000E+00  0.8978733E+03  0.2092248E+03  0.1569475E-02 -0.6809235E-03  0.1515564E+06  0.7307317E+02
  0.7309524E+00  0.1177701E+04  0.2852130E+03  0.2546776E-01  0.7045746E-02  0.1517328E+06  0.1019356E+03
  0.7619048E+00  0.1555621E+04  0.3832824E+03 -0.2010727E-01 -0.9904385E-02  0.1521295E+06  0.1401410E+03
  0.7928572E+00  0.2011319E+04  0.5084326E+03 -0.2501891E-01 -0.1146793E-01  0.1525972E+06  0.1902458E+03
  0.8238096E+00  0.2514465E+04  0.6670865E+03  0.1215058E-01  0.5517960E-02  0.1530023E+06  0.2557381E+03
  0.8547620E+00  0.3025983E+04  0.8657844E+03 -0.2199306E-01 -0.1277542E-01  0.1533620E+06  0.3406329E+03
  0.8857143E+00  0.3421887E+04  0.1113506E+04 -0.9234029E-02 -0.6725311E-02  0.1534118E+06  0.4497050E+03
  0.9166667E+00  0.3832646E+04  0.1416554E+04  0.3062855E-02  0.3261566E-03  0.1536566E+06  0.5866774E+03
  0.9476191E+00  0.4312988E+04  0.1783285E+04 -0.9274890E-02 -0.6462097E-02  0.1541180E+06  0.7556267E+03
  0.9785714E+00  0.4909595E+04  0.2220946E+04  0.1347229E-01  0.9937286E-02  0.1548228E+06  0.9624372E+03
  0.1009524E+01  0.5532634E+04  0.2742788E+04 -0.6045935E-03 -0.1255035E-02  0.1553734E+06  0.1216009E+04
  0.1040476E+01  0.6103717E+04  0.3359411E+04  0.5866079E-02  0.4852295E-02  0.1558423E+06  0.1525251E+04
  0.1071429E+01  0.6643058E+04  0.4082014E+04 -0.5013021E-02 -0.2090454E-02  0.1562280E+06  0.1900940E+04
  0.1102381E+01  0.7143913E+04  0.4924229E+04 -0.6643999E-02 -0.7942200E-02  0.1565556E+06  0.2355008E+04
  0.1133333E+01  0.7619105E+04  0.5891969E+04  0.7431928E-02  0.7354736E-02  0.1569924E+06  0.2895534E+04
  0.1164286E+01  0.8063258E+04  0.6990407E+04  0.1048457E-01  0.9017944E-02  0.1574290E+06  0.3522563E+04
  0.1195238E+01  0.8435707E+04  0.8221309E+04 -0.7966182E-02 -0.1684570E-01  0.1579205E+06  0.4238229E+04
  0.1226190E+01  0.8802043E+04  0.9584354E+04 -0.7864647E-02 -0.1504517E-01  0.1584434E+06  0.5051270E+04
  0.1257143E+01  0.9101771E+04  0.1111402E+05 -0.1854636E-01 -0.3813171E-01  0.1588500E+06  0.5985729E+04
  0.1288095E+01  0.9367725E+04  0.1274709E+05  0.7581446E-02  0.1766968E-01  0.1593017E+06  0.7025906E+04
  0.1319048E+01  0.9535580E+04  0.1453578E+05 -0.2406151E-02 -0.9704590E-02  0.1596774E+06  0.8194471E+04
  0.1350000E+01  0.9602252E+04  0.1645671E+05 -0.2260561E-02 -0.1239014E-01  0.1598550E+06  0.9477071E+04
  0.1380952E+01  0.9557398E+04  0.1848459E+05 -0.7513638E-02 -0.1922607E-01  0.1600658E+06  0.1086658E+05
  0.1411905E+01  0.6579015E+04  0.1873514E+05 -0.1054786E-01 -0.3771973E-01  0.1574251E+06  0.1123200E+05
  0.1442857E+01  0.6430468E+04  0.2079990E+05 -0.3891747E-02 -0.1843262E-01  0.1576227E+06  0.1273389E+05
  0.1473810E+01  0.6215703E+04  0.2292682E+05 -0.6626110E-03 -0.1315308E-01  0.1578252E+06  0.1433135E+05
  0.1504762E+01  0.5900021E+04  0.2510246E+05  0.7057673E-02 -0.1245117E-01  0.1579818E+06  0.1601489E+05
  0.1535714E+01  0.5502535E+04  0.2731532E+05  0.5087209E-02 -0.5493164E-02  0.1580218E+06  0.1777849E+05
  0.1566667E+01  0.4993318E+04  0.2956698E+05  0.9661735E-02  0.2374268E-01  0.1579104E+06  0.1962340E+05
  0.1597619E+01  0.4383098E+04  0.3181814E+05  0.1222522E-02 -0.1257324E-01  0.1577625E+06  0.2154090E+05
  0.1628572E+01  0.3716013E+04  0.3403865E+05 -0.1948842E-02 -0.3417969E-02  0.1575696E+06  0.2350462E+05
  0.1659524E+01  0.2964696E+04  0.3624429E+05  0.1029804E-02 -0.2832031E-01  0.1572854E+06  0.2550667E+05
  0.1690476E+01  0.2182103E+04  0.3840329E+05  0.3321688E-02 -0.1678467E-01  0.1569345E+06  0.2752277E+05
  0.1721429E+01  0.1356256E+04  0.4047230E+05  0.1418244E-02 -0.1354980E-01  0.1566037E+06  0.2954666E+05
  0.1752381E+01  0.5063759E+03  0.4246709E+05  0.7523247E-02 -0.1269531E-01  0.1562704E+06  0.3156830E+05
  0.1783333E+01 -0.3638150E+03  0.4441342E+05  0.5749854E-02  0.6469727E-02  0.1558076E+06  0.3358057E+05
  0.1814286E+01 -0.1289968E+04  0.4628137E+05 -0.1480223E-02  0.1794434E-01  0.1553006E+06  0.3559005E+05
  0.1845238E+01 -0.2233060E+04  0.4805023E+05  0.5556955E-02 -0.2368164E-01  0.1547896E+06  0.3758322E+05
  0.1876190E+01 -0.3187797E+04  0.4972341E+05  0.2862766E-02 -0.1586914E-02  0.1542297E+06  0.3955356E+05
  0.1907143E+01 -0.4170918E+04  0.5131888E+05  0.5120553E-03 -0.1013184E-01  0.1536282E+06  0.4150523E+05
  0.1938095E+01 -0.5132930E+04  0.5285621E+05  0.1637602E-02  0.1110840E-01  0.1529435E+06  0.4337838E+05
  0.1969048E+01 -0.6089888E+04  0.5424223E+05 -0.2851752E-02  0.5615234E-02  0.1523260E+06  0.4523704E+05
  0.2000000E+01 -0.7033157E+04  0.5552525E+05  0.4882812E-02 -0.1965332E-01  0.1517082E+06  0.4702316E+05
