VARIABLES="w (rad/s)"
"A   1   1" "B   1   1"
"A   1   2" "B   1   2"
"A   1   3" "B   1   3"
Zone t="Motion of body    1 in DoF   1",I=    64,F=POINT
  0.5000000E-01  0.1064178E+06  0.1137868E-01 -0.4730225E-02 -0.1672728E-04 -0.1544600E+06 -0.9582686E-02
  0.8095238E-01  0.1068488E+06  0.4993214E-01  0.1178068E-02  0.3438082E-04 -0.1548438E+06 -0.4159550E-01
  0.1119048E+00  0.1068979E+06  0.1397357E+00  0.5079229E-02  0.7327844E-04 -0.1549462E+06 -0.1153970E+00
  0.1428571E+00  0.1070549E+06  0.3141099E+00 -0.1359177E-01 -0.1222979E-03 -0.1549818E+06 -0.2588158E+00
  0.1738095E+00  0.1071443E+06  0.6238093E+00  0.3950563E-02  0.2894085E-05 -0.1549494E+06 -0.5115507E+00
  0.2047619E+00  0.1073297E+06  0.1147732E+01  0.7451967E-03  0.2923282E-04 -0.1549335E+06 -0.9360770E+00
  0.2357143E+00  0.1073983E+06  0.2014183E+01 -0.1126376E-01 -0.6618164E-04 -0.1550606E+06 -0.1633510E+01
  0.2666667E+00  0.1075932E+06  0.3423890E+01  0.9355544E-02  0.1165159E-03 -0.1549830E+06 -0.2753537E+01
  0.2976190E+00  0.1078498E+06  0.5721198E+01 -0.1048462E-01  0.1060218E-03 -0.1549468E+06 -0.4562922E+01
  0.3285715E+00  0.1079758E+06  0.9416709E+01 -0.1407126E-01 -0.2996512E-03 -0.1551240E+06 -0.7446084E+01
  0.3595238E+00  0.1082513E+06  0.1538477E+02 -0.8615658E-02  0.7167459E-04 -0.1550807E+06 -0.1203182E+02
  0.3904762E+00  0.1085859E+06  0.2494798E+02 -0.2555661E-01 -0.1144707E-02 -0.1550178E+06 -0.1927514E+02
  0.4214286E+00  0.1089003E+06  0.3988684E+02 -0.7784568E-02  0.1792610E-04 -0.1551456E+06 -0.3043736E+02
  0.4523810E+00  0.1091934E+06  0.6319276E+02  0.5194413E-02  0.5229115E-03 -0.1552395E+06 -0.4761151E+02
  0.4833333E+00  0.1096600E+06  0.9762661E+02  0.7955616E-02  0.1752377E-03 -0.1551407E+06 -0.7236667E+02
  0.5142857E+00  0.1101585E+06  0.1483300E+03  0.2966987E-03  0.4768372E-05 -0.1551920E+06 -0.1082169E+03
  0.5452381E+00  0.1105879E+06  0.2198128E+03 -0.1264947E-01 -0.1745701E-02 -0.1554548E+06 -0.1578650E+03
  0.5761905E+00  0.1110833E+06  0.3179373E+03 -0.9771929E-02 -0.7565022E-03 -0.1555415E+06 -0.2242153E+03
  0.6071429E+00  0.1117058E+06  0.4513589E+03  0.2613741E-02 -0.7772446E-03 -0.1555378E+06 -0.3120882E+03
  0.6380953E+00  0.1124080E+06  0.6264107E+03 -0.4256519E-02  0.8206367E-03 -0.1555553E+06 -0.4239652E+03
  0.6690477E+00  0.1130822E+06  0.8538478E+03  0.8210423E-03  0.4377365E-03 -0.1557720E+06 -0.5656853E+03
  0.7000000E+00  0.1136985E+06  0.1145445E+04 -0.6931849E-02 -0.5245686E-02 -0.1559950E+06 -0.7422740E+03
  0.7309524E+00  0.1144214E+06  0.1511994E+04  0.1210762E-01  0.4688263E-02 -0.1560330E+06 -0.9557454E+03
  0.7619048E+00  0.1152587E+06  0.1968495E+04  0.2283096E-01  0.4431725E-02 -0.1559579E+06 -0.1210872E+04
  0.7928572E+00  0.1161143E+06  0.2530093E+04  0.2001513E-02  0.3669739E-02 -0.1559379E+06 -0.1512891E+04
  0.8238096E+00  0.1169801E+06  0.3212677E+04 -0.1407689E-02 -0.1764297E-02 -0.1560008E+06 -0.1865326E+04
  0.8547620E+00  0.1177639E+06  0.4031528E+04 -0.3855926E-02 -0.4262924E-02 -0.1560811E+06 -0.2269763E+04
  0.8857143E+00  0.1185428E+06  0.5003410E+04  0.1760667E-01  0.5924225E-02 -0.1560542E+06 -0.2725474E+04
  0.9166667E+00  0.1193112E+06  0.6144140E+04  0.4960494E-02  0.2017975E-02 -0.1558991E+06 -0.3230912E+04
  0.9476191E+00  0.1201133E+06  0.7469836E+04 -0.1610224E-03 -0.4676819E-02 -0.1556353E+06 -0.3782375E+04
  0.9785714E+00  0.1208692E+06  0.8994458E+04  0.1309806E-02  0.1327515E-02 -0.1552842E+06 -0.4374481E+04
  0.1009524E+01  0.1215592E+06  0.1072985E+05 -0.5018127E-02 -0.2059937E-03 -0.1548872E+06 -0.4999147E+04
  0.1040476E+01  0.1221350E+06  0.1268558E+05 -0.1701163E-02 -0.5050659E-02 -0.1545454E+06 -0.5649672E+04
  0.1071429E+01  0.1225341E+06  0.1486477E+05 -0.8487956E-02 -0.3509521E-02 -0.1541509E+06 -0.6308465E+04
  0.1102381E+01  0.1228079E+06  0.1726541E+05 -0.4429333E-03 -0.3219604E-02 -0.1536464E+06 -0.6956130E+04
  0.1133333E+01  0.1229311E+06  0.1988018E+05  0.1831055E-02  0.1022339E-02 -0.1529970E+06 -0.7573120E+04
  0.1164286E+01  0.1229043E+06  0.2269627E+05 -0.5871357E-02  0.3631592E-02 -0.1522199E+06 -0.8137503E+04
  0.1195238E+01  0.1227372E+06  0.2570101E+05 -0.3829895E-02 -0.4470825E-02 -0.1514386E+06 -0.8636967E+04
  0.1226190E+01  0.1223272E+06  0.2886729E+05  0.9457487E-02  0.6805420E-02 -0.1505261E+06 -0.9034462E+04
  0.1257143E+01  0.1217549E+06  0.3218925E+05  0.7379705E-02 -0.3509521E-02 -0.1496370E+06 -0.9328001E+04
  0.1288095E+01  0.1210035E+06  0.3557325E+05  0.4122411E-02 -0.4547119E-02 -0.1486739E+06 -0.9473053E+04
  0.1319048E+01  0.1200547E+06  0.3903908E+05  0.1013360E-01  0.1800537E-02 -0.1477140E+06 -0.9475680E+04
  0.1350000E+01  0.1189106E+06  0.4252200E+05 -0.7505063E-02  0.5798340E-03 -0.1467124E+06 -0.9302322E+04
  0.1380952E+01  0.1176232E+06  0.4599557E+05  0.2475081E-02  0.1007080E-02 -0.1458234E+06 -0.8971894E+04
  0.1411905E+01  0.1158803E+06  0.4924874E+05 -0.6052053E-02 -0.4028320E-02 -0.1450453E+06 -0.8420504E+04
  0.1442857E+01  0.1142789E+06  0.5256661E+05  0.4991588E-02 -0.3051758E-03 -0.1441985E+06 -0.7714114E+04
  0.1473810E+01  0.1125455E+06  0.5575448E+05 -0.5093822E-02  0.1708984E-02 -0.1434010E+06 -0.6825445E+04
  0.1504762E+01  0.1106961E+06  0.5877761E+05  0.6530375E-02  0.6103516E-03 -0.1426483E+06 -0.5749918E+04
  0.1535714E+01  0.1087831E+06  0.6161530E+05 -0.3934638E-02 -0.1190186E-01 -0.1420002E+06 -0.4517575E+04
  0.1566667E+01  0.1068086E+06  0.6423536E+05  0.5999626E-02  0.9216309E-02 -0.1413929E+06 -0.3102358E+04
  0.1597619E+01  0.1048262E+06  0.6665470E+05 -0.3820382E-02  0.9033203E-02 -0.1409866E+06 -0.1603853E+04
  0.1628572E+01  0.1027752E+06  0.6882452E+05  0.1386676E-02 -0.6713867E-03 -0.1405777E+06  0.6804590E+02
  0.1659524E+01  0.1007783E+06  0.7077122E+05  0.6877620E-02  0.4028320E-02 -0.1403471E+06  0.1799898E+04
  0.1690476E+01  0.9880166E+05  0.7246748E+05 -0.3285582E-02  0.5493164E-03 -0.1401793E+06  0.3629621E+04
  0.1721429E+01  0.9683523E+05  0.7392945E+05 -0.2020998E-02 -0.5859375E-02 -0.1401016E+06  0.5524425E+04
  0.1752381E+01  0.9494224E+05  0.7516198E+05  0.1741492E-03 -0.9765625E-03 -0.1401368E+06  0.7445314E+04
  0.1783333E+01  0.9310553E+05  0.7616229E+05 -0.1197886E-02 -0.6713867E-03 -0.1402478E+06  0.9385418E+04
  0.1814286E+01  0.9133745E+05  0.7694175E+05  0.2960446E-02 -0.2990723E-02 -0.1404110E+06  0.1139649E+05
  0.1845238E+01  0.8966505E+05  0.7755918E+05  0.5656187E-02 -0.3662109E-03 -0.1407414E+06  0.1329255E+05
  0.1876190E+01  0.8801286E+05  0.7795004E+05 -0.2309731E-02 -0.1220703E-01 -0.1410301E+06  0.1528492E+05
  0.1907143E+01  0.8648393E+05  0.7820573E+05 -0.1024111E-02 -0.1342773E-02 -0.1414716E+06  0.1712389E+05
  0.1938095E+01  0.8503491E+05  0.7826914E+05 -0.1795063E-02 -0.4089355E-02 -0.1419158E+06  0.1901686E+05
  0.1969048E+01  0.8366270E+05  0.7820557E+05  0.9345686E-02  0.2990723E-02 -0.1424417E+06  0.2076032E+05
  0.2000000E+01  0.8235850E+05  0.7798643E+05  0.4287720E-02  0.3784180E-02 -0.1429724E+06  0.2249949E+05
Zone t="Motion of body    1 in DoF   2",I=    64,F=POINT
  0.5000000E-01 -0.1373291E-02  0.2431870E-04  0.7898520E+05  0.2292444E+03 -0.5035400E-02 -0.4768372E-06
  0.8095238E-01  0.2827364E-02 -0.1430511E-04  0.7793155E+05  0.3799455E+03  0.3392837E-02 -0.1668930E-03
  0.1119048E+00  0.5454205E-02 -0.5769730E-04  0.7739359E+05  0.5437247E+03 -0.1063570E-01 -0.9536743E-04
  0.1428571E+00  0.6408691E-03 -0.6198883E-05  0.7708011E+05  0.7267917E+03  0.2136230E-03 -0.7629395E-05
  0.1738095E+00  0.1430982E-01  0.9250641E-04  0.7698152E+05  0.9365896E+03 -0.1738248E-01  0.3051758E-04
  0.2047619E+00  0.4992818E-02  0.4005432E-04  0.7702423E+05  0.1182888E+04  0.5365416E-02 -0.1907349E-05
  0.2357143E+00  0.8868593E-02 -0.6580353E-04  0.7721513E+05  0.1478987E+04 -0.2602317E-01 -0.1335144E-03
  0.2666667E+00 -0.1945495E-02 -0.2861023E-04  0.7746120E+05  0.1835802E+04  0.1316070E-01  0.1602173E-03
  0.2976190E+00 -0.8408203E-02 -0.2422333E-03  0.7778723E+05  0.2278968E+04  0.2050781E-01  0.3509521E-03
  0.3285715E+00 -0.1337466E-01  0.2517700E-03  0.7819091E+05  0.2820586E+04  0.7244607E-02 -0.5493164E-03
  0.3595238E+00 -0.1358133E-02 -0.1083374E-02  0.7851626E+05  0.3491109E+04 -0.5432533E-02 -0.2822876E-03
  0.3904762E+00 -0.1563095E-03 -0.1754761E-03  0.7882141E+05  0.4311085E+04  0.8440714E-02 -0.9613037E-03
  0.4214286E+00  0.1846572E-01 -0.5340576E-03  0.7894191E+05  0.5271255E+04  0.4344875E-03  0.2685547E-02
  0.4523810E+00 -0.1619038E-02 -0.1228333E-02  0.7895673E+05  0.6419945E+04 -0.1052374E-01  0.1342773E-02
  0.4833333E+00  0.5430024E-02 -0.3280640E-03  0.7865445E+05  0.7658136E+04 -0.3788389E-02  0.1525879E-04
  0.5142857E+00  0.1661513E-02 -0.1045227E-02  0.7812230E+05  0.9045764E+04  0.2670288E-01 -0.6103516E-04
  0.5452381E+00 -0.1522414E-01 -0.5493164E-03  0.7746100E+05  0.1050089E+05  0.7835955E-03  0.7324219E-03
  0.5761905E+00 -0.4819759E-02 -0.3280640E-03  0.7660370E+05  0.1199638E+05 -0.2298654E-01 -0.2410889E-02
  0.6071429E+00  0.1171157E-01  0.1434326E-02  0.7552120E+05  0.1356894E+05  0.9952320E-02 -0.2044678E-02
  0.6380953E+00  0.8082603E-02 -0.2182007E-02  0.7439124E+05  0.1512329E+05 -0.6695648E-02  0.1708984E-02
  0.6690477E+00  0.1459631E-02 -0.4882812E-03  0.7316812E+05  0.1669022E+05  0.1642085E-02 -0.2746582E-03
  0.7000000E+00  0.3182547E-02 -0.1022339E-02  0.7183970E+05  0.1827615E+05  0.2179827E-01 -0.3723145E-02
  0.7309524E+00 -0.1002010E-02 -0.1403809E-02  0.7047315E+05  0.1983176E+05 -0.2054121E-01  0.1586914E-02
  0.7619048E+00 -0.1121521E-01 -0.5187988E-03  0.6902888E+05  0.2136383E+05  0.5287170E-02  0.2990723E-02
  0.7928572E+00  0.5427179E-02 -0.7324219E-03  0.6751191E+05  0.2286758E+05 -0.4618876E-03  0.2197266E-02
  0.8238096E+00 -0.1111334E-01  0.5920410E-02  0.6598562E+05  0.2432320E+05 -0.4593513E-02  0.7690430E-02
  0.8547620E+00 -0.7533336E-02 -0.1617432E-02  0.6446296E+05  0.2571664E+05  0.6426543E-02 -0.2624512E-02
  0.8857143E+00  0.1326530E-01  0.3570557E-02  0.6294689E+05  0.2704189E+05  0.9647493E-03 -0.6713867E-03
  0.9166667E+00  0.2530185E-02 -0.6439209E-02  0.6140950E+05  0.2829549E+05  0.1158558E-01 -0.3051758E-02
  0.9476191E+00  0.6376487E-02 -0.3021240E-02  0.5986058E+05  0.2946761E+05  0.9532525E-02  0.5676270E-02
  0.9785714E+00  0.8732037E-03 -0.2014160E-02  0.5831924E+05  0.3055570E+05  0.7484603E-03  0.1153564E-01
  0.1009524E+01 -0.7406271E-02 -0.9765625E-03  0.5681265E+05  0.3154698E+05 -0.1584035E-01 -0.1159668E-02
  0.1040476E+01  0.2053128E-02 -0.8544922E-03  0.5534833E+05  0.3243578E+05 -0.5279471E-02  0.9643555E-02
  0.1071429E+01 -0.1273193E-01 -0.2441406E-03  0.5392804E+05  0.3322176E+05  0.4785156E-02 -0.8056641E-02
  0.1102381E+01 -0.1259592E-01 -0.2014160E-02  0.5257077E+05  0.3389884E+05  0.3543466E-02 -0.5004883E-02
  0.1133333E+01 -0.9236055E-02 -0.8239746E-03  0.5124901E+05  0.3447496E+05  0.5062328E-02 -0.7568359E-02
  0.1164286E+01 -0.5792723E-02  0.2471924E-02  0.4998985E+05  0.3494554E+05  0.2128367E-01  0.1037598E-01
  0.1195238E+01 -0.9268346E-02 -0.2441406E-03  0.4878191E+05  0.3530991E+05  0.1021305E-01  0.8422852E-02
  0.1226190E+01  0.3434561E-02 -0.1220703E-02  0.4762907E+05  0.3558517E+05 -0.1025391E-01 -0.4882812E-02
  0.1257143E+01  0.2233332E-02 -0.1708984E-02  0.4653839E+05  0.3576930E+05  0.1029275E-01 -0.4516602E-02
  0.1288095E+01 -0.9002968E-03 -0.4547119E-02  0.4552529E+05  0.3582725E+05 -0.1307799E-01 -0.1220703E-03
  0.1319048E+01  0.1353460E-01  0.5310059E-02  0.4457293E+05  0.3580753E+05 -0.1471454E-01 -0.5981445E-02
  0.1350000E+01 -0.5289713E-02  0.3967285E-02  0.4369576E+05  0.3569752E+05 -0.7143374E-02 -0.4882812E-03
  0.1380952E+01  0.6740176E-02  0.5126953E-02  0.4289640E+05  0.3549551E+05 -0.3182247E-02 -0.3906250E-02
  0.1411905E+01  0.5749450E-02 -0.2441406E-03  0.4217612E+05  0.3531740E+05 -0.1123953E-02  0.8178711E-02
  0.1442857E+01 -0.5372302E-02  0.1220703E-02  0.4151029E+05  0.3496213E+05 -0.3028794E-01 -0.7324219E-03
  0.1473810E+01 -0.9152315E-02  0.1159668E-02  0.4091612E+05  0.3453820E+05  0.8282638E-02  0.1586914E-02
  0.1504762E+01 -0.1845541E-02  0.1586914E-02  0.4038812E+05  0.3405170E+05 -0.9653598E-02 -0.2075195E-02
  0.1535714E+01  0.1589753E-03 -0.1647949E-02  0.3994388E+05  0.3352621E+05 -0.1176417E-01 -0.2319336E-02
  0.1566667E+01  0.9408504E-02  0.1831055E-02  0.3957466E+05  0.3295559E+05  0.1402510E-02 -0.4882812E-03
  0.1597619E+01  0.4813682E-02  0.1831055E-02  0.3927906E+05  0.3235843E+05  0.9627364E-02 -0.1342773E-02
  0.1628572E+01 -0.4178767E-02 -0.3417969E-02  0.3903441E+05  0.3175176E+05  0.4797149E-02  0.6103516E-03
  0.1659524E+01 -0.1728600E-02  0.2258301E-02  0.3887247E+05  0.3112868E+05  0.1088650E-01 -0.2197266E-02
  0.1690476E+01  0.6318428E-02  0.6103516E-03  0.3877754E+05  0.3050826E+05  0.1400886E-01 -0.6225586E-02
  0.1721429E+01  0.4573838E-02 -0.3601074E-02  0.3872455E+05  0.2991615E+05 -0.7587607E-02  0.2075195E-02
  0.1752381E+01  0.8515897E-02  0.3295898E-02  0.3873634E+05  0.2936280E+05 -0.2340566E-01 -0.7324219E-03
  0.1783333E+01  0.4808658E-02 -0.5493164E-03  0.3879490E+05  0.2887770E+05 -0.7666472E-02  0.4516602E-02
  0.1814286E+01 -0.3431425E-02 -0.2502441E-02  0.3889309E+05  0.2845719E+05  0.3700557E-02  0.5126953E-02
  0.1845238E+01 -0.1984627E-03  0.2502441E-02  0.3902038E+05  0.2812895E+05  0.3241557E-02  0.2319336E-02
  0.1876190E+01  0.5172497E-02  0.4577637E-02  0.3914214E+05  0.2789847E+05  0.7482229E-02 -0.2319336E-02
  0.1907143E+01 -0.1059314E-01 -0.6347656E-02  0.3928350E+05  0.2776729E+05 -0.5760622E-02 -0.4760742E-02
  0.1938095E+01 -0.5479667E-02  0.1892090E-02  0.3942727E+05  0.2772352E+05  0.2141479E-02 -0.9765625E-03
  0.1969048E+01  0.3843665E-02 -0.4028320E-02  0.3953571E+05  0.2779047E+05  0.0000000E+00 -0.1098633E-02
  0.2000000E+01 -0.6439209E-02 -0.1708984E-02  0.3961201E+05  0.2793630E+05 -0.5126953E-02 -0.1220703E-03
Zone t="Motion of body    1 in DoF   3",I=    64,F=POINT
  0.5000000E-01 -0.1524851E+06 -0.8771673E-02  0.3910065E-02  0.1126636E-04  0.6960814E+06  0.8189200E-02
  0.8095238E-01 -0.1529829E+06 -0.3791757E-01 -0.3487082E-02 -0.7598136E-04  0.6959896E+06  0.3179022E-01
  0.1119048E+00 -0.1530754E+06 -0.1054556E+00 -0.2863458E-01 -0.1942319E-03  0.6960745E+06  0.8624312E-01
  0.1428571E+00 -0.1531441E+06 -0.2363863E+00 -0.2293777E-01 -0.2221719E-03  0.6958594E+06  0.1937498E+00
  0.1738095E+00 -0.1530748E+06 -0.4671023E+00 -0.4569485E-01 -0.5694239E-03  0.6961786E+06  0.3824371E+00
  0.2047619E+00 -0.1530764E+06 -0.8547053E+00 -0.3595574E-02 -0.1346031E-03  0.6961141E+06  0.6989498E+00
  0.2357143E+00 -0.1531826E+06 -0.1489928E+01  0.3074877E-01  0.9399131E-03  0.6960641E+06  0.1208685E+01
  0.2666667E+00 -0.1530830E+06 -0.2512562E+01 -0.2449035E-01 -0.9687636E-03  0.6962586E+06  0.2018645E+01
  0.2976190E+00 -0.1530580E+06 -0.4163910E+01 -0.6331787E-02  0.6210208E-03  0.6962041E+06  0.3321405E+01
  0.3285715E+00 -0.1532111E+06 -0.6782366E+01  0.1695052E-01  0.4636310E-03  0.6960813E+06  0.5363279E+01
  0.3595238E+00 -0.1531364E+06 -0.1095980E+02 -0.2947573E-01 -0.2007820E-02  0.6963343E+06  0.8568892E+01
  0.3904762E+00 -0.1530730E+06 -0.1755617E+02 -0.1860083E-01 -0.6172806E-04  0.6963716E+06  0.1356323E+02
  0.4214286E+00 -0.1531983E+06 -0.2769350E+02  0.6988007E-02  0.1542345E-02  0.6961438E+06  0.2112576E+02
  0.4523810E+00 -0.1532326E+06 -0.4327147E+02  0.3386487E-01  0.1562834E-02  0.6964345E+06  0.3263990E+02
  0.4833333E+00 -0.1530992E+06 -0.6580269E+02  0.5808863E-02  0.5667508E-03  0.6968346E+06  0.4877014E+02
  0.5142857E+00 -0.1531655E+06 -0.9835805E+02 -0.1857334E-01  0.4774332E-03  0.6966293E+06  0.7172309E+02
  0.5452381E+00 -0.1534070E+06 -0.1431382E+03  0.2087722E-01  0.7675886E-03  0.6964196E+06  0.1028075E+03
  0.5761905E+00 -0.1534298E+06 -0.2030870E+03  0.2849484E-01  0.7736683E-02  0.6967886E+06  0.1431777E+03
  0.6071429E+00 -0.1533878E+06 -0.2826490E+03  0.4563993E-01  0.7282138E-02  0.6971008E+06  0.1956659E+03
  0.6380953E+00 -0.1533992E+06 -0.3837682E+03  0.4973909E-02  0.3757477E-02  0.6971312E+06  0.2596370E+03
  0.6690477E+00 -0.1536088E+06 -0.5107498E+03  0.6933246E-01  0.1819444E-01  0.6968452E+06  0.3383788E+03
  0.7000000E+00 -0.1537717E+06 -0.6683419E+03  0.4100254E-01  0.1596737E-01  0.6968785E+06  0.4335051E+03
  0.7309524E+00 -0.1537415E+06 -0.8596436E+03 -0.6897171E-01 -0.1903296E-01  0.6972918E+06  0.5431855E+03
  0.7619048E+00 -0.1536281E+06 -0.1088716E+04 -0.3302478E-01 -0.6211758E-02  0.6975276E+06  0.6689037E+03
  0.7928572E+00 -0.1535922E+06 -0.1358314E+04 -0.2372948E-01 -0.5132675E-02  0.6975088E+06  0.8110461E+03
  0.8238096E+00 -0.1536392E+06 -0.1669797E+04 -0.2087455E-01 -0.3238678E-02  0.6972784E+06  0.9689514E+03
  0.8547620E+00 -0.1536786E+06 -0.2023986E+04  0.4112987E-01  0.1427841E-01  0.6970796E+06  0.1140494E+04
  0.8857143E+00 -0.1535940E+06 -0.2422999E+04 -0.1123244E-01 -0.5374908E-02  0.6970972E+06  0.1320831E+04
  0.9166667E+00 -0.1533878E+06 -0.2866258E+04  0.7790305E-02  0.3232956E-02  0.6973031E+06  0.1505335E+04
  0.9476191E+00 -0.1530925E+06 -0.3348539E+04  0.2598901E-01  0.1265335E-01  0.6974028E+06  0.1688906E+04
  0.9785714E+00 -0.1527259E+06 -0.3863277E+04  0.8451364E-02  0.3704071E-02  0.6974120E+06  0.1867526E+04
  0.1009524E+01 -0.1523268E+06 -0.4399053E+04 -0.1692862E-02  0.4608154E-02  0.6972122E+06  0.2037347E+04
  0.1040476E+01 -0.1519755E+06 -0.4940959E+04  0.9737691E-02  0.4566193E-02  0.6968436E+06  0.2195399E+04
  0.1071429E+01 -0.1515693E+06 -0.5478727E+04 -0.4386393E-02  0.9307861E-03  0.6965367E+06  0.2334933E+04
  0.1102381E+01 -0.1510440E+06 -0.6000638E+04 -0.8332683E-02 -0.1489258E-01  0.6963551E+06  0.2438577E+04
  0.1133333E+01 -0.1503860E+06 -0.6494867E+04  0.2458460E-01  0.1089859E-01  0.6963591E+06  0.2497778E+04
  0.1164286E+01 -0.1496193E+06 -0.6936211E+04 -0.8387653E-03 -0.3242493E-02  0.6963720E+06  0.2510177E+04
  0.1195238E+01 -0.1488458E+06 -0.7293328E+04 -0.1863882E-02  0.5733490E-02  0.6962606E+06  0.2474115E+04
  0.1226190E+01 -0.1479751E+06 -0.7554598E+04  0.4977624E-04  0.1102448E-02  0.6961151E+06  0.2393594E+04
  0.1257143E+01 -0.1471230E+06 -0.7683203E+04  0.7743835E-02 -0.4909515E-02  0.6958739E+06  0.2247804E+04
  0.1288095E+01 -0.1462218E+06 -0.7706065E+04  0.1229616E-01 -0.1430893E-01  0.6958069E+06  0.2050406E+04
  0.1319048E+01 -0.1453263E+06 -0.7573788E+04 -0.2072992E-01 -0.2419281E-01  0.6957443E+06  0.1797786E+04
  0.1350000E+01 -0.1444014E+06 -0.7278882E+04  0.1180013E-01  0.2441406E-02  0.6957187E+06  0.1516829E+04
  0.1380952E+01 -0.1435738E+06 -0.6808609E+04 -0.1630902E-01 -0.1552963E-01  0.6957556E+06  0.1216934E+04
  0.1411905E+01 -0.1437376E+06 -0.6878668E+04  0.1141244E-01  0.1108170E-01  0.6950624E+06  0.1029710E+04
  0.1442857E+01 -0.1429402E+06 -0.6111431E+04  0.1780897E-01  0.3257751E-02  0.6952017E+06  0.6986445E+03
  0.1473810E+01 -0.1421965E+06 -0.5181645E+04  0.1652386E-01  0.3532410E-02  0.6954846E+06  0.4016311E+03
  0.1504762E+01 -0.1414922E+06 -0.4079000E+04 -0.2514803E-02 -0.1371765E-01  0.6957886E+06  0.1263808E+03
  0.1535714E+01 -0.1408788E+06 -0.2820516E+04  0.1104878E-01 -0.5197525E-02  0.6961587E+06 -0.1114843E+03
  0.1566667E+01 -0.1403083E+06 -0.1395026E+04  0.1414197E-01  0.8241653E-02  0.6964548E+06 -0.3416507E+03
  0.1597619E+01 -0.1399180E+06  0.1450810E+03 -0.8175618E-02 -0.7605016E-02  0.6968739E+06 -0.4738788E+03
  0.1628572E+01 -0.1395548E+06  0.1793557E+04  0.1334207E-01  0.1527786E-01  0.6972932E+06 -0.5301218E+03
  0.1659524E+01 -0.1393326E+06  0.3550118E+04  0.1831580E-01  0.3721237E-02  0.6977409E+06 -0.5210285E+03
  0.1690476E+01 -0.1391678E+06  0.5392586E+04  0.1516423E-02  0.1875305E-01  0.6982150E+06 -0.4161452E+03
  0.1721429E+01 -0.1390989E+06  0.7273129E+04  0.1666437E-01  0.6637573E-02  0.6987178E+06 -0.2335681E+03
  0.1752381E+01 -0.1391140E+06  0.9213634E+04 -0.1128487E-01 -0.8758545E-02  0.6991974E+06  0.8071899E-01
  0.1783333E+01 -0.1392059E+06  0.1116027E+05 -0.2690110E-01 -0.4997253E-02  0.6997751E+06  0.4637192E+03
  0.1814286E+01 -0.1393480E+06  0.1320436E+05  0.1537413E-01  0.5577087E-02  0.7001052E+06  0.8021693E+03
  0.1845238E+01 -0.1396409E+06  0.1518600E+05  0.7839276E-02  0.3677368E-02  0.7005649E+06  0.1390176E+04
  0.1876190E+01 -0.1399270E+06  0.1717533E+05 -0.7156914E-03  0.4165649E-02  0.7009682E+06  0.2040291E+04
  0.1907143E+01 -0.1403337E+06  0.1910536E+05  0.3840415E-02  0.4318237E-02  0.7014308E+06  0.2892033E+04
  0.1938095E+01 -0.1407414E+06  0.2110304E+05 -0.1278589E-01 -0.3616333E-02  0.7017179E+06  0.3589324E+04
  0.1969048E+01 -0.1412297E+06  0.2295863E+05 -0.1060108E-01 -0.7629395E-03  0.7021426E+06  0.4614507E+04
  0.2000000E+01 -0.1417305E+06  0.2480537E+05  0.2389526E-01  0.5737305E-02  0.7024785E+06  0.5586797E+04
