VARIABLES="w (rad/s)"
"A   1   1" "B   1   1"
"A   1   2" "B   1   2"
"A   1   3" "B   1   3"
Zone t="Motion of body    1 in DoF   1",I=    64,F=POINT
  0.5000000E-01  0.2071388E+05  0.6153479E-03 -0.2045631E-02 -0.3823956E-05  0.2611374E+03  0.9739943E-05
  0.8095238E-01  0.2074692E+05  0.2652024E-02 -0.1466695E-02 -0.1299531E-04  0.2633551E+03  0.4392983E-04
  0.1119048E+00  0.2072388E+05  0.7459214E-02  0.1661828E-03 -0.2522158E-05  0.2626642E+03  0.1216572E-03
  0.1428571E+00  0.2079509E+05  0.1682213E-01  0.1228333E-02  0.1867183E-04  0.2651862E+03  0.2753696E-03
  0.1738095E+00  0.2080397E+05  0.3351963E-01  0.6090451E-03  0.1228618E-04  0.2629638E+03  0.5477124E-03
  0.2047619E+00  0.2087532E+05  0.6198827E-01  0.1509023E-02  0.3162131E-05  0.2660751E+03  0.1015872E-02
  0.2357143E+00  0.2085238E+05  0.1092431E+00  0.1699274E-03  0.1055101E-04  0.2657431E+03  0.1798794E-02
  0.2666667E+00  0.2092511E+05  0.1868834E+00 -0.4459620E-02 -0.5491907E-04  0.2659384E+03  0.3086284E-02
  0.2976190E+00  0.2098178E+05  0.3141701E+00  0.3505554E-02  0.5286187E-04  0.2698232E+03  0.5226419E-02
  0.3285715E+00  0.2099318E+05  0.5208662E+00 -0.2287159E-02 -0.9440363E-04  0.2696205E+03  0.8699998E-02
  0.3595238E+00  0.2103521E+05  0.8575026E+00  0.2122083E-03  0.2897973E-04  0.2705003E+03  0.1439340E-01
  0.3904762E+00  0.2112538E+05  0.1402981E+01  0.1538672E-02 -0.3148220E-04  0.2735367E+03  0.2371008E-01
  0.4214286E+00  0.2117733E+05  0.2264051E+01 -0.8508714E-02 -0.3207256E-03  0.2766845E+03  0.3857068E-01
  0.4523810E+00  0.2121217E+05  0.3620562E+01  0.1366063E-02  0.1280578E-03  0.2781049E+03  0.6211428E-01
  0.4833333E+00  0.2131668E+05  0.5655255E+01  0.5828594E-02  0.2328400E-03  0.2824671E+03  0.9794591E-01
  0.5142857E+00  0.2144850E+05  0.8692265E+01  0.1168251E-02  0.9906292E-04  0.2906477E+03  0.1524699E+00
  0.5452381E+00  0.2149801E+05  0.1302869E+02 -0.1476238E-02 -0.1172386E-03  0.2878702E+03  0.2294424E+00
  0.5761905E+00  0.2154375E+05  0.1907088E+02  0.3018970E-02  0.3220923E-03  0.2905828E+03  0.3391114E+00
  0.6071429E+00  0.2168855E+05  0.2744505E+02  0.1803230E-02  0.4075244E-03  0.2969149E+03  0.4935474E+00
  0.6380953E+00  0.2183936E+05  0.3863575E+02 -0.4985866E-02 -0.5963743E-03  0.3027968E+03  0.7026768E+00
  0.6690477E+00  0.2195402E+05  0.5343921E+02  0.8381473E-03 -0.2874434E-04  0.3076418E+03  0.9830392E+00
  0.7000000E+00  0.2203142E+05  0.7277083E+02  0.8174351E-03  0.2979338E-03  0.3078622E+03  0.1349292E+01
  0.7309524E+00  0.2215668E+05  0.9763507E+02  0.1440390E-02  0.1973808E-03  0.3107404E+03  0.1827851E+01
  0.7619048E+00  0.2232533E+05  0.1293690E+03 -0.1752376E-03 -0.1039088E-02  0.3185087E+03  0.2455366E+01
  0.7928572E+00  0.2252596E+05  0.1694467E+03  0.1664720E-02  0.7473528E-03  0.3277494E+03  0.3263188E+01
  0.8238096E+00  0.2271691E+05  0.2194425E+03 -0.3935974E-03 -0.6787181E-03  0.3345692E+03  0.4279523E+01
  0.8547620E+00  0.2286416E+05  0.2810455E+03  0.1008610E-02  0.3238320E-03  0.3370710E+03  0.5536601E+01
  0.8857143E+00  0.2300211E+05  0.3563932E+03  0.2545387E-02  0.1578987E-02  0.3414706E+03  0.7106962E+01
  0.9166667E+00  0.2319653E+05  0.4480928E+03 -0.1215154E-02 -0.5218983E-03  0.3490556E+03  0.9058798E+01
  0.9476191E+00  0.2342583E+05  0.5587455E+03  0.2576358E-02  0.6296635E-03  0.3574700E+03  0.1144967E+02
  0.9785714E+00  0.2367157E+05  0.6912537E+03 -0.1648952E-02 -0.9950399E-03  0.3662301E+03  0.1436359E+02
  0.1009524E+01  0.2391550E+05  0.8486833E+03  0.3211903E-03 -0.7200241E-03  0.3772012E+03  0.1791801E+02
  0.1040476E+01  0.2416338E+05  0.1034540E+04  0.1345532E-02  0.1291513E-02  0.3884353E+03  0.2220017E+02
  0.1071429E+01  0.2438808E+05  0.1252050E+04  0.2506511E-02  0.6058216E-03  0.3947826E+03  0.2721958E+02
  0.1102381E+01  0.2459224E+05  0.1504952E+04  0.3079771E-02  0.2498150E-02  0.4000868E+03  0.3312361E+02
  0.1133333E+01  0.2481760E+05  0.1797539E+04  0.7674273E-03 -0.4100800E-03  0.4082892E+03  0.4011940E+02
  0.1164286E+01  0.2506140E+05  0.2133856E+04 -0.2765304E-02 -0.2562523E-02  0.4195908E+03  0.4837455E+02
  0.1195238E+01  0.2533113E+05  0.2518576E+04  0.2112826E-02  0.2081871E-02  0.4330126E+03  0.5807694E+02
  0.1226190E+01  0.2560270E+05  0.2955620E+04 -0.7155335E-03 -0.7181168E-03  0.4448279E+03  0.6924730E+02
  0.1257143E+01  0.2584018E+05  0.3449080E+04  0.2694563E-02  0.2437115E-02  0.4559370E+03  0.8208361E+02
  0.1288095E+01  0.2611069E+05  0.4003337E+04 -0.1006911E-03  0.8401871E-03  0.4687491E+03  0.9683479E+02
  0.1319048E+01  0.2632121E+05  0.4621308E+04 -0.4303309E-02 -0.4652977E-02  0.4792104E+03  0.1136110E+03
  0.1350000E+01  0.2649950E+05  0.5306041E+04  0.2096671E-02 -0.1716614E-04  0.4883052E+03  0.1325808E+03
  0.1380952E+01  0.2665400E+05  0.6060815E+04  0.1475104E-02  0.1040459E-02  0.4979793E+03  0.1540163E+03
  0.1411905E+01  0.2666610E+05  0.6848250E+04  0.1853441E-02  0.7400513E-03  0.4965160E+03  0.1760511E+03
  0.1442857E+01  0.2678392E+05  0.7738326E+04 -0.2643850E-03 -0.2403259E-03  0.5057928E+03  0.2021236E+03
  0.1473810E+01  0.2687356E+05  0.8698053E+04 -0.2847157E-03 -0.1895905E-02  0.5136483E+03  0.2306484E+03
  0.1504762E+01  0.2693402E+05  0.9726853E+04 -0.7148936E-03 -0.1003265E-02  0.5218710E+03  0.2622611E+03
  0.1535714E+01  0.2694621E+05  0.1082150E+05 -0.9935955E-04  0.2740860E-02  0.5295350E+03  0.2969521E+03
  0.1566667E+01  0.2691830E+05  0.1197933E+05  0.2566398E-02  0.3732681E-02  0.5366243E+03  0.3346710E+03
  0.1597619E+01  0.2684567E+05  0.1319514E+05  0.4679968E-03 -0.1791000E-02  0.5433711E+03  0.3754140E+03
  0.1628572E+01  0.2672806E+05  0.1445886E+05  0.2154969E-03 -0.1533508E-02  0.5475703E+03  0.4184993E+03
  0.1659524E+01  0.2656177E+05  0.1576138E+05 -0.1163127E-02 -0.4175186E-02  0.5499258E+03  0.4639053E+03
  0.1690476E+01  0.2634220E+05  0.1709404E+05 -0.1692436E-02  0.3618240E-02  0.5494455E+03  0.5110646E+03
  0.1721429E+01  0.2607965E+05  0.1844851E+05  0.1529045E-02  0.5067825E-02  0.5482305E+03  0.5607678E+03
  0.1752381E+01  0.2576243E+05  0.1981523E+05 -0.7444880E-03  0.6752014E-03  0.5458167E+03  0.6130162E+03
  0.1783333E+01  0.2539772E+05  0.2118331E+05 -0.1018203E-02 -0.2113342E-02  0.5423463E+03  0.6672148E+03
  0.1814286E+01  0.2499436E+05  0.2254024E+05 -0.1068115E-02  0.4497528E-02  0.5379207E+03  0.7228665E+03
  0.1845238E+01  0.2455291E+05  0.2387382E+05 -0.7028887E-04 -0.3120422E-02  0.5322539E+03  0.7796782E+03
  0.1876190E+01  0.2407665E+05  0.2517400E+05 -0.1024740E-02  0.4299164E-02  0.5240167E+03  0.8365193E+03
  0.1907143E+01  0.2356938E+05  0.2643193E+05  0.3240350E-03  0.2658844E-02  0.5141339E+03  0.8934534E+03
  0.1938095E+01  0.2302729E+05  0.2763989E+05 -0.2763453E-02 -0.1415253E-02  0.5019840E+03  0.9502992E+03
  0.1969048E+01  0.2246418E+05  0.2879060E+05 -0.4339622E-03  0.4577637E-02  0.4887152E+03  0.1006838E+04
  0.2000000E+01  0.2188460E+05  0.2987740E+05 -0.1640320E-03 -0.1014709E-02  0.4748598E+03  0.1063053E+04
Zone t="Motion of body    1 in DoF   2",I=    64,F=POINT
  0.5000000E-01 -0.2493858E-02 -0.7629395E-05  0.3526689E+05  0.6620038E+02  0.3957748E-03  0.6109476E-06
  0.8095238E-01  0.2226549E-02 -0.1110137E-04  0.3503633E+05  0.1098941E+03  0.3887625E-03 -0.1162291E-05
  0.1119048E+00 -0.1725745E-02 -0.9819865E-05  0.3491368E+05  0.1576432E+03 -0.2215771E-03 -0.6854534E-06
  0.1428571E+00 -0.1802444E-03 -0.3242493E-04  0.3485341E+05  0.2113428E+03 -0.2737045E-03  0.1430511E-05
  0.1738095E+00  0.5102811E-03  0.5185604E-05  0.3486198E+05  0.2734434E+03 -0.1536330E-03  0.2086163E-06
  0.2047619E+00  0.2352027E-02 -0.2110004E-04  0.3492743E+05  0.3469276E+03  0.9314958E-04  0.5364418E-05
  0.2357143E+00  0.2872583E-02  0.9238720E-05  0.3502971E+05  0.4360973E+03 -0.3317630E-03 -0.1788139E-05
  0.2666667E+00  0.2735853E-02 -0.4583597E-04  0.3517659E+05  0.5448363E+03 -0.3576278E-04 -0.7808208E-05
  0.2976190E+00 -0.2005921E-02 -0.2628565E-04  0.3534229E+05  0.6810735E+03  0.3460693E-03  0.2980232E-05
  0.3285715E+00 -0.7459391E-02  0.9417534E-05  0.3554192E+05  0.8499167E+03  0.1741492E-04 -0.1215935E-04
  0.3595238E+00 -0.2970916E-03 -0.1331568E-03  0.3573347E+05  0.1061233E+04  0.5729625E-03 -0.1311302E-05
  0.3904762E+00  0.7962017E-03  0.2729893E-04  0.3593575E+05  0.1323613E+04  0.4249665E-03 -0.2431870E-04
  0.4214286E+00 -0.4258883E-02 -0.2241135E-04  0.3606824E+05  0.1635853E+04  0.4209098E-03  0.2336502E-04
  0.4523810E+00  0.1294387E-02  0.2932549E-03  0.3619272E+05  0.2014523E+04  0.3120021E-03 -0.1621246E-04
  0.4833333E+00  0.2466399E-02  0.2031326E-03  0.3622411E+05  0.2432756E+04  0.8681724E-04 -0.1192093E-04
  0.5142857E+00 -0.4546907E-02  0.6985664E-04  0.3619332E+05  0.2909480E+04  0.6675721E-04 -0.8583069E-05
  0.5452381E+00 -0.1630159E-02 -0.4420280E-03  0.3610660E+05  0.3423072E+04 -0.6996388E-04 -0.1573563E-04
  0.5761905E+00 -0.2661461E-02  0.6060600E-03  0.3595613E+05  0.3966293E+04 -0.5296439E-04 -0.9536743E-04
  0.6071429E+00 -0.7728127E-03 -0.5154610E-03  0.3575380E+05  0.4550961E+04 -0.4335291E-03  0.3623962E-04
  0.6380953E+00 -0.1907064E-02  0.9603500E-03  0.3551968E+05  0.5148627E+04 -0.7771733E-04 -0.4673004E-04
  0.6690477E+00  0.5456510E-02  0.1045704E-02  0.3523868E+05  0.5771988E+04 -0.1824538E-03  0.7152557E-04
  0.7000000E+00  0.3035409E-02 -0.4258156E-03  0.3491889E+05  0.6422625E+04  0.4904611E-03 -0.2956390E-04
  0.7309524E+00 -0.1299482E-02  0.4730225E-03  0.3458005E+05  0.7085233E+04  0.1409077E-03  0.1716614E-04
  0.7619048E+00  0.4240751E-02  0.1102448E-02  0.3420263E+05  0.7763667E+04 -0.7009505E-04  0.3814697E-05
  0.7928572E+00  0.4233970E-02  0.8707047E-03  0.3379780E+05  0.8454742E+04  0.6254728E-04  0.7438660E-04
  0.8238096E+00 -0.2468087E-02 -0.1511574E-02  0.3336347E+05  0.9154057E+04  0.3704446E-04  0.6294250E-04
  0.8547620E+00 -0.2530451E-02 -0.3690720E-03  0.3290423E+05  0.9857134E+04 -0.1785151E-04 -0.1525879E-04
  0.8857143E+00 -0.1511728E-02 -0.2670288E-03  0.3242792E+05  0.1056015E+05  0.3273256E-03 -0.2288818E-04
  0.9166667E+00  0.4827326E-03  0.1143456E-02  0.3194193E+05  0.1125885E+05  0.4494407E-03  0.1277924E-03
  0.9476191E+00  0.4436167E-02 -0.8907318E-03  0.3143208E+05  0.1195125E+05  0.2858147E-03  0.1049042E-03
  0.9785714E+00  0.4950753E-03 -0.1019478E-02  0.3090382E+05  0.1263348E+05  0.1169469E-04 -0.1049042E-03
  0.1009524E+01  0.2569523E-02 -0.3576279E-03  0.3036196E+05  0.1330206E+05  0.1511484E-04 -0.9536743E-04
  0.1040476E+01 -0.1576509E-02  0.1159668E-02  0.2981761E+05  0.1395254E+05  0.7332599E-05 -0.1106262E-03
  0.1071429E+01  0.1402791E-02  0.2721786E-02  0.2926820E+05  0.1458257E+05 -0.4272461E-04  0.3433228E-04
  0.1102381E+01 -0.1442994E-02 -0.6008148E-03  0.2871501E+05  0.1518994E+05  0.3806458E-03 -0.1354218E-03
  0.1133333E+01 -0.6900114E-03  0.7705688E-03  0.2815783E+05  0.1577308E+05  0.1413682E-03  0.2098083E-04
  0.1164286E+01 -0.2260735E-03  0.1482010E-02  0.2760411E+05  0.1632982E+05 -0.8518710E-04 -0.2059937E-03
  0.1195238E+01  0.1209609E-02  0.2498627E-03  0.2705634E+05  0.1685747E+05  0.1212800E-03 -0.2288818E-03
  0.1226190E+01  0.1353292E-02  0.1764297E-02  0.2651564E+05  0.1735392E+05  0.4293201E-03 -0.9727478E-04
  0.1257143E+01 -0.9710138E-03  0.2765656E-02  0.2597992E+05  0.1783355E+05  0.1638586E-03 -0.1697540E-03
  0.1288095E+01 -0.4649559E-03  0.1508713E-02  0.2544574E+05  0.1825205E+05  0.3731493E-03 -0.2155304E-03
  0.1319048E+01  0.2469775E-02  0.3242493E-03  0.2491927E+05  0.1865318E+05  0.1677365E-03  0.8964539E-04
  0.1350000E+01 -0.1316777E-02  0.3433228E-02  0.2440743E+05  0.1901871E+05  0.3447356E-03 -0.2193451E-03
  0.1380952E+01  0.3303791E-02  0.1689911E-02  0.2391282E+05  0.1934594E+05 -0.2486130E-03 -0.2670288E-04
  0.1411905E+01 -0.1602173E-02 -0.2103806E-02  0.2343408E+05  0.1965583E+05 -0.2593737E-03 -0.2899170E-03
  0.1442857E+01 -0.8936212E-03  0.4325867E-02  0.2296658E+05  0.1991693E+05  0.2062203E-03  0.9918213E-04
  0.1473810E+01  0.1048271E-02  0.1438141E-02  0.2251299E+05  0.2014462E+05 -0.1294162E-03 -0.3242493E-04
  0.1504762E+01  0.5019465E-03  0.4564285E-02  0.2207252E+05  0.2033960E+05  0.1774558E-03 -0.8010864E-04
  0.1535714E+01  0.2374693E-02  0.8735657E-03  0.2164553E+05  0.2050270E+05  0.1589753E-03  0.3585815E-03
  0.1566667E+01  0.3367485E-02  0.7762909E-03  0.2123777E+05  0.2063269E+05  0.4041956E-03  0.8583069E-04
  0.1597619E+01  0.2268352E-02  0.6351471E-03  0.2084789E+05  0.2072874E+05  0.4536704E-03  0.1430511E-03
  0.1628572E+01 -0.3546330E-02 -0.4768372E-03  0.2047552E+05  0.2079247E+05  0.1920733E-03  0.2956390E-03
  0.1659524E+01  0.1211399E-02  0.3644943E-02  0.2011848E+05  0.2082693E+05  0.4597340E-04  0.1220703E-03
  0.1690476E+01 -0.1004179E-02 -0.1502991E-02  0.1977900E+05  0.2083225E+05  0.1850397E-03  0.4577637E-04
  0.1721429E+01  0.2459768E-03 -0.1110077E-02  0.1945489E+05  0.2080919E+05  0.1196644E-03 -0.5531311E-04
  0.1752381E+01 -0.3152101E-02  0.2410889E-02  0.1914241E+05  0.2076253E+05  0.2655776E-03 -0.4768372E-04
  0.1783333E+01  0.9454745E-03  0.1102448E-02  0.1884896E+05  0.2068745E+05  0.1283450E-03 -0.2670288E-04
  0.1814286E+01 -0.5382628E-03  0.5788803E-02  0.1857402E+05  0.2058945E+05  0.2270796E-03  0.3471375E-03
  0.1845238E+01 -0.1050198E-02  0.1575470E-02  0.1831745E+05  0.2046622E+05  0.2480784E-03  0.1449585E-03
  0.1876190E+01 -0.2389027E-02  0.3358841E-02  0.1807673E+05  0.2031949E+05 -0.1219929E-04  0.4329681E-03
  0.1907143E+01  0.2230241E-02  0.6750107E-02  0.1784906E+05  0.2015253E+05 -0.4800518E-04  0.3623962E-04
  0.1938095E+01 -0.1491950E-02 -0.1852036E-02  0.1763706E+05  0.1996611E+05  0.1574617E-03  0.2479553E-03
  0.1969048E+01  0.1360007E-02  0.8716583E-03  0.1743923E+05  0.1976142E+05  0.1743598E-03  0.1335144E-03
  0.2000000E+01 -0.2124786E-02  0.5352020E-02  0.1725405E+05  0.1954006E+05 -0.6866455E-04  0.1144409E-04
Zone t="Motion of body    1 in DoF   3",I=    64,F=POINT
  0.5000000E-01  0.2665374E+03  0.1024602E-04 -0.1314282E-02 -0.2526999E-05  0.3568533E+03  0.2342295E-06
  0.8095238E-01  0.2692299E+03  0.4495684E-04 -0.4712273E-04  0.1496005E-06  0.3569900E+03  0.6558711E-06
  0.1119048E+00  0.2681640E+03  0.1255985E-03 -0.6460890E-03 -0.2276523E-05  0.3517216E+03  0.1825969E-05
  0.1428571E+00  0.2712258E+03  0.2848657E-03 -0.9663104E-03 -0.5061480E-05  0.3543429E+03  0.4782688E-05
  0.1738095E+00  0.2684163E+03  0.5681876E-03  0.8072592E-03  0.8402634E-05  0.3537160E+03  0.1039709E-04
  0.2047619E+00  0.2718073E+03  0.1052806E-02 -0.1248204E-02 -0.1089319E-04  0.3550536E+03  0.1662383E-04
  0.2357143E+00  0.2716446E+03  0.1860647E-02 -0.1230457E-02 -0.1440410E-04  0.3552270E+03  0.3008029E-04
  0.2666667E+00  0.2712595E+03  0.3202402E-02 -0.3531575E-03 -0.3493033E-05  0.3541749E+03  0.5593312E-04
  0.2976190E+00  0.2753893E+03  0.5411969E-02 -0.6969452E-03 -0.7232561E-05  0.3537596E+03  0.9164579E-04
  0.3285715E+00  0.2754582E+03  0.9018213E-02 -0.8685691E-03 -0.1935503E-04  0.3550987E+03  0.1517273E-03
  0.3595238E+00  0.2758955E+03  0.1493270E-01 -0.7679288E-03 -0.1423127E-04  0.3534766E+03  0.2534060E-03
  0.3904762E+00  0.2789666E+03  0.2459215E-01  0.2967439E-03  0.2375415E-04  0.3541667E+03  0.4108237E-03
  0.4214286E+00  0.2825437E+03  0.3995812E-01 -0.9560988E-04  0.2093984E-05  0.3546367E+03  0.6726027E-03
  0.4523810E+00  0.2839944E+03  0.6436789E-01 -0.3035696E-03 -0.2817411E-05  0.3544292E+03  0.1097886E-02
  0.4833333E+00  0.2885360E+03  0.1013442E+00  0.5648053E-03  0.4463020E-04  0.3555850E+03  0.1753606E-02
  0.5142857E+00  0.2971104E+03  0.1570294E+00 -0.1812644E-03 -0.7876544E-05  0.3551545E+03  0.2748322E-02
  0.5452381E+00  0.2939922E+03  0.2375617E+00  0.8220756E-04  0.3413134E-04  0.3558115E+03  0.4169024E-02
  0.5761905E+00  0.2968250E+03  0.3509284E+00 -0.1762721E-03  0.2573739E-04  0.3554240E+03  0.6234832E-02
  0.6071429E+00  0.3031619E+03  0.5095955E+00 -0.8513506E-03 -0.7391896E-04  0.3549243E+03  0.9165978E-02
  0.6380953E+00  0.3094216E+03  0.7246653E+00 -0.7659642E-03 -0.1001676E-03  0.3567509E+03  0.1317158E-01
  0.6690477E+00  0.3143766E+03  0.1012815E+01 -0.1301409E-02 -0.2300809E-03  0.3561582E+03  0.1862754E-01
  0.7000000E+00  0.3143441E+03  0.1394751E+01 -0.7779257E-03 -0.1143187E-03  0.3554606E+03  0.2588184E-01
  0.7309524E+00  0.3173499E+03  0.1892809E+01 -0.6908391E-03 -0.1245188E-03  0.3568727E+03  0.3545504E-01
  0.7619048E+00  0.3252473E+03  0.2535746E+01  0.2484619E-03  0.1282198E-03  0.3569543E+03  0.4816502E-01
  0.7928572E+00  0.3345490E+03  0.3359320E+01 -0.7734212E-03 -0.1301300E-03  0.3564515E+03  0.6473332E-01
  0.8238096E+00  0.3418347E+03  0.4405989E+01 -0.1713306E-03  0.8980744E-05  0.3575642E+03  0.8592223E-01
  0.8547620E+00  0.3442545E+03  0.5717430E+01 -0.1495064E-03  0.1177704E-03  0.3580429E+03  0.1127133E+00
  0.8857143E+00  0.3487075E+03  0.7346021E+01  0.7160248E-04  0.4148483E-04  0.3576492E+03  0.1466100E+00
  0.9166667E+00  0.3562465E+03  0.9354548E+01  0.3006675E-03  0.1722611E-03  0.3571352E+03  0.1887374E+00
  0.9476191E+00  0.3650926E+03  0.1182299E+02  0.9741855E-03  0.5609468E-03  0.3579209E+03  0.2419126E+00
  0.9785714E+00  0.3739230E+03  0.1482377E+02 -0.6149459E-03 -0.3045835E-03  0.3592228E+03  0.3080659E+00
  0.1009524E+01  0.3851468E+03  0.1844552E+02  0.7699121E-04  0.6581098E-04  0.3600730E+03  0.3897010E+00
  0.1040476E+01  0.3964922E+03  0.2280314E+02 -0.6700162E-03 -0.3334805E-03  0.3595339E+03  0.4892350E+00
  0.1071429E+01  0.4027546E+03  0.2802634E+02 -0.1495361E-03 -0.8851290E-05  0.3590277E+03  0.6095595E+00
  0.1102381E+01  0.4086808E+03  0.3423559E+02 -0.1851323E-03  0.2273172E-04  0.3602792E+03  0.7534342E+00
  0.1133333E+01  0.4170810E+03  0.4150274E+02 -0.7379756E-03 -0.5101711E-03  0.3610834E+03  0.9259601E+00
  0.1164286E+01  0.4286238E+03  0.4995614E+02  0.5094844E-03  0.6054565E-03  0.3617719E+03  0.1131445E+01
  0.1195238E+01  0.4419669E+03  0.5981512E+02 -0.6526780E-03 -0.2773851E-03  0.3612657E+03  0.1374904E+01
  0.1226190E+01  0.4534641E+03  0.7125500E+02 -0.6222031E-05  0.1029521E-03  0.3612012E+03  0.1664352E+01
  0.1257143E+01  0.4653316E+03  0.8452376E+02 -0.1631000E-03  0.1127273E-03  0.3623030E+03  0.2012481E+01
  0.1288095E+01  0.4785387E+03  0.9963421E+02  0.2620930E-03  0.7686615E-03  0.3642036E+03  0.2413802E+01
  0.1319048E+01  0.4891118E+03  0.1169209E+03  0.4677824E-03  0.8500516E-03  0.3647829E+03  0.2879734E+01
  0.1350000E+01  0.4981589E+03  0.1365386E+03 -0.2783316E-03 -0.4255772E-04  0.3650525E+03  0.3423852E+01
  0.1380952E+01  0.5079482E+03  0.1586746E+03 -0.2196082E-03 -0.3670752E-03  0.3644663E+03  0.4029839E+01
  0.1411905E+01  0.4844020E+03  0.1755726E+03 -0.4356667E-03 -0.2554655E-03  0.3617166E+03  0.4518689E+01
  0.1442857E+01  0.4942654E+03  0.2018441E+03  0.2082032E-03  0.8441210E-03  0.3625393E+03  0.5248273E+01
  0.1473810E+01  0.5028265E+03  0.2308098E+03 -0.5487248E-03 -0.5286336E-03  0.3641064E+03  0.6123920E+01
  0.1504762E+01  0.5109963E+03  0.2626191E+03  0.3802625E-05  0.3345609E-03  0.3651106E+03  0.7084204E+01
  0.1535714E+01  0.5182648E+03  0.2972491E+03  0.2074131E-03  0.1280546E-02  0.3658836E+03  0.8172962E+01
  0.1566667E+01  0.5251962E+03  0.3348626E+03 -0.9143099E-03 -0.1944423E-02  0.3661867E+03  0.9388250E+01
  0.1597619E+01  0.5319670E+03  0.3753302E+03 -0.2680237E-03 -0.8291006E-03  0.3659733E+03  0.1062837E+02
  0.1628572E+01  0.5360045E+03  0.4184454E+03 -0.7056353E-03 -0.9170771E-03  0.3659035E+03  0.1205328E+02
  0.1659524E+01  0.5387815E+03  0.4643804E+03 -0.3402031E-03 -0.3748536E-03  0.3663963E+03  0.1354388E+02
  0.1690476E+01  0.5391031E+03  0.5129482E+03 -0.4902423E-03 -0.4206896E-03  0.3675506E+03  0.1528845E+02
  0.1721429E+01  0.5377307E+03  0.5634112E+03 -0.7052441E-03 -0.5747080E-03  0.3688414E+03  0.1723636E+02
  0.1752381E+01  0.5348931E+03  0.6160349E+03 -0.3831283E-03 -0.3848076E-03  0.3692130E+03  0.1922156E+02
  0.1783333E+01  0.5309017E+03  0.6700147E+03 -0.4593680E-03  0.2336502E-04  0.3697249E+03  0.2125449E+02
  0.1814286E+01  0.5261785E+03  0.7253093E+03 -0.6696747E-03 -0.4447699E-03  0.3692273E+03  0.2336220E+02
  0.1845238E+01  0.5200463E+03  0.7814719E+03 -0.3659156E-03 -0.1624942E-02  0.3683365E+03  0.2530955E+02
  0.1876190E+01  0.5113624E+03  0.8383210E+03 -0.2790587E-03 -0.8535385E-03  0.3676809E+03  0.2741075E+02
  0.1907143E+01  0.5016500E+03  0.8960854E+03 -0.2465266E-03  0.6408691E-03  0.3675015E+03  0.2986622E+02
  0.1938095E+01  0.4900677E+03  0.9549672E+03 -0.3980829E-03 -0.3129244E-03  0.3683375E+03  0.3251450E+02
  0.1969048E+01  0.4766971E+03  0.1012526E+04  0.1549865E-04  0.1157999E-02  0.3698519E+03  0.3551126E+02
  0.2000000E+01  0.4626516E+03  0.1069455E+04 -0.2088547E-03 -0.9632111E-03  0.3706137E+03  0.3855415E+02
