VARIABLES="w (rad/s)"
"abs(F   1   1)" "angle(F   1   1)"
"abs(F   1   2)" "angle(F   1   2)"
"abs(F   1   3)" "angle(F   1   3)"
Zone t="Diffraction force - beta =   0.000 deg",I=    64,F=POINT
  0.5000000E-01  0.4035346E+03 -0.1570796E+01  0.1090255E+03 -0.3101191E+01  0.5574916E+01 -0.1570795E+01
  0.8095238E-01  0.6579342E+03 -0.1570794E+01  0.2839525E+03 -0.3099908E+01  0.9053353E+01 -0.1570793E+01
  0.1119048E+00  0.9189069E+03 -0.1570792E+01  0.5403846E+03 -0.3098169E+01  0.1246105E+02 -0.1570791E+01
  0.1428571E+00  0.1187748E+04 -0.1570789E+01  0.8788938E+03 -0.3095915E+01  0.1628189E+02 -0.1570787E+01
  0.1738095E+00  0.1472109E+04 -0.1570785E+01  0.1301012E+04 -0.3093040E+01  0.2011400E+02 -0.1570781E+01
  0.2047619E+00  0.1768433E+04 -0.1570778E+01  0.1808619E+04 -0.3089416E+01  0.2441940E+02 -0.1570772E+01
  0.2357143E+00  0.2083088E+04 -0.1570769E+01  0.2404140E+04 -0.3084826E+01  0.2877394E+02 -0.1570760E+01
  0.2666667E+00  0.2427539E+04 -0.1570755E+01  0.3089337E+04 -0.3079196E+01  0.3373634E+02 -0.1570742E+01
  0.2976190E+00  0.2797388E+04 -0.1570734E+01  0.3867419E+04 -0.3072104E+01  0.3932323E+02 -0.1570717E+01
  0.3285715E+00  0.3196837E+04 -0.1570703E+01  0.4740937E+04 -0.3063559E+01  0.4491913E+02 -0.1570677E+01
  0.3595238E+00  0.3649215E+04 -0.1570657E+01  0.5709142E+04 -0.3053129E+01  0.5179438E+02 -0.1570616E+01
  0.3904762E+00  0.4145239E+04 -0.1570587E+01  0.6774771E+04 -0.3040687E+01  0.5949192E+02 -0.1570529E+01
  0.4214286E+00  0.4685082E+04 -0.1570483E+01  0.7927424E+04 -0.3026662E+01  0.6796101E+02 -0.1570399E+01
  0.4523810E+00  0.5291951E+04 -0.1570331E+01  0.9172748E+04 -0.3010373E+01  0.7749725E+02 -0.1570207E+01
  0.4833333E+00  0.5966562E+04 -0.1570121E+01  0.1048894E+05 -0.2993633E+01  0.8992194E+02 -0.1569955E+01
  0.5142857E+00  0.6687060E+04 -0.1569826E+01  0.1187890E+05 -0.2975424E+01  0.1012518E+03 -0.1569584E+01
  0.5452381E+00  0.7436857E+04 -0.1569427E+01  0.1333595E+05 -0.2957050E+01  0.1125797E+03 -0.1569075E+01
  0.5761905E+00  0.8267168E+04 -0.1568909E+01  0.1485441E+05 -0.2938807E+01  0.1279157E+03 -0.1568447E+01
  0.6071429E+00  0.9157997E+04 -0.1568239E+01  0.1642307E+05 -0.2919882E+01  0.1440897E+03 -0.1567630E+01
  0.6380953E+00  0.1007613E+05 -0.1567393E+01  0.1804800E+05 -0.2901761E+01  0.1615851E+03 -0.1566613E+01
  0.6690477E+00  0.1100823E+05 -0.1566329E+01  0.1972333E+05 -0.2883674E+01  0.1771219E+03 -0.1565277E+01
  0.7000000E+00  0.1198866E+05 -0.1565012E+01  0.2143683E+05 -0.2865314E+01  0.1945782E+03 -0.1563643E+01
  0.7309524E+00  0.1302944E+05 -0.1563421E+01  0.2318974E+05 -0.2847343E+01  0.2160364E+03 -0.1561746E+01
  0.7619048E+00  0.1412617E+05 -0.1561509E+01  0.2497623E+05 -0.2829509E+01  0.2403711E+03 -0.1559520E+01
  0.7928572E+00  0.1524980E+05 -0.1559216E+01  0.2678348E+05 -0.2811676E+01  0.2640899E+03 -0.1556800E+01
  0.8238096E+00  0.1636855E+05 -0.1556476E+01  0.2860785E+05 -0.2793943E+01  0.2853088E+03 -0.1553418E+01
  0.8547620E+00  0.1749639E+05 -0.1553241E+01  0.3045254E+05 -0.2776503E+01  0.3090264E+03 -0.1549506E+01
  0.8857143E+00  0.1869288E+05 -0.1549502E+01  0.3231079E+05 -0.2759362E+01  0.3366208E+03 -0.1545107E+01
  0.9166667E+00  0.1994055E+05 -0.1545202E+01  0.3416820E+05 -0.2742401E+01  0.3658575E+03 -0.1540061E+01
  0.9476191E+00  0.2122014E+05 -0.1540274E+01  0.3601210E+05 -0.2725534E+01  0.3969457E+03 -0.1534314E+01
  0.9785714E+00  0.2251638E+05 -0.1534647E+01  0.3784475E+05 -0.2708923E+01  0.4317001E+03 -0.1527937E+01
  0.1009524E+01  0.2382396E+05 -0.1528261E+01  0.3966641E+05 -0.2692684E+01  0.4673863E+03 -0.1520689E+01
  0.1040476E+01  0.2511028E+05 -0.1521016E+01  0.4146985E+05 -0.2676787E+01  0.4979556E+03 -0.1512004E+01
  0.1071429E+01  0.2638380E+05 -0.1512869E+01  0.4324982E+05 -0.2661229E+01  0.5287891E+03 -0.1502216E+01
  0.1102381E+01  0.2768605E+05 -0.1503862E+01  0.4499970E+05 -0.2645945E+01  0.5651648E+03 -0.1491810E+01
  0.1133333E+01  0.2901104E+05 -0.1493966E+01  0.4671350E+05 -0.2630950E+01  0.6062532E+03 -0.1480778E+01
  0.1164286E+01  0.3035671E+05 -0.1483155E+01  0.4839296E+05 -0.2616384E+01  0.6507584E+03 -0.1468891E+01
  0.1195238E+01  0.3168965E+05 -0.1471346E+01  0.5002636E+05 -0.2602108E+01  0.6938353E+03 -0.1455671E+01
  0.1226190E+01  0.3298664E+05 -0.1458459E+01  0.5161258E+05 -0.2588180E+01  0.7362878E+03 -0.1441133E+01
  0.1257143E+01  0.3420864E+05 -0.1444335E+01  0.5316272E+05 -0.2574257E+01  0.7773949E+03 -0.1425046E+01
  0.1288095E+01  0.3540047E+05 -0.1429212E+01  0.5462587E+05 -0.2561248E+01  0.8205122E+03 -0.1407967E+01
  0.1319048E+01  0.3648888E+05 -0.1412759E+01  0.5605580E+05 -0.2548427E+01  0.8611597E+03 -0.1389143E+01
  0.1350000E+01  0.3750827E+05 -0.1395193E+01  0.5743285E+05 -0.2536120E+01  0.9033515E+03 -0.1369549E+01
  0.1380952E+01  0.3847285E+05 -0.1376684E+01  0.5875251E+05 -0.2524274E+01  0.9435668E+03 -0.1348659E+01
  0.1411905E+01  0.3911652E+05 -0.1357263E+01  0.5996393E+05 -0.2512426E+01  0.9617969E+03 -0.1324177E+01
  0.1442857E+01  0.3988843E+05 -0.1336814E+01  0.6114922E+05 -0.2501093E+01  0.9992970E+03 -0.1300989E+01
  0.1473810E+01  0.4052682E+05 -0.1315310E+01  0.6226204E+05 -0.2489941E+01  0.1037089E+04 -0.1276905E+01
  0.1504762E+01  0.4103137E+05 -0.1292833E+01  0.6330836E+05 -0.2479225E+01  0.1073500E+04 -0.1252046E+01
  0.1535714E+01  0.4139250E+05 -0.1269441E+01  0.6428650E+05 -0.2468944E+01  0.1108702E+04 -0.1226593E+01
  0.1566667E+01  0.4159991E+05 -0.1245308E+01  0.6519420E+05 -0.2459074E+01  0.1138964E+04 -0.1200305E+01
  0.1597619E+01  0.4164455E+05 -0.1220559E+01  0.6602746E+05 -0.2449503E+01  0.1162706E+04 -0.1172661E+01
  0.1628572E+01  0.4150339E+05 -0.1195148E+01  0.6678563E+05 -0.2440228E+01  0.1177605E+04 -0.1143449E+01
  0.1659524E+01  0.4118738E+05 -0.1169269E+01  0.6746734E+05 -0.2431291E+01  0.1189436E+04 -0.1113758E+01
  0.1690476E+01  0.4067859E+05 -0.1142859E+01  0.6806973E+05 -0.2422538E+01  0.1198140E+04 -0.1083803E+01
  0.1721429E+01  0.3997511E+05 -0.1115974E+01  0.6859757E+05 -0.2414193E+01  0.1202457E+04 -0.1053841E+01
  0.1752381E+01  0.3908721E+05 -0.1088936E+01  0.6905042E+05 -0.2406219E+01  0.1202534E+04 -0.1024727E+01
  0.1783333E+01  0.3801141E+05 -0.1061793E+01  0.6942591E+05 -0.2398639E+01  0.1195989E+04 -0.9954270E+00
  0.1814286E+01  0.3674906E+05 -0.1034568E+01  0.6972211E+05 -0.2391413E+01  0.1179681E+04 -0.9653137E+00
  0.1845238E+01  0.3530141E+05 -0.1007232E+01  0.6993857E+05 -0.2384500E+01  0.1155222E+04 -0.9344901E+00
  0.1876190E+01  0.3366794E+05 -0.9796770E+00  0.7007816E+05 -0.2377859E+01  0.1120316E+04 -0.9016457E+00
  0.1907143E+01  0.3186448E+05 -0.9520662E+00  0.7013998E+05 -0.2371544E+01  0.1079586E+04 -0.8694355E+00
  0.1938095E+01  0.2990358E+05 -0.9244768E+00  0.7012229E+05 -0.2365457E+01  0.1032613E+04 -0.8375509E+00
  0.1969048E+01  0.2778659E+05 -0.8966036E+00  0.7002704E+05 -0.2359637E+01  0.9795357E+03 -0.8065160E+00
  0.2000000E+01  0.2553007E+05 -0.8683701E+00  0.6985783E+05 -0.2354203E+01  0.9188071E+03 -0.7749323E+00
