VARIABLES="w (rad/s)"
"abs(F   1   1)" "angle(F   1   1)"
"abs(F   1   2)" "angle(F   1   2)"
"abs(F   1   3)" "angle(F   1   3)"
Zone t="Diffraction force - beta =   0.000 deg",I=    64,F=POINT
  0.5000000E-01  0.2685576E+04 -0.1570796E+01  0.4300958E+06 -0.2902472E-04  0.4336249E+03  0.1570847E+01
  0.8095238E-01  0.4379376E+04 -0.1570795E+01  0.4291628E+06 -0.7805058E-04  0.7146841E+03  0.1570817E+01
  0.1119048E+00  0.6106136E+04 -0.1570797E+01  0.4277943E+06 -0.1549032E-03  0.9907797E+03  0.1570795E+01
  0.1428571E+00  0.7914726E+04 -0.1570791E+01  0.4259908E+06 -0.2654105E-03  0.1306243E+04  0.1570780E+01
  0.1738095E+00  0.9786196E+04 -0.1570788E+01  0.4237510E+06 -0.4183352E-03  0.1630954E+04  0.1570803E+01
  0.2047619E+00  0.1177609E+05 -0.1570781E+01  0.4210669E+06 -0.6263616E-03  0.1988168E+04  0.1570805E+01
  0.2357143E+00  0.1389534E+05 -0.1570775E+01  0.4179397E+06 -0.9081918E-03  0.2382909E+04  0.1570809E+01
  0.2666667E+00  0.1615390E+05 -0.1570762E+01  0.4143725E+06 -0.1286349E-02  0.2805972E+04  0.1570836E+01
  0.2976190E+00  0.1864541E+05 -0.1570747E+01  0.4103500E+06 -0.1799437E-02  0.3304870E+04  0.1570845E+01
  0.3285715E+00  0.2137855E+05 -0.1570722E+01  0.4058953E+06 -0.2485900E-02  0.3862675E+04  0.1570871E+01
  0.3595238E+00  0.2434626E+05 -0.1570685E+01  0.4009968E+06 -0.3407534E-02  0.4474242E+04  0.1570909E+01
  0.3904762E+00  0.2768448E+05 -0.1570629E+01  0.3956749E+06 -0.4632668E-02  0.5199182E+04  0.1570972E+01
  0.4214286E+00  0.3140179E+05 -0.1570547E+01  0.3899735E+06 -0.6203163E-02  0.6059790E+04  0.1571045E+01
  0.4523810E+00  0.3544918E+05 -0.1570425E+01  0.3838722E+06 -0.8238716E-02  0.6975455E+04  0.1571167E+01
  0.4833333E+00  0.3988318E+05 -0.1570256E+01  0.3774915E+06 -0.1067947E-01  0.8039532E+04  0.1571341E+01
  0.5142857E+00  0.4478270E+05 -0.1570019E+01  0.3707446E+06 -0.1366396E-01  0.9280305E+04  0.1571573E+01
  0.5452381E+00  0.5007304E+05 -0.1569700E+01  0.3638198E+06 -0.1714651E-01  0.1065271E+05  0.1571894E+01
  0.5761905E+00  0.5560893E+05 -0.1569283E+01  0.3566092E+06 -0.2112691E-01  0.1213186E+05  0.1572314E+01
  0.6071429E+00  0.6142325E+05 -0.1568739E+01  0.3491698E+06 -0.2572678E-01  0.1370707E+05  0.1572860E+01
  0.6380953E+00  0.6773853E+05 -0.1568055E+01  0.3415906E+06 -0.3081915E-01  0.1559074E+05  0.1573542E+01
  0.6690477E+00  0.7428723E+05 -0.1567197E+01  0.3337855E+06 -0.3651636E-01  0.1758538E+05  0.1574405E+01
  0.7000000E+00  0.8105013E+05 -0.1566131E+01  0.3258384E+06 -0.4288350E-01  0.1969082E+05  0.1575479E+01
  0.7309524E+00  0.8810977E+05 -0.1564832E+01  0.3178512E+06 -0.4986301E-01  0.2197950E+05  0.1576785E+01
  0.7619048E+00  0.9529947E+05 -0.1563259E+01  0.3097069E+06 -0.5751837E-01  0.2440452E+05  0.1578368E+01
  0.7928572E+00  0.1028599E+06 -0.1561374E+01  0.3014277E+06 -0.6586067E-01  0.2708623E+05  0.1580255E+01
  0.8238096E+00  0.1107893E+06 -0.1559135E+01  0.2932363E+06 -0.7494272E-01  0.2996465E+05  0.1582507E+01
  0.8547620E+00  0.1189243E+06 -0.1556496E+01  0.2850085E+06 -0.8474892E-01  0.3312192E+05  0.1585171E+01
  0.8857143E+00  0.1271244E+06 -0.1553408E+01  0.2767326E+06 -0.9527241E-01  0.3636193E+05  0.1588301E+01
  0.9166667E+00  0.1354458E+06 -0.1549829E+01  0.2683571E+06 -0.1065019E+00  0.3973741E+05  0.1591927E+01
  0.9476191E+00  0.1439572E+06 -0.1545720E+01  0.2602107E+06 -0.1185374E+00  0.4324074E+05  0.1596087E+01
  0.9785714E+00  0.1527185E+06 -0.1541041E+01  0.2521120E+06 -0.1313582E+00  0.4712506E+05  0.1600811E+01
  0.1009524E+01  0.1617470E+06 -0.1535766E+01  0.2440245E+06 -0.1449347E+00  0.5129686E+05  0.1606082E+01
  0.1040476E+01  0.1707866E+06 -0.1529815E+01  0.2359486E+06 -0.1592278E+00  0.5554522E+05  0.1612123E+01
  0.1071429E+01  0.1798477E+06 -0.1523162E+01  0.2279696E+06 -0.1742905E+00  0.5999398E+05  0.1618898E+01
  0.1102381E+01  0.1889346E+06 -0.1515788E+01  0.2202758E+06 -0.1901636E+00  0.6446593E+05  0.1626445E+01
  0.1133333E+01  0.1979639E+06 -0.1507669E+01  0.2126558E+06 -0.2068389E+00  0.6927356E+05  0.1634800E+01
  0.1164286E+01  0.2067154E+06 -0.1498812E+01  0.2050994E+06 -0.2242907E+00  0.7404682E+05  0.1643911E+01
  0.1195238E+01  0.2152021E+06 -0.1489230E+01  0.1976079E+06 -0.2425056E+00  0.7879607E+05  0.1653768E+01
  0.1226190E+01  0.2234398E+06 -0.1478982E+01  0.1901684E+06 -0.2615569E+00  0.8370281E+05  0.1664283E+01
  0.1257143E+01  0.2315757E+06 -0.1468209E+01  0.1831516E+06 -0.2815964E+00  0.8852282E+05  0.1675099E+01
  0.1288095E+01  0.2395766E+06 -0.1456934E+01  0.1762735E+06 -0.3020233E+00  0.9350423E+05  0.1686558E+01
  0.1319048E+01  0.2469351E+06 -0.1445122E+01  0.1694962E+06 -0.3235473E+00  0.9857364E+05  0.1698811E+01
  0.1350000E+01  0.2536268E+06 -0.1432959E+01  0.1628313E+06 -0.3458463E+00  0.1033811E+06  0.1711451E+01
  0.1380952E+01  0.2596268E+06 -0.1420570E+01  0.1562557E+06 -0.3689262E+00  0.1079526E+06  0.1724404E+01
  0.1411905E+01  0.2645169E+06 -0.1408012E+01  0.1497952E+06 -0.3929565E+00  0.1121733E+06  0.1737624E+01
  0.1442857E+01  0.2691495E+06 -0.1395963E+01  0.1437251E+06 -0.4176557E+00  0.1161879E+06  0.1749989E+01
  0.1473810E+01  0.2730542E+06 -0.1384371E+01  0.1378770E+06 -0.4430448E+00  0.1198112E+06  0.1761754E+01
  0.1504762E+01  0.2761581E+06 -0.1373220E+01  0.1321378E+06 -0.4695605E+00  0.1235136E+06  0.1773754E+01
  0.1535714E+01  0.2781856E+06 -0.1362889E+01  0.1265358E+06 -0.4969474E+00  0.1266513E+06  0.1784987E+01
  0.1566667E+01  0.2793109E+06 -0.1353594E+01  0.1210792E+06 -0.5252250E+00  0.1293309E+06  0.1795122E+01
  0.1597619E+01  0.2795213E+06 -0.1345567E+01  0.1157345E+06 -0.5543804E+00  0.1314886E+06  0.1803922E+01
  0.1628572E+01  0.2789177E+06 -0.1339061E+01  0.1105073E+06 -0.5845107E+00  0.1333757E+06  0.1811147E+01
  0.1659524E+01  0.2775572E+06 -0.1334290E+01  0.1056479E+06 -0.6150182E+00  0.1346052E+06  0.1816594E+01
  0.1690476E+01  0.2754770E+06 -0.1331396E+01  0.1010366E+06 -0.6460114E+00  0.1352583E+06  0.1820104E+01
  0.1721429E+01  0.2727208E+06 -0.1330422E+01  0.9658522E+05 -0.6778921E+00  0.1356458E+06  0.1821903E+01
  0.1752381E+01  0.2693327E+06 -0.1331558E+01  0.9225215E+05 -0.7108084E+00  0.1358052E+06  0.1821730E+01
  0.1783333E+01  0.2653342E+06 -0.1335027E+01  0.8804284E+05 -0.7442954E+00  0.1354949E+06  0.1819080E+01
  0.1814286E+01  0.2607769E+06 -0.1340847E+01  0.8396830E+05 -0.7785060E+00  0.1347207E+06  0.1814072E+01
  0.1845238E+01  0.2557638E+06 -0.1349098E+01  0.8003132E+05 -0.8133593E+00  0.1335753E+06  0.1806637E+01
  0.1876190E+01  0.2503669E+06 -0.1359891E+01  0.7622331E+05 -0.8489606E+00  0.1321793E+06  0.1796586E+01
  0.1907143E+01  0.2447937E+06 -0.1373421E+01  0.7262148E+05 -0.8841220E+00  0.1304136E+06  0.1783006E+01
  0.1938095E+01  0.2390514E+06 -0.1389746E+01  0.6922077E+05 -0.9186831E+00  0.1282118E+06  0.1765798E+01
  0.1969048E+01  0.2331237E+06 -0.1408855E+01  0.6595602E+05 -0.9530142E+00  0.1257257E+06  0.1745388E+01
  0.2000000E+01  0.2271801E+06 -0.1430503E+01  0.6277602E+05 -0.9879362E+00  0.1234133E+06  0.1723364E+01
