VARIABLES="w (rad/s)"
"A   1   1" "B   1   1"
"A   1   2" "B   1   2"
"A   1   3" "B   1   3"
Zone t="Motion of body    1 in DoF   1",I=    64,F=POINT
  0.5000000E-01  0.6351900E+05  0.4931521E-02 -0.1373291E-02 -0.7691087E-05 -0.4352129E+05 -0.8072259E-03
  0.8095238E-01  0.6365546E+05  0.2151554E-01 -0.1255821E-01 -0.6769723E-04 -0.4373211E+05 -0.3471083E-02
  0.1119048E+00  0.6350394E+05  0.6040816E-01  0.1704439E-02  0.6211165E-05 -0.4339149E+05 -0.9801045E-02
  0.1428571E+00  0.6393349E+05  0.1364016E+00 -0.3952026E-02 -0.5724328E-04 -0.4373050E+05 -0.2251134E-01
  0.1738095E+00  0.6393873E+05  0.2719535E+00  0.1536330E-01  0.1972625E-03 -0.4375206E+05 -0.4538085E-01
  0.2047619E+00  0.6420414E+05  0.5031974E+00 -0.1397244E-02 -0.1016492E-04 -0.4386138E+05 -0.8538507E-01
  0.2357143E+00  0.6442540E+05  0.8884709E+00  0.4822702E-02  0.3446639E-04 -0.4399692E+05 -0.1529085E+00
  0.2666667E+00  0.6440248E+05  0.1518165E+01 -0.9670257E-02 -0.1878254E-03 -0.4396675E+05 -0.2640271E+00
  0.2976190E+00  0.6477092E+05  0.2556310E+01 -0.3332520E-03 -0.1268703E-03 -0.4418160E+05 -0.4529136E+00
  0.3285715E+00  0.6514745E+05  0.4248550E+01 -0.8173402E-02 -0.3337823E-03 -0.4433570E+05 -0.7678532E+00
  0.3595238E+00  0.6518443E+05  0.6993204E+01  0.8424670E-02  0.1904368E-03 -0.4432114E+05 -0.1285561E+01
  0.3904762E+00  0.6559237E+05  0.1145683E+02 -0.4220357E-02 -0.1950264E-03 -0.4449209E+05 -0.2153223E+01
  0.4214286E+00  0.6610980E+05  0.1853727E+02 -0.1035529E-01 -0.9877086E-03 -0.4483918E+05 -0.3581452E+01
  0.4523810E+00  0.6635177E+05  0.2968720E+02  0.4115054E-02  0.3921986E-03 -0.4485180E+05 -0.5847425E+01
  0.4833333E+00  0.6662008E+05  0.4639180E+02 -0.2273033E-02 -0.4904866E-03 -0.4501553E+05 -0.9366492E+01
  0.5142857E+00  0.6725554E+05  0.7145551E+02  0.6230672E-02  0.9029508E-03 -0.4534335E+05 -0.1482639E+02
  0.5452381E+00  0.6796457E+05  0.1075225E+03  0.1816262E-01  0.3062367E-02 -0.4565989E+05 -0.2291051E+02
  0.5761905E+00  0.6835568E+05  0.1577346E+03  0.2913041E-02  0.8707047E-03 -0.4584706E+05 -0.3449259E+02
  0.6071429E+00  0.6869422E+05  0.2270585E+03 -0.7539636E-03  0.1058578E-03 -0.4590848E+05 -0.5079404E+02
  0.6380953E+00  0.6962740E+05  0.3207112E+03  0.2917389E-02  0.1974106E-03 -0.4645206E+05 -0.7396558E+02
  0.6690477E+00  0.7043633E+05  0.4450461E+03 -0.4835027E-02 -0.1893997E-02 -0.4684832E+05 -0.1056355E+03
  0.7000000E+00  0.7114806E+05  0.6080743E+03  0.6147112E-02  0.1647472E-02 -0.4713189E+05 -0.1482269E+03
  0.7309524E+00  0.7198175E+05  0.8184982E+03 -0.2338024E-02 -0.8411407E-03 -0.4751403E+05 -0.2049902E+03
  0.7619048E+00  0.7263455E+05  0.1086140E+04 -0.7970809E-02 -0.2155304E-02 -0.4783159E+05 -0.2793924E+03
  0.7928572E+00  0.7359225E+05  0.1425871E+04  0.3810573E-02  0.4367828E-03 -0.4829446E+05 -0.3769823E+03
  0.8238096E+00  0.7481511E+05  0.1853464E+04  0.3074690E-02  0.2424240E-02 -0.4884312E+05 -0.5034492E+03
  0.8547620E+00  0.7603643E+05  0.2384046E+04 -0.2356399E-02 -0.1010895E-03 -0.4954866E+05 -0.6674755E+03
  0.8857143E+00  0.7708400E+05  0.3033822E+04 -0.1137026E-02 -0.1110077E-02 -0.5008652E+05 -0.8735272E+03
  0.9166667E+00  0.7809338E+05  0.3823471E+04  0.5692916E-02  0.4222870E-02 -0.5055140E+05 -0.1130349E+04
  0.9476191E+00  0.7917763E+05  0.4776649E+04  0.4669650E-02  0.1590729E-02 -0.5102852E+05 -0.1446861E+04
  0.9785714E+00  0.8042425E+05  0.5920521E+04  0.4116532E-02  0.2391815E-02 -0.5177811E+05 -0.1842820E+04
  0.1009524E+01  0.8185166E+05  0.7282428E+04  0.3627561E-02  0.1663208E-02 -0.5263748E+05 -0.2326822E+04
  0.1040476E+01  0.8319276E+05  0.8888686E+04  0.6863312E-02  0.5905151E-02 -0.5336603E+05 -0.2915494E+04
  0.1071429E+01  0.8448580E+05  0.1076918E+05  0.3361003E-02 -0.1647949E-02 -0.5413384E+05 -0.3627653E+04
  0.1102381E+01  0.8576352E+05  0.1295511E+05  0.1384167E-03 -0.9841919E-03 -0.5484361E+05 -0.4471549E+04
  0.1133333E+01  0.8696461E+05  0.1547376E+05 -0.1050164E-02 -0.3082275E-02 -0.5573003E+05 -0.5488745E+04
  0.1164286E+01  0.8791833E+05  0.1833369E+05  0.5242283E-03  0.1495361E-02 -0.5644150E+05 -0.6668374E+04
  0.1195238E+01  0.8868429E+05  0.2155679E+05  0.8681096E-03  0.8392334E-02 -0.5700675E+05 -0.8025911E+04
  0.1226190E+01  0.8930878E+05  0.2515711E+05 -0.5574939E-02 -0.1666260E-01 -0.5759075E+05 -0.9591608E+04
  0.1257143E+01  0.8993359E+05  0.2915248E+05 -0.1116666E-02 -0.3326416E-02 -0.5813278E+05 -0.1133045E+05
  0.1288095E+01  0.9057562E+05  0.3356039E+05 -0.2700890E-02 -0.1049805E-01 -0.5877266E+05 -0.1332021E+05
  0.1319048E+01  0.9081116E+05  0.3834836E+05  0.4951119E-02  0.1480103E-01 -0.5939146E+05 -0.1559411E+05
  0.1350000E+01  0.9068362E+05  0.4347521E+05 -0.1853660E-02 -0.1202393E-01 -0.5976739E+05 -0.1808178E+05
  0.1380952E+01  0.9021558E+05  0.4891197E+05 -0.1502728E-02 -0.4119873E-02 -0.5992799E+05 -0.2078902E+05
  0.1411905E+01  0.8912810E+05  0.5455549E+05  0.2161447E-03  0.1770020E-02 -0.5980065E+05 -0.2369356E+05
  0.1442857E+01  0.8810110E+05  0.6042048E+05  0.3511032E-02  0.7629395E-02 -0.5967601E+05 -0.2672430E+05
  0.1473810E+01  0.8682008E+05  0.6641742E+05 -0.1159569E-02 -0.1010132E-01 -0.5937589E+05 -0.2986038E+05
  0.1504762E+01  0.8523363E+05  0.7252445E+05  0.2433680E-03  0.3417969E-02 -0.5914648E+05 -0.3332048E+05
  0.1535714E+01  0.8318816E+05  0.7854662E+05  0.2384629E-03  0.7141113E-02 -0.5858570E+05 -0.3682945E+05
  0.1566667E+01  0.8084810E+05  0.8444728E+05  0.5064619E-03  0.1892090E-02 -0.5780393E+05 -0.4036183E+05
  0.1597619E+01  0.7823814E+05  0.9013197E+05 -0.6876688E-03  0.4516602E-02 -0.5677704E+05 -0.4385029E+05
  0.1628572E+01  0.7544517E+05  0.9554211E+05  0.1686498E-02  0.6652832E-02 -0.5567368E+05 -0.4732883E+05
  0.1659524E+01  0.7252221E+05  0.1006540E+06  0.1140140E-02 -0.2502441E-02 -0.5441932E+05 -0.5067901E+05
  0.1690476E+01  0.6950884E+05  0.1054224E+06  0.3050898E-02  0.5065918E-02 -0.5303857E+05 -0.5388311E+05
  0.1721429E+01  0.6642084E+05  0.1098304E+06  0.1258692E-02 -0.1098633E-02 -0.5165505E+05 -0.5706194E+05
  0.1752381E+01  0.6326127E+05  0.1138240E+06  0.3221761E-02 -0.2807617E-02 -0.5025192E+05 -0.6018595E+05
  0.1783333E+01  0.6007100E+05  0.1173374E+06 -0.1497358E-02  0.3112793E-02 -0.4873286E+05 -0.6306586E+05
  0.1814286E+01  0.5686785E+05  0.1203892E+06 -0.4121075E-03 -0.1379395E-01 -0.4708374E+05 -0.6572251E+05
  0.1845238E+01  0.5370267E+05  0.1229965E+06 -0.3183672E-02 -0.2441406E-02 -0.4536102E+05 -0.6817406E+05
  0.1876190E+01  0.5058777E+05  0.1251728E+06 -0.1341921E-03  0.3784180E-02 -0.4362375E+05 -0.7045198E+05
  0.1907143E+01  0.4764158E+05  0.1270149E+06  0.4640501E-03  0.6225586E-02 -0.4196206E+05 -0.7245725E+05
  0.1938095E+01  0.4483890E+05  0.1285361E+06 -0.2241861E-02 -0.9765625E-02 -0.4033092E+05 -0.7417048E+05
  0.1969048E+01  0.4214211E+05  0.1297206E+06 -0.1220519E-03  0.9338379E-02 -0.3870593E+05 -0.7569132E+05
  0.2000000E+01  0.3957657E+05  0.1306989E+06 -0.5364418E-03  0.6713867E-03 -0.3721872E+05 -0.7744435E+05
Zone t="Motion of body    1 in DoF   2",I=    64,F=POINT
  0.5000000E-01  0.4577637E-02  0.1430511E-05  0.1260469E+06  0.2496375E+03 -0.6103516E-02 -0.1144409E-04
  0.8095238E-01  0.4712273E-04  0.4768372E-05  0.1255031E+06  0.4137274E+03 -0.1130946E-02  0.1907349E-05
  0.1119048E+00  0.4431542E-02 -0.1907349E-04  0.1249490E+06  0.5920710E+03 -0.1199925E-01 -0.9536743E-05
  0.1428571E+00  0.3578186E-02 -0.3147125E-04  0.1245293E+06  0.7912712E+03  0.7690429E-02 -0.5340576E-04
  0.1738095E+00 -0.5267418E-02 -0.3623962E-04  0.1243059E+06  0.1019624E+04  0.2106967E-02  0.3051758E-04
  0.2047619E+00  0.6706770E-03  0.1564026E-03  0.1243807E+06  0.1287581E+04 -0.8346203E-02  0.9155273E-04
  0.2357143E+00  0.9062795E-03 -0.6484985E-04  0.1245764E+06  0.1609585E+04 -0.8803858E-02 -0.1144409E-04
  0.2666667E+00  0.2403259E-02 -0.8583069E-04  0.1247836E+06  0.1997714E+04 -0.8468628E-02 -0.7629395E-04
  0.2976190E+00 -0.1845703E-02  0.1907349E-04  0.1251990E+06  0.2479219E+04 -0.7382812E-02 -0.7629395E-04
  0.3285715E+00 -0.3900942E-02  0.1678467E-03  0.1255063E+06  0.3068067E+04  0.4086701E-02 -0.5340576E-04
  0.3595238E+00 -0.1612783E-02  0.1411438E-03  0.1258810E+06  0.3796116E+04  0.6111600E-02  0.2593994E-03
  0.3904762E+00  0.4689286E-03  0.3662109E-03  0.1261815E+06  0.4687290E+04  0.4064048E-02  0.7629395E-04
  0.4214286E+00 -0.3620729E-02 -0.3509521E-03  0.1262255E+06  0.5729143E+04 -0.9848383E-02  0.1525879E-04
  0.4523810E+00  0.7015830E-02  0.9918213E-04  0.1262523E+06  0.6974138E+04 -0.1376182E-01  0.9155273E-04
  0.4833333E+00 -0.4988045E-02 -0.1831055E-03  0.1257733E+06  0.8315289E+04 -0.7576778E-03 -0.6103516E-04
  0.5142857E+00  0.7120768E-03 -0.2441406E-03  0.1253690E+06  0.9812421E+04 -0.1424154E-02  0.5798340E-03
  0.5452381E+00 -0.5037399E-02  0.1831055E-03  0.1243670E+06  0.1138682E+05 -0.6268764E-02  0.6408691E-03
  0.5761905E+00  0.2330433E-02 -0.9613037E-03  0.1233619E+06  0.1299862E+05  0.1377074E-01 -0.1159668E-02
  0.6071429E+00 -0.6835937E-02  0.1831055E-03  0.1222364E+06  0.1468938E+05 -0.5227481E-02  0.2502441E-02
  0.6380953E+00  0.4017388E-02 -0.1831055E-03  0.1208115E+06  0.1635468E+05 -0.4208693E-02 -0.5493164E-03
  0.6690477E+00 -0.1003496E-02 -0.1525879E-03  0.1194512E+06  0.1802689E+05 -0.5108708E-02 -0.6713867E-03
  0.7000000E+00 -0.3269740E-02  0.1312256E-02  0.1179939E+06  0.1971191E+05 -0.6626674E-02 -0.2197266E-02
  0.7309524E+00 -0.6220814E-02 -0.1953125E-02  0.1162671E+06  0.2136157E+05 -0.5344055E-02 -0.2746582E-02
  0.7619048E+00 -0.2723694E-02  0.4577637E-03  0.1146315E+06  0.2297330E+05  0.1602173E-02 -0.4455566E-02
  0.7928572E+00 -0.1000757E-02 -0.1403809E-02  0.1130841E+06  0.2452726E+05 -0.8313977E-02 -0.9765625E-03
  0.8238096E+00  0.5075091E-02  0.1037598E-02  0.1112387E+06  0.2604458E+05 -0.6223469E-02 -0.3417969E-02
  0.8547620E+00  0.5319749E-02 -0.4272461E-03  0.1094073E+06  0.2748782E+05 -0.3998738E-02  0.2441406E-02
  0.8857143E+00  0.1378213E-03  0.4272461E-03  0.1076525E+06  0.2883422E+05  0.4410282E-02  0.5615234E-02
  0.9166667E+00  0.1364968E-02 -0.1831055E-03  0.1060841E+06  0.3005645E+05  0.1598011E-02 -0.3417969E-02
  0.9476191E+00  0.7729075E-03 -0.2014160E-02  0.1042150E+06  0.3121774E+05 -0.4379809E-02 -0.1708984E-02
  0.9785714E+00  0.5020921E-02 -0.5310059E-02  0.1023907E+06  0.3227717E+05 -0.2494868E-02  0.7446289E-02
  0.1009524E+01  0.2236996E-02 -0.2990723E-02  0.1006995E+06  0.3321170E+05 -0.3869399E-02 -0.1269531E-01
  0.1040476E+01  0.3930273E-02  0.1220703E-02  0.9914417E+05  0.3399563E+05 -0.6804652E-02 -0.1342773E-02
  0.1071429E+01  0.4557292E-03 -0.4150391E-02  0.9762822E+05  0.3465524E+05  0.4785156E-02  0.4638672E-02
  0.1102381E+01  0.1771733E-02 -0.2258301E-02  0.9592735E+05  0.3522746E+05 -0.4429333E-02  0.1708984E-02
  0.1133333E+01 -0.1427146E-02  0.7934570E-03  0.9436227E+05  0.3567498E+05 -0.3662109E-02 -0.6591797E-02
  0.1164286E+01  0.1441628E-02 -0.9155273E-03  0.9293921E+05  0.3598220E+05 -0.1258148E-02 -0.6591797E-02
  0.1195238E+01  0.1378762E-02 -0.1892090E-02  0.9166024E+05  0.3614051E+05  0.5515049E-02 -0.1342773E-02
  0.1226190E+01  0.1045301E-02  0.7324219E-03  0.9055492E+05  0.3616593E+05 -0.4977624E-02  0.1586914E-02
  0.1257143E+01  0.1942028E-03 -0.2685547E-02  0.8922818E+05  0.3617120E+05  0.1942028E-02  0.1342773E-02
  0.1288095E+01 -0.1563673E-02  0.3356934E-02  0.8798060E+05  0.3598659E+05 -0.3980259E-02 -0.7568359E-02
  0.1319048E+01  0.4326445E-02 -0.1708984E-02  0.8690301E+05  0.3574175E+05 -0.4627214E-02  0.6347656E-02
  0.1350000E+01  0.4577637E-02 -0.1831055E-02  0.8595588E+05  0.3537302E+05  0.2712674E-02  0.4272461E-02
  0.1380952E+01  0.1535876E-02  0.8544922E-03  0.8515324E+05  0.3487612E+05 -0.1591123E-02 -0.4760742E-02
  0.1411905E+01  0.4717359E-02  0.4211426E-02  0.8449909E+05  0.3426807E+05 -0.1158536E-01  0.4760742E-02
  0.1442857E+01 -0.9412104E-03 -0.4943848E-02  0.8369352E+05  0.3363246E+05 -0.3553334E-02  0.1281738E-01
  0.1473810E+01  0.1110391E-02  0.9277344E-02  0.8290279E+05  0.3290798E+05 -0.7288721E-02  0.4882812E-03
  0.1504762E+01  0.2507673E-02 -0.3723145E-02  0.8227088E+05  0.3215492E+05  0.2595925E-02  0.1098633E-02
  0.1535714E+01  0.3378225E-02  0.3051758E-02  0.8175630E+05  0.3133731E+05 -0.6359011E-03 -0.4394531E-02
  0.1566667E+01 -0.2873197E-03  0.1031494E-01  0.8135255E+05  0.3046128E+05  0.2649185E-02 -0.7080078E-02
  0.1597619E+01 -0.7497500E-03 -0.1098633E-02  0.8106677E+05  0.2951813E+05 -0.1833784E-02 -0.6835938E-02
  0.1628572E+01  0.2342358E-03 -0.7568359E-02  0.8090803E+05  0.2857167E+05 -0.5696614E-02  0.5615234E-02
  0.1659524E+01  0.1103361E-02  0.2319336E-02  0.8061528E+05  0.2756029E+05 -0.5884595E-02 -0.1245117E-01
  0.1690476E+01 -0.6498954E-03 -0.2990723E-02  0.8030088E+05  0.2647568E+05 -0.6643375E-02 -0.7446289E-02
  0.1721429E+01 -0.2774440E-02 -0.7995605E-02  0.8007520E+05  0.2540146E+05 -0.5956626E-02  0.1086426E-01
  0.1752381E+01 -0.1044895E-02  0.2441406E-02  0.7996378E+05  0.2439696E+05 -0.2507749E-02  0.3051758E-02
  0.1783333E+01  0.1180774E-02 -0.2685547E-02  0.7992376E+05  0.2336957E+05 -0.6708163E-02 -0.6958008E-02
  0.1814286E+01  0.8746771E-03  0.5126953E-02  0.7995135E+05  0.2233790E+05  0.1749354E-02  0.6774902E-02
  0.1845238E+01  0.1240392E-02  0.6896973E-02  0.8004855E+05  0.2130594E+05 -0.2513861E-02 -0.8239746E-02
  0.1876190E+01  0.6994258E-03  0.3417969E-02  0.8020091E+05  0.2033892E+05  0.2342263E-02 -0.1422119E-01
  0.1907143E+01 -0.1696183E-02  0.8178711E-02  0.8029280E+05  0.1933088E+05 -0.6016649E-02  0.3234863E-02
  0.1938095E+01  0.1243948E-02  0.2746582E-02  0.8034365E+05  0.1826121E+05 -0.6424438E-02 -0.6103516E-04
  0.1969048E+01  0.1084905E-03  0.3234863E-02  0.8042411E+05  0.1718972E+05  0.6943395E-02 -0.1464844E-02
  0.2000000E+01  0.1495361E-02  0.2990723E-02  0.8055297E+05  0.1625922E+05 -0.4882812E-03 -0.2441406E-02
Zone t="Motion of body    1 in DoF   3",I=    64,F=POINT
  0.5000000E-01 -0.4330965E+05 -0.7439289E-03  0.8239746E-02  0.1899518E-04  0.1780041E+06  0.7465799E-04
  0.8095238E-01 -0.4317390E+05 -0.3031179E-02  0.2648297E-01  0.1465531E-03  0.1799278E+06  0.5136659E-03
  0.1119048E+00 -0.4267284E+05 -0.8510046E-02 -0.3408878E-03  0.1385329E-04  0.1798392E+06  0.1542532E-02
  0.1428571E+00 -0.4313629E+05 -0.1941532E-01  0.8438110E-02  0.9183244E-04  0.1800436E+06  0.3178947E-02
  0.1738095E+00 -0.4319108E+05 -0.3938286E-01 -0.2431791E-01 -0.2033231E-03  0.1798585E+06  0.6357076E-02
  0.2047619E+00 -0.4331809E+05 -0.7425155E-01  0.7451967E-04  0.2465199E-04  0.1797933E+06  0.1282155E-01
  0.2357143E+00 -0.4341226E+05 -0.1327454E+00 -0.4078258E-02 -0.1207362E-03  0.1801627E+06  0.2312929E-01
  0.2666667E+00 -0.4340309E+05 -0.2307508E+00  0.1373291E-01  0.6039098E-03  0.1798368E+06  0.3980507E-01
  0.2976190E+00 -0.4358451E+05 -0.3954716E+00  0.1117676E-01  0.4745796E-03  0.1802945E+06  0.6902192E-01
  0.3285715E+00 -0.4382449E+05 -0.6712267E+00  0.7151727E-02  0.2242834E-03  0.1800132E+06  0.1197454E+00
  0.3595238E+00 -0.4370305E+05 -0.1130112E+01 -0.5347650E-02 -0.1020823E-03  0.1802231E+06  0.2061613E+00
  0.3904762E+00 -0.4395023E+05 -0.1897598E+01  0.7893631E-02  0.4492570E-03  0.1799709E+06  0.3566554E+00
  0.4214286E+00 -0.4432354E+05 -0.3150660E+01  0.1506223E-01  0.1128636E-02  0.1804306E+06  0.6093895E+00
  0.4523810E+00 -0.4422994E+05 -0.5180032E+01 -0.2145225E-01 -0.1451895E-02  0.1804307E+06  0.1024127E+01
  0.4833333E+00 -0.4444776E+05 -0.8314487E+01 -0.1452216E-01 -0.7903501E-03  0.1803078E+06  0.1677464E+01
  0.5142857E+00 -0.4467002E+05 -0.1318413E+02  0.1839532E-02  0.1506060E-02  0.1810369E+06  0.2732171E+01
  0.5452381E+00 -0.4515349E+05 -0.2040168E+02 -0.3917977E-02 -0.3490150E-03  0.1805252E+06  0.4344262E+01
  0.5761905E+00 -0.4524751E+05 -0.3082633E+02 -0.6355727E-03 -0.9838641E-03  0.1808721E+06  0.6749832E+01
  0.6071429E+00 -0.4515755E+05 -0.4571790E+02 -0.4021139E-03 -0.2420247E-03  0.1809983E+06  0.1025981E+02
  0.6380953E+00 -0.4588286E+05 -0.6639585E+02  0.7939124E-02  0.2142847E-02  0.1809057E+06  0.1527393E+02
  0.6690477E+00 -0.4622342E+05 -0.9505457E+02  0.1851906E-01  0.2961159E-02  0.1814159E+06  0.2256580E+02
  0.7000000E+00 -0.4639186E+05 -0.1340408E+03 -0.1621791E-01 -0.3957748E-04  0.1817152E+06  0.3278839E+02
  0.7309524E+00 -0.4686272E+05 -0.1856583E+03  0.1027061E-01  0.2489924E-02  0.1813568E+06  0.4661780E+02
  0.7619048E+00 -0.4708550E+05 -0.2537892E+03  0.1425934E-01  0.1280308E-02  0.1817035E+06  0.6543917E+02
  0.7928572E+00 -0.4741827E+05 -0.3436248E+03 -0.1524229E-01 -0.5837679E-02  0.1823548E+06  0.9056914E+02
  0.8238096E+00 -0.4807037E+05 -0.4597165E+03  0.1807770E-01  0.4221439E-02  0.1821070E+06  0.1245383E+03
  0.8547620E+00 -0.4883986E+05 -0.6089640E+03  0.1321012E-01  0.7594585E-02  0.1824177E+06  0.1703256E+03
  0.8857143E+00 -0.4927377E+05 -0.7992592E+03  0.5030478E-02  0.5328178E-02  0.1829219E+06  0.2309029E+03
  0.9166667E+00 -0.4955350E+05 -0.1039749E+04  0.1071999E-01  0.9976387E-02  0.1834878E+06  0.3087832E+03
  0.9476191E+00 -0.5003663E+05 -0.1334692E+04 -0.4057764E-02 -0.5616188E-02  0.1831797E+06  0.4055342E+03
  0.9785714E+00 -0.5082530E+05 -0.1697739E+04 -0.4989735E-02 -0.3181458E-02  0.1833953E+06  0.5287093E+03
  0.1009524E+01 -0.5169724E+05 -0.2143307E+04  0.1825873E-01  0.1358604E-01  0.1840630E+06  0.6805591E+03
  0.1040476E+01 -0.5233696E+05 -0.2695767E+04 -0.4927506E-02 -0.8020401E-02  0.1847046E+06  0.8826696E+03
  0.1071429E+01 -0.5301605E+05 -0.3363504E+04 -0.1019694E-01 -0.9675980E-02  0.1853058E+06  0.1132801E+04
  0.1102381E+01 -0.5376827E+05 -0.4154411E+04 -0.1937833E-02 -0.2540588E-02  0.1850925E+06  0.1435543E+04
  0.1133333E+01 -0.5463848E+05 -0.5095974E+04  0.1292509E-02  0.6389618E-02  0.1855986E+06  0.1815628E+04
  0.1164286E+01 -0.5526167E+05 -0.6202258E+04  0.5032592E-02  0.7598877E-02  0.1861783E+06  0.2270685E+04
  0.1195238E+01 -0.5569341E+05 -0.7494796E+04  0.8681096E-02  0.1006317E-01  0.1866711E+06  0.2810875E+04
  0.1226190E+01 -0.5611382E+05 -0.8983187E+04  0.2986575E-03  0.1210022E-01  0.1874234E+06  0.3449934E+04
  0.1257143E+01 -0.5674213E+05 -0.1062566E+05  0.4952170E-02  0.1991272E-02  0.1872720E+06  0.4122096E+04
  0.1288095E+01 -0.5748750E+05 -0.1250351E+05  0.6633766E-03 -0.3059387E-02  0.1872713E+06  0.4933220E+04
  0.1319048E+01 -0.5810969E+05 -0.1462851E+05 -0.2868873E-02 -0.9010315E-02  0.1879901E+06  0.5936127E+04
  0.1350000E+01 -0.5845808E+05 -0.1698902E+05  0.3345631E-02  0.1341248E-01  0.1885599E+06  0.7067133E+04
  0.1380952E+01 -0.5854704E+05 -0.1959045E+05  0.1157984E-01  0.2435303E-01  0.1890326E+06  0.8349452E+04
  0.1411905E+01 -0.5827474E+05 -0.2245378E+05 -0.6052052E-03 -0.2838135E-02  0.1894991E+06  0.9811088E+04
  0.1442857E+01 -0.5821252E+05 -0.2534935E+05 -0.3468731E-02 -0.1138306E-01  0.1893091E+06  0.1121864E+05
  0.1473810E+01 -0.5805609E+05 -0.2836309E+05  0.1490875E-02  0.4486084E-02  0.1887749E+06  0.1265933E+05
  0.1504762E+01 -0.5791564E+05 -0.3160534E+05  0.1038370E-01  0.1039124E-01  0.1890518E+06  0.1446480E+05
  0.1535714E+01 -0.5737194E+05 -0.3493311E+05  0.1510265E-02 -0.8666992E-02  0.1892230E+06  0.1637304E+05
  0.1566667E+01 -0.5660250E+05 -0.3832312E+05 -0.3506275E-02  0.3417969E-02  0.1892792E+06  0.1835011E+05
  0.1597619E+01 -0.5556317E+05 -0.4173761E+05  0.2979898E-02  0.8026123E-02  0.1891454E+06  0.2037054E+05
  0.1628572E+01 -0.5443826E+05 -0.4511992E+05 -0.8469966E-02  0.3814697E-02  0.1891489E+06  0.2245693E+05
  0.1659524E+01 -0.5325704E+05 -0.4833632E+05  0.1397591E-02 -0.5767822E-02  0.1884847E+06  0.2438248E+05
  0.1690476E+01 -0.5200304E+05 -0.5140338E+05 -0.2094107E-02  0.6927490E-02  0.1874258E+06  0.2617166E+05
  0.1721429E+01 -0.5075919E+05 -0.5441481E+05 -0.9502237E-02 -0.8270264E-02  0.1866477E+06  0.2809333E+05
  0.1752381E+01 -0.4947823E+05 -0.5735502E+05 -0.7314268E-02 -0.9002686E-02  0.1863420E+06  0.3020868E+05
  0.1783333E+01 -0.4804056E+05 -0.6011866E+05  0.2738026E-02 -0.5828857E-02  0.1859581E+06  0.3229830E+05
  0.1814286E+01 -0.4642385E+05 -0.6270043E+05  0.6324588E-02  0.1391602E-01  0.1853858E+06  0.3433546E+05
  0.1845238E+01 -0.4468941E+05 -0.6512067E+05  0.2116936E-02  0.6652832E-02  0.1847201E+06  0.3637010E+05
  0.1876190E+01 -0.4292018E+05 -0.6733533E+05 -0.5009840E-02  0.5157471E-02  0.1840928E+06  0.3836449E+05
  0.1907143E+01 -0.4131037E+05 -0.6927187E+05 -0.1024111E-01  0.1220703E-02  0.1831709E+06  0.3988359E+05
  0.1938095E+01 -0.3980407E+05 -0.7093611E+05 -0.3527142E-02  0.2560425E-01  0.1818749E+06  0.4088810E+05
  0.1969048E+01 -0.3830223E+05 -0.7239230E+05  0.1301887E-01 -0.1922607E-02  0.1804569E+06  0.4167797E+05
  0.2000000E+01 -0.3699775E+05 -0.7401584E+05  0.7202148E-02 -0.1025391E-01  0.1798244E+06  0.4346761E+05
