VARIABLES="w (rad/s)"
"A   1   1" "B   1   1"
"A   1   2" "B   1   2"
"A   1   3" "B   1   3"
Zone t="Motion of body    1 in DoF   1",I=    64,F=POINT
  0.5000000E-01  0.1531766E+06  0.1579858E-01  0.5340576E-02 -0.3825848E-04 -0.5475738E+05  0.1637001E-03
  0.8095238E-01  0.1538978E+06  0.6944393E-01 -0.2506929E-01 -0.1049906E-03 -0.5570295E+05  0.3610374E-03
  0.1119048E+00  0.1541155E+06  0.1948423E+00  0.3538416E-01  0.2297662E-03 -0.5575575E+05  0.1480398E-02
  0.1428571E+00  0.1543018E+06  0.4382812E+00 -0.1847839E-01 -0.1029840E-03 -0.5568336E+05  0.4583309E-02
  0.1738095E+00  0.1545122E+06  0.8720721E+00  0.9305771E-02  0.2378398E-03 -0.5562179E+05  0.9867187E-02
  0.2047619E+00  0.1547180E+06  0.1608039E+01 -0.2161070E-01 -0.1773098E-03 -0.5551275E+05  0.2072823E-01
  0.2357143E+00  0.1550418E+06  0.2830272E+01 -0.6926565E-02  0.2351608E-03 -0.5539233E+05  0.4329434E-01
  0.2666667E+00  0.1553534E+06  0.4825400E+01  0.3261566E-01  0.2453141E-03 -0.5529772E+05  0.8691201E-01
  0.2976190E+00  0.1556729E+06  0.8086172E+01 -0.2235352E-01 -0.1026448E-02 -0.5519012E+05  0.1672950E+00
  0.3285715E+00  0.1561296E+06  0.1336932E+02  0.2865335E-01  0.1012690E-02 -0.5494691E+05  0.3253385E+00
  0.3595238E+00  0.1565880E+06  0.2193351E+02 -0.6578458E-02  0.2256632E-03 -0.5486262E+05  0.6066439E+00
  0.3904762E+00  0.1570500E+06  0.3571990E+02  0.2579107E-01 -0.3503263E-04 -0.5459647E+05  0.1135400E+01
  0.4214286E+00  0.1576734E+06  0.5739677E+02 -0.6589727E-02 -0.6495714E-03 -0.5430923E+05  0.2093212E+01
  0.4523810E+00  0.1584568E+06  0.9147055E+02  0.2307129E-01  0.3910065E-02 -0.5390970E+05  0.3789162E+01
  0.4833333E+00  0.1591276E+06  0.1420875E+03 -0.1919450E-01 -0.1615703E-02 -0.5385756E+05  0.6497448E+01
  0.5142857E+00  0.1598750E+06  0.2170892E+03 -0.1347012E-01 -0.7547140E-03 -0.5362269E+05  0.1099347E+02
  0.5452381E+00  0.1608565E+06  0.3239033E+03 -0.6044880E-02 -0.6780624E-03 -0.5317030E+05  0.1831013E+02
  0.5761905E+00  0.1618610E+06  0.4718542E+03  0.3691618E-01  0.5650520E-02 -0.5278489E+05  0.2947703E+02
  0.6071429E+00  0.1629026E+06  0.6746797E+03  0.1266659E-01  0.3953934E-02 -0.5258232E+05  0.4580013E+02
  0.6380953E+00  0.1640138E+06  0.9431766E+03  0.4113040E-02  0.1200199E-02 -0.5229308E+05  0.6967712E+02
  0.6690477E+00  0.1652120E+06  0.1295665E+04  0.3352589E-01  0.8909225E-02 -0.5183703E+05  0.1043070E+03
  0.7000000E+00  0.1666106E+06  0.1753394E+04 -0.3095354E-01 -0.9007454E-02 -0.5122492E+05  0.1537693E+03
  0.7309524E+00  0.1681186E+06  0.2335735E+04  0.4926551E-02  0.4468918E-02 -0.5070728E+05  0.2213882E+03
  0.7619048E+00  0.1695271E+06  0.3068706E+04  0.7450103E-02  0.5126953E-02 -0.5032589E+05  0.3120490E+03
  0.7928572E+00  0.1710658E+06  0.3981812E+04 -0.2232457E-02 -0.4320145E-02 -0.4980738E+05  0.4345336E+03
  0.8238096E+00  0.1726461E+06  0.5104817E+04  0.2230076E-01  0.2895355E-02 -0.4917302E+05  0.5970935E+03
  0.8547620E+00  0.1743598E+06  0.6471508E+04  0.3213271E-02  0.4444122E-02 -0.4849969E+05  0.8089810E+03
  0.8857143E+00  0.1760379E+06  0.8116165E+04 -0.1302412E-01 -0.4562378E-02 -0.4766098E+05  0.1084811E+04
  0.9166667E+00  0.1777836E+06  0.1007775E+05 -0.2450284E-01 -0.1390839E-01 -0.4690396E+05  0.1433013E+04
  0.9476191E+00  0.1794068E+06  0.1238974E+05 -0.8952845E-02  0.4867554E-02 -0.4616846E+05  0.1869458E+04
  0.9785714E+00  0.1809771E+06  0.1508825E+05  0.5301594E-02  0.1283264E-01 -0.4547399E+05  0.2408573E+04
  0.1009524E+01  0.1823655E+06  0.1820081E+05  0.1704954E-01  0.1844788E-01 -0.4465511E+05  0.3074109E+04
  0.1040476E+01  0.1837077E+06  0.2175709E+05 -0.1114555E-02  0.5905151E-02 -0.4385428E+05  0.3876310E+04
  0.1071429E+01  0.1848276E+06  0.2577023E+05  0.3064779E-01  0.2409363E-01 -0.4289878E+05  0.4847369E+04
  0.1102381E+01  0.1857540E+06  0.3025344E+05 -0.5038366E-02 -0.3845215E-02 -0.4196070E+05  0.5996652E+04
  0.1133333E+01  0.1864469E+06  0.3521276E+05  0.8293601E-02 -0.6561279E-02 -0.4116055E+05  0.7333580E+04
  0.1164286E+01  0.1867131E+06  0.4062417E+05 -0.1583169E-01 -0.1754761E-01 -0.4039700E+05  0.8883065E+04
  0.1195238E+01  0.1866737E+06  0.4647150E+05  0.1583023E-01  0.2124023E-01 -0.3982926E+05  0.1063478E+05
  0.1226190E+01  0.1862007E+06  0.5269045E+05 -0.9955249E-03  0.1580811E-01 -0.3925807E+05  0.1262107E+05
  0.1257143E+01  0.1852885E+06  0.5927121E+05 -0.5631880E-02 -0.9490967E-02 -0.3875450E+05  0.1484659E+05
  0.1288095E+01  0.1840388E+06  0.6599070E+05  0.1611057E-02  0.5249023E-02 -0.3837840E+05  0.1725650E+05
  0.1319048E+01  0.1823290E+06  0.7292888E+05  0.1341892E-01  0.2014160E-01 -0.3819384E+05  0.1987300E+05
  0.1350000E+01  0.1801519E+06  0.7992423E+05 -0.6600839E-02  0.1135254E-01 -0.3800794E+05  0.2270942E+05
  0.1380952E+01  0.1776891E+06  0.8691214E+05 -0.1706038E-01 -0.3167725E-01 -0.3806419E+05  0.2569188E+05
  0.1411905E+01  0.1741499E+06  0.9319263E+05  0.7089547E-02  0.2496338E-01 -0.3878650E+05  0.2859680E+05
  0.1442857E+01  0.1710351E+06  0.9986223E+05  0.2098159E-01  0.1770020E-02 -0.3905086E+05  0.3185540E+05
  0.1473810E+01  0.1676584E+06  0.1062608E+06 -0.8448291E-02  0.1971436E-01 -0.3947984E+05  0.3519602E+05
  0.1504762E+01  0.1640977E+06  0.1123403E+06  0.5029606E-02  0.2294922E-01 -0.4014388E+05  0.3855861E+05
  0.1535714E+01  0.1603126E+06  0.1180143E+06 -0.1033339E-02  0.1849365E-01 -0.4088051E+05  0.4197532E+05
  0.1566667E+01  0.1564107E+06  0.1232585E+06  0.1636261E-01  0.1074219E-01 -0.4172312E+05  0.4538747E+05
  0.1597619E+01  0.1525164E+06  0.1280482E+06 -0.3056306E-03  0.1220703E-02 -0.4276828E+05  0.4873091E+05
  0.1628572E+01  0.1485657E+06  0.1323417E+06  0.5996436E-02  0.6347656E-02 -0.4386230E+05  0.5203577E+05
  0.1659524E+01  0.1446291E+06  0.1361415E+06 -0.3089412E-02 -0.1904297E-01 -0.4504790E+05  0.5525523E+05
  0.1690476E+01  0.1407487E+06  0.1394351E+06 -0.3032845E-02  0.1513672E-01 -0.4629105E+05  0.5838938E+05
  0.1721429E+01  0.1370054E+06  0.1422611E+06 -0.7091222E-03  0.8178711E-02 -0.4763724E+05  0.6139061E+05
  0.1752381E+01  0.1333540E+06  0.1446745E+06  0.2183831E-01 -0.1550293E-01 -0.4908266E+05  0.6422757E+05
  0.1783333E+01  0.1297690E+06  0.1465949E+06  0.2635350E-02  0.6835938E-02 -0.5043498E+05  0.6704403E+05
  0.1814286E+01  0.1263636E+06  0.1481400E+06  0.2724956E-02 -0.2099609E-01 -0.5187283E+05  0.6966116E+05
  0.1845238E+01  0.1231670E+06  0.1493233E+06  0.6615424E-04  0.5126953E-02 -0.5337438E+05  0.7209942E+05
  0.1876190E+01  0.1200929E+06  0.1501229E+06 -0.3220611E-02 -0.1452637E-01 -0.5482970E+05  0.7443981E+05
  0.1907143E+01  0.1171642E+06  0.1505907E+06 -0.1238534E-01 -0.1269531E-01 -0.5626959E+05  0.7661989E+05
  0.1938095E+01  0.1144185E+06  0.1507613E+06  0.8125024E-02 -0.4272461E-02 -0.5771102E+05  0.7864805E+05
  0.1969048E+01  0.1118550E+06  0.1506202E+06 -0.4649595E-03  0.1672363E-01 -0.5911161E+05  0.8058266E+05
  0.2000000E+01  0.1094649E+06  0.1502930E+06  0.4364014E-02 -0.6103516E-02 -0.6055681E+05  0.8228947E+05
Zone t="Motion of body    1 in DoF   2",I=    64,F=POINT
  0.5000000E-01 -0.2655029E-01  0.5722046E-04  0.1958064E+06  0.5882186E+03 -0.4272461E-02  0.4386902E-04
  0.8095238E-01 -0.2045126E-01  0.2813339E-04  0.1930106E+06  0.9750552E+03  0.4900764E-02 -0.1068115E-03
  0.1119048E+00  0.8863084E-02 -0.6580353E-04  0.1914873E+06  0.1395787E+04  0.7090467E-02  0.8773804E-04
  0.1428571E+00  0.3150940E-01  0.8678436E-04  0.1907273E+06  0.1865922E+04  0.9185791E-02  0.1792908E-03
  0.1738095E+00  0.1957723E-01  0.4196167E-04  0.1904892E+06  0.2405545E+04  0.2177199E-01 -0.4959106E-04
  0.2047619E+00 -0.2235590E-03  0.3051758E-04  0.1907219E+06  0.3038907E+04  0.8942360E-02 -0.4005432E-03
  0.2357143E+00 -0.2485795E-01 -0.1316071E-03  0.1911386E+06  0.3800749E+04 -0.9580669E-02 -0.1525879E-04
  0.2666667E+00 -0.2563476E-01  0.7629395E-03  0.1919455E+06  0.4719832E+04  0.5950927E-02 -0.7400513E-03
  0.2976190E+00 -0.1999512E-01 -0.1640320E-03  0.1928484E+06  0.5860480E+04  0.1271484E-01 -0.5950928E-03
  0.3285715E+00  0.1188859E-01  0.7591248E-03  0.1938650E+06  0.7256388E+04  0.5572775E-03  0.5798340E-03
  0.3595238E+00  0.7639499E-03 -0.5874634E-03  0.1948052E+06  0.8982569E+04 -0.2563476E-01  0.4119873E-03
  0.3904762E+00  0.1461494E-01  0.1983643E-03  0.1958223E+06  0.1109585E+05 -0.1875714E-02 -0.6103516E-03
  0.4214286E+00 -0.4634534E-02 -0.8010864E-03  0.1961083E+06  0.1356916E+05 -0.3128310E-01  0.3967285E-03
  0.4523810E+00 -0.5531712E-02  0.7629395E-03  0.1962065E+06  0.1652504E+05 -0.1079359E-02 -0.2471924E-02
  0.4833333E+00 -0.2904431E-02 -0.2120972E-02  0.1956265E+06  0.1971308E+05 -0.1111261E-01 -0.8544922E-03
  0.5142857E+00 -0.2516005E-01 -0.2700806E-02  0.1944559E+06  0.2328362E+05  0.5221897E-02  0.1037598E-02
  0.5452381E+00  0.2093319E-01  0.3021240E-02  0.1928238E+06  0.2703576E+05 -0.1432860E-01  0.3997803E-02
  0.5761905E+00  0.2139761E-01 -0.2075195E-02  0.1907065E+06  0.3089888E+05 -0.4364266E-01  0.2136230E-02
  0.6071429E+00 -0.1005285E-02  0.2899170E-02  0.1881963E+06  0.3495800E+05  0.5147058E-01  0.2319336E-02
  0.6380953E+00  0.8130429E-02 -0.3387451E-02  0.1855794E+06  0.3897366E+05  0.1262608E-01 -0.2136230E-02
  0.6690477E+00  0.9213919E-02 -0.1159668E-02  0.1825979E+06  0.4304692E+05  0.2152955E-01  0.2075195E-02
  0.7000000E+00 -0.3452846E-01 -0.7934570E-03  0.1793535E+06  0.4718468E+05  0.1883370E-01 -0.2441406E-02
  0.7309524E+00 -0.1761868E-01 -0.4394531E-02  0.1760803E+06  0.5125155E+05 -0.2120922E-01  0.7690430E-02
  0.7619048E+00  0.2186966E-01 -0.1678467E-02  0.1726648E+06  0.5527755E+05 -0.1185608E-01 -0.8056641E-02
  0.7928572E+00  0.3310195E-02  0.1144409E-01  0.1691349E+06  0.5924881E+05  0.7852090E-02  0.2929688E-02
  0.8238096E+00 -0.2000401E-02 -0.7934570E-03  0.1655245E+06  0.6314254E+05  0.4889868E-02  0.9643555E-02
  0.8547620E+00 -0.2027931E-01  0.7934570E-03  0.1618949E+06  0.6692155E+05 -0.9425595E-02 -0.3906250E-02
  0.8857143E+00  0.2039756E-01  0.1055908E-01  0.1582263E+06  0.7057236E+05  0.1598727E-01 -0.3173828E-02
  0.9166667E+00 -0.1464844E-02  0.7995605E-02  0.1545850E+06  0.7406511E+05 -0.1824396E-01 -0.5981445E-02
  0.9476191E+00  0.7084985E-03 -0.7690430E-02  0.1509674E+06  0.7739272E+05 -0.1932269E-01  0.3784180E-02
  0.9785714E+00  0.1721459E-01  0.8300781E-02  0.1473852E+06  0.8054099E+05 -0.2993841E-02  0.4882812E-02
  0.1009524E+01  0.3143887E-02  0.9704590E-02  0.1438407E+06  0.8351939E+05  0.9068904E-02  0.9765625E-03
  0.1040476E+01  0.1038296E-01 -0.3662109E-03  0.1403803E+06  0.8631152E+05 -0.6804652E-02 -0.9399414E-02
  0.1071429E+01  0.5240886E-02 -0.6408691E-02  0.1369917E+06  0.8891677E+05 -0.2278646E-02 -0.2563477E-02
  0.1102381E+01 -0.2546866E-02  0.3601074E-02  0.1337318E+06  0.9131430E+05 -0.5536666E-02 -0.3417969E-02
  0.1133333E+01 -0.9424546E-02  0.1013184E-01  0.1305644E+06  0.9350895E+05 -0.2261891E-02 -0.1293945E-01
  0.1164286E+01  0.7548888E-02  0.4882812E-02  0.1275132E+06  0.9551163E+05 -0.3459907E-02  0.3173828E-02
  0.1195238E+01 -0.1542171E-01 -0.2990723E-02  0.1245958E+06  0.9731179E+05  0.1123436E-02 -0.4150391E-02
  0.1226190E+01 -0.8412185E-02  0.1831055E-02  0.1218091E+06  0.9891826E+05  0.1224496E-01 -0.1220703E-02
  0.1257143E+01  0.3398548E-03  0.7324219E-03  0.1191882E+06  0.1003912E+06 -0.8447820E-02  0.6103516E-02
  0.1288095E+01  0.4643636E-02  0.2563477E-02  0.1166615E+06  0.1015896E+06 -0.9192504E-02  0.4638672E-02
  0.1319048E+01  0.1499217E-01  0.1647949E-01  0.1142850E+06  0.1026981E+06  0.6848277E-02 -0.6347656E-02
  0.1350000E+01  0.5741826E-02  0.1306152E-01  0.1120092E+06  0.1036815E+06  0.7595486E-02  0.2197266E-02
  0.1380952E+01 -0.1065169E-01 -0.6591797E-02  0.1099124E+06  0.1044833E+06 -0.3270643E-02 -0.6591797E-02
  0.1411905E+01  0.4539039E-02 -0.1220703E-02  0.1078885E+06  0.1051729E+06 -0.8905163E-02  0.7324219E-03
  0.1442857E+01 -0.5710715E-02 -0.3784180E-02  0.1060772E+06  0.1057639E+06  0.4822382E-02 -0.6347656E-02
  0.1473810E+01  0.7081655E-02 -0.4394531E-02  0.1043912E+06  0.1062772E+06  0.8531117E-02  0.9765625E-03
  0.1504762E+01  0.4218379E-02 -0.2075195E-02  0.1028252E+06  0.1067140E+06 -0.7382163E-02  0.1025391E-01
  0.1535714E+01 -0.3656431E-02 -0.3173828E-02  0.1013678E+06  0.1071156E+06 -0.3815407E-02  0.4150391E-02
  0.1566667E+01  0.1059674E-01 -0.6347656E-02  0.1000094E+06  0.1074871E+06 -0.5220454E-02  0.1000977E-01
  0.1597619E+01 -0.2445045E-02 -0.2685547E-02  0.9875900E+05  0.1078267E+06  0.1604561E-01  0.5371094E-02
  0.1628572E+01 -0.7495545E-03 -0.5126953E-02  0.9758910E+05  0.1081716E+06  0.0000000E+00 -0.1708984E-02
  0.1659524E+01  0.1397591E-02 -0.1037598E-01  0.9650569E+05  0.1085481E+06 -0.8826892E-02 -0.7568359E-02
  0.1690476E+01  0.6390638E-02 -0.3173828E-02  0.9547273E+05  0.1089405E+06  0.5993480E-02  0.5126953E-02
  0.1721429E+01  0.5637521E-02  0.9887695E-02  0.9449324E+05  0.1093475E+06 -0.8722203E-02  0.7324219E-03
  0.1752381E+01 -0.1302636E-01  0.7568359E-02  0.9355458E+05  0.1098514E+06 -0.4109922E-02 -0.3417969E-02
  0.1783333E+01  0.1447731E-01  0.4882812E-03  0.9260266E+05  0.1103949E+06 -0.8214077E-02 -0.1171875E-01
  0.1814286E+01 -0.1194271E-01 -0.1989746E-01  0.9165152E+05  0.1109532E+06 -0.1278374E-02  0.2929688E-02
  0.1845238E+01  0.7276966E-03 -0.7324219E-02  0.9069767E+05  0.1115180E+06 -0.2447707E-02 -0.4882812E-03
  0.1876190E+01  0.3057954E-02  0.1391602E-01  0.8971436E+05  0.1120771E+06 -0.2400819E-01 -0.5126953E-02
  0.1907143E+01 -0.1096118E-01 -0.1342773E-02  0.8869735E+05  0.1125914E+06  0.5376580E-02 -0.1098633E-01
  0.1938095E+01  0.5196236E-03 -0.7446289E-02  0.8766412E+05  0.1130286E+06 -0.1039247E-01 -0.2441406E-02
  0.1969048E+01 -0.9097707E-02  0.1135254E-01  0.8661760E+05  0.1133377E+06  0.8741238E-02  0.6835938E-02
  0.2000000E+01 -0.7324219E-03 -0.8422852E-02  0.8556395E+05  0.1135048E+06  0.3479004E-02  0.1220703E-02
Zone t="Motion of body    1 in DoF   3",I=    64,F=POINT
  0.5000000E-01 -0.5343649E+05  0.5602545E-03 -0.2048492E-01 -0.3154642E-04  0.2999615E+06  0.2704913E-03
  0.8095238E-01 -0.5439506E+05  0.2243810E-02 -0.2332575E-01 -0.8202050E-04  0.3004792E+06  0.2225473E-03
  0.1119048E+00 -0.5449037E+05  0.6711794E-02 -0.5161042E-01 -0.2892134E-03  0.3002142E+06  0.6373620E-04
  0.1428571E+00 -0.5435018E+05  0.1619365E-01  0.4886627E-01  0.4706666E-03  0.3006605E+06 -0.5183807E-03
  0.1738095E+00 -0.5432932E+05  0.3361774E-01 -0.2633709E-02  0.5313939E-04  0.3003861E+06 -0.2834233E-03
  0.2047619E+00 -0.5416295E+05  0.6502836E-01  0.4024062E-02 -0.1435829E-03  0.3007637E+06  0.5191669E-03
  0.2357143E+00 -0.5406841E+05  0.1205700E+00  0.4401929E-01  0.8834230E-03  0.3006906E+06  0.2407183E-02
  0.2666667E+00 -0.5398226E+05  0.2182538E+00  0.8468628E-02  0.4277222E-03  0.3006105E+06  0.5723860E-02
  0.2976190E+00 -0.5382269E+05  0.3890122E+00 -0.4547608E-01 -0.1398950E-02  0.3008937E+06  0.8538894E-02
  0.3285715E+00 -0.5359572E+05  0.6870194E+00 -0.3575864E-01 -0.9874180E-03  0.3008947E+06  0.1742159E-01
  0.3595238E+00 -0.5354571E+05  0.1204906E+01 -0.1791038E-01 -0.1080272E-02  0.3006094E+06  0.3251071E-01
  0.3904762E+00 -0.5320981E+05  0.2102346E+01  0.9065953E-02  0.5689887E-03  0.3010974E+06  0.6888541E-01
  0.4214286E+00 -0.5288803E+05  0.3615995E+01 -0.7784568E-02 -0.1700580E-02  0.3014126E+06  0.1260213E+00
  0.4523810E+00 -0.5251536E+05  0.6157658E+01 -0.2792840E-01 -0.2698231E-02  0.3016117E+06  0.2465077E+00
  0.4833333E+00 -0.5248212E+05  0.1027412E+02 -0.3611597E-01 -0.3520615E-02  0.3011591E+06  0.4645229E+00
  0.5142857E+00 -0.5217574E+05  0.1674122E+02 -0.5862766E-01 -0.7924467E-02  0.3015452E+06  0.8430481E+00
  0.5452381E+00 -0.5169123E+05  0.2666611E+02 -0.1544803E-01 -0.3196344E-02  0.3019897E+06  0.1503602E+01
  0.5761905E+00 -0.5132770E+05  0.4153738E+02 -0.2542291E-02  0.1982391E-02  0.3020072E+06  0.2579773E+01
  0.6071429E+00 -0.5111928E+05  0.6339061E+02  0.1739143E-01  0.6980300E-03  0.3018468E+06  0.4428762E+01
  0.6380953E+00 -0.5075754E+05  0.9445604E+02 -0.1157391E-01  0.5534887E-03  0.3020665E+06  0.6965847E+01
  0.6690477E+00 -0.5023882E+05  0.1378853E+03  0.2964875E-01  0.5226612E-02  0.3025258E+06  0.1103671E+02
  0.7000000E+00 -0.4960511E+05  0.1980671E+03  0.1482282E-02  0.1429796E-02  0.3030026E+06  0.1744481E+02
  0.7309524E+00 -0.4910499E+05  0.2806625E+03  0.4521571E-01  0.1519489E-01  0.3029051E+06  0.2660729E+02
  0.7619048E+00 -0.4869813E+05  0.3917443E+03  0.3432655E-01  0.1334095E-01  0.3027300E+06  0.3998273E+02
  0.7928572E+00 -0.4810596E+05  0.5381025E+03  0.2294042E-01  0.8384466E-02  0.3030858E+06  0.5857637E+02
  0.8238096E+00 -0.4740075E+05  0.7282684E+03 -0.4297157E-02 -0.1561642E-02  0.3036124E+06  0.8483309E+02
  0.8547620E+00 -0.4666482E+05  0.9742693E+03 -0.2684867E-01 -0.1388693E-01  0.3041442E+06  0.1209587E+03
  0.8857143E+00 -0.4581743E+05  0.1288091E+04 -0.1584945E-01 -0.3483772E-02  0.3044955E+06  0.1711983E+03
  0.9166667E+00 -0.4504804E+05  0.1687401E+04  0.7523970E-02  0.1736641E-02  0.3046704E+06  0.2394125E+03
  0.9476191E+00 -0.4427608E+05  0.2185977E+04  0.1474965E-01  0.1407719E-01  0.3048460E+06  0.3303806E+03
  0.9785714E+00 -0.4351266E+05  0.2802116E+04 -0.2457445E-01 -0.2022171E-01  0.3050451E+06  0.4482422E+03
  0.1009524E+01 -0.4263504E+05  0.3543777E+04 -0.3246668E-01 -0.3505516E-01  0.3055586E+06  0.5974000E+03
  0.1040476E+01 -0.4178062E+05  0.4437194E+04  0.8212510E-02 -0.3013611E-02  0.3061349E+06  0.7879842E+03
  0.1071429E+01 -0.4079469E+05  0.5494245E+04 -0.1720378E-01 -0.1166916E-01  0.3068946E+06  0.1027624E+04
  0.1102381E+01 -0.3984057E+05  0.6748769E+04 -0.1206993E-01 -0.8502960E-02  0.3074400E+06  0.1334450E+04
  0.1133333E+01 -0.3901386E+05  0.8221334E+04  0.1701804E-01  0.1687241E-01  0.3078527E+06  0.1710828E+04
  0.1164286E+01 -0.3825085E+05  0.9918612E+04  0.3774444E-01  0.5290985E-01  0.3081200E+06  0.2172013E+04
  0.1195238E+01 -0.3764816E+05  0.1185824E+05  0.2364322E-01  0.2117920E-01  0.3084084E+06  0.2727394E+04
  0.1226190E+01 -0.3706554E+05  0.1402428E+05  0.1806878E-01 -0.2296448E-02  0.3087808E+06  0.3379337E+04
  0.1257143E+01 -0.3656053E+05  0.1641891E+05  0.6991299E-02 -0.1554108E-01  0.3094264E+06  0.4131356E+04
  0.1288095E+01 -0.3617064E+05  0.1900736E+05 -0.3459035E-02 -0.2619934E-01  0.3098801E+06  0.4983993E+04
  0.1319048E+01 -0.3600265E+05  0.2182062E+05 -0.7125909E-02 -0.2076721E-01  0.3104248E+06  0.5964449E+04
  0.1350000E+01 -0.3588077E+05  0.2481302E+05  0.1116717E-01  0.3636169E-01  0.3108851E+06  0.7065594E+04
  0.1380952E+01 -0.3597845E+05  0.2800660E+05  0.4331391E-02  0.2197266E-02  0.3112750E+06  0.8291041E+04
  0.1411905E+01 -0.3932214E+05  0.2893958E+05 -0.9034850E-02 -0.2069092E-01  0.3092309E+06  0.8902573E+04
  0.1442857E+01 -0.3962214E+05  0.3217932E+05  0.1823199E-01  0.1667786E-01  0.3096330E+06  0.1024244E+05
  0.1473810E+01 -0.4005589E+05  0.3556229E+05  0.3139120E-01  0.5468750E-01  0.3097325E+06  0.1175332E+05
  0.1504762E+01 -0.4071324E+05  0.3899015E+05  0.6246446E-02  0.8056641E-02  0.3098840E+06  0.1334143E+05
  0.1535714E+01 -0.4147408E+05  0.4240463E+05 -0.8823128E-02 -0.3424072E-01  0.3100262E+06  0.1500142E+05
  0.1566667E+01 -0.4235219E+05  0.4578343E+05 -0.1394718E-01 -0.1287842E-01  0.3101216E+06  0.1676175E+05
  0.1597619E+01 -0.4339640E+05  0.4917173E+05  0.1512871E-01  0.6805420E-02  0.3101228E+06  0.1856579E+05
  0.1628572E+01 -0.4449948E+05  0.5248394E+05  0.1499109E-02  0.6744385E-02  0.3100596E+06  0.2045224E+05
  0.1659524E+01 -0.4570977E+05  0.5567042E+05 -0.9930253E-02 -0.4309082E-01  0.3100694E+06  0.2238929E+05
  0.1690476E+01 -0.4693853E+05  0.5882228E+05  0.3971583E-02  0.2499390E-01  0.3098974E+06  0.2440512E+05
  0.1721429E+01 -0.4825451E+05  0.6192570E+05  0.9147676E-02 -0.2609253E-01  0.3095624E+06  0.2640815E+05
  0.1752381E+01 -0.4969955E+05  0.6480529E+05 -0.3023231E-01 -0.7928467E-01  0.3094097E+06  0.2849562E+05
  0.1783333E+01 -0.5107879E+05  0.6758934E+05 -0.2799631E-01 -0.4486084E-01  0.3090254E+06  0.3052939E+05
  0.1814286E+01 -0.5253080E+05  0.7020906E+05 -0.2926804E-01 -0.1409912E-01  0.3086709E+06  0.3261533E+05
  0.1845238E+01 -0.5402332E+05  0.7275242E+05  0.2910786E-02  0.4162598E-01  0.3082233E+06  0.3466026E+05
  0.1876190E+01 -0.5547410E+05  0.7513900E+05 -0.3253143E-02 -0.3259277E-01  0.3077448E+06  0.3665389E+05
  0.1907143E+01 -0.5692569E+05  0.7727773E+05  0.6720725E-02  0.1916504E-01  0.3073806E+06  0.3873201E+05
  0.1938095E+01 -0.5835628E+05  0.7932950E+05 -0.3023265E-02 -0.8972168E-02  0.3069454E+06  0.4078098E+05
  0.1969048E+01 -0.5973173E+05  0.8137548E+05  0.2479784E-03 -0.8117676E-02  0.3062941E+06  0.4268424E+05
  0.2000000E+01 -0.6117025E+05  0.8321030E+05  0.1770020E-02 -0.1892090E-01  0.3056774E+06  0.4460315E+05
