VARIABLES="w (rad/s)"
"A   1   1" "B   1   1"
"A   1   2" "B   1   2"
"A   1   3" "B   1   3"
Zone t="Motion of body    1 in DoF   1",I=    64,F=POINT
  0.5000000E-01  0.5683372E+05  0.6130673E-02  0.7553101E-02  0.3366492E-04  0.4519233E+04  0.8479931E-02
  0.8095238E-01  0.5684734E+05  0.2691987E-01  0.1460805E-01  0.8657185E-04  0.4487799E+04  0.3714576E-01
  0.1119048E+00  0.5719629E+05  0.7561072E-01  0.1329463E-01  0.8808728E-04  0.4240220E+04  0.1039334E+00
  0.1428571E+00  0.5708284E+05  0.1704298E+00 -0.3791809E-02 -0.4658033E-04  0.4288521E+04  0.2338301E+00
  0.1738095E+00  0.5747373E+05  0.3403609E+00  0.1492435E-02  0.3304612E-04  0.4207826E+04  0.4647247E+00
  0.2047619E+00  0.5737974E+05  0.6285731E+00 -0.1602173E-02 -0.6547291E-04  0.4426955E+04  0.8558137E+00
  0.2357143E+00  0.5766857E+05  0.1110063E+01  0.8836226E-02  0.1776740E-03  0.4323952E+04  0.1503185E+01
  0.2666667E+00  0.5805247E+05  0.1901079E+01 -0.6637573E-02 -0.1594462E-03  0.4467504E+04  0.2558196E+01
  0.2976190E+00  0.5791864E+05  0.3192125E+01  0.1573975E-01  0.6715655E-03  0.4790297E+04  0.4280371E+01
  0.3285715E+00  0.5829594E+05  0.5303420E+01 -0.1068115E-02  0.5172938E-04  0.4679318E+04  0.7052020E+01
  0.3595238E+00  0.5879441E+05  0.8749682E+01  0.3225566E-02  0.1042783E-03  0.4903795E+04  0.1153694E+02
  0.3904762E+00  0.5892980E+05  0.1431152E+02  0.1004289E-01  0.8148551E-03  0.5244235E+04  0.1874714E+02
  0.4214286E+00  0.5912031E+05  0.2310260E+02  0.6082825E-02  0.4522502E-03  0.5318693E+04  0.3000640E+02
  0.4523810E+00  0.5984130E+05  0.3707088E+02  0.1497610E-01  0.1656592E-02  0.5424720E+04  0.4760131E+02
  0.4833333E+00  0.6027773E+05  0.5795905E+02  0.6629680E-03  0.5279779E-03  0.5808613E+04  0.7367068E+02
  0.5142857E+00  0.6052452E+05  0.8902819E+02 -0.1771291E-01 -0.2908707E-02  0.6348981E+04  0.1121994E+03
  0.5452381E+00  0.6101807E+05  0.1336618E+03  0.3330281E-02  0.1058578E-02  0.6329952E+04  0.1663659E+03
  0.5761905E+00  0.6177146E+05  0.1962110E+03 -0.9798411E-02 -0.1448870E-02  0.6538471E+04  0.2408338E+03
  0.6071429E+00  0.6257005E+05  0.2828007E+03  0.4423253E-02  0.1179695E-02  0.7044303E+04  0.3425362E+03
  0.6380953E+00  0.6299431E+05  0.3978900E+03  0.1305651E-01  0.2426624E-02  0.7572878E+04  0.4761636E+03
  0.6690477E+00  0.6341939E+05  0.5501175E+03  0.9943734E-02  0.2416611E-02  0.7984492E+04  0.6499007E+03
  0.7000000E+00  0.6451162E+05  0.7510035E+03  0.1273019E-01  0.6359100E-02  0.8120352E+04  0.8723012E+03
  0.7309524E+00  0.6547453E+05  0.1008765E+04  0.1331839E-01  0.3782272E-02  0.8484020E+04  0.1151837E+04
  0.7619048E+00  0.6640357E+05  0.1337112E+04 -0.1682281E-02  0.3299713E-03  0.9021801E+04  0.1500308E+04
  0.7928572E+00  0.6726053E+05  0.1749965E+04  0.4580386E-02  0.2326965E-02  0.9763666E+04  0.1932574E+04
  0.8238096E+00  0.6804685E+05  0.2262640E+04 -0.3704446E-04  0.9460449E-03  0.1022219E+05  0.2455673E+04
  0.8547620E+00  0.6896732E+05  0.2892891E+04  0.3177568E-02  0.4005432E-03  0.1054948E+05  0.3083232E+04
  0.8857143E+00  0.7024623E+05  0.3663218E+04 -0.1288629E-01 -0.9761810E-02  0.1075063E+05  0.3824117E+04
  0.9166667E+00  0.7154310E+05  0.4595820E+04  0.2263849E-02  0.5187988E-03  0.1122751E+05  0.4697392E+04
  0.9476191E+00  0.7277802E+05  0.5713715E+04 -0.5925624E-02 -0.7102966E-02  0.1156842E+05  0.5704991E+04
  0.9785714E+00  0.7383413E+05  0.7037595E+04  0.5426337E-02  0.5119324E-02  0.1192560E+05  0.6864371E+04
  0.1009524E+01  0.7474656E+05  0.8590219E+04 -0.2176537E-02 -0.1495361E-02  0.1218536E+05  0.8179417E+04
  0.1040476E+01  0.7564439E+05  0.1039526E+05  0.6687330E-02  0.8300781E-02  0.1246708E+05  0.9673485E+04
  0.1071429E+01  0.7660877E+05  0.1247383E+05 -0.6380209E-02 -0.1354980E-01  0.1244362E+05  0.1133280E+05
  0.1102381E+01  0.7766618E+05  0.1483377E+05  0.2768333E-02  0.1815796E-02  0.1209523E+05  0.1314962E+05
  0.1133333E+01  0.7850463E+05  0.1750551E+05  0.2585018E-02  0.2593994E-02  0.1175534E+05  0.1508040E+05
  0.1164286E+01  0.7918340E+05  0.2050021E+05 -0.7548888E-02 -0.9307861E-02  0.1118443E+05  0.1713267E+05
  0.1195238E+01  0.7972834E+05  0.2381738E+05  0.5106527E-04 -0.6103516E-04  0.1068163E+05  0.1931701E+05
  0.1226190E+01  0.8009071E+05  0.2744700E+05  0.3384785E-02  0.7232666E-02  0.9960267E+04  0.2159715E+05
  0.1257143E+01  0.8023277E+05  0.3134562E+05  0.1359419E-02  0.3479004E-02  0.8879606E+04  0.2394309E+05
  0.1288095E+01  0.8023045E+05  0.3550767E+05 -0.3601187E-02  0.1190186E-02  0.7624950E+04  0.2621587E+05
  0.1319048E+01  0.7987922E+05  0.3992744E+05 -0.1388164E-03 -0.1281738E-02  0.6254952E+04  0.2843539E+05
  0.1350000E+01  0.7925856E+05  0.4455421E+05 -0.1718027E-02 -0.1623535E-01  0.4669653E+04  0.3054010E+05
  0.1380952E+01  0.7843979E+05  0.4931907E+05  0.3756819E-02 -0.1000977E-01  0.3167484E+04  0.3260986E+05
  0.1411905E+01  0.7731223E+05  0.5420181E+05 -0.1296868E-03  0.3662109E-02  0.1542121E+04  0.3465461E+05
  0.1442857E+01  0.7604627E+05  0.5912280E+05 -0.2580397E-02 -0.2099609E-01 -0.4842758E+03  0.3622571E+05
  0.1473810E+01  0.7447754E+05  0.6402983E+05 -0.5383714E-03  0.7202148E-02 -0.2518969E+04  0.3750536E+05
  0.1504762E+01  0.7267710E+05  0.6887188E+05  0.1744137E-02  0.9582520E-02 -0.4558273E+04  0.3851154E+05
  0.1535714E+01  0.7071626E+05  0.7357834E+05  0.3258993E-02  0.6896973E-02 -0.6672184E+04  0.3918755E+05
  0.1566667E+01  0.6859548E+05  0.7811877E+05  0.2805020E-02 -0.5798340E-02 -0.8737971E+04  0.3951582E+05
  0.1597619E+01  0.6636391E+05  0.8245404E+05 -0.3820382E-04  0.7324219E-03 -0.1057753E+05  0.3966157E+05
  0.1628572E+01  0.6405031E+05  0.8658013E+05 -0.4103811E-02  0.6713867E-03 -0.1238775E+05  0.3952183E+05
  0.1659524E+01  0.6173728E+05  0.9050441E+05  0.3438810E-02 -0.1831055E-02 -0.1437076E+05  0.3887686E+05
  0.1690476E+01  0.5928400E+05  0.9412384E+05 -0.6679481E-03 -0.2020264E-01 -0.1612343E+05  0.3787874E+05
  0.1721429E+01  0.5678420E+05  0.9746548E+05 -0.1613253E-02 -0.1275635E-01 -0.1768722E+05  0.3653268E+05
  0.1752381E+01  0.5430318E+05  0.1005599E+06  0.2925707E-02 -0.4089355E-02 -0.1916870E+05  0.3491689E+05
  0.1783333E+01  0.5185163E+05  0.1034128E+06 -0.4534855E-03  0.3662109E-02 -0.2059610E+05  0.3295558E+05
  0.1814286E+01  0.4943900E+05  0.1059915E+06  0.1766175E-02 -0.1226807E-01 -0.2177125E+05  0.3078237E+05
  0.1845238E+01  0.4710559E+05  0.1083472E+06  0.4337237E-02 -0.4211426E-02 -0.2273937E+05  0.2864702E+05
  0.1876190E+01  0.4485648E+05  0.1105351E+06  0.8214186E-03 -0.1031494E-01 -0.2366651E+05  0.2642723E+05
  0.1907143E+01  0.4267923E+05  0.1125949E+06 -0.4300464E-04 -0.1116943E-01 -0.2458990E+05  0.2362023E+05
  0.1938095E+01  0.4045904E+05  0.1143291E+06  0.3150218E-02 -0.7751465E-02 -0.2519544E+05  0.2063732E+05
  0.1969048E+01  0.3828834E+05  0.1159177E+06  0.7943058E-03  0.8178711E-02 -0.2565746E+05  0.1744294E+05
  0.2000000E+01  0.3613335E+05  0.1173777E+06 -0.5874634E-02  0.1300049E-01 -0.2597925E+05  0.1411298E+05
Zone t="Motion of body    1 in DoF   2",I=    64,F=POINT
  0.5000000E-01  0.5569458E-02 -0.7152557E-05  0.2332200E+06  0.5387865E+03 -0.2746582E-01  0.6866455E-04
  0.8095238E-01 -0.1413682E-02  0.1049042E-04  0.2303208E+06  0.8927874E+03  0.1658720E-01 -0.9918213E-04
  0.1119048E+00  0.4158832E-02 -0.7629395E-05  0.2288038E+06  0.1277370E+04  0.2890729E-01  0.1602173E-03
  0.1428571E+00  0.1869202E-02  0.6103516E-04  0.2279877E+06  0.1706139E+04  0.1623535E-01 -0.4577637E-04
  0.1738095E+00 -0.3511612E-03  0.4005432E-04  0.2277442E+06  0.2197302E+04  0.1615341E-01  0.1983643E-03
  0.2047619E+00  0.6706770E-03  0.1144409E-04  0.2276983E+06  0.2772826E+04 -0.3815407E-01 -0.1983643E-03
  0.2357143E+00 -0.2783573E-02  0.1907349E-05  0.2280136E+06  0.3463281E+04 -0.1916134E-01  0.5645752E-03
  0.2666667E+00 -0.4405975E-02  0.8010864E-04  0.2285511E+06  0.4294204E+04  0.1831055E-02 -0.6103516E-04
  0.2976190E+00  0.5947266E-02  0.4692078E-03  0.2292385E+06  0.5322743E+04 -0.1066406E-01 -0.3356934E-03
  0.3285715E+00  0.1857591E-03 -0.2555847E-03  0.2299497E+06  0.6577950E+04 -0.9659476E-02 -0.1525879E-03
  0.3595238E+00  0.6111600E-02 -0.3051758E-04  0.2306660E+06  0.8125700E+04 -0.1561853E-01  0.1159668E-02
  0.3904762E+00 -0.7815477E-03 -0.2288818E-04  0.2312696E+06  0.1001668E+05 -0.1125429E-01  0.1831055E-03
  0.4214286E+00  0.5069021E-03  0.4653931E-03  0.2313968E+06  0.1221665E+05  0.1737950E-02 -0.8544922E-03
  0.4523810E+00 -0.7015830E-02  0.8392334E-03  0.2310505E+06  0.1484072E+05 -0.1942845E-01 -0.2197266E-02
  0.4833333E+00  0.3346410E-02  0.3051758E-03  0.2303671E+06  0.1764922E+05  0.1414332E-01  0.1159668E-02
  0.5142857E+00  0.4925198E-02 -0.6561279E-03  0.2288865E+06  0.2078309E+05 -0.4747179E-02  0.1037598E-02
  0.5452381E+00 -0.1007480E-02  0.1678467E-03  0.2270341E+06  0.2405265E+05  0.1791075E-01  0.2563477E-02
  0.5761905E+00  0.9533590E-02 -0.2441406E-03  0.2249129E+06  0.2738705E+05  0.5932011E-02 -0.4272461E-02
  0.6071429E+00  0.2010570E-02 -0.1251221E-02  0.2221408E+06  0.3088193E+05 -0.6433823E-02 -0.1953125E-02
  0.6380953E+00 -0.1214782E-01 -0.1892090E-02  0.2194647E+06  0.3427896E+05 -0.4591301E-02 -0.4882812E-03
  0.6690477E+00  0.3192942E-02  0.1190186E-02  0.2165002E+06  0.3768716E+05 -0.8757784E-02  0.1098633E-02
  0.7000000E+00  0.4359654E-02  0.1068115E-02  0.2130456E+06  0.4113358E+05 -0.2092634E-02 -0.1074219E-01
  0.7309524E+00 -0.1670017E-03  0.9155273E-04  0.2097899E+06  0.4445067E+05  0.1336014E-01  0.1953125E-02
  0.7619048E+00  0.4165649E-02  0.2746582E-02  0.2065329E+06  0.4766680E+05  0.1217651E-01  0.2441406E-02
  0.7928572E+00  0.4387932E-02 -0.2685547E-02  0.2028426E+06  0.5081832E+05  0.3079251E-02  0.3906250E-02
  0.8238096E+00  0.3926713E-02 -0.6103516E-03  0.1992335E+06  0.5383345E+05 -0.2607930E-01  0.5859375E-02
  0.8547620E+00 -0.6426543E-02  0.1831055E-02  0.1957050E+06  0.5667232E+05  0.2342118E-01  0.5859375E-02
  0.8857143E+00  0.6133049E-02  0.6103516E-04  0.1921362E+06  0.5933606E+05  0.2756426E-01  0.2929688E-02
  0.9166667E+00 -0.4993785E-02 -0.1037598E-02  0.1885133E+06  0.6182835E+05 -0.1012074E-01  0.1635742E-01
  0.9476191E+00  0.4444218E-02 -0.4333496E-02  0.1849703E+06  0.6411406E+05  0.1133598E-01 -0.2685547E-02
  0.9785714E+00 -0.7110373E-02  0.7080078E-02  0.1815625E+06  0.6615547E+05  0.5488709E-02 -0.3662109E-02
  0.1009524E+01  0.3627561E-02 -0.1220703E-02  0.1783157E+06  0.6794020E+05  0.9189822E-02 -0.8544922E-02
  0.1040476E+01 -0.1223077E-01  0.1647949E-02  0.1749090E+06  0.6955737E+05  0.1548645E-01  0.2685547E-02
  0.1071429E+01  0.1765951E-02 -0.8239746E-02  0.1716130E+06  0.7095396E+05  0.5468750E-02  0.2832031E-01
  0.1102381E+01 -0.2325400E-02 -0.6469727E-02  0.1685135E+06  0.7210662E+05 -0.7086933E-02  0.2441406E-01
  0.1133333E+01 -0.8347455E-02  0.5310059E-02  0.1656226E+06  0.7298591E+05  0.1723346E-02 -0.1293945E-01
  0.1164286E+01  0.2096913E-02 -0.5310059E-02  0.1629625E+06  0.7360698E+05 -0.8807035E-02  0.3759766E-01
  0.1195238E+01 -0.3574569E-03  0.1708984E-02  0.1601932E+06  0.7406409E+05 -0.9396009E-02  0.1098633E-01
  0.1226190E+01  0.1269294E-02  0.3784180E-02  0.1575608E+06  0.7430300E+05 -0.3583890E-02  0.1196289E-01
  0.1257143E+01 -0.2864491E-02 -0.7080078E-02  0.1551934E+06  0.7443025E+05 -0.5437677E-02  0.8544922E-02
  0.1288095E+01 -0.1907208E-02  0.4394531E-02  0.1529415E+06  0.7414622E+05  0.5686085E-02 -0.3295898E-01
  0.1319048E+01  0.5321296E-03 -0.4394531E-02  0.1509411E+06  0.7371978E+05 -0.2221063E-02  0.1831055E-01
  0.1350000E+01  0.3933377E-02 -0.3540039E-02  0.1491477E+06  0.7309577E+05  0.1265914E-01  0.1293945E-01
  0.1380952E+01 -0.2447457E-02  0.3295898E-02  0.1472151E+06  0.7234732E+05  0.0000000E+00 -0.5615234E-02
  0.1411905E+01 -0.4425563E-02  0.3295898E-02  0.1453950E+06  0.7131445E+05 -0.4495810E-02 -0.3125000E-01
  0.1442857E+01  0.2702014E-02 -0.1586914E-02  0.1438807E+06  0.7028910E+05  0.5753017E-02  0.7568359E-02
  0.1473810E+01  0.7390475E-02  0.1098633E-02  0.1425440E+06  0.6909207E+05 -0.3644361E-02 -0.1196289E-01
  0.1504762E+01 -0.1280217E-02 -0.4394531E-02  0.1413867E+06  0.6774609E+05 -0.9734721E-03 -0.1635742E-01
  0.1535714E+01  0.2454181E-02  0.4272461E-02  0.1404222E+06  0.6624263E+05  0.1081032E-01 -0.1953125E-02
  0.1566667E+01  0.1899232E-03  0.1220703E-02  0.1395520E+06  0.6467446E+05  0.4675033E-02 -0.5566406E-01
  0.1597619E+01 -0.1127013E-02 -0.2685547E-02  0.1385972E+06  0.6300002E+05 -0.1069707E-01 -0.3149414E-01
  0.1628572E+01 -0.1274243E-02 -0.5615234E-02  0.1377979E+06  0.6126090E+05 -0.1559073E-01 -0.9765625E-03
  0.1659524E+01  0.1002220E-02 -0.7324219E-03  0.1371646E+06  0.5952738E+05 -0.2206723E-01  0.2441406E-02
  0.1690476E+01  0.3899373E-02  0.4394531E-02  0.1366568E+06  0.5770847E+05  0.3754951E-02 -0.9277344E-02
  0.1721429E+01 -0.1595525E-03 -0.8544922E-02  0.1362843E+06  0.5581820E+05  0.5672977E-02  0.8789062E-02
  0.1752381E+01  0.3657134E-03 -0.1049805E-01  0.1360400E+06  0.5389917E+05 -0.2507749E-01  0.1147461E-01
  0.1783333E+01 -0.3097392E-02 -0.1306152E-01  0.1359013E+06  0.5196806E+05  0.1204731E-01 -0.1708984E-01
  0.1814286E+01 -0.4205178E-03 -0.9399414E-02  0.1357702E+06  0.4998947E+05 -0.1345657E-01 -0.1806641E-01
  0.1845238E+01 -0.2150013E-02 -0.4394531E-02  0.1356300E+06  0.4798479E+05 -0.2064012E-01 -0.1000977E-01
  0.1876190E+01  0.1951886E-02  0.4272461E-03  0.1355513E+06  0.4600402E+05 -0.1301257E-02  0.1196289E-01
  0.1907143E+01 -0.4560492E-02 -0.1977539E-01  0.1355698E+06  0.4412058E+05  0.1792193E-02  0.1708984E-02
  0.1938095E+01 -0.2172972E-02 -0.1422119E-01  0.1356916E+06  0.4221891E+05  0.4786836E-02 -0.2124023E-01
  0.1969048E+01 -0.9299190E-03  0.2380371E-02  0.1358585E+06  0.4034425E+05  0.8183287E-02  0.5615234E-02
  0.2000000E+01  0.0000000E+00 -0.1068115E-01  0.1360778E+06  0.3850244E+05 -0.7812500E-02  0.2807617E-02
Zone t="Motion of body    1 in DoF   3",I=    64,F=POINT
  0.5000000E-01  0.1408976E+04  0.7709866E-02 -0.6881714E-01 -0.2293331E-03  0.4975414E+06  0.1053451E-01
  0.8095238E-01  0.1411831E+04  0.3400853E-01  0.6408691E-02 -0.1344775E-03  0.4972579E+06  0.4666834E-01
  0.1119048E+00  0.8555764E+03  0.9550811E-01  0.2727103E-03 -0.1315593E-03  0.4971245E+06  0.1319948E+00
  0.1428571E+00  0.1161687E+04  0.2144705E+00  0.2243042E-01  0.3650319E-04  0.4976006E+06  0.2944582E+00
  0.1738095E+00  0.9151454E+03  0.4268915E+00  0.2879522E-01  0.3186427E-04  0.4984744E+06  0.5836982E+00
  0.2047619E+00  0.1196650E+04  0.7846802E+00 -0.3547136E-01 -0.5565640E-03  0.4974865E+06  0.1068984E+01
  0.2357143E+00  0.1009943E+04  0.1380326E+01 -0.3884055E-01 -0.7736236E-03  0.4980659E+06  0.1867752E+01
  0.2666667E+00  0.1002539E+04  0.2351632E+01  0.1762390E-01  0.9692088E-04  0.4977575E+06  0.3161604E+01
  0.2976190E+00  0.1596567E+04  0.3924485E+01 -0.4532227E-01 -0.1646563E-02  0.4977772E+06  0.5260193E+01
  0.3285715E+00  0.1293633E+04  0.6476023E+01 -0.4365340E-01 -0.3077485E-02  0.4979373E+06  0.8608196E+01
  0.3595238E+00  0.1417526E+04  0.1060639E+02  0.2003247E-01 -0.1883209E-03  0.4981760E+06  0.1399078E+02
  0.3904762E+00  0.1782030E+04  0.1720779E+02  0.7190239E-02 -0.3278255E-06  0.4976066E+06  0.2254669E+02
  0.4214286E+00  0.2135955E+04  0.2752181E+02 -0.2375198E-01 -0.4638433E-02  0.4989982E+06  0.3573237E+02
  0.4523810E+00  0.1760175E+04  0.4376579E+02 -0.4425370E-01 -0.5324662E-02  0.4979327E+06  0.5618174E+02
  0.4833333E+00  0.2253670E+04  0.6767504E+02  0.1591123E-01 -0.9523630E-03  0.4989452E+06  0.8601822E+02
  0.5142857E+00  0.2860105E+04  0.1028108E+03  0.3726536E-01  0.2966285E-02  0.4979331E+06  0.1296027E+03
  0.5452381E+00  0.2847663E+04  0.1526177E+03  0.2417952E-01  0.1350164E-02  0.4986343E+06  0.1898322E+03
  0.5761905E+00  0.2952727E+04  0.2212593E+03  0.2944820E-01  0.4023075E-02  0.4999418E+06  0.2714786E+03
  0.6071429E+00  0.3154309E+04  0.3147940E+03  0.4825367E-02  0.4291534E-05  0.4985991E+06  0.3816406E+03
  0.6380953E+00  0.3931710E+04  0.4365279E+03 -0.1759999E-01 -0.9149075E-02  0.4993706E+06  0.5228228E+03
  0.6690477E+00  0.4629598E+04  0.5945941E+03  0.5838523E-02 -0.1600266E-02  0.5002758E+06  0.7026178E+03
  0.7000000E+00  0.4332184E+04  0.8010117E+03 -0.4882812E-02 -0.4064560E-02  0.4997473E+06  0.9289482E+03
  0.7309524E+00  0.4586670E+04  0.1059021E+04  0.4625947E-01  0.1065826E-01  0.5004428E+06  0.1208385E+04
  0.7619048E+00  0.5234313E+04  0.1378102E+04  0.1265716E-01 -0.3299713E-02  0.5018228E+06  0.1548493E+04
  0.7928572E+00  0.5874538E+04  0.1771381E+04 -0.8929827E-02 -0.1179695E-01  0.5003549E+06  0.1960382E+04
  0.8238096E+00  0.6440632E+04  0.2248296E+04 -0.3289548E-01 -0.1887512E-01  0.5006225E+06  0.2445849E+04
  0.8547620E+00  0.6905168E+04  0.2822343E+04  0.2570617E-02  0.5455017E-03  0.5016242E+06  0.3004421E+04
  0.8857143E+00  0.6975240E+04  0.3511314E+04  0.3914126E-01  0.1031113E-01  0.5027815E+06  0.3649845E+04
  0.9166667E+00  0.7144595E+04  0.4319386E+04 -0.2237216E-01 -0.2990723E-02  0.5015308E+06  0.4404211E+04
  0.9476191E+00  0.7379771E+04  0.5249633E+04 -0.9532525E-02 -0.2542877E-01  0.5013837E+06  0.5252349E+04
  0.9785714E+00  0.7859928E+04  0.6303509E+04 -0.2045792E-01 -0.2249908E-01  0.5018267E+06  0.6184536E+04
  0.1009524E+01  0.8407806E+04  0.7483366E+04  0.2490925E-01  0.5119324E-02  0.5030211E+06  0.7185052E+04
  0.1040476E+01  0.8746506E+04  0.8827714E+04 -0.7977867E-02 -0.5004883E-02  0.5017682E+06  0.8287826E+04
  0.1071429E+01  0.8686181E+04  0.1033798E+05  0.5468750E-02  0.2386475E-01  0.5007215E+06  0.9431278E+04
  0.1102381E+01  0.8245433E+04  0.1202705E+05  0.1771733E-02 -0.1019287E-01  0.5006195E+06  0.1059139E+05
  0.1133333E+01  0.7989895E+04  0.1379114E+05 -0.6031710E-02 -0.1509094E-01  0.5008028E+06  0.1186646E+05
  0.1164286E+01  0.7605502E+04  0.1564192E+05  0.6919814E-02  0.6607056E-02  0.5014699E+06  0.1307512E+05
  0.1195238E+01  0.7118964E+04  0.1761332E+05 -0.6536354E-02 -0.1570129E-01  0.4998726E+06  0.1434870E+05
  0.1226190E+01  0.6382071E+04  0.1966804E+05 -0.1154809E-01 -0.3259277E-01  0.4981588E+06  0.1554934E+05
  0.1257143E+01  0.5362182E+04  0.2185386E+05 -0.6991299E-02 -0.5215454E-01  0.4973626E+06  0.1660562E+05
  0.1288095E+01  0.4183729E+04  0.2391960E+05  0.1326753E-01  0.2014160E-02  0.4968259E+06  0.1759216E+05
  0.1319048E+01  0.3015328E+04  0.2589503E+05 -0.1110531E-01 -0.4681396E-01  0.4964510E+06  0.1848774E+05
  0.1350000E+01  0.1707694E+04  0.2773925E+05  0.1247830E-01  0.4455566E-02  0.4964247E+06  0.1913349E+05
  0.1380952E+01  0.2652168E+03  0.2959116E+05 -0.6894868E-02 -0.3628540E-01  0.4941726E+06  0.1967080E+05
  0.1411905E+01 -0.1454289E+04  0.3104749E+05 -0.3112484E-02 -0.2331543E-01  0.4918727E+06  0.1966784E+05
  0.1442857E+01 -0.3348162E+04  0.3250998E+05  0.1624381E-01  0.4943848E-02  0.4909612E+06  0.1982344E+05
  0.1473810E+01 -0.5160978E+04  0.3365418E+05  0.2153486E-01  0.2105713E-02  0.4901926E+06  0.1980658E+05
  0.1504762E+01 -0.6924166E+04  0.3448163E+05  0.6003078E-02  0.1797485E-01  0.4896501E+06  0.1949680E+05
  0.1535714E+01 -0.8751206E+04  0.3497959E+05  0.2797965E-01  0.7629395E-03  0.4897385E+06  0.1890793E+05
  0.1566667E+01 -0.1053880E+05  0.3521530E+05  0.8259225E-02  0.6103516E-04  0.4896633E+06  0.1818380E+05
  0.1597619E+01 -0.1224231E+05  0.3532546E+05  0.8557657E-02 -0.1919556E-01  0.4879528E+06  0.1733080E+05
  0.1628572E+01 -0.1395089E+05  0.3515323E+05  0.1948842E-02  0.9613037E-02  0.4863910E+06  0.1607414E+05
  0.1659524E+01 -0.1583956E+05  0.3463485E+05 -0.1912493E-02 -0.1358032E-01  0.4862071E+06  0.1498229E+05
  0.1690476E+01 -0.1739920E+05  0.3374004E+05  0.3090614E-01 -0.1959229E-01  0.4861335E+06  0.1396355E+05
  0.1721429E+01 -0.1873257E+05  0.3249329E+05  0.1716076E-01 -0.5981445E-02  0.4862235E+06  0.1310124E+05
  0.1752381E+01 -0.1997142E+05  0.3091639E+05  0.1602173E-01 -0.3512573E-01  0.4867658E+06  0.1199698E+05
  0.1783333E+01 -0.2112984E+05  0.2899501E+05 -0.2464223E-02  0.1593018E-01  0.4879747E+06  0.1094175E+05
  0.1814286E+01 -0.2211460E+05  0.2705852E+05  0.1103439E-01  0.1052856E-01  0.4883840E+06  0.1007405E+05
  0.1845238E+01 -0.2303440E+05  0.2520672E+05  0.1799395E-01 -0.2807617E-02  0.4876345E+06  0.8706660E+04
  0.1876190E+01 -0.2394410E+05  0.2315472E+05  0.2264187E-01  0.9399414E-02  0.4869781E+06  0.6737815E+04
  0.1907143E+01 -0.2492313E+05  0.2063915E+05  0.3840415E-02 -0.1165771E-01  0.4875852E+06  0.5917896E+04
  0.1938095E+01 -0.2546539E+05  0.1803899E+05 -0.2015510E-02 -0.1393127E-01  0.4881058E+06  0.5623318E+04
  0.1969048E+01 -0.2584272E+05  0.1520032E+05  0.1016711E-01 -0.3982544E-02  0.4888948E+06  0.5815013E+04
  0.2000000E+01 -0.2601588E+05  0.1209216E+05  0.3662109E-02 -0.3257751E-01  0.4898922E+06  0.6077478E+04
