VARIABLES="w (rad/s)"
"A   1   1" "B   1   1"
"A   1   2" "B   1   2"
"A   1   3" "B   1   3"
Zone t="Motion of body    1 in DoF   1",I=    64,F=POINT
  0.5000000E-01  0.1828080E+05  0.4275281E-03 -0.1926422E-02 -0.5107759E-05 -0.1107136E+05 -0.1156803E-03
  0.8095238E-01  0.1833828E+05  0.1848662E-02 -0.6479376E-04  0.2051573E-05 -0.1110418E+05 -0.5450496E-03
  0.1119048E+00  0.1830798E+05  0.5177603E-02 -0.8522196E-05 -0.1034754E-05 -0.1105429E+05 -0.1495954E-02
  0.1428571E+00  0.1840138E+05  0.1167163E-01 -0.2209663E-02 -0.1786079E-04 -0.1108358E+05 -0.3359899E-02
  0.1738095E+00  0.1839076E+05  0.2327666E-01 -0.6035583E-04 -0.3654772E-05 -0.1107456E+05 -0.6713815E-02
  0.2047619E+00  0.1849300E+05  0.4316858E-01 -0.1257519E-02 -0.1828867E-04 -0.1112571E+05 -0.1252997E-01
  0.2357143E+00  0.1847505E+05  0.7615015E-01  0.2508452E-03 -0.6242015E-05 -0.1112273E+05 -0.2218105E-01
  0.2666667E+00  0.1852503E+05  0.1303945E+00 -0.1308918E-02 -0.3111176E-04 -0.1114877E+05 -0.3814377E-01
  0.2976190E+00  0.1858669E+05  0.2195662E+00  0.1595764E-02  0.1145364E-04 -0.1118259E+05 -0.6452703E-01
  0.3285715E+00  0.1861924E+05  0.3645897E+00 -0.5746924E-03 -0.3910577E-04 -0.1118744E+05 -0.1074008E+00
  0.3595238E+00  0.1863417E+05  0.6009419E+00  0.5729625E-03 -0.7536262E-05 -0.1120023E+05 -0.1779837E+00
  0.3904762E+00  0.1872381E+05  0.9849933E+00  0.8108557E-03  0.4096422E-04 -0.1123420E+05 -0.2930518E+00
  0.4214286E+00  0.1878648E+05  0.1593282E+01 -0.3711247E-03  0.9316951E-05 -0.1126903E+05 -0.4769957E+00
  0.4523810E+00  0.1881734E+05  0.2553110E+01  0.1458820E-02  0.7775426E-04 -0.1125827E+05 -0.7676173E+00
  0.4833333E+00  0.1891562E+05  0.3997683E+01 -0.1049699E-02 -0.1274161E-03 -0.1132922E+05 -0.1212394E+01
  0.5142857E+00  0.1902436E+05  0.6158881E+01  0.1832114E-02  0.1157448E-03 -0.1138056E+05 -0.1881191E+01
  0.5452381E+00  0.1912567E+05  0.9265533E+01  0.2728591E-03  0.1453832E-03 -0.1141738E+05 -0.2849000E+01
  0.5761905E+00  0.1914680E+05  0.1359288E+02 -0.2999108E-02 -0.4077256E-03 -0.1142473E+05 -0.4207644E+01
  0.6071429E+00  0.1923991E+05  0.1960508E+02 -0.1093247E-02 -0.3263503E-03 -0.1146166E+05 -0.6112415E+01
  0.6380953E+00  0.1942116E+05  0.2771046E+02 -0.2259781E-02 -0.3690720E-03 -0.1155511E+05 -0.8719156E+01
  0.6690477E+00  0.1953134E+05  0.3845632E+02  0.1197353E-03  0.1528859E-04 -0.1160295E+05 -0.1220022E+02
  0.7000000E+00  0.1961613E+05  0.5255393E+02 -0.9809221E-04 -0.8445978E-04 -0.1162786E+05 -0.1679574E+02
  0.7309524E+00  0.1972699E+05  0.7075782E+02  0.1200325E-02  0.2076626E-03 -0.1168391E+05 -0.2281257E+02
  0.7619048E+00  0.1985971E+05  0.9407197E+02 -0.2453327E-02 -0.2772808E-03 -0.1174632E+05 -0.3059492E+02
  0.7928572E+00  0.2004966E+05  0.1237324E+03  0.1587739E-02  0.6452799E-03 -0.1184509E+05 -0.4065314E+02
  0.8238096E+00  0.2023869E+05  0.1609565E+03  0.4074890E-03  0.1386404E-03 -0.1189911E+05 -0.5327444E+02
  0.8547620E+00  0.2041964E+05  0.2072045E+03 -0.5533967E-03 -0.5564690E-03 -0.1200132E+05 -0.6932526E+02
  0.8857143E+00  0.2055860E+05  0.2639813E+03 -0.1343758E-02 -0.8373260E-03 -0.1206021E+05 -0.8913319E+02
  0.9166667E+00  0.2070463E+05  0.3333077E+03  0.1248446E-03  0.1294613E-03 -0.1213471E+05 -0.1136712E+03
  0.9476191E+00  0.2089228E+05  0.4175229E+03 -0.5716295E-03 -0.7467270E-03 -0.1219483E+05 -0.1434856E+03
  0.9785714E+00  0.2117453E+05  0.5197590E+03 -0.1949115E-03 -0.4448891E-03 -0.1234776E+05 -0.1805715E+03
  0.1009524E+01  0.2141942E+05  0.6418574E+03  0.5592490E-03 -0.1049042E-04 -0.1245533E+05 -0.2251714E+03
  0.1040476E+01  0.2165699E+05  0.7870964E+03  0.1187881E-02  0.3800392E-03 -0.1257512E+05 -0.2791319E+03
  0.1071429E+01  0.2189263E+05  0.9587357E+03 -0.5839030E-03 -0.1125336E-02 -0.1267798E+05 -0.3433713E+03
  0.1102381E+01  0.2213663E+05  0.1160517E+04 -0.3183583E-03 -0.1013756E-02 -0.1277887E+05 -0.4194995E+03
  0.1133333E+01  0.2237990E+05  0.1396135E+04 -0.3231273E-03 -0.1212120E-02 -0.1291176E+05 -0.5102061E+03
  0.1164286E+01  0.2260546E+05  0.1668831E+04  0.5897568E-03 -0.2155304E-03 -0.1301831E+05 -0.6157702E+03
  0.1195238E+01  0.2286087E+05  0.1983963E+04 -0.8042780E-03 -0.8411407E-03 -0.1315587E+05 -0.7395815E+03
  0.1226190E+01  0.2316991E+05  0.2347179E+04  0.9706368E-03  0.7534027E-03 -0.1331110E+05 -0.8832800E+03
  0.1257143E+01  0.2344645E+05  0.2761414E+04 -0.1007427E-02 -0.7476807E-03 -0.1341887E+05 -0.1047611E+04
  0.1288095E+01  0.2379543E+05  0.3237791E+04  0.1397829E-02  0.1682281E-02 -0.1361151E+05 -0.1242210E+04
  0.1319048E+01  0.2406888E+05  0.3773370E+04  0.2336743E-02  0.2044678E-02 -0.1375948E+05 -0.1462928E+04
  0.1350000E+01  0.2431954E+05  0.4375589E+04 -0.8024992E-03 -0.2109528E-02 -0.1389198E+05 -0.1714136E+04
  0.1380952E+01  0.2455170E+05  0.5049879E+04  0.2541378E-03  0.7209778E-03 -0.1403520E+05 -0.2000700E+04
  0.1411905E+01  0.2471756E+05  0.5796743E+04 -0.2377592E-03 -0.1167297E-02 -0.1414588E+05 -0.2321125E+04
  0.1442857E+01  0.2490424E+05  0.6622293E+04 -0.1004663E-02 -0.2395630E-02 -0.1422997E+05 -0.2673051E+04
  0.1473810E+01  0.2508426E+05  0.7530766E+04  0.2174192E-03 -0.8697510E-03 -0.1434329E+05 -0.3068557E+04
  0.1504762E+01  0.2525260E+05  0.8521890E+04  0.7605251E-03 -0.1525879E-03 -0.1447174E+05 -0.3506463E+04
  0.1535714E+01  0.2539960E+05  0.9593794E+04 -0.1112827E-02 -0.3074646E-02 -0.1457320E+05 -0.3979825E+04
  0.1566667E+01  0.2549085E+05  0.1074872E+05 -0.4188051E-03 -0.1388550E-02 -0.1464531E+05 -0.4498343E+04
  0.1597619E+01  0.2553849E+05  0.1198805E+05  0.1432643E-03 -0.2708435E-02 -0.1471716E+05 -0.5068140E+04
  0.1628572E+01  0.2553527E+05  0.1330590E+05  0.2623441E-03  0.3662109E-03 -0.1476171E+05 -0.5680086E+04
  0.1659524E+01  0.2547789E+05  0.1469128E+05  0.5240967E-03  0.9155273E-04 -0.1474947E+05 -0.6317311E+04
  0.1690476E+01  0.2537736E+05  0.1614479E+05  0.1444212E-03 -0.1945496E-02 -0.1473628E+05 -0.7001291E+04
  0.1721429E+01  0.2524076E+05  0.1765990E+05  0.1063683E-03 -0.1678467E-03 -0.1473950E+05 -0.7734081E+04
  0.1752381E+01  0.2502932E+05  0.1920279E+05  0.1393194E-03 -0.5645752E-03 -0.1468936E+05 -0.8476973E+04
  0.1783333E+01  0.2476134E+05  0.2077461E+05  0.2738026E-03 -0.2349854E-02 -0.1460287E+05 -0.9239682E+04
  0.1814286E+01  0.2442617E+05  0.2236830E+05  0.4036971E-03  0.5035400E-03 -0.1448727E+05 -0.1003355E+05
  0.1845238E+01  0.2403654E+05  0.2397239E+05 -0.1323085E-03  0.1449585E-02 -0.1435777E+05 -0.1085425E+05
  0.1876190E+01  0.2359348E+05  0.2557096E+05  0.4554400E-03  0.9460449E-03 -0.1419844E+05 -0.1168393E+05
  0.1907143E+01  0.2309720E+05  0.2713453E+05  0.3920423E-03 -0.3967285E-03 -0.1397721E+05 -0.1247410E+05
  0.1938095E+01  0.2256630E+05  0.2866077E+05  0.8660394E-04 -0.3051758E-03 -0.1373555E+05 -0.1325261E+05
  0.1969048E+01  0.2202012E+05  0.3015029E+05  0.2247304E-03 -0.1815796E-02 -0.1351743E+05 -0.1404541E+05
  0.2000000E+01  0.2143176E+05  0.3158253E+05  0.2593994E-03  0.2395630E-02 -0.1327936E+05 -0.1482894E+05
Zone t="Motion of body    1 in DoF   2",I=    64,F=POINT
  0.5000000E-01 -0.2384186E-03  0.2145767E-05  0.2932572E+05  0.3664423E+02 -0.9536743E-03 -0.5960464E-06
  0.8095238E-01  0.1060261E-02 -0.1013279E-05  0.2922408E+05  0.6081477E+02 -0.1790664E-02  0.6794930E-05
  0.1119048E+00  0.1022663E-03  0.2741814E-05  0.2916077E+05  0.8720235E+02 -0.2522570E-02  0.6437302E-05
  0.1428571E+00  0.7343292E-03  0.5960464E-06  0.2912240E+05  0.1168609E+03  0.9613037E-03  0.9536743E-05
  0.1738095E+00 -0.1975281E-03  0.2145767E-05  0.2908472E+05  0.1511093E+03  0.8779029E-03  0.3337860E-05
  0.2047619E+00 -0.4936928E-03  0.5722046E-05  0.2911646E+05  0.1915919E+03 -0.1639433E-02 -0.1859665E-04
  0.2357143E+00 -0.1181400E-02 -0.2026558E-04  0.2919154E+05  0.2406494E+03  0.9710138E-03 -0.3337860E-04
  0.2666667E+00 -0.3290176E-03 -0.3099442E-04  0.2923088E+05  0.3003839E+03  0.1258850E-02  0.3147125E-04
  0.2976190E+00 -0.8843994E-03 -0.9059906E-05  0.2935470E+05  0.3751317E+03 -0.1486816E-02 -0.6961823E-04
  0.3285715E+00  0.4179581E-03 -0.3337860E-04  0.2941149E+05  0.4676461E+03  0.2229110E-02 -0.6675720E-05
  0.3595238E+00 -0.3819750E-03 -0.5912781E-04  0.2953321E+05  0.5832380E+03  0.1740108E-02  0.2670288E-04
  0.3904762E+00  0.1025781E-02  0.1621246E-04  0.2960429E+05  0.7265206E+03 -0.2500952E-02 -0.1010895E-03
  0.4214286E+00 -0.6517313E-03 -0.8487701E-04  0.2967243E+05  0.8968232E+03  0.8689750E-03  0.7057190E-04
  0.4523810E+00  0.5059493E-03 -0.1573563E-03  0.2972374E+05  0.1102949E+04 -0.1146818E-02  0.3814697E-05
  0.4833333E+00 -0.2999141E-03  0.1792908E-03  0.2970561E+05  0.1329956E+04 -0.5051185E-03  0.1258850E-03
  0.5142857E+00 -0.1335144E-03  0.4577637E-04  0.2972728E+05  0.1587926E+04 -0.3560384E-03  0.1907349E-04
  0.5452381E+00 -0.1399278E-04 -0.7247925E-04  0.2960406E+05  0.1865584E+04  0.1175393E-02 -0.1144409E-04
  0.5761905E+00 -0.8474302E-03  0.1564026E-03  0.2951969E+05  0.2157482E+04 -0.5296439E-04  0.3356934E-03
  0.6071429E+00  0.4775103E-03  0.3051758E-04  0.2939557E+05  0.2470975E+04 -0.3015854E-03 -0.7629395E-04
  0.6380953E+00 -0.1052173E-02  0.9155273E-04  0.2921597E+05  0.2790146E+04 -0.5739126E-03 -0.4959106E-03
  0.6690477E+00  0.9350759E-03 -0.1182556E-03  0.2907096E+05  0.3120734E+04  0.0000000E+00 -0.1525879E-04
  0.7000000E+00  0.8392333E-03  0.1258850E-03  0.2887731E+05  0.3464529E+04  0.3923688E-03  0.2136230E-03
  0.7309524E+00 -0.3026906E-03  0.1106262E-03  0.2863001E+05  0.3813278E+04  0.2379774E-02 -0.6637573E-03
  0.7619048E+00  0.1311779E-02 -0.2670288E-03  0.2841132E+05  0.4166936E+04 -0.1401901E-02  0.2288818E-04
  0.7928572E+00  0.1048870E-02 -0.5569458E-03  0.2821842E+05  0.4523126E+04  0.0000000E+00  0.5035400E-03
  0.8238096E+00 -0.1315078E-02  0.7629395E-03  0.2790553E+05  0.4884385E+04  0.1259512E-02 -0.3051758E-04
  0.8547620E+00  0.5533967E-03  0.4577637E-04  0.2761803E+05  0.5243800E+04 -0.1463824E-02  0.3509521E-03
  0.8857143E+00 -0.8613832E-03 -0.3890991E-03  0.2734936E+05  0.5597351E+04  0.9647493E-03  0.2288818E-03
  0.9166667E+00 -0.1664595E-04 -0.4043579E-03  0.2710326E+05  0.5942266E+04  0.1464844E-02 -0.1983643E-03
  0.9476191E+00 -0.1666582E-02  0.6332397E-03  0.2675182E+05  0.6284542E+04  0.1996678E-02 -0.3356934E-03
  0.9785714E+00 -0.1481328E-03 -0.1068115E-03  0.2642591E+05  0.6617160E+04 -0.2245381E-02 -0.1159668E-02
  0.1009524E+01 -0.3627561E-03  0.6103516E-04  0.2611639E+05  0.6934982E+04  0.1692862E-02 -0.1678467E-03
  0.1040476E+01 -0.8505814E-03  0.6866455E-03  0.2584139E+05  0.7235397E+04 -0.8212511E-03 -0.5645752E-03
  0.1071429E+01 -0.7120769E-04  0.6103516E-03  0.2551919E+05  0.7521972E+04 -0.1367188E-02 -0.4119873E-03
  0.1102381E+01  0.1937833E-03 -0.3814697E-03  0.2516335E+05  0.7794497E+04 -0.1661000E-03 -0.6408691E-03
  0.1133333E+01  0.4577637E-03  0.1174927E-02  0.2483237E+05  0.8048472E+04 -0.5385455E-03 -0.7171631E-03
  0.1164286E+01 -0.3473012E-03  0.4882812E-03  0.2452065E+05  0.8278226E+04 -0.2621142E-03 -0.1525879E-03
  0.1195238E+01 -0.7085306E-03  0.5950928E-03  0.2424520E+05  0.8483555E+04  0.9191749E-03 -0.1556396E-02
  0.1226190E+01  0.6533132E-03 -0.3204346E-03  0.2396433E+05  0.8666683E+04 -0.1991050E-02 -0.9765625E-03
  0.1257143E+01  0.1759962E-03 -0.1068115E-03  0.2362117E+05  0.8840363E+04 -0.4855069E-03 -0.8239746E-03
  0.1288095E+01 -0.6989146E-03 -0.4577637E-04  0.2331198E+05  0.8981447E+04  0.1895362E-03 -0.1220703E-03
  0.1319048E+01 -0.1058475E-02 -0.3509521E-03  0.2302223E+05  0.9103634E+04 -0.1573253E-02  0.1647949E-02
  0.1350000E+01 -0.5820945E-03  0.6256104E-03  0.2275486E+05  0.9196290E+04  0.6329571E-03  0.6408691E-03
  0.1380952E+01 -0.5579981E-03  0.3509521E-03  0.2252695E+05  0.9262548E+04  0.4861766E-03 -0.1647949E-02
  0.1411905E+01  0.3296207E-03 -0.7171631E-03  0.2230010E+05  0.9301932E+04 -0.1296868E-03  0.8239746E-03
  0.1442857E+01 -0.2643850E-03  0.3356934E-03  0.2201241E+05  0.9324620E+04 -0.8460318E-04  0.1068115E-02
  0.1473810E+01 -0.8179105E-03  0.5004883E-02  0.2175598E+05  0.9327592E+04  0.1242396E-03 -0.2624512E-02
  0.1504762E+01 -0.9937527E-03  0.4272461E-03  0.2152825E+05  0.9312154E+04 -0.1095156E-02 -0.1831055E-02
  0.1535714E+01  0.4868618E-03  0.1373291E-02  0.2132257E+05  0.9272508E+04  0.2066679E-02 -0.2349854E-02
  0.1566667E+01  0.1076232E-02 -0.8392334E-03  0.2114311E+05  0.9208289E+04 -0.1831055E-02 -0.9765625E-03
  0.1597619E+01  0.3987524E-03  0.5798340E-03  0.2100029E+05  0.9127945E+04 -0.2063006E-02  0.1037598E-02
  0.1628572E+01  0.3021642E-03  0.5187988E-03  0.2086348E+05  0.9026078E+04 -0.1011899E-02  0.1251221E-02
  0.1659524E+01 -0.4378966E-03  0.1312256E-02  0.2066631E+05  0.8901702E+04 -0.2096387E-02 -0.8850098E-03
  0.1690476E+01 -0.2008357E-03  0.4882812E-03  0.2049034E+05  0.8760301E+04 -0.8665273E-03 -0.8239746E-03
  0.1721429E+01  0.2537328E-03 -0.1373291E-03  0.2034639E+05  0.8617237E+04  0.3545611E-04 -0.9155273E-03
  0.1752381E+01 -0.6399984E-03 -0.9307861E-03  0.2022384E+05  0.8459514E+04 -0.4527880E-03  0.3051758E-03
  0.1783333E+01  0.1826242E-03 -0.2136230E-03  0.2012011E+05  0.8284881E+04 -0.6502811E-03  0.1922607E-02
  0.1814286E+01  0.3232731E-03 -0.9460449E-03  0.2004140E+05  0.8100639E+04 -0.7737528E-03 -0.2166748E-02
  0.1845238E+01  0.1126689E-03 -0.9307861E-03  0.1999216E+05  0.7915975E+04 -0.1256930E-02 -0.6713867E-03
  0.1876190E+01  0.4066429E-03 -0.1449585E-02  0.1995633E+05  0.7720101E+04 -0.3578457E-03 -0.1434326E-02
  0.1907143E+01  0.8400907E-04 -0.2853394E-02  0.1985735E+05  0.7485432E+04 -0.5760622E-03  0.3616333E-02
  0.1938095E+01 -0.2381608E-03 -0.6256104E-03  0.1976888E+05  0.7235895E+04 -0.1196709E-02  0.1373291E-03
  0.1969048E+01 -0.7458725E-03  0.6561279E-03  0.1970942E+05  0.7007868E+04 -0.2479784E-03 -0.1220703E-03
  0.2000000E+01  0.2326965E-03  0.6256104E-03  0.1966614E+05  0.6783742E+04 -0.1129150E-02 -0.1480103E-02
Zone t="Motion of body    1 in DoF   3",I=    64,F=POINT
  0.5000000E-01 -0.1116281E+05 -0.1220895E-03 -0.2861023E-02 -0.1471425E-05  0.2447802E+05  0.2602062E-04
  0.8095238E-01 -0.1118050E+05 -0.5587306E-03  0.5419114E-03  0.1805388E-05  0.2456534E+05  0.1621706E-03
  0.1119048E+00 -0.1112870E+05 -0.1526734E-02 -0.1721484E-02 -0.9095804E-05  0.2448365E+05  0.4450478E-03
  0.1428571E+00 -0.1115943E+05 -0.3433453E-02  0.5607605E-03  0.4721929E-05  0.2450024E+05  0.9868231E-03
  0.1738095E+00 -0.1116305E+05 -0.6859376E-02 -0.2886106E-02 -0.2129276E-04  0.2444621E+05  0.1954151E-02
  0.2047619E+00 -0.1122259E+05 -0.1281294E-01 -0.2887637E-02 -0.1886995E-04  0.2446968E+05  0.3750433E-02
  0.2357143E+00 -0.1120513E+05 -0.2268698E-01 -0.4110625E-02 -0.5763692E-04  0.2451272E+05  0.6633425E-02
  0.2666667E+00 -0.1124675E+05 -0.3897286E-01 -0.2260208E-02 -0.2670451E-04  0.2448546E+05  0.1137152E-01
  0.2976190E+00 -0.1127025E+05 -0.6583775E-01 -0.5895996E-03  0.1195882E-04  0.2455469E+05  0.1939762E-01
  0.3285715E+00 -0.1128624E+05 -0.1097858E+00 -0.8126963E-04 -0.3108720E-04  0.2449896E+05  0.3240279E-01
  0.3595238E+00 -0.1128604E+05 -0.1817253E+00  0.2599552E-02  0.3984757E-04  0.2454565E+05  0.5378424E-01
  0.3904762E+00 -0.1133629E+05 -0.2992766E+00 -0.1992946E-02 -0.2821209E-04  0.2451443E+05  0.8889391E-01
  0.4214286E+00 -0.1136824E+05 -0.4865186E+00 -0.1303463E-02 -0.1110192E-03  0.2455136E+05  0.1455614E+00
  0.4523810E+00 -0.1134873E+05 -0.7841070E+00 -0.2985101E-02 -0.1558624E-03  0.2451620E+05  0.2357105E+00
  0.4833333E+00 -0.1143637E+05 -0.1235240E+01 -0.3946238E-03 -0.4025176E-04  0.2456028E+05  0.3748916E+00
  0.5142857E+00 -0.1147190E+05 -0.1915353E+01 -0.1928541E-03 -0.4034489E-05  0.2465720E+05  0.5853481E+00
  0.5452381E+00 -0.1152800E+05 -0.2900294E+01 -0.3092404E-02 -0.2304390E-03  0.2460091E+05  0.8924174E+00
  0.5761905E+00 -0.1151832E+05 -0.4284275E+01  0.4369562E-03  0.2027825E-03  0.2462096E+05  0.1326629E+01
  0.6071429E+00 -0.1155203E+05 -0.6223488E+01  0.1822079E-02  0.1740232E-03  0.2463417E+05  0.1940588E+01
  0.6380953E+00 -0.1166977E+05 -0.8860087E+01 -0.7891299E-03 -0.4545599E-04  0.2466296E+05  0.2787343E+01
  0.6690477E+00 -0.1170500E+05 -0.1239441E+02 -0.2474530E-02 -0.1554638E-03  0.2471811E+05  0.3932923E+01
  0.7000000E+00 -0.1171888E+05 -0.1707386E+02  0.2223423E-02  0.5481839E-03  0.2471832E+05  0.5459445E+01
  0.7309524E+00 -0.1178520E+05 -0.2316335E+02 -0.5542370E-02 -0.9818971E-03  0.2471520E+05  0.7470546E+01
  0.7619048E+00 -0.1184473E+05 -0.3104535E+02 -0.9312629E-03  0.1150668E-03  0.2475039E+05  0.1009431E+02
  0.7928572E+00 -0.1193194E+05 -0.4119980E+02 -0.6543408E-03 -0.1434386E-03  0.2488104E+05  0.1353339E+02
  0.8238096E+00 -0.1200398E+05 -0.5405493E+02  0.2222667E-02  0.5841255E-05  0.2480264E+05  0.1789078E+02
  0.8547620E+00 -0.1211263E+05 -0.7019418E+02 -0.3855926E-02 -0.7474422E-04  0.2486689E+05  0.2349381E+02
  0.8857143E+00 -0.1215634E+05 -0.9025060E+02 -0.1671084E-02 -0.2965331E-03  0.2490744E+05  0.3049132E+02
  0.9166667E+00 -0.1220828E+05 -0.1150237E+03 -0.4494407E-03  0.4884005E-03  0.2500647E+05  0.3925060E+02
  0.9476191E+00 -0.1228119E+05 -0.1452958E+03 -0.1835655E-02  0.9442568E-03  0.2493511E+05  0.4992369E+02
  0.9785714E+00 -0.1245464E+05 -0.1824046E+03 -0.1091505E-02  0.2132654E-03  0.2502021E+05  0.6329165E+02
  0.1009524E+01 -0.1256204E+05 -0.2273937E+03 -0.6650529E-03  0.2751350E-03  0.2506930E+05  0.7973032E+02
  0.1040476E+01 -0.1266764E+05 -0.2817035E+03 -0.2771722E-02 -0.1013517E-02  0.2519081E+05  0.9991446E+02
  0.1071429E+01 -0.1276520E+05 -0.3465705E+03 -0.1794434E-02 -0.3321171E-03  0.2522688E+05  0.1242241E+03
  0.1102381E+01 -0.1287313E+05 -0.4234854E+03 -0.3017483E-02 -0.1186848E-02  0.2521089E+05  0.1532323E+03
  0.1133333E+01 -0.1300697E+05 -0.5141425E+03 -0.5385455E-03 -0.2412796E-03  0.2528335E+05  0.1880810E+03
  0.1164286E+01 -0.1310431E+05 -0.6202604E+03 -0.2227970E-03  0.1440048E-02  0.2533045E+05  0.2290415E+03
  0.1195238E+01 -0.1322912E+05 -0.7441628E+03  0.6893812E-03  0.1554966E-02  0.2545036E+05  0.2773985E+03
  0.1226190E+01 -0.1338531E+05 -0.8883039E+03 -0.1381291E-02  0.8583069E-04  0.2555639E+05  0.3337117E+03
  0.1257143E+01 -0.1350921E+05 -0.1054433E+04  0.3119382E-02  0.3218651E-02  0.2551801E+05  0.3994033E+03
  0.1288095E+01 -0.1371176E+05 -0.1248131E+04  0.2369202E-03  0.1921654E-02  0.2562141E+05  0.4784990E+03
  0.1319048E+01 -0.1386007E+05 -0.1468817E+04 -0.2892009E-02 -0.2902031E-02  0.2570154E+05  0.5694440E+03
  0.1350000E+01 -0.1398182E+05 -0.1720795E+04 -0.1898872E-02 -0.1690865E-02  0.2577254E+05  0.6749240E+03
  0.1380952E+01 -0.1410645E+05 -0.2007025E+04 -0.2806565E-02 -0.7457733E-03  0.2590422E+05  0.7971160E+03
  0.1411905E+01 -0.1419659E+05 -0.2329806E+04 -0.5187474E-03 -0.1083374E-02  0.2600313E+05  0.9354774E+03
  0.1442857E+01 -0.1428296E+05 -0.2684727E+04 -0.7402779E-03 -0.2956390E-03  0.2596024E+05  0.1085442E+04
  0.1473810E+01 -0.1439809E+05 -0.3079481E+04 -0.2039600E-02  0.7457733E-03  0.2599838E+05  0.1256168E+04
  0.1504762E+01 -0.1452954E+05 -0.3512952E+04 -0.2170032E-02 -0.2330780E-02  0.2608533E+05  0.1446028E+04
  0.1535714E+01 -0.1463657E+05 -0.3985758E+04  0.7948764E-04  0.1319885E-02  0.2614301E+05  0.1651172E+04
  0.1566667E+01 -0.1470216E+05 -0.4505553E+04 -0.2415434E-02  0.1258850E-03  0.2619801E+05  0.1883748E+04
  0.1597619E+01 -0.1476058E+05 -0.5073999E+04 -0.2072557E-02  0.1537323E-02  0.2630479E+05  0.2146419E+04
  0.1628572E+01 -0.1479397E+05 -0.5686449E+04 -0.2108122E-02 -0.6904602E-03  0.2638438E+05  0.2430838E+04
  0.1659524E+01 -0.1478589E+05 -0.6327984E+04 -0.3153775E-02 -0.2433777E-02  0.2631456E+05  0.2720738E+04
  0.1690476E+01 -0.1477405E+05 -0.7011613E+04 -0.1525449E-02  0.1220703E-03  0.2628031E+05  0.3039129E+04
  0.1721429E+01 -0.1477969E+05 -0.7731699E+04 -0.2251463E-02 -0.1632690E-02  0.2632002E+05  0.3386715E+04
  0.1752381E+01 -0.1473147E+05 -0.8468298E+04 -0.2263940E-02 -0.2349854E-02  0.2632025E+05  0.3735464E+04
  0.1783333E+01 -0.1464419E+05 -0.9229123E+04 -0.1009647E-02  0.2517700E-02  0.2629566E+05  0.4098352E+04
  0.1814286E+01 -0.1451847E+05 -0.1001900E+05 -0.5214421E-03  0.1426697E-02  0.2627895E+05  0.4491910E+04
  0.1845238E+01 -0.1437629E+05 -0.1083176E+05 -0.1637317E-02 -0.1213074E-02  0.2629677E+05  0.4912871E+04
  0.1876190E+01 -0.1420507E+05 -0.1165648E+05 -0.8458172E-03 -0.5111694E-03  0.2629737E+05  0.5344561E+04
  0.1907143E+01 -0.1398641E+05 -0.1244694E+05 -0.2320250E-02  0.2975464E-03  0.2613561E+05  0.5727019E+04
  0.1938095E+01 -0.1374970E+05 -0.1322770E+05 -0.1669094E-02  0.3570557E-02  0.2595686E+05  0.6103713E+04
  0.1969048E+01 -0.1354104E+05 -0.1400865E+05 -0.8989217E-03 -0.7629395E-04  0.2587484E+05  0.6510009E+04
  0.2000000E+01 -0.1331167E+05 -0.1477455E+05 -0.3204346E-02 -0.4386902E-02  0.2579732E+05  0.6924661E+04
