VARIABLES="w (rad/s)"
"abs(F   1   1)" "angle(F   1   1)"
"abs(F   1   2)" "angle(F   1   2)"
"abs(F   1   3)" "angle(F   1   3)"
Zone t="Diffraction force - beta =   0.000 deg",I=    64,F=POINT
  0.5000000E-01  0.9290682E+03 -0.1570795E+01  0.1032191E+03 -0.3087217E+01  0.1294921E+04  0.1570797E+01
  0.8095238E-01  0.1522702E+04 -0.1570794E+01  0.2675866E+03 -0.3085248E+01  0.2123162E+04  0.1570799E+01
  0.1119048E+00  0.2129526E+04 -0.1570791E+01  0.5085529E+03 -0.3082847E+01  0.2961809E+04  0.1570801E+01
  0.1428571E+00  0.2751320E+04 -0.1570786E+01  0.8268401E+03 -0.3079816E+01  0.3824978E+04  0.1570805E+01
  0.1738095E+00  0.3402109E+04 -0.1570780E+01  0.1223623E+04 -0.3075964E+01  0.4715704E+04  0.1570811E+01
  0.2047619E+00  0.4081766E+04 -0.1570770E+01  0.1702438E+04 -0.3071189E+01  0.5652378E+04  0.1570819E+01
  0.2357143E+00  0.4804021E+04 -0.1570757E+01  0.2265568E+04 -0.3065164E+01  0.6636916E+04  0.1570831E+01
  0.2666667E+00  0.5586769E+04 -0.1570737E+01  0.2915411E+04 -0.3057815E+01  0.7686428E+04  0.1570848E+01
  0.2976190E+00  0.6419647E+04 -0.1570707E+01  0.3656714E+04 -0.3048596E+01  0.8819941E+04  0.1570874E+01
  0.3285715E+00  0.7327294E+04 -0.1570663E+01  0.4493819E+04 -0.3037587E+01  0.1003980E+05  0.1570912E+01
  0.3595238E+00  0.8347142E+04 -0.1570596E+01  0.5423270E+04 -0.3024125E+01  0.1136474E+05  0.1570970E+01
  0.3904762E+00  0.9449975E+04 -0.1570498E+01  0.6453182E+04 -0.3008206E+01  0.1282339E+05  0.1571056E+01
  0.4214286E+00  0.1066088E+05 -0.1570353E+01  0.7572667E+04 -0.2990377E+01  0.1441462E+05  0.1571181E+01
  0.4523810E+00  0.1200825E+05 -0.1570140E+01  0.8783800E+04 -0.2969668E+01  0.1614602E+05  0.1571364E+01
  0.4833333E+00  0.1347740E+05 -0.1569846E+01  0.1006165E+05 -0.2948410E+01  0.1802084E+05  0.1571618E+01
  0.5142857E+00  0.1506012E+05 -0.1569438E+01  0.1142065E+05 -0.2925499E+01  0.2003080E+05  0.1571970E+01
  0.5452381E+00  0.1671738E+05 -0.1568891E+01  0.1285098E+05 -0.2902593E+01  0.2214169E+05  0.1572439E+01
  0.5761905E+00  0.1851146E+05 -0.1568183E+01  0.1433340E+05 -0.2879767E+01  0.2433991E+05  0.1573048E+01
  0.6071429E+00  0.2041374E+05 -0.1567271E+01  0.1586419E+05 -0.2856150E+01  0.2665322E+05  0.1573831E+01
  0.6380953E+00  0.2236375E+05 -0.1566129E+01  0.1746130E+05 -0.2833814E+01  0.2901723E+05  0.1574807E+01
  0.6690477E+00  0.2436111E+05 -0.1564709E+01  0.1911299E+05 -0.2811712E+01  0.3141550E+05  0.1576016E+01
  0.7000000E+00  0.2645024E+05 -0.1562967E+01  0.2080269E+05 -0.2789320E+01  0.3386838E+05  0.1577498E+01
  0.7309524E+00  0.2860876E+05 -0.1560868E+01  0.2252870E+05 -0.2767388E+01  0.3632532E+05  0.1579284E+01
  0.7619048E+00  0.3084106E+05 -0.1558358E+01  0.2428358E+05 -0.2745601E+01  0.3881427E+05  0.1581416E+01
  0.7928572E+00  0.3313479E+05 -0.1555383E+01  0.2607218E+05 -0.2724137E+01  0.4133177E+05  0.1583936E+01
  0.8238096E+00  0.3539717E+05 -0.1551862E+01  0.2788733E+05 -0.2702991E+01  0.4382616E+05  0.1586894E+01
  0.8547620E+00  0.3770938E+05 -0.1547767E+01  0.2973170E+05 -0.2682404E+01  0.4632231E+05  0.1590321E+01
  0.8857143E+00  0.4006580E+05 -0.1543047E+01  0.3158217E+05 -0.2661989E+01  0.4872245E+05  0.1594280E+01
  0.9166667E+00  0.4250998E+05 -0.1537670E+01  0.3343521E+05 -0.2641876E+01  0.5114424E+05  0.1598784E+01
  0.9476191E+00  0.4492992E+05 -0.1531536E+01  0.3527312E+05 -0.2621791E+01  0.5350191E+05  0.1603895E+01
  0.9785714E+00  0.4736335E+05 -0.1524610E+01  0.3711075E+05 -0.2602259E+01  0.5582285E+05  0.1609636E+01
  0.1009524E+01  0.4976882E+05 -0.1516827E+01  0.3894537E+05 -0.2583309E+01  0.5803862E+05  0.1616054E+01
  0.1040476E+01  0.5214775E+05 -0.1508149E+01  0.4077632E+05 -0.2565050E+01  0.6017465E+05  0.1623160E+01
  0.1071429E+01  0.5448083E+05 -0.1498538E+01  0.4259068E+05 -0.2547247E+01  0.6222889E+05  0.1630968E+01
  0.1102381E+01  0.5674510E+05 -0.1487959E+01  0.4437458E+05 -0.2529633E+01  0.6407289E+05  0.1639543E+01
  0.1133333E+01  0.5901166E+05 -0.1476468E+01  0.4612922E+05 -0.2512456E+01  0.6584692E+05  0.1648821E+01
  0.1164286E+01  0.6119469E+05 -0.1463989E+01  0.4784590E+05 -0.2495567E+01  0.6743237E+05  0.1658847E+01
  0.1195238E+01  0.6330820E+05 -0.1450554E+01  0.4952605E+05 -0.2479182E+01  0.6887239E+05  0.1669567E+01
  0.1226190E+01  0.6530113E+05 -0.1436124E+01  0.5116733E+05 -0.2463373E+01  0.7018292E+05  0.1680931E+01
  0.1257143E+01  0.6706243E+05 -0.1420519E+01  0.5278786E+05 -0.2447790E+01  0.7124054E+05  0.1693026E+01
  0.1288095E+01  0.6870561E+05 -0.1404101E+01  0.5432800E+05 -0.2433433E+01  0.7209248E+05  0.1705599E+01
  0.1319048E+01  0.7013911E+05 -0.1386653E+01  0.5584639E+05 -0.2419479E+01  0.7277612E+05  0.1718671E+01
  0.1350000E+01  0.7132758E+05 -0.1368318E+01  0.5731366E+05 -0.2405913E+01  0.7309104E+05  0.1732245E+01
  0.1380952E+01  0.7234477E+05 -0.1349332E+01  0.5873122E+05 -0.2393077E+01  0.7319969E+05  0.1746085E+01
  0.1411905E+01  0.7251465E+05 -0.1330926E+01  0.5977171E+05 -0.2379083E+01  0.7295102E+05  0.1758363E+01
  0.1442857E+01  0.7302038E+05 -0.1310728E+01  0.6106007E+05 -0.2366669E+01  0.7260329E+05  0.1772333E+01
  0.1473810E+01  0.7321515E+05 -0.1289922E+01  0.6227970E+05 -0.2354460E+01  0.7194995E+05  0.1786269E+01
  0.1504762E+01  0.7315627E+05 -0.1268753E+01  0.6344258E+05 -0.2342959E+01  0.7114495E+05  0.1799874E+01
  0.1535714E+01  0.7278866E+05 -0.1247324E+01  0.6453780E+05 -0.2331912E+01  0.7005980E+05  0.1813046E+01
  0.1566667E+01  0.7211289E+05 -0.1225824E+01  0.6556803E+05 -0.2321477E+01  0.6869655E+05  0.1825643E+01
  0.1597619E+01  0.7114785E+05 -0.1204477E+01  0.6653027E+05 -0.2311620E+01  0.6712316E+05  0.1837362E+01
  0.1628572E+01  0.6988684E+05 -0.1183333E+01  0.6742691E+05 -0.2302178E+01  0.6540196E+05  0.1848010E+01
  0.1659524E+01  0.6829359E+05 -0.1162377E+01  0.6825401E+05 -0.2292983E+01  0.6348220E+05  0.1857532E+01
  0.1690476E+01  0.6636641E+05 -0.1141807E+01  0.6899718E+05 -0.2284033E+01  0.6131148E+05  0.1865553E+01
  0.1721429E+01  0.6417625E+05 -0.1121918E+01  0.6967652E+05 -0.2275750E+01  0.5906843E+05  0.1871922E+01
  0.1752381E+01  0.6172770E+05 -0.1102906E+01  0.7028428E+05 -0.2267879E+01  0.5676422E+05  0.1876310E+01
  0.1783333E+01  0.5897890E+05 -0.1084846E+01  0.7080749E+05 -0.2260266E+01  0.5427477E+05  0.1878506E+01
  0.1814286E+01  0.5600771E+05 -0.1068118E+01  0.7125819E+05 -0.2253271E+01  0.5175967E+05  0.1878291E+01
  0.1845238E+01  0.5281535E+05 -0.1052977E+01  0.7162627E+05 -0.2246656E+01  0.4920010E+05  0.1875195E+01
  0.1876190E+01  0.4943373E+05 -0.1039636E+01  0.7192207E+05 -0.2240486E+01  0.4668103E+05  0.1869192E+01
  0.1907143E+01  0.4584905E+05 -0.1028204E+01  0.7214734E+05 -0.2234452E+01  0.4416491E+05  0.1860186E+01
  0.1938095E+01  0.4208762E+05 -0.1019427E+01  0.7228012E+05 -0.2228718E+01  0.4162898E+05  0.1847379E+01
  0.1969048E+01  0.3819393E+05 -0.1013944E+01  0.7233338E+05 -0.2223463E+01  0.3916314E+05  0.1830969E+01
  0.2000000E+01  0.3420732E+05 -0.1012794E+01  0.7231323E+05 -0.2218836E+01  0.3682352E+05  0.1810915E+01
