VARIABLES="w (rad/s)"
"abs(F   1   1)" "angle(F   1   1)"
"abs(F   1   2)" "angle(F   1   2)"
"abs(F   1   3)" "angle(F   1   3)"
Zone t="Diffraction force - beta =   0.000 deg",I=    64,F=POINT
  0.5000000E-01  0.1902636E+04 -0.1570794E+01  0.5287531E+02 -0.3115621E+01  0.8060669E+04  0.1570798E+01
  0.8095238E-01  0.3115736E+04 -0.1570791E+01  0.1375163E+03 -0.3114897E+01  0.1316892E+05  0.1570801E+01
  0.1119048E+00  0.4347943E+04 -0.1570786E+01  0.2613118E+03 -0.3113961E+01  0.1834928E+05  0.1570806E+01
  0.1428571E+00  0.5618594E+04 -0.1570779E+01  0.4238777E+03 -0.3112739E+01  0.2367429E+05  0.1570814E+01
  0.1738095E+00  0.6934175E+04 -0.1570768E+01  0.6249275E+03 -0.3111214E+01  0.2917927E+05  0.1570825E+01
  0.2047619E+00  0.8311420E+04 -0.1570753E+01  0.8635773E+03 -0.3109239E+01  0.3492103E+05  0.1570841E+01
  0.2357143E+00  0.9768701E+04 -0.1570730E+01  0.1138424E+04 -0.3106722E+01  0.4097182E+05  0.1570864E+01
  0.2666667E+00  0.1131846E+05 -0.1570697E+01  0.1450438E+04 -0.3103757E+01  0.4738304E+05  0.1570898E+01
  0.2976190E+00  0.1299907E+05 -0.1570649E+01  0.1793355E+04 -0.3099884E+01  0.5426930E+05  0.1570947E+01
  0.3285715E+00  0.1480528E+05 -0.1570578E+01  0.2170862E+04 -0.3095403E+01  0.6166266E+05  0.1571020E+01
  0.3595238E+00  0.1679963E+05 -0.1570472E+01  0.2571547E+04 -0.3089840E+01  0.6976328E+05  0.1571127E+01
  0.3904762E+00  0.1895910E+05 -0.1570316E+01  0.2999334E+04 -0.3083341E+01  0.7851145E+05  0.1571286E+01
  0.4214286E+00  0.2135824E+05 -0.1570091E+01  0.3439961E+04 -0.3076138E+01  0.8808615E+05  0.1571516E+01
  0.4523810E+00  0.2394917E+05 -0.1569764E+01  0.3892521E+04 -0.3067604E+01  0.9844455E+05  0.1571850E+01
  0.4833333E+00  0.2677413E+05 -0.1569317E+01  0.4350597E+04 -0.3059362E+01  0.1096348E+06  0.1572306E+01
  0.5142857E+00  0.2981310E+05 -0.1568704E+01  0.4798375E+04 -0.3050138E+01  0.1215293E+06  0.1572931E+01
  0.5452381E+00  0.3302493E+05 -0.1567899E+01  0.5250428E+04 -0.3041276E+01  0.1340212E+06  0.1573752E+01
  0.5761905E+00  0.3644415E+05 -0.1566872E+01  0.5676899E+04 -0.3032501E+01  0.1471302E+06  0.1574799E+01
  0.6071429E+00  0.3995694E+05 -0.1565561E+01  0.6090134E+04 -0.3023351E+01  0.1605827E+06  0.1576133E+01
  0.6380953E+00  0.4360844E+05 -0.1563956E+01  0.6501355E+04 -0.3015235E+01  0.1743184E+06  0.1577768E+01
  0.6690477E+00  0.4742226E+05 -0.1562001E+01  0.6866102E+04 -0.3006814E+01  0.1883771E+06  0.1579759E+01
  0.7000000E+00  0.5125401E+05 -0.1559629E+01  0.7214177E+04 -0.2998349E+01  0.2024110E+06  0.1582172E+01
  0.7309524E+00  0.5518862E+05 -0.1556820E+01  0.7552643E+04 -0.2990507E+01  0.2166270E+06  0.1585028E+01
  0.7619048E+00  0.5926461E+05 -0.1553521E+01  0.7840729E+04 -0.2982555E+01  0.2310338E+06  0.1588382E+01
  0.7928572E+00  0.6332359E+05 -0.1549662E+01  0.8098524E+04 -0.2974575E+01  0.2451992E+06  0.1592300E+01
  0.8238096E+00  0.6743956E+05 -0.1545202E+01  0.8334673E+04 -0.2966749E+01  0.2592513E+06  0.1596827E+01
  0.8547620E+00  0.7158695E+05 -0.1540095E+01  0.8546616E+04 -0.2959151E+01  0.2730477E+06  0.1602011E+01
  0.8857143E+00  0.7584572E+05 -0.1534307E+01  0.8696053E+04 -0.2951518E+01  0.2868739E+06  0.1607888E+01
  0.9166667E+00  0.8001378E+05 -0.1527748E+01  0.8820693E+04 -0.2943928E+01  0.3002125E+06  0.1614532E+01
  0.9476191E+00  0.8419016E+05 -0.1520394E+01  0.8916822E+04 -0.2936287E+01  0.3133151E+06  0.1621968E+01
  0.9785714E+00  0.8834377E+05 -0.1512211E+01  0.8991886E+04 -0.2928634E+01  0.3258723E+06  0.1630244E+01
  0.1009524E+01  0.9256350E+05 -0.1503195E+01  0.9001156E+04 -0.2921366E+01  0.3380683E+06  0.1639378E+01
  0.1040476E+01  0.9672554E+05 -0.1493260E+01  0.8978523E+04 -0.2913963E+01  0.3498577E+06  0.1649422E+01
  0.1071429E+01  0.1006811E+06 -0.1482346E+01  0.8929784E+04 -0.2906451E+01  0.3604300E+06  0.1660454E+01
  0.1102381E+01  0.1046635E+06 -0.1470471E+01  0.8858375E+04 -0.2898828E+01  0.3708668E+06  0.1672430E+01
  0.1133333E+01  0.1084672E+06 -0.1457574E+01  0.8768011E+04 -0.2890906E+01  0.3801382E+06  0.1685444E+01
  0.1164286E+01  0.1122933E+06 -0.1443710E+01  0.8617331E+04 -0.2884146E+01  0.3890242E+06  0.1699437E+01
  0.1195238E+01  0.1159504E+06 -0.1428763E+01  0.8443494E+04 -0.2877054E+01  0.3972513E+06  0.1714467E+01
  0.1226190E+01  0.1193027E+06 -0.1412765E+01  0.8251430E+04 -0.2869788E+01  0.4039253E+06  0.1730550E+01
  0.1257143E+01  0.1224122E+06 -0.1395752E+01  0.8038297E+04 -0.2862150E+01  0.4095345E+06  0.1747627E+01
  0.1288095E+01  0.1255545E+06 -0.1377765E+01  0.7817885E+04 -0.2854638E+01  0.4145233E+06  0.1765730E+01
  0.1319048E+01  0.1283700E+06 -0.1358760E+01  0.7572341E+04 -0.2847244E+01  0.4180681E+06  0.1784855E+01
  0.1350000E+01  0.1310726E+06 -0.1338835E+01  0.7305604E+04 -0.2841067E+01  0.4208520E+06  0.1804898E+01
  0.1380952E+01  0.1334281E+06 -0.1317762E+01  0.7018726E+04 -0.2834755E+01  0.4226107E+06  0.1826026E+01
  0.1411905E+01  0.1350382E+06 -0.1295476E+01  0.6726535E+04 -0.2828141E+01  0.4222186E+06  0.1848144E+01
  0.1442857E+01  0.1366723E+06 -0.1272436E+01  0.6427650E+04 -0.2821557E+01  0.4211227E+06  0.1871193E+01
  0.1473810E+01  0.1380928E+06 -0.1248500E+01  0.6131712E+04 -0.2814634E+01  0.4193710E+06  0.1895041E+01
  0.1504762E+01  0.1389949E+06 -0.1223768E+01  0.5835247E+04 -0.2807359E+01  0.4155742E+06  0.1919698E+01
  0.1535714E+01  0.1396983E+06 -0.1198408E+01  0.5528769E+04 -0.2802041E+01  0.4110881E+06  0.1944986E+01
  0.1566667E+01  0.1401581E+06 -0.1172624E+01  0.5230614E+04 -0.2796652E+01  0.4057341E+06  0.1970652E+01
  0.1597619E+01  0.1400983E+06 -0.1146017E+01  0.4917428E+04 -0.2792044E+01  0.3991673E+06  0.1997134E+01
  0.1628572E+01  0.1395381E+06 -0.1119165E+01  0.4617284E+04 -0.2787011E+01  0.3906974E+06  0.2023768E+01
  0.1659524E+01  0.1386299E+06 -0.1091808E+01  0.4321678E+04 -0.2782470E+01  0.3814075E+06  0.2050949E+01
  0.1690476E+01  0.1374610E+06 -0.1063993E+01  0.4038219E+04 -0.2777449E+01  0.3718405E+06  0.2078452E+01
  0.1721429E+01  0.1358321E+06 -0.1036114E+01  0.3769247E+04 -0.2772111E+01  0.3608400E+06  0.2105974E+01
  0.1752381E+01  0.1339032E+06 -0.1008129E+01  0.3504325E+04 -0.2767699E+01  0.3491987E+06  0.2133643E+01
  0.1783333E+01  0.1317393E+06 -0.9803973E+00  0.3254827E+04 -0.2764488E+01  0.3371040E+06  0.2160927E+01
  0.1814286E+01  0.1293720E+06 -0.9528366E+00  0.3016139E+04 -0.2760754E+01  0.3249696E+06  0.2188030E+01
  0.1845238E+01  0.1265414E+06 -0.9252006E+00  0.2770675E+04 -0.2760384E+01  0.3120852E+06  0.2215339E+01
  0.1876190E+01  0.1233414E+06 -0.8982407E+00  0.2546346E+04 -0.2758910E+01  0.2981532E+06  0.2241544E+01
  0.1907143E+01  0.1198853E+06 -0.8715768E+00  0.2335089E+04 -0.2758061E+01  0.2839608E+06  0.2267513E+01
  0.1938095E+01  0.1162978E+06 -0.8449306E+00  0.2135050E+04 -0.2757288E+01  0.2702218E+06  0.2293557E+01
  0.1969048E+01  0.1125760E+06 -0.8188172E+00  0.1953570E+04 -0.2754428E+01  0.2566085E+06  0.2318890E+01
  0.2000000E+01  0.1085512E+06 -0.7937993E+00  0.1784746E+04 -0.2752985E+01  0.2421599E+06  0.2342835E+01
