VARIABLES="w (rad/s)"
"A   1   1" "B   1   1"
"A   1   2" "B   1   2"
"A   1   3" "B   1   3"
Zone t="Motion of body    1 in DoF   1",I=    64,F=POINT
  0.5000000E-01  0.5127525E+05  0.6302755E-02  0.3166199E-02  0.1066015E-04 -0.3821264E+05  0.3497092E-02
  0.8095238E-01  0.5153289E+05  0.2775575E-01 -0.3958309E-02 -0.3952411E-04 -0.3790010E+05  0.1547027E-01
  0.1119048E+00  0.5165455E+05  0.7788328E-01 -0.2283948E-02 -0.3236230E-05 -0.3792157E+05  0.4327392E-01
  0.1428571E+00  0.5191169E+05  0.1757099E+00 -0.1068115E-02 -0.4620058E-05 -0.3820196E+05  0.9637669E-01
  0.1738095E+00  0.5196450E+05  0.3497663E+00 -0.8252287E-02 -0.1278277E-03 -0.3810504E+05  0.1906775E+00
  0.2047619E+00  0.5206100E+05  0.6457731E+00  0.4471180E-02  0.1082821E-03 -0.3820062E+05  0.3479183E+00
  0.2357143E+00  0.5234902E+05  0.1138786E+01  0.6926565E-02  0.1863111E-03 -0.3829709E+05  0.6059994E+00
  0.2666667E+00  0.5224339E+05  0.1941872E+01  0.0000000E+00 -0.2233312E-04 -0.3804877E+05  0.1022565E+01
  0.2976190E+00  0.5251664E+05  0.3261392E+01  0.1020264E-01  0.3425926E-03 -0.3834028E+05  0.1685315E+01
  0.3285715E+00  0.5284352E+05  0.5405604E+01 -0.7523246E-02 -0.4109591E-03 -0.3833093E+05  0.2739928E+01
  0.3595238E+00  0.5294124E+05  0.8880199E+01  0.2504058E-02  0.1106709E-03 -0.3826393E+05  0.4417243E+01
  0.3904762E+00  0.5310499E+05  0.1448801E+02  0.9378572E-03 -0.4109740E-04 -0.3831427E+05  0.7048004E+01
  0.4214286E+00  0.5358825E+05  0.2335630E+02 -0.1737950E-02 -0.1941919E-03 -0.3857824E+05  0.1104375E+02
  0.4523810E+00  0.5384552E+05  0.3728358E+02 -0.9478116E-02 -0.1097023E-02 -0.3855334E+05  0.1717215E+02
  0.4833333E+00  0.5402290E+05  0.5802911E+02  0.3756819E-02  0.9639263E-03 -0.3837910E+05  0.2600578E+02
  0.5142857E+00  0.5444805E+05  0.8888017E+02  0.5577935E-02  0.9697676E-03 -0.3865484E+05  0.3852422E+02
  0.5452381E+00  0.5499596E+05  0.1329665E+03 -0.2350786E-02  0.1175404E-03 -0.3867746E+05  0.5566460E+02
  0.5761905E+00  0.5546577E+05  0.1941858E+03  0.4501973E-02  0.1108646E-02 -0.3880146E+05  0.7813011E+02
  0.6071429E+00  0.5570171E+05  0.2780446E+03  0.2261891E-02  0.7257462E-03 -0.3871863E+05  0.1075319E+03
  0.6380953E+00  0.5626712E+05  0.3894764E+03  0.6121735E-02  0.2231598E-02 -0.3880353E+05  0.1447701E+03
  0.6690477E+00  0.5698053E+05  0.5363168E+03 -0.1231563E-02 -0.3671646E-03 -0.3912507E+05  0.1896823E+03
  0.7000000E+00  0.5760518E+05  0.7271596E+03 -0.3138951E-02 -0.1520157E-02 -0.3931496E+05  0.2433669E+03
  0.7309524E+00  0.5823098E+05  0.9705120E+03  0.8057833E-02  0.3488541E-02 -0.3918082E+05  0.3080390E+03
  0.7619048E+00  0.5878516E+05  0.1277865E+04  0.1241684E-02  0.1153946E-02 -0.3930989E+05  0.3807107E+03
  0.7928572E+00  0.5936565E+05  0.1659543E+04 -0.5773595E-03 -0.1617432E-02 -0.3947987E+05  0.4648706E+03
  0.8238096E+00  0.6023284E+05  0.2129032E+04  0.2556068E-02  0.2479553E-03 -0.3983370E+05  0.5574168E+03
  0.8547620E+00  0.6115817E+05  0.2703000E+04 -0.3356083E-02 -0.3234863E-02 -0.4014772E+05  0.6543349E+03
  0.8857143E+00  0.6197141E+05  0.3395810E+04 -0.2480784E-02 -0.2414703E-02 -0.4047962E+05  0.7494458E+03
  0.9166667E+00  0.6267639E+05  0.4223922E+04  0.2297141E-02  0.1564026E-02 -0.4073748E+05  0.8379507E+03
  0.9476191E+00  0.6331406E+05  0.5205072E+04 -0.7084985E-03 -0.3341675E-02 -0.4094522E+05  0.9176833E+03
  0.9785714E+00  0.6394047E+05  0.6355581E+04  0.9979471E-03  0.2021790E-02 -0.4110619E+05  0.9885079E+03
  0.1009524E+01  0.6473072E+05  0.7671479E+04  0.4171696E-02  0.5691528E-02 -0.4174862E+05  0.1054708E+04
  0.1040476E+01  0.6541261E+05  0.9177901E+04 -0.1349198E-02 -0.1220703E-02 -0.4224920E+05  0.1073985E+04
  0.1071429E+01  0.6599523E+05  0.1089405E+05 -0.1025391E-02  0.1129150E-02 -0.4286556E+05  0.1025223E+04
  0.1102381E+01  0.6645859E+05  0.1282905E+05 -0.5536666E-03 -0.4714966E-02 -0.4325151E+05  0.9231937E+03
  0.1133333E+01  0.6684677E+05  0.1498629E+05 -0.5924000E-03  0.7324219E-03 -0.4373189E+05  0.7497272E+03
  0.1164286E+01  0.6716287E+05  0.1731745E+05  0.3879289E-02  0.9277344E-02 -0.4445812E+05  0.5298632E+03
  0.1195238E+01  0.6727920E+05  0.1984761E+05 -0.4595874E-03 -0.3051758E-03 -0.4502191E+05  0.1965723E+03
  0.1226190E+01  0.6722127E+05  0.2258126E+05  0.6968674E-03 -0.7873535E-02 -0.4571346E+05 -0.2986073E+03
  0.1257143E+01  0.6692806E+05  0.2550156E+05 -0.4369562E-03 -0.2044678E-02 -0.4628158E+05 -0.9435234E+03
  0.1288095E+01  0.6659466E+05  0.2851929E+05  0.5686085E-03 -0.3997803E-02 -0.4668570E+05 -0.1563575E+04
  0.1319048E+01  0.6612737E+05  0.3164292E+05 -0.5089935E-03  0.1647949E-02 -0.4742927E+05 -0.2398769E+04
  0.1350000E+01  0.6537175E+05  0.3484521E+05  0.1491970E-02  0.3845215E-02 -0.4799029E+05 -0.3408188E+04
  0.1380952E+01  0.6439970E+05  0.3808491E+05 -0.6187702E-03  0.5493164E-03 -0.4836830E+05 -0.4538532E+04
  0.1411905E+01  0.6317030E+05  0.4128712E+05  0.9078078E-03 -0.2441406E-03 -0.4878240E+05 -0.5839708E+04
  0.1442857E+01  0.6192380E+05  0.4442719E+05  0.1988175E-02  0.7934570E-03 -0.4919957E+05 -0.7245423E+04
  0.1473810E+01  0.6051576E+05  0.4747552E+05 -0.5383714E-03 -0.6103516E-03 -0.4921669E+05 -0.8600454E+04
  0.1504762E+01  0.5903806E+05  0.5042994E+05  0.1257401E-02 -0.1403809E-02 -0.4931189E+05 -0.1010219E+05
  0.1535714E+01  0.5754905E+05  0.5322884E+05  0.1391034E-02 -0.3601074E-02 -0.4962493E+05 -0.1177400E+05
  0.1566667E+01  0.5589180E+05  0.5581649E+05  0.5064619E-03  0.8544922E-02 -0.4966326E+05 -0.1348299E+05
  0.1597619E+01  0.5414752E+05  0.5818906E+05  0.1127013E-02  0.9765625E-03 -0.4952782E+05 -0.1523031E+05
  0.1628572E+01  0.5241612E+05  0.6035721E+05 -0.1948842E-02  0.3356934E-02 -0.4948086E+05 -0.1712624E+05
  0.1659524E+01  0.5070330E+05  0.6229841E+05 -0.9194679E-03  0.2685547E-02 -0.4938380E+05 -0.1910063E+05
  0.1690476E+01  0.4900453E+05  0.6397433E+05  0.9206852E-03  0.5676270E-02 -0.4899929E+05 -0.2069336E+05
  0.1721429E+01  0.4739764E+05  0.6543927E+05 -0.9927710E-03  0.6713867E-03 -0.4862405E+05 -0.2218014E+05
  0.1752381E+01  0.4591568E+05  0.6676359E+05 -0.1201630E-02  0.5676270E-02 -0.4849662E+05 -0.2400784E+05
  0.1783333E+01  0.4443327E+05  0.6784183E+05  0.9240837E-03 -0.7019043E-02 -0.4822613E+05 -0.2583419E+05
  0.1814286E+01  0.4300645E+05  0.6870754E+05 -0.4878007E-03 -0.3051758E-02 -0.4789481E+05 -0.2754487E+05
  0.1845238E+01  0.4167001E+05  0.6940467E+05 -0.2455976E-02  0.4028320E-02 -0.4752489E+05 -0.2921189E+05
  0.1876190E+01  0.4041454E+05  0.6994686E+05 -0.2277200E-03  0.2197266E-02 -0.4712452E+05 -0.3108364E+05
  0.1907143E+01  0.3927198E+05  0.7040482E+05 -0.5760622E-03  0.1770020E-02 -0.4676262E+05 -0.3302614E+05
  0.1938095E+01  0.3828039E+05  0.7083279E+05 -0.1598236E-02  0.4638672E-02 -0.4646939E+05 -0.3475829E+05
  0.1969048E+01  0.3740584E+05  0.7114665E+05  0.5889487E-03 -0.3662109E-03 -0.4612339E+05 -0.3620501E+05
  0.2000000E+01  0.3666948E+05  0.7155110E+05 -0.8316040E-03 -0.1464844E-02 -0.4589870E+05 -0.3803172E+05
Zone t="Motion of body    1 in DoF   2",I=    64,F=POINT
  0.5000000E-01  0.2441406E-02  0.5722046E-05  0.1234293E+06  0.2580823E+03  0.9765625E-02  0.2288818E-04
  0.8095238E-01  0.4335291E-02 -0.9536743E-05  0.1217682E+06  0.4275269E+03  0.1281738E-01  0.3051758E-04
  0.1119048E+00  0.6817757E-03 -0.2574921E-04  0.1211713E+06  0.6113533E+03  0.5999626E-02  0.1258850E-03
  0.1428571E+00  0.3044128E-02 -0.1621246E-04  0.1207057E+06  0.8163986E+03  0.2050781E-01  0.7629395E-04
  0.1738095E+00  0.8779029E-03  0.9536743E-05  0.1204841E+06  0.1050730E+04 -0.7023223E-02  0.7629395E-05
  0.2047619E+00 -0.8197163E-03  0.3814697E-05  0.1205738E+06  0.1325081E+04  0.5961573E-03  0.1068115E-03
  0.2357143E+00 -0.2977776E-02 -0.3242493E-04  0.1206288E+06  0.1653960E+04  0.1864346E-01  0.4425049E-03
  0.2666667E+00  0.0000000E+00 -0.1144409E-03  0.1208571E+06  0.2048749E+04  0.1647949E-01  0.5035400E-03
  0.2976190E+00  0.4511719E-02  0.1106262E-03  0.1211316E+06  0.2537682E+04  0.3035156E-01 -0.3356934E-03
  0.3285715E+00 -0.1393194E-02 -0.6103516E-04  0.1214529E+06  0.3132738E+04  0.1337466E-01 -0.6103516E-04
  0.3595238E+00 -0.4244166E-03 -0.1373291E-03  0.1216709E+06  0.3866770E+04  0.6111600E-02 -0.1220703E-03
  0.3904762E+00  0.2969881E-02 -0.1525879E-04  0.1219938E+06  0.4760066E+04  0.3751429E-02  0.2441406E-03
  0.4214286E+00  0.4851777E-02 -0.0000000E+00  0.1218376E+06  0.5801112E+04  0.1853813E-01  0.5493164E-03
  0.4523810E+00  0.2158717E-02 -0.2365112E-03  0.1219071E+06  0.7040002E+04  0.1942845E-01  0.1708984E-02
  0.4833333E+00  0.2020474E-02  0.6103516E-04  0.1212087E+06  0.8364564E+04  0.9597252E-02 -0.1159668E-02
  0.5142857E+00  0.8900961E-03 -0.8087158E-03  0.1206118E+06  0.9837434E+04  0.5221897E-02 -0.1281738E-02
  0.5452381E+00 -0.1455249E-02 -0.4272461E-03  0.1196029E+06  0.1136953E+05  0.1298530E-01 -0.9765625E-03
  0.5761905E+00  0.6090905E-02 -0.1983643E-03  0.1183933E+06  0.1292765E+05  0.5084581E-02  0.3417969E-02
  0.6071429E+00 -0.5529067E-03 -0.3662109E-03  0.1173500E+06  0.1454562E+05  0.8846506E-02  0.6103516E-03
  0.6380953E+00 -0.3634780E-02  0.1159668E-02  0.1157031E+06  0.1612115E+05 -0.7652169E-03  0.1220703E-03
  0.6690477E+00  0.2371900E-02 -0.1037598E-02  0.1141609E+06  0.1769007E+05  0.8757784E-02  0.2319336E-02
  0.7000000E+00  0.9155273E-03 -0.9155273E-04  0.1127997E+06  0.1924249E+05  0.2790178E-02  0.4882812E-03
  0.7309524E+00 -0.2129272E-02 -0.2746582E-03  0.1109016E+06  0.2074412E+05 -0.6680069E-02  0.6835938E-02
  0.7619048E+00 -0.3845214E-02 -0.6408691E-03  0.1091494E+06  0.2219586E+05  0.2114868E-01  0.2929688E-02
  0.7928572E+00 -0.5003782E-02  0.1220703E-03  0.1075254E+06  0.2356957E+05  0.2463401E-01 -0.2441406E-02
  0.8238096E+00  0.1000200E-02  0.7324219E-03  0.1058135E+06  0.2486373E+05  0.0000000E+00 -0.7568359E-02
  0.8547620E+00  0.5069828E-02  0.1220703E-02  0.1038734E+06  0.2608231E+05  0.7997476E-02 -0.1953125E-02
  0.8857143E+00  0.3445533E-03  0.1220703E-03  0.1020691E+06  0.2719530E+05 -0.1653856E-02  0.5126953E-02
  0.9166667E+00 -0.6425337E-02 -0.4821777E-02  0.1005138E+06  0.2817060E+05 -0.1757812E-01  0.1220703E-01
  0.9476191E+00  0.8695209E-03 -0.3601074E-02  0.9889632E+05  0.2903282E+05  0.7729075E-02  0.8300781E-02
  0.9785714E+00 -0.4147718E-02 -0.5310059E-02  0.9702540E+05  0.2979828E+05  0.1147639E-01  0.6591797E-02
  0.1009524E+01 -0.2418374E-02 -0.2441406E-03  0.9536230E+05  0.3044844E+05  0.1934699E-02  0.4150391E-02
  0.1040476E+01  0.8212511E-03  0.8544922E-03  0.9385009E+05  0.3094393E+05 -0.1220144E-01  0.7080078E-02
  0.1071429E+01 -0.9684245E-03 -0.3845215E-02  0.9259092E+05  0.3129612E+05  0.9114583E-03  0.1098633E-01
  0.1102381E+01 -0.1730208E-02  0.2807617E-02  0.9107954E+05  0.3152859E+05  0.3543466E-02  0.7324219E-03
  0.1133333E+01 -0.3365910E-03 -0.1037598E-02  0.8957082E+05  0.3165058E+05  0.2412684E-01  0.6103516E-02
  0.1164286E+01 -0.2516296E-02 -0.3356934E-02  0.8826483E+05  0.3166942E+05 -0.1258148E-02  0.2929688E-02
  0.1195238E+01  0.5055462E-02 -0.3479004E-02  0.8713216E+05  0.3155023E+05  0.0000000E+00  0.1171875E-01
  0.1226190E+01 -0.3297676E-03 -0.2807617E-02  0.8623714E+05  0.3132285E+05 -0.1553019E-01  0.3906250E-02
  0.1257143E+01 -0.2017888E-02  0.1220703E-02  0.8535063E+05  0.3098815E+05 -0.4660866E-02 -0.8544922E-02
  0.1288095E+01  0.1110563E-02  0.5676270E-02  0.8419459E+05  0.3049242E+05  0.1478382E-01  0.2441406E-02
  0.1319048E+01 -0.8676026E-05  0.1220703E-03  0.8327466E+05  0.2997887E+05 -0.5182480E-02  0.1074219E-01
  0.1350000E+01 -0.2486618E-02 -0.4028320E-02  0.8249791E+05  0.2937966E+05  0.5425347E-02  0.1782227E-01
  0.1380952E+01 -0.2872862E-03  0.6591797E-02  0.8187505E+05  0.2867675E+05 -0.3182247E-02 -0.2124023E-01
  0.1411905E+01 -0.1977724E-02 -0.1098633E-02  0.8145291E+05  0.2794509E+05 -0.4149979E-02 -0.3662109E-02
  0.1442857E+01  0.2770754E-02  0.2502441E-02  0.8115920E+05  0.2715884E+05  0.6768255E-03 -0.3417969E-02
  0.1473810E+01  0.1149216E-02 -0.4882812E-03  0.8051519E+05  0.2617912E+05  0.2650444E-02  0.9277344E-02
  0.1504762E+01 -0.9937527E-03  0.2197266E-02  0.8001432E+05  0.2518042E+05  0.7463286E-02 -0.7080078E-02
  0.1535714E+01 -0.7948764E-04 -0.2014160E-02  0.7967148E+05  0.2425922E+05  0.7948764E-02  0.4882812E-03
  0.1566667E+01 -0.2259599E-02 -0.7995605E-02  0.7942289E+05  0.2327752E+05 -0.9350066E-02  0.6103516E-03
  0.1597619E+01  0.1489949E-02  0.7324219E-03  0.7929048E+05  0.2226139E+05  0.6418242E-02  0.1367188E-01
  0.1628572E+01 -0.5059493E-03  0.7019043E-02  0.7930462E+05  0.2134006E+05  0.1229269E-01 -0.4272461E-02
  0.1659524E+01  0.1415981E-02 -0.1525879E-02  0.7943554E+05  0.2042827E+05  0.7944203E-02 -0.6225586E-02
  0.1690476E+01 -0.1444212E-02  0.3967285E-02  0.7929115E+05  0.1920963E+05  0.1328675E-01  0.6103516E-02
  0.1721429E+01 -0.2056454E-02 -0.5676270E-02  0.7918582E+05  0.1794809E+05 -0.5956626E-02  0.2380371E-01
  0.1752381E+01 -0.1567343E-02 -0.3112793E-02  0.7919983E+05  0.1685703E+05  0.1226011E-01  0.2441406E-03
  0.1783333E+01  0.1026760E-02  0.3845215E-02  0.7928169E+05  0.1582034E+05  0.3559433E-02  0.7202148E-02
  0.1814286E+01 -0.1026063E-02  0.7934570E-03  0.7942566E+05  0.1479294E+05  0.4575234E-02 -0.9155273E-02
  0.1845238E+01  0.8930822E-03 -0.1556396E-02  0.7963916E+05  0.1378725E+05 -0.4763105E-02  0.1214600E-01
  0.1876190E+01 -0.6343629E-03 -0.3387451E-02  0.7991384E+05  0.1292399E+05 -0.8588297E-02  0.4516602E-02
  0.1907143E+01  0.3200346E-04 -0.5523682E-02  0.8024097E+05  0.1212401E+05 -0.9216995E-02  0.1293945E-01
  0.1938095E+01 -0.1968271E-02 -0.3356934E-03  0.8050391E+05  0.1116215E+05  0.7558162E-02 -0.4394531E-02
  0.1969048E+01 -0.1642857E-02 -0.1892090E-02  0.8073501E+05  0.1008695E+05 -0.8679244E-02  0.4821777E-02
  0.2000000E+01 -0.1434326E-02 -0.1190186E-02  0.8101148E+05  0.9138793E+04  0.4394531E-02 -0.1037598E-02
Zone t="Motion of body    1 in DoF   3",I=    64,F=POINT
  0.5000000E-01 -0.3890354E+05  0.3279317E-02  0.1190186E-01  0.2822476E-04  0.4938264E+06  0.1972774E-02
  0.8095238E-01 -0.3874601E+05  0.1461649E-01  0.2563477E-01  0.1413912E-03  0.4896542E+06  0.8343597E-02
  0.1119048E+00 -0.3877568E+05  0.4084143E-01  0.1554449E-01  0.1548675E-03  0.4906457E+06  0.2285043E-01
  0.1428571E+00 -0.3912663E+05  0.9116362E-01  0.1281738E-01  0.2033398E-03  0.4905017E+06  0.5026407E-01
  0.1738095E+00 -0.3905041E+05  0.1800963E+00  0.1404645E-02 -0.2347352E-04  0.4900327E+06  0.9773616E-01
  0.2047619E+00 -0.3906078E+05  0.3288614E+00 -0.1669241E-01 -0.1653014E-03  0.4906615E+06  0.1773978E+00
  0.2357143E+00 -0.3926909E+05  0.5739295E+00  0.2382221E-01  0.5594315E-03  0.4904143E+06  0.3033056E+00
  0.2666667E+00 -0.3890630E+05  0.9644805E+00 -0.5493164E-02 -0.1367740E-03  0.4899919E+06  0.5055426E+00
  0.2976190E+00 -0.3925877E+05  0.1594890E+01  0.3445312E-01  0.7632375E-03  0.4905538E+06  0.8178375E+00
  0.3285715E+00 -0.3929173E+05  0.2591650E+01  0.3548000E-01  0.1379129E-02  0.4902529E+06  0.1310584E+01
  0.3595238E+00 -0.3923148E+05  0.4170309E+01 -0.1935340E-01 -0.6023124E-03  0.4900205E+06  0.2077366E+01
  0.3904762E+00 -0.3918667E+05  0.6649240E+01  0.2375905E-01  0.1874790E-02  0.4905813E+06  0.3229982E+01
  0.4214286E+00 -0.3964062E+05  0.1045362E+02 -0.1187599E-01 -0.5166680E-03  0.4901983E+06  0.4927246E+01
  0.4523810E+00 -0.3948848E+05  0.1622579E+02  0.3399979E-01  0.2839357E-02  0.4918359E+06  0.7479146E+01
  0.4833333E+00 -0.3937558E+05  0.2448018E+02  0.7576778E-02  0.2257228E-03  0.4897991E+06  0.1100241E+02
  0.5142857E+00 -0.3958821E+05  0.3636604E+02  0.3797743E-02  0.1295388E-02  0.4911846E+06  0.1567425E+02
  0.5452381E+00 -0.3969041E+05  0.5251661E+02 -0.7388186E-02 -0.6048679E-03  0.4902690E+06  0.2192900E+02
  0.5761905E+00 -0.3991611E+05  0.7375391E+02 -0.1207588E-01  0.1466274E-04  0.4901973E+06  0.2982602E+02
  0.6071429E+00 -0.3956475E+05  0.1009119E+03  0.1990464E-01  0.5120993E-02  0.4923433E+06  0.3985257E+02
  0.6380953E+00 -0.3976462E+05  0.1359287E+03 -0.9373906E-02 -0.2167225E-03  0.4901449E+06  0.4978474E+02
  0.6690477E+00 -0.4018259E+05  0.1789514E+03  0.3612586E-01  0.5839825E-02  0.4904576E+06  0.6205945E+02
  0.7000000E+00 -0.4024709E+05  0.2294216E+03  0.2319336E-01  0.3049374E-02  0.4929088E+06  0.7694637E+02
  0.7309524E+00 -0.4019913E+05  0.2885540E+03 -0.2171022E-01 -0.5271435E-02  0.4904665E+06  0.9349689E+02
  0.7619048E+00 -0.4033779E+05  0.3555338E+03  0.1538086E-01 -0.2937317E-03  0.4903114E+06  0.1109175E+03
  0.7928572E+00 -0.4035828E+05  0.4328381E+03  0.3325591E-01  0.1722908E-01  0.4913839E+06  0.1209985E+03
  0.8238096E+00 -0.4071606E+05  0.5217402E+03 -0.1185423E-02 -0.4002571E-02  0.4920920E+06  0.1282668E+03
  0.8547620E+00 -0.4118269E+05  0.6146652E+03  0.7140603E-02  0.6537437E-02  0.4908833E+06  0.1392686E+03
  0.8857143E+00 -0.4155588E+05  0.7044915E+03  0.9647492E-02  0.6799698E-02  0.4910062E+06  0.1541465E+03
  0.9166667E+00 -0.4168891E+05  0.7810073E+03 -0.4314630E-01 -0.1578903E-01  0.4921740E+06  0.1740072E+03
  0.9476191E+00 -0.4177844E+05  0.8406196E+03 -0.1288179E-02 -0.5642891E-02  0.4926770E+06  0.1872064E+03
  0.9785714E+00 -0.4193793E+05  0.8854819E+03 -0.1646613E-01 -0.1622581E-01  0.4908727E+06  0.1903210E+03
  0.1009524E+01 -0.4266012E+05  0.9542601E+03 -0.1475208E-01 -0.3709793E-03  0.4910837E+06  0.1134084E+03
  0.1040476E+01 -0.4310950E+05  0.9682529E+03  0.2768789E-01  0.1856518E-01  0.4915224E+06  0.8855170E+02
  0.1071429E+01 -0.4360448E+05  0.9083299E+03  0.2278646E-02 -0.1371384E-02  0.4936008E+06  0.8434710E+02
  0.1102381E+01 -0.4395875E+05  0.7772170E+03  0.7529866E-02  0.2292347E-01  0.4927608E+06  0.9011660E+02
  0.1133333E+01 -0.4446849E+05  0.5744106E+03  0.2692728E-01  0.6073952E-02  0.4916537E+06  0.7551537E+02
  0.1164286E+01 -0.4523781E+05  0.3719528E+03 -0.7968270E-02 -0.7210732E-02  0.4920274E+06 -0.3253710E+02
  0.1195238E+01 -0.4574505E+05  0.3610682E+02  0.1552384E-01  0.2680078E-01  0.4923057E+06 -0.5496280E+02
  0.1226190E+01 -0.4632012E+05 -0.4640598E+03 -0.1712303E-01 -0.8378029E-03  0.4941188E+06  0.2626078E+02
  0.1257143E+01 -0.4676998E+05 -0.1128905E+04  0.3301447E-02 -0.2359390E-02  0.4952431E+06  0.1963342E+03
  0.1288095E+01 -0.4721290E+05 -0.1783616E+04  0.4738404E-02  0.5073547E-02  0.4932532E+06  0.8540955E+01
  0.1319048E+01 -0.4802568E+05 -0.2557901E+04 -0.1739832E-01 -0.2065277E-01  0.4936562E+06  0.5790189E+02
  0.1350000E+01 -0.4857047E+05 -0.3521967E+04  0.6329572E-02 -0.1289368E-02  0.4941128E+06  0.2802401E+03
  0.1380952E+01 -0.4886667E+05 -0.4657690E+04  0.2475081E-02  0.4669189E-02  0.4944658E+06  0.5273916E+03
  0.1411905E+01 -0.4913970E+05 -0.5990914E+04 -0.2420821E-02  0.3585815E-02  0.4962856E+06  0.1054071E+04
  0.1442857E+01 -0.4947318E+05 -0.7390819E+04 -0.9475557E-02 -0.8773804E-02  0.4984517E+06  0.1617275E+04
  0.1473810E+01 -0.4948572E+05 -0.8738524E+04  0.4306972E-02  0.1692963E-01  0.4966581E+06  0.1626939E+04
  0.1504762E+01 -0.4960201E+05 -0.1022917E+05 -0.1622453E-02 -0.2899170E-03  0.4958155E+06  0.1833952E+04
  0.1535714E+01 -0.5001574E+05 -0.1178151E+05  0.1112827E-01  0.2944946E-02  0.4966153E+06  0.2428352E+04
  0.1566667E+01 -0.5004700E+05 -0.1340309E+05  0.2181682E-02  0.1327515E-02  0.4970519E+06  0.3140537E+04
  0.1597619E+01 -0.4982364E+05 -0.1510150E+05 -0.7640765E-02 -0.1045227E-01  0.4974723E+06  0.3993294E+04
  0.1628572E+01 -0.4971452E+05 -0.1694321E+05  0.1019394E-01  0.3417969E-02  0.4993207E+06  0.5557774E+04
  0.1659524E+01 -0.4954547E+05 -0.1890620E+05  0.5001905E-02  0.5462646E-02  0.5017712E+06  0.7692349E+04
  0.1690476E+01 -0.4914786E+05 -0.2043179E+05 -0.3466109E-02 -0.1052856E-02  0.5004358E+06  0.7703582E+04
  0.1721429E+01 -0.4878592E+05 -0.2188963E+05 -0.8793115E-02  0.9887695E-02  0.4987953E+06  0.7145613E+04
  0.1752381E+01 -0.4878480E+05 -0.2363209E+05  0.8359163E-03  0.1818848E-01  0.4992404E+06  0.8362259E+04
  0.1783333E+01 -0.4861711E+05 -0.2531741E+05  0.6845064E-02  0.1322937E-01  0.4996948E+06  0.9962252E+04
  0.1814286E+01 -0.4829758E+05 -0.2693459E+05  0.8881336E-02  0.1037598E-02  0.5000506E+06  0.1133187E+05
  0.1845238E+01 -0.4785954E+05 -0.2855911E+05 -0.1349546E-01 -0.1187134E-01  0.5004653E+06  0.1285821E+05
  0.1876190E+01 -0.4743498E+05 -0.3033465E+05 -0.8067794E-02  0.4425049E-02  0.5016598E+06  0.1616921E+05
  0.1907143E+01 -0.4701255E+05 -0.3227422E+05 -0.1664180E-01 -0.7324219E-03  0.5032837E+06  0.2032962E+05
  0.1938095E+01 -0.4669449E+05 -0.3399645E+05 -0.7558162E-03 -0.1739502E-02  0.5034748E+06  0.2197445E+05
  0.1969048E+01 -0.4637175E+05 -0.3530408E+05 -0.1487870E-01 -0.3936768E-02  0.5022048E+06  0.2084879E+05
  0.2000000E+01 -0.4619947E+05 -0.3707813E+05  0.3662109E-02  0.2685547E-02  0.5017508E+06  0.2153044E+05
