VARIABLES="w (rad/s)"
"A   1   1" "B   1   1"
"A   1   2" "B   1   2"
"A   1   3" "B   1   3"
Zone t="Motion of body    1 in DoF   1",I=    64,F=POINT
  0.5000000E-01  0.9814062E+05  0.1079615E-01  0.6332397E-02  0.5745678E-06 -0.1578222E+06 -0.1502966E-01
  0.8095238E-01  0.9859282E+05  0.4740203E-01  0.5277746E-02  0.4251313E-05 -0.1583369E+06 -0.6582257E-01
  0.1119048E+00  0.9875758E+05  0.1331295E+00  0.4908785E-02  0.4644506E-05 -0.1585955E+06 -0.1850473E+00
  0.1428571E+00  0.9917227E+05  0.2999517E+00  0.6408691E-02 -0.2435269E-04 -0.1590878E+06 -0.4167842E+00
  0.1738095E+00  0.9918569E+05  0.5970787E+00 -0.7286594E-02 -0.1637368E-03 -0.1591061E+06 -0.8298668E+00
  0.2047619E+00  0.9950885E+05  0.1102715E+01  0.7153888E-02  0.5527213E-04 -0.1595338E+06 -0.1533353E+01
  0.2357143E+00  0.9978220E+05  0.1943579E+01 -0.3884055E-02 -0.4576892E-04 -0.1599129E+06 -0.2703783E+01
  0.2666667E+00  0.9988369E+05  0.3316457E+01 -0.3261566E-02 -0.1383647E-03 -0.1600653E+06 -0.4615804E+01
  0.2976190E+00  0.1004577E+06  0.5572854E+01 -0.1179199E-02 -0.2371669E-03 -0.1608252E+06 -0.7759456E+01
  0.3285715E+00  0.1007598E+06  0.9228328E+01  0.6130052E-02  0.7010996E-04 -0.1611501E+06 -0.1285314E+02
  0.3595238E+00  0.1011105E+06  0.1516754E+02 -0.9506932E-02 -0.6901324E-03 -0.1617932E+06 -0.2114695E+02
  0.3904762E+00  0.1015426E+06  0.2475480E+02 -0.4298512E-02 -0.8377433E-03 -0.1623462E+06 -0.3453030E+02
  0.4214286E+00  0.1023633E+06  0.3993452E+02  0.3403486E-02 -0.3361702E-04 -0.1633575E+06 -0.5572261E+02
  0.4523810E+00  0.1027849E+06  0.6375974E+02  0.2968236E-02  0.3433228E-04 -0.1639715E+06 -0.8903756E+02
  0.4833333E+00  0.1032903E+06  0.9930057E+02 -0.1010237E-01 -0.1056552E-02 -0.1646246E+06 -0.1387527E+03
  0.5142857E+00  0.1042557E+06  0.1524019E+03 -0.3204346E-02 -0.9224415E-03 -0.1660144E+06 -0.2131325E+03
  0.5452381E+00  0.1050655E+06  0.2282190E+03 -0.1348904E-01 -0.2129555E-02 -0.1670345E+06 -0.3193156E+03
  0.5761905E+00  0.1060030E+06  0.3338429E+03 -0.3495649E-02 -0.1251698E-02 -0.1683901E+06 -0.4675418E+03
  0.6071429E+00  0.1067073E+06  0.4788816E+03 -0.2613741E-02 -0.1191139E-02 -0.1694662E+06 -0.6713745E+03
  0.6380953E+00  0.1078079E+06  0.6727027E+03 -0.1367825E-01 -0.5393028E-02 -0.1708192E+06 -0.9432925E+03
  0.6690477E+00  0.1092403E+06  0.9299956E+03  0.3557850E-02  0.1457214E-02 -0.1728427E+06 -0.1305170E+04
  0.7000000E+00  0.1103968E+06  0.1265149E+04 -0.6016322E-02 -0.3911972E-02 -0.1743515E+06 -0.1776424E+04
  0.7309524E+00  0.1115270E+06  0.1694124E+04 -0.7682079E-02 -0.4970551E-02 -0.1759558E+06 -0.2380876E+04
  0.7619048E+00  0.1129401E+06  0.2240306E+04  0.1137543E-01  0.2971649E-02 -0.1780086E+06 -0.3151389E+04
  0.7928572E+00  0.1144876E+06  0.2927207E+04  0.6466427E-02  0.3623962E-02 -0.1801412E+06 -0.4119431E+04
  0.8238096E+00  0.1161037E+06  0.3782449E+04 -0.9557470E-02 -0.6565094E-02 -0.1823153E+06 -0.5325386E+04
  0.8547620E+00  0.1177934E+06  0.4836201E+04  0.7640445E-02  0.2777100E-02 -0.1844077E+06 -0.6808206E+04
  0.8857143E+00  0.1196831E+06  0.6127067E+04  0.3514444E-02 -0.7476807E-03 -0.1871201E+06 -0.8632624E+04
  0.9166667E+00  0.1213031E+06  0.7681790E+04  0.7923473E-02  0.2296448E-02 -0.1894320E+06 -0.1083137E+05
  0.9476191E+00  0.1228330E+06  0.9540305E+04  0.1294620E-01  0.8483887E-02 -0.1916695E+06 -0.1346367E+05
  0.9785714E+00  0.1246022E+06  0.1174741E+05  0.1546818E-01  0.1281738E-01 -0.1939511E+06 -0.1657208E+05
  0.1009524E+01  0.1265865E+06  0.1435595E+05 -0.7738797E-02 -0.1158142E-01 -0.1965373E+06 -0.2024578E+05
  0.1040476E+01  0.1284782E+06  0.1740467E+05  0.8916440E-02  0.4318237E-02 -0.1992169E+06 -0.2455531E+05
  0.1071429E+01  0.1300956E+06  0.2092319E+05 -0.1595052E-02  0.6103516E-04 -0.2012772E+06 -0.2951198E+05
  0.1102381E+01  0.1315391E+06  0.2496096E+05 -0.3654200E-02 -0.5004883E-02 -0.2032378E+06 -0.3521398E+05
  0.1133333E+01  0.1327664E+06  0.2954450E+05 -0.3985237E-02 -0.4486084E-02 -0.2047060E+06 -0.4166248E+05
  0.1164286E+01  0.1338338E+06  0.3470871E+05  0.6395585E-02  0.3967285E-03 -0.2061284E+06 -0.4894770E+05
  0.1195238E+01  0.1345448E+06  0.4044528E+05  0.4085221E-02  0.3417969E-02 -0.2072785E+06 -0.5706920E+05
  0.1226190E+01  0.1348684E+06  0.4670204E+05  0.5077177E-02 -0.1770020E-02 -0.2074887E+06 -0.6583130E+05
  0.1257143E+01  0.1347106E+06  0.5348658E+05 -0.3786954E-02 -0.6469727E-02 -0.2070628E+06 -0.7533098E+05
  0.1288095E+01  0.1343513E+06  0.6079551E+05  0.2748274E-02 -0.3417969E-02 -0.2063427E+06 -0.8556172E+05
  0.1319048E+01  0.1333878E+06  0.6851530E+05 -0.3331594E-02 -0.8789062E-02 -0.2045245E+06 -0.9626319E+05
  0.1350000E+01  0.1320364E+06  0.7664037E+05 -0.2712674E-02  0.1220703E-03 -0.2025066E+06 -0.1076150E+06
  0.1380952E+01  0.1300384E+06  0.8498267E+05  0.5215349E-02  0.5126953E-02 -0.1996334E+06 -0.1192579E+06
  0.1411905E+01  0.1271905E+06  0.9327898E+05  0.4409352E-02 -0.3540039E-02 -0.1954841E+06 -0.1307349E+06
  0.1442857E+01  0.1240932E+06  0.1016003E+06  0.2453492E-02  0.1037598E-02 -0.1908423E+06 -0.1421529E+06
  0.1473810E+01  0.1205437E+06  0.1097845E+06  0.4141319E-03 -0.2441406E-02 -0.1856852E+06 -0.1534112E+06
  0.1504762E+01  0.1165438E+06  0.1176465E+06  0.4380624E-02  0.4150391E-02 -0.1796806E+06 -0.1640068E+06
  0.1535714E+01  0.1122239E+06  0.1251132E+06  0.2305142E-02 -0.1708984E-02 -0.1732212E+06 -0.1739549E+06
  0.1566667E+01  0.1078095E+06  0.1321766E+06  0.2337517E-02  0.8911133E-02 -0.1669681E+06 -0.1834910E+06
  0.1597619E+01  0.1030018E+06  0.1384943E+06 -0.1146115E-02 -0.1098633E-02 -0.1601001E+06 -0.1918320E+06
  0.1628572E+01  0.9802323E+05  0.1440871E+06 -0.1386676E-02  0.3540039E-02 -0.1529078E+06 -0.1990317E+06
  0.1659524E+01  0.9292706E+05  0.1489220E+06  0.1250476E-02  0.4272461E-02 -0.1455725E+06 -0.2051479E+06
  0.1690476E+01  0.8784984E+05  0.1530376E+06  0.2419055E-02  0.2319336E-02 -0.1383905E+06 -0.2103132E+06
  0.1721429E+01  0.8289616E+05  0.1563939E+06  0.2198279E-02  0.2197266E-02 -0.1313314E+06 -0.2142134E+06
  0.1752381E+01  0.7809361E+05  0.1589798E+06  0.1532513E-02  0.5981445E-02 -0.1243740E+06 -0.2167246E+06
  0.1783333E+01  0.7352092E+05  0.1609633E+06  0.2053519E-03  0.6103516E-03 -0.1178875E+06 -0.2185726E+06
  0.1814286E+01  0.6921688E+05  0.1624418E+06 -0.1984844E-02  0.4638672E-02 -0.1120199E+06 -0.2200404E+06
  0.1845238E+01  0.6501238E+05  0.1631285E+06 -0.2613092E-02 -0.2685547E-02 -0.1062294E+06 -0.2201928E+06
  0.1876190E+01  0.6106406E+05  0.1632313E+06  0.1041006E-02  0.3295898E-02 -0.1007693E+06 -0.2193935E+06
  0.1907143E+01  0.5731833E+05  0.1627430E+06  0.1632176E-02 -0.7324219E-03 -0.9555913E+05 -0.2176789E+06
  0.1938095E+01  0.5383550E+05  0.1618635E+06 -0.2519387E-03  0.6286621E-02 -0.9081823E+05 -0.2156083E+06
  0.1969048E+01  0.5064219E+05  0.1606489E+06 -0.1317385E-02  0.1080322E-01 -0.8652224E+05 -0.2131228E+06
  0.2000000E+01  0.4771571E+05  0.1590157E+06 -0.1220703E-02  0.9765625E-03 -0.8252901E+05 -0.2096404E+06
Zone t="Motion of body    1 in DoF   2",I=    64,F=POINT
  0.5000000E-01 -0.2670288E-02  0.2765656E-04  0.1028142E+06  0.1901690E+03  0.6713867E-02 -0.7057190E-04
  0.8095238E-01 -0.2827364E-03 -0.2384186E-04  0.1017523E+06  0.3148352E+03  0.5277746E-02 -0.7438660E-04
  0.1119048E+00  0.1499907E-02 -0.9775162E-04  0.1012511E+06  0.4498079E+03 -0.1145383E-01 -0.3814697E-05
  0.1428571E+00  0.7476806E-03 -0.1401901E-03  0.1009316E+06  0.6000015E+03 -0.1452637E-01  0.1716614E-03
  0.1738095E+00 -0.6013635E-02 -0.1115799E-03  0.1007989E+06  0.7709961E+03 -0.1053484E-01  0.1602173E-03
  0.2047619E+00  0.2496409E-02 -0.1277924E-03  0.1009427E+06  0.9706686E+03 -0.7153888E-02  0.6027222E-03
  0.2357143E+00  0.7250236E-02  0.9346008E-04  0.1007731E+06  0.1209248E+04 -0.3107244E-02 -0.3738403E-03
  0.2666667E+00  0.6294250E-03 -0.2689362E-03  0.1010352E+06  0.1494146E+04 -0.1831055E-02 -0.4272461E-03
  0.2976190E+00  0.5588379E-02  0.2670288E-04  0.1010209E+06  0.1846219E+04 -0.5742188E-02  0.7629395E-04
  0.3285715E+00 -0.9102198E-02 -0.1869202E-03  0.1013661E+06  0.2272133E+04 -0.7430366E-03  0.1220703E-03
  0.3595238E+00  0.2419175E-02  0.7095337E-03  0.1012886E+06  0.2795990E+04  0.1426040E-01 -0.0000000E+00
  0.3904762E+00 -0.5666221E-02  0.6484985E-03  0.1016487E+06  0.3429459E+04  0.1875714E-01 -0.0000000E+00
  0.4214286E+00 -0.1846572E-02 -0.7705688E-03  0.1012832E+06  0.4163969E+04  0.2027608E-01  0.1525879E-02
  0.4523810E+00  0.6408691E-02  0.3814697E-04  0.1011898E+06  0.5035392E+04  0.0000000E+00  0.1953125E-02
  0.4833333E+00  0.5303744E-02  0.1068115E-03  0.1006944E+06  0.5954443E+04  0.1010237E-02 -0.9155273E-03
  0.5142857E+00  0.5043878E-02 -0.7019043E-03  0.1000262E+06  0.6974857E+04 -0.3323025E-01 -0.3051758E-03
  0.5452381E+00 -0.4925457E-02  0.1022339E-02  0.9949884E+05  0.8019955E+04  0.1611968E-01 -0.1220703E-03
  0.5761905E+00  0.3548614E-02 -0.1220703E-02  0.9835053E+05  0.9074033E+04  0.1186402E-01 -0.3356934E-02
  0.6071429E+00 -0.1608456E-02  0.3433228E-02  0.9739845E+05  0.1016049E+05 -0.5629595E-02  0.8544922E-03
  0.6380953E+00 -0.4113040E-02 -0.1220703E-02  0.9641058E+05  0.1118839E+05 -0.3826084E-02  0.6835938E-02
  0.6690477E+00 -0.1140337E-02  0.8239746E-03  0.9509130E+05  0.1220823E+05  0.2919261E-02  0.7324219E-03
  0.7000000E+00 -0.3051758E-02 -0.2166748E-02  0.9393902E+05  0.1320411E+05  0.1674107E-01  0.2685547E-02
  0.7309524E+00 -0.5845060E-02  0.3356934E-03  0.9285471E+05  0.1412460E+05  0.3340034E-02  0.4516602E-02
  0.7619048E+00 -0.1293754E-01  0.3082275E-02  0.9139527E+05  0.1500551E+05 -0.1409912E-01 -0.3662109E-02
  0.7928572E+00  0.2694344E-02  0.2319336E-02  0.9011395E+05  0.1582537E+05 -0.6158501E-02 -0.1220703E-02
  0.8238096E+00  0.5186224E-02 -0.2990723E-02  0.8908180E+05  0.1655764E+05  0.5927113E-02  0.4516602E-02
  0.8547620E+00  0.3820223E-02 -0.3601074E-02  0.8771741E+05  0.1721471E+05  0.1142496E-02  0.6103516E-02
  0.8857143E+00 -0.3927907E-02 -0.6103516E-03  0.8633668E+05  0.1779822E+05  0.3858997E-02  0.3417969E-02
  0.9166667E+00  0.1864347E-02  0.2899170E-02  0.8515845E+05  0.1827556E+05 -0.6924716E-02 -0.4882812E-03
  0.9476191E+00  0.3091630E-02 -0.6317139E-02  0.8420890E+05  0.1864465E+05  0.8244347E-02 -0.6347656E-02
  0.9785714E+00 -0.3149770E-02  0.6713867E-03  0.8309692E+05  0.1892231E+05 -0.9979471E-03 -0.1489258E-01
  0.1009524E+01 -0.2055618E-02 -0.2807617E-02  0.8184719E+05  0.1911649E+05  0.9673497E-03 -0.1306152E-01
  0.1040476E+01 -0.1035363E-01 -0.0000000E+00  0.8080004E+05  0.1922505E+05 -0.1220144E-01 -0.0000000E+00
  0.1071429E+01 -0.3147380E-02 -0.4577637E-02  0.7993200E+05  0.1922254E+05 -0.1367188E-01  0.7934570E-02
  0.1102381E+01 -0.1522583E-03  0.9765625E-03  0.7933770E+05  0.1912736E+05 -0.7972799E-02 -0.9277344E-02
  0.1133333E+01  0.4267973E-02  0.6591797E-02  0.7840134E+05  0.1892054E+05 -0.3015855E-02 -0.1525879E-01
  0.1164286E+01  0.1140197E-02  0.5859375E-02  0.7749565E+05  0.1863221E+05  0.1174271E-01 -0.7690430E-02
  0.1195238E+01 -0.4257567E-02 -0.2685547E-02  0.7679384E+05  0.1829683E+05  0.1021305E-01 -0.9033203E-02
  0.1226190E+01  0.3608778E-02  0.5554199E-02  0.7625239E+05  0.1788585E+05 -0.1871587E-01  0.5493164E-02
  0.1257143E+01 -0.1110597E-02  0.7507324E-02  0.7593351E+05  0.1745667E+05 -0.4272461E-02  0.4272461E-02
  0.1288095E+01 -0.4146103E-02 -0.2563477E-02  0.7567055E+05  0.1693339E+05 -0.2274434E-02  0.2929688E-02
  0.1319048E+01 -0.1375150E-02  0.5493164E-03  0.7504203E+05  0.1625988E+05  0.1036496E-01 -0.6103516E-02
  0.1350000E+01  0.8724354E-04  0.5249023E-02  0.7462414E+05  0.1561462E+05  0.1048900E-01 -0.6225586E-02
  0.1380952E+01 -0.1972330E-02 -0.4333496E-02  0.7434180E+05  0.1496483E+05  0.1414332E-02 -0.6958008E-02
  0.1411905E+01 -0.4363422E-02  0.7202148E-02  0.7417173E+05  0.1428650E+05  0.3458316E-02 -0.3662109E-02
  0.1442857E+01 -0.2421766E-02 -0.3662109E-03  0.7417076E+05  0.1365988E+05 -0.7445080E-02  0.7934570E-02
  0.1473810E+01  0.1552995E-03  0.4455566E-02  0.7432877E+05  0.1307890E+05  0.3975666E-02  0.1342773E-02
  0.1504762E+01 -0.5359167E-02 -0.1031494E-01  0.7416866E+05  0.1225309E+05  0.0000000E+00  0.1464844E-01
  0.1535714E+01 -0.3775663E-03  0.1831055E-02  0.7400449E+05  0.1136412E+05  0.2543604E-02  0.4638672E-02
  0.1566667E+01  0.5064619E-03  0.1293945E-01  0.7398317E+05  0.1064809E+05  0.6233377E-02 -0.1818848E-01
  0.1597619E+01 -0.4488949E-03  0.1397705E-01  0.7403336E+05  0.9964771E+04 -0.6112612E-03 -0.2221680E-01
  0.1628572E+01 -0.1611542E-02  0.6958008E-02  0.7415416E+05  0.9300586E+04  0.1319216E-01 -0.9094238E-02
  0.1659524E+01 -0.8275211E-03  0.1080322E-01  0.7435815E+05  0.8727273E+04  0.8238432E-02 -0.1086426E-01
  0.1690476E+01 -0.4088925E-02 -0.1831055E-03  0.7464195E+05  0.8268499E+04  0.8087588E-02 -0.3601074E-02
  0.1721429E+01 -0.2765576E-02  0.1647949E-02  0.7485055E+05  0.7690189E+04  0.3403786E-02 -0.2319336E-02
  0.1752381E+01 -0.2246525E-02 -0.1220703E-03  0.7492691E+05  0.6870195E+04  0.8916440E-02  0.4699707E-02
  0.1783333E+01 -0.2361547E-02 -0.1525879E-02  0.7506793E+05  0.6166178E+04  0.3285631E-02 -0.2807617E-02
  0.1814286E+01 -0.1194271E-02  0.2166748E-02  0.7523626E+05  0.5641365E+04  0.1076526E-02 -0.3540039E-02
  0.1845238E+01 -0.1620779E-02  0.5096436E-02  0.7543513E+05  0.5154692E+04  0.7938508E-02 -0.8972168E-02
  0.1876190E+01 -0.2147074E-02  0.1403809E-02  0.7565814E+05  0.4718593E+04  0.5205029E-02  0.5126953E-02
  0.1907143E+01 -0.3936425E-02  0.3112793E-02  0.7590355E+05  0.4366564E+04  0.3072332E-02 -0.3204346E-02
  0.1938095E+01 -0.2629610E-02 -0.3784180E-02  0.7616030E+05  0.4106861E+04 -0.3023265E-02 -0.2136230E-02
  0.1969048E+01 -0.1844339E-02  0.1220703E-03  0.7642373E+05  0.3887396E+04 -0.1091105E-01 -0.6988525E-02
  0.2000000E+01 -0.3082275E-02  0.7598877E-02  0.7661062E+05  0.3396488E+04  0.4882812E-02 -0.5065918E-02
Zone t="Motion of body    1 in DoF   3",I=    64,F=POINT
  0.5000000E-01 -0.1588636E+06 -0.1511925E-01 -0.1770020E-01  0.2860883E-04  0.4003848E+06  0.2104343E-01
  0.8095238E-01 -0.1593974E+06 -0.6637798E-01 -0.1715267E-01 -0.4943111E-04  0.4014246E+06  0.9220458E-01
  0.1119048E+00 -0.1596441E+06 -0.1864298E+00 -0.6272336E-02  0.1137808E-03  0.4017829E+06  0.2592243E+00
  0.1428571E+00 -0.1601619E+06 -0.4200252E+00 -0.4603576E-01 -0.1641456E-03  0.4023394E+06  0.5836183E+00
  0.1738095E+00 -0.1601433E+06 -0.8362454E+00  0.5267417E-03  0.1188470E-03  0.4023201E+06  0.1162098E+01
  0.2047619E+00 -0.1605118E+06 -0.1545046E+01 -0.2354821E-01  0.8949451E-04  0.4033385E+06  0.2148196E+01
  0.2357143E+00 -0.1609809E+06 -0.2724389E+01 -0.2226858E-01 -0.1383796E-03  0.4034716E+06  0.3790089E+01
  0.2666667E+00 -0.1610510E+06 -0.4649981E+01  0.3433228E-01  0.1320243E-02  0.4039317E+06  0.6472318E+01
  0.2976190E+00 -0.1619104E+06 -0.7816905E+01 -0.1558594E-01  0.3182441E-03  0.4047093E+06  0.1088603E+02
  0.3285715E+00 -0.1621268E+06 -0.1295049E+02  0.1207434E-01  0.9661913E-03  0.4053511E+06  0.1803839E+02
  0.3595238E+00 -0.1628756E+06 -0.2129408E+02  0.3565100E-02  0.9415746E-03  0.4061890E+06  0.2968966E+02
  0.3904762E+00 -0.1633152E+06 -0.3477258E+02  0.1031643E-01  0.1316965E-02  0.4073448E+06  0.4850331E+02
  0.4214286E+00 -0.1644538E+06 -0.5612546E+02  0.8689750E-02  0.2319157E-02  0.4080112E+06  0.7831327E+02
  0.4523810E+00 -0.1649903E+06 -0.8966056E+02  0.1511102E-01  0.1609325E-02  0.4092405E+06  0.1252046E+03
  0.4833333E+00 -0.1656571E+06 -0.1397157E+03  0.5303745E-01  0.5959034E-02  0.4096767E+06  0.1952242E+03
  0.5142857E+00 -0.1671201E+06 -0.2145468E+03 -0.2029419E-01  0.5559921E-03  0.4117616E+06  0.3000356E+03
  0.5452381E+00 -0.1680222E+06 -0.3215067E+03  0.3011245E-01  0.4938602E-02  0.4134920E+06  0.4498391E+03
  0.5761905E+00 -0.1695022E+06 -0.4705481E+03  0.2224504E-01  0.5325794E-02  0.4150887E+06  0.6590052E+03
  0.6071429E+00 -0.1705200E+06 -0.6753724E+03 -0.2583582E-01 -0.2640724E-02  0.4168699E+06  0.9468640E+03
  0.6380953E+00 -0.1718383E+06 -0.9492242E+03  0.4591301E-02  0.2589226E-02  0.4184358E+06  0.1330997E+04
  0.6690477E+00 -0.1739871E+06 -0.1312970E+04  0.3101715E-01  0.8619308E-02  0.4211838E+06  0.1842642E+04
  0.7000000E+00 -0.1754333E+06 -0.1787237E+04  0.1220703E-02  0.7337570E-02  0.4233027E+06  0.2509587E+04
  0.7309524E+00 -0.1769449E+06 -0.2394659E+04  0.5010052E-03  0.1842499E-02  0.4258877E+06  0.3365596E+04
  0.7619048E+00 -0.1791105E+06 -0.3167645E+04 -0.4197692E-01 -0.3559113E-02  0.4283693E+06  0.4455970E+04
  0.7928572E+00 -0.1812756E+06 -0.4139767E+04  0.2848307E-01  0.1392746E-01  0.4313449E+06  0.5825410E+04
  0.8238096E+00 -0.1833479E+06 -0.5352225E+04  0.3334001E-01  0.1272583E-01  0.4348123E+06  0.7535547E+04
  0.8547620E+00 -0.1854669E+06 -0.6845666E+04  0.1056809E-01  0.6401062E-02  0.4368913E+06  0.9636800E+04
  0.8857143E+00 -0.1882682E+06 -0.8675429E+04 -0.1212828E-01 -0.2059937E-02  0.4407690E+06  0.1222339E+05
  0.9166667E+00 -0.1905505E+06 -0.1087971E+05  0.1078658E-01  0.3692627E-02  0.4441325E+06  0.1534185E+05
  0.9476191E+00 -0.1926699E+06 -0.1351631E+05 -0.2164141E-01 -0.8819580E-02  0.4478437E+06  0.1907761E+05
  0.9785714E+00 -0.1949568E+06 -0.1663809E+05 -0.1846202E-01 -0.7156372E-02  0.4505635E+06  0.2346906E+05
  0.1009524E+01 -0.1976417E+06 -0.2032633E+05  0.1318014E-01  0.7415771E-02  0.4534687E+06  0.2866042E+05
  0.1040476E+01 -0.2003716E+06 -0.2464011E+05 -0.2721861E-01  0.1535034E-01  0.4574614E+06  0.3476178E+05
  0.1071429E+01 -0.2023875E+06 -0.2961860E+05 -0.4021810E-01 -0.1220703E-01  0.4601110E+06  0.4177661E+05
  0.1102381E+01 -0.2042428E+06 -0.3533928E+05  0.4052840E-01  0.4589844E-01  0.4634202E+06  0.4986338E+05
  0.1133333E+01 -0.2056990E+06 -0.4181369E+05  0.2046473E-01  0.1153564E-01  0.4647062E+06  0.5896911E+05
  0.1164286E+01 -0.2071499E+06 -0.4910160E+05  0.4193826E-03  0.7446289E-02  0.4662078E+06  0.6925108E+05
  0.1195238E+01 -0.2083076E+06 -0.5718509E+05  0.8170443E-03  0.1190186E-01  0.4681707E+06  0.8070281E+05
  0.1226190E+01 -0.2084918E+06 -0.6595340E+05 -0.1274272E-01 -0.6591797E-02  0.4680206E+06  0.9296467E+05
  0.1257143E+01 -0.2079855E+06 -0.7545745E+05 -0.1136086E-01  0.1904297E-01  0.4675047E+06  0.1062766E+06
  0.1288095E+01 -0.2072034E+06 -0.8571159E+05 -0.1942746E-01 -0.8911133E-02  0.4665970E+06  0.1206524E+06
  0.1319048E+01 -0.2054056E+06 -0.9644621E+05 -0.4349581E-02  0.1220703E-01  0.4625316E+06  0.1354793E+06
  0.1350000E+01 -0.2034195E+06 -0.1077591E+06  0.1012731E-01  0.1843262E-01  0.4594373E+06  0.1512902E+06
  0.1380952E+01 -0.2005477E+06 -0.1193302E+06 -0.3040814E-01 -0.1342773E-01  0.4554827E+06  0.1674608E+06
  0.1411905E+01 -0.1963100E+06 -0.1307507E+06 -0.3527482E-01 -0.2026367E-01  0.4492968E+06  0.1832352E+06
  0.1442857E+01 -0.1916068E+06 -0.1421618E+06 -0.6429842E-02  0.1159668E-01  0.4426755E+06  0.1989188E+06
  0.1473810E+01 -0.1863702E+06 -0.1534038E+06 -0.1424614E-01 -0.7690430E-02  0.4358829E+06  0.2144969E+06
  0.1504762E+01 -0.1803489E+06 -0.1639901E+06 -0.2336333E-01 -0.2172852E-01  0.4264138E+06  0.2286489E+06
  0.1535714E+01 -0.1738943E+06 -0.1739228E+06 -0.6200036E-02 -0.2929688E-02  0.4160722E+06  0.2416877E+06
  0.1566667E+01 -0.1677545E+06 -0.1833451E+06  0.6077543E-02 -0.1220703E-02  0.4073988E+06  0.2544266E+06
  0.1597619E+01 -0.1609394E+06 -0.1916163E+06 -0.4431644E-02  0.6103516E-02  0.3978593E+06  0.2653478E+06
  0.1628572E+01 -0.1537283E+06 -0.1987616E+06 -0.1049376E-02  0.6103516E-03  0.3875085E+06  0.2744798E+06
  0.1659524E+01 -0.1463256E+06 -0.2048321E+06  0.1471149E-02  0.5737305E-02  0.3772337E+06  0.2822300E+06
  0.1690476E+01 -0.1390883E+06 -0.2099523E+06 -0.2238529E-01 -0.1403809E-01  0.3677588E+06  0.2889149E+06
  0.1721429E+01 -0.1320073E+06 -0.2138429E+06 -0.4963855E-02 -0.9277344E-02  0.3578645E+06  0.2933042E+06
  0.1752381E+01 -0.1250579E+06 -0.2163456E+06 -0.1476786E-01 -0.2441406E-02  0.3469506E+06  0.2946889E+06
  0.1783333E+01 -0.1186112E+06 -0.2181420E+06 -0.1286872E-01 -0.1586914E-02  0.3374263E+06  0.2957109E+06
  0.1814286E+01 -0.1129317E+06 -0.2195010E+06 -0.1345657E-02  0.1330566E-01  0.3298138E+06  0.2970391E+06
  0.1845238E+01 -0.1072116E+06 -0.2196011E+06  0.4763105E-02  0.1171875E-01  0.3221518E+06  0.2962956E+06
  0.1876190E+01 -0.1017731E+06 -0.2187599E+06 -0.6766537E-02 -0.2441406E-03  0.3147105E+06  0.2938746E+06
  0.1907143E+01 -0.9651312E+05 -0.2170175E+06 -0.4864525E-02  0.2197266E-02  0.3076043E+06  0.2902264E+06
  0.1938095E+01 -0.9174912E+05 -0.2149424E+06 -0.1007755E-02 -0.2233887E-01  0.3017447E+06  0.2869281E+06
  0.1969048E+01 -0.8740758E+05 -0.2124953E+06 -0.2107816E-01 -0.1110840E-01  0.2966804E+06  0.2834584E+06
  0.2000000E+01 -0.8341987E+05 -0.2089725E+06 -0.4150391E-02 -0.6469727E-02  0.2907820E+06  0.2761635E+06
