VARIABLES="w (rad/s)"
"A   1   1" "B   1   1"
"A   1   2" "B   1   2"
"A   1   3" "B   1   3"
Zone t="Motion of body    1 in DoF   1",I=    64,F=POINT
  0.5000000E-01  0.4948716E+05  0.5648396E-02 -0.1831055E-02 -0.6285583E-05 -0.4898494E+04  0.8210465E-02
  0.8095238E-01  0.4961525E+05  0.2478381E-01 -0.8859073E-02 -0.4858352E-04 -0.5435553E+04  0.3610345E-01
  0.1119048E+00  0.4975237E+05  0.6957260E-01 -0.5658738E-02 -0.5723734E-04 -0.5269709E+04  0.1011289E+00
  0.1428571E+00  0.4997069E+05  0.1570243E+00 -0.8277892E-03 -0.1484808E-04 -0.5599609E+04  0.2270186E+00
  0.1738095E+00  0.5009755E+05  0.3129996E+00 -0.1492435E-02 -0.2062740E-04 -0.5408542E+04  0.4510148E+00
  0.2047619E+00  0.5012520E+05  0.5782256E+00 -0.1788472E-02  0.3445894E-07 -0.5483521E+04  0.8286394E+00
  0.2357143E+00  0.5048148E+05  0.1021085E+01 -0.5340576E-02 -0.1016632E-03 -0.5472467E+04  0.1453895E+01
  0.2666667E+00  0.5041681E+05  0.1743245E+01  0.1750946E-01  0.6449446E-03 -0.5137047E+04  0.2472800E+01
  0.2976190E+00  0.5059986E+05  0.2929941E+01  0.5895996E-02  0.2572164E-03 -0.5302867E+04  0.4123102E+01
  0.3285715E+00  0.5100477E+05  0.4864988E+01 -0.8684240E-02 -0.3673136E-03 -0.5156221E+04  0.6786062E+01
  0.3595238E+00  0.5114919E+05  0.8005308E+01  0.3819750E-02  0.2289712E-03 -0.4937194E+04  0.1108041E+02
  0.3904762E+00  0.5119219E+05  0.1307511E+02 -0.6643155E-03  0.1668036E-03 -0.4781224E+04  0.1795011E+02
  0.4214286E+00  0.5174269E+05  0.2112245E+02 -0.1774157E-02  0.9620190E-04 -0.4904702E+04  0.2863431E+02
  0.4523810E+00  0.5206591E+05  0.3378944E+02  0.5295603E-02  0.2854466E-03 -0.4573496E+04  0.4533115E+02
  0.4833333E+00  0.5230459E+05  0.5271310E+02 -0.1483786E-02  0.4982948E-04 -0.4201543E+04  0.6995495E+02
  0.5142857E+00  0.5259096E+05  0.8086031E+02 -0.1195696E-01 -0.1785517E-02 -0.4218776E+04  0.1059753E+03
  0.5452381E+00  0.5323084E+05  0.1212964E+03  0.3806035E-02  0.5884171E-03 -0.4024946E+04  0.1566870E+03
  0.5761905E+00  0.5375239E+05  0.1776031E+03  0.6355727E-03  0.8249283E-03 -0.3752643E+04  0.2260573E+03
  0.6071429E+00  0.5404512E+05  0.2549621E+03 -0.5026424E-03  0.4606247E-03 -0.3336062E+04  0.3200468E+03
  0.6380953E+00  0.5445853E+05  0.3579666E+03  0.9469558E-02  0.2976418E-02 -0.3004809E+04  0.4429829E+03
  0.6690477E+00  0.5524244E+05  0.4944064E+03  0.3238556E-02  0.1432419E-02 -0.3058073E+04  0.6007589E+03
  0.7000000E+00  0.5594117E+05  0.6723783E+03 -0.1961844E-02 -0.3166199E-03 -0.2773852E+04  0.8019969E+03
  0.7309524E+00  0.5666502E+05  0.9003571E+03  0.1002010E-02  0.7982254E-03 -0.2206249E+04  0.1054970E+04
  0.7619048E+00  0.5727649E+05  0.1189231E+04 -0.6809234E-03  0.9918213E-04 -0.1890841E+04  0.1366108E+04
  0.7928572E+00  0.5776535E+05  0.1549792E+04  0.2309438E-02  0.1121521E-02 -0.1504249E+04  0.1746875E+04
  0.8238096E+00  0.5866343E+05  0.1995315E+04  0.2111534E-02  0.7667542E-03 -0.1447099E+04  0.2205159E+04
  0.8547620E+00  0.5969557E+05  0.2542674E+04  0.1785151E-03 -0.1010895E-02 -0.1276896E+04  0.2747604E+04
  0.8857143E+00  0.6059939E+05  0.3206079E+04  0.1653856E-02  0.2899170E-02 -0.1036260E+04  0.3381022E+04
  0.9166667E+00  0.6140958E+05  0.4003083E+04  0.1997514E-02  0.1556396E-02 -0.7263516E+03  0.4116100E+04
  0.9476191E+00  0.6216360E+05  0.4952520E+04  0.1416997E-02  0.1770020E-02 -0.4823855E+03  0.4957703E+04
  0.9785714E+00  0.6289791E+05  0.6071774E+04 -0.1746407E-02  0.1892090E-02 -0.2044791E+03  0.5922800E+04
  0.1009524E+01  0.6360498E+05  0.7369459E+04 -0.4353074E-02 -0.5706787E-02 -0.2981541E+03  0.7002292E+04
  0.1040476E+01  0.6445858E+05  0.8853060E+04  0.2229110E-02  0.4226685E-02 -0.5604761E+03  0.8200892E+04
  0.1071429E+01  0.6518313E+05  0.1055427E+05 -0.1196289E-02 -0.7476807E-03 -0.8416689E+03  0.9484953E+04
  0.1102381E+01  0.6583644E+05  0.1248649E+05 -0.4263233E-02 -0.2899170E-02 -0.1066868E+04  0.1087097E+05
  0.1133333E+01  0.6640048E+05  0.1465717E+05 -0.4308364E-02 -0.6607056E-02 -0.1394083E+04  0.1235355E+05
  0.1164286E+01  0.6681014E+05  0.1705171E+05  0.5242283E-04  0.1312256E-02 -0.2036991E+04  0.1389080E+05
  0.1195238E+01  0.6715023E+05  0.1963936E+05 -0.2706459E-02 -0.6072998E-02 -0.2836346E+04  0.1550343E+05
  0.1226190E+01  0.6728427E+05  0.2245664E+05 -0.4430086E-02 -0.3967285E-03 -0.3679615E+04  0.1708493E+05
  0.1257143E+01  0.6718362E+05  0.2548932E+05 -0.2427534E-02 -0.5798340E-02 -0.4648648E+04  0.1864884E+05
  0.1288095E+01  0.6703834E+05  0.2869674E+05 -0.4359332E-02  0.3753662E-02 -0.5636028E+04  0.2019654E+05
  0.1319048E+01  0.6675122E+05  0.3203287E+05  0.2776328E-03  0.4577637E-02 -0.6957127E+04  0.2170459E+05
  0.1350000E+01  0.6618081E+05  0.3547614E+05 -0.2124928E-02  0.4821777E-02 -0.8346301E+04  0.2302331E+05
  0.1380952E+01  0.6541056E+05  0.3901004E+05 -0.9281553E-03  0.2502441E-02 -0.9787468E+04  0.2417627E+05
  0.1411905E+01  0.6426834E+05  0.4259007E+05 -0.3155713E-02  0.3234863E-02 -0.1115593E+05  0.2518009E+05
  0.1442857E+01  0.6315582E+05  0.4614125E+05 -0.8460319E-03 -0.2319336E-02 -0.1277292E+05  0.2593708E+05
  0.1473810E+01  0.6194379E+05  0.4964209E+05 -0.5383714E-03  0.6469727E-02 -0.1425993E+05  0.2661827E+05
  0.1504762E+01  0.6059562E+05  0.5308218E+05 -0.9734721E-03 -0.5004883E-02 -0.1575392E+05  0.2702102E+05
  0.1535714E+01  0.5912952E+05  0.5643590E+05  0.6756450E-03  0.2441406E-02 -0.1743041E+05  0.2704336E+05
  0.1566667E+01  0.5755259E+05  0.5961223E+05 -0.2395954E-02  0.5920410E-02 -0.1905380E+05  0.2685917E+05
  0.1597619E+01  0.5586952E+05  0.6262029E+05 -0.2693370E-02 -0.2685547E-02 -0.2052987E+05  0.2636343E+05
  0.1628572E+01  0.5411279E+05  0.6544694E+05 -0.2005058E-02  0.1147461E-01 -0.2192027E+05  0.2557794E+05
  0.1659524E+01  0.5235527E+05  0.6808505E+05  0.1802157E-02 -0.2807617E-02 -0.2334187E+05  0.2445984E+05
  0.1690476E+01  0.5065698E+05  0.7051695E+05  0.9206852E-03 -0.1458740E-01 -0.2454568E+05  0.2345566E+05
  0.1721429E+01  0.4897362E+05  0.7274969E+05 -0.1950086E-03  0.2563477E-02 -0.2561208E+05  0.2226716E+05
  0.1752381E+01  0.4736472E+05  0.7484327E+05 -0.1602173E-02  0.7934570E-03 -0.2677478E+05  0.2070054E+05
  0.1783333E+01  0.4576457E+05  0.7675595E+05 -0.3867461E-02  0.3356934E-02 -0.2785630E+05  0.1882049E+05
  0.1814286E+01  0.4416862E+05  0.7847259E+05  0.1505454E-02  0.9765625E-03 -0.2872750E+05  0.1671758E+05
  0.1845238E+01  0.4262741E+05  0.8004913E+05  0.1562894E-02  0.7690430E-02 -0.2950204E+05  0.1448100E+05
  0.1876190E+01  0.4116618E+05  0.8154198E+05  0.6506286E-03  0.2746582E-02 -0.3022233E+05  0.1200682E+05
  0.1907143E+01  0.3973837E+05  0.8286461E+05  0.2336252E-02 -0.2014160E-02 -0.3073288E+05  0.9259908E+04
  0.1938095E+01  0.3842909E+05  0.8414294E+05  0.2893359E-02 -0.2258301E-02 -0.3121054E+05  0.6596868E+04
  0.1969048E+01  0.3724520E+05  0.8546167E+05 -0.1150775E-02  0.3051758E-03 -0.3171245E+05  0.3889206E+04
  0.2000000E+01  0.3611972E+05  0.8673709E+05 -0.1696587E-02  0.5737305E-02 -0.3204915E+05  0.1116990E+04
Zone t="Motion of body    1 in DoF   2",I=    64,F=POINT
  0.5000000E-01 -0.2517700E-02  0.1096725E-04  0.1795676E+06  0.4011799E+03  0.4272461E-02 -0.1716614E-04
  0.8095238E-01  0.2921609E-02 -0.4768372E-06  0.1781985E+06  0.6647417E+03  0.2789666E-01  0.3814697E-04
  0.1119048E+00 -0.3340701E-02 -0.1621246E-04  0.1772472E+06  0.9510002E+03  0.2018056E-01 -0.2670288E-04
  0.1428571E+00 -0.3898620E-02 -0.4768372E-04  0.1765771E+06  0.1270379E+04  0.3161621E-01 -0.6866455E-04
  0.1738095E+00  0.2545918E-02  0.9536743E-05  0.1762771E+06  0.1636094E+04 -0.2036735E-01 -0.1068115E-03
  0.2047619E+00 -0.3875023E-02 -0.9536743E-04  0.1763996E+06  0.2064640E+04 -0.5365416E-02 -0.3662109E-03
  0.2357143E+00  0.5243475E-02 -0.7629395E-05  0.1765812E+06  0.2578988E+04  0.1708984E-01 -0.7629395E-04
  0.2666667E+00  0.7438659E-03  0.2517700E-03  0.1769718E+06  0.3197745E+04 -0.1556396E-01 -0.4577637E-04
  0.2976190E+00 -0.7177735E-03 -0.5722046E-04  0.1774667E+06  0.3964319E+04 -0.9023437E-02 -0.2136230E-03
  0.3285715E+00 -0.2321989E-02  0.9918213E-04  0.1780346E+06  0.4899523E+04 -0.2749235E-01  0.6713867E-03
  0.3595238E+00 -0.2546500E-02 -0.1907349E-03  0.1784823E+06  0.6053900E+04  0.8148799E-02 -0.2441406E-03
  0.3904762E+00  0.5705298E-02  0.3814697E-04  0.1790164E+06  0.7462749E+04  0.1438048E-01 -0.1892090E-02
  0.4214286E+00  0.3331071E-02 -0.2441406E-03  0.1789391E+06  0.9106073E+04 -0.4055217E-02 -0.5493164E-03
  0.4523810E+00 -0.7015830E-02  0.1373291E-03  0.1789834E+06  0.1106329E+05 -0.4857113E-02  0.6103516E-04
  0.4833333E+00  0.3346410E-02  0.1983643E-03  0.1781331E+06  0.1316424E+05  0.3939924E-01 -0.1831055E-03
  0.5142857E+00  0.2076891E-02 -0.1525879E-04  0.1772093E+06  0.1550397E+05  0.1044379E-01  0.3540039E-02
  0.5452381E+00  0.7835955E-03 -0.8087158E-03  0.1757892E+06  0.1794886E+05  0.1656745E-01  0.9765625E-03
  0.5761905E+00  0.2118576E-03  0.7934570E-03  0.1740620E+06  0.2044664E+05  0.1864346E-01  0.1953125E-02
  0.6071429E+00  0.3417968E-02  0.7934570E-03  0.1722759E+06  0.2304942E+05 -0.3216911E-02  0.1342773E-02
  0.6380953E+00  0.4782605E-03  0.9460449E-03  0.1699843E+06  0.2559966E+05  0.2219129E-01 -0.2929688E-02
  0.6690477E+00  0.4105211E-02 -0.3662109E-03  0.1677030E+06  0.2815618E+05  0.5108708E-02  0.2685547E-02
  0.7000000E+00  0.7149832E-02 -0.4760742E-02  0.1654587E+06  0.3070826E+05  0.2441406E-01 -0.2441406E-03
  0.7309524E+00 -0.4091542E-02  0.1220703E-03  0.1627575E+06  0.3319782E+05 -0.2672028E-02 -0.1953125E-02
  0.7619048E+00  0.3124237E-02 -0.2258301E-02  0.1601072E+06  0.3562056E+05  0.2627563E-01 -0.0000000E+00
  0.7928572E+00 -0.7313221E-02  0.4272461E-03  0.1575385E+06  0.3794439E+05 -0.7390202E-02 -0.3906250E-02
  0.8238096E+00 -0.2222667E-03  0.1220703E-03  0.1548583E+06  0.4017677E+05  0.4741691E-02  0.7324219E-03
  0.8547620E+00  0.5926700E-02 -0.5126953E-02  0.1520078E+06  0.4230793E+05  0.0000000E+00  0.2685547E-02
  0.8857143E+00 -0.3927907E-02  0.2014160E-02  0.1492481E+06  0.4429230E+05  0.1653856E-02 -0.2197266E-02
  0.9166667E+00  0.2463601E-02  0.1159668E-02  0.1467241E+06  0.4608417E+05  0.1757812E-01  0.6591797E-02
  0.9476191E+00 -0.1932269E-02  0.1281738E-02  0.1440840E+06  0.4773223E+05 -0.1545815E-02 -0.4150391E-02
  0.9785714E+00  0.6081240E-02 -0.3784180E-02  0.1412897E+06  0.4924132E+05  0.0000000E+00 -0.8056641E-02
  0.1009524E+01  0.2720671E-02  0.4272461E-03  0.1386813E+06  0.5057111E+05  0.1209187E-01  0.5371094E-02
  0.1040476E+01 -0.2346432E-03  0.2014160E-02  0.1362500E+06  0.5169802E+05  0.7977867E-02 -0.3662109E-02
  0.1071429E+01 -0.1737467E-02  0.3601074E-02  0.1340200E+06  0.5260394E+05  0.6835938E-02 -0.1220703E-02
  0.1102381E+01  0.2629916E-02 -0.7934570E-03  0.1316245E+06  0.5337801E+05  0.1461680E-01 -0.1171875E-01
  0.1133333E+01  0.1723346E-02  0.2075195E-02  0.1292524E+06  0.5398643E+05  0.8616728E-02 -0.2441406E-02
  0.1164286E+01 -0.3328850E-02  0.1831055E-03  0.1271166E+06  0.5440798E+05  0.1258148E-01  0.6591797E-02
  0.1195238E+01 -0.1787284E-03 -0.5981445E-02  0.1251386E+06  0.5462478E+05 -0.2042611E-02  0.1025391E-01
  0.1226190E+01  0.6222030E-03  0.4882812E-02  0.1233828E+06  0.5461741E+05  0.1991050E-02 -0.6103516E-02
  0.1257143E+01  0.6068836E-03 -0.4394531E-02  0.1216949E+06  0.5452240E+05  0.2330433E-02 -0.1513672E-01
  0.1288095E+01  0.5330705E-02  0.6103516E-03  0.1198529E+06  0.5419825E+05  0.2122805E-01 -0.2758789E-01
  0.1319048E+01 -0.1989702E-02 -0.5126953E-02  0.1182320E+06  0.5381656E+05 -0.1036496E-01 -0.1391602E-01
  0.1350000E+01 -0.6442600E-03 -0.2441406E-02  0.1168092E+06  0.5327593E+05 -0.6148727E-02 -0.6347656E-02
  0.1380952E+01 -0.1667088E-02 -0.5615234E-02  0.1155671E+06  0.5255619E+05  0.4242996E-02  0.3662109E-02
  0.1411905E+01  0.3552879E-03  0.3051758E-02  0.1144760E+06  0.5162473E+05  0.2005823E-01 -0.1220703E-02
  0.1442857E+01  0.5076191E-03 -0.1953125E-02  0.1135540E+06  0.5066196E+05  0.1387492E-01 -0.6103516E-02
  0.1473810E+01  0.2246666E-02  0.4638672E-02  0.1124361E+06  0.4961271E+05  0.1424614E-01  0.5859375E-02
  0.1504762E+01  0.1713717E-02  0.3051758E-02  0.1114236E+06  0.4844017E+05  0.5516342E-02 -0.3564453E-01
  0.1535714E+01 -0.1420842E-02  0.1953125E-02  0.1106354E+06  0.4727269E+05 -0.1081032E-01 -0.3637695E-01
  0.1566667E+01  0.1558344E-03  0.6835938E-02  0.1099914E+06  0.4599807E+05  0.8415059E-02 -0.6835938E-02
  0.1597619E+01  0.1814682E-02 -0.1953125E-02  0.1094829E+06  0.4462445E+05  0.1008581E-01 -0.2636719E-01
  0.1628572E+01 -0.8057711E-03  0.4272461E-02  0.1091094E+06  0.4314327E+05  0.1199287E-01 -0.1708984E-01
  0.1659524E+01 -0.5516807E-03 -0.7995605E-02  0.1088893E+06  0.4169806E+05 -0.2353838E-02 -0.4150391E-02
  0.1690476E+01  0.3177267E-02  0.1135254E-01  0.1084523E+06  0.4014029E+05  0.1964128E-01 -0.9521484E-02
  0.1721429E+01  0.6736661E-03  0.3051758E-03  0.1080815E+06  0.3848627E+05  0.0000000E+00  0.1611328E-01
  0.1752381E+01  0.6617671E-03  0.3234863E-02  0.1078285E+06  0.3688569E+05  0.1504649E-01  0.1708984E-02
  0.1783333E+01  0.1882393E-03  0.1831055E-03  0.1077058E+06  0.3529911E+05  0.1642815E-01  0.1440430E-01
  0.1814286E+01  0.1463402E-02  0.4455566E-02  0.1076945E+06  0.3369075E+05  0.1453310E-01 -0.6347656E-02
  0.1845238E+01  0.1604240E-02 -0.5554199E-02  0.1077778E+06  0.3207572E+05  0.5821573E-02 -0.1184082E-01
  0.1876190E+01  0.1626571E-04  0.1403809E-02  0.1079386E+06  0.3046460E+05  0.1014981E-01 -0.1586914E-02
  0.1907143E+01 -0.4192452E-02 -0.1971436E-01  0.1081666E+06  0.2891102E+05 -0.1715385E-01  0.2282715E-01
  0.1938095E+01  0.2424910E-02 -0.2929688E-02  0.1083298E+06  0.2729257E+05  0.7306223E-02  0.1623535E-01
  0.1969048E+01  0.2169811E-03 -0.9399414E-02  0.1084955E+06  0.2566012E+05  0.1190296E-01 -0.7080078E-02
  0.2000000E+01 -0.1068115E-02 -0.1733398E-01  0.1087122E+06  0.2407823E+05  0.2441406E-03 -0.5004883E-02
Zone t="Motion of body    1 in DoF   3",I=    64,F=POINT
  0.5000000E-01 -0.5950325E+04  0.7976741E-02  0.1098633E-01  0.4531236E-04  0.5570008E+06  0.1155997E-01
  0.8095238E-01 -0.6053004E+04  0.3538836E-01  0.4316442E-01  0.1784794E-03  0.5637135E+06  0.5135540E-01
  0.1119048E+00 -0.5858068E+04  0.9911072E-01  0.2508934E-01  0.2058520E-03  0.5646298E+06  0.1441939E+00
  0.1428571E+00 -0.6300611E+04  0.2230071E+00  0.6964111E-01  0.5290606E-03  0.5648348E+06  0.3220564E+00
  0.1738095E+00 -0.6202800E+04  0.4427006E+00 -0.1229064E-02  0.1142472E-03  0.5641341E+06  0.6373194E+00
  0.2047619E+00 -0.6119424E+04  0.8133618E+00  0.7451967E-02  0.1451187E-03  0.5650365E+06  0.1164506E+01
  0.2357143E+00 -0.6303550E+04  0.1429491E+01  0.2485795E-01  0.7852186E-03  0.5647858E+06  0.2034328E+01
  0.2666667E+00 -0.5830942E+04  0.2426641E+01 -0.9384154E-02 -0.3009029E-03  0.5641974E+06  0.3437997E+01
  0.2976190E+00 -0.5984659E+04  0.4051721E+01  0.1681641E-01  0.1464114E-03  0.5650308E+06  0.5697584E+01
  0.3285715E+00 -0.5992728E+04  0.6675859E+01  0.4253884E-01  0.1610219E-02  0.5645951E+06  0.9308705E+01
  0.3595238E+00 -0.5752756E+04  0.1089358E+02 -0.9167399E-02 -0.1159832E-02  0.5645563E+06  0.1507645E+02
  0.3904762E+00 -0.5364571E+04  0.1762569E+02  0.5971024E-01  0.3260404E-02  0.5650824E+06  0.2418532E+02
  0.4214286E+00 -0.5778603E+04  0.2820006E+02 -0.9848383E-02 -0.1467168E-02  0.5648074E+06  0.3819412E+02
  0.4523810E+00 -0.5335469E+04  0.4461966E+02 -0.2374589E-01 -0.7607341E-03  0.5661376E+06  0.5985105E+02
  0.4833333E+00 -0.5033262E+04  0.6877769E+02  0.6440261E-01  0.5133152E-02  0.5641973E+06  0.9130184E+02
  0.5142857E+00 -0.4827083E+04  0.1042487E+03  0.1993815E-01  0.2943993E-02  0.5660536E+06  0.1365023E+03
  0.5452381E+00 -0.4867759E+04  0.1544210E+03  0.4253804E-02 -0.1389265E-02  0.5652698E+06  0.1993331E+03
  0.5761905E+00 -0.4731348E+04  0.2229504E+03  0.1122845E-01  0.3674507E-02  0.5652375E+06  0.2838543E+03
  0.6071429E+00 -0.3938419E+04  0.3149207E+03  0.1125919E-01  0.1702309E-02  0.5672051E+06  0.3961395E+03
  0.6380953E+00 -0.3655924E+04  0.4357190E+03  0.9756515E-02  0.5636215E-03  0.5653442E+06  0.5391937E+03
  0.6690477E+00 -0.3861137E+04  0.5932410E+03  0.6568338E-02 -0.1536369E-02  0.5663087E+06  0.7193335E+03
  0.7000000E+00 -0.3438029E+04  0.7924846E+03  0.1429966E-01  0.3664970E-02  0.5685436E+06  0.9452324E+03
  0.7309524E+00 -0.3078056E+04  0.1042115E+04  0.9686099E-02  0.7781982E-03  0.5662577E+06  0.1223100E+04
  0.7619048E+00 -0.2697864E+04  0.1348906E+04  0.2723694E-01  0.8142471E-02  0.5663509E+06  0.1555833E+04
  0.7928572E+00 -0.1971508E+04  0.1720664E+04  0.1354870E-01  0.1625061E-02  0.5676514E+06  0.1946521E+04
  0.8238096E+00 -0.1943642E+04  0.2179984E+04  0.1007609E-01 -0.1113892E-02  0.5684809E+06  0.2395846E+04
  0.8547620E+00 -0.2037680E+04  0.2727169E+04  0.3027616E-01  0.1769638E-01  0.5673836E+06  0.2928544E+04
  0.8857143E+00 -0.1844127E+04  0.3362108E+04  0.3858997E-02  0.2113342E-02  0.5675869E+06  0.3541482E+04
  0.9166667E+00 -0.1380457E+04  0.4087608E+04  0.4287997E-01  0.2754974E-01  0.5685934E+06  0.4220188E+04
  0.9476191E+00 -0.9761030E+03  0.4915340E+04  0.1520051E-01  0.1808167E-02  0.5688619E+06  0.4972542E+04
  0.9785714E+00 -0.6867193E+03  0.5859590E+04  0.7734090E-02 -0.9353638E-02  0.5669174E+06  0.5792438E+04
  0.1009524E+01 -0.6925129E+03  0.6931760E+04  0.8222473E-02 -0.3662109E-03  0.5669059E+06  0.6640992E+04
  0.1040476E+01 -0.9326479E+03  0.8145766E+04 -0.1407859E-02 -0.8773804E-02  0.5674835E+06  0.7507934E+04
  0.1071429E+01 -0.1047450E+04  0.9428374E+04  0.5924480E-02  0.1171875E-01  0.5687878E+06  0.8437412E+04
  0.1102381E+01 -0.1263659E+04  0.1081092E+05  0.4362893E-01  0.2890015E-01  0.5675359E+06  0.9432748E+04
  0.1133333E+01 -0.1654790E+04  0.1228177E+05  0.2261891E-01  0.9384155E-02  0.5656114E+06  0.1040596E+05
  0.1164286E+01 -0.2236116E+04  0.1382970E+05 -0.1488808E-01 -0.2987671E-01  0.5652298E+06  0.1134150E+05
  0.1195238E+01 -0.2983962E+04  0.1547537E+05 -0.6332093E-02  0.8239746E-02  0.5651472E+06  0.1213389E+05
  0.1226190E+01 -0.3685115E+04  0.1705030E+05  0.1572929E-01  0.3247070E-01  0.5654652E+06  0.1293919E+05
  0.1257143E+01 -0.4503924E+04  0.1862910E+05  0.5631880E-02 -0.7904053E-02  0.5653434E+06  0.1368779E+05
  0.1288095E+01 -0.5569617E+04  0.2017098E+05  0.3601187E-01  0.9796143E-02  0.5629828E+06  0.1428321E+05
  0.1319048E+01 -0.6988528E+04  0.2176097E+05 -0.2905890E-01 -0.2365112E-01  0.5616908E+06  0.1460025E+05
  0.1350000E+01 -0.8329155E+04  0.2316952E+05  0.8861400E-02  0.6561279E-02  0.5611651E+06  0.1498397E+05
  0.1380952E+01 -0.9668579E+04  0.2436037E+05  0.2121498E-02 -0.1953125E-01  0.5608532E+06  0.1516554E+05
  0.1411905E+01 -0.1086185E+05  0.2512529E+05  0.2351655E-01  0.1593018E-01  0.5607593E+06  0.1508915E+05
  0.1442857E+01 -0.1233350E+05  0.2592623E+05  0.1878191E-01  0.2166748E-01  0.5613000E+06  0.1489339E+05
  0.1473810E+01 -0.1387986E+05  0.2669349E+05  0.7288721E-02  0.2728271E-01  0.5592828E+06  0.1435437E+05
  0.1504762E+01 -0.1544203E+05  0.2718724E+05  0.9247985E-02  0.6164551E-02  0.5573040E+06  0.1373225E+05
  0.1535714E+01 -0.1714227E+05  0.2738018E+05  0.1748728E-02  0.9979248E-02  0.5570211E+06  0.1320360E+05
  0.1566667E+01 -0.1874673E+05  0.2731728E+05  0.1838846E-01 -0.1553345E-01  0.5571734E+06  0.1251579E+05
  0.1597619E+01 -0.2014592E+05  0.2690370E+05  0.5042905E-02 -0.8178711E-02  0.5574828E+06  0.1187411E+05
  0.1628572E+01 -0.2140857E+05  0.2612639E+05 -0.5846525E-02 -0.1083374E-01  0.5582842E+06  0.1126376E+05
  0.1659524E+01 -0.2266158E+05  0.2510123E+05 -0.1441726E-01 -0.6896973E-02  0.5599834E+06  0.1078775E+05
  0.1690476E+01 -0.2392663E+05  0.2425443E+05  0.1242022E-01  0.2395630E-01  0.5588357E+06  0.9428347E+04
  0.1721429E+01 -0.2507317E+05  0.2323212E+05 -0.2836489E-02 -0.8544922E-03  0.5574728E+06  0.7853767E+04
  0.1752381E+01 -0.2636546E+05  0.2185921E+05  0.6965969E-02  0.7186890E-02  0.5573541E+06  0.6741710E+04
  0.1783333E+01 -0.2751316E+05  0.2016894E+05  0.5749854E-02  0.2101135E-01  0.5580763E+06  0.6309426E+04
  0.1814286E+01 -0.2839723E+05  0.1825768E+05  0.9957862E-02 -0.9933472E-02  0.5589006E+06  0.6298644E+04
  0.1845238E+01 -0.2911120E+05  0.1612786E+05 -0.7938508E-03  0.1046753E-01  0.5600045E+06  0.6250297E+04
  0.1876190E+01 -0.2973767E+05  0.1364810E+05  0.1041006E-02  0.3224182E-01  0.5615737E+06  0.6625423E+04
  0.1907143E+01 -0.3011207E+05  0.1112134E+05 -0.7936857E-02  0.6347656E-02  0.5632342E+06  0.7963258E+04
  0.1938095E+01 -0.3058478E+05  0.8687101E+04 -0.5794591E-02  0.4425049E-02  0.5635516E+06  0.7878618E+04
  0.1969048E+01 -0.3117622E+05  0.6136742E+04  0.6447438E-02 -0.2365112E-02  0.5633412E+06  0.6700619E+04
  0.2000000E+01 -0.3163434E+05  0.3579669E+04 -0.7568359E-02 -0.1187134E-01  0.5628618E+06  0.5264507E+04
