VARIABLES="w (rad/s)"
"abs(F   1   1)" "angle(F   1   1)"
"abs(F   1   2)" "angle(F   1   2)"
"abs(F   1   3)" "angle(F   1   3)"
Zone t="Diffraction force - beta =   0.000 deg",I=    64,F=POINT
  0.5000000E-01  0.3854084E+04 -0.1570825E+01  0.5642049E+06 -0.3861715E-04  0.1000793E+03 -0.1570846E+01
  0.8095238E-01  0.6284750E+04 -0.1570797E+01  0.5629801E+06 -0.1038467E-03  0.1637044E+03 -0.1570816E+01
  0.1119048E+00  0.8763483E+04 -0.1570791E+01  0.5611832E+06 -0.2060898E-03  0.2284727E+03 -0.1570797E+01
  0.1428571E+00  0.1133490E+05 -0.1570789E+01  0.5588134E+06 -0.3531025E-03  0.2972119E+03 -0.1570806E+01
  0.1738095E+00  0.1401144E+05 -0.1570787E+01  0.5558651E+06 -0.5565216E-03  0.3683220E+03 -0.1570791E+01
  0.2047619E+00  0.1683731E+05 -0.1570774E+01  0.5523351E+06 -0.8331803E-03  0.4457350E+03 -0.1570783E+01
  0.2357143E+00  0.1982315E+05 -0.1570767E+01  0.5482179E+06 -0.1207963E-02  0.5273051E+03 -0.1570776E+01
  0.2666667E+00  0.2304949E+05 -0.1570749E+01  0.5435053E+06 -0.1710657E-02  0.6173275E+03 -0.1570755E+01
  0.2976190E+00  0.2654694E+05 -0.1570728E+01  0.5382001E+06 -0.2392638E-02  0.7173398E+03 -0.1570730E+01
  0.3285715E+00  0.3034127E+05 -0.1570690E+01  0.5322906E+06 -0.3304561E-02  0.8269750E+03 -0.1570699E+01
  0.3595238E+00  0.3454323E+05 -0.1570640E+01  0.5258043E+06 -0.4528564E-02  0.9506834E+03 -0.1570642E+01
  0.3904762E+00  0.3919730E+05 -0.1570559E+01  0.5187330E+06 -0.6154262E-02  0.1094244E+04 -0.1570562E+01
  0.4214286E+00  0.4429887E+05 -0.1570443E+01  0.5111638E+06 -0.8237365E-02  0.1245315E+04 -0.1570451E+01
  0.4523810E+00  0.4989188E+05 -0.1570276E+01  0.5030828E+06 -0.1093672E-01  0.1419979E+04 -0.1570280E+01
  0.4833333E+00  0.5607730E+05 -0.1570045E+01  0.4945922E+06 -0.1416957E-01  0.1617840E+04 -0.1570046E+01
  0.5142857E+00  0.6275824E+05 -0.1569721E+01  0.4857439E+06 -0.1812340E-01  0.1838117E+04 -0.1569723E+01
  0.5452381E+00  0.6982992E+05 -0.1569291E+01  0.4765397E+06 -0.2272762E-01  0.2067464E+04 -0.1569293E+01
  0.5761905E+00  0.7734088E+05 -0.1568731E+01  0.4670510E+06 -0.2798910E-01  0.2318407E+04 -0.1568732E+01
  0.6071429E+00  0.8531399E+05 -0.1568009E+01  0.4573442E+06 -0.3406416E-01  0.2603025E+04 -0.1568013E+01
  0.6380953E+00  0.9367402E+05 -0.1567112E+01  0.4473582E+06 -0.4078155E-01  0.2909831E+04 -0.1567113E+01
  0.6690477E+00  0.1022686E+06 -0.1565999E+01  0.4372112E+06 -0.4829333E-01  0.3218937E+04 -0.1566001E+01
  0.7000000E+00  0.1110510E+06 -0.1564634E+01  0.4269393E+06 -0.5668416E-01  0.3548151E+04 -0.1564634E+01
  0.7309524E+00  0.1202135E+06 -0.1562995E+01  0.4164902E+06 -0.6586748E-01  0.3909574E+04 -0.1562999E+01
  0.7619048E+00  0.1296835E+06 -0.1561040E+01  0.4059770E+06 -0.7593049E-01  0.4290940E+04 -0.1561047E+01
  0.7928572E+00  0.1393580E+06 -0.1558732E+01  0.3954561E+06 -0.8691348E-01  0.4701722E+04 -0.1558739E+01
  0.8238096E+00  0.1492024E+06 -0.1556032E+01  0.3849047E+06 -0.9882051E-01  0.5136601E+04 -0.1556037E+01
  0.8547620E+00  0.1590805E+06 -0.1552907E+01  0.3743422E+06 -0.1116569E+00  0.5562871E+04 -0.1552901E+01
  0.8857143E+00  0.1690336E+06 -0.1549327E+01  0.3638130E+06 -0.1254444E+00  0.6008013E+04 -0.1549323E+01
  0.9166667E+00  0.1791284E+06 -0.1545280E+01  0.3533600E+06 -0.1402115E+00  0.6496601E+04 -0.1545298E+01
  0.9476191E+00  0.1893557E+06 -0.1540749E+01  0.3430086E+06 -0.1559549E+00  0.7018341E+04 -0.1540780E+01
  0.9785714E+00  0.1995843E+06 -0.1535714E+01  0.3327773E+06 -0.1726684E+00  0.7549434E+04 -0.1535751E+01
  0.1009524E+01  0.2097007E+06 -0.1530163E+01  0.3226882E+06 -0.1903650E+00  0.8090688E+04 -0.1530204E+01
  0.1040476E+01  0.2196054E+06 -0.1524096E+01  0.3127572E+06 -0.2090477E+00  0.8644985E+04 -0.1524117E+01
  0.1071429E+01  0.2291871E+06 -0.1517529E+01  0.3029767E+06 -0.2287126E+00  0.9201678E+04 -0.1517494E+01
  0.1102381E+01  0.2384534E+06 -0.1510510E+01  0.2933282E+06 -0.2493566E+00  0.9773956E+04 -0.1510451E+01
  0.1133333E+01  0.2474260E+06 -0.1503149E+01  0.2838690E+06 -0.2710088E+00  0.1034950E+05 -0.1503099E+01
  0.1164286E+01  0.2559738E+06 -0.1495508E+01  0.2746020E+06 -0.2936706E+00  0.1092211E+05 -0.1495542E+01
  0.1195238E+01  0.2640259E+06 -0.1487673E+01  0.2655575E+06 -0.3173307E+00  0.1150467E+05 -0.1487685E+01
  0.1226190E+01  0.2714439E+06 -0.1479732E+01  0.2567176E+06 -0.3419831E+00  0.1208891E+05 -0.1479694E+01
  0.1257143E+01  0.2781631E+06 -0.1471738E+01  0.2480806E+06 -0.3677959E+00  0.1266648E+05 -0.1471651E+01
  0.1288095E+01  0.2842185E+06 -0.1464108E+01  0.2396367E+06 -0.3942492E+00  0.1323171E+05 -0.1464045E+01
  0.1319048E+01  0.2894407E+06 -0.1456799E+01  0.2314278E+06 -0.4218761E+00  0.1376014E+05 -0.1456783E+01
  0.1350000E+01  0.2938241E+06 -0.1450050E+01  0.2234390E+06 -0.4504896E+00  0.1425703E+05 -0.1450104E+01
  0.1380952E+01  0.2973473E+06 -0.1444023E+01  0.2156660E+06 -0.4800414E+00  0.1473986E+05 -0.1443995E+01
  0.1411905E+01  0.2994565E+06 -0.1439471E+01  0.2082236E+06 -0.5100796E+00  0.1513275E+05 -0.1439370E+01
  0.1442857E+01  0.3012193E+06 -0.1435475E+01  0.2008774E+06 -0.5416141E+00  0.1557424E+05 -0.1435361E+01
  0.1473810E+01  0.3021218E+06 -0.1432770E+01  0.1937343E+06 -0.5741149E+00  0.1597847E+05 -0.1432668E+01
  0.1504762E+01  0.3021888E+06 -0.1431503E+01  0.1868017E+06 -0.6075798E+00  0.1633550E+05 -0.1431466E+01
  0.1535714E+01  0.3014235E+06 -0.1431805E+01  0.1800854E+06 -0.6420487E+00  0.1664332E+05 -0.1431751E+01
  0.1566667E+01  0.2999059E+06 -0.1433836E+01  0.1735718E+06 -0.6775177E+00  0.1692158E+05 -0.1433818E+01
  0.1597619E+01  0.2976973E+06 -0.1437720E+01  0.1672901E+06 -0.7139596E+00  0.1717392E+05 -0.1437706E+01
  0.1628572E+01  0.2948521E+06 -0.1443537E+01  0.1611943E+06 -0.7514112E+00  0.1739610E+05 -0.1443571E+01
  0.1659524E+01  0.2914332E+06 -0.1451375E+01  0.1552925E+06 -0.7898918E+00  0.1758467E+05 -0.1451311E+01
  0.1690476E+01  0.2875348E+06 -0.1461293E+01  0.1495571E+06 -0.8293446E+00  0.1774108E+05 -0.1461104E+01
  0.1721429E+01  0.2832205E+06 -0.1473320E+01  0.1439947E+06 -0.8697450E+00  0.1785780E+05 -0.1473038E+01
  0.1752381E+01  0.2785346E+06 -0.1487474E+01  0.1386170E+06 -0.9111418E+00  0.1794253E+05 -0.1487316E+01
  0.1783333E+01  0.2735429E+06 -0.1503777E+01  0.1334235E+06 -0.9536311E+00  0.1799303E+05 -0.1503923E+01
  0.1814286E+01  0.2683105E+06 -0.1522224E+01  0.1283970E+06 -0.9971608E+00  0.1802580E+05 -0.1522608E+01
  0.1845238E+01  0.2628952E+06 -0.1542801E+01  0.1235746E+06 -0.1041634E+01  0.1804820E+05 -0.1543173E+01
  0.1876190E+01  0.2573346E+06 -0.1565473E+01  0.1188950E+06 -0.1087196E+01  0.1805438E+05 -0.1565835E+01
  0.1907143E+01  0.2516737E+06 -0.1590227E+01  0.1143632E+06 -0.1133870E+01  0.1804962E+05 -0.1590422E+01
  0.1938095E+01  0.2459542E+06 -0.1617001E+01  0.1099516E+06 -0.1181664E+01  0.1802712E+05 -0.1616999E+01
  0.1969048E+01  0.2402052E+06 -0.1645748E+01  0.1056698E+06 -0.1230565E+01  0.1798697E+05 -0.1645643E+01
  0.2000000E+01  0.2344536E+06 -0.1676432E+01  0.1015150E+06 -0.1280577E+01  0.1793147E+05 -0.1676406E+01
