VARIABLES="w (rad/s)"
"abs(F   1   1)" "angle(F   1   1)"
"abs(F   1   2)" "angle(F   1   2)"
"abs(F   1   3)" "angle(F   1   3)"
Zone t="Diffraction force - beta =   0.000 deg",I=    64,F=POINT
  0.5000000E-01  0.4648028E+04 -0.1570790E+01  0.5539548E+03 -0.3090552E+01  0.1293842E+05  0.1570802E+01
  0.8095238E-01  0.7594648E+04 -0.1570780E+01  0.1432992E+04 -0.3088835E+01  0.2112255E+05  0.1570812E+01
  0.1119048E+00  0.1063079E+05 -0.1570764E+01  0.2713209E+04 -0.3086758E+01  0.2955463E+05  0.1570827E+01
  0.1428571E+00  0.1372753E+05 -0.1570739E+01  0.4394657E+04 -0.3084216E+01  0.3817471E+05  0.1570850E+01
  0.1738095E+00  0.1699245E+05 -0.1570703E+01  0.6481901E+04 -0.3081152E+01  0.4721186E+05  0.1570884E+01
  0.2047619E+00  0.2042083E+05 -0.1570650E+01  0.8948064E+04 -0.3077101E+01  0.5675441E+05  0.1570933E+01
  0.2357143E+00  0.2408764E+05 -0.1570575E+01  0.1182026E+05 -0.3072160E+01  0.6684852E+05  0.1571004E+01
  0.2666667E+00  0.2803704E+05 -0.1570464E+01  0.1508066E+05 -0.3066260E+01  0.7777081E+05  0.1571108E+01
  0.2976190E+00  0.3228479E+05 -0.1570301E+01  0.1871239E+05 -0.3058758E+01  0.8954365E+05  0.1571261E+01
  0.3285715E+00  0.3700742E+05 -0.1570060E+01  0.2271498E+05 -0.3049993E+01  0.1025616E+06  0.1571486E+01
  0.3595238E+00  0.4220148E+05 -0.1569701E+01  0.2703884E+05 -0.3039323E+01  0.1167436E+06  0.1571823E+01
  0.3904762E+00  0.4793941E+05 -0.1569169E+01  0.3165437E+05 -0.3026811E+01  0.1326386E+06  0.1572321E+01
  0.4214286E+00  0.5427238E+05 -0.1568396E+01  0.3652727E+05 -0.3013282E+01  0.1500207E+06  0.1573046E+01
  0.4523810E+00  0.6149956E+05 -0.1567277E+01  0.4147997E+05 -0.2996952E+01  0.1697445E+06  0.1574097E+01
  0.4833333E+00  0.6922123E+05 -0.1565734E+01  0.4667145E+05 -0.2981887E+01  0.1907421E+06  0.1575545E+01
  0.5142857E+00  0.7775128E+05 -0.1563616E+01  0.5162234E+05 -0.2964360E+01  0.2140535E+06  0.1577534E+01
  0.5452381E+00  0.8687378E+05 -0.1560821E+01  0.5669733E+05 -0.2947901E+01  0.2388383E+06  0.1580159E+01
  0.5761905E+00  0.9672598E+05 -0.1557239E+01  0.6169108E+05 -0.2932312E+01  0.2651920E+06  0.1583533E+01
  0.6071429E+00  0.1074007E+06 -0.1552687E+01  0.6638169E+05 -0.2915386E+01  0.2939402E+06  0.1587820E+01
  0.6380953E+00  0.1182615E+06 -0.1547045E+01  0.7116418E+05 -0.2901268E+01  0.3231043E+06  0.1593131E+01
  0.6690477E+00  0.1297044E+06 -0.1540148E+01  0.7561745E+05 -0.2887019E+01  0.3536803E+06  0.1599627E+01
  0.7000000E+00  0.1421755E+06 -0.1531879E+01  0.7972098E+05 -0.2872110E+01  0.3868118E+06  0.1607426E+01
  0.7309524E+00  0.1548562E+06 -0.1522014E+01  0.8379121E+05 -0.2859222E+01  0.4198934E+06  0.1616759E+01
  0.7619048E+00  0.1679232E+06 -0.1510363E+01  0.8763316E+05 -0.2847113E+01  0.4538911E+06  0.1627788E+01
  0.7928572E+00  0.1817023E+06 -0.1496830E+01  0.9082757E+05 -0.2833946E+01  0.4897157E+06  0.1640602E+01
  0.8238096E+00  0.1954719E+06 -0.1481113E+01  0.9387243E+05 -0.2821821E+01  0.5259979E+06  0.1655432E+01
  0.8547620E+00  0.2094133E+06 -0.1463223E+01  0.9681430E+05 -0.2811296E+01  0.5615096E+06  0.1672380E+01
  0.8857143E+00  0.2238062E+06 -0.1443094E+01  0.9919244E+05 -0.2800544E+01  0.5974732E+06  0.1691511E+01
  0.9166667E+00  0.2387282E+06 -0.1420674E+01  0.1010776E+06 -0.2789719E+01  0.6347523E+06  0.1712830E+01
  0.9476191E+00  0.2531065E+06 -0.1395572E+01  0.1026995E+06 -0.2779568E+01  0.6705468E+06  0.1736671E+01
  0.9785714E+00  0.2668094E+06 -0.1367730E+01  0.1041257E+06 -0.2770658E+01  0.7037182E+06  0.1763179E+01
  0.1009524E+01  0.2799295E+06 -0.1337220E+01  0.1052500E+06 -0.2762599E+01  0.7355775E+06  0.1792158E+01
  0.1040476E+01  0.2923852E+06 -0.1304249E+01  0.1055278E+06 -0.2753390E+01  0.7650101E+06  0.1823488E+01
  0.1071429E+01  0.3044176E+06 -0.1269357E+01  0.1056027E+06 -0.2744734E+01  0.7937027E+06  0.1856506E+01
  0.1102381E+01  0.3146427E+06 -0.1232155E+01  0.1054328E+06 -0.2736985E+01  0.8163336E+06  0.1891802E+01
  0.1133333E+01  0.3232378E+06 -0.1192874E+01  0.1050787E+06 -0.2730164E+01  0.8341841E+06  0.1929121E+01
  0.1164286E+01  0.3300697E+06 -0.1151755E+01  0.1044506E+06 -0.2724214E+01  0.8475806E+06  0.1968062E+01
  0.1195238E+01  0.3350055E+06 -0.1109298E+01  0.1030038E+06 -0.2717360E+01  0.8551321E+06  0.2008261E+01
  0.1226190E+01  0.3385378E+06 -0.1066312E+01  0.1014184E+06 -0.2711054E+01  0.8603581E+06  0.2048641E+01
  0.1257143E+01  0.3390611E+06 -0.1022224E+01  0.9960340E+05 -0.2704951E+01  0.8571675E+06  0.2089948E+01
  0.1288095E+01  0.3373203E+06 -0.9784776E+00  0.9766230E+05 -0.2700120E+01  0.8473195E+06  0.2130983E+01
  0.1319048E+01  0.3332144E+06 -0.9343573E+00  0.9560872E+05 -0.2695714E+01  0.8320770E+06  0.2172112E+01
  0.1350000E+01  0.3269040E+06 -0.8906843E+00  0.9321562E+05 -0.2691790E+01  0.8112229E+06  0.2212535E+01
  0.1380952E+01  0.3187821E+06 -0.8485103E+00  0.9033166E+05 -0.2688069E+01  0.7852808E+06  0.2251276E+01
  0.1411905E+01  0.3086533E+06 -0.8060120E+00  0.8736753E+05 -0.2684190E+01  0.7570612E+06  0.2289279E+01
  0.1442857E+01  0.2968505E+06 -0.7658315E+00  0.8430339E+05 -0.2681026E+01  0.7237931E+06  0.2325265E+01
  0.1473810E+01  0.2832413E+06 -0.7269723E+00  0.8120405E+05 -0.2678507E+01  0.6859082E+06  0.2359596E+01
  0.1504762E+01  0.2683416E+06 -0.6898691E+00  0.7807647E+05 -0.2676629E+01  0.6451952E+06  0.2391807E+01
  0.1535714E+01  0.2523880E+06 -0.6542178E+00  0.7494619E+05 -0.2675399E+01  0.6028166E+06  0.2421978E+01
  0.1566667E+01  0.2356178E+06 -0.6205182E+00  0.7151408E+05 -0.2674707E+01  0.5586084E+06  0.2449490E+01
  0.1597619E+01  0.2182981E+06 -0.5888513E+00  0.6798589E+05 -0.2674612E+01  0.5136647E+06  0.2474178E+01
  0.1628572E+01  0.2008767E+06 -0.5590591E+00  0.6448635E+05 -0.2675123E+01  0.4703190E+06  0.2496094E+01
  0.1659524E+01  0.1827920E+06 -0.5304117E+00  0.6100562E+05 -0.2676040E+01  0.4257034E+06  0.2515670E+01
  0.1690476E+01  0.1643445E+06 -0.5030715E+00  0.5759320E+05 -0.2677517E+01  0.3805860E+06  0.2532312E+01
  0.1721429E+01  0.1457177E+06 -0.4770777E+00  0.5427968E+05 -0.2679675E+01  0.3354338E+06  0.2545453E+01
  0.1752381E+01  0.1272981E+06 -0.4520287E+00  0.5102282E+05 -0.2682858E+01  0.2919658E+06  0.2554919E+01
  0.1783333E+01  0.1090650E+06 -0.4275053E+00  0.4781695E+05 -0.2686958E+01  0.2498290E+06  0.2559716E+01
  0.1814286E+01  0.9109778E+05 -0.4041017E+00  0.4456776E+05 -0.2692007E+01  0.2087522E+06  0.2556398E+01
  0.1845238E+01  0.7352251E+05 -0.3807986E+00  0.4139945E+05 -0.2698307E+01  0.1694970E+06  0.2542826E+01
  0.1876190E+01  0.5650083E+05 -0.3555754E+00  0.3834696E+05 -0.2706020E+01  0.1329112E+06  0.2515149E+01
  0.1907143E+01  0.3988189E+05 -0.3248967E+00  0.3543041E+05 -0.2714464E+01  0.9814144E+05  0.2458904E+01
  0.1938095E+01  0.2371459E+05 -0.2770585E+00  0.3266409E+05 -0.2724327E+01  0.6569906E+05  0.2334440E+01
  0.1969048E+01  0.8210599E+04 -0.1127394E+00  0.3001782E+05 -0.2736101E+01  0.3810473E+05  0.2005201E+01
  0.2000000E+01  0.7213379E+04  0.2552067E+01  0.2750412E+05 -0.2750096E+01  0.2582969E+05  0.1110181E+01
