VARIABLES="w (rad/s)"
"A   1   1" "B   1   1"
"A   1   2" "B   1   2"
"A   1   3" "B   1   3"
Zone t="Motion of body    1 in DoF   1",I=    64,F=POINT
  0.5000000E-01  0.1724502E+06  0.1651707E-01  0.7514954E-02  0.2692837E-04 -0.2953661E+06 -0.2245583E-01
  0.8095238E-01  0.1733844E+06  0.7285348E-01  0.5466237E-02  0.1493201E-04 -0.2967702E+06 -0.9870359E-01
  0.1119048E+00  0.1737728E+06  0.2043987E+00 -0.8249486E-02  0.2670626E-04 -0.2969298E+06 -0.2757050E+00
  0.1428571E+00  0.1739384E+06  0.4599191E+00 -0.1543426E-01 -0.1644013E-03 -0.2971439E+06 -0.6195830E+00
  0.1738095E+00  0.1742520E+06  0.9149053E+00 -0.2177199E-01 -0.1736926E-03 -0.2973097E+06 -0.1230316E+01
  0.2047619E+00  0.1744201E+06  0.1684717E+01  0.1020919E-01  0.2021319E-03 -0.2975744E+06 -0.2261489E+01
  0.2357143E+00  0.1747153E+06  0.2962485E+01  0.3398548E-02 -0.2220115E-03 -0.2977068E+06 -0.3967005E+01
  0.2666667E+00  0.1750893E+06  0.5045784E+01  0.1945495E-02 -0.1105014E-03 -0.2979497E+06 -0.6732623E+01
  0.2976190E+00  0.1753500E+06  0.8444132E+01  0.1835449E-01  0.9576976E-04 -0.2983319E+06 -0.1123814E+02
  0.3285715E+00  0.1758360E+06  0.1394379E+02  0.1783288E-01  0.4772395E-03 -0.2986118E+06 -0.1847922E+02
  0.3595238E+00  0.1763734E+06  0.2284796E+02  0.1230808E-02 -0.3572851E-03 -0.2989823E+06 -0.3014653E+02
  0.3904762E+00  0.1768378E+06  0.3714413E+02  0.1590450E-01  0.8072108E-03 -0.2994961E+06 -0.4880954E+02
  0.4214286E+00  0.1774700E+06  0.5959928E+02 -0.1636570E-01 -0.7285178E-03 -0.2999613E+06 -0.7790836E+02
  0.4523810E+00  0.1782890E+06  0.9484235E+02 -0.1349198E-03  0.2436638E-03 -0.3004369E+06 -0.1232670E+03
  0.4833333E+00  0.1789792E+06  0.1470716E+03 -0.1704775E-02  0.9882450E-03 -0.3012091E+06 -0.1901438E+03
  0.5142857E+00  0.1797380E+06  0.2243450E+03 -0.1720852E-02  0.1610518E-03 -0.3019407E+06 -0.2884202E+03
  0.5452381E+00  0.1807322E+06  0.3341733E+03  0.2266830E-01  0.2723694E-02 -0.3026901E+06 -0.4267310E+03
  0.5761905E+00  0.1818322E+06  0.4860882E+03  0.7626872E-02  0.2812386E-02 -0.3035482E+06 -0.6162940E+03
  0.6071429E+00  0.1829772E+06  0.6940551E+03 -0.1105813E-01 -0.1567841E-02 -0.3045616E+06 -0.8738051E+03
  0.6380953E+00  0.1840499E+06  0.9685751E+03  0.1052173E-02  0.5879402E-03 -0.3056630E+06 -0.1210929E+04
  0.6690477E+00  0.1853390E+06  0.1328755E+04 -0.2832596E-01 -0.4259586E-02 -0.3068088E+06 -0.1648235E+04
  0.7000000E+00  0.1868322E+06  0.1795979E+04 -0.2755301E-01 -0.1004696E-01 -0.3078719E+06 -0.2208005E+04
  0.7309524E+00  0.1883691E+06  0.2389572E+04 -0.1987320E-01 -0.2305031E-02 -0.3091206E+06 -0.2911758E+04
  0.7619048E+00  0.1899911E+06  0.3137219E+04 -0.2603531E-02 -0.2126694E-02 -0.3106084E+06 -0.3789250E+04
  0.7928572E+00  0.1915377E+06  0.4066416E+04  0.1593512E-01  0.8577347E-02 -0.3119482E+06 -0.4866390E+04
  0.8238096E+00  0.1932615E+06  0.5210617E+04 -0.1526232E-01 -0.4379272E-02 -0.3133556E+06 -0.6174492E+04
  0.8547620E+00  0.1949656E+06  0.6601508E+04  0.1856557E-01  0.1617432E-02 -0.3145725E+06 -0.7740327E+04
  0.8857143E+00  0.1968701E+06  0.8281567E+04 -0.1695202E-01 -0.2319336E-02 -0.3159131E+06 -0.9602804E+04
  0.9166667E+00  0.1987283E+06  0.1028630E+05 -0.2110707E-01 -0.2288818E-02 -0.3171119E+06 -0.1178954E+05
  0.9476191E+00  0.2005924E+06  0.1265671E+05  0.1288179E-01  0.7499695E-02 -0.3183759E+06 -0.1433788E+05
  0.9785714E+00  0.2022494E+06  0.1542684E+05  0.1833728E-01  0.4920959E-02 -0.3194738E+06 -0.1727115E+05
  0.1009524E+01  0.2038943E+06  0.1863855E+05 -0.1614265E-01 -0.9475708E-02 -0.3204744E+06 -0.2061176E+05
  0.1040476E+01  0.2053632E+06  0.2231810E+05  0.4634202E-02  0.1182556E-01 -0.3211055E+06 -0.2436086E+05
  0.1071429E+01  0.2067394E+06  0.2649664E+05 -0.3816732E-02  0.2761841E-02 -0.3214344E+06 -0.2852276E+05
  0.1102381E+01  0.2079702E+06  0.3120143E+05  0.9301599E-02  0.4119873E-02 -0.3216120E+06 -0.3311483E+05
  0.1133333E+01  0.2088094E+06  0.3642779E+05  0.8132037E-02 -0.3692627E-02 -0.3212515E+06 -0.3808961E+05
  0.1164286E+01  0.2094422E+06  0.4219409E+05  0.2495327E-01  0.1348877E-01 -0.3207824E+06 -0.4346317E+05
  0.1195238E+01  0.2096199E+06  0.4846215E+05  0.1087690E-01  0.1599121E-01 -0.3198262E+06 -0.4915241E+05
  0.1226190E+01  0.2093878E+06  0.5520174E+05 -0.2239931E-02 -0.5645752E-02 -0.3184925E+06 -0.5510520E+05
  0.1257143E+01  0.2086387E+06  0.6236581E+05 -0.1034130E-01 -0.5493164E-03 -0.3166529E+06 -0.6123989E+05
  0.1288095E+01  0.2075334E+06  0.6983700E+05  0.1189339E-01 -0.5859375E-02 -0.3144420E+06 -0.6741417E+05
  0.1319048E+01  0.2058187E+06  0.7756580E+05 -0.5182480E-02  0.1583862E-01 -0.3116378E+06 -0.7355809E+05
  0.1350000E+01  0.2037502E+06  0.8546361E+05 -0.1356337E-02 -0.2746582E-03 -0.3085575E+06 -0.7958509E+05
  0.1380952E+01  0.2011658E+06  0.9340740E+05 -0.1069588E-01 -0.3784180E-02 -0.3049582E+06 -0.8533477E+05
  0.1411905E+01  0.1975482E+06  0.1006360E+06  0.1201765E-01  0.1281738E-02 -0.3010192E+06 -0.9029834E+05
  0.1442857E+01  0.1942221E+06  0.1083283E+06 -0.7106668E-02 -0.1562500E-01 -0.2968936E+06 -0.9522366E+05
  0.1473810E+01  0.1905687E+06  0.1158083E+06  0.7371548E-02  0.6591797E-02 -0.2928033E+06 -0.9975584E+05
  0.1504762E+01  0.1864638E+06  0.1228664E+06  0.2190312E-01  0.5737305E-02 -0.2882640E+06 -0.1035429E+06
  0.1535714E+01  0.1822161E+06  0.1295345E+06  0.2941043E-02 -0.7751465E-02 -0.2838859E+06 -0.1068117E+06
  0.1566667E+01  0.1778359E+06  0.1356878E+06  0.4830868E-02  0.1202393E-01 -0.2794971E+06 -0.1093696E+06
  0.1597619E+01  0.1732311E+06  0.1412483E+06  0.1184319E-02 -0.2197266E-02 -0.2750213E+06 -0.1111707E+06
  0.1628572E+01  0.1686480E+06  0.1462450E+06 -0.2173708E-02 -0.1171875E-01 -0.2707965E+06 -0.1123594E+06
  0.1659524E+01  0.1640770E+06  0.1505924E+06 -0.9746360E-02 -0.2056885E-01 -0.2666605E+06 -0.1127816E+06
  0.1690476E+01  0.1595623E+06  0.1543923E+06  0.5957375E-02  0.1062012E-01 -0.2628925E+06 -0.1127395E+06
  0.1721429E+01  0.1550898E+06  0.1575496E+06 -0.1382788E-02  0.2539062E-01 -0.2592598E+06 -0.1120306E+06
  0.1752381E+01  0.1507084E+06  0.1601023E+06  0.7244608E-02 -0.2563477E-02 -0.2558181E+06 -0.1107360E+06
  0.1783333E+01  0.1465735E+06  0.1621778E+06  0.2395772E-03  0.3784180E-02 -0.2528367E+06 -0.1091361E+06
  0.1814286E+01  0.1426065E+06  0.1636788E+06 -0.9688730E-02  0.4882812E-02 -0.2500357E+06 -0.1069724E+06
  0.1845238E+01  0.1387593E+06  0.1646546E+06 -0.2910786E-02 -0.1708984E-02 -0.2474296E+06 -0.1043809E+06
  0.1876190E+01  0.1351782E+06  0.1652202E+06  0.2049480E-02 -0.8789062E-02 -0.2452015E+06 -0.1015874E+06
  0.1907143E+01  0.1318012E+06  0.1653048E+06 -0.6720725E-02 -0.2331543E-01 -0.2431447E+06 -0.9832219E+05
  0.1938095E+01  0.1286653E+06  0.1650928E+06 -0.3936543E-02  0.5981445E-02 -0.2414446E+06 -0.9498188E+05
  0.1969048E+01  0.1257410E+06  0.1646441E+06  0.3099730E-04 -0.1586914E-01 -0.2401014E+06 -0.9177295E+05
  0.2000000E+01  0.1229016E+06  0.1636811E+06 -0.2410889E-02  0.1098633E-01 -0.2386635E+06 -0.8781632E+05
Zone t="Motion of body    1 in DoF   2",I=    64,F=POINT
  0.5000000E-01  0.1220703E-02 -0.1072884E-04  0.8949728E+05  0.2600847E+03  0.4829407E-01  0.1266003E-03
  0.8095238E-01 -0.3355138E-01 -0.8678436E-04  0.8830180E+05  0.4311708E+03  0.1225191E-02 -0.1206398E-03
  0.1119048E+00  0.8181308E-03  0.3290176E-04  0.8765771E+05  0.6172880E+03  0.3442967E-01  0.6198883E-04
  0.1428571E+00 -0.2162933E-01  0.7343292E-04  0.8735161E+05  0.8254446E+03  0.1495361E-02 -0.2288818E-04
  0.1738095E+00 -0.9217980E-02 -0.9059906E-04  0.8723517E+05  0.1064382E+04 -0.3467717E-01  0.2298355E-03
  0.2047619E+00  0.1177411E-01 -0.2822876E-03  0.8736233E+05  0.1345184E+04 -0.3077662E-01 -0.5016327E-03
  0.2357143E+00 -0.1081062E-01  0.2422333E-03  0.8754861E+05  0.1683264E+04  0.9580669E-02 -0.2784729E-03
  0.2666667E+00 -0.1121521E-01 -0.2422333E-03  0.8791200E+05  0.2091365E+04  0.1773834E-01 -0.9727478E-04
  0.2976190E+00  0.2758301E-01 -0.4920959E-03  0.8834012E+05  0.2598809E+04 -0.2573730E-01  0.1258850E-02
  0.3285715E+00  0.1616105E-01  0.1983643E-03  0.8880766E+05  0.3220426E+04  0.5201256E-02  0.2326965E-03
  0.3595238E+00  0.2546500E-03  0.2288818E-03  0.8923507E+05  0.3990879E+04  0.2037200E-02 -0.2288818E-03
  0.3904762E+00  0.7033929E-03 -0.1831055E-03  0.8971872E+05  0.4935309E+04 -0.1563095E-03  0.1182556E-02
  0.4214286E+00 -0.1890021E-01  0.3814697E-03  0.8988299E+05  0.6043703E+04 -0.1614845E-01  0.2922058E-02
  0.4523810E+00 -0.9376926E-02  0.1136780E-02  0.8993280E+05  0.7372255E+04 -0.7960268E-02  0.1594543E-02
  0.4833333E+00  0.2083614E-01 -0.7858276E-03  0.8968375E+05  0.8808911E+04  0.5177465E-02  0.2731323E-02
  0.5142857E+00  0.8782282E-02 -0.8239746E-03  0.8920955E+05  0.1042240E+05 -0.2373589E-02  0.1220703E-03
  0.5452381E+00 -0.9738972E-02  0.9002686E-03  0.8849350E+05  0.1212309E+05 -0.1175393E-01  0.1388550E-02
  0.5761905E+00 -0.4872723E-02 -0.1464844E-02  0.8753884E+05  0.1387912E+05  0.4512566E-01 -0.7537842E-02
  0.6071429E+00 -0.1005285E-02  0.2593994E-03  0.8640973E+05  0.1572962E+05 -0.3257123E-01 -0.2990723E-02
  0.6380953E+00  0.1367825E-01  0.2807617E-02  0.8523891E+05  0.1756845E+05  0.3290432E-01  0.3875732E-02
  0.6690477E+00 -0.2599967E-01 -0.2288818E-03  0.8390743E+05  0.1943592E+05  0.7389381E-02  0.8483887E-02
  0.7000000E+00 -0.8806501E-02 -0.3356934E-02  0.8242709E+05  0.2133738E+05  0.3723144E-01  0.8972168E-02
  0.7309524E+00  0.1160662E-01  0.3509521E-02  0.8090321E+05  0.2321401E+05  0.4726148E-01 -0.5798340E-03
  0.7619048E+00 -0.9052276E-02 -0.3387451E-02  0.7932538E+05  0.2507255E+05 -0.1522064E-01 -0.3295898E-02
  0.7928572E+00  0.1046945E-01 -0.1831055E-03  0.7769148E+05  0.2690944E+05  0.1377965E-01  0.2899170E-02
  0.8238096E+00  0.5038046E-02 -0.7537842E-02  0.7602573E+05  0.2870675E+05 -0.1355827E-01  0.2777100E-02
  0.8547620E+00  0.1499527E-02  0.6103516E-04  0.7431392E+05  0.3045413E+05  0.2534914E-01 -0.1269531E-01
  0.8857143E+00 -0.8958386E-03 -0.3479004E-02  0.7257888E+05  0.3213666E+05  0.4327589E-01  0.7629395E-02
  0.9166667E+00 -0.2330433E-02  0.3204346E-02  0.7084298E+05  0.3374441E+05  0.6658381E-03 -0.9765625E-03
  0.9476191E+00  0.1565138E-01 -0.1159668E-02  0.6910666E+05  0.3526915E+05 -0.1036984E-01 -0.6164551E-02
  0.9785714E+00 -0.5176851E-02 -0.8422852E-02  0.6738689E+05  0.3670761E+05 -0.7484603E-03 -0.6103516E-03
  0.1009524E+01 -0.1257555E-01 -0.1831055E-03  0.6570309E+05  0.3804809E+05 -0.1070131E-01 -0.3906250E-02
  0.1040476E+01  0.1396127E-01  0.5615234E-02  0.6404302E+05  0.3929439E+05 -0.3472719E-01  0.8483887E-02
  0.1071429E+01 -0.1002604E-01  0.2441406E-02  0.6242192E+05  0.4043867E+05  0.1822917E-02 -0.5676270E-02
  0.1102381E+01 -0.6976199E-02  0.2441406E-03  0.6083968E+05  0.4147779E+05  0.1793880E-01 -0.1013184E-01
  0.1133333E+01  0.9963091E-02  0.6164551E-02  0.5928533E+05  0.4241702E+05  0.2692727E-03 -0.1696777E-01
  0.1164286E+01 -0.1609381E-01  0.1037598E-02  0.5780654E+05  0.4323911E+05  0.3250215E-02 -0.1580811E-01
  0.1195238E+01  0.5157592E-02  0.1831055E-03  0.5638718E+05  0.4395466E+05 -0.7812986E-02  0.5432129E-02
  0.1226190E+01 -0.2239931E-02 -0.8056641E-02  0.5505641E+05  0.4456368E+05  0.5873597E-02 -0.1318359E-01
  0.1257143E+01  0.5437677E-02  0.5310059E-02  0.5377978E+05  0.4509293E+05 -0.3641302E-02  0.2001953E-01
  0.1288095E+01 -0.3127347E-02  0.1892090E-02  0.5258716E+05  0.4548148E+05  0.1672657E-01 -0.6469727E-02
  0.1319048E+01 -0.3239050E-03  0.6713867E-02  0.5144221E+05  0.4581434E+05 -0.2156282E-01 -0.9277344E-02
  0.1350000E+01  0.3209997E-02  0.8850098E-02  0.5037162E+05  0.4604928E+05  0.4882812E-02 -0.5126953E-02
  0.1380952E+01  0.1759075E-01  0.1763916E-01  0.4936641E+05  0.4620356E+05 -0.9767730E-02 -0.6103516E-03
  0.1411905E+01 -0.7997354E-02 -0.4455566E-02  0.4849167E+05  0.4635109E+05  0.1482753E-01  0.9765625E-03
  0.1442857E+01 -0.4737779E-02 -0.3051758E-03  0.4764167E+05  0.4635716E+05  0.3468731E-02  0.8544922E-02
  0.1473810E+01  0.5673607E-02 -0.2929688E-02  0.4687670E+05  0.4630707E+05 -0.4505755E-01 -0.2563477E-02
  0.1504762E+01  0.6489814E-03  0.1263428E-01  0.4615714E+05  0.4621504E+05  0.1995618E-01  0.5737305E-02
  0.1535714E+01  0.8505178E-02  0.5126953E-02  0.4552284E+05  0.4607239E+05 -0.2177961E-01 -0.7080078E-02
  0.1566667E+01  0.3428358E-02  0.7324219E-03  0.4495314E+05  0.4588472E+05 -0.7986515E-02  0.6347656E-02
  0.1597619E+01  0.6723873E-02 -0.6530762E-02  0.4443880E+05  0.4569650E+05  0.1852885E-01 -0.9765625E-03
  0.1628572E+01 -0.1109341E-01 -0.9155273E-02  0.4399962E+05  0.4548297E+05  0.2346106E-01  0.9033203E-02
  0.1659524E+01 -0.7649973E-02 -0.3784180E-02  0.4361528E+05  0.4525691E+05  0.2409006E-01  0.4028320E-02
  0.1690476E+01 -0.2599582E-02  0.1708984E-02  0.4328779E+05  0.4505169E+05 -0.4079899E-02  0.5004883E-02
  0.1721429E+01  0.4680207E-02  0.4638672E-02  0.4299505E+05  0.4487908E+05 -0.7906713E-02 -0.1538086E-01
  0.1752381E+01  0.4876179E-02 -0.7019043E-02  0.4273365E+05  0.4475297E+05 -0.2208212E-01 -0.9765625E-02
  0.1783333E+01  0.8864358E-02  0.5004883E-02  0.4252307E+05  0.4466186E+05 -0.2156195E-02 -0.1708984E-02
  0.1814286E+01  0.2052127E-02  0.1025391E-01  0.4233812E+05  0.4461982E+05 -0.7434755E-02 -0.3662109E-02
  0.1845238E+01  0.1634010E-01  0.4089355E-02  0.4215603E+05  0.4465288E+05  0.8037739E-02 -0.6103516E-03
  0.1876190E+01 -0.3497129E-02  0.5065918E-02  0.4198535E+05  0.4475422E+05  0.2410579E-01 -0.7202148E-02
  0.1907143E+01  0.8528921E-02  0.1098633E-01  0.4181064E+05  0.4491284E+05  0.6208670E-02 -0.5126953E-02
  0.1938095E+01 -0.6613392E-02 -0.6103516E-03  0.4162367E+05  0.4513907E+05 -0.1713183E-01 -0.1220703E-01
  0.1969048E+01 -0.6509433E-03 -0.4455566E-02  0.4140801E+05  0.4543731E+05 -0.1397978E-01 -0.1489258E-01
  0.2000000E+01  0.4287720E-02  0.4394531E-02  0.4112516E+05  0.4574829E+05 -0.4913330E-02 -0.3051758E-02
Zone t="Motion of body    1 in DoF   3",I=    64,F=POINT
  0.5000000E-01 -0.2928750E+06 -0.2173368E-01  0.2773285E-01  0.9492767E-05  0.9129491E+06  0.3017074E-01
  0.8095238E-01 -0.2946009E+06 -0.9495688E-01  0.6498224E-01  0.2985368E-03  0.9144437E+06  0.1290854E+00
  0.1119048E+00 -0.2948433E+06 -0.2660600E+00 -0.2822551E-01 -0.1230261E-03  0.9146549E+06  0.3592286E+00
  0.1428571E+00 -0.2950426E+06 -0.5975284E+00  0.1594162E-01  0.3300572E-03  0.9148698E+06  0.8042955E+00
  0.1738095E+00 -0.2952365E+06 -0.1187522E+01  0.2229873E-01  0.2691653E-03  0.9149974E+06  0.1596691E+01
  0.2047619E+00 -0.2954756E+06 -0.2182744E+01  0.3239743E-01  0.6659180E-03  0.9152274E+06  0.2932084E+01
  0.2357143E+00 -0.2955957E+06 -0.3827697E+01  0.5853595E-01  0.1177199E-02  0.9153563E+06  0.5126356E+01
  0.2666667E+00 -0.2958323E+06 -0.6498614E+01 -0.1148701E-01 -0.2315585E-03  0.9155954E+06  0.8673238E+01
  0.2976190E+00 -0.2961670E+06 -0.1084058E+02 -0.1973877E-01 -0.1296811E-02  0.9159042E+06  0.1442545E+02
  0.3285715E+00 -0.2964478E+06 -0.1782849E+02 -0.6211321E-01 -0.1640208E-02  0.9161188E+06  0.2362539E+02
  0.3595238E+00 -0.2968045E+06 -0.2909249E+02  0.4980529E-01  0.1602724E-02  0.9164935E+06  0.3838446E+02
  0.3904762E+00 -0.2972875E+06 -0.4707338E+02  0.7070076E-01  0.3448069E-02  0.9169360E+06  0.6185182E+02
  0.4214286E+00 -0.2977003E+06 -0.7515839E+02  0.8224487E-01  0.3856361E-02  0.9174456E+06  0.9824617E+02
  0.4523810E+00 -0.2981894E+06 -0.1189855E+03  0.9073357E-02  0.1293659E-02  0.9178792E+06  0.1546544E+03
  0.4833333E+00 -0.2989127E+06 -0.1834143E+03  0.1545347E-01  0.1411617E-02  0.9185316E+06  0.2371279E+03
  0.5142857E+00 -0.2995711E+06 -0.2781175E+03 -0.1376682E-01 -0.2323151E-02  0.9192643E+06  0.3575372E+03
  0.5452381E+00 -0.3003007E+06 -0.4116097E+03 -0.4791127E-01 -0.4871964E-02  0.9199929E+06  0.5256168E+03
  0.5761905E+00 -0.3011483E+06 -0.5945783E+03 -0.2758120E-01 -0.6326914E-02  0.9207960E+06  0.7538198E+03
  0.6071429E+00 -0.3021321E+06 -0.8428262E+03 -0.1587093E-01 -0.5869865E-03  0.9215713E+06  0.1061307E+04
  0.6380953E+00 -0.3031426E+06 -0.1167038E+04 -0.3191194E-01 -0.7821083E-02  0.9225148E+06  0.1459027E+04
  0.6690477E+00 -0.3042167E+06 -0.1588168E+04  0.3736883E-01  0.1228333E-01  0.9236978E+06  0.1970009E+04
  0.7000000E+00 -0.3052654E+06 -0.2128726E+04  0.5008152E-01  0.2374744E-01  0.9247118E+06  0.2617211E+04
  0.7309524E+00 -0.3064764E+06 -0.2806955E+04  0.1388202E-01  0.1510429E-01  0.9257433E+06  0.3420204E+04
  0.7619048E+00 -0.3079032E+06 -0.3650119E+04 -0.3486728E-01 -0.2001190E-01  0.9268626E+06  0.4408581E+04
  0.7928572E+00 -0.3091398E+06 -0.4684936E+04 -0.2694344E-02  0.6908417E-02  0.9280128E+06  0.5606442E+04
  0.8238096E+00 -0.3104692E+06 -0.5942070E+04  0.1448438E-01  0.5796432E-02  0.9291031E+06  0.7041076E+04
  0.8547620E+00 -0.3116171E+06 -0.7449752E+04  0.5676779E-02 -0.7717133E-02  0.9301391E+06  0.8734485E+04
  0.8857143E+00 -0.3129247E+06 -0.9242634E+04  0.2954544E-01 -0.2902985E-02  0.9311098E+06  0.1071633E+05
  0.9166667E+00 -0.3140772E+06 -0.1134844E+05  0.2403675E-01  0.1403427E-01  0.9319504E+06  0.1300522E+05
  0.9476191E+00 -0.3152856E+06 -0.1379323E+05 -0.3309010E-01 -0.6835938E-02  0.9324428E+06  0.1562313E+05
  0.9785714E+00 -0.3162774E+06 -0.1660049E+05 -0.3336886E-02 -0.1870728E-01  0.9329112E+06  0.1858380E+05
  0.1009524E+01 -0.3171923E+06 -0.1979527E+05 -0.1157797E-01 -0.6088257E-02  0.9332338E+06  0.2188849E+05
  0.1040476E+01 -0.3177594E+06 -0.2339198E+05 -0.6836915E-01 -0.3898621E-01  0.9333687E+06  0.2552993E+05
  0.1071429E+01 -0.3180772E+06 -0.2739427E+05 -0.5460205E-01 -0.2146912E-01  0.9330942E+06  0.2948308E+05
  0.1102381E+01 -0.3182441E+06 -0.3179749E+05 -0.3928265E-01 -0.3485107E-01  0.9325387E+06  0.3373761E+05
  0.1133333E+01 -0.3178871E+06 -0.3657524E+05 -0.4828060E-01 -0.4866028E-01  0.9314094E+06  0.3823056E+05
  0.1164286E+01 -0.3174018E+06 -0.4170506E+05 -0.2359027E-03 -0.1313782E-01  0.9300823E+06  0.4294108E+05
  0.1195238E+01 -0.3164358E+06 -0.4712851E+05 -0.5213764E-01 -0.5166626E-01  0.9282869E+06  0.4778352E+05
  0.1226190E+01 -0.3150917E+06 -0.5279017E+05  0.3018929E-01  0.5313110E-01  0.9262686E+06  0.5269452E+05
  0.1257143E+01 -0.3132472E+06 -0.5857669E+05 -0.3082969E-02 -0.1586914E-02  0.9234382E+06  0.5751330E+05
  0.1288095E+01 -0.3110882E+06 -0.6446329E+05  0.1445213E-02  0.3787231E-01  0.9207438E+06  0.6222807E+05
  0.1319048E+01 -0.3083827E+06 -0.7031915E+05 -0.1175312E-01 -0.3039551E-01  0.9175773E+06  0.6668817E+05
  0.1350000E+01 -0.3053949E+06 -0.7602247E+05 -0.5086263E-02  0.3936768E-02  0.9140758E+06  0.7077114E+05
  0.1380952E+01 -0.3019465E+06 -0.8150340E+05  0.1624272E-01  0.2590942E-01  0.9103549E+06  0.7441927E+05
  0.1411905E+01 -0.2995717E+06 -0.8737280E+05  0.2126864E-01 -0.1867676E-01  0.9069509E+06  0.7835298E+05
  0.1442857E+01 -0.2955677E+06 -0.9209666E+05  0.1250012E-01  0.2484131E-01  0.9026204E+06  0.8087225E+05
  0.1473810E+01 -0.2915884E+06 -0.9639076E+05 -0.2316033E-01 -0.4602051E-01  0.8987876E+06  0.8292568E+05
  0.1504762E+01 -0.2872198E+06 -0.1000569E+06  0.1346636E-01  0.3112793E-02  0.8945807E+06  0.8418284E+05
  0.1535714E+01 -0.2829841E+06 -0.1031760E+06  0.2851619E-02 -0.1855469E-01  0.8908809E+06  0.8491199E+05
  0.1566667E+01 -0.2787258E+06 -0.1055676E+06 -0.1110320E-01 -0.1525879E-02  0.8870254E+06  0.8480904E+05
  0.1597619E+01 -0.2744270E+06 -0.1073629E+06  0.1633691E-01 -0.2868652E-02  0.8835629E+06  0.8415292E+05
  0.1628572E+01 -0.2703471E+06 -0.1085096E+06  0.3775295E-01  0.1031494E-01  0.8804864E+06  0.8298255E+05
  0.1659524E+01 -0.2663461E+06 -0.1088760E+06  0.4310006E-03  0.3857422E-01  0.8772572E+06  0.8101075E+05
  0.1690476E+01 -0.2626950E+06 -0.1087265E+06  0.8493772E-02  0.7873535E-02  0.8746459E+06  0.7875786E+05
  0.1721429E+01 -0.2591913E+06 -0.1080002E+06 -0.1623003E-01 -0.1409912E-01  0.8723268E+06  0.7607198E+05
  0.1752381E+01 -0.2558870E+06 -0.1067668E+06 -0.1020514E-01 -0.1959229E-01  0.8702850E+06  0.7304988E+05
  0.1783333E+01 -0.2529986E+06 -0.1051103E+06 -0.4919890E-02 -0.3424072E-01  0.8687323E+06  0.6984358E+05
  0.1814286E+01 -0.2502872E+06 -0.1028973E+06  0.2534040E-01  0.7934570E-03  0.8671669E+06  0.6611614E+05
  0.1845238E+01 -0.2477820E+06 -0.1004343E+06  0.1081622E-01  0.1947021E-01  0.8660738E+06  0.6242581E+05
  0.1876190E+01 -0.2456295E+06 -0.9770165E+05 -0.1078417E-01 -0.1696777E-01  0.8653731E+06  0.5875754E+05
  0.1907143E+01 -0.2436454E+06 -0.9448297E+05  0.1336144E-01  0.1959229E-01  0.8645562E+06  0.5459302E+05
  0.1938095E+01 -0.2419965E+06 -0.9108037E+05 -0.3542888E-02  0.3662109E-02  0.8640007E+06  0.5039235E+05
  0.1969048E+01 -0.2406999E+06 -0.8782453E+05 -0.3126078E-01 -0.1184082E-01  0.8641466E+06  0.4705448E+05
  0.2000000E+01 -0.2393416E+06 -0.8406422E+05 -0.2607727E-01 -0.2996826E-01  0.8638751E+06  0.4278912E+05
