VARIABLES="w (rad/s)"
"abs(F   1   1)" "angle(F   1   1)"
"abs(F   1   2)" "angle(F   1   2)"
"abs(F   1   3)" "angle(F   1   3)"
Zone t="Diffraction force - beta =   0.000 deg",I=    64,F=POINT
  0.5000000E-01  0.1430097E+04 -0.1570768E+01  0.8780480E+05 -0.5959585E-05  0.3634676E+04  0.1570799E+01
  0.8095238E-01  0.2339593E+04 -0.1570803E+01  0.8757099E+05 -0.1601947E-04  0.5943550E+04  0.1570794E+01
  0.1119048E+00  0.3269409E+04 -0.1570793E+01  0.8722701E+05 -0.3176621E-04  0.8296218E+04  0.1570811E+01
  0.1428571E+00  0.4226546E+04 -0.1570796E+01  0.8677352E+05 -0.5439142E-04  0.1071713E+05  0.1570803E+01
  0.1738095E+00  0.5222448E+04 -0.1570792E+01  0.8621094E+05 -0.8561592E-04  0.1323027E+05  0.1570804E+01
  0.2047619E+00  0.6268543E+04 -0.1570783E+01  0.8553952E+05 -0.1280478E-03  0.1586508E+05  0.1570806E+01
  0.2357143E+00  0.7376577E+04 -0.1570791E+01  0.8476188E+05 -0.1854189E-03  0.1865238E+05  0.1570811E+01
  0.2666667E+00  0.8567154E+04 -0.1570774E+01  0.8387743E+05 -0.2621236E-03  0.2162792E+05  0.1570813E+01
  0.2976190E+00  0.9849498E+04 -0.1570768E+01  0.8289023E+05 -0.3661584E-03  0.2483729E+05  0.1570826E+01
  0.3285715E+00  0.1124914E+05 -0.1570758E+01  0.8180066E+05 -0.5048086E-03  0.2832520E+05  0.1570835E+01
  0.3595238E+00  0.1278629E+05 -0.1570737E+01  0.8061582E+05 -0.6908398E-03  0.3213283E+05  0.1570858E+01
  0.3904762E+00  0.1447783E+05 -0.1570708E+01  0.7933476E+05 -0.9372208E-03  0.3631378E+05  0.1570888E+01
  0.4214286E+00  0.1633748E+05 -0.1570664E+01  0.7797248E+05 -0.1252620E-02  0.4090475E+05  0.1570931E+01
  0.4523810E+00  0.1838558E+05 -0.1570600E+01  0.7652426E+05 -0.1662388E-02  0.4591996E+05  0.1570993E+01
  0.4833333E+00  0.2060470E+05 -0.1570514E+01  0.7500893E+05 -0.2150910E-02  0.5134061E+05  0.1571078E+01
  0.5142857E+00  0.2300467E+05 -0.1570392E+01  0.7342459E+05 -0.2750133E-02  0.5716967E+05  0.1571202E+01
  0.5452381E+00  0.2556260E+05 -0.1570230E+01  0.7177804E+05 -0.3447709E-02  0.6336929E+05  0.1571364E+01
  0.5761905E+00  0.2826310E+05 -0.1570017E+01  0.7008303E+05 -0.4244584E-02  0.6986591E+05  0.1571575E+01
  0.6071429E+00  0.3111046E+05 -0.1569745E+01  0.6833227E+05 -0.5169423E-02  0.7664643E+05  0.1571848E+01
  0.6380953E+00  0.3404643E+05 -0.1569404E+01  0.6654175E+05 -0.6190189E-02  0.8361948E+05  0.1572188E+01
  0.6690477E+00  0.3709518E+05 -0.1568978E+01  0.6471577E+05 -0.7337178E-02  0.9082170E+05  0.1572614E+01
  0.7000000E+00  0.4025783E+05 -0.1568455E+01  0.6284965E+05 -0.8625637E-02  0.9820970E+05  0.1573138E+01
  0.7309524E+00  0.4347582E+05 -0.1567820E+01  0.6095973E+05 -0.1003812E-01  0.1056631E+06  0.1573772E+01
  0.7619048E+00  0.4678819E+05 -0.1567058E+01  0.5905374E+05 -0.1159552E-01  0.1132744E+06  0.1574535E+01
  0.7928572E+00  0.5016765E+05 -0.1566150E+01  0.5712593E+05 -0.1330855E-01  0.1209444E+06  0.1575443E+01
  0.8238096E+00  0.5363019E+05 -0.1565076E+01  0.5517645E+05 -0.1518512E-01  0.1287504E+06  0.1576516E+01
  0.8547620E+00  0.5710535E+05 -0.1563821E+01  0.5324360E+05 -0.1720881E-01  0.1365192E+06  0.1577772E+01
  0.8857143E+00  0.6065616E+05 -0.1562361E+01  0.5130576E+05 -0.1941060E-01  0.1443563E+06  0.1579232E+01
  0.9166667E+00  0.6426122E+05 -0.1560678E+01  0.4936477E+05 -0.2179761E-01  0.1521658E+06  0.1580914E+01
  0.9476191E+00  0.6791615E+05 -0.1558747E+01  0.4742421E+05 -0.2438468E-01  0.1599988E+06  0.1582845E+01
  0.9785714E+00  0.7155234E+05 -0.1556549E+01  0.4551871E+05 -0.2712344E-01  0.1676838E+06  0.1585043E+01
  0.1009524E+01  0.7525153E+05 -0.1554057E+01  0.4363095E+05 -0.3007288E-01  0.1754336E+06  0.1587534E+01
  0.1040476E+01  0.7893349E+05 -0.1551253E+01  0.4176064E+05 -0.3324658E-01  0.1829910E+06  0.1590339E+01
  0.1071429E+01  0.8267191E+05 -0.1548112E+01  0.3990896E+05 -0.3666243E-01  0.1905477E+06  0.1593479E+01
  0.1102381E+01  0.8637954E+05 -0.1544614E+01  0.3808175E+05 -0.4033772E-01  0.1979525E+06  0.1596976E+01
  0.1133333E+01  0.9003883E+05 -0.1540743E+01  0.3631267E+05 -0.4412148E-01  0.2050461E+06  0.1600847E+01
  0.1164286E+01  0.9373902E+05 -0.1536467E+01  0.3457595E+05 -0.4818372E-01  0.2121197E+06  0.1605121E+01
  0.1195238E+01  0.9736272E+05 -0.1531776E+01  0.3287402E+05 -0.5253442E-01  0.2188326E+06  0.1609811E+01
  0.1226190E+01  0.1009997E+06 -0.1526645E+01  0.3120738E+05 -0.5720189E-01  0.2254174E+06  0.1614941E+01
  0.1257143E+01  0.1045309E+06 -0.1521075E+01  0.2957820E+05 -0.6226250E-01  0.2317052E+06  0.1620508E+01
  0.1288095E+01  0.1080645E+06 -0.1514995E+01  0.2800821E+05 -0.6738232E-01  0.2377783E+06  0.1626584E+01
  0.1319048E+01  0.1114703E+06 -0.1508447E+01  0.2649246E+05 -0.7275891E-01  0.2434882E+06  0.1633131E+01
  0.1350000E+01  0.1148355E+06 -0.1501396E+01  0.2502455E+05 -0.7847577E-01  0.2490059E+06  0.1640180E+01
  0.1380952E+01  0.1180590E+06 -0.1493873E+01  0.2360326E+05 -0.8457681E-01  0.2539843E+06  0.1647697E+01
  0.1411905E+01  0.1210832E+06 -0.1485937E+01  0.2222925E+05 -0.9107330E-01  0.2585217E+06  0.1655627E+01
  0.1442857E+01  0.1241456E+06 -0.1477455E+01  0.2090067E+05 -0.9809929E-01  0.2628352E+06  0.1664099E+01
  0.1473810E+01  0.1270280E+06 -0.1468492E+01  0.1962694E+05 -0.1054352E+00  0.2666258E+06  0.1673054E+01
  0.1504762E+01  0.1296981E+06 -0.1459077E+01  0.1841796E+05 -0.1126210E+00  0.2698003E+06  0.1682453E+01
  0.1535714E+01  0.1322699E+06 -0.1449159E+01  0.1726314E+05 -0.1202130E+00  0.2727109E+06  0.1692367E+01
  0.1566667E+01  0.1346634E+06 -0.1438806E+01  0.1615634E+05 -0.1282899E+00  0.2751066E+06  0.1702709E+01
  0.1597619E+01  0.1368395E+06 -0.1428060E+01  0.1510114E+05 -0.1368170E+00  0.2768781E+06  0.1713437E+01
  0.1628572E+01  0.1388633E+06 -0.1416919E+01  0.1409260E+05 -0.1459216E+00  0.2782332E+06  0.1724560E+01
  0.1659524E+01  0.1407069E+06 -0.1405412E+01  0.1312998E+05 -0.1557381E+00  0.2791668E+06  0.1736041E+01
  0.1690476E+01  0.1422541E+06 -0.1393589E+01  0.1221743E+05 -0.1661710E+00  0.2794828E+06  0.1747859E+01
  0.1721429E+01  0.1434965E+06 -0.1381641E+01  0.1136031E+05 -0.1759261E+00  0.2790176E+06  0.1759748E+01
  0.1752381E+01  0.1445345E+06 -0.1369529E+01  0.1054950E+05 -0.1862010E+00  0.2780838E+06  0.1771832E+01
  0.1783333E+01  0.1453768E+06 -0.1357262E+01  0.9788265E+04 -0.1967047E+00  0.2767614E+06  0.1784083E+01
  0.1814286E+01  0.1459240E+06 -0.1345029E+01  0.9067944E+04 -0.2078817E+00  0.2747445E+06  0.1796273E+01
  0.1845238E+01  0.1462175E+06 -0.1332859E+01  0.8391143E+04 -0.2194320E+00  0.2721444E+06  0.1808386E+01
  0.1876190E+01  0.1462931E+06 -0.1320747E+01  0.7752546E+04 -0.2317054E+00  0.2691298E+06  0.1820440E+01
  0.1907143E+01  0.1461622E+06 -0.1308764E+01  0.7149897E+04 -0.2450711E+00  0.2657536E+06  0.1832347E+01
  0.1938095E+01  0.1456984E+06 -0.1297010E+01  0.6589545E+04 -0.2585866E+00  0.2618338E+06  0.1844071E+01
  0.1969048E+01  0.1449740E+06 -0.1285642E+01  0.6063636E+04 -0.2723419E+00  0.2574090E+06  0.1855357E+01
  0.2000000E+01  0.1439569E+06 -0.1274860E+01  0.5569674E+04 -0.2864946E+00  0.2524165E+06  0.1865983E+01
