VARIABLES="w (rad/s)"
"A   1   1" "B   1   1"
"A   1   2" "B   1   2"
"A   1   3" "B   1   3"
Zone t="Motion of body    1 in DoF   1",I=    64,F=POINT
  0.5000000E-01  0.3320066E+05  0.1564451E-02 -0.3557205E-02 -0.3079230E-05  0.4992021E+03  0.3011856E-04
  0.8095238E-01  0.3326096E+05  0.6833462E-02 -0.9424546E-04  0.1569902E-04  0.4994897E+03  0.1305899E-03
  0.1119048E+00  0.3337815E+05  0.1924003E-01  0.3494100E-02  0.1799693E-04  0.4960393E+03  0.3653859E-03
  0.1428571E+00  0.3334076E+05  0.4328073E-01 -0.1054764E-02  0.6665861E-05  0.4934033E+03  0.8246579E-03
  0.1738095E+00  0.3349332E+05  0.8635175E-01 -0.1443053E-02 -0.4295580E-06  0.4995033E+03  0.1658216E-02
  0.2047619E+00  0.3345041E+05  0.1593208E+00  0.3185716E-02  0.8170059E-04  0.4986922E+03  0.3066355E-02
  0.2357143E+00  0.3356918E+05  0.2810694E+00 -0.1424154E-02 -0.1286779E-04  0.4993516E+03  0.5419217E-02
  0.2666667E+00  0.3365635E+05  0.4803833E+00 -0.1945495E-02 -0.2464547E-04  0.5060856E+03  0.9344091E-02
  0.2976190E+00  0.3367201E+05  0.8064321E+00 -0.2230225E-02 -0.5967612E-04  0.5055874E+03  0.1574617E-01
  0.3285715E+00  0.3376948E+05  0.1336997E+01  0.3668743E-02  0.2715574E-04  0.5084320E+03  0.2625351E-01
  0.3595238E+00  0.3392962E+05  0.2201246E+01  0.4244166E-03  0.1433366E-03  0.5156548E+03  0.4356397E-01
  0.3904762E+00  0.3396194E+05  0.3593904E+01 -0.2090640E-02 -0.9386800E-04  0.5210406E+03  0.7174654E-01
  0.4214286E+00  0.3407043E+05  0.5794284E+01 -0.3050464E-02 -0.2164012E-03  0.5230939E+03  0.1165006E+00
  0.4523810E+00  0.3426470E+05  0.9268635E+01 -0.5818417E-03  0.3831461E-05  0.5351917E+03  0.1884842E+00
  0.4833333E+00  0.3445440E+05  0.1446297E+02  0.1183872E-02  0.1383759E-03  0.5458261E+03  0.2975706E+00
  0.5142857E+00  0.3450017E+05  0.2216485E+02 -0.8381738E-03 -0.5199015E-04  0.5407433E+03  0.4583085E+00
  0.5452381E+00  0.3467819E+05  0.3320618E+02 -0.1097733E-01 -0.1010686E-02  0.5521982E+03  0.6951134E+00
  0.5761905E+00  0.3494184E+05  0.4862210E+02  0.9262147E-02  0.1341879E-02  0.5630570E+03  0.1029556E+01
  0.6071429E+00  0.3517421E+05  0.6986991E+02 -0.1225191E-02  0.2538562E-03  0.5757054E+03  0.1498700E+01
  0.6380953E+00  0.3532246E+05  0.9811445E+02 -0.1452716E-02 -0.1763701E-03  0.5770432E+03  0.2123646E+01
  0.6690477E+00  0.3551127E+05  0.1354608E+03 -0.3135925E-03 -0.7165670E-03  0.5822899E+03  0.2962457E+01
  0.7000000E+00  0.3578884E+05  0.1843604E+03  0.1983642E-02  0.7866025E-03  0.5963362E+03  0.4088548E+01
  0.7309524E+00  0.3613414E+05  0.2471863E+03 -0.2891217E-02 -0.7047653E-03  0.6150475E+03  0.5569117E+01
  0.7619048E+00  0.3646729E+05  0.3270606E+03  0.5577564E-02  0.1505852E-02  0.6288817E+03  0.7469794E+01
  0.7928572E+00  0.3671987E+05  0.4272352E+03  0.3974158E-02  0.2700806E-02  0.6338820E+03  0.9865234E+01
  0.8238096E+00  0.3697349E+05  0.5517557E+03  0.1954095E-02  0.1015902E-02  0.6440955E+03  0.1291538E+02
  0.8547620E+00  0.3732651E+05  0.7054285E+03  0.2481360E-02  0.5530119E-03  0.6602618E+03  0.1675854E+02
  0.8857143E+00  0.3773759E+05  0.8933543E+03 -0.3548899E-02 -0.1462936E-02  0.6768855E+03  0.2153264E+02
  0.9166667E+00  0.3816082E+05  0.1121000E+04 -0.2763228E-02 -0.1346588E-02  0.6969875E+03  0.2745894E+02
  0.9476191E+00  0.3859324E+05  0.1394553E+04  0.3437828E-02  0.4987717E-03  0.7202023E+03  0.3476728E+02
  0.9785714E+00  0.3900170E+05  0.1720316E+04 -0.2338938E-04  0.2169609E-03  0.7370397E+03  0.4355645E+02
  0.1009524E+01  0.3936589E+05  0.2104853E+04  0.3098542E-02  0.1562595E-02  0.7479816E+03  0.5401529E+02
  0.1040476E+01  0.3974711E+05  0.2555884E+04  0.1004566E-02  0.1659393E-02  0.7624378E+03  0.6654037E+02
  0.1071429E+01  0.4016050E+05  0.3081056E+04 -0.1174927E-02  0.2283573E-02  0.7850433E+03  0.8157831E+02
  0.1102381E+01  0.4062436E+05  0.3689021E+04 -0.3889508E-02 -0.4088402E-02  0.8117050E+03  0.9946423E+02
  0.1133333E+01  0.4109636E+05  0.4387393E+04 -0.4813251E-02 -0.4415512E-02  0.8360756E+03  0.1203628E+03
  0.1164286E+01  0.4154931E+05  0.5183896E+04  0.1048457E-02  0.1300812E-02  0.8608966E+03  0.1446915E+03
  0.1195238E+01  0.4197434E+05  0.6086393E+04  0.5553348E-02  0.4764557E-02  0.8844369E+03  0.1728376E+03
  0.1226190E+01  0.4232446E+05  0.7100280E+04 -0.2737693E-03 -0.2508163E-03  0.9049810E+03  0.2052007E+03
  0.1257143E+01  0.4258787E+05  0.8233385E+04 -0.1729618E-02  0.2971649E-02  0.9214262E+03  0.2421369E+03
  0.1288095E+01  0.4286843E+05  0.9484522E+04  0.1243831E-02 -0.2435684E-02  0.9430909E+03  0.2841039E+03
  0.1319048E+01  0.4309172E+05  0.1085935E+05  0.2336743E-02  0.1453400E-02  0.9608376E+03  0.3309139E+03
  0.1350000E+01  0.4326806E+05  0.1235599E+05 -0.2904821E-02  0.2212524E-03  0.9779374E+03  0.3827648E+03
  0.1380952E+01  0.4340183E+05  0.1397452E+05 -0.3557929E-02  0.5685806E-02  0.9946906E+03  0.4404029E+03
  0.1411905E+01  0.4325169E+05  0.1562590E+05 -0.2550508E-02  0.3419876E-02  0.9916813E+03  0.4998000E+03
  0.1442857E+01  0.4321932E+05  0.1746291E+05  0.2739028E-02  0.5054474E-02  0.1006089E+04  0.5693766E+03
  0.1473810E+01  0.4310398E+05  0.1940266E+05  0.3364822E-02  0.4650116E-02  0.1020111E+04  0.6452792E+03
  0.1504762E+01  0.4290338E+05  0.2142729E+05 -0.3609959E-02 -0.1020050E-01  0.1029012E+04  0.7260214E+03
  0.1535714E+01  0.4261120E+05  0.2351948E+05  0.2434309E-02  0.9994507E-03  0.1033497E+04  0.8114224E+03
  0.1566667E+01  0.4222164E+05  0.2566310E+05 -0.2824499E-03  0.2250671E-03  0.1032292E+04  0.9005291E+03
  0.1597619E+01  0.4174976E+05  0.2784235E+05  0.4336134E-02 -0.2590179E-02  0.1028847E+04  0.9947352E+03
  0.1628572E+01  0.4117278E+05  0.3003818E+05 -0.1873886E-02  0.2910614E-02  0.1023938E+04  0.1094334E+04
  0.1659524E+01  0.4051411E+05  0.3222984E+05 -0.2923908E-02  0.1811981E-02  0.1015974E+04  0.1197022E+04
  0.1690476E+01  0.3978505E+05  0.3439338E+05  0.4513163E-03 -0.1453400E-02  0.1006063E+04  0.1302910E+04
  0.1721429E+01  0.3898534E+05  0.3650739E+05 -0.1453700E-02 -0.5546570E-02  0.9921370E+03  0.1409872E+04
  0.1752381E+01  0.3812511E+05  0.3855535E+05 -0.4614955E-03 -0.6256104E-02  0.9729391E+03  0.1516500E+04
  0.1783333E+01  0.3720176E+05  0.4052022E+05  0.1223555E-02  0.1525879E-04  0.9499516E+03  0.1623675E+04
  0.1814286E+01  0.3623074E+05  0.4238949E+05 -0.9840117E-03 -0.2952576E-02  0.9233682E+03  0.1730061E+04
  0.1845238E+01  0.3522921E+05  0.4414968E+05  0.5019452E-02 -0.6774902E-02  0.8952037E+03  0.1835704E+04
  0.1876190E+01  0.3419071E+05  0.4578989E+05  0.1813627E-02 -0.1174927E-02  0.8664706E+03  0.1941138E+04
  0.1907143E+01  0.3314111E+05  0.4730303E+05  0.1816196E-02  0.3128052E-03  0.8352694E+03  0.2044016E+04
  0.1938095E+01  0.3208361E+05  0.4868376E+05  0.1779317E-02  0.1457214E-02  0.8009641E+03  0.2144441E+04
  0.1969048E+01  0.3103192E+05  0.4992837E+05  0.6307950E-02 -0.6011963E-02  0.7666365E+03  0.2242635E+04
  0.2000000E+01  0.2999405E+05  0.5103732E+05  0.1510620E-02 -0.3814697E-04  0.7295914E+03  0.2337205E+04
Zone t="Motion of body    1 in DoF   2",I=    64,F=POINT
  0.5000000E-01 -0.6752014E-02 -0.5528331E-05  0.5683530E+05  0.1243791E+03  0.6103516E-03 -0.3218651E-05
  0.8095238E-01 -0.5360210E-03  0.3939867E-04  0.5643104E+05  0.2063753E+03  0.2061619E-02  0.1698732E-05
  0.1119048E+00 -0.5300806E-02  0.5951524E-04  0.5615205E+05  0.2958439E+03 -0.2641881E-03  0.1120567E-04
  0.1428571E+00 -0.1468658E-03 -0.1436472E-04  0.5602480E+05  0.3962616E+03  0.8678436E-03  0.3933907E-05
  0.1738095E+00 -0.5157680E-03  0.7492304E-04  0.5601202E+05  0.5120981E+03  0.6584272E-03  0.1358986E-04
  0.2047619E+00  0.2738598E-02 -0.1057386E-03  0.5609893E+05  0.6488381E+03  0.1033960E-02  0.1204014E-04
  0.2357143E+00  0.1213767E-03  0.4816055E-04  0.5625857E+05  0.8143074E+03  0.3884055E-03  0.1597404E-04
  0.2666667E+00 -0.4813671E-02 -0.4565716E-04  0.5648194E+05  0.1015402E+04  0.2861023E-03  0.1168251E-04
  0.2976190E+00 -0.2108460E-02  0.2193451E-04  0.5675198E+05  0.1266645E+04  0.6280518E-03  0.7152557E-05
  0.3285715E+00 -0.4829738E-02 -0.3933907E-05  0.5706832E+05  0.1576801E+04  0.8707460E-03  0.3218651E-04
  0.3595238E+00  0.6185872E-02 -0.2369881E-03  0.5736188E+05  0.1963607E+04  0.7427291E-04  0.4553795E-04
  0.3904762E+00  0.2960112E-02  0.7557869E-04  0.5766587E+05  0.2441843E+04  0.1465402E-03  0.6580353E-04
  0.4214286E+00 -0.3810817E-02  0.3151894E-03  0.5786101E+05  0.3008020E+04  0.5974203E-03  0.4482269E-04
  0.4523810E+00  0.2428557E-02 -0.1449585E-03  0.5798944E+05  0.3691958E+04  0.1087791E-02  0.6484985E-04
  0.4833333E+00 -0.4845981E-02 -0.1211166E-03  0.5797783E+05  0.4441493E+04  0.1199657E-02  0.8964539E-04
  0.5142857E+00 -0.1186795E-02  0.1723766E-02  0.5782979E+05  0.5291433E+04  0.7417467E-03  0.1573563E-03
  0.5452381E+00  0.3050425E-02  0.9922981E-03  0.5759559E+05  0.6199976E+04  0.1511220E-02  0.1106262E-03
  0.5761905E+00  0.2158299E-02  0.2613068E-03  0.5723833E+05  0.7152717E+04  0.5561261E-03  0.1754761E-03
  0.6071429E+00  0.6565766E-02 -0.7104874E-03  0.5675685E+05  0.8171129E+04  0.4900764E-03  0.1707077E-03
  0.6380953E+00  0.2205977E-02  0.1255035E-02  0.5625946E+05  0.9200294E+04  0.8489125E-03  0.1487732E-03
  0.6690477E+00 -0.1704803E-02 -0.5512238E-03  0.5567794E+05  0.1026377E+05 -0.2394707E-03  0.1487732E-03
  0.7000000E+00  0.4228864E-02  0.5340576E-03  0.5500229E+05  0.1136521E+05  0.7956368E-03  0.3776550E-03
  0.7309524E+00 -0.4472515E-02  0.1192093E-02  0.5431102E+05  0.1247313E+05 -0.2087521E-03  0.1659393E-03
  0.7619048E+00  0.1451969E-02 -0.6389618E-03  0.5356139E+05  0.1359415E+05  0.1051426E-02  0.3337860E-03
  0.7928572E+00  0.1221597E-01  0.2918243E-03  0.5275050E+05  0.1472454E+05  0.1010379E-02  0.3681183E-03
  0.8238096E+00 -0.2769073E-02 -0.1461029E-02  0.5191116E+05  0.1585448E+05  0.3426612E-03  0.1354218E-03
  0.8547620E+00 -0.4757427E-02 -0.1579285E-02  0.5105414E+05  0.1697509E+05  0.4998422E-03  0.2822876E-03
  0.8857143E+00 -0.7476807E-02 -0.2799988E-02  0.5016205E+05  0.1808186E+05  0.4393055E-03  0.8239746E-03
  0.9166667E+00  0.6941362E-02 -0.2479553E-04  0.4923849E+05  0.1916874E+05  0.9404963E-03  0.3204346E-03
  0.9476191E+00 -0.3156039E-02 -0.1167297E-02  0.4829412E+05  0.2022915E+05  0.6279873E-03  0.4501343E-03
  0.9785714E+00 -0.3032824E-02 -0.2511978E-02  0.4734466E+05  0.2125489E+05  0.1052522E-02  0.4768372E-03
  0.1009524E+01  0.1655075E-02 -0.3742218E-02  0.4638382E+05  0.2224350E+05  0.1239417E-02  0.4997253E-03
  0.1040476E+01  0.8608471E-02  0.1199722E-02  0.4541844E+05  0.2319047E+05  0.6965969E-03  0.5226135E-03
  0.1071429E+01 -0.3453573E-02 -0.1644135E-02  0.4445182E+05  0.2409333E+05  0.1132202E-02  0.4577637E-03
  0.1102381E+01 -0.1024283E-02 -0.4482269E-03  0.4349945E+05  0.2494618E+05  0.4775375E-03  0.7171631E-03
  0.1133333E+01 -0.1575246E-02 -0.3242493E-04  0.4255600E+05  0.2574559E+05  0.4375682E-03  0.2098083E-03
  0.1164286E+01  0.8846353E-03 -0.7629395E-05  0.4162271E+05  0.2649016E+05  0.1146749E-02  0.8621216E-03
  0.1195238E+01  0.3440523E-02 -0.2389908E-02  0.4070204E+05  0.2717726E+05  0.6510822E-03  0.3395081E-03
  0.1226190E+01 -0.2600809E-02 -0.9994507E-03  0.3979306E+05  0.2780869E+05  0.4168760E-03  0.2212524E-03
  0.1257143E+01 -0.7276535E-02 -0.3517151E-02  0.3891800E+05  0.2839960E+05  0.3701990E-03  0.4730225E-03
  0.1288095E+01 -0.5686085E-03 -0.1575470E-02  0.3806036E+05  0.2888595E+05  0.1314907E-02  0.2670288E-04
  0.1319048E+01  0.1023771E-02 -0.9788513E-02  0.3723387E+05  0.2933384E+05  0.1133667E-02  0.1411438E-03
  0.1350000E+01 -0.3159134E-02 -0.6202698E-02  0.3643516E+05  0.2972188E+05  0.9381329E-03  0.3547668E-03
  0.1380952E+01  0.3922561E-03  0.2595901E-02  0.3566533E+05  0.3004761E+05  0.3646325E-03  0.5874634E-03
  0.1411905E+01  0.3588002E-02 -0.6772995E-02  0.3491641E+05  0.3035598E+05  0.3026026E-03  0.1129150E-02
  0.1442857E+01 -0.1855982E-02 -0.2138138E-02  0.3420140E+05  0.3057549E+05  0.1068115E-02  0.1213074E-02
  0.1473810E+01  0.1584055E-02  0.1182556E-03  0.3351966E+05  0.3073734E+05  0.3105989E-04  0.1201630E-02
  0.1504762E+01 -0.6388411E-03 -0.1619339E-02  0.3287142E+05  0.3084213E+05  0.6388411E-03  0.3128052E-03
  0.1535714E+01 -0.2429341E-02 -0.5931854E-02  0.3225233E+05  0.3089621E+05  0.5862213E-03  0.8010864E-03
  0.1566667E+01 -0.1743398E-02  0.6809235E-03  0.3166523E+05  0.3089962E+05  0.8570894E-03  0.1083374E-02
  0.1597619E+01  0.1886314E-02  0.2618790E-02  0.3110717E+05  0.3085475E+05  0.3915892E-03  0.6942749E-03
  0.1628572E+01  0.4539490E-02 -0.6847382E-02  0.3057228E+05  0.3076760E+05  0.7776628E-03  0.8087158E-03
  0.1659524E+01  0.3374447E-02 -0.9073257E-02  0.3007465E+05  0.3063346E+05  0.1287255E-03  0.1300812E-02
  0.1690476E+01  0.3317175E-02 -0.1218796E-01  0.2961169E+05  0.3045804E+05  0.5325532E-03  0.7247925E-03
  0.1721429E+01 -0.2548408E-02 -0.1926422E-02  0.2918053E+05  0.3023927E+05  0.2747848E-03  0.6332397E-03
  0.1752381E+01  0.2133328E-03 -0.3011703E-02  0.2877630E+05  0.2998575E+05  0.5224477E-03  0.5569458E-03
  0.1783333E+01  0.2211811E-02 -0.2246857E-02  0.2839981E+05  0.2969584E+05  0.8556330E-04  0.1983643E-03
  0.1814286E+01 -0.2085768E-02 -0.6956100E-02  0.2805015E+05  0.2937343E+05  0.6896493E-03  0.4348755E-03
  0.1845238E+01  0.4506757E-03 -0.5964279E-02  0.2772632E+05  0.2902137E+05  0.6615423E-03  0.5607605E-03
  0.1876190E+01  0.1085736E-02 -0.5624771E-02  0.2742152E+05  0.2864389E+05  0.4717057E-03  0.7133484E-03
  0.1907143E+01  0.2276246E-02 -0.7595062E-02  0.2714732E+05  0.2823826E+05  0.1280138E-03  0.2250671E-03
  0.1938095E+01  0.1440775E-02 -0.1169395E-01  0.2690041E+05  0.2781580E+05  0.2991772E-03  0.8964539E-03
  0.1969048E+01  0.2208558E-02 -0.3814697E-02  0.2667885E+05  0.2736827E+05  0.7749325E-05  0.1247406E-02
  0.2000000E+01 -0.1270294E-02 -0.1313782E-01  0.2647830E+05  0.2689883E+05  0.1831055E-03  0.2517700E-03
Zone t="Motion of body    1 in DoF   3",I=    64,F=POINT
  0.5000000E-01  0.5117633E+03  0.3096892E-04  0.6008148E-03  0.5536484E-06  0.7840986E+03  0.8272197E-06
  0.8095238E-01  0.5120491E+03  0.1348647E-03  0.2650653E-02  0.9173093E-05  0.7813518E+03  0.2307945E-05
  0.1119048E+00  0.5073593E+03  0.3789551E-03  0.3044554E-02  0.1393359E-04  0.7857085E+03  0.7402560E-05
  0.1428571E+00  0.5041141E+03  0.8571687E-03  0.3022432E-02  0.1923268E-04  0.7797387E+03  0.1873495E-04
  0.1738095E+00  0.5099882E+03  0.1714285E-02  0.2503395E-02  0.2148425E-04  0.7796564E+03  0.3188038E-04
  0.2047619E+00  0.5097976E+03  0.3171203E-02  0.1564913E-02  0.1801770E-04  0.7817646E+03  0.5946299E-04
  0.2357143E+00  0.5093613E+03  0.5627465E-02  0.1304800E-02  0.1173017E-04  0.7793717E+03  0.1156875E-03
  0.2666667E+00  0.5165450E+03  0.9673873E-02  0.7152557E-03  0.7357496E-05  0.7785182E+03  0.1911190E-03
  0.2976190E+00  0.5164457E+03  0.1632309E-01 -0.8491516E-04 -0.1231685E-04  0.7811849E+03  0.3222356E-03
  0.3285715E+00  0.5183616E+03  0.2723602E-01  0.1288704E-02  0.2928453E-04  0.7771771E+03  0.5377365E-03
  0.3595238E+00  0.5260772E+03  0.4514823E-01  0.1492090E-02  0.5953506E-04  0.7801008E+03  0.8828653E-03
  0.3904762E+00  0.5326273E+03  0.7428823E-01  0.2574223E-02  0.1088950E-03  0.7807160E+03  0.1466003E-02
  0.4214286E+00  0.5342688E+03  0.1207472E+00  0.5861055E-03  0.4286441E-05  0.7811973E+03  0.2418113E-02
  0.4523810E+00  0.5469364E+03  0.1947611E+00  0.5070033E-03 -0.7624156E-05  0.7823441E+03  0.3954768E-02
  0.4833333E+00  0.5580062E+03  0.3068185E+00  0.2930082E-03 -0.3934535E-04  0.7816108E+03  0.6283945E-02
  0.5142857E+00  0.5523635E+03  0.4748138E+00 -0.1222028E-02 -0.1963035E-03  0.7830554E+03  0.9791802E-02
  0.5452381E+00  0.5639452E+03  0.7182475E+00 -0.1240110E-02 -0.2385247E-03  0.7806877E+03  0.1503672E-01
  0.5761905E+00  0.5751982E+03  0.1063011E+01  0.6570894E-03  0.2628635E-04  0.7839056E+03  0.2250770E-01
  0.6071429E+00  0.5885264E+03  0.1543821E+01 -0.1903758E-02 -0.3897496E-03  0.7855388E+03  0.3308265E-01
  0.6380953E+00  0.5889861E+03  0.2194399E+01  0.1560325E-02  0.2362612E-03  0.7819290E+03  0.4750078E-01
  0.6690477E+00  0.5947559E+03  0.3067224E+01  0.3939862E-02  0.7094005E-03  0.7850067E+03  0.6709708E-01
  0.7000000E+00  0.6090504E+03  0.4223912E+01  0.3027234E-02  0.6736415E-03  0.7857637E+03  0.9374866E-01
  0.7309524E+00  0.6278150E+03  0.5733479E+01 -0.6497410E-03 -0.3199670E-03  0.7842256E+03  0.1292638E+00
  0.7619048E+00  0.6425389E+03  0.7690880E+01  0.1112759E-02  0.2330393E-03  0.7868652E+03  0.1756403E+00
  0.7928572E+00  0.6473765E+03  0.1019055E+02  0.2114579E-02  0.6683506E-03  0.7878665E+03  0.2354795E+00
  0.8238096E+00  0.6576107E+03  0.1334805E+02  0.1792026E-02  0.6355084E-03  0.7862830E+03  0.3126945E+00
  0.8547620E+00  0.6739490E+03  0.1730284E+02  0.2211355E-02  0.5896948E-03  0.7858594E+03  0.4105142E+00
  0.8857143E+00  0.6911723E+03  0.2223530E+02  0.2992230E-02  0.1112394E-02  0.7888702E+03  0.5356404E+00
  0.9166667E+00  0.7116089E+03  0.2830747E+02 -0.6398287E-03 -0.6386489E-03  0.7913702E+03  0.6941136E+00
  0.9476191E+00  0.7353099E+03  0.3574332E+02 -0.2911486E-02 -0.1956396E-02  0.7916088E+03  0.8912471E+00
  0.9785714E+00  0.7518701E+03  0.4479853E+02  0.1655773E-02  0.6109849E-03  0.7902245E+03  0.1133831E+01
  0.1009524E+01  0.7638076E+03  0.5579258E+02  0.2731062E-02  0.1532227E-02  0.7912671E+03  0.1432845E+01
  0.1040476E+01  0.7788304E+03  0.6886362E+02  0.3259340E-02  0.2093956E-02  0.7939641E+03  0.1796902E+01
  0.1071429E+01  0.8019540E+03  0.8426546E+02  0.6506602E-03  0.2069473E-03  0.7960770E+03  0.2227427E+01
  0.1102381E+01  0.8285840E+03  0.1024680E+03 -0.4325520E-04 -0.6711185E-03  0.7949634E+03  0.2754365E+01
  0.1133333E+01  0.8523091E+03  0.1238523E+03  0.2295550E-02  0.1457840E-02  0.7947866E+03  0.3387461E+01
  0.1164286E+01  0.8784888E+03  0.1488877E+03  0.2426194E-02  0.1678705E-02  0.7976100E+03  0.4157598E+01
  0.1195238E+01  0.9029543E+03  0.1778523E+03 -0.8457685E-04 -0.1335144E-03  0.8017841E+03  0.5058403E+01
  0.1226190E+01  0.9235895E+03  0.2112113E+03 -0.4122095E-03 -0.1285762E-02  0.8030359E+03  0.6117403E+01
  0.1257143E+01  0.9403286E+03  0.2496691E+03  0.2699115E-02  0.2925694E-02  0.8025010E+03  0.7367621E+01
  0.1288095E+01  0.9617195E+03  0.2926531E+03  0.7729522E-03  0.1212060E-02  0.8016002E+03  0.8758537E+01
  0.1319048E+01  0.9798235E+03  0.3412394E+03  0.7331242E-03  0.1191795E-02  0.8017747E+03  0.1036037E+02
  0.1350000E+01  0.9992001E+03  0.3954738E+03  0.1903110E-02  0.2023399E-02  0.8049479E+03  0.1220720E+02
  0.1380952E+01  0.1016520E+04  0.4553119E+03 -0.5317557E-03 -0.1085579E-02  0.8085717E+03  0.1437200E+02
  0.1411905E+01  0.9705732E+03  0.5003192E+03 -0.7970337E-04 -0.1265466E-02  0.8044608E+03  0.1603622E+02
  0.1442857E+01  0.9846634E+03  0.5697582E+03  0.6107293E-03  0.1691103E-02  0.8059340E+03  0.1864970E+02
  0.1473810E+01  0.9986926E+03  0.6452084E+03  0.1511581E-02  0.2408743E-02  0.8052582E+03  0.2138124E+02
  0.1504762E+01  0.1007276E+04  0.7259163E+03  0.4360344E-03 -0.1017332E-02  0.8051198E+03  0.2447750E+02
  0.1535714E+01  0.1012667E+04  0.8124115E+03  0.1081777E-02  0.1817226E-02  0.8063632E+03  0.2778024E+02
  0.1566667E+01  0.1012856E+04  0.9040239E+03  0.4224574E-03 -0.6477833E-03  0.8093127E+03  0.3170764E+02
  0.1597619E+01  0.1009108E+04  0.9998981E+03 -0.2029578E-04 -0.5689859E-03  0.8119474E+03  0.3596367E+02
  0.1628572E+01  0.1003045E+04  0.1099522E+04  0.1511992E-02  0.2984762E-02  0.8127652E+03  0.4041556E+02
  0.1659524E+01  0.9942803E+03  0.1201720E+04 -0.6148941E-03 -0.2454519E-03  0.8134606E+03  0.4491744E+02
  0.1690476E+01  0.9835301E+03  0.1306771E+04 -0.2798161E-03  0.1170158E-02  0.8110974E+03  0.4947576E+02
  0.1721429E+01  0.9684877E+03  0.1412623E+04  0.4553894E-03  0.1068115E-02  0.8093384E+03  0.5383131E+02
  0.1752381E+01  0.9493135E+03  0.1520621E+04  0.1959179E-03  0.1344442E-02  0.8089018E+03  0.5894667E+02
  0.1783333E+01  0.9271899E+03  0.1630557E+04 -0.5775523E-04  0.1103878E-03  0.8100143E+03  0.6465292E+02
  0.1814286E+01  0.9008941E+03  0.1739718E+04  0.8242149E-03  0.2636909E-03  0.8131168E+03  0.7098887E+02
  0.1845238E+01  0.8722609E+03  0.1846764E+04  0.8651734E-03 -0.2619505E-02  0.8155675E+03  0.7777807E+02
  0.1876190E+01  0.8431459E+03  0.1950876E+04  0.3832609E-03 -0.2138376E-02  0.8160842E+03  0.8380426E+02
  0.1907143E+01  0.8116853E+03  0.2052098E+04  0.8180883E-03  0.4935265E-03  0.8165091E+03  0.8998162E+02
  0.1938095E+01  0.7769669E+03  0.2152228E+04  0.4723851E-03  0.2150059E-02  0.8134809E+03  0.9522157E+02
  0.1969048E+01  0.7416025E+03  0.2248582E+04  0.2402291E-03 -0.4249334E-02  0.8100238E+03  0.9962017E+02
  0.2000000E+01  0.7024516E+03  0.2341863E+04  0.4835129E-03 -0.1069307E-02  0.8065242E+03  0.1045009E+03
