VARIABLES="w (rad/s)"
"A   1   1" "B   1   1"
"A   1   2" "B   1   2"
"A   1   3" "B   1   3"
Zone t="Motion of body    1 in DoF   1",I=    64,F=POINT
  0.5000000E-01  0.1595594E+05  0.3846731E-03 -0.3433228E-03 -0.2830747E-05  0.1128493E+05  0.3490622E-03
  0.8095238E-01  0.1598612E+05  0.1635285E-02  0.5654728E-02  0.1588620E-04  0.1127087E+05  0.1518328E-02
  0.1119048E+00  0.1601260E+05  0.4630234E-02  0.2761191E-02  0.2922505E-05  0.1125218E+05  0.4257927E-02
  0.1428571E+00  0.1604777E+05  0.1041494E-01 -0.5607605E-03 -0.2281478E-05  0.1127373E+05  0.9595468E-02
  0.1738095E+00  0.1605331E+05  0.2073534E-01  0.1887491E-02  0.2219266E-04  0.1128599E+05  0.1912748E-01
  0.2047619E+00  0.1607780E+05  0.3831352E-01  0.2291480E-02  0.2656027E-04  0.1131121E+05  0.3535523E-01
  0.2357143E+00  0.1609708E+05  0.6751764E-01 -0.3689852E-02 -0.6874092E-04  0.1133708E+05  0.6237560E-01
  0.2666667E+00  0.1610477E+05  0.1153175E+00  0.1487732E-02  0.2313056E-04  0.1134887E+05  0.1066798E+00
  0.2976190E+00  0.1613503E+05  0.1936725E+00  0.5306397E-02  0.5613919E-04  0.1137870E+05  0.1793983E+00
  0.3285715E+00  0.1616265E+05  0.3208854E+00 -0.3877722E-02 -0.1008636E-03  0.1141519E+05  0.2977767E+00
  0.3595238E+00  0.1617678E+05  0.5275283E+00  0.2164525E-02  0.6505847E-04  0.1143594E+05  0.4903707E+00
  0.3904762E+00  0.1620376E+05  0.8615028E+00  0.3907738E-02  0.2601948E-03  0.1146686E+05  0.8022812E+00
  0.4214286E+00  0.1624544E+05  0.1388428E+01 -0.2824169E-02 -0.6544776E-04  0.1150800E+05  0.1295360E+01
  0.4523810E+00  0.1628102E+05  0.2217822E+01  0.2664666E-02  0.3244430E-03  0.1156109E+05  0.2074018E+01
  0.4833333E+00  0.1630945E+05  0.3455112E+01  0.5145895E-02  0.5426183E-03  0.1159635E+05  0.3238700E+01
  0.5142857E+00  0.1635909E+05  0.5295812E+01  0.4450480E-02  0.2850816E-03  0.1164799E+05  0.4975785E+01
  0.5452381E+00  0.1641054E+05  0.7925927E+01  0.1080242E-01  0.9589493E-03  0.1169990E+05  0.7465178E+01
  0.5761905E+00  0.1646055E+05  0.1158414E+02  0.6382209E-02  0.5193055E-03  0.1177188E+05  0.1094356E+02
  0.6071429E+00  0.1650791E+05  0.1661621E+02 -0.2462948E-02 -0.3187656E-03  0.1183469E+05  0.1574323E+02
  0.6380953E+00  0.1657782E+05  0.2331761E+02  0.1434782E-03  0.2774000E-03  0.1192203E+05  0.2216223E+02
  0.6690477E+00  0.1665294E+05  0.3216656E+02 -0.1824538E-03  0.1275539E-04  0.1200390E+05  0.3066631E+02
  0.7000000E+00  0.1670913E+05  0.4369559E+02  0.8065359E-03 -0.1637936E-03  0.1205446E+05  0.4177709E+02
  0.7309524E+00  0.1677110E+05  0.5843808E+02  0.7723829E-02  0.2293110E-02  0.1212347E+05  0.5605148E+02
  0.7619048E+00  0.1685084E+05  0.7714075E+02  0.8411407E-03 -0.2806187E-03  0.1223046E+05  0.7426532E+02
  0.7928572E+00  0.1694071E+05  0.1006066E+03 -0.1924532E-03  0.1580715E-03  0.1233684E+05  0.9720498E+02
  0.8238096E+00  0.1703301E+05  0.1297346E+03  0.5389968E-02  0.2143621E-02  0.1243986E+05  0.1258000E+03
  0.8547620E+00  0.1712405E+05  0.1655220E+03  0.3177568E-02  0.1012087E-02  0.1253609E+05  0.1610828E+03
  0.8857143E+00  0.1721817E+05  0.2090976E+03  0.2584150E-02  0.1271725E-02  0.1264130E+05  0.2042596E+03
  0.9166667E+00  0.1730924E+05  0.2616519E+03  0.3129439E-02  0.1303673E-02  0.1274215E+05  0.2565666E+03
  0.9476191E+00  0.1740736E+05  0.3245389E+03  0.4283196E-02  0.1710892E-02  0.1286438E+05  0.3195338E+03
  0.9785714E+00  0.1752150E+05  0.3992587E+03 -0.3025027E-02 -0.1774788E-02  0.1300796E+05  0.3947730E+03
  0.1009524E+01  0.1764228E+05  0.4873528E+03 -0.4201925E-02 -0.1348495E-02  0.1315549E+05  0.4839463E+03
  0.1040476E+01  0.1776282E+05  0.5904671E+03  0.5895409E-02  0.2259254E-02  0.1329438E+05  0.5888406E+03
  0.1071429E+01  0.1787652E+05  0.7103243E+03  0.4557292E-03  0.6484985E-03  0.1342093E+05  0.7113988E+03
  0.1102381E+01  0.1799103E+05  0.8486552E+03  0.4041766E-02  0.1296997E-02  0.1355046E+05  0.8536307E+03
  0.1133333E+01  0.1810114E+05  0.1007096E+04 -0.2504237E-02 -0.8392334E-04  0.1368448E+05  0.1017529E+04
  0.1164286E+01  0.1821475E+05  0.1187345E+04  0.2594930E-02  0.2599716E-02  0.1382999E+05  0.1205116E+04
  0.1195238E+01  0.1832751E+05  0.1391025E+04 -0.2629861E-02 -0.3128052E-02  0.1397788E+05  0.1418360E+04
  0.1226190E+01  0.1844095E+05  0.1619863E+04  0.1617728E-02  0.2670288E-04  0.1412737E+05  0.1659389E+04
  0.1257143E+01  0.1853843E+05  0.1876523E+04  0.1480796E-02  0.4829407E-02  0.1425704E+05  0.1931335E+04
  0.1288095E+01  0.1865348E+05  0.2158888E+04 -0.2061206E-02 -0.2323151E-02  0.1440741E+05  0.2232693E+04
  0.1319048E+01  0.1874770E+05  0.2471851E+04 -0.2336743E-02 -0.1037598E-02  0.1453574E+05  0.2569062E+04
  0.1350000E+01  0.1883265E+05  0.2815002E+04  0.1107675E-02  0.3585815E-03  0.1465099E+05  0.2940372E+04
  0.1380952E+01  0.1890306E+05  0.3188598E+04 -0.5281646E-02 -0.2784729E-02  0.1475233E+05  0.3347526E+04
  0.1411905E+01  0.1867238E+05  0.3503339E+04 -0.7348921E-03  0.6256104E-03  0.1446091E+05  0.3693736E+04
  0.1442857E+01  0.1871073E+05  0.3928979E+04 -0.4357064E-02 -0.3257751E-02  0.1453453E+05  0.4164024E+04
  0.1473810E+01  0.1873833E+05  0.4383588E+04  0.1946420E-02 -0.3814697E-03  0.1459593E+05  0.4669863E+04
  0.1504762E+01  0.1874912E+05  0.4866191E+04 -0.1216840E-02  0.1556396E-02  0.1464389E+05  0.5211214E+04
  0.1535714E+01  0.1874651E+05  0.5375302E+04  0.0000000E+00 -0.2258301E-02  0.1467899E+05  0.5786906E+04
  0.1566667E+01  0.1872400E+05  0.5908995E+04  0.6233377E-03  0.9460449E-02  0.1469156E+05  0.6395606E+04
  0.1597619E+01  0.1868398E+05  0.6464688E+04  0.4508051E-02  0.3799438E-02  0.1468224E+05  0.7034553E+04
  0.1628572E+01  0.1862677E+05  0.7039834E+04  0.1424154E-02 -0.2136230E-03  0.1465230E+05  0.7701168E+04
  0.1659524E+01  0.1854804E+05  0.7631081E+04 -0.9562466E-03 -0.3936768E-02  0.1460541E+05  0.8393198E+04
  0.1690476E+01  0.1845528E+05  0.8234836E+04 -0.2527371E-03 -0.1342773E-02  0.1453725E+05  0.9105544E+04
  0.1721429E+01  0.1834392E+05  0.8846822E+04 -0.1063683E-02 -0.2182007E-02  0.1445128E+05  0.9835009E+04
  0.1752381E+01  0.1821282E+05  0.9464983E+04  0.3482985E-04 -0.9155273E-04  0.1434441E+05  0.1057918E+05
  0.1783333E+01  0.1806629E+05  0.1008393E+05 -0.2327322E-02 -0.3234863E-02  0.1421691E+05  0.1133149E+05
  0.1814286E+01  0.1790038E+05  0.1070031E+05 -0.8746771E-03  0.3051758E-04  0.1406595E+05  0.1208910E+05
  0.1845238E+01  0.1771922E+05  0.1131096E+05  0.2910786E-02  0.4547119E-02  0.1389386E+05  0.1284820E+05
  0.1876190E+01  0.1752436E+05  0.1191279E+05 -0.2016949E-02  0.3356934E-02  0.1370087E+05  0.1360405E+05
  0.1907143E+01  0.1731229E+05  0.1250256E+05 -0.3840415E-03 -0.2197266E-02  0.1349326E+05  0.1435559E+05
  0.1938095E+01  0.1709252E+05  0.1307621E+05 -0.2204464E-03  0.4577637E-03  0.1326981E+05  0.1509496E+05
  0.1969048E+01  0.1686309E+05  0.1363132E+05  0.2262803E-02  0.3295898E-02  0.1303191E+05  0.1582126E+05
  0.2000000E+01  0.1662503E+05  0.1416591E+05 -0.2441406E-03 -0.3662109E-03  0.1278257E+05  0.1653099E+05
Zone t="Motion of body    1 in DoF   2",I=    64,F=POINT
  0.5000000E-01 -0.4425049E-02 -0.3576279E-05  0.5012803E+05  0.9758801E+02  0.4043579E-02 -0.9536743E-06
  0.8095238E-01 -0.6125955E-03 -0.5960464E-05  0.4973978E+05  0.1620489E+03 -0.1130946E-02  0.1049042E-04
  0.1119048E+00 -0.2795280E-02 -0.3099442E-04  0.4959643E+05  0.2325775E+03  0.3817944E-02  0.1430511E-05
  0.1428571E+00 -0.4699707E-02  0.1287460E-04  0.4949947E+05  0.3119367E+03  0.3204346E-03  0.1907349E-05
  0.1738095E+00  0.1975282E-02  0.9059906E-05  0.4956084E+05  0.4038902E+03  0.7023223E-03  0.1907349E-05
  0.2047619E+00  0.1341354E-02 -0.3480911E-04  0.4964346E+05  0.5128366E+03  0.1266834E-02  0.1049042E-04
  0.2357143E+00  0.5178740E-03 -0.7057190E-04  0.4985662E+05  0.6452050E+03 -0.9062795E-03  0.5722046E-05
  0.2666667E+00 -0.4920959E-02 -0.1144409E-04  0.5008513E+05  0.8070046E+03  0.1144409E-03  0.3623962E-04
  0.2976190E+00  0.2050781E-03 -0.1106262E-03  0.5033449E+05  0.1009893E+04  0.3999024E-02  0.5149841E-04
  0.3285715E+00 -0.6501570E-03 -0.2288818E-04  0.5069077E+05  0.1261881E+04 -0.9287957E-04  0.8010864E-04
  0.3595238E+00 -0.5517416E-03 -0.8201599E-04  0.5101716E+05  0.1577667E+04  0.1443016E-02  0.5340576E-04
  0.3904762E+00  0.2891726E-02 -0.3433228E-04  0.5131430E+05  0.1970988E+04  0.4220357E-02  0.2212524E-03
  0.4214286E+00  0.3620729E-04 -0.1850128E-03  0.5156124E+05  0.2439285E+04  0.4344875E-03  0.2822876E-03
  0.4523810E+00  0.3642835E-02 -0.3890991E-03  0.5182263E+05  0.3008288E+04  0.3912674E-02  0.6103516E-04
  0.4833333E+00  0.1010237E-02  0.1335144E-03  0.5190925E+05  0.3639428E+04  0.2778152E-02  0.1754761E-03
  0.5142857E+00  0.3026327E-02  0.1525879E-03  0.5187441E+05  0.4360322E+04  0.5577935E-02  0.5340576E-03
  0.5452381E+00  0.3862006E-02 -0.1945496E-03  0.5181498E+05  0.5139266E+04  0.2686613E-02  0.3051758E-03
  0.5761905E+00  0.4925688E-02  0.1525879E-04  0.5169771E+05  0.5966338E+04  0.3495649E-02 -0.0000000E+00
  0.6071429E+00  0.2865062E-02  0.2746582E-03  0.5144644E+05  0.6859514E+04 -0.1105813E-02  0.3662109E-03
  0.6380953E+00  0.8130429E-03  0.1754761E-03  0.5114225E+05  0.7778516E+04  0.1243477E-02  0.4272461E-03
  0.6690477E+00 -0.3056102E-02 -0.1525879E-04  0.5079163E+05  0.8740456E+04  0.3192942E-02  0.1831055E-03
  0.7000000E+00 -0.6103515E-03 -0.1235962E-02  0.5039458E+05  0.9748490E+04  0.1307896E-02 -0.5493164E-03
  0.7309524E+00  0.4843050E-02  0.4577637E-04  0.4997402E+05  0.1078102E+05  0.4175043E-02 -0.9155273E-04
  0.7619048E+00  0.3564834E-02 -0.1831055E-03  0.4949160E+05  0.1184447E+05  0.3364563E-02  0.1220703E-03
  0.7928572E+00 -0.5350198E-02 -0.7781982E-03  0.4893490E+05  0.1293713E+05 -0.1308682E-02 -0.6713867E-03
  0.8238096E+00  0.1185423E-02  0.1663208E-02  0.4834284E+05  0.1405031E+05  0.4889868E-02  0.1434326E-02
  0.8547620E+00  0.3534598E-02  0.1464844E-02  0.4773917E+05  0.1517611E+05  0.3427489E-02  0.6713867E-03
  0.8857143E+00 -0.3721176E-02  0.1220703E-03  0.4712078E+05  0.1630935E+05  0.3583354E-02  0.6408691E-03
  0.9166667E+00  0.2696644E-02  0.2593994E-03  0.4646770E+05  0.1744817E+05  0.2796520E-02 -0.6713867E-03
  0.9476191E+00  0.4025560E-02 -0.2899170E-03  0.4577340E+05  0.1858964E+05  0.1159361E-02  0.5493164E-03
  0.9785714E+00 -0.7359860E-02 -0.1373291E-02  0.4504862E+05  0.1972807E+05  0.1247434E-03  0.8544922E-03
  0.1009524E+01 -0.1088268E-02 -0.1861572E-02  0.4429898E+05  0.2085854E+05  0.3506643E-02  0.2258301E-02
  0.1040476E+01 -0.2053128E-02  0.2380371E-02  0.4353838E+05  0.2197458E+05 -0.2346432E-03 -0.7324219E-03
  0.1071429E+01 -0.2392578E-02  0.8239746E-03  0.4277421E+05  0.2307100E+05  0.2620443E-02  0.1831055E-03
  0.1102381E+01  0.1439533E-02  0.1556396E-02  0.4201354E+05  0.2414296E+05 -0.8858666E-03 -0.1220703E-03
  0.1133333E+01 -0.3069709E-02  0.8850098E-03  0.4124652E+05  0.2519113E+05 -0.2154182E-03  0.1037598E-02
  0.1164286E+01 -0.3512330E-02 -0.1434326E-02  0.4047804E+05  0.2621261E+05  0.1153302E-02  0.2136230E-02
  0.1195238E+01  0.1276632E-02 -0.0000000E+00  0.3970116E+05  0.2720888E+05  0.3370308E-02  0.1831055E-02
  0.1226190E+01 -0.2936798E-02  0.1739502E-02  0.3892284E+05  0.2817656E+05  0.7964199E-03  0.3051758E-03
  0.1257143E+01  0.2427534E-03  0.1434326E-02  0.3815089E+05  0.2914355E+05  0.4466664E-02  0.1342773E-02
  0.1288095E+01 -0.1421521E-02  0.1678467E-02  0.3737032E+05  0.3001625E+05  0.3032579E-02  0.6713867E-03
  0.1319048E+01 -0.3424138E-02 -0.1312256E-02  0.3661162E+05  0.3087804E+05  0.5552656E-03  0.1098633E-02
  0.1350000E+01 -0.2848307E-02  0.1190186E-02  0.3586911E+05  0.3169571E+05 -0.3707320E-02  0.1525879E-02
  0.1380952E+01 -0.1237540E-02 -0.1647949E-02  0.3514374E+05  0.3246748E+05  0.2475081E-02 -0.7324219E-03
  0.1411905E+01  0.9078078E-03 -0.1708984E-02  0.3409358E+05  0.3309820E+05 -0.3544773E-02  0.1464844E-02
  0.1442857E+01 -0.8037303E-03 -0.6103516E-04  0.3339942E+05  0.3381309E+05 -0.1945873E-02 -0.2319336E-02
  0.1473810E+01  0.6626110E-03 -0.3662109E-03  0.3272159E+05  0.3448766E+05 -0.3395882E-02  0.2441406E-02
  0.1504762E+01 -0.8517881E-03 -0.1464844E-02  0.3205769E+05  0.3512715E+05  0.2352558E-02  0.3784180E-02
  0.1535714E+01 -0.5166697E-03 -0.9765625E-03  0.3140850E+05  0.3572881E+05 -0.9538517E-03 -0.8544922E-03
  0.1566667E+01 -0.1558344E-03  0.2075195E-02  0.3077426E+05  0.3629474E+05 -0.1714179E-02  0.3540039E-02
  0.1597619E+01 -0.3820382E-03 -0.1647949E-02  0.3015596E+05  0.3682365E+05  0.1298930E-02  0.6103516E-03
  0.1628572E+01 -0.2885785E-02  0.4272461E-03  0.2955564E+05  0.3731518E+05 -0.1049376E-02  0.4150391E-02
  0.1659524E+01 -0.2280280E-02 -0.2990723E-02  0.2897179E+05  0.3777159E+05 -0.1618264E-02 -0.3051758E-02
  0.1690476E+01 -0.4296531E-02 -0.7934570E-03  0.2840766E+05  0.3818800E+05 -0.1805265E-02  0.3417969E-02
  0.1721429E+01 -0.1134595E-02  0.1403809E-02  0.2786025E+05  0.3856988E+05  0.6382100E-03 -0.4882812E-03
  0.1752381E+01 -0.2472919E-02  0.9155273E-03  0.2733006E+05  0.3891802E+05 -0.1253875E-02  0.1220703E-02
  0.1783333E+01 -0.1711266E-03 -0.9155273E-03  0.2681823E+05  0.3923038E+05  0.1505914E-02 -0.7324219E-03
  0.1814286E+01  0.7064699E-03  0.2014160E-02  0.2632215E+05  0.3951550E+05 -0.1547506E-02 -0.1220703E-02
  0.1845238E+01  0.2216167E-02  0.9765625E-03  0.2584318E+05  0.3976861E+05  0.1124622E-02  0.9765625E-03
  0.1876190E+01 -0.3318206E-02 -0.1037598E-02  0.2538273E+05  0.3999365E+05  0.9108800E-03  0.1220703E-03
  0.1907143E+01 -0.4032435E-02 -0.0000000E+00  0.2493614E+05  0.4019642E+05 -0.8960967E-03  0.1342773E-02
  0.1938095E+01 -0.6770854E-03  0.6103516E-04  0.2450820E+05  0.4036728E+05 -0.8817856E-03  0.1220703E-02
  0.1969048E+01 -0.1658355E-02 -0.2441406E-02  0.2409591E+05  0.4051369E+05  0.1859838E-03  0.3784180E-02
  0.2000000E+01  0.4730225E-03  0.2868652E-02  0.2369993E+05  0.4063448E+05  0.1037598E-02  0.4516602E-02
Zone t="Motion of body    1 in DoF   3",I=    64,F=POINT
  0.5000000E-01  0.1089449E+05  0.3324485E-03  0.4005432E-02  0.1217680E-04  0.2169915E+05  0.3002521E-03
  0.8095238E-01  0.1088416E+05  0.1456770E-02  0.1767102E-02  0.1152232E-04  0.2172213E+05  0.1360537E-02
  0.1119048E+00  0.1087021E+05  0.4083443E-02  0.1704439E-02  0.7162038E-05  0.2172204E+05  0.3781204E-02
  0.1428571E+00  0.1088131E+05  0.9203477E-02 -0.3311157E-02 -0.1701781E-04  0.2169161E+05  0.8488501E-02
  0.1738095E+00  0.1090366E+05  0.1834797E-01  0.2063072E-02  0.1816030E-04  0.2176010E+05  0.1688345E-01
  0.2047619E+00  0.1091992E+05  0.3391687E-01 -0.1229575E-02 -0.1190975E-04  0.2174782E+05  0.3125910E-01
  0.2357143E+00  0.1095334E+05  0.5984712E-01  0.5211107E-02  0.5116570E-04  0.2181439E+05  0.5527079E-01
  0.2666667E+00  0.1096458E+05  0.1023707E+00  0.6036758E-02  0.1059039E-03  0.2183305E+05  0.9470677E-01
  0.2976190E+00  0.1098374E+05  0.1721669E+00  0.3537598E-02  0.9148638E-04  0.2181709E+05  0.1595028E+00
  0.3285715E+00  0.1102555E+05  0.2857664E+00 -0.2089791E-02 -0.1343712E-04  0.2188891E+05  0.2652381E+00
  0.3595238E+00  0.1104820E+05  0.4705719E+00 -0.2461616E-02 -0.8444861E-04  0.2192819E+05  0.4374626E+00
  0.3904762E+00  0.1107004E+05  0.7699444E+00  0.3087113E-02  0.2099536E-03  0.2192914E+05  0.7169040E+00
  0.4214286E+00  0.1110274E+05  0.1243288E+01  0.3801766E-02  0.2177469E-03  0.2193442E+05  0.1159766E+01
  0.4523810E+00  0.1116673E+05  0.1990012E+01  0.5599172E-02  0.4372112E-03  0.2206314E+05  0.1860976E+01
  0.4833333E+00  0.1119925E+05  0.3107624E+01  0.6282412E-02  0.5955696E-03  0.2210205E+05  0.2912905E+01
  0.5142857E+00  0.1123737E+05  0.4774919E+01  0.4153782E-02  0.5419031E-03  0.2210387E+05  0.4485986E+01
  0.5452381E+00  0.1128411E+05  0.7165264E+01  0.4085891E-02  0.4870743E-03  0.2213850E+05  0.6748422E+01
  0.5761905E+00  0.1136831E+05  0.1050013E+02 -0.7017781E-02 -0.6710589E-03  0.2229727E+05  0.9919329E+01
  0.6071429E+00  0.1143178E+05  0.1510256E+02 -0.3568761E-02 -0.6468892E-03  0.2239393E+05  0.1430976E+02
  0.6380953E+00  0.1151352E+05  0.2125694E+02  0.0000000E+00  0.4121959E-03  0.2249082E+05  0.2020333E+02
  0.6690477E+00  0.1158639E+05  0.2941872E+02  0.1870152E-02  0.7164478E-03  0.2254902E+05  0.2804702E+02
  0.7000000E+00  0.1163247E+05  0.4009510E+02  0.4621233E-02  0.1261055E-02  0.2258034E+05  0.3833643E+02
  0.7309524E+00  0.1170426E+05  0.5379847E+02  0.4300294E-02  0.1560330E-02  0.2268359E+05  0.5160103E+02
  0.7619048E+00  0.1181413E+05  0.7125096E+02  0.3604889E-03  0.6756783E-03  0.2285226E+05  0.6859190E+02
  0.7928572E+00  0.1191406E+05  0.9325801E+02 -0.1154719E-03  0.2276897E-03  0.2296555E+05  0.9010083E+02
  0.8238096E+00  0.1200522E+05  0.1207177E+03  0.8260914E-02  0.2800226E-02  0.2304499E+05  0.1170576E+03
  0.8547620E+00  0.1209345E+05  0.1546338E+03  0.6462246E-02  0.2354383E-02  0.2312131E+05  0.1504987E+03
  0.8857143E+00  0.1219763E+05  0.1961077E+03  0.8269279E-02  0.3525257E-02  0.2324748E+05  0.1915834E+03
  0.9166667E+00  0.1229771E+05  0.2463581E+03 -0.2796520E-02 -0.2489090E-03  0.2337339E+05  0.2415661E+03
  0.9476191E+00  0.1241779E+05  0.3067575E+03  0.5023899E-02  0.2491474E-02  0.2353585E+05  0.3019958E+03
  0.9785714E+00  0.1255802E+05  0.3789034E+03 -0.1528107E-02  0.8010864E-04  0.2372016E+05  0.3745948E+03
  0.1009524E+01  0.1269812E+05  0.4644693E+03 -0.4050777E-02 -0.2369881E-02  0.2388889E+05  0.4611773E+03
  0.1040476E+01  0.1282547E+05  0.5653332E+03  0.1789154E-02  0.6160736E-03  0.2401321E+05  0.5637870E+03
  0.1071429E+01  0.1294184E+05  0.6833243E+03 -0.2221680E-02 -0.9536743E-03  0.2412510E+05  0.6844664E+03
  0.1102381E+01  0.1306651E+05  0.8201995E+03 -0.3737250E-02 -0.2315521E-02  0.2426797E+05  0.8251487E+03
  0.1133333E+01  0.1319826E+05  0.9776621E+03  0.5439309E-02  0.4789352E-02  0.2443889E+05  0.9878445E+03
  0.1164286E+01  0.1334332E+05  0.1157612E+04 -0.6814968E-03  0.1073837E-02  0.2464412E+05  0.1174797E+04
  0.1195238E+01  0.1348749E+05  0.1362229E+04 -0.9702401E-03 -0.1045227E-02  0.2483629E+05  0.1388625E+04
  0.1226190E+01  0.1363195E+05  0.1593570E+04 -0.3135904E-02 -0.1453400E-02  0.2503003E+05  0.1631913E+04
  0.1257143E+01  0.1375342E+05  0.1855196E+04  0.2961592E-02 -0.6332397E-03  0.2518055E+05  0.1908835E+04
  0.1288095E+01  0.1389405E+05  0.2144974E+04 -0.2037514E-02 -0.2159119E-02  0.2534933E+05  0.2218016E+04
  0.1319048E+01  0.1401370E+05  0.2468852E+04  0.1619525E-02  0.2483368E-02  0.2549727E+05  0.2566347E+04
  0.1350000E+01  0.1412380E+05  0.2826748E+04  0.1718027E-02  0.1983643E-03  0.2563933E+05  0.2953904E+04
  0.1380952E+01  0.1422126E+05  0.3219133E+04 -0.2696070E-02 -0.1586914E-02  0.2576727E+05  0.3381464E+04
  0.1411905E+01  0.1341622E+05  0.3389903E+04 -0.6873402E-02 -0.8949280E-02  0.2472424E+05  0.3576198E+04
  0.1442857E+01  0.1348423E+05  0.3821859E+04 -0.6006826E-02 -0.8560181E-02  0.2483758E+05  0.4052448E+04
  0.1473810E+01  0.1354274E+05  0.4287107E+04 -0.5590781E-02 -0.8399963E-02  0.2494311E+05  0.4568741E+04
  0.1504762E+01  0.1358864E+05  0.4784823E+04 -0.1784699E-02  0.8239746E-03  0.2503956E+05  0.5125579E+04
  0.1535714E+01  0.1362334E+05  0.5314455E+04 -0.3179506E-02 -0.3829956E-02  0.2512572E+05  0.5723120E+04
  0.1566667E+01  0.1363512E+05  0.5875131E+04  0.3584192E-02  0.1080322E-01  0.2517779E+05  0.6360864E+04
  0.1597619E+01  0.1362545E+05  0.6464798E+04 -0.1489949E-02 -0.8087158E-03  0.2519674E+05  0.7036259E+04
  0.1628572E+01  0.1359628E+05  0.7080242E+04 -0.1873886E-03 -0.1876831E-02  0.2519794E+05  0.7746184E+04
  0.1659524E+01  0.1355034E+05  0.7717396E+04 -0.3677872E-02 -0.8590698E-02  0.2518601E+05  0.8487927E+04
  0.1690476E+01  0.1348753E+05  0.8374810E+04 -0.4693689E-03 -0.2304077E-02  0.2515725E+05  0.9259102E+04
  0.1721429E+01  0.1340963E+05  0.9047772E+04  0.1382788E-02  0.1342773E-02  0.2511455E+05  0.1005638E+05
  0.1752381E+01  0.1331132E+05  0.9732463E+04 -0.1497683E-02 -0.1068115E-02  0.2505506E+05  0.1087540E+05
  0.1783333E+01  0.1319588E+05  0.1042532E+05 -0.1266337E-02 -0.1373291E-02  0.2497705E+05  0.1171153E+05
  0.1814286E+01  0.1305669E+05  0.1112363E+05 -0.1581147E-02 -0.1953125E-02  0.2486312E+05  0.1256235E+05
  0.1845238E+01  0.1289808E+05  0.1182522E+05  0.6946194E-03  0.4547119E-02  0.2472128E+05  0.1342577E+05
  0.1876190E+01  0.1272001E+05  0.1252491E+05 -0.2277200E-03  0.1080322E-01  0.2455816E+05  0.1429594E+05
  0.1907143E+01  0.1252612E+05  0.1321760E+05 -0.1600173E-03  0.8605957E-02  0.2437571E+05  0.1516896E+05
  0.1938095E+01  0.1231955E+05  0.1390062E+05 -0.6613391E-03  0.1678467E-02  0.2417857E+05  0.1603839E+05
  0.1969048E+01  0.1209923E+05  0.1457372E+05  0.3068733E-02  0.2136230E-02  0.2395586E+05  0.1690529E+05
  0.2000000E+01  0.1186711E+05  0.1522945E+05 -0.1007080E-02  0.7324219E-03  0.2372121E+05  0.1776077E+05
