VARIABLES="w (rad/s)"
"abs(F   1   1)" "angle(F   1   1)"
"abs(F   1   2)" "angle(F   1   2)"
"abs(F   1   3)" "angle(F   1   3)"
Zone t="Diffraction force - beta =   0.000 deg",I=    64,F=POINT
  0.5000000E-01  0.1546318E+04 -0.1570794E+01  0.2026504E+03 -0.3105518E+01  0.2850275E+04  0.1570798E+01
  0.8095238E-01  0.2536433E+04 -0.1570791E+01  0.5258798E+03 -0.3104333E+01  0.4673592E+04  0.1570801E+01
  0.1119048E+00  0.3552827E+04 -0.1570785E+01  0.1000227E+04 -0.3102908E+01  0.6538745E+04  0.1570807E+01
  0.1428571E+00  0.4603608E+04 -0.1570776E+01  0.1623001E+04 -0.3101000E+01  0.8470825E+04  0.1570814E+01
  0.1738095E+00  0.5701300E+04 -0.1570764E+01  0.2393182E+04 -0.3098558E+01  0.1048565E+05  0.1570826E+01
  0.2047619E+00  0.6848440E+04 -0.1570746E+01  0.3317393E+04 -0.3095552E+01  0.1259558E+05  0.1570843E+01
  0.2357143E+00  0.8083326E+04 -0.1570719E+01  0.4394011E+04 -0.3091753E+01  0.1486215E+05  0.1570867E+01
  0.2666667E+00  0.9411831E+04 -0.1570680E+01  0.5613791E+04 -0.3087063E+01  0.1730713E+05  0.1570903E+01
  0.2976190E+00  0.1085090E+05 -0.1570622E+01  0.6995816E+04 -0.3081259E+01  0.1994703E+05  0.1570956E+01
  0.3285715E+00  0.1245781E+05 -0.1570537E+01  0.8507007E+04 -0.3074163E+01  0.2287472E+05  0.1571035E+01
  0.3595238E+00  0.1419031E+05 -0.1570408E+01  0.1017255E+05 -0.3065659E+01  0.2606176E+05  0.1571154E+01
  0.3904762E+00  0.1611768E+05 -0.1570216E+01  0.1196082E+05 -0.3055507E+01  0.2959290E+05  0.1571331E+01
  0.4214286E+00  0.1830947E+05 -0.1569936E+01  0.1385703E+05 -0.3044167E+01  0.3359181E+05  0.1571589E+01
  0.4523810E+00  0.2069149E+05 -0.1569525E+01  0.1587515E+05 -0.3031079E+01  0.3791420E+05  0.1571969E+01
  0.4833333E+00  0.2332228E+05 -0.1568956E+01  0.1792351E+05 -0.3017714E+01  0.4278178E+05  0.1572492E+01
  0.5142857E+00  0.2616692E+05 -0.1568164E+01  0.2010822E+05 -0.3003795E+01  0.4796378E+05  0.1573222E+01
  0.5452381E+00  0.2934832E+05 -0.1567118E+01  0.2222010E+05 -0.2989093E+01  0.5369330E+05  0.1574190E+01
  0.5761905E+00  0.3264820E+05 -0.1565751E+01  0.2441371E+05 -0.2975224E+01  0.5967535E+05  0.1575453E+01
  0.6071429E+00  0.3611521E+05 -0.1563983E+01  0.2663725E+05 -0.2961103E+01  0.6599327E+05  0.1577085E+01
  0.6380953E+00  0.3989721E+05 -0.1561797E+01  0.2879281E+05 -0.2947426E+01  0.7288684E+05  0.1579103E+01
  0.6690477E+00  0.4383972E+05 -0.1559082E+01  0.3099690E+05 -0.2934418E+01  0.7994074E+05  0.1581619E+01
  0.7000000E+00  0.4796533E+05 -0.1555746E+01  0.3318074E+05 -0.2921472E+01  0.8730144E+05  0.1584713E+01
  0.7309524E+00  0.5237972E+05 -0.1551749E+01  0.3523782E+05 -0.2908388E+01  0.9520596E+05  0.1588421E+01
  0.7619048E+00  0.5680803E+05 -0.1546926E+01  0.3730352E+05 -0.2896065E+01  0.1031936E+06  0.1592886E+01
  0.7928572E+00  0.6140900E+05 -0.1541211E+01  0.3941185E+05 -0.2884881E+01  0.1114800E+06  0.1598177E+01
  0.8238096E+00  0.6633228E+05 -0.1534558E+01  0.4124918E+05 -0.2872397E+01  0.1200492E+06  0.1604379E+01
  0.8547620E+00  0.7155007E+05 -0.1526863E+01  0.4305911E+05 -0.2860589E+01  0.1293122E+06  0.1611534E+01
  0.8857143E+00  0.7676945E+05 -0.1517922E+01  0.4482254E+05 -0.2849581E+01  0.1384073E+06  0.1619873E+01
  0.9166667E+00  0.8210812E+05 -0.1507662E+01  0.4661214E+05 -0.2840027E+01  0.1477681E+06  0.1629434E+01
  0.9476191E+00  0.8759005E+05 -0.1496010E+01  0.4803995E+05 -0.2828833E+01  0.1572095E+06  0.1640330E+01
  0.9785714E+00  0.9330420E+05 -0.1482916E+01  0.4941878E+05 -0.2818321E+01  0.1673818E+06  0.1652502E+01
  0.1009524E+01  0.9902616E+05 -0.1468272E+01  0.5072010E+05 -0.2808520E+01  0.1772470E+06  0.1666166E+01
  0.1040476E+01  0.1048353E+06 -0.1452019E+01  0.5197784E+05 -0.2799769E+01  0.1870733E+06  0.1681383E+01
  0.1071429E+01  0.1107268E+06 -0.1434075E+01  0.5307850E+05 -0.2791279E+01  0.1969872E+06  0.1698208E+01
  0.1102381E+01  0.1166859E+06 -0.1414425E+01  0.5388212E+05 -0.2781896E+01  0.2068166E+06  0.1716691E+01
  0.1133333E+01  0.1226973E+06 -0.1393008E+01  0.5461756E+05 -0.2773064E+01  0.2170211E+06  0.1736743E+01
  0.1164286E+01  0.1283540E+06 -0.1369554E+01  0.5526224E+05 -0.2765016E+01  0.2263989E+06  0.1758744E+01
  0.1195238E+01  0.1337380E+06 -0.1344149E+01  0.5584219E+05 -0.2757864E+01  0.2352290E+06  0.1782577E+01
  0.1226190E+01  0.1388472E+06 -0.1316838E+01  0.5635319E+05 -0.2751641E+01  0.2436965E+06  0.1808111E+01
  0.1257143E+01  0.1436236E+06 -0.1287960E+01  0.5646745E+05 -0.2743742E+01  0.2511512E+06  0.1835176E+01
  0.1288095E+01  0.1484996E+06 -0.1258089E+01  0.5649749E+05 -0.2736717E+01  0.2587728E+06  0.1863164E+01
  0.1319048E+01  0.1527391E+06 -0.1226448E+01  0.5643534E+05 -0.2729877E+01  0.2653942E+06  0.1892730E+01
  0.1350000E+01  0.1562906E+06 -0.1193254E+01  0.5629005E+05 -0.2723785E+01  0.2705614E+06  0.1923799E+01
  0.1380952E+01  0.1591985E+06 -0.1158704E+01  0.5609144E+05 -0.2718507E+01  0.2745737E+06  0.1956091E+01
  0.1411905E+01  0.1610622E+06 -0.1122092E+01  0.5584268E+05 -0.2713871E+01  0.2772177E+06  0.1989881E+01
  0.1442857E+01  0.1625749E+06 -0.1085703E+01  0.5521877E+05 -0.2708258E+01  0.2785726E+06  0.2023709E+01
  0.1473810E+01  0.1635016E+06 -0.1049142E+01  0.5450369E+05 -0.2703087E+01  0.2789099E+06  0.2057580E+01
  0.1504762E+01  0.1638405E+06 -0.1012391E+01  0.5372198E+05 -0.2698062E+01  0.2786320E+06  0.2091343E+01
  0.1535714E+01  0.1630875E+06 -0.9751096E+00  0.5287370E+05 -0.2693550E+01  0.2762754E+06  0.2125530E+01
  0.1566667E+01  0.1614477E+06 -0.9378229E+00  0.5197672E+05 -0.2689667E+01  0.2722317E+06  0.2159631E+01
  0.1597619E+01  0.1590613E+06 -0.9007360E+00  0.5104030E+05 -0.2686212E+01  0.2670856E+06  0.2193278E+01
  0.1628572E+01  0.1559730E+06 -0.8643475E+00  0.5007501E+05 -0.2683498E+01  0.2608166E+06  0.2225957E+01
  0.1659524E+01  0.1522021E+06 -0.8289452E+00  0.4883527E+05 -0.2680384E+01  0.2531924E+06  0.2257441E+01
  0.1690476E+01  0.1478496E+06 -0.7945172E+00  0.4752087E+05 -0.2677629E+01  0.2446504E+06  0.2287763E+01
  0.1721429E+01  0.1430751E+06 -0.7610698E+00  0.4618605E+05 -0.2675117E+01  0.2359269E+06  0.2316657E+01
  0.1752381E+01  0.1376186E+06 -0.7283713E+00  0.4481116E+05 -0.2672812E+01  0.2260942E+06  0.2344428E+01
  0.1783333E+01  0.1316161E+06 -0.6968516E+00  0.4341705E+05 -0.2670986E+01  0.2152886E+06  0.2370614E+01
  0.1814286E+01  0.1251141E+06 -0.6665002E+00  0.4201650E+05 -0.2669633E+01  0.2035935E+06  0.2395224E+01
  0.1845238E+01  0.1183376E+06 -0.6372404E+00  0.4060623E+05 -0.2668677E+01  0.1917368E+06  0.2418244E+01
  0.1876190E+01  0.1112729E+06 -0.6089528E+00  0.3919814E+05 -0.2668268E+01  0.1796048E+06  0.2439596E+01
  0.1907143E+01  0.1040134E+06 -0.5822664E+00  0.3767000E+05 -0.2668191E+01  0.1671340E+06  0.2458474E+01
  0.1938095E+01  0.9660645E+05 -0.5570652E+00  0.3609643E+05 -0.2668490E+01  0.1544838E+06  0.2474868E+01
  0.1969048E+01  0.8914837E+05 -0.5329770E+00  0.3454642E+05 -0.2669294E+01  0.1421148E+06  0.2489089E+01
  0.2000000E+01  0.8169922E+05 -0.5100593E+00  0.3298848E+05 -0.2670324E+01  0.1301172E+06  0.2500830E+01
