VARIABLES="w (rad/s)"
"A   1   1" "B   1   1"
"A   1   2" "B   1   2"
"A   1   3" "B   1   3"
Zone t="Motion of body    1 in DoF   1",I=    64,F=POINT
  0.5000000E-01  0.1142124E+05  0.1944484E-03  0.4839897E-03  0.1094424E-05  0.1200695E+03  0.2406514E-05
  0.8095238E-01  0.1144482E+05  0.8078665E-03  0.3065923E-02  0.9723403E-05  0.1199010E+03  0.1095583E-04
  0.1119048E+00  0.1148569E+05  0.2289627E-02  0.1110016E-02  0.3482521E-05  0.1204975E+03  0.3050151E-04
  0.1428571E+00  0.1150883E+05  0.5156102E-02  0.3474712E-02  0.2262493E-04  0.1193314E+03  0.6840327E-04
  0.1738095E+00  0.1152183E+05  0.1029301E-01  0.1733858E-02  0.2233431E-04  0.1207982E+03  0.1387977E-03
  0.2047619E+00  0.1152397E+05  0.1903823E-01  0.1760527E-02  0.1446914E-04  0.1197596E+03  0.2563001E-03
  0.2357143E+00  0.1156865E+05  0.3361891E-01  0.1567783E-02  0.2249219E-04  0.1211784E+03  0.4535494E-03
  0.2666667E+00  0.1155627E+05  0.5745605E-01  0.3132820E-02  0.6092440E-04  0.1213327E+03  0.7783850E-03
  0.2976190E+00  0.1158007E+05  0.9664796E-01  0.9100342E-03  0.4082764E-04  0.1211244E+03  0.1310964E-02
  0.3285715E+00  0.1161828E+05  0.1605124E+00  0.3619401E-02  0.9349559E-04  0.1221793E+03  0.2190312E-02
  0.3595238E+00  0.1163711E+05  0.2644287E+00  0.8249598E-03  0.2786051E-04  0.1232996E+03  0.3628024E-02
  0.3904762E+00  0.1163354E+05  0.4323597E+00  0.9769346E-03  0.1269820E-03  0.1225555E+03  0.5948685E-02
  0.4214286E+00  0.1168513E+05  0.6990125E+00 -0.5295316E-03  0.1456821E-04  0.1238175E+03  0.9679970E-02
  0.4523810E+00  0.1173130E+05  0.1120094E+01  0.1328117E-02  0.4951912E-04  0.1255520E+03  0.1562451E-01
  0.4833333E+00  0.1173812E+05  0.1749350E+01  0.3374034E-02  0.2292958E-03  0.1266656E+03  0.2459534E-01
  0.5142857E+00  0.1177194E+05  0.2689315E+01 -0.1464950E-03  0.5589426E-04  0.1270323E+03  0.3801863E-01
  0.5452381E+00  0.1183356E+05  0.4040764E+01  0.2515201E-02  0.2995757E-03  0.1298147E+03  0.5772075E-01
  0.5761905E+00  0.1189471E+05  0.5930021E+01  0.8308788E-03  0.1566261E-03  0.1326628E+03  0.8562823E-01
  0.6071429E+00  0.1190809E+05  0.8532279E+01  0.3351997E-02  0.5054958E-03  0.1309020E+03  0.1235204E+00
  0.6380953E+00  0.1193816E+05  0.1201380E+02  0.3715486E-02  0.7819198E-03  0.1324449E+03  0.1755781E+00
  0.6690477E+00  0.1201145E+05  0.1665005E+02  0.2289226E-02  0.3454387E-03  0.1350545E+03  0.2458853E+00
  0.7000000E+00  0.1208868E+05  0.2273709E+02  0.3073556E-02  0.7791966E-03  0.1373335E+03  0.3390512E+00
  0.7309524E+00  0.1214876E+05  0.3056315E+02  0.4258544E-02  0.6698593E-03  0.1396561E+03  0.4607129E+00
  0.7619048E+00  0.1219017E+05  0.4053197E+02  0.1779914E-02  0.6723553E-03  0.1397083E+03  0.6153453E+00
  0.7928572E+00  0.1224100E+05  0.5312436E+02  0.1058492E-02  0.2646893E-03  0.1405111E+03  0.8132180E+00
  0.8238096E+00  0.1231604E+05  0.6889992E+02  0.1958726E-02  0.6031841E-03  0.1430335E+03  0.1066482E+01
  0.8547620E+00  0.1241104E+05  0.8847873E+02  0.3621625E-02  0.1135781E-02  0.1468225E+03  0.1387954E+01
  0.8857143E+00  0.1251269E+05  0.1125564E+03 -0.3359395E-03 -0.6657839E-04  0.1503110E+03  0.1787943E+01
  0.9166667E+00  0.1260352E+05  0.1418705E+03  0.1541831E-02  0.8172691E-03  0.1525000E+03  0.2277364E+01
  0.9476191E+00  0.1267338E+05  0.1772265E+03  0.7910225E-03  0.8920729E-03  0.1534528E+03  0.2871207E+01
  0.9785714E+00  0.1274425E+05  0.2196395E+03  0.2687830E-02  0.8949041E-03  0.1554413E+03  0.3598802E+01
  0.1009524E+01  0.1284176E+05  0.2703097E+03  0.2947394E-03  0.6647706E-03  0.1586072E+03  0.4484621E+01
  0.1040476E+01  0.1295531E+05  0.3304118E+03  0.7075958E-03  0.2911091E-03  0.1620402E+03  0.5549231E+01
  0.1071429E+01  0.1307900E+05  0.4012628E+03  0.9648641E-03  0.1049042E-03  0.1654945E+03  0.6822417E+01
  0.1102381E+01  0.1320020E+05  0.4842043E+03  0.2180062E-03 -0.3228188E-03  0.1698396E+03  0.8349536E+01
  0.1133333E+01  0.1332589E+05  0.5808392E+03 -0.7068409E-04  0.3098249E-03  0.1746324E+03  0.1016646E+02
  0.1164286E+01  0.1344397E+05  0.6926326E+03  0.8191067E-04  0.2688169E-03  0.1781178E+03  0.1228264E+02
  0.1195238E+01  0.1355157E+05  0.8211895E+03  0.2728800E-02  0.2015710E-02  0.1804509E+03  0.1472999E+02
  0.1226190E+01  0.1365664E+05  0.9683028E+03  0.1791945E-02  0.7765293E-03  0.1830182E+03  0.1757080E+02
  0.1257143E+01  0.1375719E+05  0.1135630E+04  0.1705343E-02  0.1997232E-02  0.1861951E+03  0.2087158E+02
  0.1288095E+01  0.1389570E+05  0.1325891E+04  0.2215204E-02  0.1611948E-02  0.1913826E+03  0.2472251E+02
  0.1319048E+01  0.1403134E+05  0.1540389E+04  0.8271144E-03  0.8411407E-03  0.1969944E+03  0.2917360E+02
  0.1350000E+01  0.1416781E+05  0.1781163E+04 -0.3758183E-03  0.2801418E-03  0.2018749E+03  0.3422444E+02
  0.1380952E+01  0.1430153E+05  0.2050206E+04  0.3149098E-02  0.3002167E-02  0.2070246E+03  0.3997403E+02
  0.1411905E+01  0.1436032E+05  0.2336708E+04  0.1769685E-02  0.3468990E-02  0.2071145E+03  0.4598396E+02
  0.1442857E+01  0.1447402E+05  0.2665677E+04  0.9887997E-03 -0.6456375E-03  0.2117209E+03  0.5323973E+02
  0.1473810E+01  0.1456830E+05  0.3027214E+04  0.1198394E-02  0.1656055E-02  0.2156929E+03  0.6136422E+02
  0.1504762E+01  0.1465106E+05  0.3423082E+04  0.4588501E-03  0.5970001E-03  0.2194054E+03  0.7044347E+02
  0.1535714E+01  0.1472260E+05  0.3853925E+04 -0.6284491E-03  0.1404762E-02  0.2234150E+03  0.8052718E+02
  0.1566667E+01  0.1478825E+05  0.4319824E+04  0.1872448E-02  0.2788544E-02  0.2268653E+03  0.9156972E+02
  0.1597619E+01  0.1484438E+05  0.4820844E+04  0.1270277E-02  0.3938675E-03  0.2306345E+03  0.1036578E+03
  0.1628572E+01  0.1488827E+05  0.5356808E+04 -0.2904524E-03 -0.1268387E-03  0.2338911E+03  0.1167798E+03
  0.1659524E+01  0.1491837E+05  0.5927415E+04  0.0000000E+00  0.4987717E-03  0.2372940E+03  0.1311889E+03
  0.1690476E+01  0.1492583E+05  0.6531086E+04  0.2249812E-02  0.1324654E-02  0.2404866E+03  0.1468749E+03
  0.1721429E+01  0.1491555E+05  0.7166692E+04  0.5229776E-03  0.3623962E-04  0.2433991E+03  0.1637811E+03
  0.1752381E+01  0.1488523E+05  0.7832185E+04 -0.1210337E-02 -0.1528740E-02  0.2462542E+03  0.1819894E+03
  0.1783333E+01  0.1483378E+05  0.8523283E+04  0.1600034E-02  0.2870560E-03  0.2484863E+03  0.2012162E+03
  0.1814286E+01  0.1476232E+05  0.9235983E+04 -0.9798065E-03 -0.2899170E-02  0.2497150E+03  0.2214148E+03
  0.1845238E+01  0.1466563E+05  0.9965567E+04 -0.2191359E-03  0.3986359E-03  0.2501132E+03  0.2424318E+03
  0.1876190E+01  0.1454775E+05  0.1070876E+05  0.1413084E-02  0.3986359E-03  0.2497769E+03  0.2642684E+03
  0.1907143E+01  0.1440965E+05  0.1146149E+05  0.1522164E-02  0.4636765E-02  0.2490618E+03  0.2871637E+03
  0.1938095E+01  0.1424527E+05  0.1221907E+05  0.3542889E-04  0.1981735E-02  0.2481271E+03  0.3111752E+03
  0.1969048E+01  0.1406043E+05  0.1297667E+05 -0.6315700E-03 -0.3395081E-02  0.2466573E+03  0.3358804E+03
  0.2000000E+01  0.1385827E+05  0.1372846E+05  0.3757477E-03 -0.2326965E-03  0.2448341E+03  0.3611858E+03
Zone t="Motion of body    1 in DoF   2",I=    64,F=POINT
  0.5000000E-01  0.2214909E-02  0.7897615E-06  0.1944928E+05  0.3012242E+02  0.1003742E-02  0.2346933E-05
  0.8095238E-01  0.2297233E-02  0.2250075E-05  0.1933042E+05  0.5002820E+02  0.1231081E-02  0.3181398E-05
  0.1119048E+00  0.1851447E-02  0.1046807E-04  0.1928954E+05  0.7181601E+02  0.1218674E-02  0.3106892E-05
  0.1428571E+00  0.2486706E-02  0.1847744E-05  0.1927584E+05  0.9637183E+02  0.1154900E-02  0.5260110E-05
  0.1738095E+00  0.1253755E-02  0.1922250E-05  0.1928615E+05  0.1248425E+03  0.1083661E-02  0.7763505E-05
  0.2047619E+00  0.2333397E-02 -0.1516938E-04  0.1932532E+05  0.1586173E+03  0.9547832E-03  0.1139939E-04
  0.2357143E+00  0.2184781E-02 -0.4249811E-04  0.1938412E+05  0.1997187E+03  0.9730367E-03  0.1373887E-04
  0.2666667E+00 -0.8529424E-03 -0.2619624E-04  0.1946078E+05  0.2500182E+03  0.1083612E-02  0.1674891E-04
  0.2976190E+00  0.3524780E-04  0.3018975E-04  0.1955698E+05  0.3132165E+03  0.1035004E-02  0.1919270E-04
  0.3285715E+00  0.2380039E-02  0.3728271E-04  0.1966006E+05  0.3918706E+03  0.1207434E-02  0.3093481E-04
  0.3595238E+00  0.3236177E-03 -0.5811453E-04  0.1976839E+05  0.4906494E+03  0.1029210E-02  0.3147125E-04
  0.3904762E+00  0.1103936E-02 -0.3427267E-04  0.1987982E+05  0.6138380E+03  0.1103936E-02  0.4476309E-04
  0.4214286E+00  0.1380403E-02  0.2145767E-04  0.1996943E+05  0.7612117E+03  0.9821228E-03  0.4768372E-04
  0.4523810E+00  0.9128168E-03 -0.8344650E-04  0.2004379E+05  0.9407718E+03  0.1028764E-02  0.5519390E-04
  0.4833333E+00  0.2699227E-02  0.4374981E-04  0.2008606E+05  0.1140531E+04  0.9826134E-03  0.7617474E-04
  0.5142857E+00 -0.2631346E-02 -0.2821684E-03  0.2010160E+05  0.1369551E+04  0.1398193E-02  0.9226799E-04
  0.5452381E+00  0.2459230E-02 -0.1668930E-05  0.2008549E+05  0.1618363E+04  0.1098433E-02  0.1087189E-03
  0.5761905E+00 -0.1003013E-02  0.8749962E-04  0.2004515E+05  0.1883735E+04  0.9963926E-03  0.1485348E-03
  0.6071429E+00  0.1291163E-02 -0.9918213E-04  0.1997570E+05  0.2171594E+04  0.1146653E-02  0.1404285E-03
  0.6380953E+00 -0.1452716E-02 -0.1878738E-03  0.1989778E+05  0.2469064E+04  0.1141847E-02  0.1788139E-03
  0.6690477E+00  0.3021892E-02  0.3724098E-03  0.1979975E+05  0.2782359E+04  0.1260072E-02  0.1945496E-03
  0.7000000E+00  0.1588549E-02  0.3504753E-04  0.1967418E+05  0.3112720E+04  0.1008170E-02  0.2088547E-03
  0.7309524E+00  0.2442400E-02  0.1912117E-03  0.1953754E+05  0.3453123E+04  0.1229028E-02  0.2760887E-03
  0.7619048E+00  0.1441955E-02  0.1602173E-03  0.1939043E+05  0.3805192E+04  0.1023888E-02  0.2722740E-03
  0.7928572E+00  0.1683965E-04  0.3466606E-03  0.1922488E+05  0.4168305E+04  0.1104200E-02  0.2617836E-03
  0.8238096E+00 -0.5209377E-03 -0.7057190E-04  0.1904162E+05  0.4540572E+04  0.1044191E-02  0.3232956E-03
  0.8547620E+00  0.1919037E-03 -0.2341270E-03  0.1884801E+05  0.4919586E+04  0.9349727E-03  0.3271103E-03
  0.8857143E+00 -0.4285382E-03  0.9632111E-04  0.1864252E+05  0.5303641E+04  0.1040120E-02  0.3919601E-03
  0.9166667E+00  0.1758229E-02  0.4720688E-03  0.1842438E+05  0.5691134E+04  0.9883534E-03  0.4200935E-03
  0.9476191E+00  0.1491470E-02 -0.1897812E-03  0.1819112E+05  0.6080658E+04  0.1197604E-02  0.4386902E-03
  0.9785714E+00 -0.1364381E-04  0.9193420E-03  0.1795104E+05  0.6469908E+04  0.1083708E-02  0.4234314E-03
  0.1009524E+01 -0.2909607E-03  0.2584457E-03  0.1770557E+05  0.6857079E+04  0.9579029E-03  0.4949570E-03
  0.1040476E+01  0.1466520E-04  0.6856918E-03  0.1745097E+05  0.7241092E+04  0.9422390E-03  0.5884171E-03
  0.1071429E+01  0.1846059E-02 -0.4539490E-03  0.1718849E+05  0.7620154E+04  0.8438111E-03  0.5960464E-03
  0.1102381E+01 -0.7716729E-03 -0.1707077E-03  0.1691763E+05  0.7993117E+04  0.1006981E-02  0.5874634E-03
  0.1133333E+01  0.2231598E-02  0.1367569E-02  0.1664475E+05  0.8357594E+04  0.8886001E-03  0.5884171E-03
  0.1164286E+01 -0.1633299E-02 -0.7028580E-03  0.1637134E+05  0.8711938E+04  0.8748060E-03  0.7171631E-03
  0.1195238E+01  0.7005517E-03 -0.9832382E-03  0.1609477E+05  0.9055762E+04  0.8713012E-03  0.7085800E-03
  0.1226190E+01 -0.4355421E-03 -0.4205704E-03  0.1581693E+05  0.9387564E+04  0.8119750E-03  0.6971359E-03
  0.1257143E+01  0.2011819E-02 -0.1502037E-02  0.1553757E+05  0.9715547E+04  0.8496371E-03  0.6484985E-03
  0.1288095E+01  0.1551827E-02 -0.1602173E-03  0.1525954E+05  0.1001361E+05  0.8588357E-03  0.7991791E-03
  0.1319048E+01  0.9688229E-03  0.4491806E-03  0.1498442E+05  0.1030523E+05  0.7663823E-03  0.9155273E-03
  0.1350000E+01  0.1176905E-02 -0.1583099E-03  0.1471222E+05  0.1058105E+05  0.7205539E-03  0.8850098E-03
  0.1380952E+01  0.1458530E-02  0.5340576E-04  0.1444311E+05  0.1084013E+05  0.7099283E-03  0.1062393E-02
  0.1411905E+01  0.2251958E-02 -0.2868652E-02  0.1417643E+05  0.1109090E+05  0.7213830E-03  0.8106232E-03
  0.1442857E+01  0.1990819E-02 -0.3862381E-03  0.1391171E+05  0.1131903E+05  0.5763592E-03  0.8745193E-03
  0.1473810E+01  0.3002456E-03 -0.1221657E-02  0.1365179E+05  0.1153018E+05  0.7764973E-03  0.9450912E-03
  0.1504762E+01  0.3168854E-03  0.1797676E-02  0.1339891E+05  0.1172384E+05  0.7326392E-03  0.9498596E-03
  0.1535714E+01  0.1020919E-02 -0.1534462E-02  0.1315304E+05  0.1189870E+05  0.6110612E-03  0.1101494E-02
  0.1566667E+01  0.1789661E-02 -0.1070023E-02  0.1291383E+05  0.1205647E+05  0.7864769E-03  0.1152992E-02
  0.1597619E+01 -0.1408766E-02 -0.1008034E-02  0.1268076E+05  0.1219716E+05  0.6757301E-03  0.1296997E-02
  0.1628572E+01  0.5832471E-03  0.3976822E-03  0.1245367E+05  0.1232121E+05  0.6066707E-03  0.9565353E-03
  0.1659524E+01  0.2666457E-03 -0.3013611E-02  0.1223267E+05  0.1242887E+05  0.5792648E-03  0.1070023E-02
  0.1690476E+01  0.1141830E-02 -0.1367569E-02  0.1201764E+05  0.1252070E+05  0.5709151E-03  0.1066208E-02
  0.1721429E+01  0.4986015E-03 -0.3023148E-03  0.1181158E+05  0.1259556E+05  0.6382100E-03  0.1054764E-02
  0.1752381E+01 -0.1238636E-02  0.1776695E-02  0.1161343E+05  0.1265386E+05  0.4810872E-03  0.1047134E-02
  0.1783333E+01  0.1328370E-02  0.6408691E-03  0.1142351E+05  0.1269484E+05  0.4427901E-03  0.9622574E-03
  0.1814286E+01  0.1070218E-02 -0.1646042E-02  0.1124072E+05  0.1272164E+05  0.6286742E-03  0.1049995E-02
  0.1845238E+01  0.4692816E-03 -0.1867294E-02  0.1106574E+05  0.1273332E+05  0.5023587E-03  0.1173019E-02
  0.1876190E+01  0.5835325E-03 -0.9813309E-03  0.1089771E+05  0.1273056E+05  0.5245693E-03  0.1207352E-02
  0.1907143E+01  0.7880850E-03 -0.1935005E-02  0.1073712E+05  0.1271389E+05  0.4640501E-03  0.9899139E-03
  0.1938095E+01  0.5353698E-03 -0.1296043E-02  0.1058157E+05  0.1268543E+05  0.4645120E-03  0.1318932E-02
  0.1969048E+01  0.4184635E-03 -0.1946449E-02  0.1043507E+05  0.1264263E+05  0.3700303E-03  0.1091957E-02
  0.2000000E+01 -0.6408691E-03 -0.3134727E-02  0.1029690E+05  0.1258857E+05  0.2956390E-03  0.1040459E-02
Zone t="Motion of body    1 in DoF   3",I=    64,F=POINT
  0.5000000E-01  0.1228093E+03  0.2489732E-05  0.1335144E-02  0.2770062E-05  0.1310963E+03  0.1898157E-07
  0.8095238E-01  0.1225422E+03  0.1153553E-04  0.1440557E-02  0.4844142E-05  0.1311472E+03  0.2261101E-06
  0.1119048E+00  0.1234313E+03  0.3169915E-04  0.1388053E-02  0.6880889E-05  0.1328591E+03  0.3658992E-06
  0.1428571E+00  0.1217798E+03  0.7116127E-04  0.9070634E-03  0.6696741E-05  0.1321864E+03  0.9095757E-06
  0.1738095E+00  0.1235574E+03  0.1433315E-03  0.1324742E-02  0.1176395E-04  0.1322886E+03  0.2070595E-05
  0.2047619E+00  0.1222978E+03  0.2651200E-03  0.1094216E-02  0.1289371E-04  0.1322518E+03  0.4079730E-05
  0.2357143E+00  0.1237245E+03  0.4693307E-03  0.6536642E-03  0.1130129E-04  0.1323491E+03  0.6154590E-05
  0.2666667E+00  0.1241448E+03  0.8046062E-03  0.1291036E-02  0.2202976E-04  0.1330083E+03  0.1012123E-04
  0.2976190E+00  0.1236405E+03  0.1360245E-02  0.1282940E-02  0.2755242E-04  0.1324238E+03  0.1935846E-04
  0.3285715E+00  0.1246595E+03  0.2271872E-02  0.1154101E-02  0.3293277E-04  0.1323443E+03  0.3259560E-04
  0.3595238E+00  0.1259543E+03  0.3759341E-02  0.8571226E-03  0.3070565E-04  0.1323851E+03  0.5182644E-04
  0.3904762E+00  0.1251396E+03  0.6177262E-02  0.1434567E-02  0.5934347E-04  0.1325665E+03  0.8612014E-04
  0.4214286E+00  0.1261469E+03  0.1004437E-01  0.9094253E-03  0.5244773E-04  0.1318162E+03  0.1388764E-03
  0.4523810E+00  0.1280818E+03  0.1618801E-01  0.9143979E-03  0.6196224E-04  0.1324354E+03  0.2222981E-03
  0.4833333E+00  0.1294170E+03  0.2545095E-01  0.1123691E-02  0.8667847E-04  0.1323710E+03  0.3537325E-03
  0.5142857E+00  0.1297177E+03  0.3939885E-01  0.3750457E-03  0.5116946E-04  0.1326515E+03  0.5549155E-03
  0.5452381E+00  0.1326310E+03  0.5961703E-01  0.1524557E-02  0.1587859E-03  0.1328453E+03  0.8494157E-03
  0.5761905E+00  0.1356129E+03  0.8816864E-01  0.1309420E-02  0.1704324E-03  0.1326385E+03  0.1268677E-02
  0.6071429E+00  0.1336848E+03  0.1279286E+00  0.7182289E-03  0.1309425E-03  0.1329450E+03  0.1845473E-02
  0.6380953E+00  0.1352879E+03  0.1816234E+00  0.1637295E-02  0.2785403E-03  0.1327543E+03  0.2652717E-02
  0.6690477E+00  0.1378940E+03  0.2538562E+00  0.9293742E-03  0.1897744E-03  0.1325727E+03  0.3749465E-02
  0.7000000E+00  0.1403111E+03  0.3497810E+00  0.1497269E-02  0.3208792E-03  0.1332264E+03  0.5214672E-02
  0.7309524E+00  0.1427384E+03  0.4745667E+00  0.1547049E-02  0.3794789E-03  0.1332396E+03  0.7147333E-02
  0.7619048E+00  0.1425951E+03  0.6357830E+00  0.1987070E-02  0.5146296E-03  0.1327560E+03  0.9653793E-02
  0.7928572E+00  0.1434879E+03  0.8420030E+00  0.1012484E-02  0.3217105E-03  0.1331891E+03  0.1289643E-01
  0.8238096E+00  0.1460952E+03  0.1103004E+01  0.1722278E-02  0.5519520E-03  0.1334128E+03  0.1709372E-01
  0.8547620E+00  0.1499238E+03  0.1430806E+01  0.1377913E-02  0.4839152E-03  0.1332306E+03  0.2245524E-01
  0.8857143E+00  0.1534628E+03  0.1839722E+01  0.8729581E-03  0.3825966E-03  0.1332110E+03  0.2922518E-01
  0.9166667E+00  0.1558097E+03  0.2346068E+01  0.8174723E-03  0.3997833E-03  0.1337309E+03  0.3765757E-01
  0.9476191E+00  0.1567175E+03  0.2966126E+01  0.1814521E-02  0.8345339E-03  0.1337677E+03  0.4808664E-01
  0.9785714E+00  0.1587294E+03  0.3719751E+01  0.1147298E-02  0.6193817E-03  0.1335876E+03  0.6100350E-01
  0.1009524E+01  0.1618775E+03  0.4630869E+01  0.1086615E-02  0.5870014E-03  0.1334052E+03  0.7668235E-01
  0.1040476E+01  0.1654747E+03  0.5729711E+01  0.1193839E-02  0.7225294E-03  0.1336349E+03  0.9614223E-01
  0.1071429E+01  0.1689758E+03  0.7043664E+01  0.4953385E-03  0.3972184E-03  0.1341435E+03  0.1196857E+00
  0.1102381E+01  0.1734095E+03  0.8602870E+01  0.9619957E-03  0.6781835E-03  0.1344601E+03  0.1485320E+00
  0.1133333E+01  0.1782943E+03  0.1045034E+02  0.3395361E-03  0.3739689E-03  0.1343790E+03  0.1829111E+00
  0.1164286E+01  0.1817143E+03  0.1262728E+02  0.1004225E-02  0.7968862E-03  0.1341682E+03  0.2238030E+00
  0.1195238E+01  0.1841779E+03  0.1519148E+02  0.1403497E-02  0.1254257E-02  0.1342405E+03  0.2728304E+00
  0.1226190E+01  0.1869785E+03  0.1816639E+02  0.9869696E-03  0.8502081E-03  0.1347324E+03  0.3303624E+00
  0.1257143E+01  0.1902425E+03  0.2159770E+02  0.1084046E-02  0.1158372E-02  0.1349519E+03  0.3963665E+00
  0.1288095E+01  0.1954984E+03  0.2552802E+02  0.1233466E-02  0.1424883E-02  0.1351434E+03  0.4758738E+00
  0.1319048E+01  0.2010665E+03  0.3004645E+02  0.5773172E-03  0.7832572E-03  0.1349631E+03  0.5672491E+00
  0.1350000E+01  0.2057970E+03  0.3521686E+02  0.9759267E-03  0.1184277E-02  0.1349096E+03  0.6744517E+00
  0.1380952E+01  0.2111611E+03  0.4111816E+02  0.1042103E-02  0.1333587E-02  0.1352703E+03  0.8019032E+00
  0.1411905E+01  0.2019375E+03  0.4570042E+02  0.5346205E-03  0.1099519E-02  0.1350119E+03  0.9004957E+00
  0.1442857E+01  0.2065422E+03  0.5293445E+02  0.5403368E-03  0.9609610E-03  0.1353028E+03  0.1059467E+01
  0.1473810E+01  0.2104111E+03  0.6104911E+02  0.6956122E-03  0.1264870E-02  0.1354788E+03  0.1241250E+01
  0.1504762E+01  0.2140446E+03  0.7017004E+02  0.7893617E-03  0.1252756E-02  0.1353132E+03  0.1448704E+01
  0.1535714E+01  0.2180008E+03  0.8022705E+02  0.1810207E-03  0.4075319E-03  0.1352007E+03  0.1674464E+01
  0.1566667E+01  0.2213719E+03  0.9135979E+02  0.5947275E-03  0.1157463E-02  0.1351540E+03  0.1935657E+01
  0.1597619E+01  0.2254628E+03  0.1035646E+03  0.7219926E-03  0.1735240E-02  0.1355110E+03  0.2216747E+01
  0.1628572E+01  0.2289732E+03  0.1168716E+03  0.6324366E-03  0.1390338E-02  0.1360716E+03  0.2550586E+01
  0.1659524E+01  0.2323545E+03  0.1313703E+03  0.7094269E-03  0.1427382E-02  0.1363954E+03  0.2908676E+01
  0.1690476E+01  0.2353653E+03  0.1470257E+03  0.4279042E-03  0.8665919E-03  0.1366359E+03  0.3312709E+01
  0.1721429E+01  0.2382153E+03  0.1638933E+03  0.1623225E-03  0.8336306E-03  0.1368369E+03  0.3760195E+01
  0.1752381E+01  0.2410592E+03  0.1820257E+03  0.3782304E-03  0.1200855E-02  0.1366944E+03  0.4226663E+01
  0.1783333E+01  0.2432222E+03  0.2011170E+03  0.4855717E-03  0.1347691E-02  0.1366494E+03  0.4727337E+01
  0.1814286E+01  0.2445078E+03  0.2215051E+03  0.2691314E-03  0.1028836E-02  0.1367431E+03  0.5273592E+01
  0.1845238E+01  0.2452236E+03  0.2429801E+03  0.4266431E-03  0.1340359E-02  0.1370297E+03  0.5865264E+01
  0.1876190E+01  0.2450683E+03  0.2653477E+03  0.5159281E-03  0.2068460E-02  0.1375075E+03  0.6559579E+01
  0.1907143E+01  0.2442843E+03  0.2886457E+03  0.2040220E-03  0.5390048E-03  0.1378503E+03  0.7280612E+01
  0.1938095E+01  0.2431208E+03  0.3126821E+03  0.5457032E-03  0.1847208E-02  0.1379537E+03  0.8033269E+01
  0.1969048E+01  0.2414438E+03  0.3372718E+03  0.3354005E-03  0.1306057E-02  0.1381294E+03  0.8789970E+01
  0.2000000E+01  0.2395081E+03  0.3624263E+03  0.3061295E-03  0.1315117E-02  0.1379655E+03  0.9581201E+01
