VARIABLES="w (rad/s)"
"abs(F   1   1)" "angle(F   1   1)"
"abs(F   1   2)" "angle(F   1   2)"
"abs(F   1   3)" "angle(F   1   3)"
Zone t="Diffraction force - beta =   0.000 deg",I=    64,F=POINT
  0.5000000E-01  0.7426278E+03 -0.1570783E+01  0.1271884E+06 -0.8709848E-05  0.8143157E+03  0.1570764E+01
  0.8095238E-01  0.1213287E+04 -0.1570786E+01  0.1270392E+06 -0.2344457E-04  0.1331841E+04  0.1570811E+01
  0.1119048E+00  0.1696406E+04 -0.1570801E+01  0.1268200E+06 -0.4659533E-04  0.1859735E+04  0.1570787E+01
  0.1428571E+00  0.2193574E+04 -0.1570794E+01  0.1265303E+06 -0.7999020E-04  0.2402266E+04  0.1570829E+01
  0.1738095E+00  0.2713283E+04 -0.1570809E+01  0.1261702E+06 -0.1263936E-03  0.2966587E+04  0.1570779E+01
  0.2047619E+00  0.3257779E+04 -0.1570795E+01  0.1257387E+06 -0.1897795E-03  0.3558191E+04  0.1570800E+01
  0.2357143E+00  0.3840740E+04 -0.1570787E+01  0.1252361E+06 -0.2760951E-03  0.4185079E+04  0.1570804E+01
  0.2666667E+00  0.4464630E+04 -0.1570789E+01  0.1246616E+06 -0.3926470E-03  0.4855745E+04  0.1570812E+01
  0.2976190E+00  0.5139947E+04 -0.1570781E+01  0.1240143E+06 -0.5516531E-03  0.5577585E+04  0.1570805E+01
  0.3285715E+00  0.5880758E+04 -0.1570778E+01  0.1232948E+06 -0.7660426E-03  0.6362710E+04  0.1570825E+01
  0.3595238E+00  0.6695259E+04 -0.1570769E+01  0.1225045E+06 -0.1055847E-02  0.7223592E+04  0.1570828E+01
  0.3904762E+00  0.7587925E+04 -0.1570750E+01  0.1216413E+06 -0.1444116E-02  0.8166320E+04  0.1570842E+01
  0.4214286E+00  0.8583491E+04 -0.1570730E+01  0.1207096E+06 -0.1946872E-02  0.9199564E+04  0.1570861E+01
  0.4523810E+00  0.9679264E+04 -0.1570693E+01  0.1197120E+06 -0.2603476E-02  0.1033370E+05  0.1570900E+01
  0.4833333E+00  0.1087467E+05 -0.1570647E+01  0.1186517E+06 -0.3401177E-02  0.1156347E+05  0.1570946E+01
  0.5142857E+00  0.1216460E+05 -0.1570578E+01  0.1175291E+06 -0.4385866E-02  0.1288766E+05  0.1571012E+01
  0.5452381E+00  0.1354651E+05 -0.1570489E+01  0.1163500E+06 -0.5548839E-02  0.1428859E+05  0.1571103E+01
  0.5761905E+00  0.1502417E+05 -0.1570376E+01  0.1151183E+06 -0.6897451E-02  0.1576293E+05  0.1571216E+01
  0.6071429E+00  0.1657456E+05 -0.1570225E+01  0.1138351E+06 -0.8471356E-02  0.1730461E+05  0.1571367E+01
  0.6380953E+00  0.1818343E+05 -0.1570036E+01  0.1124963E+06 -0.1024359E-01  0.1889835E+05  0.1571557E+01
  0.6690477E+00  0.1986446E+05 -0.1569799E+01  0.1111103E+06 -0.1225499E-01  0.2053166E+05  0.1571793E+01
  0.7000000E+00  0.2161274E+05 -0.1569507E+01  0.1096845E+06 -0.1453309E-01  0.2220826E+05  0.1572086E+01
  0.7309524E+00  0.2342304E+05 -0.1569150E+01  0.1082158E+06 -0.1706932E-01  0.2392532E+05  0.1572442E+01
  0.7619048E+00  0.2528390E+05 -0.1568718E+01  0.1067083E+06 -0.1989179E-01  0.2565705E+05  0.1572875E+01
  0.7928572E+00  0.2719179E+05 -0.1568201E+01  0.1051628E+06 -0.2301858E-01  0.2742602E+05  0.1573391E+01
  0.8238096E+00  0.2912606E+05 -0.1567586E+01  0.1035862E+06 -0.2646538E-01  0.2919331E+05  0.1574006E+01
  0.8547620E+00  0.3112309E+05 -0.1566864E+01  0.1019811E+06 -0.3024320E-01  0.3098037E+05  0.1574728E+01
  0.8857143E+00  0.3318202E+05 -0.1566018E+01  0.1003520E+06 -0.3436633E-01  0.3277303E+05  0.1575576E+01
  0.9166667E+00  0.3528173E+05 -0.1565037E+01  0.9870247E+05 -0.3884589E-01  0.3458617E+05  0.1576555E+01
  0.9476191E+00  0.3739751E+05 -0.1563905E+01  0.9703827E+05 -0.4369590E-01  0.3637411E+05  0.1577687E+01
  0.9785714E+00  0.3955099E+05 -0.1562609E+01  0.9535347E+05 -0.4892203E-01  0.3817184E+05  0.1578984E+01
  0.1009524E+01  0.4171695E+05 -0.1561135E+01  0.9365548E+05 -0.5454116E-01  0.3993698E+05  0.1580458E+01
  0.1040476E+01  0.4392421E+05 -0.1559467E+01  0.9194662E+05 -0.6056086E-01  0.4169975E+05  0.1582125E+01
  0.1071429E+01  0.4614423E+05 -0.1557592E+01  0.9023555E+05 -0.6699778E-01  0.4342760E+05  0.1584001E+01
  0.1102381E+01  0.4839050E+05 -0.1555494E+01  0.8852393E+05 -0.7385691E-01  0.4512112E+05  0.1586099E+01
  0.1133333E+01  0.5066419E+05 -0.1553160E+01  0.8681380E+05 -0.8113965E-01  0.4680315E+05  0.1588435E+01
  0.1164286E+01  0.5294378E+05 -0.1550575E+01  0.8510661E+05 -0.8885716E-01  0.4842873E+05  0.1591021E+01
  0.1195238E+01  0.5524200E+05 -0.1547728E+01  0.8340197E+05 -0.9700464E-01  0.5002748E+05  0.1593868E+01
  0.1226190E+01  0.5751386E+05 -0.1544604E+01  0.8170095E+05 -0.1055978E+00  0.5157750E+05  0.1596993E+01
  0.1257143E+01  0.5972766E+05 -0.1541195E+01  0.8001434E+05 -0.1147489E+00  0.5302973E+05  0.1600399E+01
  0.1288095E+01  0.6198260E+05 -0.1537490E+01  0.7832905E+05 -0.1241582E+00  0.5446806E+05  0.1604100E+01
  0.1319048E+01  0.6419791E+05 -0.1533497E+01  0.7666123E+05 -0.1341418E+00  0.5580703E+05  0.1608091E+01
  0.1350000E+01  0.6640805E+05 -0.1529211E+01  0.7500853E+05 -0.1445946E+00  0.5707269E+05  0.1612376E+01
  0.1380952E+01  0.6861311E+05 -0.1524633E+01  0.7337166E+05 -0.1555026E+00  0.5828510E+05  0.1616957E+01
  0.1411905E+01  0.7051962E+05 -0.1520167E+01  0.7182402E+05 -0.1661874E+00  0.5934062E+05  0.1621431E+01
  0.1442857E+01  0.7259456E+05 -0.1515046E+01  0.7023880E+05 -0.1780127E+00  0.6035348E+05  0.1626557E+01
  0.1473810E+01  0.7462145E+05 -0.1509645E+01  0.6867035E+05 -0.1903077E+00  0.6129137E+05  0.1631967E+01
  0.1504762E+01  0.7659362E+05 -0.1503980E+01  0.6712018E+05 -0.2030625E+00  0.6214538E+05  0.1637635E+01
  0.1535714E+01  0.7847147E+05 -0.1498075E+01  0.6559255E+05 -0.2162983E+00  0.6285494E+05  0.1643535E+01
  0.1566667E+01  0.8027952E+05 -0.1491951E+01  0.6408199E+05 -0.2300065E+00  0.6347289E+05  0.1649647E+01
  0.1597619E+01  0.8199871E+05 -0.1485633E+01  0.6259239E+05 -0.2441872E+00  0.6399909E+05  0.1655935E+01
  0.1628572E+01  0.8359747E+05 -0.1479151E+01  0.6112884E+05 -0.2588958E+00  0.6439998E+05  0.1662391E+01
  0.1659524E+01  0.8508442E+05 -0.1472577E+01  0.5969616E+05 -0.2741033E+00  0.6464778E+05  0.1668927E+01
  0.1690476E+01  0.8646805E+05 -0.1465935E+01  0.5828831E+05 -0.2898180E+00  0.6478438E+05  0.1675543E+01
  0.1721429E+01  0.8775375E+05 -0.1459268E+01  0.5690614E+05 -0.3060346E+00  0.6483211E+05  0.1682197E+01
  0.1752381E+01  0.8891193E+05 -0.1452644E+01  0.5555465E+05 -0.3227282E+00  0.6473730E+05  0.1688803E+01
  0.1783333E+01  0.8993921E+05 -0.1446104E+01  0.5422954E+05 -0.3399107E+00  0.6452032E+05  0.1695321E+01
  0.1814286E+01  0.9084222E+05 -0.1439717E+01  0.5293102E+05 -0.3575632E+00  0.6419445E+05  0.1701674E+01
  0.1845238E+01  0.9161341E+05 -0.1433526E+01  0.5165592E+05 -0.3756832E+00  0.6377461E+05  0.1707821E+01
  0.1876190E+01  0.9222002E+05 -0.1427588E+01  0.5041098E+05 -0.3943470E+00  0.6322958E+05  0.1713727E+01
  0.1907143E+01  0.9268097E+05 -0.1422024E+01  0.4919402E+05 -0.4134653E+00  0.6255080E+05  0.1719233E+01
  0.1938095E+01  0.9299190E+05 -0.1416871E+01  0.4800406E+05 -0.4330804E+00  0.6175385E+05  0.1724319E+01
  0.1969048E+01  0.9318047E+05 -0.1412173E+01  0.4683730E+05 -0.4532504E+00  0.6088773E+05  0.1729004E+01
  0.2000000E+01  0.9324370E+05 -0.1408000E+01  0.4569501E+05 -0.4739063E+00  0.5994604E+05  0.1733162E+01
