VARIABLES="w (rad/s)"
"A   1   1" "B   1   1"
"A   1   2" "B   1   2"
"A   1   3" "B   1   3"
Zone t="Motion of body    1 in DoF   1",I=    64,F=POINT
  0.5000000E-01  0.9695429E+04  0.9912915E-04 -0.2765656E-03  0.4514161E-06 -0.5784409E+04 -0.4800383E-04
  0.8095238E-01  0.9731633E+04  0.3900516E-03 -0.3946529E-03 -0.1332643E-05 -0.5814426E+04 -0.1952580E-03
  0.1119048E+00  0.9757458E+04  0.1107473E-02 -0.1704439E-03  0.1173148E-05 -0.5845482E+04 -0.5478667E-03
  0.1428571E+00  0.9789489E+04  0.2485632E-02  0.4940033E-03  0.3214616E-05 -0.5860237E+04 -0.1229451E-02
  0.1738095E+00  0.9795542E+04  0.4940838E-02 -0.8888767E-03  0.1031069E-05 -0.5863061E+04 -0.2424126E-02
  0.2047619E+00  0.9820019E+04  0.9169761E-02  0.1490393E-02  0.8365001E-05 -0.5863380E+04 -0.4470611E-02
  0.2357143E+00  0.9809617E+04  0.1617237E-01 -0.7687192E-03 -0.7065493E-05 -0.5869652E+04 -0.7904250E-02
  0.2666667E+00  0.9825121E+04  0.2764877E-01  0.1523495E-02  0.2337605E-04 -0.5869612E+04 -0.1349411E-01
  0.2976190E+00  0.9844410E+04  0.4647348E-01 -0.2050781E-03 -0.1901877E-05 -0.5866670E+04 -0.2261606E-01
  0.3285715E+00  0.9841404E+04  0.7703179E-01  0.1451243E-02  0.3710930E-04 -0.5873551E+04 -0.3742146E-01
  0.3595238E+00  0.9848457E+04  0.1267461E+00  0.1432406E-02  0.2198294E-04 -0.5874241E+04 -0.6140132E-01
  0.3904762E+00  0.9872652E+04  0.2072073E+00 -0.4298512E-03 -0.1990912E-04 -0.5872457E+04 -0.9991856E-01
  0.4214286E+00  0.9887788E+04  0.3343211E+00  0.1086219E-03  0.4631653E-04 -0.5874878E+04 -0.1606175E+00
  0.4523810E+00  0.9883352E+04  0.5343792E+00  0.0000000E+00 -0.2807938E-05 -0.5879784E+04 -0.2561240E+00
  0.4833333E+00  0.9904101E+04  0.8342457E+00  0.1973119E-02  0.9454228E-04 -0.5881199E+04 -0.3980853E+00
  0.5142857E+00  0.9939683E+04  0.1281687E+01  0.1572503E-02  0.9528548E-04 -0.5881610E+04 -0.6082036E+00
  0.5452381E+00  0.9960795E+04  0.1921483E+01  0.9655016E-03  0.6064773E-04 -0.5889363E+04 -0.9077364E+00
  0.5761905E+00  0.9965752E+04  0.2811464E+01  0.1787548E-02  0.1128353E-03 -0.5892757E+04 -0.1322389E+01
  0.6071429E+00  0.9998366E+04  0.4043302E+01 -0.4209630E-03  0.6739050E-05 -0.5891053E+04 -0.1890260E+01
  0.6380953E+00  0.1003595E+05  0.5688742E+01  0.1554347E-02  0.1401678E-03 -0.5900076E+04 -0.2644501E+01
  0.6690477E+00  0.1006081E+05  0.7864189E+01  0.9350759E-03  0.1802370E-03 -0.5908787E+04 -0.3635887E+01
  0.7000000E+00  0.1007777E+05  0.1070673E+02  0.9809221E-03  0.2875775E-03 -0.5915098E+04 -0.4922462E+01
  0.7309524E+00  0.1010566E+05  0.1435908E+02  0.1252513E-02  0.4479587E-03 -0.5923349E+04 -0.6561433E+01
  0.7619048E+00  0.1013903E+05  0.1901256E+02  0.2042770E-02  0.2498627E-03 -0.5926500E+04 -0.8627057E+01
  0.7928572E+00  0.1018180E+05  0.2488462E+02 -0.6447181E-03 -0.2238750E-03 -0.5934367E+04 -0.1121027E+02
  0.8238096E+00  0.1022902E+05  0.3221516E+02  0.6853224E-03  0.3413856E-03 -0.5943261E+04 -0.1440302E+02
  0.8547620E+00  0.1026214E+05  0.4125011E+02  0.9372041E-03  0.1884699E-03 -0.5957469E+04 -0.1831858E+02
  0.8857143E+00  0.1029100E+05  0.5230272E+02  0.4651470E-03 -0.4625320E-04 -0.5968607E+04 -0.2306168E+02
  0.9166667E+00  0.1032857E+05  0.6573843E+02  0.1331676E-02  0.3564358E-03 -0.5975753E+04 -0.2875171E+02
  0.9476191E+00  0.1038199E+05  0.8197485E+02 -0.4347605E-03  0.7390976E-05 -0.5982371E+04 -0.3552990E+02
  0.9785714E+00  0.1043861E+05  0.1014283E+03  0.6003276E-03  0.6721020E-03 -0.5996332E+04 -0.4358234E+02
  0.1009524E+01  0.1048998E+05  0.1245447E+03  0.2569523E-03  0.2242327E-03 -0.6005208E+04 -0.5302483E+02
  0.1040476E+01  0.1054820E+05  0.1518958E+03 -0.3519647E-03  0.2168417E-03 -0.6020765E+04 -0.6408381E+02
  0.1071429E+01  0.1059929E+05  0.1839791E+03  0.9755453E-03  0.4968643E-03 -0.6032429E+04 -0.7688598E+02
  0.1102381E+01  0.1065259E+05  0.2214329E+03 -0.6367166E-03 -0.1986027E-03 -0.6046325E+04 -0.9165228E+02
  0.1133333E+01  0.1070552E+05  0.2648932E+03 -0.2154182E-03 -0.1778603E-03 -0.6060150E+04 -0.1085655E+03
  0.1164286E+01  0.1075899E+05  0.3150540E+03  0.6028626E-03  0.3485680E-03 -0.6067720E+04 -0.1277486E+03
  0.1195238E+01  0.1082800E+05  0.3728443E+03 -0.1659621E-03 -0.3647804E-03 -0.6081105E+04 -0.1495388E+03
  0.1226190E+01  0.1089416E+05  0.4388914E+03  0.1194630E-02  0.1290798E-02 -0.6088905E+04 -0.1739943E+03
  0.1257143E+01  0.1095904E+05  0.5139734E+03 -0.1456521E-03 -0.6103516E-04 -0.6097812E+04 -0.2013884E+03
  0.1288095E+01  0.1104010E+05  0.5994272E+03  0.1350445E-02  0.1566887E-02 -0.6112913E+04 -0.2320734E+03
  0.1319048E+01  0.1110551E+05  0.6954738E+03  0.1619525E-03  0.2183914E-03 -0.6124368E+04 -0.2660292E+03
  0.1350000E+01  0.1116647E+05  0.8032311E+03  0.3616898E-03  0.8306503E-03 -0.6134820E+04 -0.3034771E+03
  0.1380952E+01  0.1123034E+05  0.9237325E+03 -0.1215442E-02 -0.1184464E-02 -0.6148671E+04 -0.3447074E+03
  0.1411905E+01  0.1119759E+05  0.1042878E+04 -0.4430967E-03 -0.4568100E-03 -0.6149083E+04 -0.3852724E+03
  0.1442857E+01  0.1125987E+05  0.1189025E+04  0.2115080E-04 -0.1583099E-03 -0.6152393E+04 -0.4331923E+03
  0.1473810E+01  0.1132502E+05  0.1350194E+04  0.1056036E-02  0.9155273E-03 -0.6155854E+04 -0.4849908E+03
  0.1504762E+01  0.1138746E+05  0.1527203E+04 -0.7301040E-03 -0.1411438E-03 -0.6160016E+04 -0.5408541E+03
  0.1535714E+01  0.1144266E+05  0.1720476E+04 -0.4769258E-03  0.5550385E-03 -0.6156447E+04 -0.6002107E+03
  0.1566667E+01  0.1149904E+05  0.1931192E+04 -0.1441468E-02 -0.1276016E-02 -0.6156067E+04 -0.6636904E+03
  0.1597619E+01  0.1155396E+05  0.2159756E+04 -0.5253025E-03 -0.3910065E-03 -0.6155665E+04 -0.7309680E+03
  0.1628572E+01  0.1159716E+05  0.2406085E+04  0.1424154E-02  0.1003265E-02 -0.6147199E+04 -0.8012089E+03
  0.1659524E+01  0.1163765E+05  0.2670989E+04 -0.9930254E-03 -0.2647400E-02 -0.6138519E+04 -0.8747489E+03
  0.1690476E+01  0.1167011E+05  0.2954163E+04 -0.2437108E-03  0.1033783E-02 -0.6128673E+04 -0.9511956E+03
  0.1721429E+01  0.1169145E+05  0.3255665E+04 -0.4786575E-03  0.1522064E-02 -0.6118603E+04 -0.1030530E+04
  0.1752381E+01  0.1170179E+05  0.3574644E+04 -0.3744209E-03 -0.1007080E-02 -0.6102965E+04 -0.1111508E+04
  0.1783333E+01  0.1170131E+05  0.3910419E+04 -0.9411963E-03 -0.1628876E-02 -0.6080282E+04 -0.1193406E+04
  0.1814286E+01  0.1169728E+05  0.4263028E+04 -0.6223664E-03 -0.2197266E-02 -0.6059076E+04 -0.1277037E+04
  0.1845238E+01  0.1168627E+05  0.4630942E+04 -0.4630796E-03 -0.1632690E-02 -0.6034680E+04 -0.1360873E+04
  0.1876190E+01  0.1166171E+05  0.5012485E+04 -0.1276859E-02 -0.6866455E-04 -0.6002171E+04 -0.1443587E+04
  0.1907143E+01  0.1163176E+05  0.5407542E+04 -0.3440371E-03  0.7553101E-03 -0.5970351E+04 -0.1525992E+04
  0.1938095E+01  0.1159135E+05  0.5813456E+04 -0.2361926E-03 -0.1754761E-02 -0.5935516E+04 -0.1606403E+04
  0.1969048E+01  0.1154242E+05  0.6229525E+04  0.1239892E-03  0.1754761E-02 -0.5902010E+04 -0.1685343E+04
  0.2000000E+01  0.1147927E+05  0.6653270E+04  0.6561279E-03  0.3814697E-03 -0.5866725E+04 -0.1761755E+04
Zone t="Motion of body    1 in DoF   2",I=    64,F=POINT
  0.5000000E-01  0.4005432E-03  0.2682209E-06  0.8456592E+04  0.1288317E+02  0.1907349E-03 -0.1981854E-05
  0.8095238E-01 -0.2591750E-03 -0.2890825E-05  0.8416358E+04  0.2140576E+02 -0.6361568E-03 -0.1579523E-05
  0.1119048E+00 -0.1704439E-04 -0.1490116E-05  0.8406994E+04  0.3074742E+02 -0.6732535E-03  0.5960464E-05
  0.1428571E+00 -0.6275177E-03 -0.4053116E-05  0.8402997E+04  0.4129637E+02 -0.7543563E-03  0.3576279E-06
  0.1738095E+00  0.6584272E-04  0.3695488E-05  0.8415501E+04  0.5355473E+02 -0.4828466E-03 -0.1186132E-04
  0.2047619E+00  0.5961573E-03  0.1025200E-04  0.8435006E+04  0.6812960E+02 -0.1220260E-02 -0.1490116E-05
  0.2357143E+00 -0.2265699E-03 -0.4291534E-05  0.8468275E+04  0.8591147E+02 -0.1424154E-02 -0.1287460E-04
  0.2666667E+00 -0.5722046E-04  0.2217293E-04  0.8507553E+04  0.1077398E+03  0.7724761E-03 -0.1323223E-04
  0.2976190E+00 -0.1063843E-02 -0.7629395E-05  0.8552740E+04  0.1352371E+03 -0.2178955E-03 -0.2682209E-04
  0.3285715E+00  0.3250785E-03  0.7629395E-05  0.8610255E+04  0.1695758E+03 -0.2101400E-02 -0.1358986E-04
  0.3595238E+00 -0.2970916E-03  0.5149841E-04  0.8664873E+04  0.2128466E+03  0.8276124E-03 -0.2622604E-05
  0.3904762E+00 -0.3712351E-03 -0.4291534E-05  0.8718676E+04  0.2670102E+03 -0.1074628E-03 -0.4935265E-04
  0.4214286E+00  0.1647432E-02  0.1049042E-04  0.8771067E+04  0.3321035E+03 -0.9051823E-05 -0.1382828E-04
  0.4523810E+00  0.1264873E-02 -0.0000000E+00  0.8818809E+04  0.4117363E+03 -0.9022763E-03  0.2861023E-05
  0.4833333E+00 -0.1499571E-02  0.2861023E-04  0.8846844E+04  0.5009421E+03 -0.1815270E-03 -0.8249283E-04
  0.5142857E+00 -0.1082950E-02 -0.1811981E-04  0.8863901E+04  0.6037286E+03 -0.1231300E-02  0.6675720E-05
  0.5452381E+00  0.1315321E-02  0.7057190E-04  0.8877733E+04  0.7161378E+03  0.3848014E-03 -0.5245209E-04
  0.5761905E+00 -0.6885370E-03  0.1296997E-03  0.8877933E+04  0.8370362E+03 -0.5561261E-03 -0.5054474E-04
  0.6071429E+00 -0.2136230E-03 -0.7247925E-04  0.8863782E+04  0.9690599E+03 -0.3769818E-03  0.1211166E-03
  0.6380953E+00  0.2391303E-04 -0.4005432E-04  0.8841850E+04  0.1106964E+04 -0.3826084E-03  0.1316071E-03
  0.6690477E+00  0.6842019E-03 -0.8964539E-04  0.8813807E+04  0.1253406E+04 -0.4105211E-03 -0.8583069E-04
  0.7000000E+00  0.1046317E-02  0.2021790E-03  0.8780457E+04  0.1409059E+04  0.2615792E-03  0.1945496E-03
  0.7309524E+00  0.1503015E-02  0.2098083E-03  0.8742131E+04  0.1571265E+04  0.6262564E-04  0.2861023E-04
  0.7619048E+00 -0.1201629E-03  0.3700256E-03  0.8691551E+04  0.1741021E+04 -0.2223015E-02  0.9727478E-04
  0.7928572E+00 -0.5003783E-03  0.1220703E-03  0.8631126E+04  0.1917995E+04 -0.7986806E-03 -0.1335144E-04
  0.8238096E+00  0.4074890E-03  0.5722046E-04  0.8566897E+04  0.2101236E+04  0.5556668E-04 -0.1087189E-03
  0.8547620E+00  0.8747238E-03  0.2975464E-03  0.8498307E+04  0.2289997E+04 -0.1428121E-03 -0.1564026E-03
  0.8857143E+00 -0.2894248E-02 -0.9536743E-04  0.8425037E+04  0.2483771E+04 -0.4220778E-03 -0.1945496E-03
  0.9166667E+00 -0.1032049E-02  0.4577637E-04  0.8344872E+04  0.2682007E+04 -0.1098633E-02 -0.3585815E-03
  0.9476191E+00 -0.9661343E-04  0.4806519E-03  0.8256956E+04  0.2883968E+04  0.9419810E-03 -0.1564026E-03
  0.9785714E+00  0.1278620E-02 -0.3662109E-03  0.8161619E+04  0.3088902E+04 -0.1949115E-03 -0.2517700E-03
  0.1009524E+01 -0.1874240E-02 -0.3890991E-03  0.8059038E+04  0.3296183E+04  0.2569523E-03 -0.3280640E-03
  0.1040476E+01  0.1305203E-02  0.5340576E-03  0.7955036E+04  0.3504401E+04  0.4839515E-03  0.2288818E-04
  0.1071429E+01 -0.3417969E-03 -0.7400513E-03  0.7848107E+04  0.3713174E+04 -0.3417969E-03 -0.3814697E-05
  0.1102381E+01 -0.1135017E-02 -0.3814697E-04  0.7738762E+04  0.3921657E+04 -0.8789457E-03 -0.7324219E-03
  0.1133333E+01 -0.5250819E-03 -0.3280640E-03  0.7625737E+04  0.4129483E+04 -0.1346364E-02 -0.1144409E-03
  0.1164286E+01 -0.8518710E-03 -0.3204346E-03  0.7507528E+04  0.4336428E+04  0.1769271E-03  0.3128052E-03
  0.1195238E+01 -0.1187267E-02  0.2975464E-03  0.7386952E+04  0.4541074E+04  0.3383074E-03 -0.4043579E-03
  0.1226190E+01  0.4230981E-03  0.9918213E-03  0.7262504E+04  0.4743489E+04 -0.4168760E-03  0.1525879E-03
  0.1257143E+01 -0.3762679E-03  0.2136230E-03  0.7135298E+04  0.4946789E+04  0.1759962E-03  0.2441406E-03
  0.1288095E+01 -0.1160909E-02 -0.3356934E-03  0.7009417E+04  0.5137104E+04 -0.1480751E-02 -0.3280640E-03
  0.1319048E+01 -0.1492276E-02 -0.4425049E-03  0.6881761E+04  0.5327470E+04  0.1214644E-02 -0.3204346E-03
  0.1350000E+01  0.6668656E-03  0.1068115E-02  0.6754585E+04  0.5512621E+04 -0.1412851E-03 -0.5493164E-03
  0.1380952E+01 -0.9281553E-03  0.8239746E-03  0.6629255E+04  0.5691434E+04  0.1546925E-03 -0.2975464E-03
  0.1411905E+01 -0.9186151E-03 -0.4577637E-03  0.6476624E+04  0.5850989E+04 -0.1675122E-03 -0.7629395E-05
  0.1442857E+01 -0.7085517E-03 -0.0000000E+00  0.6351396E+04  0.6019481E+04  0.4864683E-03  0.1831055E-03
  0.1473810E+01  0.1449462E-03 -0.2136230E-03  0.6225917E+04  0.6181979E+04 -0.4244852E-03 -0.1121521E-02
  0.1504762E+01 -0.9531914E-03  0.1373291E-02  0.6101311E+04  0.6338431E+04 -0.2230874E-03 -0.7400513E-03
  0.1535714E+01  0.2782067E-03  0.8087158E-03  0.5975355E+04  0.6489351E+04  0.2980786E-04 -0.5874634E-03
  0.1566667E+01  0.2824499E-03  0.8697510E-03  0.5852045E+04  0.6632821E+04 -0.1266155E-03  0.1525879E-04
  0.1597619E+01 -0.9264427E-03 -0.4882812E-03  0.5730421E+04  0.6768756E+04 -0.8118313E-04  0.4196167E-03
  0.1628572E+01 -0.9369432E-03 -0.2593994E-03  0.5610345E+04  0.6897857E+04  0.1311720E-03  0.1296997E-03
  0.1659524E+01 -0.1930883E-03 -0.2899170E-03  0.5493770E+04  0.7018413E+04  0.1333228E-03  0.4196167E-03
  0.1690476E+01 -0.1444212E-03  0.3967285E-03  0.5379465E+04  0.7131289E+04  0.7085665E-03  0.8392334E-04
  0.1721429E+01 -0.3279690E-03  0.9155273E-04  0.5267967E+04  0.7236761E+04 -0.3058089E-03 -0.6103516E-04
  0.1752381E+01 -0.6965969E-03  0.7781982E-03  0.5158946E+04  0.7335174E+04 -0.4745567E-03  0.2670288E-03
  0.1783333E+01 -0.3422532E-03 -0.6256104E-03  0.5051908E+04  0.7427072E+04  0.4149820E-03 -0.9002686E-03
  0.1814286E+01 -0.2598800E-02 -0.6103516E-03  0.4948489E+04  0.7511358E+04 -0.4499541E-03 -0.6561279E-03
  0.1845238E+01  0.4548104E-03  0.3356934E-03  0.4847291E+04  0.7588542E+04  0.1943281E-03 -0.4577637E-03
  0.1876190E+01  0.5936986E-03 -0.5645752E-03  0.4747943E+04  0.7660091E+04 -0.3334472E-03 -0.3051758E-03
  0.1907143E+01  0.0000000E+00  0.5645752E-03  0.4652205E+04  0.7723826E+04 -0.5880635E-03 -0.1037598E-02
  0.1938095E+01 -0.2204464E-03 -0.1251221E-02  0.4558608E+04  0.7781199E+04 -0.4015274E-03 -0.1678467E-03
  0.1969048E+01  0.1239892E-03  0.1785278E-02  0.4468102E+04  0.7830994E+04  0.3215970E-03  0.1068115E-03
  0.2000000E+01 -0.5874634E-03  0.6103516E-04  0.4380874E+04  0.7875375E+04 -0.5836487E-03  0.2441406E-03
Zone t="Motion of body    1 in DoF   3",I=    64,F=POINT
  0.5000000E-01 -0.5781487E+04 -0.4900345E-04 -0.7495284E-03 -0.1576036E-05  0.9466059E+04  0.1994790E-04
  0.8095238E-01 -0.5812338E+04 -0.1946505E-03 -0.1174019E-02 -0.3850817E-05  0.9499480E+04  0.1052478E-03
  0.1119048E+00 -0.5844661E+04 -0.5483624E-03 -0.9278541E-03 -0.3686488E-05  0.9521290E+04  0.2688003E-03
  0.1428571E+00 -0.5861193E+04 -0.1224977E-02 -0.2269745E-03 -0.2908765E-05  0.9523771E+04  0.6073423E-03
  0.1738095E+00 -0.5864427E+04 -0.2415205E-02  0.2078161E-03 -0.1274755E-05  0.9523363E+04  0.1189433E-02
  0.2047619E+00 -0.5865124E+04 -0.4460973E-02 -0.4203375E-03 -0.4867856E-05  0.9524248E+04  0.2152578E-02
  0.2357143E+00 -0.5871303E+04 -0.7875715E-02  0.1523784E-02  0.1604400E-04  0.9523771E+04  0.3833905E-02
  0.2666667E+00 -0.5871875E+04 -0.1345073E-01 -0.8001923E-03 -0.2478869E-04  0.9523041E+04  0.6567655E-02
  0.2976190E+00 -0.5868352E+04 -0.2255954E-01 -0.7766533E-03 -0.1331000E-04  0.9525055E+04  0.1097961E-01
  0.3285715E+00 -0.5875566E+04 -0.3728495E-01 -0.5717899E-03 -0.1225801E-04  0.9523474E+04  0.1812071E-01
  0.3595238E+00 -0.5876066E+04 -0.6116845E-01 -0.5908675E-03 -0.2520520E-04  0.9523716E+04  0.2965152E-01
  0.3904762E+00 -0.5874973E+04 -0.9963515E-01 -0.4011538E-03 -0.8351519E-05  0.9522579E+04  0.4805888E-01
  0.4214286E+00 -0.5876991E+04 -0.1601576E+00  0.8831185E-03  0.2209935E-04  0.9524830E+04  0.7692333E-01
  0.4523810E+00 -0.5881200E+04 -0.2551661E+00  0.3138467E-03  0.6304821E-05  0.9525135E+04  0.1223147E+00
  0.4833333E+00 -0.5883175E+04 -0.3967606E+00 -0.1422619E-02 -0.8200435E-04  0.9523964E+04  0.1893751E+00
  0.5142857E+00 -0.5883620E+04 -0.6069111E+00 -0.1882646E-02 -0.1196237E-03  0.9527067E+04  0.2880041E+00
  0.5452381E+00 -0.5891651E+04 -0.9055282E+00 -0.3109020E-03 -0.5076081E-04  0.9528286E+04  0.4276860E+00
  0.5761905E+00 -0.5893410E+04 -0.1318469E+01 -0.1485072E-02 -0.1145033E-03  0.9532811E+04  0.6200547E+00
  0.6071429E+00 -0.5891225E+04 -0.1886793E+01 -0.9177151E-03 -0.1195502E-03  0.9536475E+04  0.8822108E+00
  0.6380953E+00 -0.5901737E+04 -0.2640237E+01 -0.1148573E-02 -0.5770475E-04  0.9535583E+04  0.1227422E+01
  0.6690477E+00 -0.5911019E+04 -0.3628581E+01 -0.2027304E-02 -0.3031492E-03  0.9535826E+04  0.1677735E+01
  0.7000000E+00 -0.5916220E+04 -0.4910155E+01 -0.1920632E-02 -0.3009029E-03  0.9539929E+04  0.2257830E+01
  0.7309524E+00 -0.5923780E+04 -0.6543698E+01 -0.1167707E-02 -0.2658144E-03  0.9544501E+04  0.2990456E+01
  0.7619048E+00 -0.5926920E+04 -0.8607864E+01 -0.1694485E-02 -0.3034025E-03  0.9546413E+04  0.3906050E+01
  0.7928572E+00 -0.5935367E+04 -0.1118937E+02 -0.1065409E-02 -0.2575517E-03  0.9547912E+04  0.5040830E+01
  0.8238096E+00 -0.5945186E+04 -0.1438140E+02 -0.2166811E-02 -0.7016212E-03  0.9548686E+04  0.6429892E+01
  0.8547620E+00 -0.5959643E+04 -0.1827427E+02 -0.9187948E-03 -0.3227890E-03  0.9550494E+04  0.8115710E+01
  0.8857143E+00 -0.5969719E+04 -0.2298908E+02  0.5004098E-03  0.1373887E-03  0.9555511E+04  0.1013718E+02
  0.9166667E+00 -0.5975751E+04 -0.2866373E+02 -0.1249227E-02 -0.5780458E-03  0.9560931E+04  0.1253694E+02
  0.9476191E+00 -0.5982491E+04 -0.3544855E+02  0.1109293E-02  0.1287460E-03  0.9564357E+04  0.1536362E+02
  0.9785714E+00 -0.5997123E+04 -0.4348054E+02 -0.6105604E-03 -0.1405478E-03  0.9567469E+04  0.1868072E+02
  0.1009524E+01 -0.6006503E+04 -0.5291314E+02 -0.2547323E-02 -0.1252949E-02  0.9568427E+04  0.2252451E+02
  0.1040476E+01 -0.6022537E+04 -0.6392721E+02 -0.3026988E-03 -0.4202724E-03  0.9570994E+04  0.2696785E+02
  0.1071429E+01 -0.6033979E+04 -0.7667906E+02 -0.1171366E-02 -0.5768538E-03  0.9574798E+04  0.3204618E+02
  0.1102381E+01 -0.6047542E+04 -0.9135574E+02 -0.6464490E-03 -0.1976490E-03  0.9576247E+04  0.3781913E+02
  0.1133333E+01 -0.6060366E+04 -0.1081652E+03 -0.1022605E-02 -0.4434586E-03  0.9582396E+04  0.4433784E+02
  0.1164286E+01 -0.6067445E+04 -0.1273127E+03 -0.1145316E-02 -0.6175041E-03  0.9585890E+04  0.5162247E+02
  0.1195238E+01 -0.6080965E+04 -0.1490364E+03  0.9072064E-03  0.5602837E-03  0.9589058E+04  0.5976022E+02
  0.1226190E+01 -0.6089111E+04 -0.1735043E+03 -0.1468010E-03 -0.9155273E-04  0.9591089E+04  0.6875507E+02
  0.1257143E+01 -0.6098552E+04 -0.2008455E+03  0.1649965E-03 -0.2217293E-04  0.9592076E+04  0.7865705E+02
  0.1288095E+01 -0.6114125E+04 -0.2314363E+03  0.4072066E-05  0.2458096E-03  0.9592078E+04  0.8956042E+02
  0.1319048E+01 -0.6125741E+04 -0.2651932E+03  0.1475376E-02  0.1733541E-02  0.9592624E+04  0.1014131E+03
  0.1350000E+01 -0.6136022E+04 -0.3023457E+03  0.3540957E-04 -0.5750656E-03  0.9593168E+04  0.1142439E+03
  0.1380952E+01 -0.6149025E+04 -0.3430512E+03 -0.5686592E-04  0.5211830E-03  0.9593964E+04  0.1280621E+03
  0.1411905E+01 -0.6208818E+04 -0.3930464E+03 -0.1511325E-03 -0.9870529E-04  0.9598323E+04  0.1452571E+03
  0.1442857E+01 -0.6212271E+04 -0.4422658E+03 -0.8069525E-03 -0.1683235E-02  0.9600116E+04  0.1611489E+03
  0.1473810E+01 -0.6216310E+04 -0.4954033E+03 -0.9252451E-03 -0.6637573E-03  0.9597434E+04  0.1778753E+03
  0.1504762E+01 -0.6221075E+04 -0.5525978E+03  0.1092463E-03 -0.4243851E-03  0.9597221E+04  0.1955226E+03
  0.1535714E+01 -0.6218732E+04 -0.6137061E+03 -0.3678632E-03 -0.1001358E-02  0.9591530E+04  0.2137970E+03
  0.1566667E+01 -0.6219143E+04 -0.6787986E+03 -0.6056846E-04 -0.1716614E-04  0.9588492E+04  0.2328973E+03
  0.1597619E+01 -0.6219205E+04 -0.7475139E+03  0.7534809E-03  0.3585815E-03  0.9582987E+04  0.2525379E+03
  0.1628572E+01 -0.6211810E+04 -0.8199208E+03  0.5599699E-03  0.7143021E-03  0.9577377E+04  0.2725940E+03
  0.1659524E+01 -0.6203662E+04 -0.8956072E+03  0.2228273E-03  0.3719330E-03  0.9572352E+04  0.2930137E+03
  0.1690476E+01 -0.6194072E+04 -0.9737271E+03  0.2597889E-03  0.6198883E-04  0.9563040E+04  0.3134381E+03
  0.1721429E+01 -0.6183625E+04 -0.1054330E+04 -0.5738073E-03 -0.1455307E-02  0.9555543E+04  0.3339279E+03
  0.1752381E+01 -0.6167660E+04 -0.1137135E+04 -0.6861888E-03 -0.1472473E-02  0.9548013E+04  0.3540463E+03
  0.1783333E+01 -0.6145163E+04 -0.1221897E+04  0.3974683E-03  0.1010895E-03  0.9539425E+04  0.3734503E+03
  0.1814286E+01 -0.6123607E+04 -0.1307878E+04 -0.9819748E-04  0.2460480E-03  0.9532100E+04  0.3922745E+03
  0.1845238E+01 -0.6098640E+04 -0.1393879E+04  0.8284865E-03  0.1333237E-02  0.9520996E+04  0.4097513E+03
  0.1876190E+01 -0.6066649E+04 -0.1480298E+04  0.7618200E-04 -0.1506805E-03  0.9509880E+04  0.4261755E+03
  0.1907143E+01 -0.6034819E+04 -0.1565718E+04  0.3225348E-04  0.1296997E-03  0.9498873E+04  0.4414447E+03
  0.1938095E+01 -0.5999969E+04 -0.1648754E+04  0.1455291E-03 -0.1773834E-03  0.9484403E+04  0.4549419E+03
  0.1969048E+01 -0.5965765E+04 -0.1728811E+04 -0.3864976E-03 -0.7228851E-03  0.9469190E+04  0.4667976E+03
  0.2000000E+01 -0.5930065E+04 -0.1806678E+04 -0.9584427E-04 -0.7686615E-03  0.9457565E+04  0.4774982E+03
