VARIABLES="w (rad/s)"
"A   1   1" "B   1   1"
"A   1   2" "B   1   2"
"A   1   3" "B   1   3"
Zone t="Motion of body    1 in DoF   1",I=    64,F=POINT
  0.5000000E-01  0.8655488E+05  0.6806216E-02 -0.1617432E-01 -0.5136822E-04 -0.1294842E+06 -0.8866295E-02
  0.8095238E-01  0.8702409E+05  0.2982851E-01  0.7492514E-02 -0.6401184E-05 -0.1301511E+06 -0.3847216E-01
  0.1119048E+00  0.8725306E+05  0.8369884E-01 -0.3613411E-02 -0.4079432E-04 -0.1302773E+06 -0.1072168E+00
  0.1428571E+00  0.8732878E+05  0.1881973E+00  0.3578186E-02 -0.9002164E-05 -0.1303201E+06 -0.2409001E+00
  0.1738095E+00  0.8753157E+05  0.3743344E+00  0.1053483E-02  0.1940411E-04 -0.1304346E+06 -0.4779522E+00
  0.2047619E+00  0.8750696E+05  0.6890910E+00 -0.1110343E-01 -0.9354251E-04 -0.1304796E+06 -0.8784013E+00
  0.2357143E+00  0.8781596E+05  0.1212116E+01  0.6473425E-04 -0.6932672E-04 -0.1304832E+06 -0.1537753E+01
  0.2666667E+00  0.8785355E+05  0.2062844E+01  0.2059937E-02  0.1462176E-04 -0.1306703E+06 -0.2609105E+01
  0.2976190E+00  0.8795365E+05  0.3451599E+01 -0.1333008E-02 -0.1829490E-03 -0.1307467E+06 -0.4349656E+01
  0.3285715E+00  0.8831290E+05  0.5700922E+01  0.8916439E-02  0.2134368E-03 -0.1307873E+06 -0.7139711E+01
  0.3595238E+00  0.8853072E+05  0.9335433E+01 -0.4838349E-02  0.1501814E-03 -0.1309816E+06 -0.1163093E+02
  0.3904762E+00  0.8862901E+05  0.1516324E+02 -0.8675179E-02 -0.2741665E-03 -0.1311060E+06 -0.1879310E+02
  0.4214286E+00  0.8903567E+05  0.2432920E+02 -0.1346911E-01 -0.5258620E-03 -0.1312909E+06 -0.2994229E+02
  0.4523810E+00  0.8939495E+05  0.3868133E+02  0.1558324E-01  0.7862151E-03 -0.1315134E+06 -0.4727925E+02
  0.4833333E+00  0.8971716E+05  0.5994771E+02  0.2967571E-02  0.4664660E-03 -0.1317781E+06 -0.7274353E+02
  0.5142857E+00  0.8995734E+05  0.9132615E+02  0.1364814E-02  0.1166224E-02 -0.1319802E+06 -0.1100210E+03
  0.5452381E+00  0.9047434E+05  0.1359451E+03  0.3694093E-02 -0.1161098E-03 -0.1322163E+06 -0.1623129E+03
  0.5761905E+00  0.9103864E+05  0.1975963E+03  0.2807112E-02  0.1264095E-02 -0.1326275E+06 -0.2338243E+03
  0.6071429E+00  0.9147574E+05  0.2817012E+03  0.8042278E-03  0.2310276E-03 -0.1330515E+06 -0.3305107E+03
  0.6380953E+00  0.9191192E+05  0.3926028E+03 -0.7269560E-02 -0.1900673E-02 -0.1333275E+06 -0.4561988E+03
  0.6690477E+00  0.9252403E+05  0.5379543E+03  0.9122692E-04 -0.2319336E-02 -0.1337246E+06 -0.6186302E+03
  0.7000000E+00  0.9321526E+05  0.7261444E+03 -0.8806501E-02 -0.3469467E-02 -0.1341907E+06 -0.8260925E+03
  0.7309524E+00  0.9393402E+05  0.9648495E+03  0.0000000E+00  0.1277924E-03 -0.1345927E+06 -0.1084948E+04
  0.7619048E+00  0.9464217E+05  0.1264667E+04  0.1065445E-01  0.3267288E-02 -0.1351795E+06 -0.1406172E+04
  0.7928572E+00  0.9523723E+05  0.1636215E+04 -0.5850576E-02 -0.3557205E-02 -0.1356069E+06 -0.1797880E+04
  0.8238096E+00  0.9597784E+05  0.2093128E+04 -0.5260313E-02 -0.5645752E-02 -0.1360539E+06 -0.2270719E+04
  0.8547620E+00  0.9686932E+05  0.2649426E+04  0.1392418E-01  0.2004623E-02 -0.1364743E+06 -0.2834458E+04
  0.8857143E+00  0.9777921E+05  0.3319578E+04  0.5512853E-03  0.1296997E-02 -0.1370344E+06 -0.3503017E+04
  0.9166667E+00  0.9861467E+05  0.4118059E+04  0.3395774E-02 -0.2807617E-02 -0.1374578E+06 -0.4283313E+04
  0.9476191E+00  0.9945198E+05  0.5061935E+04  0.1391234E-01  0.1091003E-01 -0.1379331E+06 -0.5188246E+04
  0.9785714E+00  0.1002338E+06  0.6166353E+04  0.1066556E-01  0.4844666E-02 -0.1383020E+06 -0.6223334E+04
  0.1009524E+01  0.1010285E+06  0.7447514E+04  0.6710988E-02  0.4844666E-02 -0.1386565E+06 -0.7397774E+04
  0.1040476E+01  0.1017550E+06  0.8919044E+04 -0.2111788E-02 -0.1838684E-02 -0.1388313E+06 -0.8712777E+04
  0.1071429E+01  0.1025395E+06  0.1060021E+05 -0.5013021E-02 -0.8285522E-02 -0.1390275E+06 -0.1017961E+05
  0.1102381E+01  0.1032497E+06  0.1250029E+05 -0.8304999E-02 -0.9963989E-02 -0.1390835E+06 -0.1179225E+05
  0.1133333E+01  0.1039129E+06  0.1463101E+05 -0.3231273E-03 -0.2716064E-02 -0.1390570E+06 -0.1354923E+05
  0.1164286E+01  0.1044662E+06  0.1699818E+05 -0.2725987E-02  0.2868652E-02 -0.1389953E+06 -0.1544894E+05
  0.1195238E+01  0.1047952E+06  0.1959984E+05 -0.1511532E-01 -0.2227783E-01 -0.1387265E+06 -0.1746883E+05
  0.1226190E+01  0.1049601E+06  0.2243618E+05 -0.4678967E-02 -0.1708984E-01 -0.1383442E+06 -0.1959895E+05
  0.1257143E+01  0.1049493E+06  0.2550448E+05  0.5826083E-03 -0.6103516E-04 -0.1378013E+06 -0.2182177E+05
  0.1288095E+01  0.1048438E+06  0.2875752E+05  0.1080356E-01  0.1226807E-01 -0.1370196E+06 -0.2406776E+05
  0.1319048E+01  0.1045781E+06  0.3220648E+05 -0.2221063E-02 -0.2026367E-01 -0.1361064E+06 -0.2635224E+05
  0.1350000E+01  0.1041345E+06  0.3582441E+05  0.1175492E-02  0.9613037E-02 -0.1351628E+06 -0.2866088E+05
  0.1380952E+01  0.1034451E+06  0.3956861E+05  0.2209894E-02  0.9155273E-03 -0.1339924E+06 -0.3091760E+05
  0.1411905E+01  0.1019133E+06  0.4290570E+05 -0.6311426E-02 -0.4028320E-02 -0.1326389E+06 -0.3280512E+05
  0.1442857E+01  0.1009058E+06  0.4677272E+05 -0.3384128E-02 -0.1104736E-01 -0.1313624E+06 -0.3489338E+05
  0.1473810E+01  0.9964347E+05  0.5063356E+05 -0.6460458E-02 -0.2136230E-02 -0.1298055E+06 -0.3679384E+05
  0.1504762E+01  0.9826593E+05  0.5446562E+05 -0.1297963E-02  0.1770020E-02 -0.1282258E+06 -0.3853412E+05
  0.1535714E+01  0.9675423E+05  0.5822334E+05 -0.4292333E-02 -0.1489258E-01 -0.1266308E+06 -0.4007852E+05
  0.1566667E+01  0.9506756E+05  0.6188060E+05  0.5610040E-02  0.9704590E-02 -0.1250466E+06 -0.4143894E+05
  0.1597619E+01  0.9320137E+05  0.6536133E+05 -0.6112612E-02 -0.1397705E-01 -0.1232816E+06 -0.4247959E+05
  0.1628572E+01  0.9125879E+05  0.6867259E+05  0.3298040E-02  0.8300781E-02 -0.1216192E+06 -0.4332299E+05
  0.1659524E+01  0.8928214E+05  0.7178409E+05 -0.2133165E-02 -0.1965332E-01 -0.1200613E+06 -0.4394183E+05
  0.1690476E+01  0.8719102E+05  0.7463042E+05 -0.2310739E-02 -0.7202148E-02 -0.1184073E+06 -0.4422928E+05
  0.1721429E+01  0.8509946E+05  0.7723377E+05 -0.9573149E-02 -0.6347656E-02 -0.1168690E+06 -0.4429551E+05
  0.1752381E+01  0.8300766E+05  0.7956052E+05 -0.6269373E-02 -0.1330566E-01 -0.1153865E+06 -0.4407703E+05
  0.1783333E+01  0.8094703E+05  0.8164091E+05 -0.1848167E-02 -0.1220703E-03 -0.1140701E+06 -0.4368761E+05
  0.1814286E+01  0.7888840E+05  0.8345812E+05  0.5382628E-03  0.1220703E-03 -0.1128501E+06 -0.4312159E+05
  0.1845238E+01  0.7681970E+05  0.8496178E+05 -0.7938508E-03 -0.5004883E-02 -0.1115695E+06 -0.4219720E+05
  0.1876190E+01  0.7484127E+05  0.8624014E+05  0.2472389E-02 -0.5371094E-02 -0.1104809E+06 -0.4120191E+05
  0.1907143E+01  0.7296223E+05  0.8730348E+05  0.3840415E-03 -0.1245117E-01 -0.1095706E+06 -0.4011241E+05
  0.1938095E+01  0.7113423E+05  0.8810502E+05  0.8817856E-03 -0.2929688E-02 -0.1087000E+06 -0.3882620E+05
  0.1969048E+01  0.6936293E+05  0.8866564E+05  0.1363881E-02 -0.1464844E-02 -0.1078857E+06 -0.3738027E+05
  0.2000000E+01  0.6770310E+05  0.8902824E+05 -0.2563477E-02  0.5981445E-02 -0.1072088E+06 -0.3587753E+05
Zone t="Motion of body    1 in DoF   2",I=    64,F=POINT
  0.5000000E-01 -0.8392334E-02 -0.2384186E-05  0.6465199E+05  0.1984555E+03 -0.2822876E-01 -0.3576279E-04
  0.8095238E-01 -0.1884909E-03  0.2098083E-04  0.6376079E+05  0.3291161E+03  0.3845215E-01 -0.5149841E-04
  0.1119048E+00 -0.1772617E-02 -0.7629395E-05  0.6326205E+05  0.4714279E+03 -0.1036299E-01 -0.1649857E-03
  0.1428571E+00 -0.5447387E-02  0.7247925E-04  0.6304801E+05  0.6308058E+03 -0.7797241E-02  0.2107620E-03
  0.1738095E+00  0.7901127E-02 -0.1144409E-03  0.6298788E+05  0.8140915E+03 -0.3511612E-03  0.3814697E-04
  0.2047619E+00 -0.5961573E-02 -0.6484985E-04  0.6310519E+05  0.1029901E+04  0.1102891E-01  0.1926422E-03
  0.2357143E+00  0.4919803E-02 -0.2517700E-03  0.6329269E+05  0.1290256E+04  0.1398260E-01 -0.6656647E-03
  0.2666667E+00  0.6637573E-02  0.3089905E-03  0.6359805E+05  0.1605329E+04 -0.9269713E-02  0.9155273E-04
  0.2976190E+00  0.5126953E-02  0.6866455E-04  0.6397107E+05  0.1997948E+04 -0.1394531E-01  0.1907349E-04
  0.3285715E+00  0.1151707E-01  0.1487732E-03  0.6438281E+05  0.2480278E+04  0.6501570E-02  0.5378723E-03
  0.3595238E+00 -0.5092999E-02 -0.1754761E-03  0.6476361E+05  0.3079713E+04  0.2427663E-01 -0.8239746E-03
  0.3904762E+00 -0.7346548E-02 -0.1266479E-02  0.6519429E+05  0.3816948E+04  0.3188714E-01 -0.6256104E-03
  0.4214286E+00 -0.1361394E-01  0.8773804E-03  0.6538957E+05  0.4685285E+04  0.9848383E-02  0.9384155E-03
  0.4523810E+00  0.1753957E-02 -0.3967285E-03  0.6547058E+05  0.5729160E+04 -0.6745990E-03  0.6103516E-04
  0.4833333E+00 -0.4546067E-02 -0.3814697E-03  0.6537110E+05  0.6865026E+04  0.5935143E-02  0.2899170E-03
  0.5142857E+00 -0.1898872E-02 -0.3051758E-04  0.6506973E+05  0.8145763E+04  0.1293606E-01  0.1388550E-02
  0.5452381E+00 -0.2350786E-02  0.1205444E-02  0.6457889E+05  0.9503631E+04 -0.1197782E-01  0.3814697E-03
  0.5761905E+00 -0.1377074E-02  0.3051758E-04  0.6390312E+05  0.1091512E+05 -0.3294385E-01  0.2288818E-02
  0.6071429E+00 -0.2211627E-02 -0.1220703E-02  0.6310050E+05  0.1240940E+05 -0.1507927E-02  0.1312256E-02
  0.6380953E+00  0.4208693E-02  0.4028320E-02  0.6226442E+05  0.1390866E+05 -0.2066085E-01  0.4608154E-02
  0.6690477E+00 -0.7298153E-03 -0.2136230E-03  0.6128202E+05  0.1544260E+05  0.1605594E-01 -0.4577637E-02
  0.7000000E+00 -0.1220703E-02  0.1220703E-03  0.6016495E+05  0.1701585E+05 -0.4359654E-02 -0.1312256E-02
  0.7309524E+00 -0.5845060E-02  0.3417969E-02  0.5902112E+05  0.1858333E+05 -0.4008041E-02  0.4211426E-02
  0.7619048E+00 -0.1762390E-01 -0.0000000E+00  0.5784309E+05  0.2014852E+05  0.1265716E-01  0.1220703E-03
  0.7928572E+00  0.5850576E-02 -0.1892090E-02  0.5659574E+05  0.2171153E+05  0.5234726E-02 -0.5187988E-02
  0.8238096E+00  0.5927113E-03 -0.5187988E-02  0.5530384E+05  0.2325869E+05  0.2015219E-01  0.5737305E-02
  0.8547620E+00 -0.1842275E-01  0.5126953E-02  0.5397788E+05  0.2477736E+05  0.7426227E-02  0.6103516E-03
  0.8857143E+00  0.9096207E-02 -0.1525879E-02  0.5261342E+05  0.2625954E+05  0.5237210E-02 -0.3601074E-02
  0.9166667E+00  0.1185192E-01 -0.1403809E-02  0.5122948E+05  0.2769678E+05 -0.9321733E-03  0.9582520E-02
  0.9476191E+00  0.6183260E-02 -0.3845215E-02  0.4984746E+05  0.2907754E+05 -0.2962812E-02 -0.1428223E-01
  0.9785714E+00  0.2494868E-03 -0.5432129E-02  0.4847638E+05  0.3039641E+05 -0.2993841E-02  0.1013184E-01
  0.1009524E+01  0.1330106E-02 -0.2014160E-02  0.4711126E+05  0.3165086E+05 -0.4111236E-02  0.6835938E-02
  0.1040476E+01  0.1173216E-03  0.6469727E-02  0.4574066E+05  0.3284454E+05 -0.8799119E-02 -0.1037598E-02
  0.1071429E+01  0.3304037E-02  0.2075195E-02  0.4438851E+05  0.3396424E+05  0.8544922E-02  0.5126953E-02
  0.1102381E+01 -0.5868866E-02 -0.6591797E-02  0.4304949E+05  0.3501155E+05  0.1051967E-01 -0.1464844E-02
  0.1133333E+01 -0.8078182E-02  0.7446289E-02  0.4173956E+05  0.3597662E+05  0.1766429E-01 -0.5737305E-02
  0.1164286E+01 -0.1362994E-02 -0.6713867E-02  0.4047295E+05  0.3685388E+05 -0.1362994E-02  0.1171875E-01
  0.1195238E+01 -0.1051945E-01 -0.3906250E-02  0.3924052E+05  0.3765245E+05  0.2461346E-01 -0.5126953E-02
  0.1226190E+01 -0.1692392E-02 -0.8544922E-02  0.3806042E+05  0.3836569E+05  0.2190155E-02 -0.7934570E-02
  0.1257143E+01  0.5146373E-02  0.1831055E-02  0.3692570E+05  0.3902060E+05  0.2815940E-02  0.5249023E-02
  0.1288095E+01  0.2369202E-02 -0.3417969E-02  0.3582194E+05  0.3955652E+05 -0.1203555E-01 -0.3906250E-02
  0.1319048E+01  0.8328985E-03  0.1220703E-03  0.3476225E+05  0.4003766E+05  0.6385555E-02  0.3051758E-02
  0.1350000E+01  0.5425347E-02  0.4150391E-02  0.3375077E+05  0.4044546E+05  0.2803096E-02 -0.5004883E-02
  0.1380952E+01 -0.1034230E-01 -0.3662109E-02  0.3277595E+05  0.4078257E+05  0.2828664E-02  0.2075195E-02
  0.1411905E+01  0.4582268E-02 -0.3906250E-02  0.3172250E+05  0.4104907E+05 -0.2593737E-03 -0.1098633E-02
  0.1442857E+01 -0.1091381E-01  0.7324219E-03  0.3085087E+05  0.4124642E+05  0.1099841E-02 -0.1708984E-01
  0.1473810E+01 -0.1192700E-01 -0.9765625E-03  0.3001629E+05  0.4138696E+05  0.1027047E-01 -0.2685547E-02
  0.1504762E+01  0.1054595E-02 -0.6347656E-02  0.2923615E+05  0.4146013E+05 -0.3407152E-02 -0.1831055E-02
  0.1535714E+01 -0.2941043E-02  0.1098633E-02  0.2849926E+05  0.4146817E+05  0.6120548E-02 -0.1098633E-01
  0.1566667E+01  0.1324593E-02  0.2807617E-02  0.2781081E+05  0.4143424E+05 -0.1168758E-03  0.5737305E-02
  0.1597619E+01 -0.3285529E-02 -0.4760742E-02  0.2714603E+05  0.4135083E+05  0.1910191E-03  0.1220703E-03
  0.1628572E+01  0.2735874E-02  0.1586914E-02  0.2653440E+05  0.4122261E+05 -0.1023142E-01  0.5615234E-02
  0.1659524E+01  0.9194679E-03 -0.2441406E-03  0.2596853E+05  0.4103764E+05  0.4450225E-02 -0.6347656E-02
  0.1690476E+01  0.2455160E-02  0.9887695E-02  0.2542970E+05  0.4082285E+05  0.4368742E-02  0.1220703E-02
  0.1721429E+01  0.1099139E-02 -0.3662109E-03  0.2493561E+05  0.4056509E+05 -0.1205508E-02 -0.5981445E-02
  0.1752381E+01 -0.6130053E-02 -0.5493164E-02  0.2447452E+05  0.4026364E+05  0.1236460E-01  0.7080078E-02
  0.1783333E+01 -0.6605487E-02 -0.2563477E-02  0.2405522E+05  0.3992809E+05  0.4996897E-02  0.9521484E-02
  0.1814286E+01 -0.2455824E-02 -0.4150391E-02  0.2366943E+05  0.3958032E+05 -0.5214421E-02  0.2319336E-02
  0.1845238E+01 -0.1455393E-02 -0.2075195E-02  0.2329665E+05  0.3919837E+05  0.2083858E-02 -0.3662109E-03
  0.1876190E+01 -0.2082011E-02 -0.7812500E-02  0.2296369E+05  0.3879382E+05 -0.3155549E-02  0.2929688E-02
  0.1907143E+01 -0.5088549E-02  0.2929688E-02  0.2266678E+05  0.3835714E+05 -0.2880311E-02 -0.4882812E-03
  0.1938095E+01  0.4723851E-03  0.8544922E-03  0.2238979E+05  0.3790312E+05  0.5038775E-02  0.1708984E-02
  0.1969048E+01  0.3378706E-02 -0.5737305E-02  0.2213386E+05  0.3743299E+05  0.5765498E-02  0.5493164E-02
  0.2000000E+01  0.2655029E-02 -0.2319336E-02  0.2190583E+05  0.3693882E+05 -0.1037598E-02 -0.6591797E-02
Zone t="Motion of body    1 in DoF   3",I=    64,F=POINT
  0.5000000E-01 -0.1293204E+06 -0.8805624E-02  0.3055573E-01  0.5322155E-04  0.4375231E+06  0.1196780E-01
  0.8095238E-01 -0.1300508E+06 -0.3827123E-01  0.3722696E-02  0.1366425E-05  0.4380604E+06  0.4966429E-01
  0.1119048E+00 -0.1301946E+06 -0.1068006E+00 -0.2897547E-01 -0.2576285E-03  0.4381772E+06  0.1367420E+00
  0.1428571E+00 -0.1302348E+06 -0.2398384E+00  0.1855850E-01  0.1610217E-03  0.4382118E+06  0.3066252E+00
  0.1738095E+00 -0.1303659E+06 -0.4760169E+00  0.6178242E-02  0.1023323E-03  0.4382643E+06  0.6068398E+00
  0.2047619E+00 -0.1303917E+06 -0.8743271E+00  0.1975703E-01  0.1450181E-03  0.4383541E+06  0.1114635E+01
  0.2357143E+00 -0.1303974E+06 -0.1532157E+01  0.3548246E-01  0.6094798E-03  0.4384304E+06  0.1943956E+01
  0.2666667E+00 -0.1305921E+06 -0.2597115E+01  0.8146763E-02  0.6578490E-04  0.4384486E+06  0.3285112E+01
  0.2976190E+00 -0.1306542E+06 -0.4328360E+01  0.8036499E-02  0.1386143E-03  0.4385375E+06  0.5455462E+01
  0.3285715E+00 -0.1306894E+06 -0.7112630E+01 -0.7244607E-02 -0.2830774E-03  0.4387146E+06  0.8907063E+01
  0.3595238E+00 -0.1308966E+06 -0.1158376E+02  0.9029464E-02  0.4917607E-03  0.4387285E+06  0.1442966E+02
  0.3904762E+00 -0.1309918E+06 -0.1870360E+02  0.3272731E-02 -0.4465878E-04  0.4389496E+06  0.2317959E+02
  0.4214286E+00 -0.1311850E+06 -0.2982149E+02 -0.4779363E-02 -0.5685985E-03  0.4391124E+06  0.3669866E+02
  0.4523810E+00 -0.1314181E+06 -0.4709780E+02  0.7302535E-02 -0.1980066E-03  0.4392226E+06  0.5758164E+02
  0.4833333E+00 -0.1316857E+06 -0.7244139E+02 -0.4048841E-02  0.1782775E-03  0.4393619E+06  0.8790212E+02
  0.5142857E+00 -0.1318579E+06 -0.1095284E+03 -0.5548266E-02  0.2287626E-03  0.4396940E+06  0.1319444E+03
  0.5452381E+00 -0.1320986E+06 -0.1617124E+03  0.4029919E-02  0.1214862E-02  0.4399422E+06  0.1930807E+03
  0.5761905E+00 -0.1325329E+06 -0.2329649E+03 -0.1778279E-01 -0.2347708E-02  0.4401382E+06  0.2756538E+03
  0.6071429E+00 -0.1329534E+06 -0.3290509E+03 -0.1780611E-01 -0.5018234E-02  0.4404290E+06  0.3861768E+03
  0.6380953E+00 -0.1332018E+06 -0.4541591E+03  0.8249994E-02  0.1878738E-02  0.4407972E+06  0.5277387E+03
  0.6690477E+00 -0.1335978E+06 -0.6159661E+03 -0.2939788E-01 -0.9422302E-02  0.4411290E+06  0.7083063E+03
  0.7000000E+00 -0.1340742E+06 -0.8225984E+03  0.1978193E-01  0.6502151E-02  0.4414525E+06  0.9358259E+03
  0.7309524E+00 -0.1344825E+06 -0.1080806E+04 -0.1360020E-01 -0.4899979E-02  0.4417756E+06  0.1215226E+04
  0.7619048E+00 -0.1350687E+06 -0.1399654E+04  0.8401393E-02  0.2670288E-03  0.4421117E+06  0.1556293E+04
  0.7928572E+00 -0.1354719E+06 -0.1788496E+04 -0.2578872E-02  0.2441406E-03  0.4424548E+06  0.1965398E+04
  0.8238096E+00 -0.1359028E+06 -0.2258894E+04 -0.9835304E-02 -0.4499435E-02  0.4428467E+06  0.2450532E+04
  0.8547620E+00 -0.1363343E+06 -0.2821666E+04  0.3195420E-02  0.1113892E-02  0.4430969E+06  0.3018132E+04
  0.8857143E+00 -0.1369005E+06 -0.3486358E+04 -0.1404055E-01 -0.7400513E-02  0.4433781E+06  0.3677854E+04
  0.9166667E+00 -0.1373285E+06 -0.4262742E+04 -0.2363725E-01 -0.9723663E-02  0.4435506E+06  0.4432495E+04
  0.9476191E+00 -0.1377962E+06 -0.5160231E+04 -0.3109342E-01 -0.2051163E-01  0.4437340E+06  0.5288419E+04
  0.9785714E+00 -0.1381506E+06 -0.6187229E+04  0.2338938E-02  0.6393433E-02  0.4438906E+06  0.6245561E+04
  0.1009524E+01 -0.1384858E+06 -0.7351734E+04 -0.3450718E-01 -0.1805878E-01  0.4439643E+06  0.7303559E+04
  0.1040476E+01 -0.1386562E+06 -0.8659912E+04  0.4311568E-02  0.6080627E-02  0.4439218E+06  0.8457746E+04
  0.1071429E+01 -0.1388538E+06 -0.1011762E+05 -0.2218832E-01 -0.1423645E-01  0.4438362E+06  0.9709312E+04
  0.1102381E+01 -0.1389163E+06 -0.1172167E+05  0.1363404E-01  0.1275635E-01  0.4435654E+06  0.1104612E+05
  0.1133333E+01 -0.1388966E+06 -0.1346974E+05  0.1871446E-02  0.1159668E-02  0.4432258E+06  0.1246004E+05
  0.1164286E+01 -0.1388295E+06 -0.1534803E+05  0.3119158E-01  0.3697205E-01  0.4427436E+06  0.1393561E+05
  0.1195238E+01 -0.1385569E+06 -0.1734367E+05  0.2507305E-01  0.2416992E-01  0.4421663E+06  0.1545111E+05
  0.1226190E+01 -0.1381646E+06 -0.1944254E+05  0.2025893E-01  0.3088379E-01  0.4415666E+06  0.1698912E+05
  0.1257143E+01 -0.1375939E+06 -0.2162078E+05 -0.2427534E-02 -0.8544922E-02  0.4408195E+06  0.1850896E+05
  0.1288095E+01 -0.1368307E+06 -0.2386908E+05 -0.2554000E-01 -0.2334595E-01  0.4400073E+06  0.1998406E+05
  0.1319048E+01 -0.1359206E+06 -0.2613438E+05  0.1194978E-01  0.3967285E-02  0.4389055E+06  0.2137738E+05
  0.1350000E+01 -0.1349713E+06 -0.2839638E+05  0.9279604E-02  0.2389526E-01  0.4378145E+06  0.2269510E+05
  0.1380952E+01 -0.1338130E+06 -0.3061344E+05  0.3071752E-02 -0.4333496E-02  0.4365576E+06  0.2388448E+05
  0.1411905E+01 -0.1334320E+06 -0.3313831E+05  0.1220137E-01  0.2386475E-01  0.4355481E+06  0.2529920E+05
  0.1442857E+01 -0.1321441E+06 -0.3522432E+05  0.1509109E-01  0.2053833E-01  0.4342814E+06  0.2621804E+05
  0.1473810E+01 -0.1306069E+06 -0.3718211E+05  0.1666881E-02 -0.2807617E-02  0.4329809E+06  0.2694093E+05
  0.1504762E+01 -0.1290303E+06 -0.3897235E+05 -0.3934450E-02 -0.2124023E-01  0.4317280E+06  0.2746914E+05
  0.1535714E+01 -0.1274204E+06 -0.4052909E+05  0.4292333E-02  0.5249023E-02  0.4303467E+06  0.2773925E+05
  0.1566667E+01 -0.1258221E+06 -0.4189620E+05 -0.4455891E-02  0.1586914E-02  0.4292573E+06  0.2789028E+05
  0.1597619E+01 -0.1240605E+06 -0.4299010E+05  0.5296005E-02  0.1141357E-01  0.4279666E+06  0.2772258E+05
  0.1628572E+01 -0.1223941E+06 -0.4386689E+05 -0.1195774E-02  0.1519775E-01  0.4269277E+06  0.2743000E+05
  0.1659524E+01 -0.1208156E+06 -0.4447084E+05  0.1507870E-01  0.3100586E-01  0.4259304E+06  0.2689887E+05
  0.1690476E+01 -0.1191656E+06 -0.4481057E+05 -0.4910321E-02  0.1953125E-02  0.4249717E+06  0.2618500E+05
  0.1721429E+01 -0.1176216E+06 -0.4491633E+05  0.6226979E-02  0.6652832E-02  0.4242008E+06  0.2536516E+05
  0.1752381E+01 -0.1161328E+06 -0.4471188E+05 -0.3474277E-02  0.8911133E-02  0.4233562E+06  0.2430298E+05
  0.1783333E+01 -0.1148026E+06 -0.4428586E+05  0.1309119E-02  0.6225586E-02  0.4226618E+06  0.2310369E+05
  0.1814286E+01 -0.1135793E+06 -0.4371680E+05  0.1732533E-02  0.3417969E-02  0.4222710E+06  0.2200156E+05
  0.1845238E+01 -0.1123122E+06 -0.4286505E+05 -0.8087355E-02  0.3112793E-02  0.4216912E+06  0.2055079E+05
  0.1876190E+01 -0.1112264E+06 -0.4191843E+05  0.8604563E-02  0.1434326E-01  0.4214021E+06  0.1924539E+05
  0.1907143E+01 -0.1103088E+06 -0.4081323E+05  0.1044913E-01  0.1068115E-01  0.4212051E+06  0.1783339E+05
  0.1938095E+01 -0.1094324E+06 -0.3954599E+05  0.1221903E-01  0.9338379E-02  0.4210536E+06  0.1639847E+05
  0.1969048E+01 -0.1086129E+06 -0.3816873E+05  0.3673180E-02  0.2148438E-01  0.4209898E+06  0.1496796E+05
  0.2000000E+01 -0.1079192E+06 -0.3670177E+05 -0.4180908E-02 -0.5187988E-02  0.4210310E+06  0.1360454E+05
