VARIABLES="w (rad/s)"
"abs(F   1   1)" "angle(F   1   1)"
"abs(F   1   2)" "angle(F   1   2)"
"abs(F   1   3)" "angle(F   1   3)"
Zone t="Diffraction force - beta =   0.000 deg",I=    64,F=POINT
  0.5000000E-01  0.9997027E+03 -0.1570787E+01  0.2036155E+06 -0.1364987E-04  0.3921375E+02 -0.1570795E+01
  0.8095238E-01  0.1629798E+04 -0.1570795E+01  0.2032806E+06 -0.3672521E-04  0.6224057E+02 -0.1570640E+01
  0.1119048E+00  0.2278680E+04 -0.1570800E+01  0.2027883E+06 -0.7293671E-04  0.8318851E+02 -0.1570865E+01
  0.1428571E+00  0.2949684E+04 -0.1570795E+01  0.2021384E+06 -0.1251044E-03  0.1021625E+03 -0.1570700E+01
  0.1738095E+00  0.3648923E+04 -0.1570792E+01  0.2013295E+06 -0.1974438E-03  0.1214714E+03 -0.1570856E+01
  0.2047619E+00  0.4385670E+04 -0.1570790E+01  0.2003628E+06 -0.2960700E-03  0.1367812E+03 -0.1570824E+01
  0.2357143E+00  0.5177252E+04 -0.1570786E+01  0.1992370E+06 -0.4300612E-03  0.1483025E+03 -0.1570714E+01
  0.2666667E+00  0.6020738E+04 -0.1570784E+01  0.1979478E+06 -0.6104281E-03  0.1595374E+03 -0.1570766E+01
  0.2976190E+00  0.6942760E+04 -0.1570778E+01  0.1965036E+06 -0.8559415E-03  0.1637521E+03 -0.1570659E+01
  0.3285715E+00  0.7958189E+04 -0.1570770E+01  0.1948919E+06 -0.1185738E-02  0.1594875E+03 -0.1570705E+01
  0.3595238E+00  0.9069237E+04 -0.1570756E+01  0.1931300E+06 -0.1630231E-02  0.1568275E+03 -0.1570845E+01
  0.3904762E+00  0.1028823E+05 -0.1570733E+01  0.1912047E+06 -0.2223421E-02  0.1461600E+03 -0.1570788E+01
  0.4214286E+00  0.1167219E+05 -0.1570702E+01  0.1891350E+06 -0.2988532E-02  0.1126384E+03 -0.1570740E+01
  0.4523810E+00  0.1318937E+05 -0.1570657E+01  0.1869226E+06 -0.3984466E-02  0.6626221E+02 -0.1570572E+01
  0.4833333E+00  0.1482943E+05 -0.1570593E+01  0.1845626E+06 -0.5185965E-02  0.1777563E+02 -0.1570792E+01
  0.5142857E+00  0.1662264E+05 -0.1570505E+01  0.1821034E+06 -0.6664886E-02  0.5911011E+02  0.1571140E+01
  0.5452381E+00  0.1856824E+05 -0.1570385E+01  0.1794945E+06 -0.8400056E-02  0.1713399E+03  0.1571214E+01
  0.5761905E+00  0.2063497E+05 -0.1570229E+01  0.1768013E+06 -0.1039900E-01  0.2864680E+03  0.1571323E+01
  0.6071429E+00  0.2280066E+05 -0.1570025E+01  0.1740024E+06 -0.1272486E-01  0.4387438E+03  0.1571558E+01
  0.6380953E+00  0.2504536E+05 -0.1569768E+01  0.1710589E+06 -0.1531402E-01  0.6137416E+03  0.1571851E+01
  0.6690477E+00  0.2745717E+05 -0.1569447E+01  0.1680856E+06 -0.1823986E-01  0.8357645E+03  0.1572175E+01
  0.7000000E+00  0.2996375E+05 -0.1569047E+01  0.1650128E+06 -0.2153634E-01  0.1114557E+04  0.1572560E+01
  0.7309524E+00  0.3253455E+05 -0.1568561E+01  0.1618213E+06 -0.2516621E-01  0.1413822E+04  0.1573075E+01
  0.7619048E+00  0.3517505E+05 -0.1567972E+01  0.1586057E+06 -0.2918055E-01  0.1716519E+04  0.1573685E+01
  0.7928572E+00  0.3789186E+05 -0.1567264E+01  0.1553344E+06 -0.3360247E-01  0.2095027E+04  0.1574412E+01
  0.8238096E+00  0.4071502E+05 -0.1566426E+01  0.1519853E+06 -0.3843088E-01  0.2536576E+04  0.1575242E+01
  0.8547620E+00  0.4363518E+05 -0.1565440E+01  0.1485507E+06 -0.4367170E-01  0.3056129E+04  0.1576226E+01
  0.8857143E+00  0.4662841E+05 -0.1564288E+01  0.1451727E+06 -0.4935909E-01  0.3561657E+04  0.1577411E+01
  0.9166667E+00  0.4968623E+05 -0.1562949E+01  0.1417330E+06 -0.5549277E-01  0.4171456E+04  0.1578810E+01
  0.9476191E+00  0.5275259E+05 -0.1561405E+01  0.1382538E+06 -0.6206301E-01  0.4791295E+04  0.1580440E+01
  0.9785714E+00  0.5584559E+05 -0.1559637E+01  0.1347170E+06 -0.6907528E-01  0.5491756E+04  0.1582313E+01
  0.1009524E+01  0.5898150E+05 -0.1557636E+01  0.1312465E+06 -0.7655468E-01  0.6189169E+04  0.1584384E+01
  0.1040476E+01  0.6226306E+05 -0.1555407E+01  0.1277823E+06 -0.8451223E-01  0.7037362E+04  0.1586495E+01
  0.1071429E+01  0.6555393E+05 -0.1552909E+01  0.1243017E+06 -0.9294237E-01  0.7939585E+04  0.1589021E+01
  0.1102381E+01  0.6884459E+05 -0.1550125E+01  0.1208024E+06 -0.1018239E+00  0.8877523E+04  0.1591879E+01
  0.1133333E+01  0.7213441E+05 -0.1547034E+01  0.1172811E+06 -0.1111493E+00  0.9911644E+04  0.1595183E+01
  0.1164286E+01  0.7540699E+05 -0.1543636E+01  0.1138781E+06 -0.1209385E+00  0.1089313E+05  0.1598805E+01
  0.1195238E+01  0.7866600E+05 -0.1539913E+01  0.1105046E+06 -0.1311948E+00  0.1195794E+05  0.1602864E+01
  0.1226190E+01  0.8186539E+05 -0.1535865E+01  0.1071364E+06 -0.1419239E+00  0.1309835E+05  0.1607294E+01
  0.1257143E+01  0.8495036E+05 -0.1531495E+01  0.1037847E+06 -0.1531602E+00  0.1422460E+05  0.1612017E+01
  0.1288095E+01  0.8806755E+05 -0.1526913E+01  0.1004309E+06 -0.1646578E+00  0.1548332E+05  0.1616648E+01
  0.1319048E+01  0.9112944E+05 -0.1522103E+01  0.9710920E+05 -0.1766490E+00  0.1679743E+05  0.1621352E+01
  0.1350000E+01  0.9408712E+05 -0.1517020E+01  0.9395012E+05 -0.1890216E+00  0.1800471E+05  0.1626651E+01
  0.1380952E+01  0.9695373E+05 -0.1511686E+01  0.9080980E+05 -0.2018317E+00  0.1930606E+05  0.1632310E+01
  0.1411905E+01  0.9959698E+05 -0.1506106E+01  0.8770987E+05 -0.2150425E+00  0.2062858E+05  0.1638547E+01
  0.1442857E+01  0.1021132E+06 -0.1500396E+01  0.8463945E+05 -0.2286145E+00  0.2193315E+05  0.1644890E+01
  0.1473810E+01  0.1044497E+06 -0.1494630E+01  0.8158749E+05 -0.2425471E+00  0.2324087E+05  0.1651147E+01
  0.1504762E+01  0.1066346E+06 -0.1488988E+01  0.7855248E+05 -0.2568319E+00  0.2462056E+05  0.1656911E+01
  0.1535714E+01  0.1086089E+06 -0.1483405E+01  0.7564634E+05 -0.2712454E+00  0.2588825E+05  0.1662883E+01
  0.1566667E+01  0.1103590E+06 -0.1477964E+01  0.7286123E+05 -0.2857083E+00  0.2701793E+05  0.1668734E+01
  0.1597619E+01  0.1119019E+06 -0.1472715E+01  0.7009871E+05 -0.3005572E+00  0.2823465E+05  0.1674673E+01
  0.1628572E+01  0.1131727E+06 -0.1467783E+01  0.6737462E+05 -0.3156817E+00  0.2940301E+05  0.1680568E+01
  0.1659524E+01  0.1141656E+06 -0.1463372E+01  0.6468735E+05 -0.3309347E+00  0.3047039E+05  0.1685584E+01
  0.1690476E+01  0.1148941E+06 -0.1459622E+01  0.6203024E+05 -0.3463527E+00  0.3145412E+05  0.1689535E+01
  0.1721429E+01  0.1153584E+06 -0.1456403E+01  0.5939126E+05 -0.3622047E+00  0.3243280E+05  0.1693746E+01
  0.1752381E+01  0.1155456E+06 -0.1453894E+01  0.5677819E+05 -0.3781712E+00  0.3334641E+05  0.1697399E+01
  0.1783333E+01  0.1154444E+06 -0.1452402E+01  0.5436070E+05 -0.3931728E+00  0.3394124E+05  0.1699277E+01
  0.1814286E+01  0.1150875E+06 -0.1451931E+01  0.5198679E+05 -0.4079267E+00  0.3442143E+05  0.1699963E+01
  0.1845238E+01  0.1145235E+06 -0.1452597E+01  0.4962624E+05 -0.4229181E+00  0.3493879E+05  0.1699656E+01
  0.1876190E+01  0.1136855E+06 -0.1454407E+01  0.4729864E+05 -0.4379383E+00  0.3534465E+05  0.1698535E+01
  0.1907143E+01  0.1125672E+06 -0.1457497E+01  0.4499476E+05 -0.4529372E+00  0.3559026E+05  0.1696075E+01
  0.1938095E+01  0.1112025E+06 -0.1461978E+01  0.4270959E+05 -0.4679194E+00  0.3570191E+05  0.1691992E+01
  0.1969048E+01  0.1096481E+06 -0.1467924E+01  0.4043879E+05 -0.4832665E+00  0.3577317E+05  0.1686536E+01
  0.2000000E+01  0.1078913E+06 -0.1475410E+01  0.3818243E+05 -0.4989883E+00  0.3576153E+05  0.1679594E+01
