VARIABLES="w (rad/s)"
"abs(F   1   1)" "angle(F   1   1)"
"abs(F   1   2)" "angle(F   1   2)"
"abs(F   1   3)" "angle(F   1   3)"
Zone t="Diffraction force - beta =   0.000 deg",I=    64,F=POINT
  0.5000000E-01  0.3716396E+04 -0.1570794E+01  0.2407589E+03 -0.3100145E+01  0.7598130E+04  0.1570799E+01
  0.8095238E-01  0.6103896E+04 -0.1570790E+01  0.6250937E+03 -0.3098818E+01  0.1248118E+05  0.1570803E+01
  0.1119048E+00  0.8543674E+04 -0.1570783E+01  0.1185617E+04 -0.3097075E+01  0.1747437E+05  0.1570810E+01
  0.1428571E+00  0.1106180E+05 -0.1570773E+01  0.1924689E+04 -0.3094925E+01  0.2259699E+05  0.1570820E+01
  0.1738095E+00  0.1368836E+05 -0.1570757E+01  0.2841088E+04 -0.3092206E+01  0.2797049E+05  0.1570835E+01
  0.2047619E+00  0.1649342E+05 -0.1570736E+01  0.3931887E+04 -0.3088709E+01  0.3363488E+05  0.1570857E+01
  0.2357143E+00  0.1944731E+05 -0.1570703E+01  0.5210578E+04 -0.3084430E+01  0.3966082E+05  0.1570889E+01
  0.2666667E+00  0.2265437E+05 -0.1570657E+01  0.6655437E+04 -0.3079104E+01  0.4617859E+05  0.1570935E+01
  0.2976190E+00  0.2618593E+05 -0.1570587E+01  0.8292491E+04 -0.3072526E+01  0.5326755E+05  0.1571005E+01
  0.3285715E+00  0.3002244E+05 -0.1570483E+01  0.1008623E+05 -0.3064532E+01  0.6102596E+05  0.1571108E+01
  0.3595238E+00  0.3428612E+05 -0.1570327E+01  0.1207233E+05 -0.3055037E+01  0.6963255E+05  0.1571263E+01
  0.3904762E+00  0.3902661E+05 -0.1570094E+01  0.1417776E+05 -0.3043504E+01  0.7913580E+05  0.1571494E+01
  0.4214286E+00  0.4431750E+05 -0.1569753E+01  0.1646356E+05 -0.3031080E+01  0.8973247E+05  0.1571834E+01
  0.4523810E+00  0.5023204E+05 -0.1569251E+01  0.1880122E+05 -0.3016026E+01  0.1016189E+06  0.1572333E+01
  0.4833333E+00  0.5668959E+05 -0.1568554E+01  0.2125957E+05 -0.3001388E+01  0.1145263E+06  0.1573026E+01
  0.5142857E+00  0.6388718E+05 -0.1567585E+01  0.2376309E+05 -0.2985332E+01  0.1287387E+06  0.1573991E+01
  0.5452381E+00  0.7156466E+05 -0.1566286E+01  0.2628484E+05 -0.2969249E+01  0.1439537E+06  0.1575283E+01
  0.5761905E+00  0.7982550E+05 -0.1564594E+01  0.2892672E+05 -0.2954413E+01  0.1603248E+06  0.1576966E+01
  0.6071429E+00  0.8884959E+05 -0.1562406E+01  0.3140857E+05 -0.2937819E+01  0.1781763E+06  0.1579141E+01
  0.6380953E+00  0.9833484E+05 -0.1559660E+01  0.3396612E+05 -0.2923072E+01  0.1966563E+06  0.1581875E+01
  0.6690477E+00  0.1083959E+06 -0.1556236E+01  0.3658384E+05 -0.2909218E+01  0.2161919E+06  0.1585285E+01
  0.7000000E+00  0.1191878E+06 -0.1552016E+01  0.3897852E+05 -0.2893871E+01  0.2372234E+06  0.1589483E+01
  0.7309524E+00  0.1303461E+06 -0.1546884E+01  0.4140316E+05 -0.2879884E+01  0.2589400E+06  0.1594586E+01
  0.7619048E+00  0.1422461E+06 -0.1540705E+01  0.4386692E+05 -0.2867045E+01  0.2818986E+06  0.1600732E+01
  0.7928572E+00  0.1551024E+06 -0.1533348E+01  0.4610292E+05 -0.2853400E+01  0.3062661E+06  0.1608067E+01
  0.8238096E+00  0.1683112E+06 -0.1524604E+01  0.4824802E+05 -0.2840018E+01  0.3314401E+06  0.1616770E+01
  0.8547620E+00  0.1821642E+06 -0.1514346E+01  0.5036607E+05 -0.2827532E+01  0.3577445E+06  0.1626977E+01
  0.8857143E+00  0.1966972E+06 -0.1502409E+01  0.5246921E+05 -0.2816281E+01  0.3848816E+06  0.1638874E+01
  0.9166667E+00  0.2121839E+06 -0.1488643E+01  0.5425556E+05 -0.2803899E+01  0.4140954E+06  0.1652564E+01
  0.9476191E+00  0.2281072E+06 -0.1472819E+01  0.5593554E+05 -0.2791943E+01  0.4438730E+06  0.1668303E+01
  0.9785714E+00  0.2446984E+06 -0.1454740E+01  0.5753520E+05 -0.2780728E+01  0.4742655E+06  0.1686320E+01
  0.1009524E+01  0.2620140E+06 -0.1434278E+01  0.5909287E+05 -0.2770630E+01  0.5057667E+06  0.1706716E+01
  0.1040476E+01  0.2799048E+06 -0.1411247E+01  0.6044533E+05 -0.2760567E+01  0.5379886E+06  0.1729681E+01
  0.1071429E+01  0.2983796E+06 -0.1385527E+01  0.6152098E+05 -0.2749588E+01  0.5714289E+06  0.1755284E+01
  0.1102381E+01  0.3166874E+06 -0.1356948E+01  0.6250119E+05 -0.2739357E+01  0.6038704E+06  0.1783768E+01
  0.1133333E+01  0.3351090E+06 -0.1325394E+01  0.6339682E+05 -0.2729625E+01  0.6366027E+06  0.1815166E+01
  0.1164286E+01  0.3534892E+06 -0.1290940E+01  0.6422879E+05 -0.2720871E+01  0.6688402E+06  0.1849450E+01
  0.1195238E+01  0.3716113E+06 -0.1253581E+01  0.6488141E+05 -0.2712362E+01  0.6997558E+06  0.1886677E+01
  0.1226190E+01  0.3897528E+06 -0.1213307E+01  0.6519125E+05 -0.2702570E+01  0.7304654E+06  0.1926791E+01
  0.1257143E+01  0.4058048E+06 -0.1170359E+01  0.6541152E+05 -0.2693074E+01  0.7569194E+06  0.1969556E+01
  0.1288095E+01  0.4215036E+06 -0.1124644E+01  0.6552853E+05 -0.2684377E+01  0.7817116E+06  0.2015173E+01
  0.1319048E+01  0.4352220E+06 -0.1076768E+01  0.6556580E+05 -0.2675724E+01  0.8032991E+06  0.2062818E+01
  0.1350000E+01  0.4465888E+06 -0.1027301E+01  0.6553420E+05 -0.2667740E+01  0.8195434E+06  0.2112135E+01
  0.1380952E+01  0.4559384E+06 -0.9765860E+00  0.6530918E+05 -0.2659741E+01  0.8317001E+06  0.2162700E+01
  0.1411905E+01  0.4622302E+06 -0.9245605E+00  0.6476040E+05 -0.2650445E+01  0.8397058E+06  0.2214179E+01
  0.1442857E+01  0.4662067E+06 -0.8728136E+00  0.6415794E+05 -0.2641274E+01  0.8426502E+06  0.2265504E+01
  0.1473810E+01  0.4671986E+06 -0.8213691E+00  0.6346269E+05 -0.2632197E+01  0.8393226E+06  0.2316618E+01
  0.1504762E+01  0.4658138E+06 -0.7706483E+00  0.6266221E+05 -0.2622811E+01  0.8319471E+06  0.2366924E+01
  0.1535714E+01  0.4623578E+06 -0.7209876E+00  0.6178822E+05 -0.2613821E+01  0.8206282E+06  0.2416233E+01
  0.1566667E+01  0.4562671E+06 -0.6730678E+00  0.6086357E+05 -0.2605152E+01  0.8038777E+06  0.2463921E+01
  0.1597619E+01  0.4485511E+06 -0.6271052E+00  0.5971035E+05 -0.2596003E+01  0.7845612E+06  0.2509579E+01
  0.1628572E+01  0.4393769E+06 -0.5830789E+00  0.5832040E+05 -0.2585655E+01  0.7634887E+06  0.2553108E+01
  0.1659524E+01  0.4280384E+06 -0.5412616E+00  0.5688538E+05 -0.2575367E+01  0.7389016E+06  0.2594380E+01
  0.1690476E+01  0.4152899E+06 -0.5018201E+00  0.5537309E+05 -0.2565091E+01  0.7114914E+06  0.2633359E+01
  0.1721429E+01  0.4013969E+06 -0.4646188E+00  0.5374979E+05 -0.2554473E+01  0.6822991E+06  0.2670119E+01
  0.1752381E+01  0.3869260E+06 -0.4296433E+00  0.5204453E+05 -0.2544349E+01  0.6528461E+06  0.2704578E+01
  0.1783333E+01  0.3718828E+06 -0.3972197E+00  0.5029621E+05 -0.2534974E+01  0.6222962E+06  0.2736579E+01
  0.1814286E+01  0.3564438E+06 -0.3668437E+00  0.4851457E+05 -0.2526239E+01  0.5911586E+06  0.2766489E+01
  0.1845238E+01  0.3409983E+06 -0.3381118E+00  0.4656607E+05 -0.2517909E+01  0.5607821E+06  0.2794531E+01
  0.1876190E+01  0.3256754E+06 -0.3113325E+00  0.4447744E+05 -0.2509974E+01  0.5314095E+06  0.2820390E+01
  0.1907143E+01  0.3098152E+06 -0.2864577E+00  0.4240384E+05 -0.2503684E+01  0.5014804E+06  0.2844376E+01
  0.1938095E+01  0.2939071E+06 -0.2633366E+00  0.4033483E+05 -0.2498817E+01  0.4717125E+06  0.2866533E+01
  0.1969048E+01  0.2778425E+06 -0.2416176E+00  0.3829524E+05 -0.2495804E+01  0.4414975E+06  0.2887462E+01
  0.2000000E+01  0.2621326E+06 -0.2212359E+00  0.3627373E+05 -0.2494823E+01  0.4125859E+06  0.2907030E+01
