VARIABLES="w (rad/s)"
"abs(F   1   1)" "angle(F   1   1)"
"abs(F   1   2)" "angle(F   1   2)"
"abs(F   1   3)" "angle(F   1   3)"
Zone t="Diffraction force - beta =   0.000 deg",I=    64,F=POINT
  0.5000000E-01  0.3305780E+03 -0.1570795E+01  0.1216238E+03 -0.3107962E+01  0.2081031E+03  0.1570795E+01
  0.8095238E-01  0.5388264E+03 -0.1570793E+01  0.3190154E+03 -0.3107168E+01  0.3406490E+03  0.1570794E+01
  0.1119048E+00  0.7537020E+03 -0.1570790E+01  0.6060695E+03 -0.3105718E+01  0.4771062E+03  0.1570791E+01
  0.1428571E+00  0.9734495E+03 -0.1570785E+01  0.9857476E+03 -0.3103912E+01  0.6210884E+03  0.1570787E+01
  0.1738095E+00  0.1209744E+04 -0.1570777E+01  0.1457186E+04 -0.3101568E+01  0.7808427E+03  0.1570781E+01
  0.2047619E+00  0.1453778E+04 -0.1570767E+01  0.2020929E+04 -0.3098579E+01  0.9466140E+03  0.1570773E+01
  0.2357143E+00  0.1714109E+04 -0.1570751E+01  0.2683280E+04 -0.3094871E+01  0.1132119E+04  0.1570762E+01
  0.2666667E+00  0.2002729E+04 -0.1570728E+01  0.3434940E+04 -0.3090211E+01  0.1338461E+04  0.1570746E+01
  0.2976190E+00  0.2301430E+04 -0.1570694E+01  0.4290600E+04 -0.3084447E+01  0.1559379E+04  0.1570722E+01
  0.3285715E+00  0.2636943E+04 -0.1570644E+01  0.5233812E+04 -0.3077363E+01  0.1819475E+04  0.1570690E+01
  0.3595238E+00  0.3012737E+04 -0.1570569E+01  0.6285499E+04 -0.3068902E+01  0.2114656E+04  0.1570642E+01
  0.3904762E+00  0.3426829E+04 -0.1570456E+01  0.7411699E+04 -0.3058560E+01  0.2443572E+04  0.1570573E+01
  0.4214286E+00  0.3864765E+04 -0.1570289E+01  0.8642285E+04 -0.3047186E+01  0.2812064E+04  0.1570475E+01
  0.4523810E+00  0.4387202E+04 -0.1570050E+01  0.9927653E+04 -0.3033582E+01  0.3253514E+04  0.1570341E+01
  0.4833333E+00  0.4944732E+04 -0.1569715E+01  0.1129204E+05 -0.3019911E+01  0.3741911E+04  0.1570165E+01
  0.5142857E+00  0.5535423E+04 -0.1569249E+01  0.1271135E+05 -0.3004960E+01  0.4264558E+04  0.1569927E+01
  0.5452381E+00  0.6165878E+04 -0.1568625E+01  0.1416738E+05 -0.2989735E+01  0.4864277E+04  0.1569632E+01
  0.5761905E+00  0.6868040E+04 -0.1567826E+01  0.1570547E+05 -0.2975184E+01  0.5554714E+04  0.1569286E+01
  0.6071429E+00  0.7612016E+04 -0.1566797E+01  0.1720876E+05 -0.2959270E+01  0.6262933E+04  0.1568851E+01
  0.6380953E+00  0.8372325E+04 -0.1565508E+01  0.1877169E+05 -0.2944467E+01  0.7044212E+04  0.1568356E+01
  0.6690477E+00  0.9131055E+04 -0.1563887E+01  0.2039915E+05 -0.2930250E+01  0.7878474E+04  0.1567785E+01
  0.7000000E+00  0.9963380E+04 -0.1561935E+01  0.2194379E+05 -0.2914697E+01  0.8770411E+04  0.1567121E+01
  0.7309524E+00  0.1084907E+05 -0.1559611E+01  0.2353270E+05 -0.2899993E+01  0.9777681E+04  0.1566432E+01
  0.7619048E+00  0.1173397E+05 -0.1556810E+01  0.2515760E+05 -0.2885944E+01  0.1082730E+05  0.1565677E+01
  0.7928572E+00  0.1263429E+05 -0.1553486E+01  0.2671492E+05 -0.2871335E+01  0.1189500E+05  0.1564837E+01
  0.8238096E+00  0.1355623E+05 -0.1549588E+01  0.2823564E+05 -0.2856627E+01  0.1305607E+05  0.1563985E+01
  0.8547620E+00  0.1443919E+05 -0.1544985E+01  0.2975701E+05 -0.2842554E+01  0.1424674E+05  0.1563074E+01
  0.8857143E+00  0.1540649E+05 -0.1539883E+01  0.3128614E+05 -0.2829323E+01  0.1561938E+05  0.1562178E+01
  0.9166667E+00  0.1639043E+05 -0.1534090E+01  0.3268927E+05 -0.2815298E+01  0.1695629E+05  0.1561232E+01
  0.9476191E+00  0.1739530E+05 -0.1527562E+01  0.3403221E+05 -0.2801337E+01  0.1841760E+05  0.1560452E+01
  0.9785714E+00  0.1835054E+05 -0.1520128E+01  0.3533716E+05 -0.2787987E+01  0.1991269E+05  0.1559730E+01
  0.1009524E+01  0.1926824E+05 -0.1511743E+01  0.3661316E+05 -0.2775502E+01  0.2147606E+05  0.1559150E+01
  0.1040476E+01  0.2014702E+05 -0.1502366E+01  0.3780323E+05 -0.2763248E+01  0.2307841E+05  0.1558703E+01
  0.1071429E+01  0.2098898E+05 -0.1491992E+01  0.3882246E+05 -0.2750055E+01  0.2463062E+05  0.1558281E+01
  0.1102381E+01  0.2186466E+05 -0.1481229E+01  0.3979336E+05 -0.2737559E+01  0.2640134E+05  0.1557909E+01
  0.1133333E+01  0.2266673E+05 -0.1469557E+01  0.4068653E+05 -0.2725681E+01  0.2817331E+05  0.1557823E+01
  0.1164286E+01  0.2339294E+05 -0.1456852E+01  0.4152688E+05 -0.2714784E+01  0.3001001E+05  0.1558069E+01
  0.1195238E+01  0.2402981E+05 -0.1443071E+01  0.4227091E+05 -0.2704412E+01  0.3189230E+05  0.1558788E+01
  0.1226190E+01  0.2457244E+05 -0.1428336E+01  0.4278430E+05 -0.2692677E+01  0.3360136E+05  0.1559480E+01
  0.1257143E+01  0.2503256E+05 -0.1412945E+01  0.4323181E+05 -0.2681498E+01  0.3547464E+05  0.1560575E+01
  0.1288095E+01  0.2540097E+05 -0.1397680E+01  0.4357993E+05 -0.2671342E+01  0.3735693E+05  0.1561493E+01
  0.1319048E+01  0.2559997E+05 -0.1381347E+01  0.4383723E+05 -0.2661885E+01  0.3919899E+05  0.1562983E+01
  0.1350000E+01  0.2565739E+05 -0.1364320E+01  0.4402575E+05 -0.2653543E+01  0.4110839E+05  0.1564995E+01
  0.1380952E+01  0.2555050E+05 -0.1346623E+01  0.4408489E+05 -0.2645744E+01  0.4295009E+05  0.1567319E+01
  0.1411905E+01  0.2522101E+05 -0.1328638E+01  0.4389938E+05 -0.2636420E+01  0.4448848E+05  0.1568812E+01
  0.1442857E+01  0.2481845E+05 -0.1311988E+01  0.4363701E+05 -0.2628159E+01  0.4613527E+05  0.1570711E+01
  0.1473810E+01  0.2422405E+05 -0.1295321E+01  0.4328715E+05 -0.2620650E+01  0.4773922E+05  0.1572946E+01
  0.1504762E+01  0.2341028E+05 -0.1278639E+01  0.4284346E+05 -0.2614206E+01  0.4921450E+05  0.1575283E+01
  0.1535714E+01  0.2239424E+05 -0.1262616E+01  0.4231696E+05 -0.2609059E+01  0.5060428E+05  0.1577644E+01
  0.1566667E+01  0.2120986E+05 -0.1249026E+01  0.4172085E+05 -0.2605467E+01  0.5197895E+05  0.1579337E+01
  0.1597619E+01  0.1982346E+05 -0.1236888E+01  0.4097925E+05 -0.2602228E+01  0.5311332E+05  0.1581049E+01
  0.1628572E+01  0.1824016E+05 -0.1227759E+01  0.4003316E+05 -0.2598745E+01  0.5385396E+05  0.1581483E+01
  0.1659524E+01  0.1650474E+05 -0.1222928E+01  0.3903112E+05 -0.2596843E+01  0.5454897E+05  0.1581836E+01
  0.1690476E+01  0.1463503E+05 -0.1225635E+01  0.3797648E+05 -0.2596480E+01  0.5519389E+05  0.1581663E+01
  0.1721429E+01  0.1256781E+05 -0.1236817E+01  0.3686560E+05 -0.2597860E+01  0.5559509E+05  0.1580936E+01
  0.1752381E+01  0.1035198E+05 -0.1263481E+01  0.3571679E+05 -0.2601377E+01  0.5579959E+05  0.1579412E+01
  0.1783333E+01  0.8057100E+04 -0.1320912E+01  0.3456008E+05 -0.2607314E+01  0.5591927E+05  0.1577350E+01
  0.1814286E+01  0.5738177E+04 -0.1446597E+01  0.3341184E+05 -0.2615549E+01  0.5591672E+05  0.1574615E+01
  0.1845238E+01  0.3598139E+04 -0.1771339E+01  0.3217771E+05 -0.2625271E+01  0.5556147E+05  0.1570001E+01
  0.1876190E+01  0.2643129E+04 -0.2617384E+01  0.3084874E+05 -0.2636943E+01  0.5478856E+05  0.1562572E+01
  0.1907143E+01  0.4062077E+04  0.2923506E+01  0.2955931E+05 -0.2651379E+01  0.5389473E+05  0.1554091E+01
  0.1938095E+01  0.6504880E+04  0.2650058E+01  0.2832565E+05 -0.2667501E+01  0.5290545E+05  0.1544940E+01
  0.1969048E+01  0.9236855E+04  0.2533857E+01  0.2713733E+05 -0.2685713E+01  0.5171897E+05  0.1533993E+01
  0.2000000E+01  0.1208875E+05  0.2474394E+01  0.2601849E+05 -0.2705767E+01  0.5034315E+05  0.1520928E+01
