VARIABLES="w (rad/s)"
"abs(F   1   1)" "angle(F   1   1)"
"abs(F   1   2)" "angle(F   1   2)"
"abs(F   1   3)" "angle(F   1   3)"
Zone t="Diffraction force - beta =   0.000 deg",I=    64,F=POINT
  0.5000000E-01  0.6011342E+04 -0.1570794E+01  0.9596912E+02 -0.3076034E+01  0.1846330E+05  0.1570798E+01
  0.8095238E-01  0.9850000E+04 -0.1570790E+01  0.2478507E+03 -0.3073446E+01  0.3018548E+05  0.1570802E+01
  0.1119048E+00  0.1375714E+05 -0.1570784E+01  0.4698339E+03 -0.3070432E+01  0.4210312E+05  0.1570808E+01
  0.1428571E+00  0.1779346E+05 -0.1570775E+01  0.7629075E+03 -0.3066757E+01  0.5439134E+05  0.1570816E+01
  0.1738095E+00  0.2200501E+05 -0.1570761E+01  0.1128421E+04 -0.3062187E+01  0.6714919E+05  0.1570829E+01
  0.2047619E+00  0.2640714E+05 -0.1570742E+01  0.1569308E+04 -0.3056534E+01  0.8050662E+05  0.1570847E+01
  0.2357143E+00  0.3110444E+05 -0.1570713E+01  0.2087872E+04 -0.3049435E+01  0.9465807E+05  0.1570874E+01
  0.2666667E+00  0.3614183E+05 -0.1570671E+01  0.2687366E+04 -0.3040868E+01  0.1097887E+06  0.1570913E+01
  0.2976190E+00  0.4156210E+05 -0.1570609E+01  0.3371171E+04 -0.3030102E+01  0.1260678E+06  0.1570972E+01
  0.3285715E+00  0.4754221E+05 -0.1570517E+01  0.4144009E+04 -0.3017336E+01  0.1438000E+06  0.1571058E+01
  0.3595238E+00  0.5407468E+05 -0.1570379E+01  0.5002757E+04 -0.3001760E+01  0.1631576E+06  0.1571187E+01
  0.3904762E+00  0.6126202E+05 -0.1570174E+01  0.5956053E+04 -0.2983477E+01  0.1843805E+06  0.1571380E+01
  0.4214286E+00  0.6924301E+05 -0.1569872E+01  0.6985501E+04 -0.2962909E+01  0.2078358E+06  0.1571662E+01
  0.4523810E+00  0.7803863E+05 -0.1569431E+01  0.8102783E+04 -0.2939177E+01  0.2334380E+06  0.1572076E+01
  0.4833333E+00  0.8773924E+05 -0.1568820E+01  0.9283054E+04 -0.2915113E+01  0.2614468E+06  0.1572649E+01
  0.5142857E+00  0.9810241E+05 -0.1567969E+01  0.1052582E+05 -0.2888937E+01  0.2914289E+06  0.1573446E+01
  0.5452381E+00  0.1093667E+06 -0.1566836E+01  0.1182987E+05 -0.2862924E+01  0.3235209E+06  0.1574507E+01
  0.5761905E+00  0.1212476E+06 -0.1565364E+01  0.1317760E+05 -0.2837187E+01  0.3571918E+06  0.1575887E+01
  0.6071429E+00  0.1339104E+06 -0.1563458E+01  0.1457008E+05 -0.2810733E+01  0.3927162E+06  0.1577674E+01
  0.6380953E+00  0.1472670E+06 -0.1561079E+01  0.1601769E+05 -0.2785889E+01  0.4297919E+06  0.1579905E+01
  0.6690477E+00  0.1610090E+06 -0.1558117E+01  0.1749799E+05 -0.2761118E+01  0.4678642E+06  0.1582681E+01
  0.7000000E+00  0.1754936E+06 -0.1554468E+01  0.1900802E+05 -0.2736123E+01  0.5073886E+06  0.1586103E+01
  0.7309524E+00  0.1908159E+06 -0.1550059E+01  0.2055732E+05 -0.2712107E+01  0.5481568E+06  0.1590244E+01
  0.7619048E+00  0.2065027E+06 -0.1544747E+01  0.2212839E+05 -0.2688363E+01  0.5899094E+06  0.1595229E+01
  0.7928572E+00  0.2227820E+06 -0.1538411E+01  0.2372063E+05 -0.2664922E+01  0.6328301E+06  0.1601176E+01
  0.8238096E+00  0.2395632E+06 -0.1530930E+01  0.2532833E+05 -0.2641793E+01  0.6762682E+06  0.1608202E+01
  0.8547620E+00  0.2570922E+06 -0.1522178E+01  0.2695778E+05 -0.2619355E+01  0.7210361E+06  0.1616424E+01
  0.8857143E+00  0.2749295E+06 -0.1511999E+01  0.2858803E+05 -0.2597167E+01  0.7659476E+06  0.1625988E+01
  0.9166667E+00  0.2935296E+06 -0.1500257E+01  0.3022480E+05 -0.2575590E+01  0.8118206E+06  0.1637034E+01
  0.9476191E+00  0.3125451E+06 -0.1486802E+01  0.3185513E+05 -0.2554307E+01  0.8577446E+06  0.1649694E+01
  0.9785714E+00  0.3322340E+06 -0.1471496E+01  0.3348609E+05 -0.2533712E+01  0.9046729E+06  0.1664107E+01
  0.1009524E+01  0.3517787E+06 -0.1454169E+01  0.3510567E+05 -0.2513426E+01  0.9506841E+06  0.1680408E+01
  0.1040476E+01  0.3715368E+06 -0.1434710E+01  0.3671966E+05 -0.2493761E+01  0.9963991E+06  0.1698718E+01
  0.1071429E+01  0.3914266E+06 -0.1413046E+01  0.3832335E+05 -0.2474579E+01  0.1041174E+07  0.1719104E+01
  0.1102381E+01  0.4114982E+06 -0.1389100E+01  0.3991647E+05 -0.2455984E+01  0.1084893E+07  0.1741657E+01
  0.1133333E+01  0.4315547E+06 -0.1362758E+01  0.4148805E+05 -0.2437840E+01  0.1127376E+07  0.1766474E+01
  0.1164286E+01  0.4507093E+06 -0.1334029E+01  0.4303670E+05 -0.2420068E+01  0.1166389E+07  0.1793516E+01
  0.1195238E+01  0.4691728E+06 -0.1302814E+01  0.4456900E+05 -0.2402827E+01  0.1203010E+07  0.1822866E+01
  0.1226190E+01  0.4867909E+06 -0.1269266E+01  0.4608631E+05 -0.2386260E+01  0.1236651E+07  0.1854391E+01
  0.1257143E+01  0.5018859E+06 -0.1233943E+01  0.4759730E+05 -0.2369696E+01  0.1263056E+07  0.1887484E+01
  0.1288095E+01  0.5174324E+06 -0.1196096E+01  0.4906004E+05 -0.2354304E+01  0.1288371E+07  0.1922999E+01
  0.1319048E+01  0.5299752E+06 -0.1156778E+01  0.5051854E+05 -0.2339027E+01  0.1306790E+07  0.1959750E+01
  0.1350000E+01  0.5397549E+06 -0.1116279E+01  0.5195029E+05 -0.2323856E+01  0.1317352E+07  0.1997434E+01
  0.1380952E+01  0.5475285E+06 -0.1074619E+01  0.5337166E+05 -0.2309248E+01  0.1322594E+07  0.2036117E+01
  0.1411905E+01  0.5492585E+06 -0.1035177E+01  0.5477613E+05 -0.2292974E+01  0.1316580E+07  0.2072178E+01
  0.1442857E+01  0.5514113E+06 -0.9932816E+00  0.5614043E+05 -0.2278405E+01  0.1306936E+07  0.2110638E+01
  0.1473810E+01  0.5516711E+06 -0.9515231E+00  0.5748215E+05 -0.2264218E+01  0.1292540E+07  0.2148824E+01
  0.1504762E+01  0.5496883E+06 -0.9101685E+00  0.5880629E+05 -0.2250405E+01  0.1273590E+07  0.2186342E+01
  0.1535714E+01  0.5445872E+06 -0.8698275E+00  0.6011160E+05 -0.2236643E+01  0.1248234E+07  0.2222543E+01
  0.1566667E+01  0.5366164E+06 -0.8312891E+00  0.6137438E+05 -0.2222405E+01  0.1215983E+07  0.2256590E+01
  0.1597619E+01  0.5270691E+06 -0.7940488E+00  0.6262777E+05 -0.2208417E+01  0.1181283E+07  0.2289140E+01
  0.1628572E+01  0.5159657E+06 -0.7585601E+00  0.6384738E+05 -0.2194425E+01  0.1143916E+07  0.2319598E+01
  0.1659524E+01  0.5028285E+06 -0.7258384E+00  0.6502904E+05 -0.2179983E+01  0.1101869E+07  0.2346968E+01
  0.1690476E+01  0.4889878E+06 -0.6951626E+00  0.6618541E+05 -0.2165571E+01  0.1059159E+07  0.2372098E+01
  0.1721429E+01  0.4746212E+06 -0.6666645E+00  0.6729428E+05 -0.2150936E+01  0.1016155E+07  0.2394714E+01
  0.1752381E+01  0.4591730E+06 -0.6402186E+00  0.6835896E+05 -0.2135795E+01  0.9724515E+06  0.2414961E+01
  0.1783333E+01  0.4431549E+06 -0.6160710E+00  0.6935138E+05 -0.2119982E+01  0.9280088E+06  0.2432517E+01
  0.1814286E+01  0.4264132E+06 -0.5942569E+00  0.7024961E+05 -0.2103264E+01  0.8826209E+06  0.2447204E+01
  0.1845238E+01  0.4098813E+06 -0.5740350E+00  0.7106709E+05 -0.2086629E+01  0.8392985E+06  0.2460207E+01
  0.1876190E+01  0.3935659E+06 -0.5558659E+00  0.7178779E+05 -0.2070019E+01  0.7976934E+06  0.2470753E+01
  0.1907143E+01  0.3767732E+06 -0.5403119E+00  0.7238920E+05 -0.2052606E+01  0.7551271E+06  0.2477914E+01
  0.1938095E+01  0.3605782E+06 -0.5260524E+00  0.7290601E+05 -0.2035172E+01  0.7151090E+06  0.2483663E+01
  0.1969048E+01  0.3446450E+06 -0.5138240E+00  0.7329495E+05 -0.2018077E+01  0.6764532E+06  0.2486741E+01
  0.2000000E+01  0.3291738E+06 -0.5033159E+00  0.7354792E+05 -0.2001230E+01  0.6401788E+06  0.2487901E+01
