VARIABLES="w (rad/s)"
"abs(F   1   1)" "angle(F   1   1)"
"abs(F   1   2)" "angle(F   1   2)"
"abs(F   1   3)" "angle(F   1   3)"
Zone t="Diffraction force - beta =   0.000 deg",I=    64,F=POINT
  0.5000000E-01  0.3859753E+04 -0.1570811E+01  0.5647562E+06 -0.3865511E-04  0.1002777E+03 -0.1570491E+01
  0.8095238E-01  0.6293975E+04 -0.1570799E+01  0.5635298E+06 -0.1039482E-03  0.1640312E+03 -0.1570609E+01
  0.1119048E+00  0.8776367E+04 -0.1570792E+01  0.5617300E+06 -0.2062919E-03  0.2289178E+03 -0.1570671E+01
  0.1428571E+00  0.1135147E+05 -0.1570789E+01  0.5593568E+06 -0.3534476E-03  0.2977934E+03 -0.1570691E+01
  0.1738095E+00  0.1403200E+05 -0.1570779E+01  0.5564042E+06 -0.5570599E-03  0.3690434E+03 -0.1570716E+01
  0.2047619E+00  0.1686195E+05 -0.1570778E+01  0.5528691E+06 -0.8339905E-03  0.4466061E+03 -0.1570711E+01
  0.2357143E+00  0.1985211E+05 -0.1570767E+01  0.5487456E+06 -0.1209127E-02  0.5283351E+03 -0.1570714E+01
  0.2666667E+00  0.2308325E+05 -0.1570750E+01  0.5440262E+06 -0.1712302E-02  0.6185469E+03 -0.1570704E+01
  0.2976190E+00  0.2658564E+05 -0.1570725E+01  0.5387132E+06 -0.2394929E-02  0.7187469E+03 -0.1570684E+01
  0.3285715E+00  0.3038547E+05 -0.1570687E+01  0.5327956E+06 -0.3307697E-02  0.8286043E+03 -0.1570657E+01
  0.3595238E+00  0.3459360E+05 -0.1570636E+01  0.5262999E+06 -0.4532832E-02  0.9525654E+03 -0.1570608E+01
  0.3904762E+00  0.3925441E+05 -0.1570560E+01  0.5192181E+06 -0.6160017E-02  0.1096411E+04 -0.1570533E+01
  0.4214286E+00  0.4436296E+05 -0.1570444E+01  0.5116381E+06 -0.8245007E-02  0.1247723E+04 -0.1570423E+01
  0.4523810E+00  0.4996432E+05 -0.1570276E+01  0.5035453E+06 -0.1094678E-01  0.1422824E+04 -0.1570259E+01
  0.4833333E+00  0.5615870E+05 -0.1570043E+01  0.4950431E+06 -0.1418251E-01  0.1621059E+04 -0.1570027E+01
  0.5142857E+00  0.6284895E+05 -0.1569720E+01  0.4861823E+06 -0.1813982E-01  0.1841768E+04 -0.1569706E+01
  0.5452381E+00  0.6993028E+05 -0.1569288E+01  0.4769655E+06 -0.2274797E-01  0.2071546E+04 -0.1569275E+01
  0.5761905E+00  0.7745230E+05 -0.1568728E+01  0.4674638E+06 -0.2801395E-01  0.2323043E+04 -0.1568716E+01
  0.6071429E+00  0.8543709E+05 -0.1568006E+01  0.4577441E+06 -0.3409410E-01  0.2608301E+04 -0.1567997E+01
  0.6380953E+00  0.9380859E+05 -0.1567107E+01  0.4477448E+06 -0.4081696E-01  0.2915653E+04 -0.1567100E+01
  0.6690477E+00  0.1024144E+06 -0.1565992E+01  0.4375844E+06 -0.4833490E-01  0.3225316E+04 -0.1565985E+01
  0.7000000E+00  0.1112092E+06 -0.1564625E+01  0.4272992E+06 -0.5673243E-01  0.3555275E+04 -0.1564618E+01
  0.7309524E+00  0.1203850E+06 -0.1562984E+01  0.4168365E+06 -0.6592300E-01  0.3917478E+04 -0.1562981E+01
  0.7619048E+00  0.1298681E+06 -0.1561028E+01  0.4063103E+06 -0.7599369E-01  0.4299621E+04 -0.1561027E+01
  0.7928572E+00  0.1395554E+06 -0.1558716E+01  0.3957764E+06 -0.8698507E-01  0.4711292E+04 -0.1558717E+01
  0.8238096E+00  0.1494125E+06 -0.1556014E+01  0.3852121E+06 -0.9890083E-01  0.5146914E+04 -0.1556013E+01
  0.8547620E+00  0.1593027E+06 -0.1552884E+01  0.3746365E+06 -0.1117467E+00  0.5573870E+04 -0.1552875E+01
  0.8857143E+00  0.1692693E+06 -0.1549300E+01  0.3640955E+06 -0.1255443E+00  0.6019938E+04 -0.1549291E+01
  0.9166667E+00  0.1793772E+06 -0.1545249E+01  0.3536300E+06 -0.1403220E+00  0.6509776E+04 -0.1545262E+01
  0.9476191E+00  0.1896173E+06 -0.1540713E+01  0.3432667E+06 -0.1560763E+00  0.7032555E+04 -0.1540740E+01
  0.9785714E+00  0.1998582E+06 -0.1535673E+01  0.3330242E+06 -0.1728012E+00  0.7564692E+04 -0.1535707E+01
  0.1009524E+01  0.2099857E+06 -0.1530117E+01  0.3229238E+06 -0.1905100E+00  0.8106903E+04 -0.1530155E+01
  0.1040476E+01  0.2198999E+06 -0.1524045E+01  0.3129819E+06 -0.2092052E+00  0.8662197E+04 -0.1524062E+01
  0.1071429E+01  0.2294910E+06 -0.1517471E+01  0.3031905E+06 -0.2288831E+00  0.9219930E+04 -0.1517434E+01
  0.1102381E+01  0.2387660E+06 -0.1510447E+01  0.2935315E+06 -0.2495408E+00  0.9793289E+04 -0.1510385E+01
  0.1133333E+01  0.2477466E+06 -0.1503081E+01  0.2840627E+06 -0.2712072E+00  0.1036989E+05 -0.1503029E+01
  0.1164286E+01  0.2563004E+06 -0.1495437E+01  0.2747861E+06 -0.2938834E+00  0.1094343E+05 -0.1495469E+01
  0.1195238E+01  0.2643570E+06 -0.1487598E+01  0.2657329E+06 -0.3175585E+00  0.1152707E+05 -0.1487607E+01
  0.1226190E+01  0.2717779E+06 -0.1479655E+01  0.2568838E+06 -0.3422265E+00  0.1211222E+05 -0.1479615E+01
  0.1257143E+01  0.2784987E+06 -0.1471659E+01  0.2482384E+06 -0.3680550E+00  0.1269083E+05 -0.1471572E+01
  0.1288095E+01  0.2845539E+06 -0.1464032E+01  0.2397863E+06 -0.3945250E+00  0.1325658E+05 -0.1463967E+01
  0.1319048E+01  0.2897732E+06 -0.1456726E+01  0.2315694E+06 -0.4221688E+00  0.1378548E+05 -0.1456708E+01
  0.1350000E+01  0.2941533E+06 -0.1449981E+01  0.2235732E+06 -0.4507998E+00  0.1428317E+05 -0.1450034E+01
  0.1380952E+01  0.2976712E+06 -0.1443962E+01  0.2157935E+06 -0.4803695E+00  0.1476664E+05 -0.1443931E+01
  0.1411905E+01  0.2997736E+06 -0.1439420E+01  0.2083441E+06 -0.5104261E+00  0.1516003E+05 -0.1439319E+01
  0.1442857E+01  0.3015289E+06 -0.1435437E+01  0.2009911E+06 -0.5419788E+00  0.1560195E+05 -0.1435323E+01
  0.1473810E+01  0.3024226E+06 -0.1432747E+01  0.1938417E+06 -0.5744989E+00  0.1600631E+05 -0.1432645E+01
  0.1504762E+01  0.3024800E+06 -0.1431498E+01  0.1869031E+06 -0.6079824E+00  0.1636354E+05 -0.1431460E+01
  0.1535714E+01  0.3017041E+06 -0.1431819E+01  0.1801811E+06 -0.6424728E+00  0.1667125E+05 -0.1431765E+01
  0.1566667E+01  0.3001760E+06 -0.1433873E+01  0.1736622E+06 -0.6779626E+00  0.1694967E+05 -0.1433854E+01
  0.1597619E+01  0.2979561E+06 -0.1437781E+01  0.1673756E+06 -0.7144262E+00  0.1720215E+05 -0.1437768E+01
  0.1628572E+01  0.2950998E+06 -0.1443625E+01  0.1612747E+06 -0.7518994E+00  0.1742425E+05 -0.1443658E+01
  0.1659524E+01  0.2916698E+06 -0.1451492E+01  0.1553679E+06 -0.7904028E+00  0.1761276E+05 -0.1451427E+01
  0.1690476E+01  0.2877610E+06 -0.1461439E+01  0.1496278E+06 -0.8298773E+00  0.1776896E+05 -0.1461249E+01
  0.1721429E+01  0.2834362E+06 -0.1473498E+01  0.1440610E+06 -0.8703012E+00  0.1788533E+05 -0.1473218E+01
  0.1752381E+01  0.2787396E+06 -0.1487684E+01  0.1386794E+06 -0.9117226E+00  0.1796973E+05 -0.1487532E+01
  0.1783333E+01  0.2737381E+06 -0.1504022E+01  0.1334820E+06 -0.9542364E+00  0.1802008E+05 -0.1504172E+01
  0.1814286E+01  0.2684962E+06 -0.1522504E+01  0.1284517E+06 -0.9977931E+00  0.1805260E+05 -0.1522891E+01
  0.1845238E+01  0.2630722E+06 -0.1543116E+01  0.1236263E+06 -0.1042290E+01  0.1807491E+05 -0.1543489E+01
  0.1876190E+01  0.2575028E+06 -0.1565824E+01  0.1189428E+06 -0.1087880E+01  0.1808087E+05 -0.1566188E+01
  0.1907143E+01  0.2518340E+06 -0.1590615E+01  0.1144078E+06 -0.1134582E+01  0.1807594E+05 -0.1590808E+01
  0.1938095E+01  0.2461069E+06 -0.1617426E+01  0.1099925E+06 -0.1182403E+01  0.1805308E+05 -0.1617423E+01
  0.1969048E+01  0.2403504E+06 -0.1646211E+01  0.1057076E+06 -0.1231336E+01  0.1801264E+05 -0.1646106E+01
  0.2000000E+01  0.2345920E+06 -0.1676932E+01  0.1015493E+06 -0.1281378E+01  0.1795686E+05 -0.1676907E+01
