VARIABLES="w (rad/s)"
"abs(F   1   1)" "angle(F   1   1)"
"abs(F   1   2)" "angle(F   1   2)"
"abs(F   1   3)" "angle(F   1   3)"
Zone t="Diffraction force - beta =   0.000 deg",I=    64,F=POINT
  0.5000000E-01  0.6092545E+04 -0.1570797E+01  0.3019217E+06 -0.2087849E-04  0.1324046E+05  0.1570797E+01
  0.8095238E-01  0.9985240E+04 -0.1570797E+01  0.3010739E+06 -0.5610378E-04  0.2170698E+05  0.1570797E+01
  0.1119048E+00  0.1395276E+05 -0.1570788E+01  0.2998290E+06 -0.1112290E-03  0.3031847E+05  0.1570809E+01
  0.1428571E+00  0.1805332E+05 -0.1570781E+01  0.2981872E+06 -0.1903851E-03  0.3920882E+05  0.1570808E+01
  0.1738095E+00  0.2232024E+05 -0.1570777E+01  0.2961481E+06 -0.2995438E-03  0.4843736E+05  0.1570817E+01
  0.2047619E+00  0.2684176E+05 -0.1570764E+01  0.2937212E+06 -0.4477665E-03  0.5820087E+05  0.1570828E+01
  0.2357143E+00  0.3164496E+05 -0.1570749E+01  0.2908981E+06 -0.6479393E-03  0.6856388E+05  0.1570846E+01
  0.2666667E+00  0.3679933E+05 -0.1570722E+01  0.2876897E+06 -0.9152769E-03  0.7966301E+05  0.1570870E+01
  0.2976190E+00  0.4244018E+05 -0.1570685E+01  0.2840974E+06 -0.1277220E-02  0.9175454E+05  0.1570908E+01
  0.3285715E+00  0.4857226E+05 -0.1570629E+01  0.2801345E+06 -0.1758917E-02  0.1048843E+06  0.1570963E+01
  0.3595238E+00  0.5538681E+05 -0.1570546E+01  0.2758080E+06 -0.2403590E-02  0.1193855E+06  0.1571047E+01
  0.3904762E+00  0.6284057E+05 -0.1570420E+01  0.2711482E+06 -0.3255909E-02  0.1353138E+06  0.1571172E+01
  0.4214286E+00  0.7120317E+05 -0.1570237E+01  0.2661532E+06 -0.4342983E-02  0.1530369E+06  0.1571357E+01
  0.4523810E+00  0.8043215E+05 -0.1569964E+01  0.2609084E+06 -0.5752026E-02  0.1725406E+06  0.1571628E+01
  0.4833333E+00  0.9049184E+05 -0.1569585E+01  0.2553646E+06 -0.7424136E-02  0.1937843E+06  0.1572008E+01
  0.5142857E+00  0.1015748E+06 -0.1569053E+01  0.2496483E+06 -0.9467866E-02  0.2171340E+06  0.1572538E+01
  0.5452381E+00  0.1134021E+06 -0.1568341E+01  0.2437104E+06 -0.1183705E-01  0.2419167E+06  0.1573252E+01
  0.5761905E+00  0.1260961E+06 -0.1567405E+01  0.2375710E+06 -0.1452481E-01  0.2682308E+06  0.1574188E+01
  0.6071429E+00  0.1395981E+06 -0.1566182E+01  0.2313572E+06 -0.1763443E-01  0.2963217E+06  0.1575411E+01
  0.6380953E+00  0.1537313E+06 -0.1564640E+01  0.2249389E+06 -0.2104415E-01  0.3256594E+06  0.1576952E+01
  0.6690477E+00  0.1687259E+06 -0.1562704E+01  0.2184173E+06 -0.2484416E-01  0.3563860E+06  0.1578888E+01
  0.7000000E+00  0.1844347E+06 -0.1560289E+01  0.2118792E+06 -0.2909523E-01  0.3885212E+06  0.1581304E+01
  0.7309524E+00  0.2007641E+06 -0.1557334E+01  0.2052083E+06 -0.3372715E-01  0.4216098E+06  0.1584259E+01
  0.7619048E+00  0.2178376E+06 -0.1553737E+01  0.1984360E+06 -0.3878422E-01  0.4559473E+06  0.1587855E+01
  0.7928572E+00  0.2358592E+06 -0.1549396E+01  0.1917815E+06 -0.4430971E-01  0.4922976E+06  0.1592196E+01
  0.8238096E+00  0.2542949E+06 -0.1544204E+01  0.1850771E+06 -0.5029990E-01  0.5290600E+06  0.1597388E+01
  0.8547620E+00  0.2735674E+06 -0.1538041E+01  0.1783114E+06 -0.5678166E-01  0.5673031E+06  0.1603550E+01
  0.8857143E+00  0.2937057E+06 -0.1530771E+01  0.1715864E+06 -0.6372394E-01  0.6065854E+06  0.1610820E+01
  0.9166667E+00  0.3147898E+06 -0.1522257E+01  0.1650080E+06 -0.7117462E-01  0.6476166E+06  0.1619335E+01
  0.9476191E+00  0.3361294E+06 -0.1512368E+01  0.1584623E+06 -0.7914248E-01  0.6887944E+06  0.1629223E+01
  0.9785714E+00  0.3583356E+06 -0.1500926E+01  0.1519359E+06 -0.8769431E-01  0.7316352E+06  0.1640665E+01
  0.1009524E+01  0.3810521E+06 -0.1487822E+01  0.1454194E+06 -0.9680307E-01  0.7745705E+06  0.1653768E+01
  0.1040476E+01  0.4048454E+06 -0.1472838E+01  0.1392181E+06 -0.1063602E+00  0.8194879E+06  0.1668751E+01
  0.1071429E+01  0.4288207E+06 -0.1455863E+01  0.1330837E+06 -0.1165748E+00  0.8643029E+06  0.1685724E+01
  0.1102381E+01  0.4528195E+06 -0.1436734E+01  0.1270452E+06 -0.1274087E+00  0.9080947E+06  0.1704851E+01
  0.1133333E+01  0.4772476E+06 -0.1415309E+01  0.1210917E+06 -0.1389892E+00  0.9525189E+06  0.1726275E+01
  0.1164286E+01  0.5014226E+06 -0.1391599E+01  0.1152030E+06 -0.1513049E+00  0.9950983E+06  0.1749980E+01
  0.1195238E+01  0.5258611E+06 -0.1365419E+01  0.1096765E+06 -0.1639212E+00  0.1038318E+07  0.1776155E+01
  0.1226190E+01  0.5492067E+06 -0.1336828E+01  0.1042799E+06 -0.1773824E+00  0.1079125E+07  0.1804747E+01
  0.1257143E+01  0.5700574E+06 -0.1306489E+01  0.9903138E+05 -0.1916918E+00  0.1114265E+07  0.1835077E+01
  0.1288095E+01  0.5913504E+06 -0.1273148E+01  0.9391755E+05 -0.2067958E+00  0.1149342E+07  0.1868417E+01
  0.1319048E+01  0.6097929E+06 -0.1238365E+01  0.8893791E+05 -0.2229835E+00  0.1178530E+07  0.1903197E+01
  0.1350000E+01  0.6261861E+06 -0.1201998E+01  0.8408877E+05 -0.2401861E+00  0.1202307E+07  0.1939538E+01
  0.1380952E+01  0.6408313E+06 -0.1163966E+01  0.7962416E+05 -0.2571371E+00  0.1222731E+07  0.1977553E+01
  0.1411905E+01  0.6502282E+06 -0.1125239E+01  0.7532049E+05 -0.2751803E+00  0.1234470E+07  0.2016289E+01
  0.1442857E+01  0.6571830E+06 -0.1086734E+01  0.7117216E+05 -0.2942215E+00  0.1239139E+07  0.2054765E+01
  0.1473810E+01  0.6604848E+06 -0.1048750E+01  0.6720652E+05 -0.3143531E+00  0.1236643E+07  0.2092727E+01
  0.1504762E+01  0.6606777E+06 -0.1011503E+01  0.6340840E+05 -0.3356903E+00  0.1229147E+07  0.2130004E+01
  0.1535714E+01  0.6573979E+06 -0.9762024E+00  0.5975373E+05 -0.3582937E+00  0.1213965E+07  0.2165234E+01
  0.1566667E+01  0.6514728E+06 -0.9428710E+00  0.5630038E+05 -0.3814331E+00  0.1194113E+07  0.2198502E+01
  0.1597619E+01  0.6433942E+06 -0.9116501E+00  0.5315969E+05 -0.4035076E+00  0.1171256E+07  0.2229718E+01
  0.1628572E+01  0.6321622E+06 -0.8834535E+00  0.5017392E+05 -0.4265278E+00  0.1142592E+07  0.2257928E+01
  0.1659524E+01  0.6189846E+06 -0.8585517E+00  0.4734065E+05 -0.4502181E+00  0.1110294E+07  0.2282781E+01
  0.1690476E+01  0.6041706E+06 -0.8368770E+00  0.4467356E+05 -0.4742115E+00  0.1074706E+07  0.2304347E+01
  0.1721429E+01  0.5884681E+06 -0.8178349E+00  0.4216342E+05 -0.4980442E+00  0.1038338E+07  0.2323395E+01
  0.1752381E+01  0.5720772E+06 -0.8019780E+00  0.3977418E+05 -0.5221816E+00  0.1000908E+07  0.2339212E+01
  0.1783333E+01  0.5551290E+06 -0.7894958E+00  0.3749526E+05 -0.5468450E+00  0.9623557E+06  0.2351476E+01
  0.1814286E+01  0.5381095E+06 -0.7798163E+00  0.3536420E+05 -0.5694075E+00  0.9245412E+06  0.2361013E+01
  0.1845238E+01  0.5213665E+06 -0.7728044E+00  0.3339653E+05 -0.5881712E+00  0.8882546E+06  0.2368045E+01
  0.1876190E+01  0.5041864E+06 -0.7693768E+00  0.3150070E+05 -0.6064085E+00  0.8514255E+06  0.2371526E+01
  0.1907143E+01  0.4873388E+06 -0.7687038E+00  0.2968083E+05 -0.6237852E+00  0.8156278E+06  0.2372200E+01
  0.1938095E+01  0.4705848E+06 -0.7707992E+00  0.2792414E+05 -0.6403564E+00  0.7798453E+06  0.2369759E+01
  0.1969048E+01  0.4544804E+06 -0.7749479E+00  0.2622462E+05 -0.6547952E+00  0.7458101E+06  0.2365455E+01
  0.2000000E+01  0.4389587E+06 -0.7812507E+00  0.2456824E+05 -0.6682101E+00  0.7134609E+06  0.2359244E+01
