VARIABLES="w (rad/s)"
"abs(F   1   1)" "angle(F   1   1)"
"abs(F   1   2)" "angle(F   1   2)"
"abs(F   1   3)" "angle(F   1   3)"
Zone t="Diffraction force - beta =   0.000 deg",I=    64,F=POINT
  0.5000000E-01  0.3957696E+03 -0.1570796E+01  0.4015362E+02 -0.3120258E+01  0.5289171E+03  0.1570797E+01
  0.8095238E-01  0.6480057E+03 -0.1570795E+01  0.1043339E+03 -0.3119547E+01  0.8659359E+03  0.1570798E+01
  0.1119048E+00  0.9082872E+03 -0.1570794E+01  0.1989010E+03 -0.3118695E+01  0.1213338E+04  0.1570799E+01
  0.1428571E+00  0.1175752E+04 -0.1570792E+01  0.3234167E+03 -0.3117530E+01  0.1571223E+04  0.1570801E+01
  0.1738095E+00  0.1458123E+04 -0.1570789E+01  0.4782002E+03 -0.3116035E+01  0.1946083E+04  0.1570804E+01
  0.2047619E+00  0.1751351E+04 -0.1570784E+01  0.6643178E+03 -0.3114166E+01  0.2338290E+04  0.1570808E+01
  0.2357143E+00  0.2068764E+04 -0.1570778E+01  0.8789524E+03 -0.3111684E+01  0.2759281E+04  0.1570814E+01
  0.2666667E+00  0.2408809E+04 -0.1570768E+01  0.1125953E+04 -0.3108714E+01  0.3210928E+04  0.1570823E+01
  0.2976190E+00  0.2776432E+04 -0.1570754E+01  0.1401787E+04 -0.3104880E+01  0.3702043E+04  0.1570837E+01
  0.3285715E+00  0.3183896E+04 -0.1570733E+01  0.1710128E+04 -0.3100312E+01  0.4240465E+04  0.1570857E+01
  0.3595238E+00  0.3630223E+04 -0.1570702E+01  0.2044431E+04 -0.3094617E+01  0.4831745E+04  0.1570887E+01
  0.3904762E+00  0.4122510E+04 -0.1570654E+01  0.2414073E+04 -0.3087974E+01  0.5486573E+04  0.1570933E+01
  0.4214286E+00  0.4678252E+04 -0.1570585E+01  0.2799667E+04 -0.3080217E+01  0.6219948E+04  0.1571000E+01
  0.4523810E+00  0.5288635E+04 -0.1570482E+01  0.3222948E+04 -0.3071449E+01  0.7022759E+04  0.1571099E+01
  0.4833333E+00  0.5963557E+04 -0.1570339E+01  0.3652517E+04 -0.3062167E+01  0.7913588E+04  0.1571236E+01
  0.5142857E+00  0.6684511E+04 -0.1570139E+01  0.4108621E+04 -0.3052203E+01  0.8875079E+04  0.1571429E+01
  0.5452381E+00  0.7481012E+04 -0.1569872E+01  0.4583027E+04 -0.3042188E+01  0.9910450E+04  0.1571687E+01
  0.5761905E+00  0.8322835E+04 -0.1569521E+01  0.5061054E+04 -0.3031995E+01  0.1100957E+05  0.1572025E+01
  0.6071429E+00  0.9210194E+04 -0.1569064E+01  0.5568680E+04 -0.3021836E+01  0.1217526E+05  0.1572465E+01
  0.6380953E+00  0.1015432E+05 -0.1568491E+01  0.6071746E+04 -0.3011787E+01  0.1342002E+05  0.1573016E+01
  0.6690477E+00  0.1113827E+05 -0.1567772E+01  0.6581047E+04 -0.3001646E+01  0.1470043E+05  0.1573708E+01
  0.7000000E+00  0.1217757E+05 -0.1566882E+01  0.7114761E+04 -0.2991800E+01  0.1604936E+05  0.1574566E+01
  0.7309524E+00  0.1327816E+05 -0.1565803E+01  0.7637246E+04 -0.2981844E+01  0.1746171E+05  0.1575609E+01
  0.7619048E+00  0.1439876E+05 -0.1564491E+01  0.8155124E+04 -0.2971757E+01  0.1891177E+05  0.1576874E+01
  0.7928572E+00  0.1555856E+05 -0.1562915E+01  0.8686115E+04 -0.2962015E+01  0.2043117E+05  0.1578388E+01
  0.8238096E+00  0.1675986E+05 -0.1561044E+01  0.9231147E+04 -0.2952808E+01  0.2197491E+05  0.1580192E+01
  0.8547620E+00  0.1804898E+05 -0.1558856E+01  0.9730572E+04 -0.2942698E+01  0.2362186E+05  0.1582304E+01
  0.8857143E+00  0.1935726E+05 -0.1556287E+01  0.1023184E+05 -0.2932930E+01  0.2527423E+05  0.1584787E+01
  0.9166667E+00  0.2071690E+05 -0.1553307E+01  0.1074387E+05 -0.2923723E+01  0.2700987E+05  0.1587661E+01
  0.9476191E+00  0.2209834E+05 -0.1549861E+01  0.1126388E+05 -0.2915210E+01  0.2873833E+05  0.1590995E+01
  0.9785714E+00  0.2355847E+05 -0.1545931E+01  0.1171707E+05 -0.2905531E+01  0.3058813E+05  0.1594788E+01
  0.1009524E+01  0.2502141E+05 -0.1541432E+01  0.1216795E+05 -0.2896287E+01  0.3245294E+05  0.1599121E+01
  0.1040476E+01  0.2652664E+05 -0.1536343E+01  0.1261279E+05 -0.2887432E+01  0.3433896E+05  0.1604033E+01
  0.1071429E+01  0.2809720E+05 -0.1530634E+01  0.1305886E+05 -0.2879194E+01  0.3629212E+05  0.1609548E+01
  0.1102381E+01  0.2971353E+05 -0.1524248E+01  0.1348681E+05 -0.2871294E+01  0.3825623E+05  0.1615743E+01
  0.1133333E+01  0.3140421E+05 -0.1517160E+01  0.1384953E+05 -0.2862445E+01  0.4033075E+05  0.1622605E+01
  0.1164286E+01  0.3308706E+05 -0.1509252E+01  0.1420351E+05 -0.2854078E+01  0.4238123E+05  0.1630263E+01
  0.1195238E+01  0.3477489E+05 -0.1500485E+01  0.1454319E+05 -0.2846084E+01  0.4441947E+05  0.1638760E+01
  0.1226190E+01  0.3651068E+05 -0.1490856E+01  0.1487746E+05 -0.2838637E+01  0.4655068E+05  0.1648059E+01
  0.1257143E+01  0.3818730E+05 -0.1480249E+01  0.1520606E+05 -0.2831786E+01  0.4856994E+05  0.1658318E+01
  0.1288095E+01  0.4002530E+05 -0.1468818E+01  0.1546025E+05 -0.2824386E+01  0.5076753E+05  0.1669389E+01
  0.1319048E+01  0.4184716E+05 -0.1456441E+01  0.1568393E+05 -0.2816750E+01  0.5293680E+05  0.1681362E+01
  0.1350000E+01  0.4365560E+05 -0.1443049E+01  0.1588985E+05 -0.2809536E+01  0.5503624E+05  0.1694356E+01
  0.1380952E+01  0.4546187E+05 -0.1428607E+01  0.1607928E+05 -0.2802680E+01  0.5710817E+05  0.1708387E+01
  0.1411905E+01  0.4720212E+05 -0.1412919E+01  0.1625672E+05 -0.2796162E+01  0.5918930E+05  0.1723494E+01
  0.1442857E+01  0.4895956E+05 -0.1396292E+01  0.1642530E+05 -0.2790391E+01  0.6115027E+05  0.1739663E+01
  0.1473810E+01  0.5071743E+05 -0.1378619E+01  0.1654478E+05 -0.2784529E+01  0.6309427E+05  0.1756852E+01
  0.1504762E+01  0.5248138E+05 -0.1359913E+01  0.1659855E+05 -0.2777939E+01  0.6506789E+05  0.1774997E+01
  0.1535714E+01  0.5413848E+05 -0.1339987E+01  0.1664121E+05 -0.2771732E+01  0.6691166E+05  0.1794296E+01
  0.1566667E+01  0.5569021E+05 -0.1318920E+01  0.1666345E+05 -0.2765892E+01  0.6857737E+05  0.1814729E+01
  0.1597619E+01  0.5716848E+05 -0.1296765E+01  0.1666833E+05 -0.2760163E+01  0.7017085E+05  0.1836156E+01
  0.1628572E+01  0.5859579E+05 -0.1273756E+01  0.1666133E+05 -0.2754793E+01  0.7170484E+05  0.1858361E+01
  0.1659524E+01  0.5988534E+05 -0.1249905E+01  0.1664397E+05 -0.2749959E+01  0.7296527E+05  0.1881481E+01
  0.1690476E+01  0.6108941E+05 -0.1225297E+01  0.1660366E+05 -0.2745505E+01  0.7408405E+05  0.1905369E+01
  0.1721429E+01  0.6222566E+05 -0.1200005E+01  0.1647773E+05 -0.2740332E+01  0.7512902E+05  0.1929877E+01
  0.1752381E+01  0.6320234E+05 -0.1173850E+01  0.1634002E+05 -0.2735275E+01  0.7600304E+05  0.1955166E+01
  0.1783333E+01  0.6399873E+05 -0.1146968E+01  0.1618890E+05 -0.2730525E+01  0.7663677E+05  0.1981143E+01
  0.1814286E+01  0.6457037E+05 -0.1119366E+01  0.1602331E+05 -0.2726068E+01  0.7694365E+05  0.2007865E+01
  0.1845238E+01  0.6499752E+05 -0.1091233E+01  0.1584158E+05 -0.2721581E+01  0.7711077E+05  0.2035004E+01
  0.1876190E+01  0.6527768E+05 -0.1062833E+01  0.1565083E+05 -0.2717360E+01  0.7712591E+05  0.2062308E+01
  0.1907143E+01  0.6535014E+05 -0.1034360E+01  0.1545336E+05 -0.2713534E+01  0.7681938E+05  0.2089743E+01
  0.1938095E+01  0.6524427E+05 -0.1005876E+01  0.1525220E+05 -0.2710151E+01  0.7627430E+05  0.2117191E+01
  0.1969048E+01  0.6499327E+05 -0.9774479E+00  0.1499236E+05 -0.2706861E+01  0.7557232E+05  0.2144518E+01
  0.2000000E+01  0.6460949E+05 -0.9491883E+00  0.1469662E+05 -0.2703362E+01  0.7474928E+05  0.2171555E+01
