VARIABLES="w (rad/s)"
"abs(F   1   1)" "angle(F   1   1)"
"abs(F   1   2)" "angle(F   1   2)"
"abs(F   1   3)" "angle(F   1   3)"
Zone t="Diffraction force - beta =   0.000 deg",I=    64,F=POINT
  0.5000000E-01  0.1415320E+04 -0.1570795E+01  0.3403663E+02 -0.3118850E+01  0.5925464E+04  0.1570798E+01
  0.8095238E-01  0.2318146E+04 -0.1570793E+01  0.8861470E+02 -0.3118237E+01  0.9682504E+04  0.1570800E+01
  0.1119048E+00  0.3236333E+04 -0.1570789E+01  0.1684681E+03 -0.3117421E+01  0.1349463E+05  0.1570804E+01
  0.1428571E+00  0.4180892E+04 -0.1570784E+01  0.2733846E+03 -0.3116351E+01  0.1741196E+05  0.1570809E+01
  0.1738095E+00  0.5158114E+04 -0.1570776E+01  0.4031626E+03 -0.3115008E+01  0.2145019E+05  0.1570817E+01
  0.2047619E+00  0.6184163E+04 -0.1570764E+01  0.5570724E+03 -0.3113257E+01  0.2567738E+05  0.1570829E+01
  0.2357143E+00  0.7266686E+04 -0.1570748E+01  0.7346486E+03 -0.3111041E+01  0.3011802E+05  0.1570846E+01
  0.2666667E+00  0.8418339E+04 -0.1570724E+01  0.9356868E+03 -0.3108399E+01  0.3482295E+05  0.1570870E+01
  0.2976190E+00  0.9667563E+04 -0.1570689E+01  0.1157468E+04 -0.3104980E+01  0.3988943E+05  0.1570906E+01
  0.3285715E+00  0.1100913E+05 -0.1570637E+01  0.1400606E+04 -0.3100982E+01  0.4531582E+05  0.1570960E+01
  0.3595238E+00  0.1248640E+05 -0.1570559E+01  0.1660019E+04 -0.3096056E+01  0.5123026E+05  0.1571038E+01
  0.3904762E+00  0.1408889E+05 -0.1570445E+01  0.1935720E+04 -0.3090257E+01  0.5765484E+05  0.1571155E+01
  0.4214286E+00  0.1586533E+05 -0.1570280E+01  0.2221572E+04 -0.3083861E+01  0.6467502E+05  0.1571324E+01
  0.4523810E+00  0.1778472E+05 -0.1570040E+01  0.2513963E+04 -0.3076247E+01  0.7224351E+05  0.1571569E+01
  0.4833333E+00  0.1987016E+05 -0.1569712E+01  0.2811965E+04 -0.3068907E+01  0.8039967E+05  0.1571903E+01
  0.5142857E+00  0.2212685E+05 -0.1569262E+01  0.3102766E+04 -0.3060671E+01  0.8914836E+05  0.1572362E+01
  0.5452381E+00  0.2449303E+05 -0.1568671E+01  0.3395434E+04 -0.3052703E+01  0.9826370E+05  0.1572965E+01
  0.5761905E+00  0.2700996E+05 -0.1567915E+01  0.3676755E+04 -0.3044918E+01  0.1077688E+06  0.1573736E+01
  0.6071429E+00  0.2959651E+05 -0.1566950E+01  0.3946997E+04 -0.3036731E+01  0.1175193E+06  0.1574720E+01
  0.6380953E+00  0.3227651E+05 -0.1565766E+01  0.4215306E+04 -0.3029396E+01  0.1275215E+06  0.1575925E+01
  0.6690477E+00  0.3507931E+05 -0.1564324E+01  0.4459684E+04 -0.3021925E+01  0.1377576E+06  0.1577394E+01
  0.7000000E+00  0.3788591E+05 -0.1562573E+01  0.4690045E+04 -0.3014332E+01  0.1479116E+06  0.1579177E+01
  0.7309524E+00  0.4076243E+05 -0.1560495E+01  0.4912703E+04 -0.3007223E+01  0.1581693E+06  0.1581289E+01
  0.7619048E+00  0.4371798E+05 -0.1558051E+01  0.5110493E+04 -0.3000136E+01  0.1684434E+06  0.1583778E+01
  0.7928572E+00  0.4671208E+05 -0.1555194E+01  0.5285080E+04 -0.2992981E+01  0.1787638E+06  0.1586681E+01
  0.8238096E+00  0.4968020E+05 -0.1551877E+01  0.5444670E+04 -0.2985912E+01  0.1888438E+06  0.1590046E+01
  0.8547620E+00  0.5268584E+05 -0.1548079E+01  0.5592435E+04 -0.2979019E+01  0.1987669E+06  0.1593900E+01
  0.8857143E+00  0.5578636E+05 -0.1543774E+01  0.5700449E+04 -0.2972166E+01  0.2086552E+06  0.1598278E+01
  0.9166667E+00  0.5883306E+05 -0.1538890E+01  0.5790005E+04 -0.2965313E+01  0.2182805E+06  0.1603228E+01
  0.9476191E+00  0.6183266E+05 -0.1533396E+01  0.5860699E+04 -0.2958404E+01  0.2274858E+06  0.1608794E+01
  0.9785714E+00  0.6485064E+05 -0.1527272E+01  0.5916334E+04 -0.2951446E+01  0.2365075E+06  0.1614992E+01
  0.1009524E+01  0.6789004E+05 -0.1520492E+01  0.5938975E+04 -0.2944719E+01  0.2452602E+06  0.1621858E+01
  0.1040476E+01  0.7092638E+05 -0.1513021E+01  0.5936109E+04 -0.2938028E+01  0.2538016E+06  0.1629410E+01
  0.1071429E+01  0.7382812E+05 -0.1504805E+01  0.5914487E+04 -0.2931180E+01  0.2615732E+06  0.1637712E+01
  0.1102381E+01  0.7670450E+05 -0.1495836E+01  0.5876137E+04 -0.2924176E+01  0.2689973E+06  0.1646765E+01
  0.1133333E+01  0.7951535E+05 -0.1486091E+01  0.5824465E+04 -0.2916926E+01  0.2758440E+06  0.1656602E+01
  0.1164286E+01  0.8231700E+05 -0.1475566E+01  0.5742752E+04 -0.2910349E+01  0.2822927E+06  0.1667235E+01
  0.1195238E+01  0.8508195E+05 -0.1464235E+01  0.5641774E+04 -0.2903859E+01  0.2883851E+06  0.1678662E+01
  0.1226190E+01  0.8765877E+05 -0.1452008E+01  0.5524262E+04 -0.2897144E+01  0.2936709E+06  0.1690970E+01
  0.1257143E+01  0.9001442E+05 -0.1438900E+01  0.5393866E+04 -0.2890056E+01  0.2980364E+06  0.1704132E+01
  0.1288095E+01  0.9248717E+05 -0.1424931E+01  0.5255854E+04 -0.2883004E+01  0.3024645E+06  0.1718156E+01
  0.1319048E+01  0.9467795E+05 -0.1410118E+01  0.5108993E+04 -0.2875320E+01  0.3056099E+06  0.1733030E+01
  0.1350000E+01  0.9684627E+05 -0.1394547E+01  0.4938541E+04 -0.2869489E+01  0.3083162E+06  0.1748687E+01
  0.1380952E+01  0.9889867E+05 -0.1378118E+01  0.4761821E+04 -0.2863381E+01  0.3105112E+06  0.1765169E+01
  0.1411905E+01  0.1004681E+06 -0.1360468E+01  0.4573730E+04 -0.2857069E+01  0.3115472E+06  0.1782699E+01
  0.1442857E+01  0.1020006E+06 -0.1342248E+01  0.4383700E+04 -0.2850653E+01  0.3116396E+06  0.1800940E+01
  0.1473810E+01  0.1034331E+06 -0.1323136E+01  0.4191109E+04 -0.2844047E+01  0.3114462E+06  0.1820020E+01
  0.1504762E+01  0.1046361E+06 -0.1303240E+01  0.3999749E+04 -0.2837134E+01  0.3102687E+06  0.1839877E+01
  0.1535714E+01  0.1056882E+06 -0.1282575E+01  0.3803106E+04 -0.2830857E+01  0.3084369E+06  0.1860531E+01
  0.1566667E+01  0.1066177E+06 -0.1261238E+01  0.3607700E+04 -0.2825676E+01  0.3060993E+06  0.1881796E+01
  0.1597619E+01  0.1072856E+06 -0.1239022E+01  0.3407409E+04 -0.2820621E+01  0.3031936E+06  0.1903868E+01
  0.1628572E+01  0.1076519E+06 -0.1216100E+01  0.3206643E+04 -0.2815819E+01  0.2993664E+06  0.1926607E+01
  0.1659524E+01  0.1076655E+06 -0.1192749E+01  0.3012929E+04 -0.2810674E+01  0.2942678E+06  0.1949715E+01
  0.1690476E+01  0.1075422E+06 -0.1168805E+01  0.2821779E+04 -0.2805918E+01  0.2889820E+06  0.1973469E+01
  0.1721429E+01  0.1072231E+06 -0.1144420E+01  0.2641208E+04 -0.2800370E+01  0.2832062E+06  0.1997545E+01
  0.1752381E+01  0.1065761E+06 -0.1119842E+01  0.2464711E+04 -0.2795159E+01  0.2762730E+06  0.2021835E+01
  0.1783333E+01  0.1058113E+06 -0.1094886E+01  0.2294008E+04 -0.2791583E+01  0.2692085E+06  0.2046528E+01
  0.1814286E+01  0.1049271E+06 -0.1069730E+01  0.2136963E+04 -0.2786811E+01  0.2619949E+06  0.2071261E+01
  0.1845238E+01  0.1036993E+06 -0.1044082E+01  0.1973641E+04 -0.2784952E+01  0.2543092E+06  0.2096514E+01
  0.1876190E+01  0.1022213E+06 -0.1018337E+01  0.1816681E+04 -0.2783984E+01  0.2461025E+06  0.2121826E+01
  0.1907143E+01  0.1003942E+06 -0.9929371E+00  0.1673284E+04 -0.2781330E+01  0.2368746E+06  0.2146427E+01
  0.1938095E+01  0.9846866E+05 -0.9675100E+00  0.1533958E+04 -0.2781276E+01  0.2277914E+06  0.2171312E+01
  0.1969048E+01  0.9643060E+05 -0.9420099E+00  0.1405604E+04 -0.2779220E+01  0.2189025E+06  0.2196265E+01
  0.2000000E+01  0.9416367E+05 -0.9170020E+00  0.1289615E+04 -0.2775423E+01  0.2094649E+06  0.2220457E+01
