VARIABLES="w (rad/s)"
"abs(F   1   1)" "angle(F   1   1)"
"abs(F   1   2)" "angle(F   1   2)"
"abs(F   1   3)" "angle(F   1   3)"
Zone t="Diffraction force - beta =   0.000 deg",I=    64,F=POINT
  0.5000000E-01  0.1931492E+04 -0.1570794E+01  0.4950304E+02 -0.3115903E+01  0.8619536E+04  0.1570798E+01
  0.8095238E-01  0.3160225E+04 -0.1570791E+01  0.1286427E+03 -0.3115176E+01  0.1406610E+05  0.1570801E+01
  0.1119048E+00  0.4412412E+04 -0.1570786E+01  0.2444930E+03 -0.3114267E+01  0.1960369E+05  0.1570806E+01
  0.1428571E+00  0.5700699E+04 -0.1570779E+01  0.3964734E+03 -0.3113066E+01  0.2528253E+05  0.1570814E+01
  0.1738095E+00  0.7037705E+04 -0.1570768E+01  0.5842206E+03 -0.3111567E+01  0.3116281E+05  0.1570825E+01
  0.2047619E+00  0.8426603E+04 -0.1570753E+01  0.8078322E+03 -0.3109664E+01  0.3726761E+05  0.1570841E+01
  0.2357143E+00  0.9900247E+04 -0.1570730E+01  0.1063926E+04 -0.3107183E+01  0.4369845E+05  0.1570864E+01
  0.2666667E+00  0.1147398E+05 -0.1570697E+01  0.1354542E+04 -0.3104278E+01  0.5052950E+05  0.1570898E+01
  0.2976190E+00  0.1316268E+05 -0.1570649E+01  0.1674573E+04 -0.3100509E+01  0.5782047E+05  0.1570947E+01
  0.3285715E+00  0.1499267E+05 -0.1570578E+01  0.2025436E+04 -0.3096133E+01  0.6567557E+05  0.1571020E+01
  0.3595238E+00  0.1699315E+05 -0.1570473E+01  0.2397900E+04 -0.3090721E+01  0.7421734E+05  0.1571127E+01
  0.3904762E+00  0.1916952E+05 -0.1570317E+01  0.2797045E+04 -0.3084440E+01  0.8347548E+05  0.1571286E+01
  0.4214286E+00  0.2158703E+05 -0.1570093E+01  0.3201435E+04 -0.3077374E+01  0.9361200E+05  0.1571514E+01
  0.4523810E+00  0.2418639E+05 -0.1569768E+01  0.3622125E+04 -0.3069143E+01  0.1045065E+06  0.1571846E+01
  0.4833333E+00  0.2703816E+05 -0.1569325E+01  0.4038428E+04 -0.3061060E+01  0.1163134E+06  0.1572298E+01
  0.5142857E+00  0.3005940E+05 -0.1568717E+01  0.4451811E+04 -0.3052175E+01  0.1287585E+06  0.1572918E+01
  0.5452381E+00  0.3328187E+05 -0.1567921E+01  0.4861622E+04 -0.3043554E+01  0.1418385E+06  0.1573730E+01
  0.5761905E+00  0.3668608E+05 -0.1566906E+01  0.5248582E+04 -0.3035065E+01  0.1555280E+06  0.1574765E+01
  0.6071429E+00  0.4019542E+05 -0.1565614E+01  0.5626690E+04 -0.3026309E+01  0.1695723E+06  0.1576080E+01
  0.6380953E+00  0.4384297E+05 -0.1564034E+01  0.5985440E+04 -0.3018308E+01  0.1838431E+06  0.1577690E+01
  0.6690477E+00  0.4759164E+05 -0.1562109E+01  0.6315909E+04 -0.3010255E+01  0.1983346E+06  0.1579649E+01
  0.7000000E+00  0.5140964E+05 -0.1559783E+01  0.6629807E+04 -0.3002167E+01  0.2129244E+06  0.1582015E+01
  0.7309524E+00  0.5530070E+05 -0.1557031E+01  0.6918539E+04 -0.2994505E+01  0.2274687E+06  0.1584815E+01
  0.7619048E+00  0.5931502E+05 -0.1553803E+01  0.7168641E+04 -0.2986802E+01  0.2423002E+06  0.1588095E+01
  0.7928572E+00  0.6327068E+05 -0.1550028E+01  0.7394756E+04 -0.2979131E+01  0.2566201E+06  0.1591926E+01
  0.8238096E+00  0.6729725E+05 -0.1545678E+01  0.7602871E+04 -0.2971612E+01  0.2708419E+06  0.1596342E+01
  0.8547620E+00  0.7142892E+05 -0.1540721E+01  0.7759531E+04 -0.2964215E+01  0.2849625E+06  0.1601380E+01
  0.8857143E+00  0.7553231E+05 -0.1535082E+01  0.7882379E+04 -0.2956746E+01  0.2988353E+06  0.1607097E+01
  0.9166667E+00  0.7955612E+05 -0.1528708E+01  0.7982306E+04 -0.2949346E+01  0.3120639E+06  0.1613552E+01
  0.9476191E+00  0.8360696E+05 -0.1521582E+01  0.8058843E+04 -0.2941864E+01  0.3250465E+06  0.1620761E+01
  0.9785714E+00  0.8768548E+05 -0.1513673E+01  0.8085785E+04 -0.2934629E+01  0.3376229E+06  0.1628766E+01
  0.1009524E+01  0.9174887E+05 -0.1504946E+01  0.8075913E+04 -0.2927418E+01  0.3497513E+06  0.1637591E+01
  0.1040476E+01  0.9563218E+05 -0.1495324E+01  0.8039779E+04 -0.2920061E+01  0.3607603E+06  0.1647318E+01
  0.1071429E+01  0.9950177E+05 -0.1484804E+01  0.7979778E+04 -0.2912526E+01  0.3714017E+06  0.1657936E+01
  0.1102381E+01  0.1032427E+06 -0.1473348E+01  0.7902705E+04 -0.2904761E+01  0.3810409E+06  0.1669500E+01
  0.1133333E+01  0.1069904E+06 -0.1460976E+01  0.7773791E+04 -0.2897914E+01  0.3901879E+06  0.1681996E+01
  0.1164286E+01  0.1106198E+06 -0.1447610E+01  0.7621399E+04 -0.2890939E+01  0.3987010E+06  0.1695458E+01
  0.1195238E+01  0.1139651E+06 -0.1433204E+01  0.7448877E+04 -0.2883700E+01  0.4058132E+06  0.1709946E+01
  0.1226190E+01  0.1171752E+06 -0.1417778E+01  0.7258392E+04 -0.2876281E+01  0.4121751E+06  0.1725434E+01
  0.1257143E+01  0.1201125E+06 -0.1401420E+01  0.7057214E+04 -0.2868374E+01  0.4171749E+06  0.1741831E+01
  0.1288095E+01  0.1230785E+06 -0.1384124E+01  0.6835062E+04 -0.2861177E+01  0.4214241E+06  0.1759250E+01
  0.1319048E+01  0.1258696E+06 -0.1365947E+01  0.6592296E+04 -0.2854888E+01  0.4246964E+06  0.1777538E+01
  0.1350000E+01  0.1283091E+06 -0.1346629E+01  0.6329704E+04 -0.2848428E+01  0.4269020E+06  0.1796906E+01
  0.1380952E+01  0.1303750E+06 -0.1326385E+01  0.6064996E+04 -0.2841782E+01  0.4272668E+06  0.1817188E+01
  0.1411905E+01  0.1319028E+06 -0.1304789E+01  0.5790177E+04 -0.2835044E+01  0.4265226E+06  0.1838608E+01
  0.1442857E+01  0.1335072E+06 -0.1282593E+01  0.5520214E+04 -0.2827962E+01  0.4251792E+06  0.1860743E+01
  0.1473810E+01  0.1347064E+06 -0.1259559E+01  0.5247912E+04 -0.2820488E+01  0.4220695E+06  0.1883740E+01
  0.1504762E+01  0.1357330E+06 -0.1235741E+01  0.4966645E+04 -0.2815402E+01  0.4183316E+06  0.1907497E+01
  0.1535714E+01  0.1365098E+06 -0.1211154E+01  0.4690674E+04 -0.2809818E+01  0.4139282E+06  0.1931901E+01
  0.1566667E+01  0.1367882E+06 -0.1185855E+01  0.4404088E+04 -0.2805066E+01  0.4080341E+06  0.1957078E+01
  0.1597619E+01  0.1365511E+06 -0.1160236E+01  0.4131274E+04 -0.2799656E+01  0.4000205E+06  0.1982440E+01
  0.1628572E+01  0.1360747E+06 -0.1133948E+01  0.3859298E+04 -0.2795034E+01  0.3916171E+06  0.2008540E+01
  0.1659524E+01  0.1353794E+06 -0.1107195E+01  0.3602173E+04 -0.2789622E+01  0.3828542E+06  0.2035007E+01
  0.1690476E+01  0.1341262E+06 -0.1080289E+01  0.3354732E+04 -0.2784154E+01  0.3720637E+06  0.2061581E+01
  0.1721429E+01  0.1327042E+06 -0.1053085E+01  0.3113604E+04 -0.2780241E+01  0.3611397E+06  0.2088495E+01
  0.1752381E+01  0.1310694E+06 -0.1025797E+01  0.2891066E+04 -0.2775864E+01  0.3498533E+06  0.2115299E+01
  0.1783333E+01  0.1290412E+06 -0.9981939E+00  0.2664211E+04 -0.2773550E+01  0.3381134E+06  0.2142432E+01
  0.1814286E+01  0.1266615E+06 -0.9707950E+00  0.2443650E+04 -0.2772768E+01  0.3255939E+06  0.2169416E+01
  0.1845238E+01  0.1238322E+06 -0.9439538E+00  0.2243342E+04 -0.2770240E+01  0.3116792E+06  0.2195448E+01
  0.1876190E+01  0.1208494E+06 -0.9170662E+00  0.2049228E+04 -0.2770257E+01  0.2980353E+06  0.2221753E+01
  0.1907143E+01  0.1177298E+06 -0.8902617E+00  0.1871170E+04 -0.2768366E+01  0.2847421E+06  0.2247957E+01
  0.1938095E+01  0.1142932E+06 -0.8641425E+00  0.1710423E+04 -0.2765044E+01  0.2706392E+06  0.2273148E+01
  0.1969048E+01  0.1106995E+06 -0.8384869E+00  0.1556230E+04 -0.2764353E+01  0.2565170E+06  0.2297893E+01
  0.2000000E+01  0.1070425E+06 -0.8133574E+00  0.1417582E+04 -0.2763275E+01  0.2427816E+06  0.2321962E+01
