VARIABLES="w (rad/s)"
"A   1   1" "B   1   1"
"A   1   2" "B   1   2"
"A   1   3" "B   1   3"
Zone t="Motion of body    1 in DoF   1",I=    64,F=POINT
  0.5000000E-01  0.8414480E+05  0.4071272E-02 -0.2212524E-02 -0.4652922E-05 -0.1306614E+06 -0.6223349E-02
  0.8095238E-01  0.8474238E+05  0.1782137E-01 -0.5371991E-02 -0.1738520E-04 -0.1317032E+06 -0.2740200E-01
  0.1119048E+00  0.8526766E+05  0.5032025E-01 -0.1636262E-02 -0.6812130E-05 -0.1324699E+06 -0.7741273E-01
  0.1428571E+00  0.8553233E+05  0.1135413E+00  0.5500793E-02  0.2902886E-04 -0.1328622E+06 -0.1744504E+00
  0.1738095E+00  0.8559887E+05  0.2262683E+00  0.4499253E-03  0.3868563E-04 -0.1328955E+06 -0.3475177E+00
  0.2047619E+00  0.8576723E+05  0.4181407E+00  0.9128659E-03  0.3518863E-04 -0.1331682E+06 -0.6420523E+00
  0.2357143E+00  0.8597435E+05  0.7375583E+00  0.1618356E-03  0.5478621E-04 -0.1333842E+06 -0.1131722E+01
  0.2666667E+00  0.8617734E+05  0.1260753E+01  0.3905296E-02  0.4660897E-04 -0.1336321E+06 -0.1932946E+01
  0.2976190E+00  0.8635630E+05  0.2119050E+01  0.2499390E-02  0.7311162E-04 -0.1339664E+06 -0.3248586E+01
  0.3285715E+00  0.8658702E+05  0.3515416E+01  0.1323534E-02  0.2865680E-04 -0.1342267E+06 -0.5384443E+01
  0.3595238E+00  0.8695067E+05  0.5793599E+01 -0.5092999E-03 -0.1780689E-04 -0.1346027E+06 -0.8862033E+01
  0.3904762E+00  0.8716821E+05  0.9468208E+01  0.3458348E-02  0.1466088E-03 -0.1349558E+06 -0.1447523E+02
  0.4214286E+00  0.8754741E+05  0.1529607E+02  0.1164064E-01  0.7991940E-03 -0.1354510E+06 -0.2336063E+02
  0.4523810E+00  0.8804590E+05  0.2451185E+02 -0.6105121E-02 -0.6490871E-03 -0.1360805E+06 -0.3738751E+02
  0.4833333E+00  0.8841136E+05  0.3828429E+02  0.2494023E-02  0.2428591E-03 -0.1365822E+06 -0.5833352E+02
  0.5142857E+00  0.8895822E+05  0.5889454E+02 -0.4153782E-02  0.9894371E-05 -0.1373768E+06 -0.8965036E+02
  0.5452381E+00  0.8943651E+05  0.8842908E+02 -0.2728591E-02 -0.5660951E-03 -0.1380072E+06 -0.1344347E+03
  0.5761905E+00  0.9002526E+05  0.1297572E+03 -0.1085770E-02 -0.6652474E-03 -0.1386880E+06 -0.1969040E+03
  0.6071429E+00  0.9075988E+05  0.1871243E+03  0.4913330E-02  0.3310442E-03 -0.1397393E+06 -0.2836106E+03
  0.6380953E+00  0.9135355E+05  0.2637003E+03 -0.8608690E-03 -0.6392002E-03 -0.1406198E+06 -0.3992175E+03
  0.6690477E+00  0.9205958E+05  0.3655552E+03 -0.4492926E-02 -0.1250982E-02 -0.1415402E+06 -0.5524755E+03
  0.7000000E+00  0.9298092E+05  0.4999961E+03  0.2768380E-02  0.1132488E-02 -0.1427800E+06 -0.7543303E+03
  0.7309524E+00  0.9380481E+05  0.6730820E+03 -0.3799289E-02 -0.2498627E-03 -0.1438512E+06 -0.1013511E+04
  0.7619048E+00  0.9470963E+05  0.8948286E+03  0.7009506E-02  0.2022743E-02 -0.1450341E+06 -0.1344735E+04
  0.7928572E+00  0.9581389E+05  0.1176907E+04 -0.1712833E-02 -0.1325607E-03 -0.1465956E+06 -0.1765650E+04
  0.8238096E+00  0.9679850E+05  0.1529655E+04 -0.2741290E-02 -0.3487110E-02 -0.1479731E+06 -0.2290847E+04
  0.8547620E+00  0.9794298E+05  0.1969422E+04 -0.5176937E-03  0.2946854E-03 -0.1495872E+06 -0.2944057E+04
  0.8857143E+00  0.9915228E+05  0.2512847E+04  0.1481579E-02  0.6389618E-04 -0.1510348E+06 -0.3745417E+04
  0.9166667E+00  0.1005877E+06  0.3181945E+04  0.1348322E-02  0.4863739E-03 -0.1529733E+06 -0.4731757E+04
  0.9476191E+00  0.1018981E+06  0.3992292E+04  0.1626326E-02  0.1621246E-02 -0.1547066E+06 -0.5922451E+04
  0.9785714E+00  0.1032917E+06  0.4972048E+04 -0.4350426E-02 -0.5964279E-02 -0.1566090E+06 -0.7359030E+04
  0.1009524E+01  0.1047147E+06  0.6146698E+04  0.1330106E-02  0.1564026E-02 -0.1585049E+06 -0.9074945E+04
  0.1040476E+01  0.1062967E+06  0.7551819E+04  0.1407859E-02  0.2164841E-02 -0.1606136E+06 -0.1112068E+05
  0.1071429E+01  0.1079245E+06  0.9217893E+04  0.1466878E-02 -0.1770020E-02 -0.1628091E+06 -0.1353966E+05
  0.1102381E+01  0.1094931E+06  0.1117785E+05  0.1827100E-02  0.1678467E-02 -0.1647220E+06 -0.1636321E+05
  0.1133333E+01  0.1111490E+06  0.1348035E+05 -0.1050164E-02 -0.2334595E-02 -0.1668808E+06 -0.1967634E+05
  0.1164286E+01  0.1127371E+06  0.1615409E+05  0.2385239E-02 -0.2761841E-02 -0.1688183E+06 -0.2349900E+05
  0.1195238E+01  0.1143657E+06  0.1925380E+05 -0.5157592E-02 -0.4547119E-02 -0.1708070E+06 -0.2791262E+05
  0.1226190E+01  0.1159738E+06  0.2282135E+05 -0.1567952E-02 -0.2059937E-02 -0.1728527E+06 -0.3298252E+05
  0.1257143E+01  0.1171224E+06  0.2681250E+05  0.6554343E-03  0.2334595E-02 -0.1742443E+06 -0.3863218E+05
  0.1288095E+01  0.1185228E+06  0.3143861E+05  0.1611057E-02  0.9994507E-03 -0.1758733E+06 -0.4513406E+05
  0.1319048E+01  0.1195940E+06  0.3658009E+05 -0.1272484E-02  0.1182556E-02 -0.1771537E+06 -0.5235004E+05
  0.1350000E+01  0.1203664E+06  0.4227366E+05  0.2034505E-03  0.1205444E-02 -0.1777605E+06 -0.6024748E+05
  0.1380952E+01  0.1210417E+06  0.4861840E+05  0.2519279E-02  0.1968384E-02 -0.1781937E+06 -0.6898827E+05
  0.1411905E+01  0.1211700E+06  0.5549338E+05 -0.1729158E-02 -0.1434326E-02 -0.1781473E+06 -0.7849275E+05
  0.1442857E+01  0.1210280E+06  0.6294207E+05 -0.2115080E-04 -0.1571655E-02 -0.1775152E+06 -0.8866783E+05
  0.1473810E+01  0.1203338E+06  0.7082575E+05 -0.2609031E-02 -0.2487183E-02 -0.1760127E+06 -0.9931341E+05
  0.1504762E+01  0.1192305E+06  0.7917144E+05  0.2636487E-03 -0.3524780E-02 -0.1741066E+06 -0.1105715E+06
  0.1535714E+01  0.1176052E+06  0.8778909E+05 -0.1132699E-02 -0.2334595E-02 -0.1714013E+06 -0.1220595E+06
  0.1566667E+01  0.1154386E+06  0.9655379E+05  0.2006368E-02  0.4119873E-03 -0.1678694E+06 -0.1335809E+06
  0.1597619E+01  0.1128548E+06  0.1054464E+06  0.3820382E-03  0.1708984E-02 -0.1638885E+06 -0.1452136E+06
  0.1628572E+01  0.1097822E+06  0.1142499E+06  0.1255504E-02  0.2593994E-02 -0.1593355E+06 -0.1566489E+06
  0.1659524E+01  0.1061387E+06  0.1226781E+06 -0.1838936E-04 -0.2685547E-02 -0.1540036E+06 -0.1674308E+06
  0.1690476E+01  0.1020028E+06  0.1305797E+06 -0.5776848E-03 -0.2929688E-02 -0.1479263E+06 -0.1772497E+06
  0.1721429E+01  0.9760545E+05  0.1380398E+06  0.5052495E-03  0.2838135E-02 -0.1415832E+06 -0.1863632E+06
  0.1752381E+01  0.9301110E+05  0.1449628E+06 -0.9491133E-03 -0.1403809E-02 -0.1351089E+06 -0.1947121E+06
  0.1783333E+01  0.8813998E+05  0.1509673E+06  0.1471689E-02  0.2136230E-03 -0.1281809E+06 -0.2015447E+06
  0.1814286E+01  0.8321395E+05  0.1561946E+06 -0.1429761E-03  0.3143311E-02 -0.1212554E+06 -0.2072365E+06
  0.1845238E+01  0.7831857E+05  0.1606994E+06 -0.8269280E-05  0.1708984E-02 -0.1145186E+06 -0.2119758E+06
  0.1876190E+01  0.7348149E+05  0.1643664E+06 -0.1659103E-02 -0.2746582E-03 -0.1079929E+06 -0.2156171E+06
  0.1907143E+01  0.6866690E+05  0.1670016E+06  0.3200346E-04  0.1831055E-02 -0.1015379E+06 -0.2177987E+06
  0.1938095E+01  0.6400224E+05  0.1687538E+06 -0.4802582E-03 -0.1525879E-02 -0.9529418E+05 -0.2186563E+06
  0.1969048E+01  0.5954864E+05  0.1697366E+06  0.1123652E-03  0.1098633E-02 -0.8939430E+05 -0.2184350E+06
  0.2000000E+01  0.5535607E+05  0.1701524E+06  0.1117706E-02  0.1708984E-02 -0.8396537E+05 -0.2175742E+06
Zone t="Motion of body    1 in DoF   2",I=    64,F=POINT
  0.5000000E-01  0.1945496E-02  0.1430511E-05  0.3684629E+05  0.5322039E+02 -0.3051758E-02 -0.1180172E-04
  0.8095238E-01 -0.3816941E-02 -0.5006790E-05  0.3665664E+05  0.8819754E+02  0.6314446E-02  0.2145767E-04
  0.1119048E+00  0.1329463E-02 -0.1907349E-04  0.3648920E+05  0.1261983E+03 -0.1090841E-02 -0.1311302E-04
  0.1428571E+00 -0.5580902E-02 -0.1430511E-04  0.3642784E+05  0.1686775E+03  0.4699707E-02 -0.3337860E-04
  0.1738095E+00 -0.1646068E-02 -0.4863739E-04  0.3642393E+05  0.2173201E+03  0.9656932E-02  0.5197525E-04
  0.2047619E+00 -0.5961573E-03  0.2622604E-04  0.3637682E+05  0.2744412E+03 -0.4992818E-02  0.7629395E-04
  0.2357143E+00  0.1488888E-02  0.6008148E-04  0.3644618E+05  0.3430842E+03  0.6473425E-04 -0.1516342E-03
  0.2666667E+00  0.4577636E-03  0.4768372E-04  0.3647065E+05  0.4257827E+03  0.5722046E-04  0.6389618E-04
  0.2976190E+00 -0.2230225E-02  0.2670288E-04  0.3656530E+05  0.5285175E+03  0.7741699E-02 -0.1840591E-03
  0.3285715E+00 -0.1811152E-02 -0.1144409E-03  0.3661486E+05  0.6541420E+03 -0.1021675E-02  0.1220703E-03
  0.3595238E+00 -0.1273250E-02 -0.1106262E-03  0.3672945E+05  0.8096083E+03 -0.3989516E-02  0.1926422E-03
  0.3904762E+00  0.2891726E-02 -0.3261566E-03  0.3673734E+05  0.9999078E+03 -0.4923750E-02  0.4596710E-03
  0.4214286E+00  0.1031908E-02 -0.1907349E-05  0.3684588E+05  0.1222616E+04  0.7241459E-04  0.8010864E-04
  0.4523810E+00 -0.5396793E-03 -0.3051758E-03  0.3673749E+05  0.1490161E+04  0.3845215E-02  0.4997253E-03
  0.4833333E+00  0.1641635E-02 -0.1068115E-03  0.3670698E+05  0.1777246E+04 -0.3977808E-02 -0.3280640E-03
  0.5142857E+00  0.2165901E-02 -0.1907349E-03  0.3654689E+05  0.2099549E+04  0.7773506E-02  0.5607605E-03
  0.5452381E+00 -0.6436677E-03 -0.1373291E-03  0.3634342E+05  0.2437907E+04 -0.2014960E-02  0.2899170E-03
  0.5761905E+00 -0.2462844E-02  0.3814697E-03  0.3621451E+05  0.2783399E+04  0.5984975E-02  0.1068115E-03
  0.6071429E+00  0.7288315E-03 -0.2136230E-03  0.3585122E+05  0.3149438E+04  0.2010570E-02 -0.7629395E-05
  0.6380953E+00 -0.3826084E-03  0.6790161E-03  0.3558137E+05  0.3506616E+04  0.1099999E-02  0.1419067E-02
  0.6690477E+00  0.7070086E-03 -0.0000000E+00  0.3533958E+05  0.3865005E+04 -0.1824538E-03  0.4501343E-03
  0.7000000E+00 -0.1918248E-02  0.1144409E-03  0.3491392E+05  0.4230480E+04  0.5318778E-02 -0.1144409E-02
  0.7309524E+00  0.2546776E-02  0.1068115E-02  0.3456081E+05  0.4583339E+04 -0.1152312E-01  0.1205444E-02
  0.7619048E+00 -0.3504753E-02  0.6103516E-04  0.3430080E+05  0.4924749E+04  0.5046844E-02  0.1342773E-02
  0.7928572E+00  0.1000757E-02  0.9155273E-04  0.3383868E+05  0.5260110E+04  0.1539625E-02 -0.5187988E-03
  0.8238096E+00 -0.2148578E-02  0.1678467E-02  0.3340894E+05  0.5580408E+04 -0.4074890E-02 -0.2593994E-02
  0.8547620E+00  0.1071090E-03  0.9155273E-04  0.3305202E+05  0.5881810E+04 -0.1428121E-03 -0.1449585E-02
  0.8857143E+00 -0.3428305E-02  0.4577637E-04  0.3274105E+05  0.6157202E+04  0.3583354E-02  0.8392334E-03
  0.9166667E+00  0.1431552E-02 -0.8392334E-03  0.3226585E+05  0.6416009E+04  0.8655895E-03  0.2899170E-02
  0.9476191E+00 -0.2012780E-02  0.1419067E-02  0.3183207E+05  0.6647666E+04 -0.1481406E-02 -0.2059937E-02
  0.9785714E+00  0.1216248E-02 -0.1373291E-03  0.3146181E+05  0.6853161E+04 -0.3742301E-03  0.4882812E-03
  0.1009524E+01  0.3022968E-03  0.7019043E-03  0.3116567E+05  0.7024762E+04 -0.4413533E-02  0.1800537E-02
  0.1040476E+01  0.9385726E-03  0.2990723E-02  0.3076540E+05  0.7166700E+04 -0.3402326E-02 -0.3204346E-03
  0.1071429E+01 -0.4272461E-03  0.1007080E-02  0.3035413E+05  0.7283515E+04  0.2506511E-02 -0.5432129E-02
  0.1102381E+01  0.8581833E-03  0.7019043E-03  0.2998308E+05  0.7365703E+04  0.2380766E-02 -0.5889893E-02
  0.1133333E+01  0.6327910E-03  0.3204346E-02  0.2968592E+05  0.7423132E+04 -0.1723346E-02 -0.4730225E-03
  0.1164286E+01 -0.5045697E-03 -0.1098633E-02  0.2945853E+05  0.7445169E+04 -0.4351095E-02 -0.1266479E-02
  0.1195238E+01  0.3638401E-03 -0.2380371E-02  0.2915784E+05  0.7428649E+04  0.2604329E-02  0.1922607E-02
  0.1226190E+01 -0.9021944E-03 -0.1617432E-02  0.2882192E+05  0.7387568E+04  0.3484337E-03 -0.2929688E-02
  0.1257143E+01 -0.7950176E-03  0.1220703E-03  0.2853392E+05  0.7318514E+04 -0.1844926E-02  0.2822876E-02
  0.1288095E+01  0.6337615E-03  0.1403809E-02  0.2830137E+05  0.7226346E+04 -0.3601187E-02 -0.2853394E-02
  0.1319048E+01  0.3643931E-03  0.3692627E-02  0.2813765E+05  0.7123291E+04  0.5552656E-03 -0.1000977E-01
  0.1350000E+01  0.3786440E-03  0.9155273E-04  0.2803562E+05  0.6995489E+04 -0.1085069E-02 -0.5050659E-02
  0.1380952E+01  0.7762251E-03 -0.1098633E-02  0.2783673E+05  0.6817856E+04 -0.2651872E-02  0.2456665E-02
  0.1411905E+01  0.2296538E-03  0.3509521E-02  0.2762247E+05  0.6623311E+04  0.1902074E-02 -0.4501343E-02
  0.1442857E+01  0.1500385E-02  0.4882812E-03  0.2745840E+05  0.6416017E+04 -0.8460319E-03  0.2929688E-02
  0.1473810E+01 -0.1436520E-03  0.8544922E-03  0.2732845E+05  0.6194145E+04  0.9939165E-03 -0.2105713E-02
  0.1504762E+01 -0.5729289E-03  0.4577637E-03  0.2726265E+05  0.5994296E+04 -0.7706654E-03  0.1571655E-02
  0.1535714E+01  0.1861750E-02  0.2105713E-02  0.2724363E+05  0.5793551E+04 -0.1589753E-02  0.1037598E-02
  0.1566667E+01  0.4017607E-03  0.8850098E-03  0.2727504E+05  0.5595469E+04 -0.1870013E-02  0.3204346E-03
  0.1597619E+01 -0.2344760E-02 -0.2563477E-02  0.2716842E+05  0.5294573E+04  0.3858586E-02  0.5996704E-02
  0.1628572E+01  0.1030637E-03 -0.3417969E-02  0.2708744E+05  0.5007681E+04 -0.1311720E-02 -0.1129150E-02
  0.1659524E+01  0.3356058E-03  0.2136230E-02  0.2704471E+05  0.4732805E+04  0.1066583E-02  0.1220703E-02
  0.1690476E+01 -0.3971583E-03  0.6408691E-03  0.2702356E+05  0.4454107E+04 -0.6137901E-03 -0.1525879E-03
  0.1721429E+01  0.1152324E-02 -0.1739502E-02  0.2703710E+05  0.4219298E+04 -0.2198279E-02 -0.7629395E-04
  0.1752381E+01  0.7270731E-03  0.1739502E-02  0.2708368E+05  0.4018243E+04  0.3134686E-03 -0.2166748E-02
  0.1783333E+01 -0.4363729E-03  0.2777100E-02  0.2715914E+05  0.3836707E+04  0.2772251E-02 -0.6072998E-02
  0.1814286E+01 -0.4709800E-03 -0.4089355E-02  0.2725110E+05  0.3667420E+04 -0.1379299E-02  0.1419067E-02
  0.1845238E+01  0.1579432E-02  0.4394531E-02  0.2724369E+05  0.3337478E+04 -0.1951550E-02 -0.5332947E-02
  0.1876190E+01  0.3659786E-03 -0.1007080E-02  0.2725626E+05  0.3052226E+04 -0.3903772E-03  0.5050659E-02
  0.1907143E+01 -0.1088117E-02  0.1434326E-02  0.2729453E+05  0.2805314E+04  0.2176235E-02  0.3395081E-02
  0.1938095E+01  0.5747352E-03 -0.1892090E-02  0.2734342E+05  0.2562153E+04 -0.3779081E-03 -0.1045227E-02
  0.1969048E+01 -0.7749325E-05  0.2441406E-02  0.2739997E+05  0.2350815E+04 -0.1983827E-02 -0.2822876E-02
  0.2000000E+01 -0.2746582E-03 -0.1495361E-02  0.2747025E+05  0.2202058E+04  0.6103516E-04  0.1274109E-02
Zone t="Motion of body    1 in DoF   3",I=    64,F=POINT
  0.5000000E-01 -0.1304799E+06 -0.6234563E-02  0.1104355E-01  0.3458849E-04  0.2407859E+06  0.9489527E-02
  0.8095238E-01 -0.1314982E+06 -0.2731152E-01  0.7851825E-02  0.4701257E-04  0.2425817E+06  0.4203277E-01
  0.1119048E+00 -0.1323014E+06 -0.7716825E-01 -0.6408691E-02 -0.2811209E-04  0.2435835E+06  0.1187112E+00
  0.1428571E+00 -0.1326851E+06 -0.1740049E+00 -0.1535416E-02  0.2695952E-04  0.2440420E+06  0.2673193E+00
  0.1738095E+00 -0.1327273E+06 -0.3466494E+00 -0.3127529E-02 -0.7147028E-04  0.2441336E+06  0.5323322E+00
  0.2047619E+00 -0.1329966E+06 -0.6403166E+00  0.5253636E-02  0.1922315E-03  0.2444514E+06  0.9832107E+00
  0.2357143E+00 -0.1332166E+06 -0.1129128E+01  0.3430915E-02 -0.1247553E-04  0.2447064E+06  0.1732564E+01
  0.2666667E+00 -0.1334857E+06 -0.1928784E+01 -0.7824898E-02 -0.1676483E-03  0.2450822E+06  0.2957232E+01
  0.2976190E+00 -0.1337824E+06 -0.3239625E+01 -0.2082825E-02 -0.2791174E-04  0.2455243E+06  0.4966393E+01
  0.3285715E+00 -0.1340611E+06 -0.5370361E+01  0.8765510E-03 -0.3643334E-04  0.2458740E+06  0.8225841E+01
  0.3595238E+00 -0.1344512E+06 -0.8843733E+01  0.1087568E-02  0.2208687E-03  0.2463200E+06  0.1352822E+02
  0.3904762E+00 -0.1348046E+06 -0.1444094E+02 -0.9671652E-03  0.1954883E-03  0.2468143E+06  0.2207829E+02
  0.4214286E+00 -0.1352825E+06 -0.2330847E+02 -0.1058158E-01 -0.8213967E-03  0.2475249E+06  0.3559720E+02
  0.4523810E+00 -0.1359408E+06 -0.3731161E+02 -0.4713761E-02 -0.3623515E-03  0.2483008E+06  0.5691071E+02
  0.4833333E+00 -0.1364370E+06 -0.5821127E+02  0.4143551E-02 -0.7404089E-03  0.2490867E+06  0.8869697E+02
  0.5142857E+00 -0.1372168E+06 -0.8944044E+02  0.9716882E-03  0.2302825E-03  0.2501275E+06  0.1361474E+03
  0.5452381E+00 -0.1378545E+06 -0.1341286E+03 -0.1562993E-01 -0.1453042E-02  0.2509853E+06  0.2039112E+03
  0.5761905E+00 -0.1385331E+06 -0.1965510E+03  0.4018673E-02  0.7959008E-03  0.2518507E+06  0.2982631E+03
  0.6071429E+00 -0.1396002E+06 -0.2830477E+03  0.1382267E-03  0.6300211E-03  0.2532881E+06  0.4289987E+03
  0.6380953E+00 -0.1404632E+06 -0.3982753E+03 -0.4782605E-03 -0.2657175E-03  0.2546248E+06  0.6029520E+03
  0.6690477E+00 -0.1413547E+06 -0.5512469E+03  0.1595331E-01  0.3165722E-02  0.2557889E+06  0.8331212E+03
  0.7000000E+00 -0.1426253E+06 -0.7527249E+03 -0.7237025E-02 -0.7927418E-03  0.2574533E+06  0.1135620E+04
  0.7309524E+00 -0.1437047E+06 -0.1011500E+04  0.5218803E-03  0.1074314E-02  0.2589212E+06  0.1523100E+04
  0.7619048E+00 -0.1448711E+06 -0.1342238E+04 -0.1167583E-01 -0.4522324E-02  0.2605284E+06  0.2017099E+04
  0.7928572E+00 -0.1464297E+06 -0.1761954E+04 -0.5533029E-02  0.6551743E-03  0.2626467E+06  0.2643365E+04
  0.8238096E+00 -0.1477864E+06 -0.2285434E+04  0.1361384E-02 -0.1678467E-02  0.2644934E+06  0.3422721E+04
  0.8547620E+00 -0.1493970E+06 -0.2936414E+04  0.7194157E-02  0.1075745E-02  0.2668682E+06  0.4389606E+04
  0.8857143E+00 -0.1508500E+06 -0.3738260E+04 -0.1653856E-02 -0.3252029E-03  0.2686387E+06  0.5571890E+04
  0.9166667E+00 -0.1528055E+06 -0.4722696E+04 -0.6541859E-02 -0.4833221E-02  0.2712262E+06  0.7022927E+04
  0.9476191E+00 -0.1545344E+06 -0.5911041E+04 -0.6601918E-03  0.1871109E-02  0.2734988E+06  0.8768847E+04
  0.9785714E+00 -0.1564315E+06 -0.7343382E+04  0.1010421E-01  0.6370544E-02  0.2761658E+06  0.1086880E+05
  0.1009524E+01 -0.1582972E+06 -0.9054696E+04 -0.4035662E-02 -0.5607605E-03  0.2786900E+06  0.1336833E+05
  0.1040476E+01 -0.1603839E+06 -0.1109475E+05  0.7977867E-02  0.4959106E-03  0.2813930E+06  0.1633784E+05
  0.1071429E+01 -0.1625839E+06 -0.1350534E+05 -0.4158529E-02 -0.4661560E-02  0.2843436E+06  0.1983723E+05
  0.1102381E+01 -0.1645169E+06 -0.1632820E+05  0.1923991E-02  0.7438660E-03  0.2866824E+06  0.2390261E+05
  0.1133333E+01 -0.1666766E+06 -0.1963285E+05 -0.1507927E-02 -0.5500793E-02  0.2896035E+06  0.2865678E+05
  0.1164286E+01 -0.1686088E+06 -0.2345235E+05 -0.3145370E-02  0.1602173E-02  0.2919838E+06  0.3411570E+05
  0.1195238E+01 -0.1705900E+06 -0.2786123E+05  0.4212885E-03  0.1922607E-02  0.2943509E+06  0.4039066E+05
  0.1226190E+01 -0.1726375E+06 -0.3291419E+05 -0.2040826E-02 -0.1029968E-02  0.2969017E+06  0.4756873E+05
  0.1257143E+01 -0.1740029E+06 -0.3853969E+05  0.4879344E-02  0.6118774E-02  0.2984815E+06  0.5552864E+05
  0.1288095E+01 -0.1756231E+06 -0.4502426E+05  0.3672263E-03  0.5111694E-02  0.3003322E+06  0.6463759E+05
  0.1319048E+01 -0.1768746E+06 -0.5220213E+05  0.4627214E-02  0.4852295E-02  0.3018769E+06  0.7470769E+05
  0.1350000E+01 -0.1774831E+06 -0.6009480E+05  0.3729926E-02  0.5615234E-02  0.3021261E+06  0.8564619E+05
  0.1380952E+01 -0.1779349E+06 -0.6883683E+05 -0.1166824E-01 -0.4974365E-02  0.3020751E+06  0.9767543E+05
  0.1411905E+01 -0.1778227E+06 -0.7824888E+05  0.6451920E-02  0.8041382E-02  0.3015339E+06  0.1106762E+06
  0.1442857E+01 -0.1771895E+06 -0.8838016E+05  0.5023314E-02 -0.1159668E-02  0.3000674E+06  0.1245006E+06
  0.1473810E+01 -0.1756963E+06 -0.9900716E+05  0.1749707E-02  0.6469727E-02  0.2973080E+06  0.1388253E+06
  0.1504762E+01 -0.1737827E+06 -0.1101987E+06 -0.2311996E-02 -0.1525879E-03  0.2942748E+06  0.1539051E+06
  0.1535714E+01 -0.1710732E+06 -0.1216363E+06  0.2563476E-02  0.1104736E-01  0.2900172E+06  0.1691225E+06
  0.1566667E+01 -0.1675295E+06 -0.1331301E+06 -0.3701068E-03 -0.4180908E-02  0.2844554E+06  0.1841838E+06
  0.1597619E+01 -0.1635430E+06 -0.1446900E+06 -0.2435494E-02 -0.3784180E-02  0.2783666E+06  0.1992468E+06
  0.1628572E+01 -0.1590052E+06 -0.1560259E+06  0.1574064E-02  0.5218506E-02  0.2716927E+06  0.2139164E+06
  0.1659524E+01 -0.1536870E+06 -0.1667090E+06 -0.2077997E-02 -0.6469727E-02  0.2639712E+06  0.2275155E+06
  0.1690476E+01 -0.1476303E+06 -0.1764962E+06  0.1004179E-02  0.1525879E-02  0.2551736E+06  0.2395591E+06
  0.1721429E+01 -0.1413312E+06 -0.1855945E+06  0.2685800E-02 -0.2502441E-02  0.2462545E+06  0.2505515E+06
  0.1752381E+01 -0.1348958E+06 -0.1938886E+06  0.7175492E-03  0.2563477E-02  0.2374054E+06  0.2604412E+06
  0.1783333E+01 -0.1279793E+06 -0.2007154E+06  0.7914606E-04 -0.2471924E-02  0.2277030E+06  0.2679635E+06
  0.1814286E+01 -0.1210542E+06 -0.2063987E+06 -0.5252268E-02 -0.5889893E-02  0.2180798E+06  0.2738372E+06
  0.1845238E+01 -0.1143458E+06 -0.2110896E+06  0.3836946E-02 -0.1129150E-02  0.2088617E+06  0.2783975E+06
  0.1876190E+01 -0.1078709E+06 -0.2146684E+06 -0.8824150E-03  0.4272461E-03  0.2001810E+06  0.2815516E+06
  0.1907143E+01 -0.1014568E+06 -0.2167909E+06 -0.1960212E-02 -0.2319336E-02  0.1916623E+06  0.2826968E+06
  0.1938095E+01 -0.9523552E+05 -0.2176206E+06 -0.1023501E-03 -0.4730225E-02  0.1833795E+06  0.2819042E+06
  0.1969048E+01 -0.8936203E+05 -0.2174215E+06  0.1394878E-02 -0.1312256E-02  0.1756871E+06  0.2797053E+06
  0.2000000E+01 -0.8397562E+05 -0.2165779E+06 -0.1480103E-02 -0.6103516E-04  0.1689091E+06  0.2768993E+06
