VARIABLES="w (rad/s)"
"abs(F   1   1)" "angle(F   1   1)"
"abs(F   1   2)" "angle(F   1   2)"
"abs(F   1   3)" "angle(F   1   3)"
Zone t="Diffraction force - beta =   0.000 deg",I=    64,F=POINT
  0.5000000E-01  0.9403292E+03 -0.1570794E+01  0.5911649E+03 -0.3094670E+01  0.3187600E+02 -0.1570717E+01
  0.8095238E-01  0.1532118E+04 -0.1570791E+01  0.1529965E+04 -0.3092951E+01  0.4593388E+02 -0.1570553E+01
  0.1119048E+00  0.2148966E+04 -0.1570785E+01  0.2903659E+04 -0.3090899E+01  0.4467411E+02 -0.1570101E+01
  0.1428571E+00  0.2770179E+04 -0.1570776E+01  0.4714265E+04 -0.3088350E+01  0.4778049E+02 -0.1569305E+01
  0.1738095E+00  0.3448332E+04 -0.1570763E+01  0.6969188E+04 -0.3085155E+01  0.2033052E+02 -0.1563713E+01
  0.2047619E+00  0.4136435E+04 -0.1570743E+01  0.9668231E+04 -0.3081106E+01  0.2026607E+01 -0.1437526E+01
  0.2357143E+00  0.4888810E+04 -0.1570716E+01  0.1282643E+05 -0.3076029E+01  0.5940835E+02  0.1562671E+01
  0.2666667E+00  0.5720811E+04 -0.1570675E+01  0.1645074E+05 -0.3069872E+01  0.1288050E+03  0.1564258E+01
  0.2976190E+00  0.6570964E+04 -0.1570614E+01  0.2054705E+05 -0.3062134E+01  0.2060977E+03  0.1563762E+01
  0.3285715E+00  0.7544301E+04 -0.1570524E+01  0.2511469E+05 -0.3052867E+01  0.3675277E+03  0.1564088E+01
  0.3595238E+00  0.8659213E+04 -0.1570390E+01  0.3015684E+05 -0.3041668E+01  0.5415928E+03  0.1563075E+01
  0.3904762E+00  0.9836838E+04 -0.1570188E+01  0.3566340E+05 -0.3028392E+01  0.7407192E+03  0.1561253E+01
  0.4214286E+00  0.1111837E+05 -0.1569891E+01  0.4156122E+05 -0.3013620E+01  0.1022811E+04  0.1559257E+01
  0.4523810E+00  0.1267334E+05 -0.1569464E+01  0.4782839E+05 -0.2996419E+01  0.1425161E+04  0.1557076E+01
  0.4833333E+00  0.1431440E+05 -0.1568867E+01  0.5443747E+05 -0.2979314E+01  0.1848528E+04  0.1553684E+01
  0.5142857E+00  0.1605168E+05 -0.1568033E+01  0.6125012E+05 -0.2960587E+01  0.2314723E+04  0.1549045E+01
  0.5452381E+00  0.1791901E+05 -0.1566919E+01  0.6830091E+05 -0.2942069E+01  0.2994971E+04  0.1544763E+01
  0.5761905E+00  0.2006560E+05 -0.1565499E+01  0.7555468E+05 -0.2924124E+01  0.3848393E+04  0.1540276E+01
  0.6071429E+00  0.2234261E+05 -0.1563671E+01  0.8286153E+05 -0.2905454E+01  0.4688333E+04  0.1533792E+01
  0.6380953E+00  0.2459318E+05 -0.1561357E+01  0.9037831E+05 -0.2888411E+01  0.5675785E+04  0.1526791E+01
  0.6690477E+00  0.2690235E+05 -0.1558470E+01  0.9794577E+05 -0.2871580E+01  0.6826329E+04  0.1519211E+01
  0.7000000E+00  0.2954002E+05 -0.1555018E+01  0.1054415E+06 -0.2854350E+01  0.8274604E+04  0.1511972E+01
  0.7309524E+00  0.3231702E+05 -0.1550889E+01  0.1130548E+06 -0.2838371E+01  0.9873751E+04  0.1503980E+01
  0.7619048E+00  0.3512796E+05 -0.1545924E+01  0.1206926E+06 -0.2823073E+01  0.1161856E+05  0.1495075E+01
  0.7928572E+00  0.3798359E+05 -0.1540030E+01  0.1281063E+06 -0.2807527E+01  0.1334664E+05  0.1484080E+01
  0.8238096E+00  0.4084262E+05 -0.1533086E+01  0.1354686E+06 -0.2792592E+01  0.1548929E+05  0.1474096E+01
  0.8547620E+00  0.4373958E+05 -0.1525030E+01  0.1427603E+06 -0.2778466E+01  0.1790944E+05  0.1464077E+01
  0.8857143E+00  0.4696371E+05 -0.1516077E+01  0.1498707E+06 -0.2764776E+01  0.2083115E+05  0.1455421E+01
  0.9166667E+00  0.5031989E+05 -0.1505979E+01  0.1567360E+06 -0.2751384E+01  0.2368718E+05  0.1444869E+01
  0.9476191E+00  0.5364090E+05 -0.1494506E+01  0.1633992E+06 -0.2738563E+01  0.2698583E+05  0.1435470E+01
  0.9785714E+00  0.5678967E+05 -0.1481440E+01  0.1698453E+06 -0.2726526E+01  0.3052578E+05  0.1426093E+01
  0.1009524E+01  0.5982349E+05 -0.1466771E+01  0.1760695E+06 -0.2715311E+01  0.3456699E+05  0.1418090E+01
  0.1040476E+01  0.6278330E+05 -0.1450601E+01  0.1818565E+06 -0.2703902E+01  0.3866499E+05  0.1409315E+01
  0.1071429E+01  0.6569338E+05 -0.1433047E+01  0.1873366E+06 -0.2693019E+01  0.4327906E+05  0.1402204E+01
  0.1102381E+01  0.6857391E+05 -0.1414467E+01  0.1925454E+06 -0.2682877E+01  0.4857211E+05  0.1397295E+01
  0.1133333E+01  0.7132086E+05 -0.1394545E+01  0.1974325E+06 -0.2673494E+01  0.5433967E+05  0.1394419E+01
  0.1164286E+01  0.7379141E+05 -0.1373064E+01  0.2019896E+06 -0.2664946E+01  0.6063718E+05  0.1393475E+01
  0.1195238E+01  0.7595337E+05 -0.1350322E+01  0.2060568E+06 -0.2656226E+01  0.6692331E+05  0.1392368E+01
  0.1226190E+01  0.7772719E+05 -0.1326305E+01  0.2097105E+06 -0.2647933E+01  0.7357921E+05  0.1393011E+01
  0.1257143E+01  0.7906105E+05 -0.1301405E+01  0.2130895E+06 -0.2640117E+01  0.8094313E+05  0.1395935E+01
  0.1288095E+01  0.8010759E+05 -0.1276647E+01  0.2159370E+06 -0.2633325E+01  0.8879838E+05  0.1400652E+01
  0.1319048E+01  0.8054315E+05 -0.1250630E+01  0.2184571E+06 -0.2627061E+01  0.9700532E+05  0.1407586E+01
  0.1350000E+01  0.8039887E+05 -0.1224105E+01  0.2205756E+06 -0.2621566E+01  0.1056524E+06  0.1415990E+01
  0.1380952E+01  0.7968369E+05 -0.1198011E+01  0.2221289E+06 -0.2615638E+01  0.1138887E+06  0.1424018E+01
  0.1411905E+01  0.7831700E+05 -0.1171176E+01  0.2231129E+06 -0.2610161E+01  0.1222817E+06  0.1432676E+01
  0.1442857E+01  0.7650064E+05 -0.1147311E+01  0.2238527E+06 -0.2605287E+01  0.1313465E+06  0.1443804E+01
  0.1473810E+01  0.7390569E+05 -0.1123834E+01  0.2241869E+06 -0.2600992E+01  0.1403240E+06  0.1455964E+01
  0.1504762E+01  0.7062202E+05 -0.1101703E+01  0.2240944E+06 -0.2597576E+01  0.1493670E+06  0.1468665E+01
  0.1535714E+01  0.6668174E+05 -0.1081722E+01  0.2235890E+06 -0.2594881E+01  0.1584495E+06  0.1481613E+01
  0.1566667E+01  0.6216124E+05 -0.1066129E+01  0.2226469E+06 -0.2592504E+01  0.1673761E+06  0.1494254E+01
  0.1597619E+01  0.5702138E+05 -0.1055915E+01  0.2211780E+06 -0.2589729E+01  0.1753580E+06  0.1506245E+01
  0.1628572E+01  0.5132103E+05 -0.1052617E+01  0.2193023E+06 -0.2587528E+01  0.1829592E+06  0.1517761E+01
  0.1659524E+01  0.4520543E+05 -0.1059841E+01  0.2170801E+06 -0.2586013E+01  0.1906744E+06  0.1529738E+01
  0.1690476E+01  0.3858905E+05 -0.1082659E+01  0.2144868E+06 -0.2585127E+01  0.1979043E+06  0.1540757E+01
  0.1721429E+01  0.3162480E+05 -0.1131565E+01  0.2115223E+06 -0.2584732E+01  0.2046577E+06  0.1551486E+01
  0.1752381E+01  0.2454028E+05 -0.1230352E+01  0.2081864E+06 -0.2585162E+01  0.2109649E+06  0.1561277E+01
  0.1783333E+01  0.1785396E+05 -0.1437966E+01  0.2045353E+06 -0.2586408E+01  0.2169650E+06  0.1569925E+01
  0.1814286E+01  0.1306320E+05 -0.1888275E+01  0.2005102E+06 -0.2587534E+01  0.2220584E+06  0.1577044E+01
  0.1845238E+01  0.1327272E+05 -0.2564353E+01  0.1960841E+06 -0.2588287E+01  0.2258634E+06  0.1582648E+01
  0.1876190E+01  0.1878074E+05 -0.3022350E+01  0.1913430E+06 -0.2589792E+01  0.2289437E+06  0.1586663E+01
  0.1907143E+01  0.2666723E+05  0.3050319E+01  0.1864106E+06 -0.2592096E+01  0.2319218E+06  0.1589715E+01
  0.1938095E+01  0.3552794E+05  0.2944735E+01  0.1812123E+06 -0.2594776E+01  0.2342201E+06  0.1591467E+01
  0.1969048E+01  0.4486353E+05  0.2888868E+01  0.1757106E+06 -0.2597762E+01  0.2359341E+06  0.1592051E+01
  0.2000000E+01  0.5444239E+05  0.2858929E+01  0.1699971E+06 -0.2601630E+01  0.2371319E+06  0.1590723E+01
