VARIABLES="w (rad/s)"
"abs(F   1   1)" "angle(F   1   1)"
"abs(F   1   2)" "angle(F   1   2)"
"abs(F   1   3)" "angle(F   1   3)"
Zone t="Diffraction force - beta =   0.000 deg",I=    64,F=POINT
  0.5000000E-01  0.9133331E+03 -0.1570795E+01  0.9385857E+02 -0.3111434E+01  0.1792561E+04  0.1570798E+01
  0.8095238E-01  0.1500517E+04 -0.1570793E+01  0.2444979E+03 -0.3110552E+01  0.2944196E+04  0.1570800E+01
  0.1119048E+00  0.2097966E+04 -0.1570789E+01  0.4643421E+03 -0.3109301E+01  0.4111837E+04  0.1570803E+01
  0.1428571E+00  0.2717381E+04 -0.1570783E+01  0.7548013E+03 -0.3107745E+01  0.5325646E+04  0.1570808E+01
  0.1738095E+00  0.3363330E+04 -0.1570775E+01  0.1113586E+04 -0.3105698E+01  0.6584665E+04  0.1570816E+01
  0.2047619E+00  0.4037505E+04 -0.1570763E+01  0.1542399E+04 -0.3103120E+01  0.7910588E+04  0.1570827E+01
  0.2357143E+00  0.4770275E+04 -0.1570746E+01  0.2045059E+04 -0.3099939E+01  0.9327687E+04  0.1570843E+01
  0.2666667E+00  0.5540936E+04 -0.1570721E+01  0.2609754E+04 -0.3095901E+01  0.1083624E+05  0.1570866E+01
  0.2976190E+00  0.6380542E+04 -0.1570683E+01  0.3252724E+04 -0.3090965E+01  0.1248574E+05  0.1570900E+01
  0.3285715E+00  0.7312808E+04 -0.1570627E+01  0.3951530E+04 -0.3084851E+01  0.1428267E+05  0.1570952E+01
  0.3595238E+00  0.8339057E+04 -0.1570544E+01  0.4731163E+04 -0.3077651E+01  0.1627361E+05  0.1571029E+01
  0.3904762E+00  0.9450866E+04 -0.1570419E+01  0.5549603E+04 -0.3068759E+01  0.1844685E+05  0.1571144E+01
  0.4214286E+00  0.1071621E+05 -0.1570237E+01  0.6437470E+04 -0.3059075E+01  0.2088849E+05  0.1571311E+01
  0.4523810E+00  0.1209695E+05 -0.1569970E+01  0.7359351E+04 -0.3047534E+01  0.2354303E+05  0.1571558E+01
  0.4833333E+00  0.1360793E+05 -0.1569601E+01  0.8317701E+04 -0.3035993E+01  0.2646010E+05  0.1571898E+01
  0.5142857E+00  0.1523196E+05 -0.1569087E+01  0.9313585E+04 -0.3023537E+01  0.2961622E+05  0.1572372E+01
  0.5452381E+00  0.1701401E+05 -0.1568405E+01  0.1030576E+05 -0.3010753E+01  0.3302491E+05  0.1573001E+01
  0.5761905E+00  0.1892359E+05 -0.1567522E+01  0.1134490E+05 -0.2998719E+01  0.3666350E+05  0.1573818E+01
  0.6071429E+00  0.2089957E+05 -0.1566378E+01  0.1235324E+05 -0.2985742E+01  0.4043602E+05  0.1574876E+01
  0.6380953E+00  0.2297015E+05 -0.1564952E+01  0.1336981E+05 -0.2973632E+01  0.4441900E+05  0.1576191E+01
  0.6690477E+00  0.2517824E+05 -0.1563193E+01  0.1442336E+05 -0.2962186E+01  0.4863144E+05  0.1577816E+01
  0.7000000E+00  0.2747102E+05 -0.1561034E+01  0.1540549E+05 -0.2949832E+01  0.5290880E+05  0.1579820E+01
  0.7309524E+00  0.2985327E+05 -0.1558433E+01  0.1638233E+05 -0.2938042E+01  0.5737454E+05  0.1582232E+01
  0.7619048E+00  0.3233888E+05 -0.1555327E+01  0.1737429E+05 -0.2926955E+01  0.6203553E+05  0.1585113E+01
  0.7928572E+00  0.3483276E+05 -0.1551624E+01  0.1832360E+05 -0.2915867E+01  0.6671879E+05  0.1588544E+01
  0.8238096E+00  0.3742564E+05 -0.1547287E+01  0.1919892E+05 -0.2904298E+01  0.7161301E+05  0.1592557E+01
  0.8547620E+00  0.4013673E+05 -0.1542276E+01  0.2006152E+05 -0.2893367E+01  0.7655001E+05  0.1597223E+01
  0.8857143E+00  0.4296186E+05 -0.1536517E+01  0.2091948E+05 -0.2883182E+01  0.8170419E+05  0.1602588E+01
  0.9166667E+00  0.4576707E+05 -0.1529882E+01  0.2169980E+05 -0.2872959E+01  0.8675994E+05  0.1608778E+01
  0.9476191E+00  0.4864566E+05 -0.1522345E+01  0.2239290E+05 -0.2862326E+01  0.9200201E+05  0.1615799E+01
  0.9785714E+00  0.5153254E+05 -0.1513810E+01  0.2305030E+05 -0.2852212E+01  0.9720538E+05  0.1623757E+01
  0.1009524E+01  0.5448925E+05 -0.1504270E+01  0.2368552E+05 -0.2842798E+01  0.1025322E+06  0.1632651E+01
  0.1040476E+01  0.5743143E+05 -0.1493638E+01  0.2430097E+05 -0.2834167E+01  0.1078453E+06  0.1642542E+01
  0.1071429E+01  0.6040362E+05 -0.1481977E+01  0.2473206E+05 -0.2824380E+01  0.1129283E+06  0.1653471E+01
  0.1102381E+01  0.6342845E+05 -0.1469192E+01  0.2512649E+05 -0.2815004E+01  0.1181770E+06  0.1665434E+01
  0.1133333E+01  0.6636495E+05 -0.1455137E+01  0.2547836E+05 -0.2806207E+01  0.1231313E+06  0.1678632E+01
  0.1164286E+01  0.6931065E+05 -0.1439888E+01  0.2579815E+05 -0.2798049E+01  0.1280941E+06  0.1692949E+01
  0.1195238E+01  0.7213080E+05 -0.1423285E+01  0.2609783E+05 -0.2790673E+01  0.1328850E+06  0.1708494E+01
  0.1226190E+01  0.7476612E+05 -0.1405298E+01  0.2621192E+05 -0.2782517E+01  0.1371706E+06  0.1725380E+01
  0.1257143E+01  0.7724741E+05 -0.1385945E+01  0.2627108E+05 -0.2774259E+01  0.1413021E+06  0.1743454E+01
  0.1288095E+01  0.7968305E+05 -0.1365521E+01  0.2627736E+05 -0.2766653E+01  0.1452190E+06  0.1762575E+01
  0.1319048E+01  0.8190151E+05 -0.1343933E+01  0.2624643E+05 -0.2759377E+01  0.1486558E+06  0.1782787E+01
  0.1350000E+01  0.8402820E+05 -0.1321670E+01  0.2617712E+05 -0.2752651E+01  0.1517768E+06  0.1803656E+01
  0.1380952E+01  0.8583197E+05 -0.1298095E+01  0.2608867E+05 -0.2746612E+01  0.1543768E+06  0.1825707E+01
  0.1411905E+01  0.8712095E+05 -0.1273005E+01  0.2582011E+05 -0.2740216E+01  0.1560539E+06  0.1849033E+01
  0.1442857E+01  0.8830927E+05 -0.1247257E+01  0.2550233E+05 -0.2733840E+01  0.1574642E+06  0.1873066E+01
  0.1473810E+01  0.8920012E+05 -0.1220668E+01  0.2514016E+05 -0.2727779E+01  0.1583636E+06  0.1897797E+01
  0.1504762E+01  0.8968726E+05 -0.1193353E+01  0.2475123E+05 -0.2722241E+01  0.1584346E+06  0.1923229E+01
  0.1535714E+01  0.8988724E+05 -0.1165911E+01  0.2432895E+05 -0.2717118E+01  0.1579655E+06  0.1948691E+01
  0.1566667E+01  0.8975727E+05 -0.1138331E+01  0.2388223E+05 -0.2712476E+01  0.1569335E+06  0.1974163E+01
  0.1597619E+01  0.8914593E+05 -0.1110076E+01  0.2342745E+05 -0.2708300E+01  0.1551088E+06  0.2000161E+01
  0.1628572E+01  0.8807520E+05 -0.1081571E+01  0.2282849E+05 -0.2704803E+01  0.1523212E+06  0.2026313E+01
  0.1659524E+01  0.8668809E+05 -0.1052965E+01  0.2219947E+05 -0.2701146E+01  0.1491212E+06  0.2052401E+01
  0.1690476E+01  0.8497145E+05 -0.1024533E+01  0.2154500E+05 -0.2697845E+01  0.1454670E+06  0.2078051E+01
  0.1721429E+01  0.8283553E+05 -0.9966568E+00  0.2087936E+05 -0.2695231E+01  0.1409970E+06  0.2103069E+01
  0.1752381E+01  0.8038695E+05 -0.9693733E+00  0.2020892E+05 -0.2693306E+01  0.1360396E+06  0.2127408E+01
  0.1783333E+01  0.7763254E+05 -0.9425519E+00  0.1952505E+05 -0.2691610E+01  0.1306706E+06  0.2150933E+01
  0.1814286E+01  0.7457499E+05 -0.9161484E+00  0.1884196E+05 -0.2690379E+01  0.1249188E+06  0.2173734E+01
  0.1845238E+01  0.7116820E+05 -0.8901737E+00  0.1816599E+05 -0.2689649E+01  0.1186315E+06  0.2195739E+01
  0.1876190E+01  0.6747598E+05 -0.8651953E+00  0.1742181E+05 -0.2691053E+01  0.1117925E+06  0.2216311E+01
  0.1907143E+01  0.6360303E+05 -0.8411337E+00  0.1667225E+05 -0.2692777E+01  0.1047956E+06  0.2235630E+01
  0.1938095E+01  0.5956002E+05 -0.8176049E+00  0.1592237E+05 -0.2694915E+01  0.9772470E+05  0.2253832E+01
  0.1969048E+01  0.5532358E+05 -0.7950214E+00  0.1518581E+05 -0.2697854E+01  0.9038786E+05  0.2270365E+01
  0.2000000E+01  0.5090748E+05 -0.7732385E+00  0.1447252E+05 -0.2701582E+01  0.8282612E+05  0.2285351E+01
