VARIABLES="w (rad/s)"
"abs(F   1   1)" "angle(F   1   1)"
"abs(F   1   2)" "angle(F   1   2)"
"abs(F   1   3)" "angle(F   1   3)"
Zone t="Diffraction force - beta =   0.000 deg",I=    64,F=POINT
  0.5000000E-01  0.2398721E+04 -0.1570793E+01  0.2034258E+06 -0.1391295E-04  0.4325260E+04  0.1570801E+01
  0.8095238E-01  0.3919947E+04 -0.1570792E+01  0.2029001E+06 -0.3739857E-04  0.7069121E+04  0.1570805E+01
  0.1119048E+00  0.5472589E+04 -0.1570795E+01  0.2021282E+06 -0.7417049E-04  0.9864490E+04  0.1570805E+01
  0.1428571E+00  0.7077537E+04 -0.1570796E+01  0.2011092E+06 -0.1270127E-03  0.1275696E+05  0.1570797E+01
  0.1738095E+00  0.8749659E+04 -0.1570788E+01  0.1998463E+06 -0.1999701E-03  0.1576284E+05  0.1570809E+01
  0.2047619E+00  0.1050238E+05 -0.1570782E+01  0.1983388E+06 -0.2991132E-03  0.1892355E+05  0.1570809E+01
  0.2357143E+00  0.1237962E+05 -0.1570778E+01  0.1965840E+06 -0.4331929E-03  0.2228609E+05  0.1570818E+01
  0.2666667E+00  0.1437628E+05 -0.1570767E+01  0.1945959E+06 -0.6125605E-03  0.2587689E+05  0.1570826E+01
  0.2976190E+00  0.1654123E+05 -0.1570752E+01  0.1923607E+06 -0.8557262E-03  0.2977526E+05  0.1570839E+01
  0.3285715E+00  0.1891783E+05 -0.1570731E+01  0.1899042E+06 -0.1180057E-02  0.3402057E+05  0.1570863E+01
  0.3595238E+00  0.2152803E+05 -0.1570698E+01  0.1872058E+06 -0.1614878E-02  0.3869371E+05  0.1570896E+01
  0.3904762E+00  0.2438305E+05 -0.1570650E+01  0.1843132E+06 -0.2191051E-02  0.4381555E+05  0.1570942E+01
  0.4214286E+00  0.2756688E+05 -0.1570579E+01  0.1812019E+06 -0.2928254E-02  0.4949829E+05  0.1571013E+01
  0.4523810E+00  0.3105050E+05 -0.1570474E+01  0.1779154E+06 -0.3884937E-02  0.5570074E+05  0.1571118E+01
  0.4833333E+00  0.3484904E+05 -0.1570329E+01  0.1744579E+06 -0.5025405E-02  0.6247162E+05  0.1571262E+01
  0.5142857E+00  0.3893695E+05 -0.1570128E+01  0.1708367E+06 -0.6421180E-02  0.6977177E+05  0.1571465E+01
  0.5452381E+00  0.4334425E+05 -0.1569857E+01  0.1670996E+06 -0.8046506E-02  0.7758773E+05  0.1571735E+01
  0.5761905E+00  0.4802276E+05 -0.1569505E+01  0.1632022E+06 -0.9898178E-02  0.8586520E+05  0.1572087E+01
  0.6071429E+00  0.5289358E+05 -0.1569050E+01  0.1592305E+06 -0.1204241E-01  0.9447627E+05  0.1572543E+01
  0.6380953E+00  0.5796907E+05 -0.1568480E+01  0.1551494E+06 -0.1440634E-01  0.1034690E+06  0.1573112E+01
  0.6690477E+00  0.6327819E+05 -0.1567771E+01  0.1509379E+06 -0.1705283E-01  0.1128368E+06  0.1573822E+01
  0.7000000E+00  0.6875620E+05 -0.1566896E+01  0.1467132E+06 -0.2001384E-01  0.1223932E+06  0.1574697E+01
  0.7309524E+00  0.7439718E+05 -0.1565835E+01  0.1424139E+06 -0.2325578E-01  0.1322415E+06  0.1575758E+01
  0.7619048E+00  0.8020501E+05 -0.1564559E+01  0.1380265E+06 -0.2681405E-01  0.1423697E+06  0.1577035E+01
  0.7928572E+00  0.8607497E+05 -0.1563038E+01  0.1336175E+06 -0.3069747E-01  0.1525867E+06  0.1578556E+01
  0.8238096E+00  0.9208848E+05 -0.1561243E+01  0.1292269E+06 -0.3493143E-01  0.1630630E+06  0.1580353E+01
  0.8547620E+00  0.9825496E+05 -0.1559147E+01  0.1247978E+06 -0.3950453E-01  0.1736121E+06  0.1582447E+01
  0.8857143E+00  0.1045607E+06 -0.1556714E+01  0.1203290E+06 -0.4444160E-01  0.1843900E+06  0.1584882E+01
  0.9166667E+00  0.1108618E+06 -0.1553909E+01  0.1159020E+06 -0.4971278E-01  0.1950626E+06  0.1587687E+01
  0.9476191E+00  0.1172413E+06 -0.1550699E+01  0.1115360E+06 -0.5537028E-01  0.2058951E+06  0.1590900E+01
  0.9785714E+00  0.1236240E+06 -0.1547052E+01  0.1071829E+06 -0.6140661E-01  0.2166438E+06  0.1594550E+01
  0.1009524E+01  0.1300607E+06 -0.1542942E+01  0.1028351E+06 -0.6785255E-01  0.2274507E+06  0.1598665E+01
  0.1040476E+01  0.1364560E+06 -0.1538348E+01  0.9849625E+05 -0.7472830E-01  0.2381588E+06  0.1603262E+01
  0.1071429E+01  0.1428435E+06 -0.1533278E+01  0.9434319E+05 -0.8186108E-01  0.2485314E+06  0.1608328E+01
  0.1102381E+01  0.1492342E+06 -0.1527672E+01  0.9023123E+05 -0.8945566E-01  0.2589434E+06  0.1613936E+01
  0.1133333E+01  0.1554748E+06 -0.1521517E+01  0.8617021E+05 -0.9747058E-01  0.2689136E+06  0.1620097E+01
  0.1164286E+01  0.1616510E+06 -0.1514798E+01  0.8215594E+05 -0.1059662E+00  0.2787233E+06  0.1626824E+01
  0.1195238E+01  0.1676150E+06 -0.1507504E+01  0.7818170E+05 -0.1150044E+00  0.2881714E+06  0.1634135E+01
  0.1226190E+01  0.1732946E+06 -0.1499659E+01  0.7441875E+05 -0.1240921E+00  0.2969012E+06  0.1641991E+01
  0.1257143E+01  0.1787077E+06 -0.1491264E+01  0.7074759E+05 -0.1337556E+00  0.3052436E+06  0.1650410E+01
  0.1288095E+01  0.1839514E+06 -0.1482384E+01  0.6716223E+05 -0.1437777E+00  0.3131198E+06  0.1659311E+01
  0.1319048E+01  0.1888414E+06 -0.1473091E+01  0.6365747E+05 -0.1543938E+00  0.3202438E+06  0.1668622E+01
  0.1350000E+01  0.1934958E+06 -0.1463520E+01  0.6023611E+05 -0.1655502E+00  0.3267686E+06  0.1678186E+01
  0.1380952E+01  0.1976667E+06 -0.1453576E+01  0.5688436E+05 -0.1774042E+00  0.3324632E+06  0.1688154E+01
  0.1411905E+01  0.2011501E+06 -0.1443372E+01  0.5375531E+05 -0.1887761E+00  0.3369108E+06  0.1698362E+01
  0.1442857E+01  0.2043561E+06 -0.1432974E+01  0.5073633E+05 -0.2006665E+00  0.3407589E+06  0.1708795E+01
  0.1473810E+01  0.2070793E+06 -0.1422497E+01  0.4782214E+05 -0.2129934E+00  0.3437537E+06  0.1719317E+01
  0.1504762E+01  0.2092100E+06 -0.1412138E+01  0.4499844E+05 -0.2258773E+00  0.3455743E+06  0.1729719E+01
  0.1535714E+01  0.2108692E+06 -0.1402083E+01  0.4227486E+05 -0.2392898E+00  0.3465197E+06  0.1739797E+01
  0.1566667E+01  0.2120130E+06 -0.1392418E+01  0.3964596E+05 -0.2533348E+00  0.3465681E+06  0.1749486E+01
  0.1597619E+01  0.2124814E+06 -0.1383169E+01  0.3710180E+05 -0.2683243E+00  0.3454788E+06  0.1758804E+01
  0.1628572E+01  0.2123075E+06 -0.1374585E+01  0.3474417E+05 -0.2816607E+00  0.3431061E+06  0.1767364E+01
  0.1659524E+01  0.2116357E+06 -0.1366625E+01  0.3249858E+05 -0.2955134E+00  0.3400005E+06  0.1775377E+01
  0.1690476E+01  0.2104650E+06 -0.1359489E+01  0.3035487E+05 -0.3096483E+00  0.3361463E+06  0.1782597E+01
  0.1721429E+01  0.2087297E+06 -0.1353554E+01  0.2829871E+05 -0.3241539E+00  0.3312206E+06  0.1788547E+01
  0.1752381E+01  0.2065415E+06 -0.1348758E+01  0.2632669E+05 -0.3391691E+00  0.3255579E+06  0.1793394E+01
  0.1783333E+01  0.2039136E+06 -0.1345131E+01  0.2445241E+05 -0.3546945E+00  0.3192536E+06  0.1797075E+01
  0.1814286E+01  0.2008587E+06 -0.1342759E+01  0.2266297E+05 -0.3709896E+00  0.3123493E+06  0.1799574E+01
  0.1845238E+01  0.1973485E+06 -0.1341871E+01  0.2095415E+05 -0.3882890E+00  0.3047260E+06  0.1800576E+01
  0.1876190E+01  0.1934742E+06 -0.1342655E+01  0.1935427E+05 -0.4027754E+00  0.2964221E+06  0.1799680E+01
  0.1907143E+01  0.1893402E+06 -0.1344951E+01  0.1784530E+05 -0.4173909E+00  0.2878122E+06  0.1797360E+01
  0.1938095E+01  0.1849571E+06 -0.1348723E+01  0.1642214E+05 -0.4321515E+00  0.2789806E+06  0.1793725E+01
  0.1969048E+01  0.1803306E+06 -0.1354273E+01  0.1507082E+05 -0.4473691E+00  0.2697942E+06  0.1788224E+01
  0.2000000E+01  0.1754832E+06 -0.1361665E+01  0.1378520E+05 -0.4636181E+00  0.2603006E+06  0.1780844E+01
