VARIABLES="w (rad/s)"
"abs(F   1   1)" "angle(F   1   1)"
"abs(F   1   2)" "angle(F   1   2)"
"abs(F   1   3)" "angle(F   1   3)"
Zone t="Diffraction force - beta =   0.000 deg",I=    64,F=POINT
  0.5000000E-01  0.2122811E+04 -0.1570794E+01  0.5595227E+02 -0.3114890E+01  0.9617215E+04  0.1570798E+01
  0.8095238E-01  0.3474622E+04 -0.1570791E+01  0.1453060E+03 -0.3114121E+01  0.1569818E+05  0.1570802E+01
  0.1119048E+00  0.4852346E+04 -0.1570785E+01  0.2761345E+03 -0.3113179E+01  0.2188304E+05  0.1570807E+01
  0.1428571E+00  0.6267406E+04 -0.1570777E+01  0.4476793E+03 -0.3111932E+01  0.2821588E+05  0.1570816E+01
  0.1738095E+00  0.7738948E+04 -0.1570765E+01  0.6595155E+03 -0.3110378E+01  0.3478269E+05  0.1570828E+01
  0.2047619E+00  0.9264637E+04 -0.1570748E+01  0.9116581E+03 -0.3108403E+01  0.4158743E+05  0.1570846E+01
  0.2357143E+00  0.1088427E+05 -0.1570723E+01  0.1200859E+04 -0.3105849E+01  0.4876266E+05  0.1570871E+01
  0.2666667E+00  0.1261576E+05 -0.1570687E+01  0.1528475E+04 -0.3102844E+01  0.5638369E+05  0.1570908E+01
  0.2976190E+00  0.1446921E+05 -0.1570634E+01  0.1889635E+04 -0.3098960E+01  0.6450936E+05  0.1570963E+01
  0.3285715E+00  0.1648344E+05 -0.1570556E+01  0.2284812E+04 -0.3094440E+01  0.7327438E+05  0.1571042E+01
  0.3595238E+00  0.1867802E+05 -0.1570440E+01  0.2704801E+04 -0.3088868E+01  0.8279639E+05  0.1571161E+01
  0.3904762E+00  0.2107261E+05 -0.1570269E+01  0.3153173E+04 -0.3082374E+01  0.9310924E+05  0.1571335E+01
  0.4214286E+00  0.2372033E+05 -0.1570022E+01  0.3608980E+04 -0.3075116E+01  0.1043818E+06  0.1571586E+01
  0.4523810E+00  0.2658040E+05 -0.1569665E+01  0.4083492E+04 -0.3066668E+01  0.1165414E+06  0.1571952E+01
  0.4833333E+00  0.2971658E+05 -0.1569178E+01  0.4548692E+04 -0.3058320E+01  0.1297169E+06  0.1572448E+01
  0.5142857E+00  0.3303828E+05 -0.1568511E+01  0.5013176E+04 -0.3049204E+01  0.1435710E+06  0.1573129E+01
  0.5452381E+00  0.3658618E+05 -0.1567637E+01  0.5469787E+04 -0.3040315E+01  0.1581555E+06  0.1574019E+01
  0.5761905E+00  0.4030831E+05 -0.1566523E+01  0.5902259E+04 -0.3031605E+01  0.1733648E+06  0.1575154E+01
  0.6071429E+00  0.4416652E+05 -0.1565107E+01  0.6325781E+04 -0.3022646E+01  0.1890179E+06  0.1576596E+01
  0.6380953E+00  0.4820499E+05 -0.1563379E+01  0.6720616E+04 -0.3014387E+01  0.2049643E+06  0.1578358E+01
  0.6690477E+00  0.5229494E+05 -0.1561270E+01  0.7087680E+04 -0.3006134E+01  0.2210174E+06  0.1580503E+01
  0.7000000E+00  0.5648779E+05 -0.1558726E+01  0.7436959E+04 -0.2997869E+01  0.2372578E+06  0.1583090E+01
  0.7309524E+00  0.6079959E+05 -0.1555722E+01  0.7749941E+04 -0.2989971E+01  0.2535561E+06  0.1586147E+01
  0.7619048E+00  0.6518123E+05 -0.1552193E+01  0.8023901E+04 -0.2982063E+01  0.2699779E+06  0.1589729E+01
  0.7928572E+00  0.6954220E+05 -0.1548077E+01  0.8271915E+04 -0.2974211E+01  0.2859450E+06  0.1593907E+01
  0.8238096E+00  0.7397188E+05 -0.1543335E+01  0.8499503E+04 -0.2966528E+01  0.3017107E+06  0.1598722E+01
  0.8547620E+00  0.7852575E+05 -0.1537938E+01  0.8659558E+04 -0.2958924E+01  0.3174783E+06  0.1604206E+01
  0.8857143E+00  0.8298305E+05 -0.1531790E+01  0.8789231E+04 -0.2951251E+01  0.3327082E+06  0.1610435E+01
  0.9166667E+00  0.8743666E+05 -0.1524864E+01  0.8893976E+04 -0.2943656E+01  0.3475584E+06  0.1617445E+01
  0.9476191E+00  0.9187159E+05 -0.1517118E+01  0.8973589E+04 -0.2935967E+01  0.3618989E+06  0.1625277E+01
  0.9785714E+00  0.9638475E+05 -0.1508556E+01  0.8985392E+04 -0.2928677E+01  0.3758284E+06  0.1633950E+01
  0.1009524E+01  0.1008079E+06 -0.1499084E+01  0.8963322E+04 -0.2921224E+01  0.3891805E+06  0.1643523E+01
  0.1040476E+01  0.1050337E+06 -0.1488654E+01  0.8913701E+04 -0.2913656E+01  0.4011609E+06  0.1654068E+01
  0.1071429E+01  0.1092745E+06 -0.1477272E+01  0.8839928E+04 -0.2905922E+01  0.4129205E+06  0.1665549E+01
  0.1102381E+01  0.1133505E+06 -0.1464883E+01  0.8739377E+04 -0.2898126E+01  0.4234096E+06  0.1678056E+01
  0.1133333E+01  0.1174722E+06 -0.1451544E+01  0.8584545E+04 -0.2891233E+01  0.4334728E+06  0.1691528E+01
  0.1164286E+01  0.1213477E+06 -0.1437080E+01  0.8402182E+04 -0.2884009E+01  0.4426642E+06  0.1706072E+01
  0.1195238E+01  0.1248939E+06 -0.1421547E+01  0.8201367E+04 -0.2876570E+01  0.4499992E+06  0.1721683E+01
  0.1226190E+01  0.1283676E+06 -0.1405022E+01  0.7982854E+04 -0.2868947E+01  0.4567202E+06  0.1738275E+01
  0.1257143E+01  0.1314481E+06 -0.1387468E+01  0.7751289E+04 -0.2860760E+01  0.4615481E+06  0.1755885E+01
  0.1288095E+01  0.1346325E+06 -0.1368969E+01  0.7488684E+04 -0.2854173E+01  0.4658435E+06  0.1774532E+01
  0.1319048E+01  0.1375520E+06 -0.1349476E+01  0.7210919E+04 -0.2847610E+01  0.4690725E+06  0.1794110E+01
  0.1350000E+01  0.1400438E+06 -0.1328839E+01  0.6912139E+04 -0.2841052E+01  0.4707498E+06  0.1814806E+01
  0.1380952E+01  0.1420798E+06 -0.1307217E+01  0.6612017E+04 -0.2834326E+01  0.4702982E+06  0.1836467E+01
  0.1411905E+01  0.1435921E+06 -0.1284235E+01  0.6304412E+04 -0.2827326E+01  0.4689706E+06  0.1859220E+01
  0.1442857E+01  0.1450533E+06 -0.1260674E+01  0.6001269E+04 -0.2820061E+01  0.4663382E+06  0.1882724E+01
  0.1473810E+01  0.1461927E+06 -0.1236268E+01  0.5690019E+04 -0.2813390E+01  0.4623991E+06  0.1907087E+01
  0.1504762E+01  0.1470727E+06 -0.1211164E+01  0.5380728E+04 -0.2807997E+01  0.4574755E+06  0.1932058E+01
  0.1535714E+01  0.1475195E+06 -0.1185344E+01  0.5063028E+04 -0.2802844E+01  0.4513791E+06  0.1957715E+01
  0.1566667E+01  0.1474652E+06 -0.1158995E+01  0.4747549E+04 -0.2797878E+01  0.4434951E+06  0.1983892E+01
  0.1597619E+01  0.1469005E+06 -0.1132178E+01  0.4442456E+04 -0.2792795E+01  0.4338111E+06  0.2010497E+01
  0.1628572E+01  0.1460807E+06 -0.1104762E+01  0.4144989E+04 -0.2787752E+01  0.4238120E+06  0.2037683E+01
  0.1659524E+01  0.1448642E+06 -0.1077057E+01  0.3865639E+04 -0.2781971E+01  0.4126531E+06  0.2065062E+01
  0.1690476E+01  0.1432113E+06 -0.1049198E+01  0.3589442E+04 -0.2776878E+01  0.4001407E+06  0.2092593E+01
  0.1721429E+01  0.1413199E+06 -0.1021177E+01  0.3326674E+04 -0.2773785E+01  0.3872767E+06  0.2120224E+01
  0.1752381E+01  0.1391963E+06 -0.9931714E+00  0.3081031E+04 -0.2769367E+01  0.3742292E+06  0.2147699E+01
  0.1783333E+01  0.1365580E+06 -0.9650980E+00  0.2825874E+04 -0.2768694E+01  0.3602685E+06  0.2175415E+01
  0.1814286E+01  0.1335229E+06 -0.9375396E+00  0.2590587E+04 -0.2767135E+01  0.3451441E+06  0.2202284E+01
  0.1845238E+01  0.1301483E+06 -0.9102742E+00  0.2370667E+04 -0.2765925E+01  0.3294066E+06  0.2228838E+01
  0.1876190E+01  0.1266178E+06 -0.8829873E+00  0.2162401E+04 -0.2765208E+01  0.3141324E+06  0.2255563E+01
  0.1907143E+01  0.1229112E+06 -0.8560908E+00  0.1973997E+04 -0.2762163E+01  0.2989276E+06  0.2281707E+01
  0.1938095E+01  0.1188351E+06 -0.8300274E+00  0.1798360E+04 -0.2760512E+01  0.2826919E+06  0.2306668E+01
  0.1969048E+01  0.1147379E+06 -0.8045110E+00  0.1634350E+04 -0.2760268E+01  0.2671111E+06  0.2331342E+01
  0.2000000E+01  0.1105909E+06 -0.7797760E+00  0.1490405E+04 -0.2756617E+01  0.2519597E+06  0.2354847E+01
