VARIABLES="w (rad/s)"
"A   1   1" "B   1   1"
"A   1   2" "B   1   2"
"A   1   3" "B   1   3"
Zone t="Motion of body    1 in DoF   1",I=    64,F=POINT
  0.5000000E-01  0.2155497E+05  0.1094183E-02 -0.3128052E-02  0.5466985E-05  0.4199577E+05  0.2980720E-02
  0.8095238E-01  0.2161597E+05  0.4801314E-02 -0.3286810E-02 -0.1179615E-04  0.4193229E+05  0.1306583E-01
  0.1119048E+00  0.2164602E+05  0.1349052E-01  0.1176063E-02 -0.1194574E-04  0.4195766E+05  0.3665177E-01
  0.1428571E+00  0.2166674E+05  0.3033847E-01  0.2803802E-02  0.4802452E-05  0.4201688E+05  0.8251257E-01
  0.1738095E+00  0.2168265E+05  0.6035142E-01 -0.1459514E-02  0.4249217E-05  0.4206079E+05  0.1643169E+00
  0.2047619E+00  0.2170283E+05  0.1112614E+00 -0.2626818E-02  0.7277005E-05  0.4213169E+05  0.3031757E+00
  0.2357143E+00  0.2172507E+05  0.1957432E+00  0.7929946E-03  0.2891687E-04  0.4218629E+05  0.5338035E+00
  0.2666667E+00  0.2175188E+05  0.3336901E+00  0.8440017E-03  0.4951330E-04  0.4228363E+05  0.9110587E+00
  0.2976190E+00  0.2178447E+05  0.5590597E+00  0.1409912E-02 -0.1220079E-04  0.4239253E+05  0.1528145E+01
  0.3285715E+00  0.2182055E+05  0.9240754E+00  0.3668743E-02  0.1024883E-03  0.4249425E+05  0.2529213E+01
  0.3595238E+00  0.2186065E+05  0.1515330E+01 -0.1602173E-02 -0.1696870E-05  0.4262915E+05  0.4153345E+01
  0.3904762E+00  0.2190198E+05  0.2467078E+01  0.7815476E-04 -0.2957880E-04  0.4277543E+05  0.6772958E+01
  0.4214286E+00  0.2195686E+05  0.3961157E+01  0.3186242E-02  0.1147315E-03  0.4293815E+05  0.1089290E+02
  0.4523810E+00  0.2200987E+05  0.6304428E+01  0.4789653E-02  0.2005249E-03  0.4309277E+05  0.1736686E+02
  0.4833333E+00  0.2207006E+05  0.9783977E+01  0.4135658E-02  0.2638698E-03  0.4329399E+05  0.2700766E+02
  0.5142857E+00  0.2213872E+05  0.1493118E+02 -0.5014208E-02 -0.3143102E-03  0.4352257E+05  0.4130107E+02
  0.5452381E+00  0.2221440E+05  0.2224092E+02 -0.1119422E-03 -0.2647638E-03  0.4374418E+05  0.6164908E+02
  0.5761905E+00  0.2228902E+05  0.3234349E+02  0.3469167E-02  0.3975630E-04  0.4395757E+05  0.8984882E+02
  0.6071429E+00  0.2237640E+05  0.4615288E+02 -0.5453670E-02 -0.9455085E-03  0.4424350E+05  0.1285109E+03
  0.6380953E+00  0.2246912E+05  0.6437994E+02 -0.3264128E-02 -0.3721714E-03  0.4455102E+05  0.1797149E+03
  0.6690477E+00  0.2257508E+05  0.8824622E+02 -0.3398203E-02 -0.1351833E-03  0.4487866E+05  0.2469681E+03
  0.7000000E+00  0.2268149E+05  0.1190992E+03  0.2332415E-02  0.3298521E-03  0.4519814E+05  0.3341790E+03
  0.7309524E+00  0.2278868E+05  0.1581631E+03  0.4884800E-02  0.7414818E-03  0.4551370E+05  0.4449582E+03
  0.7619048E+00  0.2290608E+05  0.2071681E+03  0.8211135E-03  0.8547306E-03  0.4588041E+05  0.5844291E+03
  0.7928572E+00  0.2303452E+05  0.2679324E+03  0.4657367E-02  0.8976460E-03  0.4630198E+05  0.7580485E+03
  0.8238096E+00  0.2316827E+05  0.3424113E+03 -0.9446337E-03 -0.5955696E-03  0.4673139E+05  0.9716780E+03
  0.8547620E+00  0.2330367E+05  0.4327020E+03  0.1338863E-02  0.2450943E-03  0.4715089E+05  0.1231677E+04
  0.8857143E+00  0.2344256E+05  0.5410443E+03 -0.8958386E-03  0.7972717E-03  0.4757376E+05  0.1544821E+04
  0.9166667E+00  0.2358117E+05  0.6696912E+03  0.3345836E-02  0.2025604E-02  0.4800643E+05  0.1918095E+04
  0.9476191E+00  0.2371875E+05  0.8209452E+03  0.1078850E-02  0.1111031E-02  0.4844760E+05  0.2358713E+04
  0.9785714E+00  0.2385869E+05  0.9971390E+03 -0.1216248E-02 -0.1220703E-02  0.4890798E+05  0.2874169E+04
  0.1009524E+01  0.2399825E+05  0.1200550E+04 -0.5154160E-02 -0.1213074E-02  0.4937290E+05  0.3471957E+04
  0.1040476E+01  0.2413387E+05  0.1433392E+04 -0.5807418E-02 -0.1588821E-02  0.4982704E+05  0.4159633E+04
  0.1071429E+01  0.2426330E+05  0.1697671E+04  0.3104655E-02  0.2149582E-02  0.5025782E+05  0.4944098E+04
  0.1102381E+01  0.2437854E+05  0.1994994E+04 -0.3875666E-03  0.8049011E-03  0.5064581E+05  0.5831039E+04
  0.1133333E+01  0.2447936E+05  0.2326616E+04 -0.4039091E-04  0.6446838E-03  0.5098468E+05  0.6824845E+04
  0.1164286E+01  0.2456745E+05  0.2693125E+04 -0.5635454E-03 -0.6675720E-03  0.5128887E+05  0.7928473E+04
  0.1195238E+01  0.2463788E+05  0.3094740E+04  0.2553263E-04  0.8773804E-04  0.5155028E+05  0.9143932E+04
  0.1226190E+01  0.2468923E+05  0.3531138E+04 -0.2314596E-02 -0.7362366E-03  0.5176484E+05  0.1047198E+05
  0.1257143E+01  0.2471696E+05  0.4005558E+04  0.3301447E-02  0.1380920E-02  0.5190761E+05  0.1192328E+05
  0.1288095E+01  0.2473079E+05  0.4503852E+04 -0.4122411E-02  0.3890991E-03  0.5200895E+05  0.1345678E+05
  0.1319048E+01  0.2471521E+05  0.5036318E+04  0.6778868E-02  0.5287170E-02  0.5203141E+05  0.1510483E+05
  0.1350000E+01  0.2467972E+05  0.5595342E+04 -0.2803096E-02 -0.1022339E-02  0.5199125E+05  0.1684509E+05
  0.1380952E+01  0.2462158E+05  0.6177435E+04  0.4419787E-03 -0.1571655E-02  0.5188272E+05  0.1866830E+05
  0.1411905E+01  0.2444878E+05  0.6752812E+04 -0.1448170E-02 -0.3158569E-02  0.5136176E+05  0.2049321E+05
  0.1442857E+01  0.2434230E+05  0.7370953E+04 -0.2538096E-03 -0.2479553E-02  0.5110066E+05  0.2245465E+05
  0.1473810E+01  0.2420988E+05  0.8000666E+04 -0.2961043E-02 -0.1998901E-02  0.5076027E+05  0.2446613E+05
  0.1504762E+01  0.2405374E+05  0.8637588E+04 -0.2819013E-02 -0.2883911E-02  0.5033918E+05  0.2651356E+05
  0.1535714E+01  0.2387664E+05  0.9276720E+04  0.1927575E-02  0.1602173E-02  0.4984488E+05  0.2858176E+05
  0.1566667E+01  0.2367601E+05  0.9913427E+04  0.4480240E-03  0.5645752E-03  0.4928279E+05  0.3065770E+05
  0.1597619E+01  0.2345736E+05  0.1054390E+05 -0.3247325E-02 -0.2227783E-02  0.4865329E+05  0.3272753E+05
  0.1628572E+01  0.2322156E+05  0.1116346E+05  0.3747773E-04  0.1159668E-02  0.4796672E+05  0.3477770E+05
  0.1659524E+01  0.2297071E+05  0.1176882E+05  0.1655042E-03 -0.1037598E-02  0.4722531E+05  0.3679692E+05
  0.1690476E+01  0.2270553E+05  0.1235695E+05 -0.1137317E-02 -0.6103516E-03  0.4643689E+05  0.3877531E+05
  0.1721429E+01  0.2243189E+05  0.1292432E+05  0.2340103E-02 -0.2441406E-03  0.4560693E+05  0.4069820E+05
  0.1752381E+01  0.2214596E+05  0.1347056E+05  0.1915642E-03 -0.2914429E-02  0.4473920E+05  0.4256552E+05
  0.1783333E+01  0.2185665E+05  0.1399208E+05  0.1694153E-02  0.4348755E-02  0.4384345E+05  0.4436303E+05
  0.1814286E+01  0.2156220E+05  0.1448682E+05 -0.2657673E-02 -0.2502441E-02  0.4292920E+05  0.4608502E+05
  0.1845238E+01  0.2126509E+05  0.1495502E+05 -0.3158865E-02 -0.9155273E-03  0.4199813E+05  0.4772849E+05
  0.1876190E+01  0.2096718E+05  0.1539515E+05  0.1545243E-02 -0.4577637E-03  0.4105639E+05  0.4928677E+05
  0.1907143E+01  0.2066949E+05  0.1580773E+05 -0.3200345E-03  0.4882812E-02  0.4010770E+05  0.5076072E+05
  0.1938095E+01  0.2037264E+05  0.1619213E+05  0.5353698E-03 -0.1403809E-02  0.3915720E+05  0.5214873E+05
  0.1969048E+01  0.2008006E+05  0.1654937E+05  0.1952830E-02  0.1708984E-02  0.3820875E+05  0.5344879E+05
  0.2000000E+01  0.1979121E+05  0.1688038E+05  0.3509521E-03  0.5615234E-02  0.3726420E+05  0.5466393E+05
Zone t="Motion of body    1 in DoF   2",I=    64,F=POINT
  0.5000000E-01  0.9155273E-03  0.4887581E-05  0.6990652E+05  0.1482855E+03  0.7781982E-02  0.2956390E-04
  0.8095238E-01 -0.2379698E-02 -0.7867813E-05  0.6931970E+05  0.2460658E+03  0.1696418E-02 -0.1811981E-04
  0.1119048E+00 -0.2982769E-02  0.1001358E-04  0.6899120E+05  0.3527906E+03 -0.2590748E-02 -0.5722046E-05
  0.1428571E+00  0.4272461E-03  0.1645088E-04  0.6884623E+05  0.4726322E+03  0.1388550E-02  0.8583069E-05
  0.1738095E+00  0.4565095E-02  0.2169609E-04  0.6884658E+05  0.6109706E+03  0.6759852E-02 -0.1020432E-03
  0.2047619E+00  0.2924897E-02  0.2169609E-04  0.6895821E+05  0.7743077E+03  0.4173101E-02  0.4959106E-04
  0.2357143E+00 -0.2735022E-02  0.2527237E-04  0.6914815E+05  0.9720646E+03  0.8285984E-02  0.1144409E-03
  0.2666667E+00  0.1201630E-02 -0.6198883E-05  0.6943810E+05  0.1212590E+04 -0.9040832E-02 -0.2155304E-03
  0.2976190E+00 -0.5126953E-03 -0.7247925E-04  0.6976160E+05  0.1513134E+04 -0.5537109E-02  0.4577637E-04
  0.3285715E+00 -0.9055759E-03  0.4863739E-04  0.7014244E+05  0.1884415E+04 -0.7430366E-02  0.2632141E-03
  0.3595238E+00 -0.2779929E-02  0.1029968E-03  0.7051309E+05  0.2347546E+04 -0.1697666E-02  0.2098083E-03
  0.3904762E+00 -0.1367708E-03 -0.7820129E-04  0.7089466E+05  0.2920377E+04  0.3282500E-02 -0.8392334E-04
  0.4214286E+00  0.1249152E-02 -0.2346039E-03  0.7112218E+05  0.3598959E+04  0.1737950E-02 -0.6866455E-04
  0.4523810E+00  0.2698396E-02  0.3089905E-03  0.7129397E+05  0.4418507E+04  0.1011899E-01 -0.3356934E-03
  0.4833333E+00  0.1452216E-02  0.5264282E-03  0.7130055E+05  0.5317726E+04  0.3156991E-02 -0.5493164E-03
  0.5142857E+00 -0.1483493E-03 -0.9346008E-04  0.7114149E+05  0.6337542E+04  0.3560384E-02  0.1098633E-02
  0.5452381E+00  0.1259350E-02  0.3509521E-03  0.7086139E+05  0.7428293E+04  0.1903018E-02 -0.6866455E-03
  0.5761905E+00 -0.4766795E-03 -0.1335144E-03  0.7044416E+05  0.8573205E+04 -0.5402368E-02 -0.5493164E-03
  0.6071429E+00 -0.4398121E-02  0.1602173E-03  0.6990974E+05  0.9796835E+04 -0.8645450E-02  0.1251221E-02
  0.6380953E+00 -0.1673912E-03  0.1411438E-03  0.6933029E+05  0.1103624E+05  0.9278255E-02  0.5187988E-03
  0.6690477E+00 -0.3306976E-02  0.3700256E-03  0.6864298E+05  0.1231709E+05  0.4561346E-03 -0.3051758E-03
  0.7000000E+00 -0.6801060E-02  0.4119873E-03  0.6785831E+05  0.1364400E+05  0.2790178E-02  0.7324219E-03
  0.7309524E+00 -0.2859904E-02  0.6484985E-03  0.6703998E+05  0.1498175E+05 -0.6012062E-02 -0.1770020E-02
  0.7619048E+00  0.4686355E-02  0.5645752E-03  0.6616351E+05  0.1633704E+05 -0.5126953E-02 -0.2746582E-03
  0.7928572E+00  0.1077738E-02  0.1907349E-03  0.6523075E+05  0.1770443E+05  0.3233213E-02  0.2441406E-03
  0.8238096E+00 -0.2296756E-02 -0.6484985E-03  0.6424523E+05  0.1907365E+05 -0.1333600E-02  0.2380371E-02
  0.8547620E+00  0.0000000E+00 -0.2395630E-02  0.6322236E+05  0.2043431E+05  0.1242465E-01 -0.6713867E-03
  0.8857143E+00 -0.3083752E-02 -0.1136780E-02  0.6216743E+05  0.2178035E+05  0.6753244E-02  0.1159668E-02
  0.9166667E+00  0.2663352E-03  0.1518250E-02  0.6108248E+05  0.2310436E+05 -0.8522728E-02  0.6103516E-04
  0.9476191E+00 -0.1964473E-02 -0.1144409E-03  0.5997458E+05  0.2440010E+05 -0.5023899E-02  0.1098633E-02
  0.9785714E+00  0.3664337E-02  0.1052856E-02  0.5885564E+05  0.2565877E+05  0.3617558E-02  0.1831055E-02
  0.1009524E+01  0.1148728E-02  0.8239746E-03  0.5772202E+05  0.2687562E+05 -0.1269646E-01 -0.3295898E-02
  0.1040476E+01 -0.1745158E-02  0.3509521E-03  0.5657812E+05  0.2804342E+05  0.6921973E-02 -0.2258301E-02
  0.1071429E+01 -0.1153565E-02  0.1586914E-02  0.5543214E+05  0.2915728E+05  0.2278646E-03 -0.5493164E-02
  0.1102381E+01  0.1522583E-03 -0.8850098E-03  0.5429550E+05  0.3021565E+05 -0.9523066E-02 -0.1892090E-02
  0.1133333E+01 -0.2073400E-02 -0.5493164E-03  0.5316110E+05  0.3121384E+05 -0.9586110E-02 -0.4211426E-02
  0.1164286E+01  0.3499224E-02  0.1388550E-02  0.5204733E+05  0.3214459E+05  0.1237179E-01 -0.5554199E-02
  0.1195238E+01  0.1302164E-02  0.1068115E-02  0.5095429E+05  0.3300566E+05  0.7047007E-02  0.8544922E-03
  0.1226190E+01 -0.2414148E-02  0.1983643E-03  0.4989042E+05  0.3379156E+05 -0.2887022E-02 -0.7324219E-03
  0.1257143E+01 -0.3410686E-02  0.2059937E-02  0.4884903E+05  0.3453055E+05  0.3204346E-02 -0.5004883E-02
  0.1288095E+01 -0.3624879E-02 -0.2441406E-03  0.4782973E+05  0.3513944E+05  0.3316883E-02 -0.9765625E-03
  0.1319048E+01  0.2371447E-02 -0.2441406E-03  0.4682957E+05  0.3570151E+05  0.1665797E-02 -0.1220703E-02
  0.1350000E+01  0.2837004E-02 -0.1556396E-02  0.4585780E+05  0.3618832E+05 -0.9946469E-03  0.2685547E-02
  0.1380952E+01 -0.2872862E-03 -0.1068115E-03  0.4491927E+05  0.3660001E+05  0.3535830E-03  0.1831055E-02
  0.1411905E+01 -0.1891266E-02  0.1556396E-02  0.4398146E+05  0.3693133E+05  0.4582268E-02 -0.2441406E-03
  0.1442857E+01 -0.1956449E-02 -0.4440308E-02  0.4310907E+05  0.3720111E+05 -0.4060953E-02 -0.2441406E-02
  0.1473810E+01 -0.2143133E-02  0.3204346E-03  0.4227296E+05  0.3739417E+05  0.5383715E-02  0.2075195E-02
  0.1504762E+01 -0.1419647E-03  0.6103516E-04  0.4147811E+05  0.3750884E+05  0.5921955E-02  0.3906250E-02
  0.1535714E+01  0.4938170E-02  0.8697510E-03  0.4072637E+05  0.3754413E+05 -0.1430777E-02  0.2563477E-02
  0.1566667E+01 -0.1860274E-02  0.1342773E-02  0.4001463E+05  0.3750139E+05  0.3038771E-02  0.1342773E-02
  0.1597619E+01 -0.5014252E-02 -0.1770020E-02  0.3934859E+05  0.3738225E+05 -0.7869988E-02 -0.2075195E-02
  0.1628572E+01 -0.2080014E-02  0.6103516E-03  0.3872940E+05  0.3718438E+05 -0.2098753E-02  0.5615234E-02
  0.1659524E+01 -0.3953712E-03 -0.7324219E-03  0.3815879E+05  0.3691278E+05 -0.7282186E-02  0.3784180E-02
  0.1690476E+01 -0.1660844E-02  0.1693726E-02  0.3764075E+05  0.3657982E+05 -0.3682741E-02 -0.4638672E-02
  0.1721429E+01  0.2216007E-03 -0.3356934E-03  0.3717923E+05  0.3619618E+05  0.1418244E-03  0.5615234E-02
  0.1752381E+01  0.3570059E-03  0.3021240E-02  0.3676484E+05  0.3576675E+05 -0.9055760E-03 -0.3417969E-02
  0.1783333E+01  0.3268518E-02 -0.1220703E-02  0.3640793E+05  0.3528328E+05  0.4654644E-02 -0.5004883E-02
  0.1814286E+01 -0.6980596E-03  0.2136230E-02  0.3610658E+05  0.3475664E+05  0.2489466E-02  0.5737305E-02
  0.1845238E+01 -0.2083858E-02 -0.9307861E-03  0.3585786E+05  0.3420070E+05 -0.8335434E-02  0.1098633E-02
  0.1876190E+01 -0.2358529E-03 -0.1312256E-02  0.3566530E+05  0.3362291E+05 -0.3057954E-02  0.7324219E-03
  0.1907143E+01  0.5600604E-03  0.3005981E-02  0.3552392E+05  0.3303813E+05 -0.3200345E-03  0.8789062E-02
  0.1938095E+01 -0.1653348E-03 -0.2700806E-02  0.3543625E+05  0.3245587E+05 -0.8691886E-02 -0.5493164E-02
  0.1969048E+01 -0.2603773E-02 -0.2182007E-02  0.3539803E+05  0.3191649E+05  0.8059298E-03 -0.8789062E-02
  0.2000000E+01 -0.1586914E-02  0.8239746E-03  0.3540251E+05  0.3141856E+05 -0.6530762E-02 -0.2807617E-02
Zone t="Motion of body    1 in DoF   3",I=    64,F=POINT
  0.5000000E-01  0.4171121E+05  0.2932249E-02  0.3395081E-02  0.1015624E-04  0.1644538E+06  0.8024513E-02
  0.8095238E-01  0.4166552E+05  0.1281874E-01  0.1022563E-01  0.1405683E-04  0.1644315E+06  0.3484027E-01
  0.1119048E+00  0.4168854E+05  0.3598686E-01 -0.7567710E-02 -0.1539470E-04  0.1643808E+06  0.9785058E-01
  0.1428571E+00  0.4175020E+05  0.8101365E-01  0.9132385E-02  0.2701767E-04  0.1645704E+06  0.2203488E+00
  0.1738095E+00  0.4179719E+05  0.1613445E+00  0.8120602E-02  0.3402820E-05  0.1647475E+06  0.4391538E+00
  0.2047619E+00  0.4187042E+05  0.2976075E+00  0.1341354E-02 -0.1118099E-04  0.1650142E+06  0.8108428E+00
  0.2357143E+00  0.4191304E+05  0.5241267E+00  0.2783573E-02  0.1127557E-03  0.1650165E+06  0.1429366E+01
  0.2666667E+00  0.4201845E+05  0.8944272E+00  0.7438659E-02  0.2909191E-03  0.1654794E+06  0.2441954E+01
  0.2976190E+00  0.4212433E+05  0.1499975E+01  0.9536133E-02  0.1907591E-03  0.1658145E+06  0.4099857E+01
  0.3285715E+00  0.4221164E+05  0.2482390E+01  0.1551089E-01  0.1278482E-03  0.1659432E+06  0.6793486E+01
  0.3595238E+00  0.4234994E+05  0.4075824E+01  0.4498816E-02  0.3216527E-03  0.1664815E+06  0.1117056E+02
  0.3904762E+00  0.4250009E+05  0.6645348E+01  0.1981223E-01  0.6718338E-03  0.1670449E+06  0.1824318E+02
  0.4214286E+00  0.4264502E+05  0.1068645E+02  0.2027608E-02  0.5467236E-04  0.1673471E+06  0.2938696E+02
  0.4523810E+00  0.4278793E+05  0.1703568E+02 -0.5329332E-02 -0.2785027E-03  0.1677029E+06  0.4692785E+02
  0.4833333E+00  0.4299744E+05  0.2648504E+02  0.7576778E-02  0.1073271E-02  0.1685231E+06  0.7310619E+02
  0.5142857E+00  0.4322502E+05  0.4048873E+02 -0.1364814E-02  0.2560616E-03  0.1693002E+06  0.1119923E+03
  0.5452381E+00  0.4342645E+05  0.6043138E+02  0.1343307E-02 -0.7347465E-03  0.1697499E+06  0.1675097E+03
  0.5761905E+00  0.4362881E+05  0.8806565E+02  0.1038102E-01  0.8423328E-03  0.1702991E+06  0.2446408E+03
  0.6071429E+00  0.4392298E+05  0.1259162E+03 -0.8997299E-02 -0.2290010E-03  0.1714010E+06  0.3506137E+03
  0.6380953E+00  0.4423315E+05  0.1760210E+03  0.6313039E-02  0.1545191E-02  0.1724988E+06  0.4913471E+03
  0.6690477E+00  0.4454784E+05  0.2418427E+03  0.9259532E-02  0.8895397E-03  0.1734384E+06  0.6768368E+03
  0.7000000E+00  0.4485032E+05  0.3272021E+03  0.1011440E-01  0.2235413E-02  0.1742718E+06  0.9181316E+03
  0.7309524E+00  0.4515409E+05  0.4356039E+03  0.1035411E-01  0.3014565E-02  0.1751366E+06  0.1225475E+04
  0.7619048E+00  0.4551986E+05  0.5719589E+03 -0.1441955E-02 -0.1027107E-02  0.1763691E+06  0.1613458E+04
  0.7928572E+00  0.4594395E+05  0.7415411E+03  0.9853602E-02  0.1911163E-02  0.1778779E+06  0.2097900E+04
  0.8238096E+00  0.4636245E+05  0.9502153E+03 -0.8446136E-02 -0.4529953E-03  0.1792154E+06  0.2696444E+04
  0.8547620E+00  0.4676162E+05  0.1204278E+04  0.1242465E-01  0.4247665E-02  0.1803747E+06  0.3428135E+04
  0.8857143E+00  0.4716701E+05  0.1510237E+04 -0.5719585E-02 -0.2813339E-02  0.1815657E+06  0.4312333E+04
  0.9166667E+00  0.4758718E+05  0.1874658E+04 -0.8722479E-02 -0.2573013E-02  0.1828804E+06  0.5369220E+04
  0.9476191E+00  0.4802251E+05  0.2304405E+04 -0.3864537E-02  0.8468628E-03  0.1843308E+06  0.6620371E+04
  0.9785714E+00  0.4847823E+05  0.2806726E+04  0.2245381E-02 -0.2861023E-03  0.1859083E+06  0.8089059E+04
  0.1009524E+01  0.4893619E+05  0.3389043E+04 -0.1662632E-01 -0.9716034E-02  0.1874939E+06  0.9799878E+04
  0.1040476E+01  0.4937654E+05  0.4058989E+04  0.1173216E-02  0.4203796E-02  0.1889666E+06  0.1177887E+05
  0.1071429E+01  0.4978972E+05  0.4823521E+04 -0.5411784E-02  0.5187988E-03  0.1902928E+06  0.1404955E+05
  0.1102381E+01  0.5015997E+05  0.5687745E+04  0.1367557E-01  0.9849548E-02  0.1914672E+06  0.1662866E+05
  0.1133333E+01  0.5048464E+05  0.6655718E+04  0.6247128E-02 -0.2655029E-02  0.1925229E+06  0.1952977E+05
  0.1164286E+01  0.5077958E+05  0.7729888E+04  0.9069149E-02  0.1162720E-01  0.1935397E+06  0.2276376E+05
  0.1195238E+01  0.5103841E+05  0.8911488E+04  0.9600271E-02  0.8987427E-02  0.1945339E+06  0.2634001E+05
  0.1226190E+01  0.5125388E+05  0.1020122E+05  0.5923373E-02 -0.4486084E-02  0.1954365E+06  0.3026509E+05
  0.1257143E+01  0.5139602E+05  0.1161021E+05 -0.1165217E-02 -0.1174927E-02  0.1961030E+06  0.3457418E+05
  0.1288095E+01  0.5150111E+05  0.1309739E+05  0.1137217E-02  0.6408691E-02  0.1966519E+06  0.3914659E+05
  0.1319048E+01  0.5152155E+05  0.1469412E+05 -0.4627214E-02  0.3799438E-02  0.1969398E+06  0.4408121E+05
  0.1350000E+01  0.5148324E+05  0.1637969E+05  0.3255208E-02 -0.1678467E-02  0.1970512E+06  0.4931924E+05
  0.1380952E+01  0.5137761E+05  0.1814455E+05  0.7867222E-02  0.6866455E-02  0.1969565E+06  0.5483707E+05
  0.1411905E+01  0.5038528E+05  0.1964537E+05 -0.7694752E-02 -0.2624512E-02  0.1935610E+06  0.5961925E+05
  0.1442857E+01  0.5013450E+05  0.2151682E+05 -0.1861270E-02  0.9338379E-02  0.1930042E+06  0.6554580E+05
  0.1473810E+01  0.4980971E+05  0.2343454E+05  0.5466541E-02 -0.7934570E-03  0.1922171E+06  0.7165886E+05
  0.1504762E+01  0.4940968E+05  0.2538505E+05  0.3812766E-02 -0.3051758E-03  0.1912103E+06  0.7791902E+05
  0.1535714E+01  0.4894146E+05  0.2735429E+05  0.7153887E-03 -0.5493164E-02  0.1899850E+06  0.8427937E+05
  0.1566667E+01  0.4841070E+05  0.2932679E+05  0.2103765E-02  0.9094238E-02  0.1885737E+06  0.9069335E+05
  0.1597619E+01  0.4781649E+05  0.3129308E+05  0.3361936E-02  0.4455566E-02  0.1869432E+06  0.9713246E+05
  0.1628572E+01  0.4716902E+05  0.3323855E+05  0.2248663E-02 -0.4272461E-03  0.1851338E+06  0.1035488E+06
  0.1659524E+01  0.4646880E+05  0.3515399E+05 -0.1986051E-02  0.4272461E-03  0.1831289E+06  0.1099204E+06
  0.1690476E+01  0.4572600E+05  0.3702768E+05 -0.7221061E-04  0.4638672E-02  0.1809817E+06  0.1161987E+06
  0.1721429E+01  0.4494777E+05  0.3885094E+05 -0.5389329E-02  0.1525879E-02  0.1786981E+06  0.1223582E+06
  0.1752381E+01  0.4413176E+05  0.4061678E+05  0.5015498E-02  0.8544922E-03  0.1762918E+06  0.1283745E+06
  0.1783333E+01  0.4329450E+05  0.4231896E+05  0.3764785E-02  0.7751465E-02  0.1737882E+06  0.1342223E+06
  0.1814286E+01  0.4244137E+05  0.4394754E+05  0.3027728E-02  0.4272461E-03  0.1712195E+06  0.1398661E+06
  0.1845238E+01  0.4157431E+05  0.4550302E+05 -0.4961567E-02  0.1525879E-02  0.1685816E+06  0.1453041E+06
  0.1876190E+01  0.4070094E+05  0.4697827E+05 -0.4229086E-02 -0.1232910E-01  0.1659122E+06  0.1505056E+06
  0.1907143E+01  0.3982367E+05  0.4837684E+05  0.1472159E-02  0.3417969E-02  0.1631994E+06  0.1554843E+06
  0.1938095E+01  0.3894580E+05  0.4969329E+05  0.1385663E-02 -0.1092529E-01  0.1604734E+06  0.1602230E+06
  0.1969048E+01  0.3807406E+05  0.5093400E+05  0.7625336E-02 -0.3051758E-02  0.1577345E+06  0.1647238E+06
  0.2000000E+01  0.3720685E+05  0.5209609E+05 -0.7690430E-02 -0.4882812E-03  0.1549995E+06  0.1689831E+06
