VARIABLES="w (rad/s)"
"abs(F   1   1)" "angle(F   1   1)"
"abs(F   1   2)" "angle(F   1   2)"
"abs(F   1   3)" "angle(F   1   3)"
Zone t="Diffraction force - beta =   0.000 deg",I=    64,F=POINT
  0.5000000E-01  0.1573142E+04 -0.1570796E+01  0.2550661E+06 -0.1743347E-04  0.2725052E+03 -0.1570811E+01
  0.8095238E-01  0.2565164E+04 -0.1570794E+01  0.2545568E+06 -0.4688849E-04  0.4419399E+03 -0.1570742E+01
  0.1119048E+00  0.3583919E+04 -0.1570794E+01  0.2538092E+06 -0.9307190E-04  0.6058209E+03 -0.1570814E+01
  0.1428571E+00  0.4634262E+04 -0.1570796E+01  0.2528225E+06 -0.1595464E-03  0.7726429E+03 -0.1570779E+01
  0.1738095E+00  0.5732939E+04 -0.1570791E+01  0.2515952E+06 -0.2515775E-03  0.9373932E+03 -0.1570786E+01
  0.2047619E+00  0.6889154E+04 -0.1570788E+01  0.2501285E+06 -0.3768886E-03  0.1101934E+04 -0.1570782E+01
  0.2357143E+00  0.8120419E+04 -0.1570783E+01  0.2484223E+06 -0.5468528E-03  0.1265135E+04 -0.1570773E+01
  0.2666667E+00  0.9447670E+04 -0.1570779E+01  0.2464692E+06 -0.7750965E-03  0.1424239E+04 -0.1570791E+01
  0.2976190E+00  0.1088029E+05 -0.1570767E+01  0.2442843E+06 -0.1085328E-02  0.1590276E+04 -0.1570769E+01
  0.3285715E+00  0.1244645E+05 -0.1570753E+01  0.2418481E+06 -0.1500854E-02  0.1749031E+04 -0.1570757E+01
  0.3595238E+00  0.1419110E+05 -0.1570732E+01  0.2391897E+06 -0.2059843E-02  0.1897363E+04 -0.1570719E+01
  0.3904762E+00  0.1610081E+05 -0.1570698E+01  0.2362883E+06 -0.2803545E-02  0.2047452E+04 -0.1570692E+01
  0.4214286E+00  0.1819991E+05 -0.1570651E+01  0.2331780E+06 -0.3759816E-02  0.2206518E+04 -0.1570657E+01
  0.4523810E+00  0.2054510E+05 -0.1570581E+01  0.2298582E+06 -0.5002881E-02  0.2304148E+04 -0.1570584E+01
  0.4833333E+00  0.2309786E+05 -0.1570484E+01  0.2263297E+06 -0.6495104E-02  0.2396729E+04 -0.1570485E+01
  0.5142857E+00  0.2585986E+05 -0.1570349E+01  0.2226618E+06 -0.8327912E-02  0.2463694E+04 -0.1570342E+01
  0.5452381E+00  0.2877737E+05 -0.1570169E+01  0.2187825E+06 -0.1046864E-01  0.2510386E+04 -0.1570179E+01
  0.5761905E+00  0.3194068E+05 -0.1569934E+01  0.2147935E+06 -0.1292450E-01  0.2472120E+04 -0.1569930E+01
  0.6071429E+00  0.3526577E+05 -0.1569632E+01  0.2106599E+06 -0.1577522E-01  0.2350771E+04 -0.1569646E+01
  0.6380953E+00  0.3870440E+05 -0.1569252E+01  0.2063272E+06 -0.1892922E-01  0.2189905E+04 -0.1569301E+01
  0.6690477E+00  0.4226624E+05 -0.1568781E+01  0.2019735E+06 -0.2247899E-01  0.2009045E+04 -0.1568869E+01
  0.7000000E+00  0.4596711E+05 -0.1568203E+01  0.1974854E+06 -0.2646362E-01  0.1669232E+04 -0.1568314E+01
  0.7309524E+00  0.4980898E+05 -0.1567507E+01  0.1928387E+06 -0.3082885E-01  0.1218363E+04 -0.1567664E+01
  0.7619048E+00  0.5375414E+05 -0.1566672E+01  0.1881881E+06 -0.3563421E-01  0.7351580E+03 -0.1567212E+01
  0.7928572E+00  0.5779396E+05 -0.1565681E+01  0.1834680E+06 -0.4090500E-01  0.9133272E+02 -0.1574664E+01
  0.8238096E+00  0.6186071E+05 -0.1564515E+01  0.1786563E+06 -0.4662889E-01  0.5999025E+03  0.1579661E+01
  0.8547620E+00  0.6596090E+05 -0.1563157E+01  0.1737460E+06 -0.5280602E-01  0.1418969E+04  0.1580376E+01
  0.8857143E+00  0.7019490E+05 -0.1561614E+01  0.1689403E+06 -0.5947238E-01  0.2317217E+04  0.1580930E+01
  0.9166667E+00  0.7451594E+05 -0.1559859E+01  0.1640602E+06 -0.6663391E-01  0.3458182E+04  0.1582453E+01
  0.9476191E+00  0.7881547E+05 -0.1557869E+01  0.1591519E+06 -0.7425629E-01  0.4644472E+04  0.1584546E+01
  0.9785714E+00  0.8310752E+05 -0.1555630E+01  0.1541812E+06 -0.8234871E-01  0.5992970E+04  0.1587074E+01
  0.1009524E+01  0.8737673E+05 -0.1553133E+01  0.1493463E+06 -0.9090761E-01  0.7325177E+04  0.1590014E+01
  0.1040476E+01  0.9163251E+05 -0.1550370E+01  0.1445330E+06 -0.9995375E-01  0.8839714E+04  0.1593277E+01
  0.1071429E+01  0.9576687E+05 -0.1547335E+01  0.1397197E+06 -0.1094668E+00  0.1043306E+05  0.1596951E+01
  0.1102381E+01  0.9983845E+05 -0.1544105E+01  0.1349028E+06 -0.1194084E+00  0.1212952E+05  0.1600107E+01
  0.1133333E+01  0.1038656E+06 -0.1540704E+01  0.1300712E+06 -0.1297888E+00  0.1403883E+05  0.1603246E+01
  0.1164286E+01  0.1077553E+06 -0.1537081E+01  0.1254533E+06 -0.1405313E+00  0.1584058E+05  0.1606984E+01
  0.1195238E+01  0.1115118E+06 -0.1533253E+01  0.1208884E+06 -0.1516664E+00  0.1778529E+05  0.1611400E+01
  0.1226190E+01  0.1150524E+06 -0.1529250E+01  0.1163528E+06 -0.1632187E+00  0.1981481E+05  0.1616192E+01
  0.1257143E+01  0.1183116E+06 -0.1525124E+01  0.1118611E+06 -0.1751229E+00  0.2179210E+05  0.1621126E+01
  0.1288095E+01  0.1214207E+06 -0.1521172E+01  0.1073797E+06 -0.1872317E+00  0.2393729E+05  0.1624877E+01
  0.1319048E+01  0.1242324E+06 -0.1517214E+01  0.1029803E+06 -0.1996115E+00  0.2606123E+05  0.1629292E+01
  0.1350000E+01  0.1267466E+06 -0.1513381E+01  0.9882617E+05 -0.2119465E+00  0.2793052E+05  0.1633484E+01
  0.1380952E+01  0.1289726E+06 -0.1509690E+01  0.9470585E+05 -0.2245189E+00  0.2991298E+05  0.1638217E+01
  0.1411905E+01  0.1307584E+06 -0.1506248E+01  0.9065061E+05 -0.2374073E+00  0.3180993E+05  0.1642515E+01
  0.1442857E+01  0.1322598E+06 -0.1503484E+01  0.8664402E+05 -0.2501982E+00  0.3363342E+05  0.1645189E+01
  0.1473810E+01  0.1333747E+06 -0.1501153E+01  0.8267741E+05 -0.2630774E+00  0.3540041E+05  0.1648492E+01
  0.1504762E+01  0.1340950E+06 -0.1499413E+01  0.7874048E+05 -0.2759795E+00  0.3710862E+05  0.1651251E+01
  0.1535714E+01  0.1344117E+06 -0.1498450E+01  0.7500384E+05 -0.2882185E+00  0.3847414E+05  0.1652991E+01
  0.1566667E+01  0.1343549E+06 -0.1498565E+01  0.7141041E+05 -0.2996583E+00  0.3953748E+05  0.1652545E+01
  0.1597619E+01  0.1339525E+06 -0.1499668E+01  0.6784249E+05 -0.3110311E+00  0.4064173E+05  0.1651747E+01
  0.1628572E+01  0.1331244E+06 -0.1501855E+01  0.6433096E+05 -0.3221000E+00  0.4152833E+05  0.1650272E+01
  0.1659524E+01  0.1318852E+06 -0.1505298E+01  0.6086562E+05 -0.3326002E+00  0.4216070E+05  0.1647220E+01
  0.1690476E+01  0.1302738E+06 -0.1510195E+01  0.5742569E+05 -0.3426297E+00  0.4258622E+05  0.1642266E+01
  0.1721429E+01  0.1283230E+06 -0.1516538E+01  0.5400681E+05 -0.3524523E+00  0.4289798E+05  0.1636257E+01
  0.1752381E+01  0.1260204E+06 -0.1524428E+01  0.5062903E+05 -0.3618641E+00  0.4297659E+05  0.1628680E+01
  0.1783333E+01  0.1233920E+06 -0.1534241E+01  0.4745498E+05 -0.3686098E+00  0.4247209E+05  0.1616374E+01
  0.1814286E+01  0.1204865E+06 -0.1545946E+01  0.4430892E+05 -0.3743802E+00  0.4174597E+05  0.1601041E+01
  0.1845238E+01  0.1173316E+06 -0.1559500E+01  0.4119167E+05 -0.3802119E+00  0.4095228E+05  0.1584530E+01
  0.1876190E+01  0.1139006E+06 -0.1575176E+01  0.3811631E+05 -0.3858126E+00  0.3991343E+05  0.1564784E+01
  0.1907143E+01  0.1102184E+06 -0.1593149E+01  0.3507536E+05 -0.3911802E+00  0.3862532E+05  0.1540780E+01
  0.1938095E+01  0.1063025E+06 -0.1613591E+01  0.3207277E+05 -0.3970333E+00  0.3710785E+05  0.1512124E+01
  0.1969048E+01  0.1021973E+06 -0.1636591E+01  0.2913732E+05 -0.4044913E+00  0.3546840E+05  0.1479627E+01
  0.2000000E+01  0.9791402E+05 -0.1662463E+01  0.2625946E+05 -0.4138255E+00  0.3368150E+05  0.1441451E+01
