VARIABLES="w (rad/s)"
"A   1   1" "B   1   1"
"A   1   2" "B   1   2"
"A   1   3" "B   1   3"
Zone t="Motion of body    1 in DoF   1",I=    64,F=POINT
  0.5000000E-01  0.2535009E+06  0.2475840E-01  0.5607605E-02 -0.1052656E-04 -0.4706062E+06 -0.4058902E-01
  0.8095238E-01  0.2551138E+06  0.1085573E+00  0.5277746E-02  0.3349502E-04 -0.4731696E+06 -0.1777912E+00
  0.1119048E+00  0.2554218E+06  0.3045682E+00  0.4039521E-01  0.2155852E-03 -0.4737864E+06 -0.4982904E+00
  0.1428571E+00  0.2561359E+06  0.6859227E+00  0.1335144E-02 -0.8459203E-04 -0.4743294E+06 -0.1119255E+01
  0.1738095E+00  0.2565077E+06  0.1366218E+01  0.3520391E-01  0.4818372E-03 -0.4749093E+06 -0.2228665E+01
  0.2047619E+00  0.2569299E+06  0.2520402E+01  0.2425615E-01  0.1937598E-03 -0.4753116E+06 -0.4105914E+01
  0.2357143E+00  0.2575929E+06  0.4441663E+01 -0.9451201E-02 -0.2630977E-03 -0.4759501E+06 -0.7223226E+01
  0.2666667E+00  0.2579454E+06  0.7574165E+01  0.4869461E-01  0.8873437E-03 -0.4766062E+06 -0.1229749E+02
  0.2976190E+00  0.2587512E+06  0.1271169E+02 -0.6408691E-02 -0.6574020E-04 -0.4775047E+06 -0.2059529E+02
  0.3285715E+00  0.2596181E+06  0.2104407E+02  0.2321989E-02  0.3631413E-04 -0.4784069E+06 -0.3400541E+02
  0.3595238E+00  0.2603768E+06  0.3456241E+02 -0.3798529E-01 -0.1980968E-02 -0.4795983E+06 -0.5574252E+02
  0.3904762E+00  0.2612838E+06  0.5635649E+02 -0.2852649E-01 -0.1237109E-02 -0.4805612E+06 -0.9061433E+02
  0.4214286E+00  0.2627611E+06  0.9083261E+02 -0.1180358E-01 -0.6723106E-03 -0.4822894E+06 -0.1455508E+03
  0.4523810E+00  0.2638427E+06  0.1449728E+03 -0.1180548E-01 -0.6785989E-03 -0.4839046E+06 -0.2317101E+03
  0.4833333E+00  0.2652415E+06  0.2257819E+03 -0.2329859E-01 -0.8381605E-03 -0.4855145E+06 -0.3595224E+03
  0.5142857E+00  0.2668031E+06  0.3460687E+03 -0.1525031E-01 -0.4511833E-02 -0.4873916E+06 -0.5489893E+03
  0.5452381E+00  0.2686088E+06  0.5181226E+03 -0.8955377E-03 -0.9238720E-04 -0.4896128E+06 -0.8186584E+03
  0.5761905E+00  0.2705250E+06  0.7575554E+03 -0.1578339E-01 -0.1904964E-03 -0.4922873E+06 -0.1192524E+04
  0.6071429E+00  0.2723852E+06  0.1087223E+04 -0.2412684E-01  0.6699562E-04 -0.4948447E+06 -0.1704939E+04
  0.6380953E+00  0.2747273E+06  0.1527504E+04  0.2156955E-01  0.7641315E-02 -0.4974654E+06 -0.2382999E+04
  0.6690477E+00  0.2773837E+06  0.2110955E+04 -0.6750792E-02  0.3175259E-02 -0.5007959E+06 -0.3277112E+04
  0.7000000E+00  0.2799237E+06  0.2872832E+04  0.3688267E-01  0.4981995E-02 -0.5041418E+06 -0.4439055E+04
  0.7309524E+00  0.2826207E+06  0.3850246E+04  0.1231638E-01 -0.5088806E-02 -0.5076052E+06 -0.5919532E+04
  0.7619048E+00  0.2857177E+06  0.5096660E+04 -0.7450103E-02  0.1558304E-02 -0.5115971E+06 -0.7794714E+04
  0.7928572E+00  0.2888499E+06  0.6664749E+04  0.4341744E-01  0.1624489E-01 -0.5152859E+06 -0.1013218E+05
  0.8238096E+00  0.2923564E+06  0.8624018E+04  0.1822587E-01  0.5727768E-02 -0.5195554E+06 -0.1303224E+05
  0.8547620E+00  0.2960032E+06  0.1104204E+05  0.2106478E-01  0.7133484E-02 -0.5238146E+06 -0.1657913E+05
  0.8857143E+00  0.2997790E+06  0.1400187E+05  0.3590246E-01  0.2465057E-01 -0.5284901E+06 -0.2089430E+05
  0.9166667E+00  0.3032830E+06  0.1757540E+05 -0.1511452E-01 -0.1324081E-01 -0.5327251E+06 -0.2606270E+05
  0.9476191E+00  0.3069928E+06  0.2187420E+05 -0.4508627E-02  0.1754761E-03 -0.5372452E+06 -0.3223089E+05
  0.9785714E+00  0.3107335E+06  0.2698418E+05  0.9979471E-03  0.4058838E-02 -0.5410512E+06 -0.3945406E+05
  0.1009524E+01  0.3146761E+06  0.3303518E+05 -0.4232155E-03  0.1262665E-01 -0.5453111E+06 -0.4794210E+05
  0.1040476E+01  0.3181174E+06  0.4007814E+05  0.6452687E-02  0.2914429E-02 -0.5487090E+06 -0.5771342E+05
  0.1071429E+01  0.3213408E+06  0.4824323E+05  0.1065267E-01  0.8850098E-03 -0.5519045E+06 -0.6894287E+05
  0.1102381E+01  0.3240999E+06  0.5757425E+05 -0.1638853E-01 -0.2304077E-01 -0.5542272E+06 -0.8161563E+05
  0.1133333E+01  0.3263582E+06  0.6813545E+05  0.2574247E-01  0.3501892E-01 -0.5557036E+06 -0.9578013E+05
  0.1164286E+01  0.3280277E+06  0.7995895E+05 -0.1834799E-02 -0.9460449E-03 -0.5565471E+06 -0.1114855E+06
  0.1195238E+01  0.3286016E+06  0.9294947E+05  0.1041732E-01 -0.4791260E-02 -0.5557398E+06 -0.1284987E+06
  0.1226190E+01  0.3282568E+06  0.1070603E+06  0.1662527E-01  0.1861572E-01 -0.5533256E+06 -0.1466308E+06
  0.1257143E+01  0.3268906E+06  0.1221947E+06  0.1650723E-01 -0.7812500E-02 -0.5498329E+06 -0.1658681E+06
  0.1288095E+01  0.3247198E+06  0.1382767E+06  0.2113328E-01 -0.7995605E-02 -0.5447329E+06 -0.1858031E+06
  0.1319048E+01  0.3212684E+06  0.1549426E+06 -0.1156803E-01  0.6591797E-02 -0.5380875E+06 -0.2060974E+06
  0.1350000E+01  0.3166177E+06  0.1720216E+06 -0.8047598E-02 -0.7751465E-02 -0.5302531E+06 -0.2265806E+06
  0.1380952E+01  0.3105453E+06  0.1890659E+06 -0.5038558E-02 -0.1403809E-02 -0.5205678E+06 -0.2464882E+06
  0.1411905E+01  0.3017763E+06  0.2033538E+06 -0.2438113E-01 -0.1831055E-02 -0.5085741E+06 -0.2628735E+06
  0.1442857E+01  0.2938746E+06  0.2194820E+06 -0.1539778E-01 -0.1483154E-01 -0.4971594E+06 -0.2808596E+06
  0.1473810E+01  0.2848015E+06  0.2344089E+06 -0.1093308E-01  0.5737305E-02 -0.4841235E+06 -0.2966459E+06
  0.1504762E+01  0.2751700E+06  0.2481586E+06  0.1054595E-02 -0.1556396E-01 -0.4705740E+06 -0.3104398E+06
  0.1535714E+01  0.2653044E+06  0.2606695E+06 -0.2297193E-01 -0.2471924E-01 -0.4569906E+06 -0.3222934E+06
  0.1566667E+01  0.2550505E+06  0.2716531E+06  0.2843978E-02 -0.4760742E-02 -0.4433788E+06 -0.3320119E+06
  0.1597619E+01  0.2446211E+06  0.2809368E+06 -0.1604561E-02  0.9521484E-02 -0.4296359E+06 -0.3391216E+06
  0.1628572E+01  0.2342637E+06  0.2886231E+06  0.9331954E-02 -0.7324219E-03 -0.4163368E+06 -0.3440656E+06
  0.1659524E+01  0.2242856E+06  0.2950331E+06  0.6362718E-02 -0.8544922E-02 -0.4040048E+06 -0.3475029E+06
  0.1690476E+01  0.2145110E+06  0.2996491E+06 -0.2960635E-02  0.1489258E-01 -0.3919876E+06 -0.3483598E+06
  0.1721429E+01  0.2051673E+06  0.3028173E+06 -0.1794079E-01  0.1098633E-02 -0.3807352E+06 -0.3473643E+06
  0.1752381E+01  0.1964197E+06  0.3047248E+06 -0.2089791E-02  0.1159668E-01 -0.3704253E+06 -0.3447985E+06
  0.1783333E+01  0.1883231E+06  0.3056301E+06  0.9514639E-02  0.1000977E-01 -0.3612785E+06 -0.3412991E+06
  0.1814286E+01  0.1806227E+06  0.3053202E+06  0.5517194E-02 -0.2685547E-02 -0.3528203E+06 -0.3363891E+06
  0.1845238E+01  0.1734227E+06  0.3038740E+06 -0.2249244E-02 -0.1086426E-01 -0.3449521E+06 -0.3298918E+06
  0.1876190E+01  0.1668092E+06  0.3016798E+06 -0.3106751E-02  0.3295898E-01 -0.3380161E+06 -0.3227473E+06
  0.1907143E+01  0.1608258E+06  0.2990984E+06 -0.6416692E-02 -0.1831055E-02 -0.3321161E+06 -0.3156066E+06
  0.1938095E+01  0.1553643E+06  0.2958467E+06  0.1259694E-03 -0.1708984E-02 -0.3268884E+06 -0.3077145E+06
  0.1969048E+01  0.1503318E+06  0.2917229E+06  0.3254717E-03  0.1464844E-01 -0.3220597E+06 -0.2986055E+06
  0.2000000E+01  0.1458960E+06  0.2872944E+06 -0.6759644E-02 -0.7690430E-02 -0.3180672E+06 -0.2894751E+06
Zone t="Motion of body    1 in DoF   2",I=    64,F=POINT
  0.5000000E-01  0.9307861E-02 -0.2503395E-04  0.8853688E+05  0.2708848E+03  0.6984711E-01  0.1993179E-03
  0.8095238E-01 -0.9518791E-02  0.2527237E-04  0.8729125E+05  0.4491914E+03  0.4995009E-02  0.1628399E-03
  0.1119048E+00  0.4227009E-02  0.1773834E-03  0.8664048E+05  0.6433373E+03 -0.6135981E-02 -0.2098083E-04
  0.1428571E+00  0.1591492E-01  0.4959106E-04  0.8630185E+05  0.8606921E+03 -0.3060150E-01  0.3337860E-04
  0.1738095E+00 -0.1141274E-02  0.7629395E-05  0.8625054E+05  0.1110550E+04 -0.1079821E-01  0.9517670E-03
  0.2047619E+00  0.2615640E-01  0.2136230E-03  0.8635720E+05  0.1404572E+04  0.1788472E-02 -0.1783371E-03
  0.2357143E+00  0.2977776E-02 -0.2784729E-03  0.8664298E+05  0.1759031E+04 -0.2103863E-01 -0.1321793E-02
  0.2666667E+00  0.1132965E-01 -0.5912781E-04  0.8704358E+05  0.2187791E+04  0.6237030E-02  0.8449554E-03
  0.2976190E+00  0.1404785E-01  0.5989075E-03  0.8750673E+05  0.2721605E+04  0.3363281E-01 -0.1617432E-02
  0.3285715E+00  0.1393194E-02  0.8659363E-03  0.8808680E+05  0.3376808E+04 -0.1811152E-02  0.2498627E-02
  0.3595238E+00 -0.9846466E-02  0.4920959E-03  0.8860886E+05  0.4190259E+04 -0.2508302E-01 -0.6771088E-03
  0.3904762E+00 -0.1258292E-01  0.1449585E-03  0.8912270E+05  0.5189979E+04  0.2184426E-01  0.2582550E-02
  0.4214286E+00  0.2244852E-02  0.2746582E-03  0.8938013E+05  0.6365567E+04 -0.8182848E-02  0.1487732E-03
  0.4523810E+00  0.1052374E-01 -0.1914978E-02  0.8952837E+05  0.7777343E+04  0.2900776E-02  0.3337860E-02
  0.4833333E+00 -0.2525593E-03 -0.4577637E-03  0.8935409E+05  0.9310214E+04 -0.5177465E-02 -0.6423950E-02
  0.5142857E+00 -0.1079983E-01  0.4577637E-04  0.8887809E+05  0.1103670E+05 -0.2800836E-01  0.2960205E-02
  0.5452381E+00  0.1186587E-01  0.1876831E-02  0.8821330E+05  0.1286264E+05 -0.1069048E-01  0.9010315E-02
  0.5761905E+00  0.5508296E-02  0.1754761E-02  0.8733588E+05  0.1475573E+05  0.3606875E-01 -0.6927490E-02
  0.6071429E+00  0.4925895E-02 -0.2777100E-02  0.8621932E+05  0.1675981E+05  0.3463206E-01 -0.5493164E-02
  0.6380953E+00 -0.1339130E-02 -0.3814697E-02  0.8503030E+05  0.1876365E+05  0.2635216E-01  0.1049805E-01
  0.6690477E+00 -0.2736808E-02  0.6713867E-03  0.8368888E+05  0.2080777E+05  0.8666557E-03  0.1110840E-01
  0.7000000E+00 -0.1395089E-02 -0.2014160E-02  0.8220874E+05  0.2289877E+05  0.2040318E-01 -0.4852295E-02
  0.7309524E+00 -0.1661667E-01 -0.9155273E-03  0.8070327E+05  0.2497621E+05  0.2154322E-01 -0.8483887E-02
  0.7619048E+00  0.5527496E-02  0.5187988E-02  0.7911500E+05  0.2705023E+05 -0.1121521E-02  0.7263184E-02
  0.7928572E+00  0.3779780E-01 -0.3936768E-02  0.7741734E+05  0.2911862E+05 -0.1416455E-01 -0.4394531E-02
  0.8238096E+00  0.1111334E-01 -0.2136230E-02  0.7567523E+05  0.3115962E+05  0.3834101E-01  0.6195068E-02
  0.8547620E+00 -0.6712167E-02 -0.1770020E-02  0.7392332E+05  0.3315654E+05 -0.1267457E-01 -0.2777100E-02
  0.8857143E+00  0.1398886E-01  0.3356934E-02  0.7215762E+05  0.3509737E+05 -0.4334480E-01  0.8758545E-02
  0.9166667E+00  0.1844371E-01 -0.4272461E-03  0.7036351E+05  0.3697986E+05 -0.2190607E-01 -0.1287842E-01
  0.9476191E+00  0.2511949E-02 -0.2685547E-02  0.6855862E+05  0.3879239E+05  0.1394454E-01 -0.1995850E-01
  0.9785714E+00 -0.1172588E-01 -0.3173828E-02  0.6675549E+05  0.4053020E+05  0.2934588E-01 -0.1742554E-01
  0.1009524E+01 -0.2418374E-01  0.2319336E-02  0.6496718E+05  0.4218256E+05  0.5925017E-02  0.9948730E-02
  0.1040476E+01  0.3636969E-02  0.4455566E-02  0.6318688E+05  0.4375198E+05  0.2991700E-02 -0.3723145E-02
  0.1071429E+01 -0.3571777E-01 -0.7202148E-02  0.6145051E+05  0.4522486E+05  0.6123861E-02 -0.7263184E-02
  0.1102381E+01 -0.5149100E-02 -0.1220703E-03  0.5975220E+05  0.4659977E+05 -0.1494900E-01  0.4089355E-02
  0.1133333E+01 -0.7001092E-03 -0.1135254E-01  0.5810489E+05  0.4787888E+05 -0.1901066E-01 -0.7904053E-02
  0.1164286E+01  0.4455941E-02  0.3540039E-02  0.5651533E+05  0.4905534E+05  0.1153302E-02  0.8300781E-02
  0.1195238E+01 -0.1685154E-01 -0.4882812E-03  0.5496465E+05  0.5014961E+05 -0.7047007E-02  0.2777100E-02
  0.1226190E+01 -0.1005480E-01  0.3173828E-02  0.5346668E+05  0.5115147E+05  0.2852179E-01  0.1968384E-01
  0.1257143E+01  0.1165217E-02  0.5310059E-02  0.5203209E+05  0.5208221E+05 -0.1252608E-01 -0.1098633E-02
  0.1288095E+01  0.4833172E-02 -0.1245117E-01  0.5064290E+05  0.5288768E+05 -0.1385983E-01  0.6713867E-02
  0.1319048E+01  0.2730056E-02  0.5249023E-02  0.4931269E+05  0.5362696E+05 -0.3539819E-02 -0.4821777E-02
  0.1350000E+01 -0.5651403E-02 -0.3906250E-02  0.4805568E+05  0.5428320E+05  0.1103154E-01  0.4199219E-01
  0.1380952E+01  0.2519279E-02  0.1831055E-02  0.4685190E+05  0.5486605E+05  0.4928063E-02  0.1623535E-01
  0.1411905E+01 -0.9942658E-03 -0.2319336E-02  0.4568729E+05  0.5553051E+05  0.1534628E-01 -0.1409912E-01
  0.1442857E+01  0.3680239E-02 -0.5004883E-02  0.4461295E+05  0.5599452E+05  0.1237322E-01 -0.2288818E-01
  0.1473810E+01  0.1337646E-01  0.3540039E-02  0.4357213E+05  0.5641307E+05  0.1695870E-01  0.2679443E-01
  0.1504762E+01 -0.1531191E-01  0.3662109E-03  0.4259174E+05  0.5678175E+05  0.1295935E-01 -0.3967285E-02
  0.1535714E+01  0.2166038E-02  0.1013184E-01  0.4166182E+05  0.5709222E+05  0.4073741E-02 -0.9155273E-02
  0.1566667E+01  0.4480240E-02 -0.9399414E-02  0.4077668E+05  0.5738678E+05 -0.1285634E-02 -0.3173828E-02
  0.1597619E+01  0.6609262E-02 -0.1098633E-02  0.3990791E+05  0.5764118E+05  0.4844245E-01 -0.5493164E-03
  0.1628572E+01 -0.2306754E-01 -0.6225586E-02  0.3907939E+05  0.5787032E+05  0.2867983E-01  0.2221680E-01
  0.1659524E+01 -0.1776412E-01 -0.2648926E-01  0.3828905E+05  0.5805384E+05  0.2959767E-01 -0.8300781E-02
  0.1690476E+01 -0.4549268E-02 -0.1147461E-01  0.3751041E+05  0.5821047E+05 -0.1449628E-01  0.2764893E-01
  0.1721429E+01  0.3226506E-02  0.5737305E-02  0.3676252E+05  0.5834916E+05 -0.7605335E-02  0.4394531E-02
  0.1752381E+01 -0.9996166E-02 -0.2905273E-01  0.3602831E+05  0.5842759E+05 -0.6661208E-02  0.4272461E-02
  0.1783333E+01 -0.2464223E-02  0.8666992E-02  0.3532194E+05  0.5845126E+05  0.9852614E-02  0.1080322E-01
  0.1814286E+01  0.4373385E-03  0.5126953E-02  0.3461757E+05  0.5846579E+05 -0.8351484E-02  0.2563477E-02
  0.1845238E+01 -0.3109249E-02 -0.1110840E-01  0.3389963E+05  0.5840421E+05 -0.4461276E-02  0.4272461E-02
  0.1876190E+01  0.3635387E-02  0.9765625E-03  0.3320545E+05  0.5827629E+05  0.2480522E-02 -0.1696777E-01
  0.1907143E+01  0.2664288E-02  0.9765625E-02  0.3253738E+05  0.5807727E+05 -0.2701092E-01 -0.2307129E-01
  0.1938095E+01 -0.1425028E-02 -0.8666992E-02  0.3187358E+05  0.5776946E+05 -0.3105932E-02  0.1647949E-01
  0.1969048E+01 -0.2696765E-02  0.1306152E-01  0.3122838E+05  0.5737450E+05  0.1526811E-01  0.1245117E-01
  0.2000000E+01  0.1003265E-02 -0.3039551E-01  0.3062380E+05  0.5687639E+05  0.3228951E-01  0.2319336E-02
Zone t="Motion of body    1 in DoF   3",I=    64,F=POINT
  0.5000000E-01 -0.4683673E+06 -0.3988487E-01  0.5760193E-02 -0.6066004E-04  0.1243620E+07  0.6559931E-01
  0.8095238E-01 -0.4715265E+06 -0.1745217E+00  0.1988579E-01 -0.2220657E-04  0.1247458E+07  0.2864319E+00
  0.1119048E+00 -0.4721886E+06 -0.4892695E+00 -0.6500731E-01 -0.7187934E-03  0.1248203E+07  0.8015690E+00
  0.1428571E+00 -0.4728835E+06 -0.1099257E+01 -0.7487488E-01 -0.1230659E-02  0.1248728E+07  0.1794171E+01
  0.1738095E+00 -0.4734457E+06 -0.2186307E+01 -0.1128105E+00 -0.1499791E-02  0.1249496E+07  0.3565055E+01
  0.2047619E+00 -0.4738417E+06 -0.4029819E+01 -0.2127537E-01 -0.9327140E-03  0.1250015E+07  0.6566069E+01
  0.2357143E+00 -0.4745264E+06 -0.7091066E+01  0.5395600E-01  0.1763273E-02  0.1250795E+07  0.1152721E+02
  0.2666667E+00 -0.4750668E+06 -0.1206991E+02 -0.4274368E-01 -0.1321305E-02  0.1251629E+07  0.1960223E+02
  0.2976190E+00 -0.4759956E+06 -0.2020838E+02  0.3117188E-01  0.1480769E-02  0.1252682E+07  0.3274065E+02
  0.3285715E+00 -0.4768984E+06 -0.3338585E+02  0.4769366E-01  0.1692407E-02  0.1253933E+07  0.5395455E+02
  0.3595238E+00 -0.4779995E+06 -0.5469427E+02  0.6620900E-01  0.3288791E-02  0.1255378E+07  0.8820435E+02
  0.3904762E+00 -0.4789486E+06 -0.8893904E+02 -0.2872188E-01 -0.1021713E-02  0.1256783E+07  0.1430020E+03
  0.4214286E+00 -0.4807429E+06 -0.1428999E+03  0.3819869E-01  0.1239687E-02  0.1258856E+07  0.2289686E+03
  0.4523810E+00 -0.4822372E+06 -0.2273512E+03 -0.1284437E+00 -0.1021856E-01  0.1260923E+07  0.3633645E+03
  0.4833333E+00 -0.4838334E+06 -0.3528449E+03 -0.2276190E-01 -0.1762509E-02  0.1262888E+07  0.5618426E+03
  0.5142857E+00 -0.4856571E+06 -0.5389119E+03 -0.1097785E-01  0.3013968E-02  0.1265411E+07  0.8549031E+03
  0.5452381E+00 -0.4878575E+06 -0.8037045E+03  0.2759375E-01 -0.2591610E-03  0.1268285E+07  0.1269921E+04
  0.5761905E+00 -0.4904864E+06 -0.1170138E+04  0.2923634E-01  0.4618406E-02  0.1271578E+07  0.1842008E+04
  0.6071429E+00 -0.4928800E+06 -0.1672176E+04 -0.8620317E-01 -0.1402140E-01  0.1275009E+07  0.2622378E+04
  0.6380953E+00 -0.4955266E+06 -0.2338744E+04 -0.2778694E-01 -0.1142550E-01  0.1278353E+07  0.3648533E+04
  0.6690477E+00 -0.4988648E+06 -0.3216318E+04 -0.3138206E-01 -0.4113197E-02  0.1282467E+07  0.4993077E+04
  0.7000000E+00 -0.5020800E+06 -0.4354982E+04 -0.1055036E-01 -0.1050949E-02  0.1286759E+07  0.6729345E+04
  0.7309524E+00 -0.5054098E+06 -0.5805699E+04 -0.2672028E-02 -0.2332687E-02  0.1291073E+07  0.8925891E+04
  0.7619048E+00 -0.5093099E+06 -0.7642554E+04 -0.1026192E+00 -0.3536987E-01  0.1296054E+07  0.1168846E+05
  0.7928572E+00 -0.5129457E+06 -0.9937252E+04  0.3983781E-01 -0.6484985E-02  0.1300611E+07  0.1510699E+05
  0.8238096E+00 -0.5171503E+06 -0.1278173E+05 -0.2248599E-01 -0.7926941E-02  0.1305917E+07  0.1931515E+05
  0.8547620E+00 -0.5213899E+06 -0.1626284E+05  0.5448280E-01  0.9857178E-02  0.1310845E+07  0.2441750E+05
  0.8857143E+00 -0.5259323E+06 -0.2048662E+05 -0.7662866E-01 -0.5891418E-01  0.1316374E+07  0.3057060E+05
  0.9166667E+00 -0.5299663E+06 -0.2554119E+05  0.7523970E-02  0.3312683E-01  0.1321149E+07  0.3787483E+05
  0.9476191E+00 -0.5342885E+06 -0.3156729E+05 -0.3207566E-01 -0.3164673E-01  0.1326380E+07  0.4651299E+05
  0.9785714E+00 -0.5381204E+06 -0.3866720E+05  0.5114479E-02 -0.1647949E-02  0.1330379E+07  0.5653401E+05
  0.1009524E+01 -0.5423556E+06 -0.4698516E+05  0.4661416E-01  0.4449463E-01  0.1334788E+07  0.6818441E+05
  0.1040476E+01 -0.5456809E+06 -0.5656321E+05 -0.3009299E-01 -0.3594971E-01  0.1337867E+07  0.8145017E+05
  0.1071429E+01 -0.5487647E+06 -0.6754460E+05  0.2910970E-01 -0.5111694E-02  0.1340638E+07  0.9651956E+05
  0.1102381E+01 -0.5509857E+06 -0.7994436E+05  0.4257696E-01  0.7662964E-01  0.1342039E+07  0.1133224E+06
  0.1133333E+01 -0.5524205E+06 -0.9380494E+05 -0.4087560E-01 -0.3585815E-01  0.1342041E+07  0.1318565E+06
  0.1164286E+01 -0.5531336E+06 -0.1091081E+06  0.6605276E-01  0.4693604E-01  0.1341104E+07  0.1521175E+06
  0.1195238E+01 -0.5522373E+06 -0.1257056E+06  0.8578965E-02 -0.1547241E-01  0.1338116E+07  0.1737797E+06
  0.1226190E+01 -0.5499192E+06 -0.1434915E+06 -0.2737693E-01 -0.2709961E-01  0.1332994E+07  0.1965093E+06
  0.1257143E+01 -0.5464726E+06 -0.1622427E+06 -0.3277172E-01  0.1220703E-03  0.1326531E+07  0.2201999E+06
  0.1288095E+01 -0.5415642E+06 -0.1818503E+06 -0.4027643E-02 -0.4107666E-01  0.1317892E+07  0.2443341E+06
  0.1319048E+01 -0.5350928E+06 -0.2017097E+06 -0.2452423E-01  0.7995605E-02  0.1306921E+07  0.2682643E+06
  0.1350000E+01 -0.5273591E+06 -0.2216228E+06  0.7007740E-02 -0.1135254E-01  0.1294799E+07  0.2918529E+06
  0.1380952E+01 -0.5178136E+06 -0.2410175E+06 -0.1630902E-01 -0.3204346E-01  0.1280595E+07  0.3141697E+06
  0.1411905E+01 -0.5076978E+06 -0.2585541E+06 -0.1370358E-01  0.5432129E-02  0.1265763E+07  0.3341713E+06
  0.1442857E+01 -0.4963893E+06 -0.2760251E+06  0.1996635E-01  0.3588867E-01  0.1249906E+07  0.3531047E+06
  0.1473810E+01 -0.4835726E+06 -0.2915396E+06  0.1437038E-01 -0.2441406E-03  0.1232329E+07  0.3688947E+06
  0.1504762E+01 -0.4702818E+06 -0.3051695E+06 -0.1983449E-01  0.2478027E-01  0.1214403E+07  0.3816918E+06
  0.1535714E+01 -0.4569604E+06 -0.3168097E+06  0.1454624E-01  0.1855469E-01  0.1196483E+07  0.3915314E+06
  0.1566667E+01 -0.4436082E+06 -0.3263462E+06 -0.4363364E-02  0.2282715E-01  0.1179455E+07  0.3986773E+06
  0.1597619E+01 -0.4301271E+06 -0.3334000E+06  0.2807981E-02 -0.3088379E-01  0.1162333E+07  0.4022252E+06
  0.1628572E+01 -0.4170946E+06 -0.3383334E+06  0.3253067E-01  0.9643555E-02  0.1146241E+07  0.4030588E+06
  0.1659524E+01 -0.4049803E+06 -0.3415442E+06  0.4924670E-01 -0.1733398E-01  0.1131742E+07  0.4019683E+06
  0.1690476E+01 -0.3932057E+06 -0.3424094E+06 -0.1841370E-01 -0.2539062E-01  0.1117776E+07  0.3976450E+06
  0.1721429E+01 -0.3821815E+06 -0.3415736E+06  0.7046902E-02 -0.2441406E-02  0.1105231E+07  0.3914206E+06
  0.1752381E+01 -0.3720736E+06 -0.3390440E+06 -0.6112638E-02  0.2478027E-01  0.1093635E+07  0.3830486E+06
  0.1783333E+01 -0.3631065E+06 -0.3354193E+06 -0.2738026E-03  0.1354980E-01  0.1083792E+07  0.3737481E+06
  0.1814286E+01 -0.3548158E+06 -0.3305872E+06  0.5180254E-02 -0.8178711E-02  0.1075425E+07  0.3634939E+06
  0.1845238E+01 -0.3471079E+06 -0.3243100E+06  0.3291173E-02  0.4272461E-02  0.1067444E+07  0.3510844E+06
  0.1876190E+01 -0.3403118E+06 -0.3174432E+06  0.1539956E-01  0.1721191E-01  0.1060925E+07  0.3384714E+06
  0.1907143E+01 -0.3345272E+06 -0.3103678E+06 -0.6080656E-02 -0.5493164E-02  0.1055911E+07  0.3263045E+06
  0.1938095E+01 -0.3293857E+06 -0.3025629E+06 -0.8770617E-02 -0.5554199E-01  0.1051554E+07  0.3132603E+06
  0.1969048E+01 -0.3246507E+06 -0.2938731E+06  0.6881400E-02 -0.1745605E-01  0.1047663E+07  0.2992297E+06
  0.2000000E+01 -0.3207495E+06 -0.2850648E+06 -0.1502991E-01 -0.1831055E-01  0.1044867E+07  0.2853949E+06
