VARIABLES="w (rad/s)"
"A   1   1" "B   1   1"
"A   1   2" "B   1   2"
"A   1   3" "B   1   3"
Zone t="Motion of body    1 in DoF   1",I=    64,F=POINT
  0.5000000E-01  0.4706400E+05  0.1894056E-02 -0.1573563E-02 -0.2105899E-05 -0.1018717E+06 -0.4052317E-02
  0.8095238E-01  0.4745922E+05  0.8352303E-02 -0.8953318E-03  0.3515986E-05 -0.1027033E+06 -0.1800679E-01
  0.1119048E+00  0.4769357E+05  0.2346388E-01 -0.2079416E-02 -0.5355687E-05 -0.1030266E+06 -0.5041859E-01
  0.1428571E+00  0.4778370E+05  0.5272871E-01 -0.1735687E-03  0.8145173E-05 -0.1031457E+06 -0.1131722E+00
  0.1738095E+00  0.4783004E+05  0.1049028E+00 -0.1064457E-02  0.3166904E-05 -0.1032572E+06 -0.2250737E+00
  0.2047619E+00  0.4789638E+05  0.1936769E+00 -0.1006015E-02 -0.5398178E-06 -0.1033558E+06 -0.4153214E+00
  0.2357143E+00  0.4793417E+05  0.3405356E+00 -0.6473425E-04 -0.3497116E-05 -0.1033984E+06 -0.7297127E+00
  0.2666667E+00  0.4802701E+05  0.5803756E+00 -0.2117157E-02 -0.3930461E-04 -0.1035573E+06 -0.1242352E+01
  0.2976190E+00  0.4808092E+05  0.9720970E+00 -0.1153564E-03 -0.2353732E-04 -0.1036533E+06 -0.2079017E+01
  0.3285715E+00  0.4816211E+05  0.1606503E+01 -0.1010065E-02 -0.8681510E-04 -0.1037694E+06 -0.3431426E+01
  0.3595238E+00  0.4827142E+05  0.2635394E+01  0.6366249E-03  0.2910011E-04 -0.1039503E+06 -0.5621559E+01
  0.3904762E+00  0.4837406E+05  0.4288904E+01  0.1397016E-02  0.8368306E-04 -0.1041577E+06 -0.9136765E+01
  0.4214286E+00  0.4850188E+05  0.6890656E+01 -0.1728898E-02 -0.8427724E-04 -0.1043052E+06 -0.1465119E+02
  0.4523810E+00  0.4866983E+05  0.1097541E+02 -0.1686498E-04  0.2533197E-05 -0.1045929E+06 -0.2329656E+02
  0.4833333E+00  0.4878245E+05  0.1703641E+02 -0.9313123E-03  0.5234033E-04 -0.1048607E+06 -0.3610924E+02
  0.5142857E+00  0.4897631E+05  0.2603314E+02  0.1364814E-02  0.2613515E-03 -0.1051295E+06 -0.5505525E+02
  0.5452381E+00  0.4915455E+05  0.3882307E+02 -0.5737038E-03 -0.1991093E-03 -0.1053935E+06 -0.8192165E+02
  0.5761905E+00  0.4932680E+05  0.5651962E+02  0.4899206E-03  0.2020895E-03 -0.1057104E+06 -0.1190196E+03
  0.6071429E+00  0.4958150E+05  0.8082500E+02  0.1143512E-02 -0.5286932E-04 -0.1062032E+06 -0.1698495E+03
  0.6380953E+00  0.4978317E+05  0.1129560E+03 -0.4304345E-03 -0.1488924E-03 -0.1065803E+06 -0.2368328E+03
  0.6690477E+00  0.5004435E+05  0.1552254E+03 -0.1630681E-02 -0.5286932E-03 -0.1069564E+06 -0.3244977E+03
  0.7000000E+00  0.5036430E+05  0.2102188E+03 -0.5122593E-03 -0.5096197E-03 -0.1074835E+06 -0.4381999E+03
  0.7309524E+00  0.5061502E+05  0.2800792E+03 -0.1262950E-02 -0.1571178E-03 -0.1079374E+06 -0.5822568E+03
  0.7619048E+00  0.5091228E+05  0.3683505E+03 -0.1031399E-02 -0.4427433E-03 -0.1085204E+06 -0.7637620E+03
  0.7928572E+00  0.5125947E+05  0.4787471E+03 -0.1337550E-02 -0.4158020E-03 -0.1091280E+06 -0.9896080E+03
  0.8238096E+00  0.5165406E+05  0.6154329E+03 -0.3241390E-03 -0.2808571E-03 -0.1097736E+06 -0.1267718E+04
  0.8547620E+00  0.5199375E+05  0.7823240E+03  0.5355452E-04 -0.8392334E-04 -0.1103099E+06 -0.1605733E+04
  0.8857143E+00  0.5236852E+05  0.9850264E+03  0.1860588E-02  0.1592636E-02 -0.1109272E+06 -0.2014460E+04
  0.9166667E+00  0.5279929E+05  0.1229473E+04 -0.9488192E-03  0.3986359E-03 -0.1116476E+06 -0.2504926E+04
  0.9476191E+00  0.5323978E+05  0.1521289E+04  0.1127157E-02  0.1117706E-02 -0.1124610E+06 -0.3088649E+04
  0.9785714E+00  0.5362718E+05  0.1865862E+04  0.7484603E-03  0.3042221E-03 -0.1131189E+06 -0.3773711E+04
  0.1009524E+01  0.5408430E+05  0.2271955E+04  0.6197084E-03  0.1420021E-02 -0.1138980E+06 -0.4576521E+04
  0.1040476E+01  0.5454325E+05  0.2745990E+04 -0.2786388E-03 -0.2632141E-03 -0.1145463E+06 -0.5504638E+04
  0.1071429E+01  0.5505933E+05  0.3297921E+04  0.6693522E-03 -0.1296997E-03 -0.1153312E+06 -0.6579654E+04
  0.1102381E+01  0.5551245E+05  0.3932557E+04 -0.1965516E-02 -0.2021790E-02 -0.1160436E+06 -0.7809660E+04
  0.1133333E+01  0.5593540E+05  0.4658742E+04  0.2692728E-04 -0.1468658E-03 -0.1166715E+06 -0.9207058E+04
  0.1164286E+01  0.5639495E+05  0.5487577E+04 -0.1677531E-02 -0.2046585E-02 -0.1174060E+06 -0.1079383E+05
  0.1195238E+01  0.5680646E+05  0.6423095E+04 -0.3446906E-03 -0.4882812E-03 -0.1179935E+06 -0.1256930E+05
  0.1226190E+01  0.5725565E+05  0.7477648E+04  0.7217556E-03  0.4539490E-03 -0.1186340E+06 -0.1455591E+05
  0.1257143E+01  0.5760497E+05  0.8647013E+04 -0.6068836E-04  0.6370544E-03 -0.1191453E+06 -0.1674721E+05
  0.1288095E+01  0.5798734E+05  0.9950673E+04  0.1587365E-02  0.2056122E-02 -0.1195363E+06 -0.1915258E+05
  0.1319048E+01  0.5829717E+05  0.1138425E+05  0.9254427E-03  0.1228333E-02 -0.1198341E+06 -0.2177945E+05
  0.1350000E+01  0.5855745E+05  0.1295609E+05  0.1265914E-02  0.1644135E-02 -0.1200231E+06 -0.2463260E+05
  0.1380952E+01  0.5874851E+05  0.1466770E+05 -0.2762367E-03 -0.7171631E-03 -0.1200515E+06 -0.2770476E+05
  0.1411905E+01  0.5882689E+05  0.1651582E+05  0.2593737E-03 -0.3051758E-03 -0.1199873E+06 -0.3101135E+05
  0.1442857E+01  0.5891177E+05  0.1851434E+05 -0.7614287E-03  0.5035400E-03 -0.1198747E+06 -0.3454246E+05
  0.1473810E+01  0.5886659E+05  0.2063452E+05 -0.1967126E-03 -0.6408691E-03 -0.1195087E+06 -0.3824306E+05
  0.1504762E+01  0.5870491E+05  0.2287155E+05  0.5272974E-03  0.7629395E-03 -0.1189151E+06 -0.4209736E+05
  0.1535714E+01  0.5848941E+05  0.2522848E+05  0.3477584E-03 -0.3890991E-03 -0.1182658E+06 -0.4612124E+05
  0.1566667E+01  0.5814133E+05  0.2766748E+05 -0.1003184E-02  0.2822876E-03 -0.1173266E+06 -0.5020911E+05
  0.1597619E+01  0.5771305E+05  0.3018393E+05  0.1910191E-04 -0.7553101E-03 -0.1162127E+06 -0.5435147E+05
  0.1628572E+01  0.5720607E+05  0.3275570E+05 -0.3654078E-03 -0.1373291E-02 -0.1149287E+06 -0.5850157E+05
  0.1659524E+01  0.5660000E+05  0.3537722E+05  0.7907424E-03 -0.8239746E-03 -0.1135309E+06 -0.6268006E+05
  0.1690476E+01  0.5584531E+05  0.3799693E+05  0.9026326E-05 -0.8850098E-03 -0.1119084E+06 -0.6678244E+05
  0.1721429E+01  0.5493296E+05  0.4056662E+05 -0.5407056E-03 -0.4196167E-03 -0.1099772E+06 -0.7067655E+05
  0.1752381E+01  0.5396464E+05  0.4312695E+05 -0.3657134E-03 -0.1144409E-02 -0.1080296E+06 -0.7450676E+05
  0.1783333E+01  0.5294441E+05  0.4564402E+05 -0.5219362E-03  0.1296997E-03 -0.1060296E+06 -0.7818479E+05
  0.1814286E+01  0.5178286E+05  0.4801370E+05 -0.9756014E-03 -0.7171631E-03 -0.1037570E+06 -0.8147343E+05
  0.1845238E+01  0.5059886E+05  0.5029261E+05  0.1281738E-02 -0.5264282E-03 -0.1014900E+06 -0.8453877E+05
  0.1876190E+01  0.4937648E+05  0.5242834E+05 -0.6262300E-03 -0.8316040E-03 -0.9917797E+05 -0.8727472E+05
  0.1907143E+01  0.4813524E+05  0.5444038E+05  0.7200777E-04 -0.1449585E-03 -0.9690198E+05 -0.8975645E+05
  0.1938095E+01  0.4680979E+05  0.5625259E+05  0.4960044E-03 -0.1457214E-02 -0.9456067E+05 -0.9187012E+05
  0.1969048E+01  0.4544007E+05  0.5783375E+05 -0.7439352E-03  0.4959106E-03 -0.9213891E+05 -0.9347120E+05
  0.2000000E+01  0.4405981E+05  0.5922099E+05 -0.7095337E-03  0.4272461E-03 -0.8974271E+05 -0.9469334E+05
Zone t="Motion of body    1 in DoF   2",I=    64,F=POINT
  0.5000000E-01  0.3242493E-03  0.1728535E-05  0.1769383E+05  0.2008879E+02 -0.2365112E-02 -0.5960464E-05
  0.8095238E-01 -0.7186216E-03  0.8940697E-05  0.1761179E+05  0.3326981E+02  0.9424546E-04 -0.1311302E-04
  0.1119048E+00 -0.1201630E-02  0.2622604E-05  0.1754681E+05  0.4755685E+02  0.5454206E-03 -0.1120567E-04
  0.1428571E+00 -0.3070831E-03 -0.4768372E-05  0.1752231E+05  0.6348635E+02  0.3684997E-02  0.2956390E-04
  0.1738095E+00  0.2052098E-02  0.3337860E-05  0.1752678E+05  0.8165266E+02 -0.7023223E-03 -0.2527237E-04
  0.2047619E+00 -0.8010864E-03 -0.1740456E-04  0.1749665E+05  0.1029242E+03  0.3725983E-02  0.7629395E-04
  0.2357143E+00 -0.1456521E-03 -0.2050400E-04  0.1751528E+05  0.1283862E+03 -0.4531397E-02  0.1001358E-04
  0.2666667E+00 -0.1044273E-02 -0.1430511E-04  0.1752171E+05  0.1589009E+03  0.2746582E-02  0.2002716E-04
  0.2976190E+00  0.0000000E+00  0.1716614E-04  0.1754731E+05  0.1966967E+03  0.1589356E-02 -0.2193451E-04
  0.3285715E+00 -0.1253874E-02 -0.2002716E-04  0.1756065E+05  0.2426373E+03  0.6640890E-02 -0.2193451E-04
  0.3595238E+00 -0.1061042E-04  0.1525879E-04  0.1759033E+05  0.2992812E+03 -0.2546500E-03  0.1010895E-03
  0.3904762E+00 -0.1289554E-02  0.7057190E-04  0.1758797E+05  0.3681923E+03  0.4298512E-02 -0.1144409E-04
  0.4214286E+00  0.9775969E-03  0.1316071E-03  0.1761514E+05  0.4483154E+03  0.2172438E-03  0.1335144E-04
  0.4523810E+00  0.4722193E-03 -0.4005432E-04  0.1756465E+05  0.5441633E+03  0.3372995E-02 -0.0000000E+00
  0.4833333E+00 -0.2146754E-02 -0.7057190E-04  0.1755484E+05  0.6458250E+03  0.7513638E-02  0.6103516E-04
  0.5142857E+00  0.1958211E-02  0.2479553E-04  0.1747093E+05  0.7592632E+03 -0.1127455E-02  0.4730225E-03
  0.5452381E+00  0.6436677E-03 -0.9155273E-04  0.1739055E+05  0.8769625E+03 -0.4477688E-03 -0.2708435E-03
  0.5761905E+00 -0.1032806E-02 -0.1754761E-03  0.1732751E+05  0.9957845E+03 -0.2118576E-03 -0.1525879E-04
  0.6071429E+00 -0.1633588E-03  0.1640320E-03  0.1718347E+05  0.1120142E+04  0.0000000E+00  0.1678467E-03
  0.6380953E+00  0.2271738E-03 -0.1792908E-03  0.1708429E+05  0.1239323E+04  0.4734779E-02 -0.3814697E-04
  0.6690477E+00  0.1299984E-02  0.1411438E-03  0.1697661E+05  0.1357402E+04  0.3649077E-03 -0.1831055E-03
  0.7000000E+00  0.5449567E-03 -0.1068115E-03  0.1681459E+05  0.1475207E+04 -0.3880092E-02 -0.3967285E-03
  0.7309524E+00 -0.2191898E-03 -0.2212524E-03  0.1668742E+05  0.1586505E+04  0.2505026E-03  0.4730225E-03
  0.7619048E+00  0.1101494E-03 -0.1220703E-03  0.1659504E+05  0.1692547E+04  0.4806518E-02  0.1342773E-02
  0.7928572E+00 -0.1318304E-02 -0.2975464E-03  0.1641110E+05  0.1792641E+04  0.2617363E-02  0.1533508E-02
  0.8238096E+00 -0.2037445E-03 -0.1754761E-03  0.1625526E+05  0.1885912E+04  0.2444934E-02  0.2517700E-03
  0.8547620E+00 -0.1811928E-02 -0.4653931E-03  0.1613315E+05  0.1970139E+04  0.3927331E-02  0.1091003E-02
  0.8857143E+00 -0.1231778E-02  0.2059937E-03  0.1601423E+05  0.2044548E+04  0.3169890E-02 -0.2449036E-02
  0.9166667E+00 -0.5409934E-03 -0.8010864E-03  0.1584375E+05  0.2107965E+04  0.2463601E-02  0.1899719E-02
  0.9476191E+00 -0.7246008E-04  0.1678467E-03  0.1569541E+05  0.2162043E+04  0.3284857E-02  0.7171631E-03
  0.9785714E+00  0.5379558E-03 -0.0000000E+00  0.1557586E+05  0.2204930E+04 -0.5613453E-03  0.2433777E-02
  0.1009524E+01 -0.9522348E-03 -0.1129150E-02  0.1549750E+05  0.2238558E+04  0.6045936E-02  0.2120972E-02
  0.1040476E+01 -0.4839515E-03 -0.8392334E-03  0.1534170E+05  0.2254285E+04  0.1642502E-02 -0.7629395E-05
  0.1071429E+01 -0.5055746E-03 -0.8697510E-03  0.1520303E+05  0.2260301E+04 -0.2848307E-03  0.1518250E-02
  0.1102381E+01  0.1730208E-04  0.1144409E-02  0.1509329E+05  0.2257660E+04  0.4429333E-03 -0.1892090E-02
  0.1133333E+01  0.7068409E-04  0.1678467E-03  0.1501041E+05  0.2245845E+04  0.1777200E-02  0.6713867E-03
  0.1164286E+01 -0.1959303E-02 -0.5035400E-03  0.1496586E+05  0.2228947E+04  0.3145370E-02  0.6942749E-03
  0.1195238E+01 -0.5904422E-03  0.3356934E-03  0.1485204E+05  0.2185553E+04  0.1991546E-02 -0.3059387E-02
  0.1226190E+01 -0.6844234E-03  0.3051758E-04  0.1475417E+05  0.2135822E+04  0.1941274E-02 -0.1396179E-02
  0.1257143E+01 -0.5537813E-03 -0.7629395E-04  0.1467591E+05  0.2082307E+04  0.1456521E-03 -0.1068115E-02
  0.1288095E+01  0.7255681E-04 -0.5187988E-03  0.1462159E+05  0.2023540E+04  0.1374137E-02  0.1983643E-03
  0.1319048E+01 -0.4099422E-03  0.1068115E-03  0.1459699E+05  0.1968246E+04  0.1897158E-02  0.1296997E-02
  0.1350000E+01 -0.1144762E-02 -0.8392334E-03  0.1460267E+05  0.1916187E+04  0.5515770E-02  0.7858276E-03
  0.1380952E+01 -0.7603415E-03 -0.1251221E-02  0.1452600E+05  0.1814374E+04  0.1502728E-02  0.2464294E-02
  0.1411905E+01 -0.2100657E-03  0.3051758E-03  0.1447737E+05  0.1721310E+04  0.2420821E-02 -0.2166748E-02
  0.1442857E+01  0.4097967E-04 -0.6561279E-03  0.1444321E+05  0.1630494E+04  0.7614287E-03  0.1609802E-02
  0.1473810E+01 -0.2834215E-03 -0.2593994E-03  0.1442857E+05  0.1545353E+04  0.1159569E-02  0.1983643E-02
  0.1504762E+01 -0.2839294E-03  0.5340576E-03  0.1443225E+05  0.1467827E+04  0.6895427E-03  0.4348755E-03
  0.1535714E+01 -0.5067337E-03  0.8087158E-03  0.1445754E+05  0.1408631E+04  0.2623092E-02  0.4577637E-04
  0.1566667E+01 -0.3798464E-03  0.4577637E-04  0.1448256E+05  0.1341364E+04  0.2103765E-02  0.3967285E-03
  0.1597619E+01  0.1146115E-03  0.1937866E-02  0.1445897E+05  0.1214467E+04  0.7640765E-03 -0.3128052E-03
  0.1628572E+01 -0.7097344E-03 -0.7476807E-03  0.1445426E+05  0.1109681E+04  0.1986319E-02  0.1953125E-02
  0.1659524E+01 -0.4551366E-03 -0.1296997E-02  0.1445615E+05  0.1012307E+04  0.2942297E-02  0.2864838E-02
  0.1690476E+01 -0.1177936E-02  0.3356934E-03  0.1447118E+05  0.9316277E+03  0.3791057E-02 -0.5149841E-03
  0.1721429E+01 -0.7711704E-03  0.1678467E-03  0.1449413E+05  0.8600696E+03  0.3084681E-02  0.1754761E-03
  0.1752381E+01 -0.1959179E-03 -0.1373291E-03  0.1452830E+05  0.8147017E+03  0.1462854E-02 -0.1907349E-03
  0.1783333E+01 -0.2780807E-03 -0.3662109E-03  0.1457074E+05  0.7910219E+03  0.1882393E-02 -0.6027222E-03
  0.1814286E+01  0.4625696E-04 -0.3662109E-03  0.1460110E+05  0.7309741E+03  0.1480223E-02  0.3700256E-03
  0.1845238E+01 -0.5457724E-03  0.6866455E-03  0.1461286E+05  0.6175123E+03  0.1323085E-02 -0.7705688E-03
  0.1876190E+01 -0.1382586E-03  0.6408691E-03  0.1463188E+05  0.5350157E+03  0.2342263E-02 -0.4768372E-04
  0.1907143E+01 -0.6440695E-03 -0.4577637E-04  0.1465091E+05  0.4569529E+03  0.3392366E-02  0.1354218E-03
  0.1938095E+01 -0.6298468E-04 -0.0000000E+00  0.1467626E+05  0.4040153E+03  0.1196709E-02  0.2441406E-03
  0.1969048E+01 -0.1627358E-03 -0.6408691E-03  0.1470339E+05  0.3596910E+03  0.9919136E-03  0.5283356E-03
  0.2000000E+01 -0.4997253E-03  0.3051758E-04  0.1473299E+05  0.3308237E+03  0.3234863E-02 -0.9632111E-03
Zone t="Motion of body    1 in DoF   3",I=    64,F=POINT
  0.5000000E-01 -0.1017900E+06 -0.4065888E-02  0.2737045E-02  0.7911745E-05  0.2720814E+06  0.8763909E-02
  0.8095238E-01 -0.1025895E+06 -0.1799365E-01 -0.9306739E-03 -0.1347405E-05  0.2737528E+06  0.3886100E-01
  0.1119048E+00 -0.1029390E+06 -0.5036599E-01 -0.2164638E-02 -0.3960798E-05  0.2741452E+06  0.1082597E+00
  0.1428571E+00 -0.1030615E+06 -0.1130839E+00 -0.1148224E-02 -0.1120614E-04  0.2743137E+06  0.2426633E+00
  0.1738095E+00 -0.1031731E+06 -0.2247040E+00  0.1089697E-01  0.9744079E-04  0.2745511E+06  0.4820516E+00
  0.2047619E+00 -0.1032754E+06 -0.4147542E+00  0.4359400E-02  0.3079604E-04  0.2746714E+06  0.8895452E+00
  0.2357143E+00 -0.1033126E+06 -0.7286345E+00 -0.3730311E-02 -0.3896235E-04  0.2747605E+06  0.1561524E+01
  0.2666667E+00 -0.1034785E+06 -0.1240463E+01  0.9226798E-03  0.1719529E-03  0.2750351E+06  0.2655553E+01
  0.2976190E+00 -0.1035677E+06 -0.2076209E+01 -0.3973389E-02 -0.9884220E-04  0.2751896E+06  0.4440746E+01
  0.3285715E+00 -0.1036865E+06 -0.3426519E+01 -0.2739948E-02 -0.1157895E-03  0.2753713E+06  0.7319126E+01
  0.3595238E+00 -0.1038679E+06 -0.5614149E+01  0.1029210E-02 -0.7055700E-04  0.2757350E+06  0.1197561E+02
  0.3904762E+00 -0.1040790E+06 -0.9123590E+01  0.8059710E-02  0.6248802E-04  0.2760720E+06  0.1943571E+02
  0.4214286E+00 -0.1042283E+06 -0.1463319E+02  0.5548767E-02  0.1942441E-03  0.2763009E+06  0.3111290E+02
  0.4523810E+00 -0.1045244E+06 -0.2327062E+02  0.4089757E-02  0.1916736E-03  0.2768098E+06  0.4939360E+02
  0.4833333E+00 -0.1047789E+06 -0.3605503E+02  0.9131595E-02  0.3805459E-03  0.2773497E+06  0.7642038E+02
  0.5142857E+00 -0.1050526E+06 -0.5498923E+02  0.3263686E-02  0.1561940E-03  0.2777244E+06  0.1162920E+03
  0.5452381E+00 -0.1053215E+06 -0.8184076E+02  0.5946930E-03 -0.5007386E-03  0.2781877E+06  0.1726976E+03
  0.5761905E+00 -0.1056312E+06 -0.1188827E+03 -0.3561855E-02 -0.7974505E-03  0.2787966E+06  0.2503457E+03
  0.6071429E+00 -0.1061272E+06 -0.1696306E+03 -0.6810805E-02 -0.8585453E-03  0.2796614E+06  0.3564777E+03
  0.6380953E+00 -0.1064949E+06 -0.2364875E+03 -0.1554347E-02 -0.5685091E-03  0.2803745E+06  0.4958366E+03
  0.6690477E+00 -0.1068760E+06 -0.3241389E+03  0.2143833E-02  0.8296967E-03  0.2809873E+06  0.6776080E+03
  0.7000000E+00 -0.1074156E+06 -0.4377999E+03  0.4980905E-02  0.1187801E-02  0.2818704E+06  0.9125988E+03
  0.7309524E+00 -0.1078578E+06 -0.5816252E+03  0.2880780E-02 -0.1217842E-02  0.2827275E+06  0.1209142E+04
  0.7619048E+00 -0.1084294E+06 -0.7626677E+03  0.1201629E-03 -0.1122475E-02  0.2838080E+06  0.1581370E+04
  0.7928572E+00 -0.1090352E+06 -0.9881854E+03 -0.2626986E-02 -0.9460449E-03  0.2848484E+06  0.2042651E+04
  0.8238096E+00 -0.1096969E+06 -0.1266131E+04  0.2593112E-02  0.9698868E-03  0.2859612E+06  0.2608065E+04
  0.8547620E+00 -0.1102306E+06 -0.1603951E+04 -0.1178199E-02 -0.2537727E-02  0.2868924E+06  0.3292137E+04
  0.8857143E+00 -0.1108425E+06 -0.2012298E+04 -0.9733631E-03 -0.9002686E-03  0.2879342E+06  0.4115285E+04
  0.9166667E+00 -0.1115630E+06 -0.2502375E+04 -0.1498136E-03 -0.1850128E-03  0.2891439E+06  0.5098312E+04
  0.9476191E+00 -0.1123758E+06 -0.3084471E+04 -0.7890097E-03 -0.7724762E-03  0.2906075E+06  0.6262366E+04
  0.9785714E+00 -0.1130190E+06 -0.3767975E+04 -0.6190391E-02 -0.2332687E-02  0.2916952E+06  0.7620737E+04
  0.1009524E+01 -0.1137929E+06 -0.4568874E+04  0.5335538E-02  0.3465652E-02  0.2929931E+06  0.9203240E+04
  0.1040476E+01 -0.1144500E+06 -0.5497774E+04  0.1745158E-02 -0.1316071E-03  0.2939854E+06  0.1102071E+05
  0.1071429E+01 -0.1152479E+06 -0.6572790E+04 -0.2278646E-03  0.1083374E-02  0.2951279E+06  0.1311298E+05
  0.1102381E+01 -0.1159611E+06 -0.7801128E+04  0.6145699E-02  0.4520416E-02  0.2963021E+06  0.1549216E+05
  0.1133333E+01 -0.1165798E+06 -0.9196739E+04 -0.3015855E-02 -0.1277924E-02  0.2972449E+06  0.1817546E+05
  0.1164286E+01 -0.1173040E+06 -0.1077876E+05  0.1651319E-02  0.4806519E-02  0.2983596E+06  0.2120097E+05
  0.1195238E+01 -0.1178810E+06 -0.1255134E+05  0.9191749E-03 -0.1945496E-02  0.2991716E+06  0.2456080E+05
  0.1226190E+01 -0.1185233E+06 -0.1453436E+05 -0.7466437E-03 -0.1373291E-02  0.2999671E+06  0.2829136E+05
  0.1257143E+01 -0.1190341E+06 -0.1671660E+05 -0.1857064E-02  0.1045227E-02  0.3006464E+06  0.3237527E+05
  0.1288095E+01 -0.1194276E+06 -0.1912292E+05 -0.6669304E-02 -0.2388000E-02  0.3009051E+06  0.3680578E+05
  0.1319048E+01 -0.1197311E+06 -0.2174785E+05 -0.4615646E-02 -0.1129150E-02  0.3010991E+06  0.4160583E+05
  0.1350000E+01 -0.1199150E+06 -0.2459746E+05 -0.4803693E-02 -0.4158020E-02  0.3009690E+06  0.4676285E+05
  0.1380952E+01 -0.1199449E+06 -0.2767154E+05  0.4209847E-02  0.3875732E-02  0.3005858E+06  0.5226271E+05
  0.1411905E+01 -0.1198478E+06 -0.3095139E+05 -0.1729158E-02 -0.3890991E-03  0.2999706E+06  0.5811175E+05
  0.1442857E+01 -0.1197367E+06 -0.3446837E+05  0.2622699E-02  0.1327515E-02  0.2992998E+06  0.6430162E+05
  0.1473810E+01 -0.1193637E+06 -0.3815391E+05 -0.1428755E-02  0.1464844E-02  0.2981967E+06  0.7070860E+05
  0.1504762E+01 -0.1187566E+06 -0.4199208E+05 -0.8619284E-03 -0.4730225E-03  0.2966453E+06  0.7728681E+05
  0.1535714E+01 -0.1181058E+06 -0.4599191E+05 -0.2106423E-02 -0.1373291E-03  0.2950494E+06  0.8407373E+05
  0.1566667E+01 -0.1171571E+06 -0.5005958E+05  0.9447463E-03  0.2609253E-02  0.2928384E+06  0.9082959E+05
  0.1597619E+01 -0.1160472E+06 -0.5419700E+05 -0.1919742E-02  0.2990723E-02  0.2903883E+06  0.9757495E+05
  0.1628572E+01 -0.1147774E+06 -0.5834302E+05  0.3813358E-02  0.1220703E-03  0.2875272E+06  0.1041775E+06
  0.1659524E+01 -0.1133929E+06 -0.6250581E+05 -0.1838936E-04  0.4425049E-03  0.2845558E+06  0.1107088E+06
  0.1690476E+01 -0.1117782E+06 -0.6659298E+05 -0.7672377E-03 -0.7629395E-04  0.2813719E+06  0.1170231E+06
  0.1721429E+01 -0.1098393E+06 -0.7047164E+05  0.5030335E-02  0.1739502E-02  0.2775272E+06  0.1227479E+06
  0.1752381E+01 -0.1078979E+06 -0.7428480E+05  0.2982306E-02  0.1571655E-02  0.2738613E+06  0.1283171E+06
  0.1783333E+01 -0.1059022E+06 -0.7793046E+05  0.3080279E-03 -0.7324219E-03  0.2700766E+06  0.1334432E+06
  0.1814286E+01 -0.1036248E+06 -0.8120216E+05  0.1963818E-02  0.3051758E-03  0.2658299E+06  0.1377199E+06
  0.1845238E+01 -0.1013615E+06 -0.8426449E+05  0.1232123E-02 -0.6103516E-03  0.2617470E+06  0.1415800E+06
  0.1876190E+01 -0.9906261E+05 -0.8699324E+05  0.4773987E-02  0.5645752E-03  0.2575353E+06  0.1447279E+06
  0.1907143E+01 -0.9680333E+05 -0.8945566E+05  0.2728295E-02  0.5035400E-03  0.2534507E+06  0.1473293E+06
  0.1938095E+01 -0.9447845E+05 -0.9155762E+05 -0.1641538E-02  0.6713867E-03  0.2495647E+06  0.1494336E+06
  0.1969048E+01 -0.9205759E+05 -0.9313794E+05  0.2584400E-02 -0.1037598E-02  0.2454484E+06  0.1504167E+06
  0.2000000E+01 -0.8965767E+05 -0.9434269E+05 -0.1802444E-03 -0.1129150E-02  0.2414688E+06  0.1507307E+06
