VARIABLES="w (rad/s)"
"abs(F   1   1)" "angle(F   1   1)"
"abs(F   1   2)" "angle(F   1   2)"
"abs(F   1   3)" "angle(F   1   3)"
Zone t="Diffraction force - beta =   0.000 deg",I=    64,F=POINT
  0.5000000E-01  0.3476500E+04 -0.1570811E+01  0.5269059E+06 -0.3606458E-04  0.8732742E+02 -0.1570786E+01
  0.8095238E-01  0.5671050E+04 -0.1570799E+01  0.5258004E+06 -0.9698764E-04  0.1424161E+03 -0.1570788E+01
  0.1119048E+00  0.7907088E+04 -0.1570799E+01  0.5241783E+06 -0.1925014E-03  0.1992273E+03 -0.1570798E+01
  0.1428571E+00  0.1023240E+05 -0.1570789E+01  0.5220389E+06 -0.3298634E-03  0.2591194E+03 -0.1570784E+01
  0.1738095E+00  0.1264395E+05 -0.1570776E+01  0.5193775E+06 -0.5199907E-03  0.3212247E+03 -0.1570784E+01
  0.2047619E+00  0.1519791E+05 -0.1570778E+01  0.5161908E+06 -0.7786553E-03  0.3884843E+03 -0.1570776E+01
  0.2357143E+00  0.1789727E+05 -0.1570771E+01  0.5124725E+06 -0.1129177E-02  0.4597769E+03 -0.1570769E+01
  0.2666667E+00  0.2080474E+05 -0.1570752E+01  0.5082172E+06 -0.1599582E-02  0.5377963E+03 -0.1570753E+01
  0.2976190E+00  0.2397112E+05 -0.1570735E+01  0.5034248E+06 -0.2238002E-02  0.6250270E+03 -0.1570734E+01
  0.3285715E+00  0.2740062E+05 -0.1570701E+01  0.4980890E+06 -0.3092198E-02  0.7212244E+03 -0.1570696E+01
  0.3595238E+00  0.3119105E+05 -0.1570652E+01  0.4922253E+06 -0.4239229E-02  0.8276379E+03 -0.1570651E+01
  0.3904762E+00  0.3539584E+05 -0.1570582E+01  0.4858358E+06 -0.5763816E-02  0.9520200E+03 -0.1570581E+01
  0.4214286E+00  0.4002778E+05 -0.1570479E+01  0.4789893E+06 -0.7718667E-02  0.1086653E+04 -0.1570477E+01
  0.4523810E+00  0.4507180E+05 -0.1570325E+01  0.4716761E+06 -0.1025303E-01  0.1234520E+04 -0.1570322E+01
  0.4833333E+00  0.5065858E+05 -0.1570115E+01  0.4639825E+06 -0.1329144E-01  0.1407703E+04 -0.1570115E+01
  0.5142857E+00  0.5671355E+05 -0.1569822E+01  0.4559558E+06 -0.1700969E-01  0.1598277E+04 -0.1569818E+01
  0.5452381E+00  0.6314075E+05 -0.1569431E+01  0.4476048E+06 -0.2134377E-01  0.1802303E+04 -0.1569429E+01
  0.5761905E+00  0.6991719E+05 -0.1568921E+01  0.4389794E+06 -0.2630071E-01  0.2016429E+04 -0.1568919E+01
  0.6071429E+00  0.7712245E+05 -0.1568265E+01  0.4301442E+06 -0.3202826E-01  0.2260179E+04 -0.1568264E+01
  0.6380953E+00  0.8470062E+05 -0.1567448E+01  0.4210465E+06 -0.3836925E-01  0.2526971E+04 -0.1567447E+01
  0.6690477E+00  0.9253534E+05 -0.1566434E+01  0.4117889E+06 -0.4546596E-01  0.2802281E+04 -0.1566432E+01
  0.7000000E+00  0.1005139E+06 -0.1565186E+01  0.4024140E+06 -0.5339908E-01  0.3083047E+04 -0.1565184E+01
  0.7309524E+00  0.1087937E+06 -0.1563687E+01  0.3928606E+06 -0.6208966E-01  0.3395712E+04 -0.1563686E+01
  0.7619048E+00  0.1173812E+06 -0.1561898E+01  0.3832308E+06 -0.7162201E-01  0.3726438E+04 -0.1561900E+01
  0.7928572E+00  0.1261914E+06 -0.1559780E+01  0.3735797E+06 -0.8203521E-01  0.4078337E+04 -0.1559784E+01
  0.8238096E+00  0.1351701E+06 -0.1557302E+01  0.3639027E+06 -0.9333708E-01  0.4457387E+04 -0.1557305E+01
  0.8547620E+00  0.1442324E+06 -0.1554426E+01  0.3541972E+06 -0.1055287E+00  0.4838406E+04 -0.1554424E+01
  0.8857143E+00  0.1533151E+06 -0.1551121E+01  0.3445150E+06 -0.1186316E+00  0.5222478E+04 -0.1551113E+01
  0.9166667E+00  0.1625275E+06 -0.1547372E+01  0.3348774E+06 -0.1326718E+00  0.5637569E+04 -0.1547373E+01
  0.9476191E+00  0.1718566E+06 -0.1543164E+01  0.3253326E+06 -0.1476594E+00  0.6084898E+04 -0.1543190E+01
  0.9785714E+00  0.1812610E+06 -0.1538478E+01  0.3158760E+06 -0.1635815E+00  0.6553159E+04 -0.1538507E+01
  0.1009524E+01  0.1906155E+06 -0.1533299E+01  0.3065428E+06 -0.1804538E+00  0.7029551E+04 -0.1533336E+01
  0.1040476E+01  0.1998455E+06 -0.1527620E+01  0.2973364E+06 -0.1982705E+00  0.7515797E+04 -0.1527656E+01
  0.1071429E+01  0.2088044E+06 -0.1521444E+01  0.2882877E+06 -0.2170458E+00  0.8007638E+04 -0.1521445E+01
  0.1102381E+01  0.2174851E+06 -0.1514798E+01  0.2793512E+06 -0.2367670E+00  0.8505951E+04 -0.1514735E+01
  0.1133333E+01  0.2258886E+06 -0.1507757E+01  0.2705627E+06 -0.2574412E+00  0.9014358E+04 -0.1507693E+01
  0.1164286E+01  0.2339924E+06 -0.1500411E+01  0.2619346E+06 -0.2790950E+00  0.9525764E+04 -0.1500389E+01
  0.1195238E+01  0.2416959E+06 -0.1492824E+01  0.2534983E+06 -0.3017132E+00  0.1003718E+05 -0.1492856E+01
  0.1226190E+01  0.2488954E+06 -0.1485074E+01  0.2452611E+06 -0.3253054E+00  0.1055502E+05 -0.1485065E+01
  0.1257143E+01  0.2554839E+06 -0.1477191E+01  0.2372129E+06 -0.3500296E+00  0.1106866E+05 -0.1477135E+01
  0.1288095E+01  0.2615147E+06 -0.1469515E+01  0.2293313E+06 -0.3753489E+00  0.1158689E+05 -0.1469441E+01
  0.1319048E+01  0.2668479E+06 -0.1462037E+01  0.2216463E+06 -0.4018064E+00  0.1207592E+05 -0.1461973E+01
  0.1350000E+01  0.2714332E+06 -0.1454985E+01  0.2141634E+06 -0.4292220E+00  0.1253517E+05 -0.1454997E+01
  0.1380952E+01  0.2752732E+06 -0.1448515E+01  0.2068605E+06 -0.4575431E+00  0.1297382E+05 -0.1448552E+01
  0.1411905E+01  0.2778262E+06 -0.1443348E+01  0.1998868E+06 -0.4863608E+00  0.1333498E+05 -0.1443290E+01
  0.1442857E+01  0.2800572E+06 -0.1438536E+01  0.1929993E+06 -0.5165954E+00  0.1374150E+05 -0.1438444E+01
  0.1473810E+01  0.2815168E+06 -0.1434850E+01  0.1862922E+06 -0.5477870E+00  0.1412796E+05 -0.1434731E+01
  0.1504762E+01  0.2822023E+06 -0.1432440E+01  0.1797687E+06 -0.5799105E+00  0.1447844E+05 -0.1432353E+01
  0.1535714E+01  0.2821356E+06 -0.1431443E+01  0.1734379E+06 -0.6129653E+00  0.1478914E+05 -0.1431403E+01
  0.1566667E+01  0.2813235E+06 -0.1431984E+01  0.1673013E+06 -0.6470031E+00  0.1505648E+05 -0.1431932E+01
  0.1597619E+01  0.2798452E+06 -0.1434217E+01  0.1613460E+06 -0.6819987E+00  0.1529968E+05 -0.1434203E+01
  0.1628572E+01  0.2777452E+06 -0.1438251E+01  0.1556043E+06 -0.7179331E+00  0.1552135E+05 -0.1438239E+01
  0.1659524E+01  0.2750791E+06 -0.1444162E+01  0.1500258E+06 -0.7548488E+00  0.1571539E+05 -0.1444195E+01
  0.1690476E+01  0.2719010E+06 -0.1452033E+01  0.1446205E+06 -0.7927568E+00  0.1588043E+05 -0.1451958E+01
  0.1721429E+01  0.2682957E+06 -0.1461915E+01  0.1393655E+06 -0.8316018E+00  0.1601708E+05 -0.1461718E+01
  0.1752381E+01  0.2643181E+06 -0.1473839E+01  0.1342672E+06 -0.8713613E+00  0.1611899E+05 -0.1473559E+01
  0.1783333E+01  0.2600065E+06 -0.1487818E+01  0.1293359E+06 -0.9120893E+00  0.1619316E+05 -0.1487668E+01
  0.1814286E+01  0.2554205E+06 -0.1503874E+01  0.1245706E+06 -0.9538709E+00  0.1623770E+05 -0.1504022E+01
  0.1845238E+01  0.2506175E+06 -0.1522002E+01  0.1199556E+06 -0.9966600E+00  0.1626681E+05 -0.1522384E+01
  0.1876190E+01  0.2456495E+06 -0.1542189E+01  0.1155256E+06 -0.1040358E+01  0.1628689E+05 -0.1542562E+01
  0.1907143E+01  0.2405488E+06 -0.1564401E+01  0.1112250E+06 -0.1085106E+01  0.1629284E+05 -0.1564764E+01
  0.1938095E+01  0.2353558E+06 -0.1588626E+01  0.1070577E+06 -0.1130934E+01  0.1628922E+05 -0.1588835E+01
  0.1969048E+01  0.2301078E+06 -0.1614807E+01  0.1029999E+06 -0.1177839E+01  0.1627070E+05 -0.1614815E+01
  0.2000000E+01  0.2248319E+06 -0.1642898E+01  0.9905856E+05 -0.1225815E+01  0.1623614E+05 -0.1642792E+01
